FOO
138240
    1MOL0     O    1   5.705   6.093   5.817 -0.0146  0.1424 -0.2396
    1MOL0     C    2   5.685   6.211   5.836 -0.4036 -0.1954 -0.0781
    1MOL0     O    3   5.777   6.310   5.811  0.1561 -0.3158 -0.1332
    1MOL0     C    4   5.882   6.293   5.732 -0.5392 -0.2178  0.5322
    1MOL0     C    5   5.992   6.379   5.758 -0.0342  0.3291  0.1266
    1MOL0     C    6   6.108   6.366   5.684 -0.2613 -0.3642 -0.6851
    1MOL0     C    7   6.120   6.280   5.578 -0.2970  1.1291 -0.2224
    1MOL0     O    8   6.231   6.255   5.506  0.0916  0.0998  0.1679
    1MOL0     C    9   6.355   6.246   5.585  0.2430 -0.2102  0.2482
    1MOL0     C   10   6.439   6.133   5.520  0.4169 -0.4163  0.5568
    1MOL0     C   11   6.574   6.126   5.584  0.3314 -0.1481  0.5262
    1MOL0     C   12   6.684   6.068   5.493 -0.0532  0.5276 -0.7966
    1MOL0     C   13   6.810   6.043   5.576  0.1084  0.7439 -0.9370
    1MOL0     C   14   6.925   6.017   5.478  0.1639 -0.0040  0.3253
    1MOL0     C   15   7.059   5.991   5.544  0.1087  0.7462 -0.6108
    1MOL0     C   16   7.148   6.107   5.568 -0.7140  0.3842  0.3823
    1MOL0     N   17   7.192   6.156   5.438 -0.0421 -0.7437  0.5176
    1MOL0     C   18   7.292   6.107   5.358  0.3044  0.3074  0.7344
    1MOL0     C   19   7.321   6.209   5.271 -0.3121  0.0012  0.2364
    1MOL0     C   20   7.442   6.202   5.185  0.0762 -0.4844  0.4338
    1MOL0     C   21   7.578   6.240   5.260 -0.4973 -0.1166  0.3048
    1MOL0     C   22   7.585   6.379   5.322  0.1655  0.0836  0.1992
    1MOL0     C   23   7.729   6.431   5.345 -1.2334  0.3103  0.2086
    1MOL0     O   24   7.792   6.448   5.222  0.1331  0.1953  1.5844
    1MOL0     C   25   7.920   6.405   5.203 -0.0981  0.4053  0.3615
    1MOL0     C   26   7.951   6.271   5.176 -0.5151  0.2366 -0.7043
    1MOL0     C   27   8.087   6.232   5.168  0.3314  0.5833  0.4386
    1MOL0     C   28   8.195   6.323   5.193 -0.3274 -0.1171  0.2287
    1MOL0     C   29   8.334   6.272   5.164 -0.1571  0.0567 -0.2829
    1MOL0     O   30   8.434   6.368   5.163  0.3794 -0.5324  0.0621
    1MOL0     C   31   8.555   6.331   5.123  0.1279  0.0771  0.1909
    1MOL0     C   32   8.668   6.337   5.208  0.2357 -0.6393  0.0324
    1MOL0     C   33   8.799   6.320   5.160 -0.0928  0.9831  0.3536
    1MOL0     C   34   8.819   6.293   5.020 -0.0858  0.3343 -1.3636
    1MOL0     O   35   8.956   6.287   4.996  1.0427 -0.4650  0.6802
    1MOL0     C   36   8.996   6.234   4.867 -0.5297 -0.0575 -0.1525
    1MOL0     C   37   9.148   6.252   4.864  0.0235 -0.2555  0.5587
    1MOL0     C   38   9.191   6.384   4.802 -0.1180  0.9207 -0.1917
    1MOL0     C   39   9.344   6.393   4.811 -0.4056  0.3952  0.1627
    1MOL0     C   40   9.430   6.268   4.772 -0.2455  0.0406  0.3882
    1MOL0     C   41   9.580   6.304   4.773  0.4535 -0.3934 -0.1722
    1MOL0     C   42   9.668   6.188   4.736  0.3155  0.4730 -0.1399
    1MOL0     C   43   9.816   6.214   4.699 -0.1322 -0.5327 -0.4147
    1MOL0    Cl   44   9.905   6.255   4.848 -0.0470  0.1222  0.0394
    1MOL0     C   45   8.707   6.272   4.946  0.4299  0.3579  0.4376
    1MOL0     C   46   8.577   6.285   4.996 -0.2314  0.8639  0.8817
    1MOL0     O   47   8.352   6.148   5.139  0.1578 -0.4649  0.0394
    1MOL0     C   48   8.158   6.453   5.229 -0.5768  0.4676 -0.6765
    1MOL0     C   49   8.024   6.494   5.223  0.3390 -0.0620 -0.1683
    1MOL0     N   50   7.241   6.318   5.297  0.3294  0.2765  0.0014
    1MOL0     N   51   7.168   6.285   5.399  0.2236  0.3655 -0.3686
    1MOL0     C   52   6.006   6.196   5.548 -0.2926 -0.4613 -0.3898
    1MOL0     C   53   5.890   6.208   5.624  0.1593  0.0862  0.2478
    1MOL0     C   54   5.556   6.255   5.903 -0.0504 -0.2503  1.2901
    1MOL0     C   55   5.549   6.382   5.974 -0.3246 -0.1110  0.4095
    1MOL0     C   56   5.442   6.420   6.051 -1.1454  0.4752  0.5720
    1MOL0     C   57   5.334   6.334   6.057 -0.0006  0.0455 -0.3558
    1MOL0     O   58   5.242   6.351   6.155 -0.2856 -0.2434 -0.3994
    1MOL0     C   59   5.250   6.459   6.249 -0.5078 -0.7666 -0.9835
    1MOL0     C   60   5.146   6.450   6.357  0.2387  0.7702  0.0856
    1MOL0     C   61   5.140   6.314   6.418 -0.0356 -0.6181  0.8096
    1MOL0     C   62   5.027   6.297   6.516  0.0318  0.4875 -0.2511
    1MOL0     C   63   5.032   6.163   6.570 -0.2687  0.4552  0.5607
    1MOL0     C   64   5.017   6.051   6.612  0.4076 -1.3329  0.7550
    1MOL0     C   65   5.329   6.213   5.989  0.7352  0.5581  0.0999
    1MOL0     C   66   5.436   6.176   5.904  0.0213  0.0727  0.5774
    1MOL0     C   67   5.430   6.041   5.831  0.5307 -0.2967  0.0311
    1MOL0     H   68   5.989   6.447   5.842  1.7661 -0.3531  0.7891
    1MOL0     H   69   6.192   6.427   5.716 -0.8640 -1.3348  3.2566
    1MOL0     H   70   6.404   6.344   5.578 -2.1146  1.0351 -0.2341
    1MOL0     H   71   6.341   6.223   5.690  0.7087  1.8487  0.8152
    1MOL0     H   72   6.447   6.150   5.412  0.2289  0.1660  0.6273
    1MOL0     H   73   6.396   6.034   5.535  2.8184 -1.8516 -1.4619
    1MOL0     H   74   6.563   6.058   5.669 -0.8437 -0.0349  0.4783
    1MOL0     H   75   6.603   6.225   5.619 -0.0152  0.1611 -0.0439
    1MOL0     H   76   6.653   5.970   5.457  1.9533 -0.4107 -0.1209
    1MOL0     H   77   6.697   6.133   5.406  1.1261 -0.7223 -1.5937
    1MOL0     H   78   6.832   6.132   5.635 -3.4585  0.1207  1.6266
    1MOL0     H   79   6.811   5.959   5.645  0.7584  0.4770 -1.2528
    1MOL0     H   80   6.891   5.932   5.417 -3.2025  0.5724  1.2328
    1MOL0     H   81   6.918   6.107   5.416  2.2604 -0.2605 -0.3640
    1MOL0     H   82   7.114   5.914   5.488 -1.6299 -0.5298 -0.6733
    1MOL0     H   83   7.042   5.950   5.644  2.0412  1.5919  0.1216
    1MOL0     H   84   7.093   6.179   5.630 -0.8114 -0.2611  1.0686
    1MOL0     H   85   7.242   6.091   5.622  0.3355  0.4714 -1.3671
    1MOL0     H   86   7.344   6.012   5.366  4.3848  1.6952 -3.9084
    1MOL0     H   87   7.441   6.100   5.145 -0.0317 -0.6351  0.8173
    1MOL0     H   88   7.414   6.275   5.108 -1.3380 -0.1921  1.1829
    1MOL0     H   89   7.592   6.163   5.337  2.2400 -2.1574 -2.0315
    1MOL0     H   90   7.662   6.230   5.190  1.2717 -0.1999  2.3216
    1MOL0     H   91   7.531   6.378   5.417  1.4022 -2.9637  1.0093
    1MOL0     H   92   7.544   6.457   5.259  0.8667  0.4694  0.2065
    1MOL0     H   93   7.793   6.367   5.407  1.7607  1.7595 -1.1795
    1MOL0     H   94   7.716   6.527   5.394 -2.3433 -0.4418  1.4576
    1MOL0     H   95   7.871   6.200   5.159 -0.7697  0.2439  0.3594
    1MOL0     H   96   8.097   6.125   5.149  0.2003  0.3352  1.6663
    1MOL0     H   97   8.649   6.360   5.312 -1.7139 -1.4134 -0.0977
    1MOL0     H   98   8.882   6.338   5.226  1.2432  0.5299 -1.1294
    1MOL0     H   99   8.972   6.127   4.862 -0.2024 -0.1191 -0.5198
    1MOL0     H  100   8.950   6.286   4.783  0.2586 -1.9811 -1.8525
    1MOL0     H  101   9.210   6.245   4.954  2.9586 -0.4974 -1.3630
    1MOL0     H  102   9.179   6.173   4.795  0.6667 -0.8610  1.5167
    1MOL0     H  103   9.163   6.389   4.696  0.7324 -1.1968 -0.5820
    1MOL0     H  104   9.151   6.465   4.864 -1.7481  0.1677 -0.1936
    1MOL0     H  105   9.384   6.433   4.905 -0.6800  0.7007  0.1480
    1MOL0     H  106   9.366   6.477   4.744 -3.2998  0.6542 -0.5788
    1MOL0     H  107   9.403   6.220   4.678  2.4184  0.5081 -0.6949
    1MOL0     H  108   9.403   6.206   4.858  0.4344  0.8548  1.2136
    1MOL0     H  109   9.599   6.381   4.698  0.9301 -0.1712  0.1746
    1MOL0     H  110   9.604   6.347   4.870 -2.4217 -1.2508  1.0271
    1MOL0     H  111   9.620   6.140   4.650 -1.7049  0.0739  1.1596
    1MOL0     H  112   9.665   6.116   4.819 -3.6966  0.5334 -0.0525
    1MOL0     H  113   9.861   6.126   4.653  2.7256  1.4083 -1.6594
    1MOL0     H  114   9.827   6.301   4.634  0.2150  0.3185  0.7419
    1MOL0     H  115   8.714   6.225   4.848  1.6638 -1.2940  1.2610
    1MOL0     H  116   8.489   6.268   4.935  0.8048  1.9679 -1.0544
    1MOL0     H  117   8.226   6.537   5.237 -2.1340  1.9764 -2.3693
    1MOL0     H  118   8.003   6.599   5.239  1.9170  0.4543 -1.2772
    1MOL0     H  119   6.025   6.144   5.455  2.2375  3.0140 -2.0734
    1MOL0     H  120   5.813   6.136   5.597  1.9532 -2.1078  0.6366
    1MOL0     H  121   5.630   6.452   5.957 -1.3174  0.6561 -1.4354
    1MOL0     H  122   5.454   6.517   6.097  0.3428  0.4814  0.2221
    1MOL0     H  123   5.241   6.559   6.205 -2.0398 -0.1007  0.6803
    1MOL0     H  124   5.346   6.462   6.301 -1.1644  0.3073  0.2485
    1MOL0     H  125   5.048   6.471   6.313 -0.3136 -0.4188  0.6794
    1MOL0     H  126   5.165   6.530   6.429 -0.7629  0.9013  0.2207
    1MOL0     H  127   5.244   6.295   6.447  1.2783  0.9542 -2.3814
    1MOL0     H  128   5.128   6.232   6.345 -0.6694 -1.5327  1.9136
    1MOL0     H  129   5.035   6.372   6.595 -1.8321 -1.1679  1.6127
    1MOL0     H  130   4.934   6.315   6.462  2.0625  1.1778 -3.9234
    1MOL0     H  131   4.991   5.951   6.640 -1.8102 -0.8252  0.6832
    1MOL0     H  132   5.247   6.151   6.022 -0.0663  1.6616  0.2502
    1MOL0     H  133   5.324   6.014   5.830 -0.5709  3.3416  1.4470
    1MOL0     H  134   5.460   6.054   5.727  0.6042 -1.0565 -0.0486
    1MOL0     H  135   5.496   5.969   5.880 -2.3640 -0.5799  4.0875
    2MOL0     O  136   8.662   8.290  10.066  0.4061 -1.0820  0.0613
    2MOL0     C  137   8.621   8.176  10.063  0.1031 -0.3865  0.2149
    2MOL0     O  138   8.691   8.070  10.105  0.6859 -0.5010 -0.0120
    2MOL0     C  139   8.815   8.092  10.163  0.7701 -0.2816  0.2125
    2MOL0     C  140   8.910   8.112  10.061 -0.3885  0.1002 -0.1172
    2MOL0     C  141   9.042   8.118  10.101 -0.9715 -0.2943  0.6991
    2MOL0     C  142   9.078   8.117  10.237 -0.1878 -0.1405  0.3191
    2MOL0     O  143   9.203   8.144  10.290  0.2934 -0.2344 -0.5686
    2MOL0     C  144   9.322   8.115  10.207  0.2391 -0.1215 -0.6045
    2MOL0     C  145   9.448   8.098  10.286 -0.1882  1.3822 -1.2394
    2MOL0     C  146   9.562   8.063  10.195 -0.6964 -0.1879 -0.1997
    2MOL0     C  147   9.689   8.059  10.275  0.4185  0.3985 -0.2236
    2MOL0     C  148   9.814   8.020  10.199  0.3165  0.2953 -0.1183
    2MOL0     C  149   9.842   8.132  10.100 -0.8996  0.5001 -0.6037
    2MOL0     C  150   9.980   8.121  10.041 -0.5140  0.5128  0.5261
    2MOL0     C  151  10.100   8.138  10.145  0.2483  0.6354 -0.5682
    2MOL0     N  152  10.228   8.116  10.076  0.2158  0.0955  0.5081
    2MOL0     C  153  10.306   8.211  10.014 -0.3330 -0.4138  0.3575
    2MOL0     C  154  10.415   8.147   9.972 -0.0226  0.0796  0.4973
    2MOL0     C  155  10.521   8.196   9.878  0.0228 -0.3449  0.4429
    2MOL0     C  156  10.661   8.138   9.905 -0.0256 -0.2436  0.1746
    2MOL0     C  157  10.676   8.008   9.825 -0.6961 -0.1852  0.2594
    2MOL0     C  158  10.731   8.048   9.681  0.1166  0.2235 -0.4940
    2MOL0     O  159  10.859   8.104   9.679 -0.2185  0.6815  0.1267
    2MOL0     C  160  10.963   8.016   9.677 -0.7324 -0.8221  0.2377
    2MOL0     C  161  10.962   7.882   9.647  0.3681 -0.3284  1.3228
    2MOL0     C  162  11.073   7.800   9.651  0.2251 -0.7239  0.9505
    2MOL0     C  163  11.195   7.855   9.688 -0.5332  0.4643 -0.6098
    2MOL0     C  164  11.315   7.772   9.674  0.6280  0.3923  0.3265
    2MOL0     O  165  11.437   7.839   9.678 -0.0121 -0.4346 -0.0275
    2MOL0     C  166  11.546   7.763   9.642  0.0210 -0.2270  0.5288
    2MOL0     C  167  11.573   7.738   9.515  0.1617  0.8305 -0.5117
    2MOL0     C  168  11.689   7.673   9.486  0.6158 -0.1830  0.5725
    2MOL0     C  169  11.784   7.636   9.582  0.3849  0.2423 -0.2374
    2MOL0     O  170  11.905   7.579   9.563 -0.3420  1.1697 -0.2136
    2MOL0     C  171  11.958   7.599   9.432  0.0536  0.3479  0.4380
    2MOL0     C  172  12.111   7.594   9.429  1.0533 -0.2138 -0.3405
    2MOL0     C  173  12.172   7.465   9.482  0.1032 -0.3933  0.0295
    2MOL0     C  174  12.322   7.495   9.528  0.5559  0.6368  0.0256
    2MOL0     C  175  12.402   7.370   9.534  0.1792 -0.6136  0.0938
    2MOL0     C  176  12.557   7.397   9.574  0.1002  0.0760 -0.2579
    2MOL0     C  177  12.568   7.423   9.723  0.0007 -0.5178 -0.0761
    2MOL0     C  178  12.635   7.309   9.802 -0.6312 -0.3916 -0.5622
    2MOL0    Cl  179  12.800   7.273   9.762  0.4518 -0.0513 -0.2098
    2MOL0     C  180  11.740   7.638   9.714 -0.7811  0.2612  0.4023
    2MOL0     C  181  11.619   7.702   9.740 -0.1800  0.6036  0.0409
    2MOL0     O  182  11.300   7.649   9.677  0.2647 -0.3486  0.5803
    2MOL0     C  183  11.199   7.987   9.716 -0.0556 -0.4891 -1.0936
    2MOL0     C  184  11.087   8.073   9.717  0.3009  0.5016  0.2887
    2MOL0     N  185  10.415   8.021  10.023  0.6631 -0.6021 -0.0332
    2MOL0     N  186  10.306   8.006  10.073  0.1232  0.4665  0.1439
    2MOL0     C  187   8.979   8.103  10.338 -0.4848 -0.3644  0.2432
    2MOL0     C  188   8.848   8.092  10.301  0.2175 -1.3848 -0.7850
    2MOL0     C  189   8.485   8.172   9.997  0.0926  0.6182 -0.6476
    2MOL0     C  190   8.375   8.254  10.044 -0.4514 -0.3329 -0.6389
    2MOL0     C  191   8.249   8.258   9.980 -0.2389 -0.5016  0.6249
    2MOL0     C  192   8.233   8.187   9.862  0.4756  0.4617  0.3054
    2MOL0     O  193   8.117   8.183   9.784  0.4038  0.0657 -0.5037
    2MOL0     C  194   7.991   8.208   9.843 -0.2373 -0.9527  0.2121
    2MOL0     C  195   7.907   8.220   9.721  0.2743  0.1497  0.1271
    2MOL0     C  196   7.757   8.253   9.759 -1.2550 -0.1930  0.4109
    2MOL0     C  197   7.674   8.285   9.637 -0.6309 -0.0497 -0.3710
    2MOL0     C  198   7.683   8.178   9.531 -0.4639 -0.8156  0.6513
    2MOL0     C  199   7.693   8.086   9.457 -0.5980 -0.9990  0.1077
    2MOL0     C  200   8.330   8.102   9.819 -0.6490  0.2247  0.7372
    2MOL0     C  201   8.458   8.093   9.875  0.0662  0.9437 -0.5737
    2MOL0     C  202   8.561   8.018   9.793  0.7340  1.0373 -0.5564
    2MOL0     H  203   8.893   8.112   9.954  2.2668  0.7432 -0.6137
    2MOL0     H  204   9.112   8.122  10.017 -2.4419  1.5385 -0.5189
    2MOL0     H  205   9.306   8.034  10.136 -0.6756  2.4026 -3.4557
    2MOL0     H  206   9.338   8.202  10.143 -2.2319  2.1802  1.6590
    2MOL0     H  207   9.420   8.024  10.361 -2.6931  2.0664 -1.4249
    2MOL0     H  208   9.467   8.199  10.326  3.1016  1.0698 -1.7091
    2MOL0     H  209   9.576   8.141  10.120  2.8917 -1.6164 -1.2072
    2MOL0     H  210   9.531   7.966  10.153 -0.0575 -0.0353 -1.0588
    2MOL0     H  211   9.696   8.157  10.325 -0.9159 -0.1186  1.0726
    2MOL0     H  212   9.679   7.994  10.362 -0.6914 -1.4193 -1.6456
    2MOL0     H  213   9.900   7.996  10.262  0.6280  2.5799  0.3926
    2MOL0     H  214   9.796   7.927  10.144 -1.4767  1.1796 -1.1175
    2MOL0     H  215   9.769   8.125  10.019 -0.5278 -4.3201 -0.8295
    2MOL0     H  216   9.843   8.230  10.147  0.1192 -0.0041  0.4807
    2MOL0     H  217   9.983   8.203   9.969 -1.9872  0.5878  0.5181
    2MOL0     H  218   9.998   8.021  10.000 -1.6915  0.5609 -0.1412
    2MOL0     H  219  10.098   8.233  10.199  2.8382  2.4538 -3.3446
    2MOL0     H  220  10.093   8.055  10.216  0.6848 -1.4236 -2.7891
    2MOL0     H  221  10.295   8.318   9.998 -0.2028 -0.2130  1.5789
    2MOL0     H  222  10.493   8.187   9.773 -1.0909  1.1546  0.5795
    2MOL0     H  223  10.532   8.304   9.891 -0.5725 -0.1291 -0.7348
    2MOL0     H  224  10.738   8.211   9.879 -0.1885  1.0064  2.9019
    2MOL0     H  225  10.675   8.117  10.011  0.3847 -1.0466 -0.0273
    2MOL0     H  226  10.573   7.971   9.818 -2.1374  2.9837  2.0517
    2MOL0     H  227  10.741   7.935   9.873 -0.4497  0.2312  0.5645
    2MOL0     H  228  10.679   8.131   9.632  1.5566  2.0978  0.9951
    2MOL0     H  229  10.724   7.963   9.613  0.1943  0.3081 -0.6089
    2MOL0     H  230  10.864   7.835   9.637 -0.8271  2.1041  1.0129
    2MOL0     H  231  11.055   7.694   9.638  2.0153 -1.0013  0.4931
    2MOL0     H  232  11.505   7.783   9.443 -0.5329  2.1635  0.9165
    2MOL0     H  233  11.715   7.690   9.382 -0.6945  0.9378  0.4038
    2MOL0     H  234  11.921   7.528   9.357 -0.3451  1.8637 -0.8492
    2MOL0     H  235  11.936   7.700   9.397  0.0815  0.1793 -0.0926
    2MOL0     H  236  12.144   7.608   9.326  0.2139 -0.8351 -0.7069
    2MOL0     H  237  12.153   7.670   9.495 -2.2634  1.3984  0.1112
    2MOL0     H  238  12.122   7.409   9.561  0.0917  2.8364  2.4798
    2MOL0     H  239  12.192   7.400   9.396  1.4535  0.4023 -0.2921
    2MOL0     H  240  12.328   7.530   9.631  1.7775  0.9638 -0.1359
    2MOL0     H  241  12.371   7.569   9.464 -3.4248  2.9918 -0.6276
    2MOL0     H  242  12.395   7.333   9.431  0.2862  1.5163 -0.7383
    2MOL0     H  243  12.365   7.299   9.608 -0.0583  0.4270  1.0032
    2MOL0     H  244  12.618   7.307   9.559  0.5666  0.5529 -1.2552
    2MOL0     H  245  12.597   7.481   9.519  0.1682  0.8450  0.9259
    2MOL0     H  246  12.470   7.440   9.769  0.0299 -3.4267  1.3291
    2MOL0     H  247  12.627   7.513   9.739 -1.7407  0.8047 -0.8033
    2MOL0     H  248  12.631   7.320   9.911 -0.6419 -1.7197 -0.4181
    2MOL0     H  249  12.582   7.216   9.780 -0.4975 -0.8597  0.9729
    2MOL0     H  250  11.809   7.607   9.791 -1.0465  2.1662  1.4567
    2MOL0     H  251  11.596   7.718   9.845  1.1439 -0.9915  0.6190
    2MOL0     H  252  11.292   8.027   9.757  0.9379 -1.1740 -2.5914
    2MOL0     H  253  11.105   8.177   9.743 -0.3719  0.2518  1.8895
    2MOL0     H  254   9.012   8.109  10.441  1.3715 -0.2157 -0.3210
    2MOL0     H  255   8.766   8.091  10.372  0.1959 -0.6117 -0.7915
    2MOL0     H  256   8.377   8.317  10.132  0.2834 -0.6098 -0.4531
    2MOL0     H  257   8.178   8.326  10.027  0.8236  3.0006 -2.3945
    2MOL0     H  258   7.986   8.299   9.903 -1.5555 -0.4579 -0.6162
    2MOL0     H  259   7.961   8.125   9.908 -0.3877 -1.7902 -0.8994
    2MOL0     H  260   7.921   8.125   9.669 -0.1696  0.1972 -0.0893
    2MOL0     H  261   7.953   8.302   9.665  0.9794  0.4578  1.1287
    2MOL0     H  262   7.758   8.335   9.832  0.7235 -1.5586  2.0243
    2MOL0     H  263   7.716   8.166   9.811 -0.5612  0.5309  2.2590
    2MOL0     H  264   7.573   8.279   9.677 -0.9456 -0.5204 -1.2162
    2MOL0     H  265   7.688   8.387   9.599  0.5616 -0.5729 -1.3906
    2MOL0     H  266   7.713   8.001   9.394 -0.1400 -0.9901  0.2368
    2MOL0     H  267   8.301   8.058   9.724 -0.3704  0.2443  0.6416
    2MOL0     H  268   8.533   7.918   9.758  2.4392  1.2026 -2.5764
    2MOL0     H  269   8.594   8.074   9.705 -0.5957 -1.7439 -3.0014
    2MOL0     H  270   8.652   8.007   9.853 -0.8012  1.0641  1.9051
    3MOL0     O  271   9.761   5.569   0.300 -0.7962 -0.5483  1.0610
    3MOL0     C  272   9.764   5.487   0.393 -0.6771  0.0345 -0.1920
    3MOL0     O  273   9.874   5.451   0.457 -0.2256  0.5275 -1.1276
    3MOL0     C  274  10.001   5.479   0.420 -0.4435 -0.6528  0.8072
    3MOL0     C  275  10.046   5.610   0.414  0.2117 -0.2706 -0.4772
    3MOL0     C  276  10.176   5.635   0.378 -0.4984 -0.0405  0.6156
    3MOL0     C  277  10.262   5.521   0.363 -0.7704 -1.1087 -0.4208
    3MOL0     O  278  10.397   5.547   0.331 -0.0064  0.2618  0.4226
    3MOL0     C  279  10.484   5.439   0.294 -0.3254  0.4349  0.4049
    3MOL0     C  280  10.543   5.368   0.416  0.1850 -0.4522  0.0471
    3MOL0     C  281  10.695   5.377   0.435 -0.4035 -0.5827 -1.0502
    3MOL0     C  282  10.747   5.293   0.554  0.3295 -0.1924  0.2387
    3MOL0     C  283  10.904   5.276   0.536  0.5394  0.6242  0.5761
    3MOL0     C  284  10.980   5.408   0.551  0.3082  1.2169  0.2397
    3MOL0     C  285  11.126   5.349   0.564 -0.0777 -0.1543  0.6186
    3MOL0     C  286  11.218   5.472   0.556  0.9306 -0.4683  0.2416
    3MOL0     N  287  11.363   5.434   0.572  0.7003 -0.3866 -0.7267
    3MOL0     C  288  11.446   5.377   0.486 -0.1948  0.8407  0.5006
    3MOL0     C  289  11.565   5.356   0.558  0.1797  0.3513  0.5221
    3MOL0     C  290  11.693   5.315   0.493  0.0191  0.5653 -0.0301
    3MOL0     C  291  11.779   5.439   0.458 -0.4792  0.8010  0.1817
    3MOL0     C  292  11.720   5.530   0.353 -0.2548 -0.1682  0.8234
    3MOL0     C  293  11.835   5.614   0.306  0.1158 -0.6582 -0.3871
    3MOL0     O  294  11.911   5.525   0.217 -0.1938  0.3289 -0.1211
    3MOL0     C  295  12.050   5.508   0.228  0.5300  0.4240 -0.5945
    3MOL0     C  296  12.128   5.569   0.330  0.1276 -0.6804  0.5942
    3MOL0     C  297  12.266   5.532   0.338 -0.4996 -0.3073  0.5449
    3MOL0     C  298  12.325   5.439   0.252  0.4104 -0.4559 -0.3257
    3MOL0     C  299  12.472   5.412   0.252  0.3296 -1.1683 -0.0510
    3MOL0     O  300  12.545   5.484   0.339 -0.2785 -0.6414 -0.0543
    3MOL0     C  301  12.679   5.457   0.359 -0.3987  1.2715 -0.3953
    3MOL0     C  302  12.712   5.351   0.446  0.0314 -0.1914 -0.2571
    3MOL0     C  303  12.844   5.320   0.464  0.4821 -0.4846  0.3115
    3MOL0     C  304  12.947   5.393   0.403 -0.3364 -0.2361 -0.5590
    3MOL0     O  305  13.076   5.336   0.424 -0.0189  0.2347 -0.0428
    3MOL0     C  306  13.186   5.412   0.388  0.1221 -0.5028  0.6684
    3MOL0     C  307  13.310   5.322   0.401  0.4063  0.3289 -0.5619
    3MOL0     C  308  13.438   5.376   0.380 -0.2328 -0.2196 -0.0763
    3MOL0     C  309  13.555   5.290   0.433  0.0552  0.0040  0.5096
    3MOL0     C  310  13.686   5.354   0.369 -1.1383 -0.1602  0.3639
    3MOL0     C  311  13.806   5.291   0.431 -1.0928  1.0523 -0.2849
    3MOL0     C  312  13.939   5.340   0.371  0.2403  0.5760  0.4499
    3MOL0     C  313  14.061   5.302   0.448  0.1339  0.4128 -0.4390
    3MOL0    Cl  314  14.084   5.391   0.604 -0.0577  0.1384 -0.5000
    3MOL0     C  315  12.915   5.500   0.317  1.1151  0.0689 -0.6799
    3MOL0     C  316  12.779   5.528   0.292 -0.1417 -0.0265 -0.5370
    3MOL0     O  317  12.512   5.314   0.188 -0.5770 -0.6992  0.0407
    3MOL0     C  318  12.240   5.381   0.159 -0.7812  0.6684  0.9157
    3MOL0     C  319  12.109   5.416   0.144  0.2293 -0.0875  0.1754
    3MOL0     N  320  11.544   5.412   0.683  0.1943  0.3639  0.0248
    3MOL0     N  321  11.435   5.469   0.686 -0.5303  0.1937  0.8044
    3MOL0     C  322  10.215   5.392   0.386 -0.1002 -0.1542 -0.6666
    3MOL0     C  323  10.081   5.370   0.406 -0.1050 -0.1427 -0.5603
    3MOL0     C  324   9.628   5.443   0.444  0.3590 -0.5158  1.2243
    3MOL0     C  325   9.624   5.336   0.536  0.3826  0.2036  0.1589
    3MOL0     C  326   9.500   5.286   0.582 -0.0646  1.0048  0.0129
    3MOL0     C  327   9.385   5.343   0.552  0.0078 -0.0476  0.7921
    3MOL0     O  328   9.270   5.306   0.609 -0.1477  0.0831 -0.9571
    3MOL0     C  329   9.136   5.352   0.575 -0.2547  0.2373 -0.2102
    3MOL0     C  330   9.082   5.483   0.647  0.0642 -0.6216  0.5318
    3MOL0     C  331   8.939   5.518   0.604 -0.8939  0.2886 -0.5971
    3MOL0     C  332   8.899   5.558   0.467 -0.3903 -0.8730  0.9788
    3MOL0     C  333   8.937   5.465   0.354  1.0816 -0.8724 -0.9720
    3MOL0     C  334   8.971   5.399   0.263  0.5867 -0.1925 -0.0223
    3MOL0     C  335   9.389   5.453   0.468  0.3507 -1.2361  0.2974
    3MOL0     C  336   9.504   5.504   0.411 -0.0600  0.2291  0.0352
    3MOL0     C  337   9.495   5.630   0.327 -0.7937 -0.5776 -0.1596
    3MOL0     H  338   9.977   5.691   0.435 -0.8859 -1.8931  2.9374
    3MOL0     H  339  10.219   5.734   0.372  1.4819 -0.7150  2.3507
    3MOL0     H  340  10.428   5.368   0.233  0.1435 -1.6203  2.2565
    3MOL0     H  341  10.569   5.481   0.240 -0.5504  0.7673  0.3046
    3MOL0     H  342  10.522   5.262   0.403 -3.9771  0.3075 -0.6141
    3MOL0     H  343  10.488   5.419   0.495  2.8674  1.7964  0.6280
    3MOL0     H  344  10.727   5.479   0.456  2.5020 -1.9301  1.9318
    3MOL0     H  345  10.740   5.336   0.344  0.3561 -1.5569 -0.2659
    3MOL0     H  346  10.730   5.361   0.639 -1.7462  2.2571 -1.9627
    3MOL0     H  347  10.696   5.198   0.569  3.4485 -1.6944  2.5050
    3MOL0     H  348  10.939   5.205   0.612 -1.2775  1.1803  1.9977
    3MOL0     H  349  10.928   5.224   0.443 -0.4463  0.8892  0.1562
    3MOL0     H  350  10.963   5.481   0.471  1.6801 -0.8414 -2.0507
    3MOL0     H  351  10.962   5.447   0.652 -0.3747  0.2324  0.5076
    3MOL0     H  352  11.157   5.279   0.485  2.3002  2.4798 -0.9609
    3MOL0     H  353  11.131   5.294   0.658  2.1620 -2.1752 -0.5490
    3MOL0     H  354  11.194   5.516   0.459 -3.7278 -2.0630  0.4080
    3MOL0     H  355  11.188   5.538   0.639 -1.7562  0.9259 -1.6884
    3MOL0     H  356  11.424   5.344   0.385 -2.3043  1.1710  0.8076
    3MOL0     H  357  11.755   5.250   0.556  3.8481  3.9052  0.1055
    3MOL0     H  358  11.672   5.251   0.407  0.0532 -1.3829  1.3189
    3MOL0     H  359  11.791   5.495   0.551 -2.8279  1.4987  0.1276
    3MOL0     H  360  11.874   5.400   0.420 -0.1193  0.4121  1.4470
    3MOL0     H  361  11.645   5.591   0.405 -1.6291  0.2179 -1.4940
    3MOL0     H  362  11.659   5.491   0.272 -0.3346 -0.8443  1.1992
    3MOL0     H  363  11.883   5.654   0.395  0.3535  0.0461 -0.8217
    3MOL0     H  364  11.798   5.702   0.252  2.0261  1.0429  0.9536
    3MOL0     H  365  12.085   5.637   0.403 -1.1711 -1.0171  0.1735
    3MOL0     H  366  12.323   5.588   0.412  0.7135  0.8288 -1.1820
    3MOL0     H  367  12.637   5.291   0.496 -0.3072  1.1722  0.9166
    3MOL0     H  368  12.875   5.240   0.530 -3.1393 -3.2716 -1.0004
    3MOL0     H  369  13.177   5.446   0.285  1.3692  2.4172  1.3863
    3MOL0     H  370  13.212   5.503   0.444  1.6388 -0.3701 -0.2080
    3MOL0     H  371  13.306   5.275   0.500 -1.8097 -0.4200 -0.9562
    3MOL0     H  372  13.305   5.239   0.330 -0.1044 -2.7608  2.7799
    3MOL0     H  373  13.453   5.385   0.272  0.2754 -0.3432 -0.0180
    3MOL0     H  374  13.444   5.478   0.419  4.3888 -0.4885  0.4276
    3MOL0     H  375  13.555   5.186   0.399  3.3147  0.4801 -1.4033
    3MOL0     H  376  13.553   5.292   0.542 -1.8300 -1.2709  0.5498
    3MOL0     H  377  13.699   5.458   0.401  0.7610 -0.7679  1.7536
    3MOL0     H  378  13.683   5.339   0.261 -1.5892 -1.2300  0.5097
    3MOL0     H  379  13.812   5.313   0.538 -0.6331  1.4342 -0.3864
    3MOL0     H  380  13.800   5.182   0.418  1.6992  0.9171 -1.1018
    3MOL0     H  381  13.946   5.449   0.369 -2.3090  1.0172  4.3066
    3MOL0     H  382  13.944   5.299   0.269  0.9180  0.6775  0.4423
    3MOL0     H  383  14.066   5.195   0.468  1.2775  0.6155  0.4765
    3MOL0     H  384  14.154   5.334   0.398  2.2582 -1.7971  1.8393
    3MOL0     H  385  12.986   5.558   0.259  2.7532 -1.7398 -0.6105
    3MOL0     H  386  12.744   5.619   0.244  0.1137  0.1357 -0.4159
    3MOL0     H  387  12.269   5.314   0.079 -5.0032 -0.9583  0.4771
    3MOL0     H  388  12.049   5.383   0.060  0.6872  0.3871 -0.3421
    3MOL0     H  389  10.284   5.309   0.394  0.9307  0.6948 -0.4800
    3MOL0     H  390  10.045   5.271   0.431  1.4172 -1.0246 -1.7336
    3MOL0     H  391   9.715   5.281   0.558 -0.3221 -0.8921  0.4310
    3MOL0     H  392   9.495   5.203   0.652 -1.7997  1.4488  0.4510
    3MOL0     H  393   9.066   5.268   0.580  0.7213 -0.9712 -3.6776
    3MOL0     H  394   9.142   5.365   0.466  0.6394 -1.9703 -0.4762
    3MOL0     H  395   9.152   5.563   0.621  0.3286 -1.2041 -0.6235
    3MOL0     H  396   9.084   5.482   0.756  1.5872  1.1340  0.5651
    3MOL0     H  397   8.899   5.591   0.675 -0.4453 -0.1191  0.0858
    3MOL0     H  398   8.882   5.426   0.624  0.9336 -1.1548 -1.7046
    3MOL0     H  399   8.791   5.557   0.450 -0.3529 -0.2409  0.6542
    3MOL0     H  400   8.939   5.658   0.446 -0.6365 -0.2861  3.0398
    3MOL0     H  401   8.992   5.348   0.171 -0.0352  2.3660 -1.6768
    3MOL0     H  402   9.300   5.510   0.441  2.1892  0.8363 -1.8299
    3MOL0     H  403   9.523   5.617   0.222 -0.6450  0.0492 -0.1999
    3MOL0     H  404   9.391   5.665   0.322  0.1795  2.7752  0.5948
    3MOL0     H  405   9.559   5.707   0.371 -1.1991 -1.4433  2.0661
    4MOL0     O  406   3.642  10.392  10.881  0.1635 -0.7232 -0.7892
    4MOL0     C  407   3.598  10.371  10.995  0.6387 -0.8430 -0.2683
    4MOL0     O  408   3.674  10.361  11.107 -0.5439 -1.5603 -0.4784
    4MOL0     C  409   3.815  10.386  11.090  0.1715  0.5728 -0.6114
    4MOL0     C  410   3.876  10.496  11.015  0.4005 -0.4910 -0.1276
    4MOL0     C  411   4.012  10.516  11.015  0.3866 -0.4013 -0.1128
    4MOL0     C  412   4.091  10.423  11.077  0.8805 -0.1852  0.0090
    4MOL0     O  413   4.233  10.429  11.085  0.0438 -0.0947 -0.1256
    4MOL0     C  414   4.300  10.553  11.091 -0.2379 -0.1299 -0.1561
    4MOL0     C  415   4.455  10.522  11.095  0.2061 -0.5778 -0.1126
    4MOL0     C  416   4.541  10.651  11.128 -0.3066  0.0581  0.7351
    4MOL0     C  417   4.674  10.607  11.173  0.2292 -0.5732  0.3501
    4MOL0     C  418   4.771  10.721  11.198  0.0945 -0.4071 -0.6298
    4MOL0     C  419   4.752  10.784  11.333 -0.6571  0.3125  0.3424
    4MOL0     C  420   4.875  10.873  11.371 -0.5503  0.2212 -0.0041
    4MOL0     C  421   4.887  10.991  11.272  0.4025  0.4684 -0.4917
    4MOL0     N  422   5.027  11.049  11.276 -0.3303 -0.0938 -0.3397
    4MOL0     C  423   5.063  11.179  11.230  0.3518 -0.3938 -0.6802
    4MOL0     C  424   5.201  11.189  11.258  0.1289  0.5445 -0.0418
    4MOL0     C  425   5.301  11.297  11.212 -0.0058  0.4872 -0.4110
    4MOL0     C  426   5.352  11.370  11.338 -0.7685 -0.3486  0.2211
    4MOL0     C  427   5.431  11.497  11.310  0.5633 -0.3099 -0.5283
    4MOL0     C  428   5.340  11.606  11.250 -0.2485 -0.2817  0.0042
    4MOL0     O  429   5.228  11.626  11.330  0.4784 -0.4331 -0.1353
    4MOL0     C  430   5.130  11.703  11.265 -0.5150  0.1055 -0.2303
    4MOL0     C  431   4.994  11.668  11.291  0.8177  0.1869  0.3116
    4MOL0     C  432   4.890  11.733  11.228 -0.2651 -0.5124 -0.8969
    4MOL0     C  433   4.910  11.829  11.135 -0.6473  0.2104  0.7645
    4MOL0     C  434   4.800  11.875  11.039 -0.2151 -0.3437 -0.5763
    4MOL0     O  435   4.669  11.816  11.061 -0.2325  0.1430 -0.5416
    4MOL0     C  436   4.567  11.819  10.964 -0.5013  0.1014 -0.2575
    4MOL0     C  437   4.581  11.845  10.825 -0.4568  0.2732 -0.3000
    4MOL0     C  438   4.486  11.851  10.738 -0.0786 -0.6822  0.5413
    4MOL0     C  439   4.351  11.842  10.780 -0.6020 -0.1213  0.1349
    4MOL0     O  440   4.255  11.845  10.683  0.1551 -0.0648  0.6633
    4MOL0     C  441   4.123  11.814  10.718 -1.4091  0.3257  0.5964
    4MOL0     C  442   4.023  11.858  10.609  0.1453  0.5746 -0.1273
    4MOL0     C  443   3.894  11.771  10.626  0.5018 -0.1836 -0.3223
    4MOL0     C  444   3.797  11.818  10.520  0.1100  0.1118 -0.1293
    4MOL0     C  445   3.671  11.723  10.534 -0.3547  0.2732  0.0908
    4MOL0     C  446   3.589  11.732  10.403 -0.4100  0.3430  0.9715
    4MOL0     C  447   3.513  11.858  10.405  0.0084  0.3699  0.4077
    4MOL0     C  448   3.469  11.895  10.267  0.2725 -0.0594  0.1523
    4MOL0    Cl  449   3.378  11.762  10.200  0.3145 -0.0752  0.4073
    4MOL0     C  450   4.331  11.814  10.910  0.2637 -0.1359  0.4018
    4MOL0     C  451   4.437  11.791  11.001  0.4214 -0.0504 -1.3457
    4MOL0     O  452   4.834  11.940  10.943  0.7829  0.2818 -0.7490
    4MOL0     C  453   5.044  11.877  11.116  1.0813  0.3477 -1.0032
    4MOL0     C  454   5.155  11.816  11.183  0.6775 -0.0477 -0.2617
    4MOL0     N  455   5.243  11.073  11.321  0.3771  0.8437 -0.5853
    4MOL0     N  456   5.138  10.991  11.326 -0.4365  0.2186 -0.9270
    4MOL0     C  457   4.037  10.318  11.139  0.6365  0.3124  0.0892
    4MOL0     C  458   3.895  10.301  11.152 -0.4866  0.2077 -0.8216
    4MOL0     C  459   3.447  10.368  11.015  0.0950  0.3107 -0.5712
    4MOL0     C  460   3.401  10.343  11.147 -0.4089 -0.6611  0.2078
    4MOL0     C  461   3.269  10.368  11.173 -0.0305 -0.0573 -0.4482
    4MOL0     C  462   3.178  10.408  11.077 -0.7284  0.7409 -0.0099
    4MOL0     O  463   3.053  10.433  11.123 -0.1470  0.2841 -0.8034
    4MOL0     C  464   2.954  10.467  11.035 -0.0843  0.1159 -0.2211
    4MOL0     C  465   2.889  10.357  10.957  0.2148 -0.1521 -0.8969
    4MOL0     C  466   2.853  10.242  11.052  0.1262 -0.1181 -0.4280
    4MOL0     C  467   2.752  10.153  10.975  0.1886  0.5027 -0.6180
    4MOL0     C  468   2.614  10.209  10.967 -0.0034 -1.0814  0.3306
    4MOL0     C  469   2.499  10.250  10.956  0.7498  0.2429  0.9952
    4MOL0     C  470   3.224  10.411  10.945 -0.3696  0.3036  0.2696
    4MOL0     C  471   3.349  10.396  10.914  0.1900  0.4375  0.0454
    4MOL0     C  472   3.372  10.400  10.767 -0.4451  0.1796 -0.3855
    4MOL0     H  473   3.813  10.571  10.968  0.5224  0.9573  1.8826
    4MOL0     H  474   4.055  10.609  10.979 -0.5232 -0.9554 -2.9106
    4MOL0     H  475   4.267  10.618  11.011 -2.2295 -0.0860  0.6554
    4MOL0     H  476   4.269  10.614  11.176 -1.6838  0.0075 -0.7605
    4MOL0     H  477   4.468  10.479  10.995 -3.9413 -0.0940 -1.0418
    4MOL0     H  478   4.473  10.437  11.161  3.7588 -0.5079 -0.7742
    4MOL0     H  479   4.482  10.702  11.205 -1.9399 -0.7155  0.0553
    4MOL0     H  480   4.549  10.719  11.043 -3.2602  0.2925  0.5512
    4MOL0     H  481   4.657  10.547  11.262  0.9749 -0.6610  0.4388
    4MOL0     H  482   4.720  10.540  11.100  0.3879 -2.1460  1.8464
    4MOL0     H  483   4.873  10.683  11.194  0.2263 -0.1614  0.2625
    4MOL0     H  484   4.762  10.796  11.118  1.9709  1.8773  1.1515
    4MOL0     H  485   4.663  10.848  11.337  0.2115  1.5016  3.7561
    4MOL0     H  486   4.735  10.722  11.422 -2.9359  1.9484  1.1376
    4MOL0     H  487   4.962  10.807  11.374 -1.1250 -0.5143  0.7269
    4MOL0     H  488   4.869  10.918  11.470  0.0873 -0.8732  0.5562
    4MOL0     H  489   4.868  10.955  11.171 -1.8642  0.4006 -0.1101
    4MOL0     H  490   4.807  11.064  11.292  0.2116 -0.1059  0.9633
    4MOL0     H  491   4.995  11.248  11.181 -2.6655 -4.0372 -2.1872
    4MOL0     H  492   5.386  11.247  11.165  1.3693 -0.3846  2.7331
    4MOL0     H  493   5.241  11.355  11.141 -1.7587  1.5927  1.8521
    4MOL0     H  494   5.271  11.393  11.409 -1.8136 -2.2622 -0.2743
    4MOL0     H  495   5.411  11.299  11.395  1.1867  0.0596 -1.1805
    4MOL0     H  496   5.513  11.475  11.241  0.9498 -3.0164  0.6512
    4MOL0     H  497   5.468  11.542  11.403 -0.1118 -0.7521 -0.0413
    4MOL0     H  498   5.309  11.575  11.150 -1.2400  0.0449  0.1960
    4MOL0     H  499   5.402  11.695  11.234  0.1751 -0.6750 -0.5758
    4MOL0     H  500   4.988  11.586  11.362  0.1457  1.4484  1.7872
    4MOL0     H  501   4.785  11.706  11.237 -1.9544  5.1401  0.9107
    4MOL0     H  502   4.684  11.868  10.800  0.2367 -2.2429 -0.0623
    4MOL0     H  503   4.504  11.881  10.635  0.6438 -1.5013  0.4167
    4MOL0     H  504   4.113  11.708  10.744 -1.5229  0.2003  0.0536
    4MOL0     H  505   4.091  11.872  10.805 -4.4684  2.0424 -1.4607
    4MOL0     H  506   4.000  11.965  10.617 -1.0712  0.3096  0.1332
    4MOL0     H  507   4.068  11.836  10.512 -1.3629 -0.3892 -0.6310
    4MOL0     H  508   3.916  11.664  10.615 -1.6676 -0.8726  1.3438
    4MOL0     H  509   3.854  11.786  10.727 -1.1616  0.0817 -0.9942
    4MOL0     H  510   3.840  11.811  10.420 -0.4919 -0.1232 -0.3789
    4MOL0     H  511   3.770  11.924  10.532  0.7269  0.2325  0.2016
    4MOL0     H  512   3.616  11.739  10.628 -1.0359 -1.1767 -0.0281
    4MOL0     H  513   3.709  11.620  10.540  2.7277  1.2828 -0.4823
    4MOL0     H  514   3.642  11.714  10.310  0.7575 -0.5286  1.7747
    4MOL0     H  515   3.525  11.644  10.393  1.4290 -0.7512 -2.9806
    4MOL0     H  516   3.580  11.937  10.440  0.8106  0.7138 -1.7401
    4MOL0     H  517   3.424  11.845  10.467 -3.1766 -0.4804 -3.9076
    4MOL0     H  518   3.405  11.983  10.266  0.9428  0.4632  1.1152
    4MOL0     H  519   3.564  11.908  10.214 -0.3522 -0.1110 -0.9996
    4MOL0     H  520   4.233  11.799  10.954  1.6830 -2.1330  3.1818
    4MOL0     H  521   4.417  11.771  11.106  2.2956  4.5073  0.1545
    4MOL0     H  522   5.064  11.959  11.048 -0.0270  0.5348 -1.1247
    4MOL0     H  523   5.253  11.851  11.151  0.4991 -0.7904 -1.6726
    4MOL0     H  524   4.100  10.248  11.194 -0.2658 -0.7039 -0.1151
    4MOL0     H  525   3.865  10.208  11.198  0.2049  0.7205  0.7260
    4MOL0     H  526   3.474  10.327  11.226 -0.2053 -0.1151  0.1370
    4MOL0     H  527   3.241  10.362  11.278  0.5388 -2.7499 -0.3661
    4MOL0     H  528   2.988  10.545  10.967  2.2448 -1.1344 -0.6122
    4MOL0     H  529   2.873  10.506  11.097 -3.2487 -1.5746 -3.0271
    4MOL0     H  530   2.952  10.328  10.873 -0.7866 -2.8829 -0.8080
    4MOL0     H  531   2.800  10.395  10.905 -1.2055  0.0341  1.4774
    4MOL0     H  532   2.807  10.284  11.142  2.7428  1.0421  0.4724
    4MOL0     H  533   2.941  10.182  11.076 -1.4373 -2.4350 -0.0312
    4MOL0     H  534   2.776  10.132  10.870 -3.4748  1.7256 -1.8800
    4MOL0     H  535   2.741  10.060  11.032 -2.2569  0.4948 -0.9669
    4MOL0     H  536   2.402  10.294  10.939  0.3233 -1.3264 -1.1810
    4MOL0     H  537   3.154  10.442  10.868  0.8641 -1.6470 -1.7466
    4MOL0     H  538   3.413  10.302  10.741 -0.4163  0.3589 -1.0314
    4MOL0     H  539   3.284  10.428  10.708 -0.7112  3.2890  1.2666
    4MOL0     H  540   3.449  10.474  10.739  2.4022 -1.9401  1.2974
    5MOL0     O  541  10.361   8.770   1.828  0.0795  0.0576 -0.3561
    5MOL0     C  542  10.274   8.781   1.744 -0.0356  0.7495  0.4041
    5MOL0     O  543  10.243   8.897   1.672 -0.6572  0.4422  0.0692
    5MOL0     C  544  10.317   9.016   1.705  0.1736  0.5531  0.1173
    5MOL0     C  545  10.434   9.059   1.638  0.1654 -0.3703 -0.6541
    5MOL0     C  546  10.492   9.190   1.672  0.5212 -0.0568  0.4324
    5MOL0     C  547  10.420   9.267   1.760 -0.2443  0.6352  0.2234
    5MOL0     O  548  10.483   9.379   1.815  0.6947  0.6442  0.0583
    5MOL0     C  549  10.457   9.484   1.720  0.3123 -0.8066  0.1282
    5MOL0     C  550  10.468   9.615   1.797  0.4219 -0.0861 -0.4050
    5MOL0     C  551  10.375   9.645   1.920 -0.7376  0.5082 -0.4373
    5MOL0     C  552  10.226   9.635   1.882 -0.5420  0.3595  0.5353
    5MOL0     C  553  10.121   9.627   1.997 -0.0846  0.0299 -0.1776
    5MOL0     C  554  10.119   9.486   2.071  0.2313 -0.8436  0.8700
    5MOL0     C  555  10.029   9.485   2.203 -0.4473 -0.4384  0.7531
    5MOL0     C  556   9.891   9.555   2.187 -0.2782 -0.0221  0.1035
    5MOL0     N  557   9.803   9.542   2.304  0.0789  0.2560  0.0131
    5MOL0     C  558   9.695   9.456   2.300  0.7040  0.0879 -0.6394
    5MOL0     C  559   9.654   9.456   2.425 -0.2650 -0.3658  0.1227
    5MOL0     C  560   9.553   9.377   2.487 -0.0120 -1.0184  0.1290
    5MOL0     C  561   9.599   9.299   2.610  0.4020  0.2691  0.2205
    5MOL0     C  562   9.668   9.170   2.550  0.4102  0.1186 -0.1903
    5MOL0     C  563   9.707   9.073   2.653 -0.2366  0.1265 -0.1138
    5MOL0     O  564   9.809   9.128   2.745 -0.2817 -0.5775  0.4633
    5MOL0     C  565   9.939   9.110   2.700  0.3684 -1.0182 -0.2926
    5MOL0     C  566  10.004   9.239   2.667  1.1501  0.8318 -1.0921
    5MOL0     C  567  10.132   9.235   2.637 -0.1624 -0.3818 -0.0394
    5MOL0     C  568  10.197   9.114   2.623 -0.3592  0.0095  0.7654
    5MOL0     C  569  10.351   9.127   2.602  0.5191 -0.7612 -0.5886
    5MOL0     O  570  10.413   9.000   2.592  0.1197  0.3186 -0.2990
    5MOL0     C  571  10.540   8.991   2.547  0.2798 -0.0463  0.1631
    5MOL0     C  572  10.654   8.997   2.631  0.0298 -0.0501  0.3586
    5MOL0     C  573  10.787   8.987   2.583 -0.1554  1.2583 -0.1780
    5MOL0     C  574  10.806   8.971   2.443  0.3966 -0.5165 -0.5396
    5MOL0     O  575  10.928   8.967   2.385  0.0847  0.4372 -0.5694
    5MOL0     C  576  11.054   8.916   2.448  0.4618 -0.3156 -0.4116
    5MOL0     C  577  11.153   9.020   2.400  0.0779  0.1960  0.6003
    5MOL0     C  578  11.290   8.980   2.449  0.3692  0.1137  0.5926
    5MOL0     C  579  11.385   9.081   2.379 -0.3344  0.5238 -0.7777
    5MOL0     C  580  11.523   9.037   2.434  0.3595  0.0801  0.4601
    5MOL0     C  581  11.637   9.115   2.367  0.1889  0.2724 -0.2580
    5MOL0     C  582  11.782   9.065   2.398 -0.2653  0.6323 -0.4842
    5MOL0     C  583  11.829   9.083   2.545  0.5457 -1.0666  0.2333
    5MOL0    Cl  584  12.003   9.084   2.544 -0.1409 -0.6183 -0.4134
    5MOL0     C  585  10.690   8.970   2.364  0.1560 -0.6766  0.2069
    5MOL0     C  586  10.563   8.975   2.415  0.3578  0.4940 -0.3903
    5MOL0     O  587  10.408   9.235   2.595  0.1506  0.4704  0.1597
    5MOL0     C  588  10.130   8.993   2.640  0.1752  0.4477  0.2112
    5MOL0     C  589  10.000   8.987   2.692  0.2539 -0.8191  0.9001
    5MOL0     N  590   9.737   9.543   2.497  0.3467 -0.7420  0.4320
    5MOL0     N  591   9.831   9.597   2.428 -0.1778 -0.5878 -0.3586
    5MOL0     C  592  10.299   9.232   1.810  0.5510  0.2657  0.0651
    5MOL0     C  593  10.247   9.107   1.777 -0.2222 -0.0967  0.4549
    5MOL0     C  594  10.216   8.652   1.692  0.0571 -0.5776 -0.5775
    5MOL0     C  595  10.200   8.638   1.557 -0.3708  0.0081 -0.1835
    5MOL0     C  596  10.141   8.519   1.507 -0.1110 -0.5039 -0.2901
    5MOL0     C  597  10.116   8.405   1.586  0.1069 -0.2986  0.0349
    5MOL0     O  598  10.073   8.283   1.542  0.2420  0.2649  0.2883
    5MOL0     C  599   9.967   8.294   1.439  0.6687 -1.2028 -0.4859
    5MOL0     C  600   9.876   8.170   1.438 -0.5177 -0.7540  0.4094
    5MOL0     C  601   9.802   8.151   1.570  0.1036  0.2322  0.2973
    5MOL0     C  602   9.693   8.038   1.557 -0.2347  0.2318 -0.7102
    5MOL0     C  603   9.748   7.900   1.556 -0.3568 -0.6742  0.3353
    5MOL0     C  604   9.796   7.785   1.549 -0.2533 -0.0823 -0.5397
    5MOL0     C  605  10.152   8.418   1.718  0.0275  0.3215  0.5404
    5MOL0     C  606  10.197   8.536   1.778  0.4266 -0.3797  1.3821
    5MOL0     C  607  10.206   8.534   1.928  0.5019 -0.1409  0.9590
    5MOL0     H  608  10.496   8.994   1.578 -1.8376 -2.0233 -1.0594
    5MOL0     H  609  10.592   9.208   1.633  0.7667 -1.6701  0.2457
    5MOL0     H  610  10.528   9.480   1.637  0.4775 -1.1126  0.2828
    5MOL0     H  611  10.358   9.477   1.673  1.3638  1.1527 -2.7123
    5MOL0     H  612  10.458   9.701   1.729 -0.7798  0.0679 -0.0597
    5MOL0     H  613  10.572   9.623   1.830  0.0693  1.2848  0.4455
    5MOL0     H  614  10.403   9.741   1.964  0.2279 -0.4537  1.1511
    5MOL0     H  615  10.413   9.571   1.991  1.3918  1.8673 -0.0671
    5MOL0     H  616  10.202   9.713   1.810  2.5501  1.7057  0.7859
    5MOL0     H  617  10.212   9.539   1.830 -3.3098 -0.0198  1.8421
    5MOL0     H  618  10.149   9.706   2.067 -0.0539  2.3850 -2.6889
    5MOL0     H  619  10.024   9.655   1.954  0.0190 -0.1252 -0.5132
    5MOL0     H  620  10.083   9.410   2.002 -0.7936 -0.1183  0.5880
    5MOL0     H  621  10.219   9.451   2.098 -0.4110 -2.3434  1.3748
    5MOL0     H  622  10.089   9.533   2.281  2.2137 -0.6211 -1.0519
    5MOL0     H  623  10.010   9.382   2.233  1.1653 -0.9111  0.2440
    5MOL0     H  624   9.900   9.662   2.167 -1.6680  0.2376  0.7697
    5MOL0     H  625   9.835   9.502   2.110 -1.6740 -1.2412  1.8570
    5MOL0     H  626   9.654   9.390   2.224  1.2515  0.5974 -1.3881
    5MOL0     H  627   9.485   9.457   2.519 -0.2487 -0.7221 -1.0778
    5MOL0     H  628   9.509   9.315   2.408  0.2864  0.8920 -1.6181
    5MOL0     H  629   9.664   9.358   2.674  0.2338  0.7206 -0.0223
    5MOL0     H  630   9.506   9.283   2.665 -0.7483  1.0155 -1.4137
    5MOL0     H  631   9.762   9.209   2.509 -0.1991  4.1548  1.6970
    5MOL0     H  632   9.603   9.119   2.479 -1.7117 -0.7012  2.1925
    5MOL0     H  633   9.748   8.981   2.610  0.3066 -0.4572  1.5873
    5MOL0     H  634   9.617   9.054   2.713 -0.6682  4.4274  0.9235
    5MOL0     H  635   9.943   9.329   2.675 -0.2902 -0.0938 -1.1894
    5MOL0     H  636  10.188   9.327   2.629  1.4061 -1.3811 -1.0417
    5MOL0     H  637  10.629   8.998   2.737 -0.4632 -0.8495  0.2502
    5MOL0     H  638  10.870   8.995   2.652  1.4958 -2.3459 -1.4755
    5MOL0     H  639  11.045   8.911   2.557 -0.3017  1.8273 -0.3280
    5MOL0     H  640  11.079   8.813   2.421  3.0553  0.4238 -1.0328
    5MOL0     H  641  11.144   9.023   2.291  0.2849  3.6878  0.5873
    5MOL0     H  642  11.122   9.118   2.437 -1.7122 -0.1876  0.2113
    5MOL0     H  643  11.296   8.995   2.558 -2.3832  2.6369  0.5439
    5MOL0     H  644  11.320   8.878   2.424 -0.4030 -0.7094  2.7265
    5MOL0     H  645  11.368   9.188   2.393 -0.3737  0.5668 -1.1535
    5MOL0     H  646  11.380   9.068   2.271 -1.5995  1.1258 -0.8042
    5MOL0     H  647  11.545   8.933   2.408 -1.6595 -0.0523 -0.9564
    5MOL0     H  648  11.523   9.040   2.544 -0.3157 -2.4167  0.5963
    5MOL0     H  649  11.623   9.109   2.259  2.2228 -0.7548 -0.5087
    5MOL0     H  650  11.634   9.217   2.406 -0.6833 -0.9897  3.3924
    5MOL0     H  651  11.842   9.122   2.327  0.1746  0.2708 -0.4023
    5MOL0     H  652  11.793   8.959   2.374  1.2888  0.5024  0.6246
    5MOL0     H  653  11.800   9.176   2.595  1.1075 -1.1635  0.7600
    5MOL0     H  654  11.782   9.005   2.605 -1.8159 -0.2948 -0.5220
    5MOL0     H  655  10.699   8.966   2.256 -0.1631  2.5093 -0.0508
    5MOL0     H  656  10.479   8.971   2.346 -0.4580 -3.3807  0.6107
    5MOL0     H  657  10.184   8.901   2.620  2.1131  0.5212  4.1781
    5MOL0     H  658   9.950   8.891   2.699  2.2232 -1.9225  0.3676
    5MOL0     H  659  10.253   9.290   1.891 -0.9763 -0.8082  0.0187
    5MOL0     H  660  10.149   9.074   1.810 -0.5301 -1.2272 -1.4912
    5MOL0     H  661  10.227   8.715   1.486  3.6836  0.1910  1.3243
    5MOL0     H  662  10.128   8.512   1.399  0.3205 -0.3237 -0.3568
    5MOL0     H  663  10.018   8.320   1.346  2.9153  1.6315  1.3790
    5MOL0     H  664   9.900   8.379   1.456  0.6112 -1.1735 -0.8404
    5MOL0     H  665   9.928   8.079   1.406 -0.5655 -0.6269 -0.0434
    5MOL0     H  666   9.794   8.186   1.368  1.0965  3.0072 -0.9041
    5MOL0     H  667   9.749   8.244   1.592 -1.2311 -0.0678 -1.4459
    5MOL0     H  668   9.867   8.114   1.650  1.8743 -0.2965 -1.3138
    5MOL0     H  669   9.634   8.046   1.649  1.8753  2.5387  0.5615
    5MOL0     H  670   9.642   8.064   1.464 -0.2119  0.3703 -0.6835
    5MOL0     H  671   9.856   7.696   1.554  1.0980  0.8516  1.4074
    5MOL0     H  672  10.135   8.330   1.778 -1.7212  0.6883  0.6373
    5MOL0     H  673  10.306   8.520   1.972  0.5997  1.8435  1.4643
    5MOL0     H  674  10.162   8.623   1.974  0.5603  0.2508  0.2683
    5MOL0     H  675  10.143   8.453   1.965 -1.4391  0.7245 -0.3231
    6MOL0     O  676   2.073   7.639   9.157  0.1686  0.3561 -0.0673
    6MOL0     C  677   2.111   7.669   9.045 -0.6447 -0.4031 -0.2801
    6MOL0     O  678   2.252   7.700   9.021 -0.2347  0.4828  0.2473
    6MOL0     C  679   2.340   7.694   9.118 -0.2574 -0.4451  0.0641
    6MOL0     C  680   2.344   7.789   9.217  0.7857 -0.2284  0.1733
    6MOL0     C  681   2.435   7.780   9.316  0.5460 -0.2305 -0.6937
    6MOL0     C  682   2.530   7.674   9.312 -0.4903  0.2415 -0.1236
    6MOL0     O  683   2.624   7.675   9.415 -0.0718  0.1560 -0.1711
    6MOL0     C  684   2.709   7.562   9.429  0.0595 -0.1370 -0.0083
    6MOL0     C  685   2.768   7.584   9.569  0.1273 -0.5509  0.8277
    6MOL0     C  686   2.840   7.455   9.621 -0.4577 -0.8281 -0.3196
    6MOL0     C  687   2.977   7.439   9.552  1.0927 -0.2064 -0.3961
    6MOL0     C  688   3.081   7.547   9.600 -0.8657 -0.2111 -0.0884
    6MOL0     C  689   3.207   7.498   9.533 -0.0635 -0.4097  0.2047
    6MOL0     C  690   3.330   7.588   9.563 -0.8048  0.5537  0.4989
    6MOL0     C  691   3.452   7.551   9.467 -0.2996 -0.1516 -1.0212
    6MOL0     N  692   3.553   7.472   9.528  0.5743  0.6038 -0.1599
    6MOL0     C  693   3.534   7.342   9.578 -0.0502  1.3241 -0.2498
    6MOL0     C  694   3.656   7.310   9.625 -0.0518  0.8040 -0.2893
    6MOL0     C  695   3.692   7.180   9.688 -0.6486 -0.0004 -0.2262
    6MOL0     C  696   3.845   7.162   9.688  0.1018 -0.1133 -0.1315
    6MOL0     C  697   3.893   7.129   9.544 -0.4154 -0.1048 -0.6036
    6MOL0     C  698   4.040   7.097   9.552  0.2681 -0.2212  0.0682
    6MOL0     O  699   4.064   7.002   9.648 -0.3579  0.1523  0.0372
    6MOL0     C  700   4.189   6.953   9.672  0.6411 -0.4894  0.3415
    6MOL0     C  701   4.192   6.850   9.764  0.4034 -0.5264 -0.3055
    6MOL0     C  702   4.311   6.788   9.790 -0.2267  0.3036 -0.1562
    6MOL0     C  703   4.435   6.825   9.724  0.2676 -0.4247 -0.1218
    6MOL0     C  704   4.567   6.766   9.760 -1.4692  0.5122 -0.1504
    6MOL0     O  705   4.669   6.854   9.746  0.9044 -0.0592 -0.3432
    6MOL0     C  706   4.801   6.810   9.776  0.3774  0.8498 -0.6860
    6MOL0     C  707   4.832   6.761   9.907  0.0677  0.9318  1.3572
    6MOL0     C  708   4.952   6.696   9.919  0.6813 -0.6166 -0.3460
    6MOL0     C  709   5.045   6.687   9.821 -0.3666 -0.9092  0.2340
    6MOL0     O  710   5.170   6.638   9.842  0.5044  0.1453  0.0985
    6MOL0     C  711   5.205   6.574   9.968 -0.1428  0.3714 -0.0505
    6MOL0     C  712   5.352   6.538   9.967 -0.7684  0.2586  0.3884
    6MOL0     C  713   5.450   6.655   9.971  0.2648  0.0770  0.4332
    6MOL0     C  714   5.598   6.620   9.994  0.4928 -0.1428 -0.1714
    6MOL0     C  715   5.689   6.740   9.956  1.1500  0.1857  0.0664
    6MOL0     C  716   5.841   6.715   9.956 -0.0233 -0.4138  0.6220
    6MOL0     C  717   5.915   6.845   9.968 -0.2990 -0.1074 -0.2160
    6MOL0     C  718   6.067   6.833   9.993  0.6968 -0.1387  0.0332
    6MOL0    Cl  719   6.130   6.990   9.934 -0.2811  0.2492  0.2116
    6MOL0     C  720   5.021   6.747   9.696  0.2862  0.2165  0.7247
    6MOL0     C  721   4.894   6.810   9.669  0.9247  0.0274 -0.4795
    6MOL0     O  722   4.575   6.653   9.811  0.1644 -0.0141  0.1844
    6MOL0     C  723   4.422   6.925   9.628 -0.3275 -0.0053  0.2128
    6MOL0     C  724   4.300   6.990   9.610 -0.2306  0.0772  0.9244
    6MOL0     N  725   3.737   7.412   9.616 -0.1441 -0.0215  0.5472
    6MOL0     N  726   3.687   7.510   9.546 -0.0087 -0.1322  0.7698
    6MOL0     C  727   2.537   7.593   9.199  0.2221 -0.1611  0.3596
    6MOL0     C  728   2.434   7.594   9.109 -0.0673  0.9156  0.7172
    6MOL0     C  729   2.015   7.664   8.931  0.2253  0.0151 -0.4387
    6MOL0     C  730   1.872   7.647   8.964 -0.4767  0.8417  0.4808
    6MOL0     C  731   1.772   7.660   8.864 -0.0429  0.1934  0.1612
    6MOL0     C  732   1.806   7.692   8.730  0.1045  0.8518  0.2156
    6MOL0     O  733   1.716   7.691   8.625 -0.4623 -1.2568  0.3574
    6MOL0     C  734   1.683   7.826   8.576  0.4791 -0.2641 -0.2880
    6MOL0     C  735   1.583   7.817   8.457 -0.8314  0.2139 -1.0716
    6MOL0     C  736   1.474   7.717   8.468 -0.8291 -0.0430 -0.1698
    6MOL0     C  737   1.381   7.740   8.345  0.1274 -0.2930 -0.2892
    6MOL0     C  738   1.452   7.713   8.218 -0.0983 -0.1285  0.6255
    6MOL0     C  739   1.495   7.675   8.109 -0.2318  0.1740 -0.3451
    6MOL0     C  740   1.940   7.703   8.703 -0.7398 -0.4135  0.2031
    6MOL0     C  741   2.042   7.693   8.793 -0.0872 -0.7572 -0.5840
    6MOL0     C  742   2.186   7.714   8.741 -0.8458  0.1440  0.5583
    6MOL0     H  743   2.269   7.867   9.207  2.3026  1.7677  3.0047
    6MOL0     H  744   2.446   7.855   9.393 -0.2244  1.4528 -2.1535
    6MOL0     H  745   2.662   7.464   9.418  1.9900 -1.2715  1.1820
    6MOL0     H  746   2.790   7.568   9.356  2.1206  0.2064  2.1674
    6MOL0     H  747   2.686   7.615   9.635  1.1609  3.3181  0.4746
    6MOL0     H  748   2.840   7.666   9.567 -0.2484 -0.1583 -2.7527
    6MOL0     H  749   2.787   7.365   9.590  1.8880 -2.7048  0.8079
    6MOL0     H  750   2.861   7.470   9.727  3.9443  0.6636 -1.1562
    6MOL0     H  751   3.017   7.342   9.584  1.4514 -0.2281 -0.9042
    6MOL0     H  752   2.976   7.441   9.443  2.1143 -0.6524 -0.4302
    6MOL0     H  753   3.059   7.644   9.555 -0.6513  0.1142  0.5065
    6MOL0     H  754   3.087   7.563   9.707 -2.4820 -0.0104  0.0035
    6MOL0     H  755   3.232   7.396   9.565 -0.3413 -0.5861 -0.1351
    6MOL0     H  756   3.171   7.497   9.430 -0.9333 -1.7405  0.4888
    6MOL0     H  757   3.366   7.580   9.666 -0.5319  0.1217  0.3742
    6MOL0     H  758   3.295   7.690   9.548  0.7156  1.1618  0.9236
    6MOL0     H  759   3.411   7.507   9.375  0.9233  0.7291 -2.0183
    6MOL0     H  760   3.499   7.645   9.437  0.4407 -0.0280  0.4605
    6MOL0     H  761   3.453   7.272   9.563  0.9013 -0.0732  0.8461
    6MOL0     H  762   3.658   7.190   9.792 -0.4807  0.5411 -0.2212
    6MOL0     H  763   3.639   7.092   9.649  1.5177 -2.3085  1.6204
    6MOL0     H  764   3.899   7.247   9.730  0.6022 -0.5871  0.1986
    6MOL0     H  765   3.871   7.080   9.755 -2.8943 -2.3687 -1.4885
    6MOL0     H  766   3.865   7.214   9.482 -1.8951  1.1279  1.6054
    6MOL0     H  767   3.842   7.039   9.510 -2.0573  0.0211  1.3299
    6MOL0     H  768   4.088   7.191   9.580 -0.3867  0.0862  0.1986
    6MOL0     H  769   4.085   7.073   9.455  0.5004  0.2276  0.0591
    6MOL0     H  770   4.096   6.827   9.809 -0.3585  2.3744 -0.2769
    6MOL0     H  771   4.307   6.708   9.863 -1.1521 -1.5996 -2.1744
    6MOL0     H  772   4.766   6.780   9.991 -0.3254  0.5326  1.1429
    6MOL0     H  773   4.969   6.643  10.012 -0.6094  0.2974  0.4487
    6MOL0     H  774   5.184   6.639  10.053 -2.0976  0.4039 -0.5033
    6MOL0     H  775   5.147   6.483   9.982 -0.9286  1.0854  1.5843
    6MOL0     H  776   5.363   6.474  10.055 -1.4440 -1.1098 -0.4975
    6MOL0     H  777   5.372   6.471   9.883  0.3535 -2.0368  2.3596
    6MOL0     H  778   5.445   6.708   9.875 -1.7080  0.3933  0.6666
    6MOL0     H  779   5.434   6.725  10.053 -0.1994  0.3170  0.1398
    6MOL0     H  780   5.639   6.539   9.934  1.9380  1.7178 -1.8266
    6MOL0     H  781   5.607   6.591  10.099 -1.9491 -0.8492 -0.0934
    6MOL0     H  782   5.670   6.828  10.018 -2.4733 -0.0734 -0.4774
    6MOL0     H  783   5.666   6.771   9.854 -1.9793 -2.0029 -0.0194
    6MOL0     H  784   5.866   6.657  10.046  0.9284  1.2805  1.5055
    6MOL0     H  785   5.870   6.666   9.862  0.2889 -0.4872  0.7549
    6MOL0     H  786   5.872   6.905  10.050  1.6195 -1.3102  1.7795
    6MOL0     H  787   5.907   6.906   9.878 -0.2004  2.7159  1.5624
    6MOL0     H  788   6.094   6.807  10.096  2.1016 -1.3483 -0.6085
    6MOL0     H  789   6.104   6.758   9.923 -1.6439 -1.3094 -0.0363
    6MOL0     H  790   5.095   6.735   9.617 -0.0843 -5.3033  0.8437
    6MOL0     H  791   4.857   6.857   9.579 -0.4749 -1.0960 -0.5210
    6MOL0     H  792   4.507   6.969   9.578 -1.4501  0.4425 -1.3862
    6MOL0     H  793   4.304   7.065   9.532  0.3398 -2.8362 -2.1314
    6MOL0     H  794   2.614   7.518   9.181  0.6165  0.5342 -1.0771
    6MOL0     H  795   2.444   7.531   9.021 -2.5140  2.8020 -1.0430
    6MOL0     H  796   1.848   7.637   9.069 -0.5269 -2.8635  0.2343
    6MOL0     H  797   1.666   7.650   8.883  0.1603  1.1987  2.1247
    6MOL0     H  798   1.769   7.889   8.551  0.3296 -0.0836 -0.3466
    6MOL0     H  799   1.635   7.880   8.658  1.8652  1.7253 -0.7181
    6MOL0     H  800   1.643   7.780   8.373 -1.0669 -0.2095 -1.0522
    6MOL0     H  801   1.534   7.914   8.447  0.4991  1.0697  0.2750
    6MOL0     H  802   1.416   7.731   8.559 -2.9546 -2.7594 -0.9617
    6MOL0     H  803   1.517   7.617   8.473  1.9623  1.0171 -0.9030
    6MOL0     H  804   1.300   7.668   8.359 -1.4486  1.2818 -0.9779
    6MOL0     H  805   1.331   7.837   8.352  0.1910 -0.1337 -1.7470
    6MOL0     H  806   1.523   7.636   8.013  0.2559  0.9750 -0.5379
    6MOL0     H  807   1.975   7.707   8.600 -1.3763  0.7686  0.0161
    6MOL0     H  808   2.243   7.626   8.772  0.7341  1.4645  1.5523
    6MOL0     H  809   2.184   7.714   8.631 -0.5031  0.2835  0.5523
    6MOL0     H  810   2.226   7.808   8.781  2.6472 -0.6025 -0.7760
    7MOL0     O  811   6.367   4.939   5.639  0.7658  0.6063  0.0816
    7MOL0     C  812   6.337   4.856   5.729 -0.1779  0.1956  0.1630
    7MOL0     O  813   6.432   4.764   5.779  0.1151 -0.1526 -0.2138
    7MOL0     C  814   6.563   4.766   5.762  0.0929 -0.4400 -0.3646
    7MOL0     C  815   6.638   4.878   5.749  0.9628 -0.1813 -0.0883
    7MOL0     C  816   6.776   4.874   5.740 -0.0537  0.8426 -0.7292
    7MOL0     C  817   6.849   4.753   5.760  0.5537  0.2308 -0.1938
    7MOL0     O  818   6.982   4.761   5.783 -0.0353  0.8691  0.4642
    7MOL0     C  819   7.069   4.663   5.725  0.0125  0.6446 -0.6141
    7MOL0     C  820   7.204   4.719   5.764 -0.2308 -0.2617 -0.7170
    7MOL0     C  821   7.313   4.657   5.680 -0.2609  0.1736  1.1022
    7MOL0     C  822   7.452   4.679   5.738 -0.4342  0.2437 -0.6384
    7MOL0     C  823   7.558   4.635   5.637  0.2567  0.1075  0.4748
    7MOL0     C  824   7.560   4.486   5.615 -0.6077 -0.2493  0.8184
    7MOL0     C  825   7.689   4.433   5.550  0.4515 -0.0970  0.3859
    7MOL0     C  826   7.678   4.442   5.392 -0.0238 -0.3925  0.0192
    7MOL0     N  827   7.805   4.481   5.328  0.1350 -1.1119  0.6583
    7MOL0     C  828   7.861   4.605   5.345 -0.0361  0.0531  0.1451
    7MOL0     C  829   7.963   4.612   5.257 -0.3782 -0.4408  0.5972
    7MOL0     C  830   8.036   4.738   5.211  0.1298  0.0881 -0.2781
    7MOL0     C  831   8.122   4.801   5.321  0.8121  0.5740 -0.4255
    7MOL0     C  832   8.223   4.713   5.387  0.5027  0.0647 -0.1353
    7MOL0     C  833   8.308   4.643   5.283 -0.1834  0.5985 -0.3670
    7MOL0     O  834   8.367   4.747   5.206 -0.7593 -0.7845 -0.0504
    7MOL0     C  835   8.420   4.708   5.087  0.1726  0.2052  0.0524
    7MOL0     C  836   8.376   4.774   4.970  0.0211 -0.4833 -0.4029
    7MOL0     C  837   8.424   4.726   4.843  0.0956 -0.2002 -0.6230
    7MOL0     C  838   8.520   4.622   4.836  0.2385 -0.5370 -0.4622
    7MOL0     C  839   8.554   4.562   4.704  0.3508  0.4825  0.5166
    7MOL0     O  840   8.609   4.435   4.707  0.6486 -0.0566  0.4875
    7MOL0     C  841   8.668   4.393   4.589 -0.1060 -0.0144  0.3193
    7MOL0     C  842   8.597   4.376   4.470 -0.3540  0.4594  0.1190
    7MOL0     C  843   8.670   4.328   4.358  0.0164 -0.7319 -0.6037
    7MOL0     C  844   8.804   4.286   4.368 -0.2833  1.0121  0.8594
    7MOL0     O  845   8.857   4.238   4.251  0.4011 -0.1611 -0.0665
    7MOL0     C  846   8.998   4.254   4.237  0.7489  0.5558  0.0149
    7MOL0     C  847   9.034   4.224   4.089  0.7017  0.6956  0.0395
    7MOL0     C  848   9.183   4.169   4.080 -0.5545 -0.2004  0.5063
    7MOL0     C  849   9.231   4.158   3.940 -0.2820 -0.0945 -0.4797
    7MOL0     C  850   9.375   4.146   3.932  0.0114  0.0583 -0.6171
    7MOL0     C  851   9.432   4.137   3.795  1.0389  0.1586  0.7948
    7MOL0     C  852   9.397   4.258   3.708 -0.3746  0.2558 -0.8270
    7MOL0     C  853   9.491   4.277   3.590  0.0968  0.0495  0.3542
    7MOL0    Cl  854   9.671   4.285   3.634 -0.3517  0.2508 -0.3870
    7MOL0     C  855   8.867   4.303   4.487  0.0218  0.6070 -0.1988
    7MOL0     C  856   8.810   4.355   4.598  0.7131  0.2226  0.2301
    7MOL0     O  857   8.536   4.639   4.604 -0.3312 -0.1397  0.2298
    7MOL0     C  858   8.552   4.560   4.955 -0.1995  0.1679 -0.6811
    7MOL0     C  859   8.511   4.601   5.077  0.3951  0.0135 -0.1121
    7MOL0     N  860   7.977   4.483   5.201  0.5282 -1.0285  0.3950
    7MOL0     N  861   7.886   4.409   5.253 -0.1771 -0.0529  0.8901
    7MOL0     C  862   6.764   4.638   5.772 -0.5118 -0.2939  0.3428
    7MOL0     C  863   6.627   4.648   5.776  0.6333  0.3530  0.0470
    7MOL0     C  864   6.186   4.837   5.763  0.0996 -0.1853  0.9267
    7MOL0     C  865   6.160   4.747   5.862 -0.5480  0.3199 -0.2745
    7MOL0     C  866   6.030   4.701   5.895  0.0059  0.1524 -0.5187
    7MOL0     C  867   5.925   4.752   5.826 -0.2960  0.1327  0.4104
    7MOL0     O  868   5.794   4.709   5.832 -0.1028 -0.7585  0.3246
    7MOL0     C  869   5.750   4.649   5.952 -0.3173 -0.5170 -0.0660
    7MOL0     C  870   5.594   4.656   5.953  0.0926  0.2996 -0.7487
    7MOL0     C  871   5.553   4.598   5.821  0.0945  0.2158 -0.2537
    7MOL0     C  872   5.399   4.552   5.805 -0.3855 -0.9227 -0.8322
    7MOL0     C  873   5.374   4.523   5.658 -0.5944 -0.2359 -0.2376
    7MOL0     C  874   5.337   4.517   5.537 -0.2460  0.0134 -0.4597
    7MOL0     C  875   5.947   4.848   5.730  0.0204 -0.1850  0.9530
    7MOL0     C  876   6.074   4.893   5.691 -0.2368 -0.2885 -0.8513
    7MOL0     C  877   6.079   5.011   5.594  0.9936 -0.2163 -0.3661
    7MOL0     H  878   6.582   4.970   5.737 -3.8217 -2.4877  1.7883
    7MOL0     H  879   6.832   4.967   5.734  0.9737  0.3988  1.3777
    7MOL0     H  880   7.052   4.563   5.767  3.6714  0.7146  1.3693
    7MOL0     H  881   7.053   4.674   5.618  0.6554  0.5383 -0.7221
    7MOL0     H  882   7.224   4.717   5.872 -2.4755  0.1327 -0.2509
    7MOL0     H  883   7.201   4.822   5.727 -0.0754  0.6478  1.6146
    7MOL0     H  884   7.302   4.702   5.580 -1.7150 -2.9261 -0.2602
    7MOL0     H  885   7.293   4.550   5.668 -1.2335  0.4817 -0.2461
    7MOL0     H  886   7.467   4.784   5.768  0.1670 -0.6163  2.4881
    7MOL0     H  887   7.471   4.621   5.829 -0.2846  0.2786 -0.6464
    7MOL0     H  888   7.548   4.683   5.539 -1.4226 -2.7057 -0.8349
    7MOL0     H  889   7.649   4.677   5.682  0.0184  0.2977  0.7787
    7MOL0     H  890   7.544   4.429   5.707 -0.7590 -3.0304 -0.8203
    7MOL0     H  891   7.478   4.455   5.549  0.3200  1.1689 -1.0994
    7MOL0     H  892   7.694   4.326   5.572  1.9436 -0.7458 -2.6095
    7MOL0     H  893   7.783   4.475   5.588  0.1301  0.9923  0.0148
    7MOL0     H  894   7.636   4.346   5.361  0.6372 -0.6780 -0.0088
    7MOL0     H  895   7.607   4.518   5.358 -0.0848 -0.6604 -0.4604
    7MOL0     H  896   7.822   4.684   5.409 -0.2567  1.0404 -1.1672
    7MOL0     H  897   8.083   4.716   5.115 -0.0721 -1.3343 -0.0718
    7MOL0     H  898   7.959   4.815   5.197  0.0535  0.8790  3.4234
    7MOL0     H  899   8.172   4.889   5.282 -0.7808  1.3237 -0.8381
    7MOL0     H  900   8.057   4.838   5.401  2.7425  2.6060  0.2989
    7MOL0     H  901   8.175   4.631   5.442  0.3349  1.1034  1.3300
    7MOL0     H  902   8.282   4.775   5.455 -0.4715  1.8989 -0.8873
    7MOL0     H  903   8.252   4.565   5.231 -0.4264 -0.5830  1.5852
    7MOL0     H  904   8.395   4.593   5.328 -1.7181 -1.0012  0.9336
    7MOL0     H  905   8.308   4.858   4.981  2.3371  1.4288  0.1044
    7MOL0     H  906   8.381   4.779   4.759 -1.3765 -0.2950  0.0259
    7MOL0     H  907   8.493   4.401   4.455  0.3969  3.0784 -1.5406
    7MOL0     H  908   8.616   4.312   4.265  0.2027  1.2574 -1.0995
    7MOL0     H  909   9.038   4.351   4.266  1.1338 -0.2454  2.3887
    7MOL0     H  910   9.044   4.170   4.290 -0.4540 -0.9176 -1.1773
    7MOL0     H  911   8.974   4.140   4.052  1.9075  0.3774 -1.2801
    7MOL0     H  912   9.014   4.313   4.028  3.8629  2.8105  1.7991
    7MOL0     H  913   9.251   4.227   4.144  1.2914 -2.1736  0.4546
    7MOL0     H  914   9.190   4.069   4.125 -2.4590 -2.5745 -3.8877
    7MOL0     H  915   9.212   4.247   3.880 -1.4691  0.2221  0.3337
    7MOL0     H  916   9.188   4.073   3.887  0.7377 -0.6442 -0.4533
    7MOL0     H  917   9.401   4.053   3.984  2.7633  1.7639  1.3124
    7MOL0     H  918   9.426   4.220   3.992 -0.6907  1.5358 -1.7784
    7MOL0     H  919   9.538   4.118   3.814  0.1058 -2.9596  3.9619
    7MOL0     H  920   9.380   4.051   3.753 -0.8961  0.1450  3.0012
    7MOL0     H  921   9.404   4.352   3.762  3.6063  0.3772 -1.2522
    7MOL0     H  922   9.292   4.248   3.681  0.2570 -0.1611 -3.3911
    7MOL0     H  923   9.479   4.187   3.528 -1.2090  0.5188 -0.1091
    7MOL0     H  924   9.463   4.359   3.524  2.4070  0.8312  0.2329
    7MOL0     H  925   8.974   4.292   4.505  0.1024  2.1690  0.4551
    7MOL0     H  926   8.864   4.362   4.692  2.0380  0.8365 -0.5648
    7MOL0     H  927   8.624   4.480   4.970  1.3417  1.6840  0.3073
    7MOL0     H  928   8.546   4.568   5.174 -2.5630 -0.1844  0.9915
    7MOL0     H  929   6.804   4.537   5.783  0.3991  0.0227  0.0333
    7MOL0     H  930   6.560   4.567   5.802 -0.2465  0.3828 -1.9338
    7MOL0     H  931   6.245   4.705   5.915  0.0211  2.6482  0.7676
    7MOL0     H  932   6.007   4.628   5.972 -0.8292  1.4212  0.4751
    7MOL0     H  933   5.781   4.696   6.046 -0.5330 -5.7340  2.9435
    7MOL0     H  934   5.792   4.549   5.949  1.1258  0.0066  1.3141
    7MOL0     H  935   5.552   4.755   5.972  0.4169 -0.0932  2.7146
    7MOL0     H  936   5.570   4.592   6.039 -0.1300 -0.7258 -1.5557
    7MOL0     H  937   5.621   4.513   5.807 -1.3493 -0.6797 -2.5826
    7MOL0     H  938   5.575   4.668   5.740  1.8930  0.3852  0.3280
    7MOL0     H  939   5.376   4.461   5.861  0.6645 -1.1201 -0.7128
    7MOL0     H  940   5.341   4.641   5.831  2.9450  1.2036 -0.0733
    7MOL0     H  941   5.298   4.522   5.437 -0.8092 -1.6741 -0.3589
    7MOL0     H  942   5.854   4.881   5.684 -0.5523 -0.6434  1.7493
    7MOL0     H  943   6.143   5.001   5.506  1.1508  3.3740 -0.7892
    7MOL0     H  944   5.980   5.028   5.551  0.7393 -1.3270 -0.2670
    7MOL0     H  945   6.111   5.100   5.648 -1.9113  0.6024  0.1864
    8MOL0     O  946  10.437   4.818   1.619 -0.2406  0.4169  0.5530
    8MOL0     C  947  10.413   4.934   1.627  0.1581 -0.2470 -0.1292
    8MOL0     O  948  10.494   5.030   1.686 -0.2142 -0.1058  0.0251
    8MOL0     C  949  10.620   5.000   1.726 -0.3860  0.3489 -0.1843
    8MOL0     C  950  10.710   4.967   1.620  0.2835  0.6302  0.3129
    8MOL0     C  951  10.837   4.932   1.662 -0.3855  0.5332  0.6143
    8MOL0     C  952  10.877   4.925   1.796  0.5443  0.1178  0.0349
    8MOL0     O  953  10.997   4.883   1.833  0.1317 -0.1015  0.8208
    8MOL0     C  954  11.098   4.974   1.804  0.0967 -0.4466  0.5816
    8MOL0     C  955  11.210   4.956   1.900 -0.1332  0.3635 -0.1961
    8MOL0     C  956  11.169   4.973   2.055 -0.1508  0.6590  0.5942
    8MOL0     C  957  11.290   5.026   2.134  0.6834 -0.2678  0.0588
    8MOL0     C  958  11.407   4.928   2.145  0.1482  0.7591  0.8855
    8MOL0     C  959  11.526   4.985   2.222 -0.2704  0.7579  0.2048
    8MOL0     C  960  11.660   4.910   2.217 -0.5189 -0.0433 -0.3467
    8MOL0     C  961  11.661   4.783   2.299 -0.7888 -0.3332  0.2398
    8MOL0     N  962  11.683   4.813   2.444 -1.0058  0.3932 -0.4143
    8MOL0     C  963  11.797   4.799   2.517 -0.2177  0.3780 -0.2501
    8MOL0     C  964  11.759   4.855   2.641 -0.1162 -0.1477 -0.1132
    8MOL0     C  965  11.856   4.876   2.758  0.3862 -0.7044 -0.4934
    8MOL0     C  966  11.961   4.996   2.748 -0.0357  0.7314 -0.7057
    8MOL0     C  967  11.896   5.137   2.764 -0.0477 -0.3270  0.8202
    8MOL0     C  968  11.994   5.253   2.749  0.1463  0.4242 -0.5131
    8MOL0     O  969  12.106   5.215   2.670  0.1341 -0.0753 -0.2611
    8MOL0     C  970  12.216   5.297   2.667  0.0247  0.1641 -0.2351
    8MOL0     C  971  12.320   5.259   2.586 -0.5807 -0.3219  1.0205
    8MOL0     C  972  12.436   5.335   2.563 -0.0852 -0.0477 -0.8349
    8MOL0     C  973  12.447   5.457   2.621  0.0084 -0.3164 -0.1138
    8MOL0     C  974  12.560   5.549   2.602 -0.1158 -0.4411 -0.3380
    8MOL0     O  975  12.541   5.675   2.662  0.4000  0.2193  0.1812
    8MOL0     C  976  12.656   5.748   2.693  0.0794  0.7306 -0.3052
    8MOL0     C  977  12.744   5.784   2.589  0.4550  0.3187 -0.4869
    8MOL0     C  978  12.857   5.867   2.616  0.2014 -0.0297  1.3029
    8MOL0     C  979  12.879   5.912   2.744  0.0062  0.0821  0.1568
    8MOL0     O  980  12.979   6.001   2.787 -0.3394 -0.1153  0.4104
    8MOL0     C  981  13.061   5.955   2.892 -0.2110  0.2483  0.0136
    8MOL0     C  982  13.166   6.056   2.940  0.0106 -0.3008  0.0128
    8MOL0     C  983  13.289   5.990   3.008  1.4932  0.6331  0.4263
    8MOL0     C  984  13.385   5.954   2.900  0.1950 -0.3577 -0.3030
    8MOL0     C  985  13.502   5.874   2.953 -0.1715  0.6883  0.8112
    8MOL0     C  986  13.611   5.873   2.845 -0.5837 -0.0442 -0.2353
    8MOL0     C  987  13.737   5.780   2.876 -0.2158 -0.4577  0.7639
    8MOL0     C  988  13.824   5.756   2.756  0.2952 -0.2247  0.1859
    8MOL0    Cl  989  13.994   5.702   2.808  0.0872  0.0893 -0.1780
    8MOL0     C  990  12.795   5.863   2.843  1.1605  0.0547 -0.1677
    8MOL0     C  991  12.687   5.779   2.821  0.3600 -0.3562  0.3399
    8MOL0     O  992  12.661   5.512   2.540 -0.1604  0.2899  0.0496
    8MOL0     C  993  12.333   5.506   2.692  0.3138  0.7165 -0.0066
    8MOL0     C  994  12.231   5.426   2.719 -0.6384  0.6240 -0.1062
    8MOL0     N  995  11.629   4.901   2.639 -0.3474  0.2006  0.0934
    8MOL0     N  996  11.586   4.871   2.523 -0.6319 -0.3518 -0.7123
    8MOL0     C  997  10.788   4.968   1.899  0.5558 -0.1779  0.6608
    8MOL0     C  998  10.664   5.007   1.863  0.2072  0.1263 -0.8887
    8MOL0     C  999  10.288   4.980   1.559  0.5654  0.2902  0.4817
    8MOL0     C 1000  10.272   5.124   1.539 -0.4694  0.3136  0.0997
    8MOL0     C 1001  10.161   5.180   1.480  0.4980  2.0289  0.0694
    8MOL0     C 1002  10.056   5.092   1.442  0.7643 -0.0580 -0.0172
    8MOL0     O 1003   9.942   5.137   1.381  0.0496  0.8475  0.4924
    8MOL0     C 1004   9.920   5.278   1.365  0.0354  0.3796  0.1132
    8MOL0     C 1005   9.773   5.317   1.346  0.2896 -0.1934 -0.7986
    8MOL0     C 1006   9.683   5.267   1.463 -0.2529  0.1750  0.7226
    8MOL0     C 1007   9.548   5.344   1.454 -0.7406 -0.1720  0.6074
    8MOL0     C 1008   9.437   5.285   1.525 -0.7482 -0.5224 -0.0778
    8MOL0     C 1009   9.348   5.235   1.587 -0.3528  0.3498 -0.1698
    8MOL0     C 1010  10.064   4.953   1.465  0.0259 -0.1765  0.3797
    8MOL0     C 1011  10.178   4.900   1.520  0.0035  1.4784 -0.4189
    8MOL0     C 1012  10.167   4.746   1.551  0.0905 -0.2333  0.6697
    8MOL0     H 1013  10.672   4.979   1.519  0.1993  2.0702  0.4943
    8MOL0     H 1014  10.899   4.894   1.582  0.9950 -1.9495  2.7287
    8MOL0     H 1015  11.129   4.969   1.700 -3.8673  0.2888 -0.8158
    8MOL0     H 1016  11.056   5.075   1.811  1.0311 -0.0617  0.6840
    8MOL0     H 1017  11.290   5.027   1.875 -0.3305  0.0098 -1.9361
    8MOL0     H 1018  11.254   4.856   1.898 -1.0861 -0.0732  0.2383
    8MOL0     H 1019  11.129   4.880   2.095 -0.2292 -0.4306 -1.8349
    8MOL0     H 1020  11.095   5.054   2.058 -2.9561 -1.7732  1.3100
    8MOL0     H 1021  11.318   5.123   2.091 -0.5678 -1.0951 -2.8901
    8MOL0     H 1022  11.264   5.058   2.235  0.0906  3.9875 -1.2330
    8MOL0     H 1023  11.369   4.832   2.182 -4.2283  1.1662 -1.8105
    8MOL0     H 1024  11.454   4.912   2.048  1.4995 -4.5304  2.0958
    8MOL0     H 1025  11.538   5.084   2.178 -2.4235  0.4982 -1.0890
    8MOL0     H 1026  11.494   4.992   2.327 -1.3009  1.9517 -0.1733
    8MOL0     H 1027  11.733   4.980   2.257 -2.7527  0.9053  2.3873
    8MOL0     H 1028  11.689   4.897   2.113  1.1065 -1.1583  0.2008
    8MOL0     H 1029  11.569   4.723   2.296  0.3836 -2.1967 -0.2843
    8MOL0     H 1030  11.743   4.719   2.265  0.0736 -0.3444  2.2424
    8MOL0     H 1031  11.892   4.751   2.495  0.3570  2.5199 -3.1208
    8MOL0     H 1032  11.796   4.880   2.849 -0.8008  0.4088 -1.2923
    8MOL0     H 1033  11.911   4.782   2.769  2.8385  0.8704  1.6701
    8MOL0     H 1034  12.033   4.988   2.830  0.1770 -0.1981 -0.9743
    8MOL0     H 1035  12.012   4.989   2.652 -0.5408 -1.5645 -0.8611
    8MOL0     H 1036  11.844   5.144   2.860 -1.0194 -2.5106  0.5121
    8MOL0     H 1037  11.822   5.147   2.684  0.1115  0.5773  0.7831
    8MOL0     H 1038  12.034   5.273   2.849  1.5954  0.8262 -1.1421
    8MOL0     H 1039  11.935   5.334   2.707 -1.2867 -1.0184 -1.3773
    8MOL0     H 1040  12.318   5.167   2.528 -0.5044 -0.0711  0.6120
    8MOL0     H 1041  12.521   5.293   2.509  1.3316  3.1035 -1.2733
    8MOL0     H 1042  12.725   5.743   2.490  0.7130 -3.0077  0.7139
    8MOL0     H 1043  12.920   5.907   2.537  0.6478 -1.0539  1.1173
    8MOL0     H 1044  13.001   5.930   2.981  0.5320 -1.7048  0.0177
    8MOL0     H 1045  13.110   5.863   2.859  0.4489  0.7432 -0.4001
    8MOL0     H 1046  13.198   6.112   2.852 -1.8147 -0.6713 -0.9355
    8MOL0     H 1047  13.122   6.127   3.010 -0.6528 -0.4605 -0.2380
    8MOL0     H 1048  13.351   6.048   3.076  4.2419 -2.1123  0.4775
    8MOL0     H 1049  13.249   5.900   3.057  0.1880  1.0521  0.1701
    8MOL0     H 1050  13.411   6.047   2.849 -1.1589 -1.2294 -2.7455
    8MOL0     H 1051  13.335   5.894   2.824  1.5555  0.0610 -1.5675
    8MOL0     H 1052  13.475   5.769   2.969 -0.2122  0.7642  1.2578
    8MOL0     H 1053  13.537   5.914   3.049 -2.5920 -0.7594  2.4349
    8MOL0     H 1054  13.577   5.855   2.743  0.8985  1.7633 -1.1112
    8MOL0     H 1055  13.649   5.974   2.830  1.0882 -0.4085  1.2352
    8MOL0     H 1056  13.704   5.680   2.907  0.0374 -0.6279  0.4949
    8MOL0     H 1057  13.803   5.833   2.945 -0.6634  0.4758  0.4927
    8MOL0     H 1058  13.793   5.683   2.680  2.6615  1.0287 -2.1532
    8MOL0     H 1059  13.835   5.850   2.701 -3.8729 -1.1333 -2.6877
    8MOL0     H 1060  12.802   5.898   2.946 -3.3269 -0.1290  0.3969
    8MOL0     H 1061  12.616   5.739   2.893 -0.4299 -1.1969 -0.8738
    8MOL0     H 1062  12.326   5.603   2.741 -0.8554  0.7247 -0.1793
    8MOL0     H 1063  12.155   5.462   2.787 -1.1308 -1.1209  0.3059
    8MOL0     H 1064  10.819   4.969   2.003 -0.0963 -0.2970  0.8609
    8MOL0     H 1065  10.589   5.042   1.933  1.8465  2.4070 -0.1485
    8MOL0     H 1066  10.358   5.189   1.552  0.5045 -1.0186  0.4685
    8MOL0     H 1067  10.156   5.286   1.459 -0.2346  2.1005  0.5603
    8MOL0     H 1068   9.994   5.314   1.293 -0.1462  0.6208  0.0441
    8MOL0     H 1069   9.945   5.332   1.457 -0.5243 -0.2275  0.6286
    8MOL0     H 1070   9.739   5.282   1.249  1.1418 -0.5474 -0.9775
    8MOL0     H 1071   9.775   5.426   1.338 -0.5158 -0.2559 -2.2091
    8MOL0     H 1072   9.734   5.294   1.557 -0.1713 -0.9932  1.0258
    8MOL0     H 1073   9.675   5.158   1.463 -0.7659  0.2032  1.5082
    8MOL0     H 1074   9.572   5.443   1.495  0.8655 -1.2817  2.5320
    8MOL0     H 1075   9.515   5.345   1.350  0.3152 -2.7114  0.1664
    8MOL0     H 1076   9.276   5.181   1.644  0.8341 -0.0974  0.9699
    8MOL0     H 1077   9.979   4.893   1.435 -1.3320  1.2692  1.1588
    8MOL0     H 1078  10.060   4.723   1.552  0.1654 -0.7482 -0.7249
    8MOL0     H 1079  10.214   4.693   1.467  1.3192  1.3533  0.3092
    8MOL0     H 1080  10.206   4.726   1.652 -3.7018 -0.4367  2.2614
    9MOL0     O 1081  10.933   7.247   7.814 -0.9214  0.0002  0.3169
    9MOL0     C 1082  10.869   7.296   7.904 -0.1353  0.7592 -1.0379
    9MOL0     O 1083  10.917   7.304   8.034 -0.1748 -0.0212 -0.4199
    9MOL0     C 1084  11.047   7.264   8.067  0.0772  0.1571  0.7306
    9MOL0     C 1085  11.153   7.269   7.982  0.0646 -0.3954  0.8051
    9MOL0     C 1086  11.277   7.216   8.014 -0.6998  0.3037  0.4434
    9MOL0     C 1087  11.298   7.158   8.143  0.2174 -0.4004 -0.6492
    9MOL0     O 1088  11.423   7.120   8.191 -0.6780 -0.2380  0.5126
    9MOL0     C 1089  11.531   7.149   8.101 -0.4764 -0.3277 -0.1295
    9MOL0     C 1090  11.653   7.108   8.176 -0.9176 -0.2213 -0.1080
    9MOL0     C 1091  11.777   7.119   8.087 -0.0215  0.1046  0.1760
    9MOL0     C 1092  11.898   7.046   8.153 -0.0627  0.3531 -0.1570
    9MOL0     C 1093  12.012   7.024   8.049  0.6063  0.1880  0.3583
    9MOL0     C 1094  12.138   6.987   8.126  0.4720  0.2982 -0.1235
    9MOL0     C 1095  12.253   6.955   8.029  0.4899  0.1282 -0.2545
    9MOL0     C 1096  12.382   6.948   8.108  0.8339  0.0678 -0.8792
    9MOL0     N 1097  12.495   6.894   8.032  0.3240 -0.8366 -0.1637
    9MOL0     C 1098  12.619   6.874   8.086  0.4634 -0.3397 -0.6230
    9MOL0     C 1099  12.696   6.810   7.995 -0.0724 -1.4899  0.2684
    9MOL0     C 1100  12.845   6.789   8.006 -0.4157  0.4902  0.2853
    9MOL0     C 1101  12.853   6.642   8.065  0.1701  0.2346  0.8305
    9MOL0     C 1102  12.985   6.573   8.036 -0.2542  0.3282  0.5860
    9MOL0     C 1103  13.108   6.627   8.106 -0.0186  0.2208  0.4996
    9MOL0     O 1104  13.217   6.526   8.091  0.4117  0.0817 -0.1892
    9MOL0     C 1105  13.343   6.572   8.130  0.7675  1.3189 -0.6687
    9MOL0     C 1106  13.403   6.693   8.083 -0.5222  0.0953 -0.5193
    9MOL0     C 1107  13.530   6.720   8.134 -0.2809  0.0740 -0.8997
    9MOL0     C 1108  13.595   6.639   8.229 -0.6512 -0.4229 -0.5149
    9MOL0     C 1109  13.737   6.666   8.267 -0.4219 -0.0070 -0.8041
    9MOL0     O 1110  13.794   6.562   8.327 -0.3836  0.7072 -0.1327
    9MOL0     C 1111  13.934   6.559   8.341  0.2945 -0.1139  0.2061
    9MOL0     C 1112  14.009   6.640   8.427  0.2625 -0.1991  0.2675
    9MOL0     C 1113  14.151   6.630   8.425  0.6107  0.0562 -0.4298
    9MOL0     C 1114  14.217   6.532   8.347 -0.6674  0.2284  0.8034
    9MOL0     O 1115  14.345   6.489   8.346 -0.6032 -0.1143 -0.1713
    9MOL0     C 1116  14.439   6.556   8.430 -1.0078 -0.8742  0.1039
    9MOL0     C 1117  14.574   6.486   8.413  0.1698 -1.1459 -0.6460
    9MOL0     C 1118  14.667   6.570   8.503 -0.1792 -0.3287  0.0843
    9MOL0     C 1119  14.807   6.561   8.468 -1.0783  0.0750 -0.1184
    9MOL0     C 1120  14.906   6.610   8.577 -0.4203  0.2337  0.1142
    9MOL0     C 1121  15.051   6.592   8.529  0.1620  0.6461  0.0746
    9MOL0     C 1122  15.144   6.699   8.605 -0.2940 -0.3895  0.0638
    9MOL0     C 1123  15.300   6.663   8.596  0.5781  0.2709  0.1480
    9MOL0    Cl 1124  15.337   6.513   8.685  0.3508 -0.1123 -0.0231
    9MOL0     C 1125  14.134   6.448   8.263 -0.0007 -0.3748 -0.5498
    9MOL0     C 1126  13.997   6.466   8.261  0.1841 -0.7536 -0.0848
    9MOL0     O 1127  13.802   6.766   8.229 -0.8252  0.5059  0.3504
    9MOL0     C 1128  13.524   6.530   8.273 -0.1774 -0.8780  0.2790
    9MOL0     C 1129  13.397   6.491   8.227  0.5845  0.1854 -0.0835
    9MOL0     N 1130  12.615   6.801   7.883 -0.5562 -0.7927 -0.0591
    9MOL0     N 1131  12.494   6.842   7.909  0.3273 -0.0042  0.0354
    9MOL0     C 1132  11.187   7.154   8.233  0.1660  0.2350 -1.0059
    9MOL0     C 1133  11.058   7.203   8.196 -0.7034 -0.9257  0.4361
    9MOL0     C 1134  10.725   7.330   7.869 -0.5534 -0.4066 -0.2502
    9MOL0     C 1135  10.645   7.408   7.955  0.3848  0.5641 -0.2972
    9MOL0     C 1136  10.514   7.458   7.921 -0.8074 -0.0691 -0.4971
    9MOL0     C 1137  10.452   7.422   7.799 -0.0406  0.8040 -0.4071
    9MOL0     O 1138  10.324   7.463   7.778  0.6818 -0.0564 -0.4824
    9MOL0     C 1139  10.253   7.388   7.688 -0.0674  0.3311  0.8830
    9MOL0     C 1140  10.106   7.405   7.708 -0.0065 -0.0103 -0.1867
    9MOL0     C 1141  10.068   7.368   7.851  0.1642  0.8925 -0.0851
    9MOL0     C 1142   9.914   7.362   7.851  0.4017  0.1832 -0.1262
    9MOL0     C 1143   9.842   7.489   7.830  0.1642  0.0180  0.0411
    9MOL0     C 1144   9.787   7.593   7.798 -0.1957 -0.5051 -0.2004
    9MOL0     C 1145  10.533   7.367   7.706  0.1747  0.4977 -0.0506
    9MOL0     C 1146  10.664   7.321   7.737 -0.0386 -0.2836  0.3305
    9MOL0     C 1147  10.729   7.248   7.615  0.1074 -0.6717 -0.0811
    9MOL0     H 1148  11.147   7.313   7.883  0.3244  0.3490  1.1161
    9MOL0     H 1149  11.348   7.216   7.932 -0.2597 -2.5964  0.7105
    9MOL0     H 1150  11.525   7.091   8.009 -0.0562 -2.3835  1.0697
    9MOL0     H 1151  11.537   7.255   8.075  2.0247 -0.1686  0.8173
    9MOL0     H 1152  11.654   7.003   8.205 -0.6271 -0.2617 -0.2574
    9MOL0     H 1153  11.664   7.174   8.263  2.7307  0.1717 -0.6826
    9MOL0     H 1154  11.810   7.223   8.079  0.3793 -0.0487 -0.2521
    9MOL0     H 1155  11.756   7.080   7.987 -0.7143 -1.4678  0.9139
    9MOL0     H 1156  11.932   7.097   8.243  2.2162  1.0891 -1.3530
    9MOL0     H 1157  11.860   6.946   8.178  0.2772  0.6248  1.5550
    9MOL0     H 1158  11.989   6.942   7.980  0.4613  0.4610  0.0770
    9MOL0     H 1159  12.033   7.115   7.991  3.1665  1.2387  2.7298
    9MOL0     H 1160  12.164   7.072   8.190  0.6716  1.0885 -1.2158
    9MOL0     H 1161  12.110   6.908   8.196 -1.3983  1.0282  0.0028
    9MOL0     H 1162  12.267   7.033   7.953 -1.5954  3.5543  2.5334
    9MOL0     H 1163  12.233   6.862   7.976  0.4220 -1.4675  2.3759
    9MOL0     H 1164  12.405   7.048   8.147  0.8932  0.0782 -0.9403
    9MOL0     H 1165  12.372   6.869   8.183 -1.7778 -0.2257 -1.4199
    9MOL0     H 1166  12.655   6.899   8.185 -0.0619 -1.7427 -0.0422
    9MOL0     H 1167  12.883   6.803   7.904 -1.1613 -0.4243 -0.1290
    9MOL0     H 1168  12.906   6.858   8.065  2.1192 -0.1905 -1.3562
    9MOL0     H 1169  12.843   6.642   8.174  0.4076 -0.9409  0.8723
    9MOL0     H 1170  12.771   6.585   8.021  1.3876  0.0161 -1.3309
    9MOL0     H 1171  13.002   6.573   7.928  0.3236  1.1332  0.6686
    9MOL0     H 1172  12.962   6.466   8.042 -2.6205  0.3292 -3.7382
    9MOL0     H 1173  13.087   6.636   8.213  2.8984  3.6081  0.9747
    9MOL0     H 1174  13.136   6.719   8.053 -0.1356  0.5524  1.0074
    9MOL0     H 1175  13.350   6.754   8.011 -1.5231  1.8634  1.5790
    9MOL0     H 1176  13.577   6.811   8.096  1.5146 -0.0656  0.7878
    9MOL0     H 1177  13.967   6.717   8.492 -0.4092  1.7199 -2.2659
    9MOL0     H 1178  14.211   6.683   8.498 -0.8520 -1.3410  1.9324
    9MOL0     H 1179  14.462   6.658   8.398 -0.9405 -0.9428 -0.0639
    9MOL0     H 1180  14.407   6.554   8.535  0.5919 -4.9998  0.6943
    9MOL0     H 1181  14.566   6.382   8.445  2.3879 -1.0803  0.2867
    9MOL0     H 1182  14.602   6.492   8.307 -0.8536 -0.8319 -0.9113
    9MOL0     H 1183  14.645   6.677   8.496  1.6724  0.0392 -0.7449
    9MOL0     H 1184  14.660   6.538   8.607 -1.4075  4.5656  1.7794
    9MOL0     H 1185  14.828   6.608   8.372 -2.1439 -2.5851 -1.7731
    9MOL0     H 1186  14.827   6.454   8.455 -0.9510  0.1758 -0.7539
    9MOL0     H 1187  14.896   6.559   8.673 -0.7033 -0.6517 -0.3730
    9MOL0     H 1188  14.891   6.716   8.599 -1.4425 -0.1118  1.1590
    9MOL0     H 1189  15.083   6.488   8.542  3.4679  1.3000 -1.9188
    9MOL0     H 1190  15.061   6.606   8.421  0.4860  1.0496  0.1542
    9MOL0     H 1191  15.120   6.696   8.712 -1.8733 -3.5642 -0.2436
    9MOL0     H 1192  15.129   6.798   8.561  1.5511  1.6813  3.6257
    9MOL0     H 1193  15.332   6.663   8.491 -1.0942  1.2955 -0.4097
    9MOL0     H 1194  15.356   6.734   8.657 -0.4347  1.0740  0.1718
    9MOL0     H 1195  14.185   6.365   8.216 -1.5621  0.1219 -3.3252
    9MOL0     H 1196  13.932   6.392   8.217 -1.0824 -0.4180  1.1390
    9MOL0     H 1197  13.570   6.467   8.348  4.7413  0.8770 -0.8735
    9MOL0     H 1198  13.343   6.403   8.262  0.3716 -0.0237 -0.9176
    9MOL0     H 1199  11.206   7.125   8.336  0.0071  1.4608 -0.6189
    9MOL0     H 1200  10.972   7.193   8.262 -0.8039 -1.0556  0.2839
    9MOL0     H 1201  10.684   7.428   8.054 -4.2876  0.7179  1.7840
    9MOL0     H 1202  10.461   7.517   7.995 -0.3329  0.6074 -0.6848
    9MOL0     H 1203  10.282   7.283   7.687 -0.4098  0.2239  1.7632
    9MOL0     H 1204  10.288   7.423   7.590  0.1394  0.4574  1.0021
    9MOL0     H 1205  10.043   7.350   7.638 -1.2319  0.5664  0.4271
    9MOL0     H 1206  10.090   7.512   7.690  0.1075 -0.1474 -1.1332
    9MOL0     H 1207  10.103   7.447   7.918 -2.1779  3.5054 -1.6951
    9MOL0     H 1208  10.102   7.269   7.881 -0.2823  0.1134 -1.9805
    9MOL0     H 1209   9.868   7.291   7.782 -0.1271  1.2266 -0.8719
    9MOL0     H 1210   9.878   7.344   7.953 -0.9457 -0.0209 -0.6215
    9MOL0     H 1211   9.736   7.681   7.762 -1.0533 -1.5410 -1.6555
    9MOL0     H 1212  10.504   7.368   7.602  0.1622 -0.1008 -0.0534
    9MOL0     H 1213  10.823   7.295   7.584 -0.0821  0.9938  1.7100
    9MOL0     H 1214  10.744   7.143   7.640 -1.2545 -0.8096  0.2480
    9MOL0     H 1215  10.665   7.254   7.526 -2.2945  1.0367  1.6381
   10MOL0     O 1216  10.695  10.439   4.523 -0.1040 -0.4452  0.1048
   10MOL0     C 1217  10.693  10.338   4.600 -0.2347 -0.2373  0.7213
   10MOL0     O 1218  10.792  10.246   4.620  0.7305  0.1061  0.5684
   10MOL0     C 1219  10.909  10.240   4.553 -0.9450 -0.3986 -0.8717
   10MOL0     C 1220  11.010  10.165   4.616  0.1580 -0.2630 -0.3601
   10MOL0     C 1221  11.141  10.149   4.558  0.0399  0.4173  0.6120
   10MOL0     C 1222  11.170  10.205   4.436  0.0665 -0.3437 -0.4411
   10MOL0     O 1223  11.294  10.178   4.384 -0.4811 -1.1373 -0.0453
   10MOL0     C 1224  11.293  10.087   4.276  0.3324  0.5001 -0.0893
   10MOL0     C 1225  11.429  10.088   4.196  0.6785 -0.7046 -0.5932
   10MOL0     C 1226  11.541  10.001   4.268 -0.3755 -0.5415 -0.7092
   10MOL0     C 1227  11.678  10.063   4.259 -0.8518 -0.4495 -0.0721
   10MOL0     C 1228  11.746  10.084   4.114  0.0715  0.3401 -0.8067
   10MOL0     C 1229  11.724   9.963   4.027 -0.1685  0.2000  0.4340
   10MOL0     C 1230  11.830   9.950   3.913  0.8590 -0.1551 -0.7841
   10MOL0     C 1231  11.802   9.828   3.826 -0.4812  0.6447 -0.0797
   10MOL0     N 1232  11.884   9.836   3.703 -1.0279 -0.3318  0.3350
   10MOL0     C 1233  12.017   9.831   3.699 -0.6026  0.0220 -0.8807
   10MOL0     C 1234  12.044   9.769   3.581 -0.0606 -0.7160  0.7816
   10MOL0     C 1235  12.174   9.722   3.522 -0.3734  0.0623 -0.0211
   10MOL0     C 1236  12.224   9.599   3.592 -0.3090  0.0606 -0.1669
   10MOL0     C 1237  12.381   9.593   3.612 -0.6594 -0.7988 -0.2067
   10MOL0     C 1238  12.414   9.486   3.721 -0.1021 -0.1587  0.0096
   10MOL0     O 1239  12.536   9.528   3.790 -0.3526 -0.2523 -0.6005
   10MOL0     C 1240  12.662   9.471   3.772  0.4589  0.7380 -0.4982
   10MOL0     C 1241  12.695   9.390   3.679 -1.2004  1.2016  0.9039
   10MOL0     C 1242  12.826   9.324   3.679 -0.4652  0.3958  0.5703
   10MOL0     C 1243  12.918   9.347   3.784 -0.7322 -0.1225  0.9973
   10MOL0     C 1244  13.054   9.278   3.779  0.7476 -1.2985  0.5060
   10MOL0     O 1245  13.145   9.324   3.871  0.5231 -0.8057  0.4077
   10MOL0     C 1246  13.269   9.265   3.880  0.5872  0.1575  1.0422
   10MOL0     C 1247  13.357   9.271   3.781  1.1643 -0.7756  0.6055
   10MOL0     C 1248  13.480   9.207   3.791  0.0361 -0.3617  0.2421
   10MOL0     C 1249  13.516   9.130   3.895  0.0604 -0.2613  0.0909
   10MOL0     O 1250  13.632   9.056   3.882 -0.4920 -0.1656  0.1103
   10MOL0     C 1251  13.679   8.979   3.993 -0.2449 -0.1941  0.1154
   10MOL0     C 1252  13.831   8.979   3.972 -0.8653 -0.4812  0.3733
   10MOL0     C 1253  13.908   8.966   4.103  0.4179 -0.4088 -0.1198
   10MOL0     C 1254  14.058   8.953   4.077 -0.4002  0.1959  0.1973
   10MOL0     C 1255  14.136   8.960   4.212 -0.5764  0.6486 -0.5175
   10MOL0     C 1256  14.284   8.995   4.191  0.0491  0.4119 -0.0642
   10MOL0     C 1257  14.356   8.900   4.100  0.2933 -0.1541 -0.1647
   10MOL0     C 1258  14.503   8.924   4.093 -0.0623  0.2608 -0.7263
   10MOL0    Cl 1259  14.582   8.900   4.257 -0.2417 -0.0051 -0.1103
   10MOL0     C 1260  13.419   9.117   4.000  0.0587  0.6714  0.4192
   10MOL0     C 1261  13.293   9.191   3.992  0.5729  0.2216 -0.3387
   10MOL0     O 1262  13.083   9.206   3.686  0.2112 -0.3771  0.2327
   10MOL0     C 1263  12.885   9.452   3.874 -0.3243  0.1669  0.6022
   10MOL0     C 1264  12.756   9.502   3.871 -0.5063 -0.1231  0.4960
   10MOL0     N 1265  11.925   9.752   3.508 -0.4579 -0.7780  1.1534
   10MOL0     N 1266  11.834   9.783   3.587 -0.0136  0.1294 -0.1509
   10MOL0     C 1267  11.072  10.280   4.371 -0.0570  0.0214  0.1292
   10MOL0     C 1268  10.943  10.305   4.430 -0.1078 -0.0369 -0.6412
   10MOL0     C 1269  10.570  10.342   4.683  0.2393 -0.1996  0.1807
   10MOL0     C 1270  10.444  10.394   4.627 -0.6296 -0.5878 -1.0198
   10MOL0     C 1271  10.330  10.413   4.711  0.0202 -0.5078 -0.8026
   10MOL0     C 1272  10.338  10.364   4.839  0.5101  0.5571  0.1344
   10MOL0     O 1273  10.233  10.378   4.922 -0.0500  0.7919 -0.3637
   10MOL0     C 1274  10.103  10.343   4.875  0.4971 -0.8651  0.1046
   10MOL0     C 1275  10.103  10.193   4.852 -0.1553  0.0478 -0.8893
   10MOL0     C 1276   9.972  10.129   4.791  0.3269  0.3739 -1.1132
   10MOL0     C 1277   9.987   9.975   4.780 -0.1969  0.2550 -0.7288
   10MOL0     C 1278   9.950   9.912   4.908  0.4834  0.0730 -0.8202
   10MOL0     C 1279   9.932   9.854   5.019  0.1423 -0.5717 -0.0865
   10MOL0     C 1280  10.453  10.316   4.896 -0.8181 -0.8260  0.1570
   10MOL0     C 1281  10.573  10.298   4.819 -0.6589  0.9898 -0.3034
   10MOL0     C 1282  10.700  10.254   4.888  0.0556  0.4994  0.1471
   10MOL0     H 1283  10.992  10.104   4.704  0.4992 -1.6959 -1.2521
   10MOL0     H 1284  11.216  10.108   4.624  0.1381  0.1032  0.3062
   10MOL0     H 1285  11.279   9.983   4.307 -1.4052 -0.0328 -2.4267
   10MOL0     H 1286  11.209  10.105   4.208 -2.5153 -0.1023  3.0331
   10MOL0     H 1287  11.457  10.194   4.197 -1.1881 -0.1002 -2.9994
   10MOL0     H 1288  11.407  10.042   4.099 -1.6470 -3.1173  0.9541
   10MOL0     H 1289  11.542   9.895   4.238  1.1894 -0.9295  0.5659
   10MOL0     H 1290  11.518   9.994   4.375  0.4529  0.1491 -0.4857
   10MOL0     H 1291  11.670  10.162   4.303  1.2349 -1.1563  2.1041
   10MOL0     H 1292  11.739  10.003   4.327 -2.0610  0.4769  1.9091
   10MOL0     H 1293  11.697  10.175   4.078 -0.0270 -0.0380 -1.6588
   10MOL0     H 1294  11.852  10.099   4.132  0.5645 -0.0342 -3.1426
   10MOL0     H 1295  11.712   9.865   4.076  0.1857  0.2912  0.7139
   10MOL0     H 1296  11.629   9.977   3.976  0.0280 -1.2516 -0.4055
   10MOL0     H 1297  11.928   9.945   3.960  1.0935 -1.0679 -1.3543
   10MOL0     H 1298  11.827  10.044   3.856  1.9285  0.2221 -0.2349
   10MOL0     H 1299  11.815   9.728   3.869 -1.4466  0.1241 -0.9618
   10MOL0     H 1300  11.695   9.833   3.800 -0.3289  0.9869 -0.6586
   10MOL0     H 1301  12.087   9.853   3.779 -3.0317 -0.6917  1.6179
   10MOL0     H 1302  12.145   9.694   3.420 -1.9390  4.3965 -0.9710
   10MOL0     H 1303  12.251   9.800   3.517 -1.6872  1.6238  2.0976
   10MOL0     H 1304  12.176   9.581   3.688  0.6638 -0.2473  0.2805
   10MOL0     H 1305  12.189   9.513   3.534  2.2071 -0.5689 -0.8910
   10MOL0     H 1306  12.421   9.690   3.644 -1.0932 -0.8600  0.5468
   10MOL0     H 1307  12.425   9.573   3.514  0.1644  1.3072 -0.3301
   10MOL0     H 1308  12.435   9.388   3.679  1.9972 -0.0494  0.6908
   10MOL0     H 1309  12.330   9.465   3.788  0.9065 -2.0687  0.7469
   10MOL0     H 1310  12.635   9.368   3.591  2.0859 -2.7831 -0.6693
   10MOL0     H 1311  12.856   9.256   3.600  0.3931  0.4841  0.8200
   10MOL0     H 1312  13.333   9.310   3.683 -0.0109 -5.4201 -1.1896
   10MOL0     H 1313  13.540   9.208   3.700  0.5433 -1.1835  0.5513
   10MOL0     H 1314  13.657   9.031   4.086 -0.4381 -1.9241  1.0732
   10MOL0     H 1315  13.634   8.879   3.999 -1.9582  0.5764  0.8434
   10MOL0     H 1316  13.854   8.905   3.895  0.6046  1.1490 -0.8260
   10MOL0     H 1317  13.865   9.071   3.924  1.4727  0.5693  3.7209
   10MOL0     H 1318  13.900   9.059   4.161 -1.4431 -2.0116  2.3838
   10MOL0     H 1319  13.869   8.882   4.161  0.9842 -0.2416  0.5185
   10MOL0     H 1320  14.093   9.031   4.008  3.3872  0.7778  2.4673
   10MOL0     H 1321  14.084   8.866   4.015 -0.1056 -0.1770  0.8412
   10MOL0     H 1322  14.137   8.871   4.275 -4.0421  2.7583  2.9938
   10MOL0     H 1323  14.091   9.039   4.273 -0.6305  0.2261 -0.0038
   10MOL0     H 1324  14.285   9.092   4.141  1.1607 -1.1060 -3.2054
   10MOL0     H 1325  14.348   9.009   4.279  3.4473  2.6616 -2.6454
   10MOL0     H 1326  14.319   8.902   3.997 -0.2589 -2.1657 -0.0419
   10MOL0     H 1327  14.340   8.801   4.144 -0.6308 -0.9609 -2.2271
   10MOL0     H 1328  14.550   8.869   4.011 -2.1568 -0.0769 -1.7685
   10MOL0     H 1329  14.520   9.031   4.075  3.6638  1.2483  5.6751
   10MOL0     H 1330  13.434   9.042   4.077  1.8402  0.0139 -0.4758
   10MOL0     H 1331  13.222   9.165   4.070 -2.5973  2.6407 -2.1813
   10MOL0     H 1332  12.954   9.489   3.949  0.8285  1.4832 -1.0617
   10MOL0     H 1333  12.729   9.580   3.942 -4.1445 -0.1897 -0.5813
   10MOL0     H 1334  11.110  10.334   4.285  0.3212 -0.8124 -0.2445
   10MOL0     H 1335  10.875  10.377   4.384 -1.4013  1.5309  3.2935
   10MOL0     H 1336  10.442  10.413   4.520 -1.1065 -0.4080 -0.9807
   10MOL0     H 1337  10.244  10.461   4.665 -1.9359 -1.7048  1.3949
   10MOL0     H 1338  10.069  10.402   4.789  4.3964  1.5844  0.0364
   10MOL0     H 1339  10.022  10.357   4.948  1.6499 -2.6365  1.8338
   10MOL0     H 1340  10.117  10.143   4.949  0.6546 -0.3611 -1.2078
   10MOL0     H 1341  10.187  10.161   4.790 -0.8384 -1.9779 -0.8245
   10MOL0     H 1342   9.958  10.174   4.692 -1.1950 -0.2571 -1.2096
   10MOL0     H 1343   9.884  10.152   4.852  0.4248 -1.3575 -0.2639
   10MOL0     H 1344   9.916   9.933   4.708  0.2708 -1.9117 -0.0044
   10MOL0     H 1345  10.087   9.943   4.747 -0.7046  0.5730 -2.6915
   10MOL0     H 1346   9.904   9.805   5.110  1.4313  0.1199  0.6986
   10MOL0     H 1347  10.445  10.291   5.001  0.1473  2.9645  1.2984
   10MOL0     H 1348  10.705  10.146   4.878 -0.3468  0.4550  0.4022
   10MOL0     H 1349  10.787  10.300   4.840  0.4364 -2.6244 -2.5291
   10MOL0     H 1350  10.694  10.275   4.995 -0.8769  1.8278 -0.1406
   11MOL0     O 1351  10.384   7.987   1.040 -0.0819 -0.2141  0.4592
   11MOL0     C 1352  10.297   7.948   1.121 -0.0281 -0.1912  0.4971
   11MOL0     O 1353  10.225   8.024   1.201 -0.4068 -0.1460 -0.0250
   11MOL0     C 1354  10.264   8.152   1.223  0.2891 -0.7395 -0.3269
   11MOL0     C 1355  10.191   8.253   1.168  0.0779 -0.5947 -0.2241
   11MOL0     C 1356  10.226   8.389   1.196  0.5219 -0.2945  0.5182
   11MOL0     C 1357  10.332   8.422   1.279  0.4996 -0.0655 -0.0812
   11MOL0     O 1358  10.367   8.549   1.313 -0.3956 -0.0748  0.0381
   11MOL0     C 1359  10.320   8.651   1.232 -0.1639 -0.2272  0.5377
   11MOL0     C 1360  10.387   8.787   1.248 -0.0573  0.1344  0.2054
   11MOL0     C 1361  10.538   8.795   1.223  1.2321  0.6363  0.4002
   11MOL0     C 1362  10.582   8.943   1.255  0.1382  0.4271 -0.3861
   11MOL0     C 1363  10.734   8.945   1.287  0.4351 -0.2165  1.3300
   11MOL0     C 1364  10.814   8.973   1.161  0.4201  0.2594  0.0108
   11MOL0     C 1365  10.962   9.012   1.198 -0.1231 -0.4206  0.8369
   11MOL0     C 1366  10.990   9.161   1.238  0.6159 -0.4066  0.4690
   11MOL0     N 1367  11.120   9.206   1.201 -0.5824  0.3313 -0.9756
   11MOL0     C 1368  11.235   9.135   1.215 -0.3753 -0.1978  0.2084
   11MOL0     C 1369  11.329   9.212   1.159 -0.7799  0.7073 -1.0258
   11MOL0     C 1370  11.469   9.168   1.129  0.2489 -0.4835 -0.0243
   11MOL0     C 1371  11.574   9.211   1.230  0.2168  0.3534 -0.1286
   11MOL0     C 1372  11.710   9.209   1.169 -0.3341  0.3615  0.4373
   11MOL0     C 1373  11.813   9.256   1.268  0.3141  0.3968  0.5463
   11MOL0     O 1374  11.834   9.139   1.354  0.0403  0.1499 -0.4688
   11MOL0     C 1375  11.962   9.134   1.413  0.0087  0.5626  0.2112
   11MOL0     C 1376  12.043   9.242   1.437 -0.1741  0.3233 -0.3770
   11MOL0     C 1377  12.176   9.218   1.481 -0.0181  0.0670  0.4454
   11MOL0     C 1378  12.227   9.081   1.516  0.1595 -0.4226 -0.1429
   11MOL0     C 1379  12.363   9.072   1.558 -0.2934  0.1280 -0.0300
   11MOL0     O 1380  12.405   8.939   1.588 -0.2640 -0.3151  0.0792
   11MOL0     C 1381  12.536   8.902   1.624  1.0890  0.4917 -0.1197
   11MOL0     C 1382  12.559   8.762   1.659 -0.6941 -0.2480 -0.1991
   11MOL0     C 1383  12.693   8.723   1.695  0.5693 -0.1805 -0.1928
   11MOL0     C 1384  12.803   8.809   1.687 -0.1343  0.0929 -0.4460
   11MOL0     O 1385  12.928   8.756   1.716  0.7212  0.8225  0.2299
   11MOL0     C 1386  13.040   8.817   1.658  0.5438 -1.0402  0.2622
   11MOL0     C 1387  13.105   8.905   1.769 -0.6602 -0.3635 -0.9062
   11MOL0     C 1388  13.250   8.936   1.730  0.2108 -0.0855 -0.1711
   11MOL0     C 1389  13.303   9.009   1.850  0.2527  0.4976  0.3332
   11MOL0     C 1390  13.441   9.062   1.804 -0.7636 -0.7266  0.0558
   11MOL0     C 1391  13.522   9.119   1.928  0.1360  0.2792  0.5992
   11MOL0     C 1392  13.622   9.219   1.885  0.3851  0.3121 -0.3417
   11MOL0     C 1393  13.719   9.262   1.987  0.3450  0.0260  0.3333
   11MOL0    Cl 1394  13.638   9.323   2.130  0.1611  0.0416 -0.1699
   11MOL0     C 1395  12.776   8.942   1.669 -0.1617 -0.0328 -0.3593
   11MOL0     C 1396  12.646   8.989   1.638 -0.2814 -0.3342 -0.1133
   11MOL0     O 1397  12.433   9.176   1.567 -0.4918  0.1348  1.4169
   11MOL0     C 1398  12.139   8.980   1.493  0.0327 -0.3153 -0.7871
   11MOL0     C 1399  12.013   9.002   1.441  0.3563  0.1490 -1.1888
   11MOL0     N 1400  11.272   9.329   1.128  0.5421  0.2032  0.3469
   11MOL0     N 1401  11.142   9.333   1.155  0.0585  0.7408  0.1965
   11MOL0     C 1402  10.411   8.320   1.342  0.1610  0.0148 -0.3524
   11MOL0     C 1403  10.374   8.186   1.307 -0.3059 -0.1155  0.1267
   11MOL0     C 1404  10.259   7.814   1.102 -0.5867 -0.6930  0.4343
   11MOL0     C 1405  10.350   7.710   1.113 -0.8294 -0.5561  1.1009
   11MOL0     C 1406  10.317   7.579   1.113  0.4363  0.2169  0.5940
   11MOL0     C 1407  10.180   7.542   1.089  0.0246  1.2706 -0.5415
   11MOL0     O 1408  10.143   7.409   1.092 -0.7312  0.4664  0.5223
   11MOL0     C 1409  10.020   7.367   1.140 -0.5955  0.5809 -0.2263
   11MOL0     C 1410  10.014   7.217   1.158  0.0381 -0.7264  0.1383
   11MOL0     C 1411  10.122   7.168   1.256 -0.1738  0.4762  0.3147
   11MOL0     C 1412  10.129   7.015   1.267  0.6133 -0.0846 -0.4660
   11MOL0     C 1413  10.264   6.960   1.273 -0.2094 -0.3441 -0.0824
   11MOL0     C 1414  10.374   6.909   1.272 -0.1174 -0.4584  0.0632
   11MOL0     C 1415  10.082   7.650   1.071 -0.2069 -0.8515  0.6539
   11MOL0     C 1416  10.123   7.783   1.081 -0.0075 -0.4483  0.4563
   11MOL0     C 1417  10.019   7.890   1.053 -0.5080  0.2869 -0.3456
   11MOL0     H 1418  10.103   8.229   1.108 -0.0728  0.4284 -0.4280
   11MOL0     H 1419  10.163   8.465   1.151  0.8454 -0.8437 -0.9143
   11MOL0     H 1420  10.332   8.631   1.125 -0.6546 -1.6017  0.7196
   11MOL0     H 1421  10.213   8.671   1.246 -0.1198  0.3558  0.0893
   11MOL0     H 1422  10.380   8.809   1.355  0.8916 -3.2481  1.0513
   11MOL0     H 1423  10.338   8.861   1.183 -1.6561 -1.0385  0.0168
   11MOL0     H 1424  10.575   8.784   1.120  0.2013  1.1285 -0.0392
   11MOL0     H 1425  10.583   8.724   1.293  0.1389 -0.7446 -0.2448
   11MOL0     H 1426  10.566   9.020   1.179 -2.0399  2.2297  1.7508
   11MOL0     H 1427  10.525   8.983   1.338  0.8482  2.0831 -0.6586
   11MOL0     H 1428  10.755   9.027   1.356  0.8686 -0.3650  1.3800
   11MOL0     H 1429  10.761   8.848   1.331  1.0042 -0.7034 -0.0496
   11MOL0     H 1430  10.815   8.877   1.110 -0.3461 -0.2384  0.9216
   11MOL0     H 1431  10.776   9.056   1.100 -0.3311 -0.3367 -0.3383
   11MOL0     H 1432  11.010   9.008   1.099 -0.4873  3.1858  0.3847
   11MOL0     H 1433  11.000   8.942   1.273  2.7337  1.1069  0.9475
   11MOL0     H 1434  10.921   9.223   1.180  0.6138  0.5175  1.4258
   11MOL0     H 1435  10.978   9.186   1.344  0.0385  0.4605  0.2110
   11MOL0     H 1436  11.248   9.037   1.260  0.0136 -0.2016  0.0885
   11MOL0     H 1437  11.475   9.063   1.097  1.5188  0.4442 -3.2932
   11MOL0     H 1438  11.500   9.222   1.039  2.3543 -0.3510  0.7415
   11MOL0     H 1439  11.547   9.309   1.270 -1.1310 -1.1233  2.8613
   11MOL0     H 1440  11.571   9.150   1.320  1.8192  0.5795  0.1104
   11MOL0     H 1441  11.712   9.274   1.081  2.3318 -1.3164 -0.9014
   11MOL0     H 1442  11.746   9.111   1.133  1.6416  1.3583 -0.5231
   11MOL0     H 1443  11.768   9.339   1.323 -0.3738 -0.0353  0.6457
   11MOL0     H 1444  11.905   9.283   1.217  0.2114 -0.4168 -0.0922
   11MOL0     H 1445  12.012   9.342   1.411  0.0784  0.1772 -1.2626
   11MOL0     H 1446  12.241   9.304   1.497  0.0040 -0.5054  4.7776
   11MOL0     H 1447  12.478   8.692   1.647 -0.7446  0.1261 -2.7994
   11MOL0     H 1448  12.716   8.622   1.726  0.5681  0.0653  0.6353
   11MOL0     H 1449  13.102   8.735   1.623 -1.1330 -2.5552  0.6973
   11MOL0     H 1450  13.011   8.883   1.575  1.3366 -0.8232  0.1522
   11MOL0     H 1451  13.039   8.988   1.797  0.3247 -0.1515  0.9072
   11MOL0     H 1452  13.096   8.845   1.861 -1.1852  0.7352 -0.2184
   11MOL0     H 1453  13.307   8.843   1.724 -1.1831 -0.9311 -0.9476
   11MOL0     H 1454  13.249   8.995   1.638  1.6254 -2.1991 -1.6450
   11MOL0     H 1455  13.312   8.941   1.935  2.1294  0.4580  0.1443
   11MOL0     H 1456  13.242   9.091   1.888 -0.5995 -0.4875  1.1494
   11MOL0     H 1457  13.434   9.151   1.741 -2.1266 -1.0781 -0.3251
   11MOL0     H 1458  13.502   8.986   1.754  1.8412  0.3380  1.4178
   11MOL0     H 1459  13.466   9.155   2.015 -0.6907 -3.0693  1.6146
   11MOL0     H 1460  13.575   9.036   1.976  0.7720  0.0609 -0.4464
   11MOL0     H 1461  13.571   9.307   1.844 -1.3772 -0.9720 -1.0486
   11MOL0     H 1462  13.678   9.170   1.804  0.8422 -3.5166  2.0480
   11MOL0     H 1463  13.778   9.174   2.014 -1.4218 -1.0491  0.8413
   11MOL0     H 1464  13.777   9.347   1.951 -1.6468  1.2364 -0.1218
   11MOL0     H 1465  12.859   9.011   1.674  0.1373 -0.2299 -2.0695
   11MOL0     H 1466  12.643   9.094   1.610  1.1864 -0.4204 -0.6741
   11MOL0     H 1467  12.161   8.876   1.516  1.3943  0.5878  2.7145
   11MOL0     H 1468  11.941   8.921   1.442 -1.6171  1.8160 -0.5757
   11MOL0     H 1469  10.493   8.338   1.410 -0.8817 -1.9390  1.5103
   11MOL0     H 1470  10.425   8.102   1.352  0.4533  0.7079  0.8426
   11MOL0     H 1471  10.456   7.732   1.117 -0.4416 -1.3137 -1.9719
   11MOL0     H 1472  10.393   7.501   1.115 -0.2792 -0.4658  2.3818
   11MOL0     H 1473   9.944   7.386   1.064 -3.6749 -0.5794  2.2963
   11MOL0     H 1474   9.988   7.415   1.233  1.3452 -0.1912  0.9067
   11MOL0     H 1475  10.029   7.169   1.060 -2.9532 -0.3745 -0.6020
   11MOL0     H 1476   9.910   7.191   1.177 -0.3998 -0.9913 -2.2111
   11MOL0     H 1477  10.118   7.197   1.361  2.6045 -2.5433  1.4316
   11MOL0     H 1478  10.222   7.194   1.222 -1.4465  1.0787 -3.4162
   11MOL0     H 1479  10.075   6.986   1.358  1.1785 -0.6806 -0.3137
   11MOL0     H 1480  10.068   6.963   1.193 -1.6765  0.7558  0.7063
   11MOL0     H 1481  10.462   6.850   1.284  0.3732 -0.1510 -1.6841
   11MOL0     H 1482   9.975   7.641   1.059 -0.5407  3.6781 -2.0914
   11MOL0     H 1483   9.929   7.850   1.005 -0.8763 -3.0881  2.7187
   11MOL0     H 1484   9.987   7.946   1.142 -0.3122  2.0734 -1.3674
   11MOL0     H 1485  10.060   7.961   0.981  0.7983  0.1104  0.1993
   12MOL0     O 1486   6.419   9.246   4.892  0.8139 -0.2491  0.1042
   12MOL0     C 1487   6.376   9.322   4.808 -0.1826 -0.8193 -0.2733
   12MOL0     O 1488   6.449   9.389   4.720 -0.1230 -0.3126 -0.1198
   12MOL0     C 1489   6.581   9.356   4.690 -0.6534  0.5972 -0.0464
   12MOL0     C 1490   6.653   9.464   4.655  0.2436 -0.4322  0.2688
   12MOL0     C 1491   6.782   9.443   4.610 -0.0699 -0.2299 -0.2190
   12MOL0     C 1492   6.840   9.317   4.606 -0.0135  0.4314  0.4621
   12MOL0     O 1493   6.974   9.313   4.585 -0.6945  0.3674 -0.0052
   12MOL0     C 1494   7.043   9.186   4.565  0.5845  0.5736  0.1518
   12MOL0     C 1495   7.114   9.135   4.697 -0.0043 -0.5287  0.0829
   12MOL0     C 1496   7.238   9.215   4.745 -0.3124 -0.3738  0.2181
   12MOL0     C 1497   7.322   9.132   4.858  0.0202  1.1615  0.6206
   12MOL0     C 1498   7.435   9.211   4.920  0.4109  0.2833 -0.2886
   12MOL0     C 1499   7.519   9.137   5.017 -0.3709  0.2514 -0.6854
   12MOL0     C 1500   7.628   9.219   5.073 -0.9297 -0.7960 -0.7132
   12MOL0     C 1501   7.730   9.127   5.144 -0.3540 -1.3398  0.4641
   12MOL0     N 1502   7.825   9.211   5.218 -0.5487  0.1527  0.3148
   12MOL0     C 1503   7.905   9.316   5.166  0.2328 -0.0443 -0.2106
   12MOL0     C 1504   7.947   9.380   5.287 -0.6447 -0.5180  0.4270
   12MOL0     C 1505   8.048   9.499   5.292 -0.2115  0.4308  0.0312
   12MOL0     C 1506   7.973   9.620   5.237  0.3414 -0.6858  0.6700
   12MOL0     C 1507   8.036   9.757   5.263  0.5956 -0.5618  0.2049
   12MOL0     C 1508   8.029   9.791   5.414 -0.7614 -0.4653  0.3897
   12MOL0     O 1509   8.122   9.728   5.511  0.3674  0.1410  0.4067
   12MOL0     C 1510   8.256   9.748   5.497  0.0587 -0.4567 -0.0339
   12MOL0     C 1511   8.318   9.848   5.421 -0.4559 -1.0342  0.0932
   12MOL0     C 1512   8.460   9.853   5.419  0.4126  0.0153  1.0785
   12MOL0     C 1513   8.541   9.768   5.504  0.3694  0.3814 -0.9261
   12MOL0     C 1514   8.683   9.776   5.506 -0.4247  0.2735 -0.0021
   12MOL0     O 1515   8.748   9.667   5.554 -0.0464 -0.5669 -0.9199
   12MOL0     C 1516   8.877   9.640   5.528  0.3955 -0.3144  0.9263
   12MOL0     C 1517   8.918   9.504   5.542  0.1947  0.3439 -0.3283
   12MOL0     C 1518   9.057   9.471   5.536  0.6050 -0.7506 -0.2350
   12MOL0     C 1519   9.151   9.572   5.511 -1.0299  0.0187 -0.3470
   12MOL0     O 1520   9.277   9.529   5.475 -0.5913  0.1557  0.6321
   12MOL0     C 1521   9.360   9.619   5.398  0.1343  0.4902  0.1867
   12MOL0     C 1522   9.471   9.549   5.317 -0.5057  0.0117 -0.1247
   12MOL0     C 1523   9.563   9.466   5.405  0.0625  1.1970  0.9387
   12MOL0     C 1524   9.620   9.343   5.324  0.0321  0.4270 -0.0395
   12MOL0     C 1525   9.733   9.276   5.396  0.7635  0.2690  0.2403
   12MOL0     C 1526   9.784   9.150   5.330 -0.0772  0.7558  0.0602
   12MOL0     C 1527   9.700   9.019   5.346 -0.3949 -0.4330  0.4344
   12MOL0     C 1528   9.741   8.926   5.235  0.0743  0.6101 -0.3766
   12MOL0    Cl 1529   9.908   8.874   5.263  0.2109  0.4097  0.1177
   12MOL0     C 1530   9.109   9.707   5.503  0.1525  0.4245  0.9190
   12MOL0     C 1531   8.976   9.745   5.503  0.0845  1.4297  0.2502
   12MOL0     O 1532   8.728   9.862   5.436  0.0843  0.1363  0.0779
   12MOL0     C 1533   8.476   9.680   5.589 -0.8660 -0.6147  0.1329
   12MOL0     C 1534   8.338   9.662   5.583  0.7479 -0.3178  0.8197
   12MOL0     N 1535   7.896   9.314   5.390  0.3843 -0.0339 -0.6086
   12MOL0     N 1536   7.822   9.220   5.356  0.4193 -0.1470 -0.2783
   12MOL0     C 1537   6.767   9.210   4.649  0.0184  0.6909 -0.3477
   12MOL0     C 1538   6.638   9.225   4.695 -0.3295 -0.2208  0.1770
   12MOL0     C 1539   6.221   9.349   4.802 -0.6464 -0.0228  0.3955
   12MOL0     C 1540   6.168   9.402   4.685 -0.8913 -0.2740  0.8489
   12MOL0     C 1541   6.029   9.417   4.667  0.0517 -0.1198  0.6013
   12MOL0     C 1542   5.935   9.384   4.764 -0.1405 -0.0556 -0.8272
   12MOL0     O 1543   5.796   9.391   4.747  0.0976 -0.0313  0.1882
   12MOL0     C 1544   5.738   9.433   4.618  0.0310 -0.7438 -0.7693
   12MOL0     C 1545   5.592   9.480   4.647 -0.3877 -0.0821 -0.0429
   12MOL0     C 1546   5.527   9.525   4.515 -0.1581 -0.4489 -0.6372
   12MOL0     C 1547   5.389   9.592   4.551 -0.1394 -0.8563  0.0818
   12MOL0     C 1548   5.302   9.496   4.604  0.7828  0.3222  0.7290
   12MOL0     C 1549   5.229   9.411   4.644  0.1780  0.2723 -0.1488
   12MOL0     C 1550   5.986   9.345   4.883 -0.2204 -0.1291 -0.1212
   12MOL0     C 1551   6.128   9.316   4.900  0.2543  0.2203  0.1093
   12MOL0     C 1552   6.159   9.239   5.024  0.4645 -0.0751 -1.1489
   12MOL0     H 1553   6.609   9.560   4.680 -0.6255 -0.6265 -0.4753
   12MOL0     H 1554   6.839   9.532   4.588 -0.3614  0.4664  1.6564
   12MOL0     H 1555   6.979   9.111   4.517  2.8680 -0.8781 -0.8177
   12MOL0     H 1556   7.122   9.204   4.492 -0.6803  0.0202 -1.4093
   12MOL0     H 1557   7.137   9.031   4.677  1.6919 -0.0513 -0.5926
   12MOL0     H 1558   7.034   9.143   4.771  0.4913  0.3592  0.5376
   12MOL0     H 1559   7.204   9.306   4.794 -0.5043 -1.7845  2.9192
   12MOL0     H 1560   7.302   9.226   4.658 -0.4531  2.0161  0.3543
   12MOL0     H 1561   7.256   9.098   4.937 -1.9131  0.2392 -1.2936
   12MOL0     H 1562   7.374   9.046   4.815  0.7182  1.5488  0.6673
   12MOL0     H 1563   7.501   9.246   4.840  1.3758  0.6701  0.6489
   12MOL0     H 1564   7.390   9.301   4.963  1.0664  0.7705 -0.6015
   12MOL0     H 1565   7.456   9.099   5.098  1.3786  1.7516  1.5158
   12MOL0     H 1566   7.560   9.049   4.967 -2.3990 -1.8367  1.0938
   12MOL0     H 1567   7.595   9.296   5.143  2.6957 -0.2177  0.5833
   12MOL0     H 1568   7.672   9.277   4.991  0.7767  0.6983  1.1348
   12MOL0     H 1569   7.672   9.061   5.210  0.3773  0.0871  2.6229
   12MOL0     H 1570   7.786   9.077   5.064  0.0161  0.0440 -0.1728
   12MOL0     H 1571   7.926   9.343   5.063  1.0404  1.2876  0.2635
   12MOL0     H 1572   8.064   9.525   5.397 -1.6380 -0.6080  0.5303
   12MOL0     H 1573   8.143   9.486   5.239 -0.0028  3.1638 -0.4475
   12MOL0     H 1574   7.969   9.611   5.128  0.2426 -1.1516  0.7105
   12MOL0     H 1575   7.872   9.622   5.278  0.2873 -1.5957  0.5877
   12MOL0     H 1576   7.976   9.831   5.210 -0.9155 -2.0957 -0.3286
   12MOL0     H 1577   8.137   9.777   5.225  1.4606 -2.6645  1.2522
   12MOL0     H 1578   7.929   9.767   5.452 -0.5654 -0.1549  1.1141
   12MOL0     H 1579   8.032   9.900   5.416  1.4982 -0.4843  0.1774
   12MOL0     H 1580   8.263   9.923   5.364  0.0781 -1.2341 -0.6954
   12MOL0     H 1581   8.507   9.935   5.365  1.8465 -1.9394 -0.8418
   12MOL0     H 1582   8.849   9.420   5.544  2.5259 -1.9046 -3.4411
   12MOL0     H 1583   9.090   9.367   5.532  0.7591 -0.7045 -0.1880
   12MOL0     H 1584   9.295   9.678   5.333 -0.2674  0.7576  0.8181
   12MOL0     H 1585   9.410   9.690   5.465  2.1232 -0.2842 -0.4102
   12MOL0     H 1586   9.416   9.480   5.253  0.3070 -2.0885  1.3306
   12MOL0     H 1587   9.530   9.620   5.259 -1.5806  1.3711  0.3773
   12MOL0     H 1588   9.649   9.521   5.444 -0.0617  0.4541  2.3360
   12MOL0     H 1589   9.507   9.417   5.486  0.6936  1.3451  1.4739
   12MOL0     H 1590   9.670   9.378   5.233  1.0097 -0.2580  0.2212
   12MOL0     H 1591   9.536   9.277   5.299  0.3235 -1.1601  2.8096
   12MOL0     H 1592   9.697   9.247   5.495  0.4703 -1.2347 -0.2828
   12MOL0     H 1593   9.815   9.349   5.401  0.2332  1.1873 -2.6255
   12MOL0     H 1594   9.803   9.169   5.224 -0.2877  0.8461  0.0377
   12MOL0     H 1595   9.883   9.131   5.372  0.7794  2.8173 -0.8928
   12MOL0     H 1596   9.594   9.044   5.341  0.0388  1.7028  0.8381
   12MOL0     H 1597   9.725   8.983   5.446  0.6928  0.1628  0.3987
   12MOL0     H 1598   9.673   8.841   5.231  3.2145 -2.1429  0.3478
   12MOL0     H 1599   9.729   8.979   5.140  0.4604 -0.0341 -0.7878
   12MOL0     H 1600   9.190   9.779   5.502 -0.2926  0.9479  1.5590
   12MOL0     H 1601   8.952   9.851   5.499 -1.5048  1.2928  3.1574
   12MOL0     H 1602   8.535   9.627   5.664  2.0838  1.0934 -0.8192
   12MOL0     H 1603   8.284   9.601   5.655 -0.1223  0.9798  1.3050
   12MOL0     H 1604   6.813   9.114   4.666 -0.1401  0.6430 -0.1922
   12MOL0     H 1605   6.584   9.140   4.735  1.3210 -0.1908  2.5991
   12MOL0     H 1606   6.228   9.426   4.599  0.1103 -1.9993  1.0268
   12MOL0     H 1607   5.999   9.445   4.567 -2.0126  1.4545  1.5719
   12MOL0     H 1608   5.723   9.348   4.551  0.2042 -1.6139  0.2494
   12MOL0     H 1609   5.796   9.515   4.576 -0.8271 -0.1265 -0.7753
   12MOL0     H 1610   5.606   9.564   4.716  2.2842 -0.4277 -0.0745
   12MOL0     H 1611   5.530   9.399   4.687 -1.8865  1.8864  1.8454
   12MOL0     H 1612   5.503   9.439   4.452 -1.4369 -1.1858  0.8070
   12MOL0     H 1613   5.591   9.591   4.455  1.6024 -0.3581  1.2390
   12MOL0     H 1614   5.413   9.661   4.633 -2.2362 -2.9173  2.5900
   12MOL0     H 1615   5.352   9.643   4.462  0.9337 -0.6678 -0.2761
   12MOL0     H 1616   5.167   9.332   4.682 -1.0704  0.0202 -2.5325
   12MOL0     H 1617   5.909   9.319   4.955 -1.1804  1.6464 -0.4541
   12MOL0     H 1618   6.066   9.213   5.076  0.1969  0.5795 -1.2857
   12MOL0     H 1619   6.206   9.142   5.008  2.1395  0.3418  0.9453
   12MOL0     H 1620   6.220   9.301   5.090  0.2453 -1.0719  0.0229
   13MOL0     O 1621   7.478   0.730   4.645 -0.3030 -0.3637 -0.4614
   13MOL0     C 1622   7.519   0.790   4.742  0.0536 -0.0017 -0.8188
   13MOL0     O 1623   7.649   0.834   4.759 -0.1457  0.6485 -0.5655
   13MOL0     C 1624   7.738   0.798   4.659 -0.5099  0.0672  0.2953
   13MOL0     C 1625   7.790   0.897   4.581 -0.2816 -0.1011 -0.3776
   13MOL0     C 1626   7.895   0.872   4.490  0.3092  0.5721 -0.6264
   13MOL0     C 1627   7.950   0.737   4.486 -0.4404 -0.7760  0.7756
   13MOL0     O 1628   8.070   0.715   4.427 -0.1389  0.3533 -0.3367
   13MOL0     C 1629   8.108   0.795   4.315  0.0962 -0.5625 -0.9126
   13MOL0     C 1630   8.212   0.731   4.221 -1.1535 -0.0447  0.0692
   13MOL0     C 1631   8.347   0.694   4.286 -0.6028 -0.3936  0.8732
   13MOL0     C 1632   8.438   0.630   4.175 -0.1248  0.0156 -0.0947
   13MOL0     C 1633   8.565   0.566   4.234 -0.0121 -1.4673  0.7668
   13MOL0     C 1634   8.664   0.677   4.277 -0.4024  1.1597 -0.0564
   13MOL0     C 1635   8.788   0.609   4.348  0.1408 -0.1197  1.2115
   13MOL0     C 1636   8.883   0.706   4.409 -0.2171 -0.0754  0.5132
   13MOL0     N 1637   9.007   0.649   4.466  0.0292  0.1671 -0.2422
   13MOL0     C 1638   9.103   0.581   4.392  0.3548  0.1878 -1.3559
   13MOL0     C 1639   9.191   0.547   4.496 -0.3170 -0.0523 -0.1942
   13MOL0     C 1640   9.340   0.494   4.476 -0.1917 -0.5960  0.8456
   13MOL0     C 1641   9.399   0.459   4.613  0.0178  0.2185  0.0826
   13MOL0     C 1642   9.528   0.375   4.586  0.1342 -0.5836 -0.4855
   13MOL0     C 1643   9.627   0.382   4.700 -0.6372 -0.2101  0.2861
   13MOL0     O 1644   9.722   0.274   4.679 -0.8146 -0.2945 -0.9590
   13MOL0     C 1645   9.853   0.298   4.647 -0.0386 -0.2036  0.4762
   13MOL0     C 1646   9.951   0.212   4.698 -0.4548 -0.3119  0.4930
   13MOL0     C 1647  10.085   0.223   4.655  0.4492  0.9693  1.0013
   13MOL0     C 1648  10.120   0.322   4.552  0.1919  0.0532 -0.4327
   13MOL0     C 1649  10.255   0.332   4.494  0.3324  0.3082  0.1880
   13MOL0     O 1650  10.256   0.392   4.370 -0.7547 -0.2402 -0.0768
   13MOL0     C 1651  10.374   0.381   4.294  0.2290 -0.0336 -0.4123
   13MOL0     C 1652  10.476   0.469   4.321 -0.2639  0.8677  0.2340
   13MOL0     C 1653  10.585   0.473   4.235 -0.0132 -0.9734 -0.3621
   13MOL0     C 1654  10.605   0.388   4.133 -0.1105 -0.4886  0.2590
   13MOL0     O 1655  10.706   0.400   4.036 -0.2932  0.3414  0.0440
   13MOL0     C 1656  10.829   0.441   4.090 -0.6198 -0.1875  0.5437
   13MOL0     C 1657  10.938   0.403   3.996  0.2111 -1.0781 -0.6128
   13MOL0     C 1658  11.073   0.445   4.057  0.4693  0.0866  0.2769
   13MOL0     C 1659  11.184   0.419   3.954 -1.2041  0.3586 -0.2899
   13MOL0     C 1660  11.314   0.459   4.000 -0.2958  0.5283  0.5523
   13MOL0     C 1661  11.414   0.410   3.897  0.5259 -0.1924 -0.2708
   13MOL0     C 1662  11.550   0.500   3.903  0.0355  1.4228  0.3561
   13MOL0     C 1663  11.661   0.448   3.802  0.5367 -0.4151  0.6617
   13MOL0    Cl 1664  11.793   0.562   3.765  0.1791 -0.6476 -0.0681
   13MOL0     C 1665  10.501   0.299   4.109 -0.9589 -1.0149  0.6784
   13MOL0     C 1666  10.382   0.300   4.186  0.0855  0.1499 -0.0350
   13MOL0     O 1667  10.356   0.272   4.545  0.1047 -0.8153  0.4102
   13MOL0     C 1668  10.026   0.408   4.515  0.2127 -1.0715  0.5590
   13MOL0     C 1669   9.893   0.404   4.560 -0.1074  0.0363 -0.7856
   13MOL0     N 1670   9.139   0.579   4.616 -0.5964 -1.0977  0.2292
   13MOL0     N 1671   9.030   0.657   4.596 -0.0678  0.9341 -0.4868
   13MOL0     C 1672   7.892   0.644   4.574 -0.2644  0.1310 -0.0281
   13MOL0     C 1673   7.792   0.673   4.657  0.4844  0.1048 -0.0519
   13MOL0     C 1674   7.421   0.819   4.852 -1.0264 -0.3774 -0.6787
   13MOL0     C 1675   7.482   0.845   4.975 -0.0948 -0.7426  0.6897
   13MOL0     C 1676   7.408   0.886   5.080  0.3293 -0.4498 -0.2416
   13MOL0     C 1677   7.265   0.893   5.071 -0.9208 -0.1745 -0.0496
   13MOL0     O 1678   7.201   0.934   5.187 -0.0157  0.2750 -0.1943
   13MOL0     C 1679   7.166   0.828   5.289 -1.0146 -0.4012  0.6924
   13MOL0     C 1680   7.048   0.754   5.235  0.6528 -0.3412 -0.1527
   13MOL0     C 1681   6.914   0.834   5.225  0.9794  0.4385  0.0774
   13MOL0     C 1682   6.835   0.842   5.359 -0.0939  0.0589  0.1476
   13MOL0     C 1683   6.899   0.911   5.470 -0.0176 -0.1996  0.8104
   13MOL0     C 1684   6.946   0.956   5.571  0.9579 -0.2558  0.1784
   13MOL0     C 1685   7.203   0.862   4.949  0.0708  0.3034  0.4117
   13MOL0     C 1686   7.284   0.822   4.845  0.6495 -0.0824  1.0077
   13MOL0     C 1687   7.204   0.781   4.721  0.3705  0.4459  0.5732
   13MOL0     H 1688   7.735   0.990   4.586 -0.6896 -0.0958 -3.3330
   13MOL0     H 1689   7.933   0.956   4.431  1.8088  0.3834  0.0239
   13MOL0     H 1690   8.018   0.817   4.257  0.6504  1.2454 -1.1494
   13MOL0     H 1691   8.150   0.892   4.343 -2.7271  0.6678 -0.6691
   13MOL0     H 1692   8.224   0.795   4.133 -1.6322  0.3677  0.3028
   13MOL0     H 1693   8.167   0.642   4.176 -0.5440  1.0043 -2.9012
   13MOL0     H 1694   8.322   0.619   4.362 -1.8525  1.5123  2.4476
   13MOL0     H 1695   8.390   0.777   4.342 -0.2836 -1.6473  2.5612
   13MOL0     H 1696   8.397   0.545   4.119  2.5982 -0.0802 -2.2296
   13MOL0     H 1697   8.460   0.709   4.103 -0.5309  1.0175  0.8643
   13MOL0     H 1698   8.540   0.517   4.329 -2.4657 -1.8336  0.0016
   13MOL0     H 1699   8.608   0.498   4.161  1.5203  2.4553 -2.3425
   13MOL0     H 1700   8.709   0.734   4.195  2.5810 -0.0322  0.6213
   13MOL0     H 1701   8.619   0.742   4.353  1.6604  0.1905  2.1209
   13MOL0     H 1702   8.828   0.547   4.268 -0.6183 -0.0484  0.7698
   13MOL0     H 1703   8.756   0.540   4.426 -0.8572 -2.3362 -1.0293
   13MOL0     H 1704   8.899   0.789   4.339 -1.7736  0.2288  0.4701
   13MOL0     H 1705   8.827   0.742   4.496  0.0189 -1.2999  1.1803
   13MOL0     H 1706   9.107   0.573   4.284  0.7138  0.8450 -1.4018
   13MOL0     H 1707   9.350   0.409   4.408 -1.2446  0.9972 -1.4290
   13MOL0     H 1708   9.394   0.578   4.430  2.1698 -3.0385 -1.1603
   13MOL0     H 1709   9.414   0.544   4.680 -1.6632 -0.4952  1.4472
   13MOL0     H 1710   9.326   0.404   4.673  1.0550  1.8768  3.0219
   13MOL0     H 1711   9.577   0.418   4.499 -1.1810  1.6225 -0.2227
   13MOL0     H 1712   9.500   0.270   4.572  1.7219 -1.2182  0.7145
   13MOL0     H 1713   9.587   0.344   4.795 -0.3880 -0.5732  0.2503
   13MOL0     H 1714   9.675   0.480   4.708  2.4347 -1.3034 -2.4386
   13MOL0     H 1715   9.931   0.130   4.766  0.3196 -0.6555  0.3191
   13MOL0     H 1716  10.163   0.157   4.691  2.1070  1.0861 -1.9898
   13MOL0     H 1717  10.473   0.533   4.409  2.8900 -1.8296  2.5545
   13MOL0     H 1718  10.665   0.543   4.259 -1.7260  1.8213 -2.3262
   13MOL0     H 1719  10.833   0.549   4.108 -0.0717  0.3330 -2.2708
   13MOL0     H 1720  10.849   0.380   4.179  0.0736  0.8293  1.1013
   13MOL0     H 1721  10.937   0.295   3.979  1.1212 -0.9295 -1.7571
   13MOL0     H 1722  10.921   0.455   3.901 -0.7646 -0.9043 -0.3488
   13MOL0     H 1723  11.081   0.551   4.083 -0.6941  0.5604 -1.1809
   13MOL0     H 1724  11.095   0.389   4.148 -1.7273 -0.9399  0.2130
   13MOL0     H 1725  11.156   0.476   3.864 -0.8244  2.2782  0.7515
   13MOL0     H 1726  11.186   0.312   3.933 -1.3358  0.5524 -1.3842
   13MOL0     H 1727  11.336   0.409   4.095 -1.9947 -1.8575 -0.2150
   13MOL0     H 1728  11.309   0.566   4.023  1.1767  0.8685 -0.5428
   13MOL0     H 1729  11.430   0.307   3.928 -1.1057  0.5660  3.6128
   13MOL0     H 1730  11.387   0.424   3.792 -0.5418  0.2845  0.0459
   13MOL0     H 1731  11.586   0.490   4.006  0.7294  1.3143  0.1084
   13MOL0     H 1732  11.515   0.601   3.881 -1.3788  0.5288 -1.7768
   13MOL0     H 1733  11.691   0.347   3.834 -0.5284 -1.1960 -0.7055
   13MOL0     H 1734  11.617   0.432   3.704 -0.4677  1.0176  0.8452
   13MOL0     H 1735  10.501   0.233   4.022  0.8267  0.6420 -0.6727
   13MOL0     H 1736  10.296   0.240   4.157  0.6389  0.2856 -2.0952
   13MOL0     H 1737  10.051   0.489   4.446 -1.4487 -2.1283 -1.3707
   13MOL0     H 1738   9.816   0.472   4.523 -1.8115  0.2556  2.7556
   13MOL0     H 1739   7.946   0.550   4.581  1.3201  0.7225 -2.7971
   13MOL0     H 1740   7.775   0.593   4.729 -0.0166  1.8747  1.8701
   13MOL0     H 1741   7.590   0.832   4.976  0.1104  0.6217 -0.5636
   13MOL0     H 1742   7.457   0.916   5.172 -0.8850 -0.0803  0.3092
   13MOL0     H 1743   7.138   0.875   5.384  1.3839  2.3887  0.1717
   13MOL0     H 1744   7.247   0.756   5.305  1.0763  1.9921  1.6157
   13MOL0     H 1745   7.026   0.658   5.283  1.4164  0.0881  1.0998
   13MOL0     H 1746   7.072   0.724   5.132  1.4133 -1.6118  0.3761
   13MOL0     H 1747   6.851   0.794   5.145 -0.8064  1.1575  1.0695
   13MOL0     H 1748   6.940   0.932   5.184  2.2968 -0.5361 -1.5615
   13MOL0     H 1749   6.744   0.900   5.340  0.1782  0.7526  0.9063
   13MOL0     H 1750   6.805   0.742   5.391 -1.8478  0.2960 -0.6184
   13MOL0     H 1751   6.986   1.005   5.658 -1.1114  0.8542  0.5679
   13MOL0     H 1752   7.097   0.861   4.926  0.0979 -0.2757  0.2898
   13MOL0     H 1753   7.212   0.674   4.701  1.2002  0.9775 -2.5553
   13MOL0     H 1754   7.100   0.813   4.724  0.3882  0.8521 -1.3909
   13MOL0     H 1755   7.250   0.830   4.635  1.0831 -0.1391  0.6127
   14MOL0     O 1756   2.089   7.316   0.999  0.2516 -0.1880 -0.2191
   14MOL0     C 1757   2.079   7.222   1.074 -0.0994  0.0947 -0.4662
   14MOL0     O 1758   2.190   7.160   1.129  0.3198  0.4847  0.1070
   14MOL0     C 1759   2.310   7.172   1.066 -0.0820 -0.0253  0.0725
   14MOL0     C 1760   2.379   7.068   1.001 -0.2877 -0.1400  0.4633
   14MOL0     C 1761   2.509   7.087   0.960  0.0826 -0.6208  0.6201
   14MOL0     C 1762   2.571   7.217   0.973 -0.3582 -0.5831  0.1551
   14MOL0     O 1763   2.702   7.235   0.934  1.0142 -0.5966  0.2287
   14MOL0     C 1764   2.802   7.156   1.005 -0.0976  0.4450 -0.0665
   14MOL0     C 1765   2.924   7.117   0.924  0.8412 -0.1065 -0.0556
   14MOL0     C 1766   3.040   7.089   1.016  0.5920 -0.1679  0.8802
   14MOL0     C 1767   3.168   7.067   0.936  0.2616 -0.1355  0.0562
   14MOL0     C 1768   3.290   7.066   1.032 -0.0895 -0.5642 -0.8960
   14MOL0     C 1769   3.400   6.967   0.986  0.3086 -0.6377 -0.4244
   14MOL0     C 1770   3.468   7.005   0.860  0.7875 -0.7733  0.2871
   14MOL0     C 1771   3.596   6.921   0.841  0.2373 -0.2423 -0.2815
   14MOL0     N 1772   3.718   6.963   0.922  0.0590 -0.0057 -0.3535
   14MOL0     C 1773   3.748   7.093   0.949 -0.4026 -0.7494 -0.2220
   14MOL0     C 1774   3.864   7.096   1.021  0.2714  0.3328 -0.8247
   14MOL0     C 1775   3.940   7.215   1.069 -0.3412 -0.2171 -0.0378
   14MOL0     C 1776   4.057   7.249   0.977  0.3301 -0.5024 -0.7652
   14MOL0     C 1777   4.135   7.368   1.042  0.1220  0.5065  0.4954
   14MOL0     C 1778   4.281   7.369   1.009 -0.1569  0.0023 -0.3989
   14MOL0     O 1779   4.292   7.382   0.867  0.0119  0.0561 -0.2619
   14MOL0     C 1780   4.412   7.407   0.811 -0.1108 -0.6663 -0.0020
   14MOL0     C 1781   4.534   7.439   0.875  0.1005  0.5700 -0.7441
   14MOL0     C 1782   4.656   7.448   0.817 -1.0193  0.5595  0.0793
   14MOL0     C 1783   4.669   7.416   0.679  1.0694 -0.9135 -0.4948
   14MOL0     C 1784   4.804   7.410   0.612 -0.3484 -0.1953  0.4861
   14MOL0     O 1785   4.906   7.422   0.711 -0.2086  0.6731  0.8920
   14MOL0     C 1786   5.028   7.377   0.664  0.1633 -0.4990  0.9057
   14MOL0     C 1787   5.063   7.244   0.635 -0.0585  0.1397  0.6154
   14MOL0     C 1788   5.191   7.217   0.577  0.3442  0.0645  0.2485
   14MOL0     C 1789   5.288   7.323   0.555  0.2789  0.1829  0.2635
   14MOL0     O 1790   5.415   7.278   0.514 -0.0933  0.0053 -0.3993
   14MOL0     C 1791   5.518   7.380   0.491  0.0536  0.0404 -0.0626
   14MOL0     C 1792   5.645   7.303   0.468  0.4415  0.1893  0.1866
   14MOL0     C 1793   5.646   7.219   0.342  0.2543 -0.5794  0.2121
   14MOL0     C 1794   5.756   7.120   0.337 -0.0444  0.5705  0.4609
   14MOL0     C 1795   5.895   7.193   0.304 -0.0699 -0.0848  0.3497
   14MOL0     C 1796   6.012   7.094   0.310 -1.7988 -0.0503 -0.7287
   14MOL0     C 1797   6.140   7.163   0.257  0.7085  0.3219  0.8472
   14MOL0     C 1798   6.166   7.121   0.120  0.1340 -1.1298  0.4025
   14MOL0    Cl 1799   6.330   7.175   0.063 -0.0247 -0.3436  0.0615
   14MOL0     C 1800   5.252   7.456   0.583 -0.0168  0.2519 -0.1420
   14MOL0     C 1801   5.122   7.479   0.635  0.8696  0.5325  0.3116
   14MOL0     O 1802   4.816   7.372   0.496 -0.1340 -0.0019 -0.2286
   14MOL0     C 1803   4.539   7.395   0.612 -0.1354 -0.7468  0.1874
   14MOL0     C 1804   4.423   7.385   0.678 -0.2985  0.0378  0.5235
   14MOL0     N 1805   3.907   6.965   1.040  0.1166 -0.4371 -0.1134
   14MOL0     N 1806   3.812   6.887   0.987 -0.2721  0.6316  0.5543
   14MOL0     C 1807   2.500   7.324   1.033 -0.2374 -0.7712 -0.4513
   14MOL0     C 1808   2.372   7.296   1.087 -0.3374  0.0007 -0.8828
   14MOL0     C 1809   1.947   7.164   1.112 -0.0103  0.1169 -0.4072
   14MOL0     C 1810   1.946   7.045   1.185 -0.3359  0.0157  0.6947
   14MOL0     C 1811   1.830   6.973   1.216  0.4975  0.4312  0.2459
   14MOL0     C 1812   1.701   7.017   1.180 -0.4071 -0.0027  0.8011
   14MOL0     O 1813   1.579   6.950   1.189  0.3566  0.7970 -0.1523
   14MOL0     C 1814   1.590   6.811   1.194 -0.5542 -0.0312  0.3734
   14MOL0     C 1815   1.452   6.750   1.185 -0.6414  0.7485 -0.4081
   14MOL0     C 1816   1.373   6.797   1.059 -0.0389  0.5839 -0.7880
   14MOL0     C 1817   1.236   6.735   1.067 -0.3530 -1.0680 -0.2969
   14MOL0     C 1818   1.248   6.608   0.997 -0.1174 -0.4061  1.3429
   14MOL0     C 1819   1.228   6.509   0.932  0.0789  0.1772  0.9966
   14MOL0     C 1820   1.704   7.136   1.095  0.2705 -0.2026  0.1929
   14MOL0     C 1821   1.821   7.214   1.065  0.4259 -0.5795 -0.3297
   14MOL0     C 1822   1.796   7.338   0.981 -0.1924 -0.0984 -0.4667
   14MOL0     H 1823   2.319   6.985   0.965  2.7387 -0.5494 -4.4991
   14MOL0     H 1824   2.562   7.013   0.901 -0.5061  0.6443 -1.6011
   14MOL0     H 1825   2.815   7.220   1.092 -0.2241  2.3475 -1.3914
   14MOL0     H 1826   2.764   7.060   1.042  3.4412 -0.5032  1.5684
   14MOL0     H 1827   2.945   7.197   0.851 -0.9274  0.4881  0.0283
   14MOL0     H 1828   2.909   7.027   0.863 -0.5367 -2.2121  3.1341
   14MOL0     H 1829   3.021   6.998   1.074 -1.2330 -0.6598 -0.3851
   14MOL0     H 1830   3.050   7.172   1.087 -1.2200  2.2951 -1.4988
   14MOL0     H 1831   3.166   6.974   0.879 -1.5046 -1.6535  2.3938
   14MOL0     H 1832   3.173   7.148   0.863 -0.9670  0.1197  0.2377
   14MOL0     H 1833   3.324   7.170   1.039 -1.6479 -0.1308  1.0931
   14MOL0     H 1834   3.257   7.043   1.134  1.4226 -1.1124 -0.5018
   14MOL0     H 1835   3.464   6.973   1.074 -1.2744  2.2491  0.7036
   14MOL0     H 1836   3.357   6.868   0.972  1.2386 -1.1019 -0.0434
   14MOL0     H 1837   3.496   7.110   0.845 -0.9650 -0.6050 -2.4779
   14MOL0     H 1838   3.407   6.971   0.776  2.1423  3.1760 -2.6037
   14MOL0     H 1839   3.580   6.814   0.856  1.6814 -0.9618 -3.1356
   14MOL0     H 1840   3.611   6.926   0.733 -0.3660  0.5053 -0.3403
   14MOL0     H 1841   3.695   7.184   0.925  2.3247  1.8924  2.8086
   14MOL0     H 1842   3.875   7.303   1.072  1.1435  0.9090  1.6786
   14MOL0     H 1843   3.971   7.185   1.170 -0.3563 -3.2473 -0.8379
   14MOL0     H 1844   4.129   7.167   0.966  1.2768  0.1612  0.2937
   14MOL0     H 1845   4.026   7.286   0.879  0.9265  1.5664 -0.2230
   14MOL0     H 1846   4.125   7.354   1.150 -0.7405 -0.0035  0.3623
   14MOL0     H 1847   4.086   7.465   1.028 -4.2146 -1.2319  1.9949
   14MOL0     H 1848   4.330   7.276   1.040  2.1294  0.5789 -2.0232
   14MOL0     H 1849   4.334   7.448   1.063  0.1459 -0.8065  0.5116
   14MOL0     H 1850   4.532   7.465   0.981  1.5112  1.6426 -0.9448
   14MOL0     H 1851   4.750   7.470   0.867  0.5226 -0.3007 -2.2653
   14MOL0     H 1852   4.984   7.170   0.652  1.8719 -2.1565  0.1605
   14MOL0     H 1853   5.224   7.116   0.557 -1.0122  0.3171 -4.3376
   14MOL0     H 1854   5.487   7.445   0.409  0.4754  1.6977  1.0488
   14MOL0     H 1855   5.538   7.435   0.584 -2.1377  1.2693 -0.2414
   14MOL0     H 1856   5.728   7.369   0.443  0.4958 -0.1079 -0.4158
   14MOL0     H 1857   5.672   7.233   0.548  0.7896 -0.8499 -0.8204
   14MOL0     H 1858   5.551   7.167   0.332 -0.0412 -0.4616  2.0068
   14MOL0     H 1859   5.654   7.291   0.259  0.5075 -0.9314 -0.0690
   14MOL0     H 1860   5.736   7.046   0.259  0.1847  1.2456 -0.2523
   14MOL0     H 1861   5.770   7.058   0.426 -2.2817 -2.0506 -0.8510
   14MOL0     H 1862   5.929   7.267   0.377 -1.3303 -0.8911  1.8109
   14MOL0     H 1863   5.888   7.241   0.207  0.6427 -1.3003 -0.3389
   14MOL0     H 1864   6.033   7.064   0.413 -0.4172 -0.7956 -1.2010
   14MOL0     H 1865   5.997   7.003   0.251 -0.7793 -2.1090  1.9655
   14MOL0     H 1866   6.225   7.135   0.319  0.4065 -1.6591  0.4270
   14MOL0     H 1867   6.126   7.272   0.257 -0.6452  0.1884 -0.8320
   14MOL0     H 1868   6.151   7.014   0.102 -0.9275 -0.9121 -0.1079
   14MOL0     H 1869   6.088   7.183   0.075  1.1510  0.2580  0.4905
   14MOL0     H 1870   5.321   7.539   0.573  0.5456 -0.2712 -0.7140
   14MOL0     H 1871   5.089   7.582   0.646  2.2691  1.1815 -1.1086
   14MOL0     H 1872   4.547   7.380   0.505 -0.1201 -1.0535  0.2317
   14MOL0     H 1873   4.341   7.359   0.612 -0.4277  0.1848  0.6255
   14MOL0     H 1874   2.539   7.425   1.042  0.1253 -1.0371  1.2839
   14MOL0     H 1875   2.329   7.372   1.151  0.9323 -1.6780  2.2164
   14MOL0     H 1876   2.038   7.003   1.224 -0.8755 -1.3272  0.5759
   14MOL0     H 1877   1.844   6.882   1.275  2.0377 -0.9515 -2.0870
   14MOL0     H 1878   1.633   6.789   1.293  0.8647  0.7583 -0.0369
   14MOL0     H 1879   1.654   6.776   1.113 -1.4819  1.2747 -0.9670
   14MOL0     H 1880   1.397   6.774   1.276 -2.1001 -6.1062  1.0442
   14MOL0     H 1881   1.462   6.641   1.187 -1.2217  0.6724  2.5459
   14MOL0     H 1882   1.419   6.773   0.963  1.0334 -0.3622 -0.0578
   14MOL0     H 1883   1.371   6.906   1.059 -0.0897  0.6025  0.9109
   14MOL0     H 1884   1.199   6.725   1.169 -0.0110  0.0016 -0.0521
   14MOL0     H 1885   1.171   6.795   1.002  1.8527 -0.2630 -1.8873
   14MOL0     H 1886   1.222   6.413   0.885 -0.0689  0.1879  0.9926
   14MOL0     H 1887   1.614   7.163   1.039 -0.5452 -0.8212  1.1773
   14MOL0     H 1888   1.694   7.377   0.982  0.2627  1.1434  0.8013
   14MOL0     H 1889   1.851   7.419   1.028  0.8450 -0.3549 -1.2044
   14MOL0     H 1890   1.827   7.325   0.877  2.3492  0.9521  0.0824
   15MOL0     O 1891  11.141   1.229   5.692  0.2854 -0.0214 -0.6743
   15MOL0     C 1892  11.087   1.311   5.762  0.1407  0.4912  0.2833
   15MOL0     O 1893  11.140   1.435   5.790  0.0354  0.0155 -0.2982
   15MOL0     C 1894  11.259   1.476   5.736  0.6787  0.0248 -0.4492
   15MOL0     C 1895  11.376   1.405   5.722 -1.1908 -0.4339 -0.0324
   15MOL0     C 1896  11.502   1.463   5.688 -0.1609  0.1830 -0.5835
   15MOL0     C 1897  11.516   1.599   5.661  0.2470  0.0857 -0.4017
   15MOL0     O 1898  11.622   1.661   5.597  0.1367 -0.0741  0.4784
   15MOL0     C 1899  11.732   1.580   5.574 -0.3244 -0.1914  0.0090
   15MOL0     C 1900  11.841   1.667   5.497 -0.4408  0.3884  0.6511
   15MOL0     C 1901  11.964   1.581   5.490 -0.2598  0.7564  0.0172
   15MOL0     C 1902  12.059   1.648   5.392  0.0983  0.0896  0.5413
   15MOL0     C 1903  12.187   1.560   5.379 -0.4985  0.2166  0.7944
   15MOL0     C 1904  12.291   1.603   5.266  0.1378 -0.6254 -0.7430
   15MOL0     C 1905  12.426   1.534   5.278  0.2455 -0.1701  0.9425
   15MOL0     C 1906  12.524   1.606   5.181 -0.6892 -0.3319  0.6247
   15MOL0     N 1907  12.658   1.544   5.190 -0.1190 -0.6832  0.2829
   15MOL0     C 1908  12.745   1.560   5.293  0.2918 -0.3845 -0.2130
   15MOL0     C 1909  12.844   1.473   5.276 -0.7338  0.9902 -0.1299
   15MOL0     C 1910  12.956   1.445   5.373 -0.3021 -0.5966  0.2918
   15MOL0     C 1911  13.100   1.498   5.336 -0.1489  0.2963 -0.7258
   15MOL0     C 1912  13.208   1.432   5.439  0.0215 -0.6118  0.5755
   15MOL0     C 1913  13.344   1.487   5.401 -0.0810 -0.8866  0.4200
   15MOL0     O 1914  13.444   1.439   5.494 -0.2469  0.1314  0.0839
   15MOL0     C 1915  13.575   1.477   5.465 -0.2633 -0.5251  0.3402
   15MOL0     C 1916  13.614   1.570   5.365 -0.8831  0.1598  0.3108
   15MOL0     C 1917  13.757   1.590   5.344 -0.0263 -0.2296  0.7048
   15MOL0     C 1918  13.862   1.534   5.414 -0.5277  0.7161  0.0163
   15MOL0     C 1919  14.007   1.550   5.384 -0.2493  1.2528 -0.5299
   15MOL0     O 1920  14.090   1.473   5.462  0.0256 -0.0549  0.2719
   15MOL0     C 1921  14.221   1.504   5.475 -1.0116 -0.4022  0.4988
   15MOL0     C 1922  14.320   1.507   5.379 -0.3768  0.7342 -0.5051
   15MOL0     C 1923  14.452   1.547   5.407  0.3698 -0.1049  0.0196
   15MOL0     C 1924  14.488   1.583   5.535  0.9946  0.4229 -0.1505
   15MOL0     O 1925  14.608   1.629   5.575  0.6990  0.2766 -0.0125
   15MOL0     C 1926  14.721   1.556   5.529 -0.0810 -0.7040  0.4320
   15MOL0     C 1927  14.831   1.616   5.618 -1.3018 -0.1131 -0.9934
   15MOL0     C 1928  14.959   1.536   5.585  0.8606 -0.0856  0.6701
   15MOL0     C 1929  15.070   1.591   5.677 -0.2764 -0.3032 -0.1169
   15MOL0     C 1930  15.208   1.532   5.640  0.4357 -0.2430 -0.1566
   15MOL0     C 1931  15.320   1.606   5.703 -0.4603 -0.4233  0.5152
   15MOL0     C 1932  15.452   1.529   5.663  0.9541 -0.1493  0.3381
   15MOL0     C 1933  15.576   1.616   5.710  0.2724  0.1629  0.1168
   15MOL0    Cl 1934  15.582   1.648   5.886  0.0647 -0.2229  0.2106
   15MOL0     C 1935  14.389   1.588   5.632  0.5939 -0.0555  0.7394
   15MOL0     C 1936  14.260   1.545   5.601 -0.0443  0.2394 -0.2221
   15MOL0     O 1937  14.047   1.634   5.305  0.2041 -0.1823 -0.2117
   15MOL0     C 1938  13.822   1.446   5.517 -0.4295  1.1433 -0.0461
   15MOL0     C 1939  13.682   1.423   5.534 -0.0329  0.4902  0.2277
   15MOL0     N 1940  12.821   1.407   5.158 -0.0722  0.2815  0.0441
   15MOL0     N 1941  12.717   1.450   5.099 -0.1386  0.3137  0.2681
   15MOL0     C 1942  11.397   1.668   5.671 -0.1682 -0.2397 -0.2085
   15MOL0     C 1943  11.277   1.611   5.718  0.2710  0.2591  0.0100
   15MOL0     C 1944  10.957   1.283   5.832  0.7772 -0.5565 -0.0104
   15MOL0     C 1945  10.900   1.385   5.921  0.8998  0.2990 -0.4028
   15MOL0     C 1946  10.782   1.354   5.989 -1.0061 -0.0211 -0.5169
   15MOL0     C 1947  10.713   1.233   5.966 -0.1930 -0.1446 -0.0199
   15MOL0     O 1948  10.606   1.202   6.041 -0.3767 -0.0268 -0.6611
   15MOL0     C 1949  10.513   1.311   6.072  0.0694 -0.0297  1.0099
   15MOL0     C 1950  10.363   1.259   6.087 -0.0726  0.5444  0.0891
   15MOL0     C 1951  10.261   1.357   6.131  0.5508  0.7358 -0.0667
   15MOL0     C 1952  10.123   1.293   6.148  0.4499 -0.4117  0.2740
   15MOL0     C 1953  10.061   1.257   6.022  0.1303 -0.0459 -0.2404
   15MOL0     C 1954  10.023   1.224   5.908  0.7892  1.5868 -0.7618
   15MOL0     C 1955  10.750   1.146   5.871  0.0427  0.0746 -0.5047
   15MOL0     C 1956  10.874   1.163   5.805  0.0969 -0.4366  0.1694
   15MOL0     C 1957  10.904   1.060   5.691  0.7755 -0.0225 -0.1259
   15MOL0     H 1958  11.373   1.297   5.733  2.7494 -0.6462  0.5673
   15MOL0     H 1959  11.585   1.395   5.675 -0.9777 -0.7080 -1.3511
   15MOL0     H 1960  11.776   1.553   5.671 -0.9812  0.0603  0.3858
   15MOL0     H 1961  11.719   1.486   5.520  0.4107 -1.0091  1.1881
   15MOL0     H 1962  11.874   1.757   5.550  0.7660 -0.3929  1.2737
   15MOL0     H 1963  11.812   1.700   5.397 -1.2558 -0.9144  0.4294
   15MOL0     H 1964  11.937   1.479   5.464  2.1997 -0.0842  0.4547
   15MOL0     H 1965  12.015   1.577   5.587  0.1335  1.1469 -0.1643
   15MOL0     H 1966  12.021   1.654   5.289  3.1253 -2.8780 -0.9541
   15MOL0     H 1967  12.089   1.745   5.431  1.8409 -0.0253 -0.4035
   15MOL0     H 1968  12.227   1.550   5.480  2.8436 -0.0546 -0.4507
   15MOL0     H 1969  12.158   1.458   5.348  1.3719  0.5759 -2.6006
   15MOL0     H 1970  12.242   1.567   5.175 -1.3296 -1.1047  0.1994
   15MOL0     H 1971  12.311   1.710   5.266  0.1122 -0.3389  4.6625
   15MOL0     H 1972  12.418   1.429   5.250  2.1613 -0.1125 -0.0235
   15MOL0     H 1973  12.455   1.542   5.383 -3.5845 -0.2375  2.1420
   15MOL0     H 1974  12.489   1.603   5.077 -2.0786 -2.0694  1.0758
   15MOL0     H 1975  12.535   1.714   5.196  5.6424 -0.0505 -2.6196
   15MOL0     H 1976  12.732   1.626   5.379  0.6381  0.1782 -0.5808
   15MOL0     H 1977  12.936   1.481   5.475 -3.5182  2.9669 -1.3640
   15MOL0     H 1978  12.954   1.336   5.380 -3.4460 -0.5387  2.7913
   15MOL0     H 1979  13.119   1.479   5.230  1.4027 -2.7695 -0.0439
   15MOL0     H 1980  13.100   1.607   5.345  0.1832  0.2879 -0.5971
   15MOL0     H 1981  13.206   1.323   5.431  1.9002 -0.6138 -0.3052
   15MOL0     H 1982  13.187   1.468   5.540 -1.1019  0.9213 -0.1658
   15MOL0     H 1983  13.339   1.596   5.391 -1.5017 -1.0191 -0.6646
   15MOL0     H 1984  13.379   1.445   5.306 -3.0847  1.3229 -1.9086
   15MOL0     H 1985  13.545   1.620   5.298  0.6379 -0.9297 -2.2463
   15MOL0     H 1986  13.770   1.676   5.279  0.5264  0.2970  1.4930
   15MOL0     H 1987  14.285   1.485   5.279 -2.2631  1.1355  0.0213
   15MOL0     H 1988  14.518   1.556   5.321 -0.9960 -0.2920 -1.0908
   15MOL0     H 1989  14.697   1.450   5.543 -2.0229 -0.7296 -2.1992
   15MOL0     H 1990  14.732   1.567   5.421 -0.2424 -0.1044  0.4749
   15MOL0     H 1991  14.851   1.722   5.603  0.4697 -0.1587  0.6900
   15MOL0     H 1992  14.805   1.594   5.722  0.5378  1.4999 -0.1414
   15MOL0     H 1993  14.953   1.429   5.608  0.8687 -0.4323 -0.8387
   15MOL0     H 1994  14.974   1.558   5.479  0.0526 -2.4549 -0.0071
   15MOL0     H 1995  15.047   1.565   5.780 -0.9049 -0.9257 -0.4054
   15MOL0     H 1996  15.078   1.700   5.679  0.6282 -0.3689  0.7066
   15MOL0     H 1997  15.222   1.537   5.532  0.6473  0.3661 -0.1029
   15MOL0     H 1998  15.222   1.432   5.683 -0.7701  0.6863  2.6435
   15MOL0     H 1999  15.330   1.705   5.657  0.2944 -1.4155 -1.5889
   15MOL0     H 2000  15.317   1.606   5.813 -0.1073 -0.9666  0.5243
   15MOL0     H 2001  15.448   1.534   5.553 -2.5783  0.5895  0.3720
   15MOL0     H 2002  15.445   1.425   5.695  0.8936  0.0109  0.8564
   15MOL0     H 2003  15.677   1.583   5.681  1.0403 -0.7015  3.3581
   15MOL0     H 2004  15.565   1.707   5.651  0.7265  0.3925  0.3816
   15MOL0     H 2005  14.414   1.614   5.734  0.4844  0.4081  0.6501
   15MOL0     H 2006  14.200   1.556   5.690  1.6080  3.3971  0.6604
   15MOL0     H 2007  13.896   1.390   5.573 -0.9056 -0.9915 -1.4218
   15MOL0     H 2008  13.649   1.355   5.612  1.3440  0.6111  0.9585
   15MOL0     H 2009  11.393   1.773   5.647 -2.4823 -0.2546 -0.1262
   15MOL0     H 2010  11.188   1.672   5.733  1.2216  1.4259  1.0461
   15MOL0     H 2011  10.944   1.485   5.922 -2.5554  2.2173 -4.8079
   15MOL0     H 2012  10.741   1.415   6.069  1.2130 -0.7405  1.2638
   15MOL0     H 2013  10.515   1.384   5.990  1.2508 -1.6807 -0.5101
   15MOL0     H 2014  10.554   1.371   6.154 -1.2383  1.3151  0.7381
   15MOL0     H 2015  10.367   1.174   6.156 -1.1493 -0.3406 -0.9036
   15MOL0     H 2016  10.334   1.212   5.993 -0.1561 -1.8588  1.2425
   15MOL0     H 2017  10.263   1.442   6.063  0.8627  0.2585 -0.6712
   15MOL0     H 2018  10.288   1.392   6.231 -1.4803 -0.8620  1.1270
   15MOL0     H 2019  10.128   1.197   6.200  1.9920 -0.8643 -0.6422
   15MOL0     H 2020  10.057   1.366   6.196  1.0373  0.2152  0.1272
   15MOL0     H 2021   9.993   1.217   5.806  0.3856  2.4046 -0.7152
   15MOL0     H 2022  10.691   1.057   5.855 -0.4114  0.1015  0.8581
   15MOL0     H 2023  10.988   0.996   5.722 -1.0761 -1.4957  2.1220
   15MOL0     H 2024  10.822   0.988   5.689 -0.3994  1.1357  2.5074
   15MOL0     H 2025  10.918   1.097   5.589 -2.5254 -2.0682 -1.4821
   16MOL0     O 2026  10.165   1.841   6.321  0.2810  0.3507 -0.3044
   16MOL0     C 2027  10.140   1.770   6.225  0.3186 -0.2761  0.6541
   16MOL0     O 2028  10.236   1.706   6.150 -0.5207 -0.3893  0.0669
   16MOL0     C 2029  10.365   1.699   6.193 -0.2276  0.0474 -0.2708
   16MOL0     C 2030  10.408   1.710   6.328 -0.2028  0.0795  0.0718
   16MOL0     C 2031  10.547   1.690   6.357  0.8514 -0.3550 -0.6474
   16MOL0     C 2032  10.643   1.664   6.254 -0.6786  0.4339 -0.4663
   16MOL0     O 2033  10.778   1.661   6.250 -0.2549  0.0132  0.3192
   16MOL0     C 2034  10.845   1.688   6.380 -0.6020 -0.5559  0.7176
   16MOL0     C 2035  10.993   1.701   6.355 -0.7598  0.7494  0.2697
   16MOL0     C 2036  11.050   1.576   6.275 -0.4811 -0.6907  0.0337
   16MOL0     C 2037  11.204   1.585   6.251 -0.2626  0.6269  0.0429
   16MOL0     C 2038  11.251   1.477   6.153 -1.4457  0.7200 -0.2372
   16MOL0     C 2039  11.409   1.467   6.169 -0.4565 -0.8812 -0.1495
   16MOL0     C 2040  11.484   1.412   6.054 -0.5062  0.7706  0.2404
   16MOL0     C 2041  11.630   1.385   6.096  0.5083  0.0573 -0.4563
   16MOL0     N 2042  11.711   1.348   5.978  1.7207 -0.6212  0.4004
   16MOL0     C 2043  11.742   1.220   5.943 -0.5193 -0.4351  0.0249
   16MOL0     C 2044  11.836   1.228   5.841  0.2196  0.9259 -0.7000
   16MOL0     C 2045  11.899   1.100   5.788 -0.6460  0.0659  0.3822
   16MOL0     C 2046  11.810   1.021   5.683  0.4347  0.3713  0.0588
   16MOL0     C 2047  11.798   1.094   5.550 -0.1404  0.0398  0.4679
   16MOL0     C 2048  11.925   1.142   5.492 -0.1168  0.3214 -0.5298
   16MOL0     O 2049  12.023   1.041   5.475 -0.1304  0.2846  0.0122
   16MOL0     C 2050  12.161   1.077   5.474  0.0840  0.8438 -0.8901
   16MOL0     C 2051  12.219   1.206   5.475 -0.2666  0.3902 -0.1495
   16MOL0     C 2052  12.358   1.228   5.488 -0.1338  1.0701  0.0025
   16MOL0     C 2053  12.448   1.117   5.483  0.3654 -0.1206 -0.4121
   16MOL0     C 2054  12.593   1.138   5.498  0.4859  1.0425 -0.0128
   16MOL0     O 2055  12.670   1.026   5.531  0.4059 -0.1105 -0.0386
   16MOL0     C 2056  12.808   1.031   5.499  0.1242  0.2190  0.4432
   16MOL0     C 2057  12.864   1.095   5.385  1.2005  0.7080 -0.2553
   16MOL0     C 2058  12.996   1.092   5.359  0.3336  0.6631  0.4390
   16MOL0     C 2059  13.080   1.020   5.441  0.8342  0.7658 -0.1074
   16MOL0     O 2060  13.209   1.028   5.400  0.3891  0.3259  0.9898
   16MOL0     C 2061  13.291   0.913   5.442  0.0932 -0.7903  0.4068
   16MOL0     C 2062  13.425   0.932   5.384 -0.7764 -0.2012 -0.6407
   16MOL0     C 2063  13.539   0.835   5.428  0.4557 -0.3970  0.6464
   16MOL0     C 2064  13.678   0.858   5.359  0.0219 -0.2316 -0.0209
   16MOL0     C 2065  13.776   0.751   5.397 -0.4986  0.5744 -1.0239
   16MOL0     C 2066  13.915   0.778   5.343 -0.2055 -0.0300 -0.2321
   16MOL0     C 2067  14.020   0.683   5.403 -0.8283 -0.7422  0.2923
   16MOL0     C 2068  14.135   0.675   5.304 -0.2240  0.0634 -0.1134
   16MOL0    Cl 2069  14.258   0.547   5.370  0.0454 -0.1705  0.0267
   16MOL0     C 2070  13.028   0.959   5.556  0.0007 -0.0882  0.5464
   16MOL0     C 2071  12.897   0.961   5.577  0.3119  0.0377  1.0095
   16MOL0     O 2072  12.635   1.250   5.471  0.5966  0.0671 -0.2879
   16MOL0     C 2073  12.395   0.994   5.483  1.0525 -0.1053 -0.1400
   16MOL0     C 2074  12.253   0.970   5.467 -0.2218  0.1383 -0.2957
   16MOL0     N 2075  11.854   1.365   5.815 -0.2223  0.3974 -0.4178
   16MOL0     N 2076  11.781   1.435   5.903 -0.1513  0.0548  0.3701
   16MOL0     C 2077  10.592   1.660   6.124 -0.2167  0.1716  0.1659
   16MOL0     C 2078  10.460   1.658   6.100  0.3933 -0.3920  0.2447
   16MOL0     C 2079   9.999   1.753   6.169  0.7673  0.3928 -0.1988
   16MOL0     C 2080   9.970   1.654   6.074 -0.5192 -0.1488  0.1493
   16MOL0     C 2081   9.848   1.629   6.020  0.2510  0.2913 -0.8389
   16MOL0     C 2082   9.742   1.713   6.058 -0.2410  0.7529 -0.1848
   16MOL0     O 2083   9.642   1.705   5.971 -0.6750  0.0393 -0.2928
   16MOL0     C 2084   9.566   1.827   5.958  0.0664 -0.8144  1.0276
   16MOL0     C 2085   9.480   1.834   5.823 -0.0492 -0.5028  0.3710
   16MOL0     C 2086   9.393   1.713   5.806  1.1905 -0.5763 -0.2922
   16MOL0     C 2087   9.279   1.761   5.714 -0.8351 -0.0480 -0.3939
   16MOL0     C 2088   9.182   1.654   5.698 -0.3379 -0.7764 -1.0126
   16MOL0     C 2089   9.106   1.562   5.685  0.6625  0.5133  0.4104
   16MOL0     C 2090   9.766   1.803   6.165 -0.0333  1.0971  0.2080
   16MOL0     C 2091   9.896   1.832   6.210 -0.4460  0.1428  0.2924
   16MOL0     C 2092   9.912   1.943   6.309 -0.2538 -0.3345 -0.2758
   16MOL0     H 2093  10.343   1.730   6.412 -1.5118 -0.0951 -0.8753
   16MOL0     H 2094  10.586   1.697   6.458  2.8051 -2.0125 -1.2178
   16MOL0     H 2095  10.802   1.776   6.428 -0.4753 -0.2822  0.3404
   16MOL0     H 2096  10.826   1.618   6.461 -0.4584  0.5131  1.6990
   16MOL0     H 2097  11.039   1.720   6.453  1.1806 -1.4602 -0.1181
   16MOL0     H 2098  11.019   1.793   6.303  0.5689 -0.1394 -0.6895
   16MOL0     H 2099  11.009   1.571   6.173  1.3339 -2.0132 -0.6889
   16MOL0     H 2100  11.030   1.482   6.327 -0.8577 -1.3139 -1.1957
   16MOL0     H 2101  11.233   1.683   6.211 -0.8623  1.2535  1.1027
   16MOL0     H 2102  11.254   1.565   6.346 -1.0458 -0.9188  0.1660
   16MOL0     H 2103  11.203   1.385   6.188 -0.0197  0.3989  0.9640
   16MOL0     H 2104  11.226   1.480   6.047  2.2365  1.1021 -1.2084
   16MOL0     H 2105  11.456   1.561   6.201 -2.2222 -0.4329  1.3123
   16MOL0     H 2106  11.431   1.399   6.252  1.4508 -3.3692 -2.5450
   16MOL0     H 2107  11.478   1.482   5.970  0.2861 -1.4265 -1.7668
   16MOL0     H 2108  11.437   1.319   6.024  1.9501 -0.9492  1.3293
   16MOL0     H 2109  11.675   1.471   6.145 -0.7719  0.5895 -0.1699
   16MOL0     H 2110  11.643   1.311   6.175  0.0987 -0.4856 -0.8843
   16MOL0     H 2111  11.722   1.121   5.983  2.7664 -0.7331  1.2103
   16MOL0     H 2112  12.000   1.118   5.750 -0.9219 -1.8792 -1.4669
   16MOL0     H 2113  11.920   1.041   5.878  0.8778 -0.7607 -0.4848
   16MOL0     H 2114  11.854   0.926   5.651 -2.9747 -1.4614  0.3373
   16MOL0     H 2115  11.714   0.999   5.731  0.8042 -0.4903  0.4348
   16MOL0     H 2116  11.736   1.182   5.571 -0.6872  1.0090 -4.1894
   16MOL0     H 2117  11.755   1.025   5.477 -0.2359 -0.5603  1.0758
   16MOL0     H 2118  11.947   1.221   5.565  0.8875 -0.8095  0.4466
   16MOL0     H 2119  11.906   1.178   5.391  1.4495 -1.4164 -1.4945
   16MOL0     H 2120  12.157   1.294   5.475  0.8264  1.1925  1.1307
   16MOL0     H 2121  12.392   1.330   5.495  1.8147  0.6251 -1.7222
   16MOL0     H 2122  12.804   1.146   5.311 -2.1912 -2.2793  0.1249
   16MOL0     H 2123  13.026   1.151   5.272  0.0329  0.5068  0.2290
   16MOL0     H 2124  13.303   0.917   5.551  2.3322  0.8861  0.1543
   16MOL0     H 2125  13.245   0.821   5.405 -1.8390 -0.4362  1.7538
   16MOL0     H 2126  13.410   0.932   5.275 -0.6133 -0.0783 -0.6633
   16MOL0     H 2127  13.459   1.029   5.421 -0.1347 -0.9493  0.8113
   16MOL0     H 2128  13.541   0.838   5.537 -1.4611 -0.4365  0.7260
   16MOL0     H 2129  13.492   0.740   5.401 -3.2994  1.7075 -0.9717
   16MOL0     H 2130  13.720   0.953   5.392 -1.9916  2.2644 -3.8736
   16MOL0     H 2131  13.672   0.859   5.250 -3.7200  0.8636  0.0848
   16MOL0     H 2132  13.745   0.652   5.362  0.9688 -0.3311  0.1302
   16MOL0     H 2133  13.780   0.743   5.506 -1.9481 -1.2925 -1.0636
   16MOL0     H 2134  13.912   0.765   5.235 -3.0353 -1.8840 -0.0369
   16MOL0     H 2135  13.938   0.884   5.361 -0.5253  0.6756 -3.4824
   16MOL0     H 2136  13.968   0.587   5.412 -3.4865  0.4727 -0.9560
   16MOL0     H 2137  14.053   0.718   5.501 -1.0465  0.3430 -0.0089
   16MOL0     H 2138  14.101   0.644   5.205 -2.0668  1.5092  0.0023
   16MOL0     H 2139  14.190   0.770   5.301  0.7356 -0.4916 -0.7496
   16MOL0     H 2140  13.085   0.882   5.608  1.0250 -0.7482 -1.4225
   16MOL0     H 2141  12.862   0.907   5.665  2.8126 -0.0402  2.0482
   16MOL0     H 2142  12.454   0.903   5.480 -1.1859 -1.5970 -2.1375
   16MOL0     H 2143  12.215   0.869   5.465  0.3207 -0.1660  1.7422
   16MOL0     H 2144  10.651   1.648   6.033 -0.3139 -0.3722  0.1698
   16MOL0     H 2145  10.427   1.649   5.997 -0.2878  2.8623  0.0869
   16MOL0     H 2146  10.053   1.605   6.024  0.7897  2.3024 -0.2554
   16MOL0     H 2147   9.829   1.559   5.940 -1.2582  0.2989 -0.5185
   16MOL0     H 2148   9.623   1.920   5.969 -1.8039  0.5241  0.1382
   16MOL0     H 2149   9.493   1.829   6.040  1.9950 -6.1037  3.2742
   16MOL0     H 2150   9.551   1.833   5.740 -1.4904 -3.8482 -0.9877
   16MOL0     H 2151   9.422   1.926   5.817  0.5442  0.0323  2.0706
   16MOL0     H 2152   9.358   1.684   5.906  0.4956  0.0985 -0.3279
   16MOL0     H 2153   9.444   1.620   5.779  3.4099 -0.1746  2.1151
   16MOL0     H 2154   9.232   1.848   5.761 -0.8882 -2.0933  3.7400
   16MOL0     H 2155   9.319   1.795   5.618 -0.9272  0.9194 -0.1069
   16MOL0     H 2156   9.031   1.486   5.679 -1.4548  2.5303 -0.0969
   16MOL0     H 2157   9.679   1.862   6.196 -0.4661  2.0136 -2.4507
   16MOL0     H 2158   9.957   1.909   6.403 -0.6709  0.1580  0.1013
   16MOL0     H 2159   9.973   2.023   6.266 -0.8869  0.1247 -0.3296
   16MOL0     H 2160   9.818   1.993   6.333 -0.7031 -1.6187  0.7551
   17MOL0     O 2161   3.492   1.705   9.333  0.0614  0.5230 -0.0889
   17MOL0     C 2162   3.468   1.665   9.448 -0.6090 -0.6475 -0.7870
   17MOL0     O 2163   3.560   1.589   9.525 -0.3586 -0.0339  0.5314
   17MOL0     C 2164   3.694   1.585   9.495  0.8168  0.1256 -0.1331
   17MOL0     C 2165   3.763   1.685   9.428 -0.4130 -0.0321 -0.1177
   17MOL0     C 2166   3.902   1.683   9.407 -0.2738  0.7853 -0.0405
   17MOL0     C 2167   3.981   1.574   9.452 -0.4358  0.6138  0.1261
   17MOL0     O 2168   4.119   1.554   9.427  0.3873 -0.1677 -0.0717
   17MOL0     C 2169   4.210   1.458   9.489 -0.4732  0.0228 -0.0308
   17MOL0     C 2170   4.351   1.477   9.433  0.1477  0.3382  0.2774
   17MOL0     C 2171   4.410   1.621   9.418  0.5304 -0.1239 -0.1784
   17MOL0     C 2172   4.399   1.716   9.537 -0.4076  0.0978  0.3088
   17MOL0     C 2173   4.476   1.844   9.512  0.1006  0.1481 -0.7446
   17MOL0     C 2174   4.481   1.938   9.631 -0.6928 -0.0752  0.6219
   17MOL0     C 2175   4.534   2.077   9.591  0.7593 -0.2455  0.2325
   17MOL0     C 2176   4.457   2.192   9.665 -0.5664  0.3016  0.2712
   17MOL0     N 2177   4.511   2.214   9.802 -0.2836  0.1711  0.7177
   17MOL0     C 2178   4.628   2.277   9.841  1.0889  0.3346 -0.4520
   17MOL0     C 2179   4.644   2.226   9.964 -0.3489  0.0399 -0.8101
   17MOL0     C 2180   4.749   2.277  10.065  0.2325 -0.0306 -0.6397
   17MOL0     C 2181   4.863   2.174  10.074 -0.2957  0.2851  0.0432
   17MOL0     C 2182   4.974   2.236  10.162 -0.1101  0.2889 -0.5004
   17MOL0     C 2183   5.106   2.155  10.156  0.0716  1.5274 -0.8486
   17MOL0     O 2184   5.203   2.224  10.240  0.3139  0.8060 -0.0107
   17MOL0     C 2185   5.334   2.218  10.203 -0.2808  0.1669  0.3222
   17MOL0     C 2186   5.392   2.120  10.111 -0.8404 -0.0457 -0.8557
   17MOL0     C 2187   5.530   2.098  10.106 -0.8361 -0.6701 -0.1700
   17MOL0     C 2188   5.615   2.183  10.178  0.9417 -0.1221  0.0259
   17MOL0     C 2189   5.761   2.170  10.174  0.0549 -0.1016 -0.4951
   17MOL0     O 2190   5.808   2.070  10.103 -0.6657 -0.0549 -0.3349
   17MOL0     C 2191   5.941   2.029  10.102 -0.4758 -1.0224 -0.5587
   17MOL0     C 2192   5.961   1.893  10.071  0.4044 -0.1746 -0.1724
   17MOL0     C 2193   6.083   1.830  10.082 -0.9477 -0.5071  0.6237
   17MOL0     C 2194   6.197   1.905  10.120 -0.1180  0.3599 -0.4447
   17MOL0     O 2195   6.311   1.839  10.134 -0.8089 -0.3906 -0.2893
   17MOL0     C 2196   6.431   1.913  10.170 -0.3076 -0.5135  0.6481
   17MOL0     C 2197   6.535   1.802  10.183 -0.2807  0.1976 -0.0276
   17MOL0     C 2198   6.656   1.875  10.240 -0.3532  0.5546  0.2331
   17MOL0     C 2199   6.767   1.770  10.232 -0.5509 -0.5328 -1.2501
   17MOL0     C 2200   6.891   1.828  10.307  0.0460  0.3453  0.0812
   17MOL0     C 2201   7.013   1.739  10.295  0.8179  0.3814  0.2079
   17MOL0     C 2202   7.149   1.794  10.352  0.2481  0.0564  0.5275
   17MOL0     C 2203   7.246   1.687  10.387 -0.5209 -0.1966  0.8727
   17MOL0    Cl 2204   7.400   1.763  10.406  0.2015 -0.1673 -0.3931
   17MOL0     C 2205   6.183   2.042  10.144  0.0611  0.0207  0.5583
   17MOL0     C 2206   6.056   2.105  10.131  0.2882  0.1212 -1.0028
   17MOL0     O 2207   5.829   2.252  10.249 -0.6376  0.9001  0.4306
   17MOL0     C 2208   5.560   2.291  10.248  0.4473  0.1671  0.1980
   17MOL0     C 2209   5.420   2.298  10.271 -0.5725  0.4411 -0.3063
   17MOL0     N 2210   4.540   2.145  10.004  0.8268  0.4125 -0.6583
   17MOL0     N 2211   4.458   2.152   9.913 -0.7855  0.0567  0.1343
   17MOL0     C 2212   3.904   1.469   9.513 -0.7856  0.3843 -0.0727
   17MOL0     C 2213   3.779   1.484   9.542  0.7840  0.5540  0.0219
   17MOL0     C 2214   3.329   1.660   9.493  0.1315  0.1399  0.7615
   17MOL0     C 2215   3.291   1.567   9.591  0.5182 -0.3921 -0.1144
   17MOL0     C 2216   3.154   1.556   9.627  1.4833 -0.3501 -0.5765
   17MOL0     C 2217   3.053   1.643   9.567 -0.2538  0.0324  0.6053
   17MOL0     O 2218   2.921   1.616   9.606 -0.0674 -0.0575  0.1546
   17MOL0     C 2219   2.825   1.715   9.579 -0.9784  0.9422 -0.4624
   17MOL0     C 2220   2.706   1.666   9.663 -0.1200  0.4995  0.4641
   17MOL0     C 2221   2.597   1.761   9.652  0.7255 -0.0021 -0.3131
   17MOL0     C 2222   2.469   1.691   9.693  0.6473 -0.5612 -0.7439
   17MOL0     C 2223   2.492   1.665   9.840 -0.3392 -0.0857  0.3211
   17MOL0     C 2224   2.513   1.628   9.953 -0.0434  0.6369  0.4339
   17MOL0     C 2225   3.089   1.733   9.465 -0.0122  0.5070 -0.4780
   17MOL0     C 2226   3.227   1.738   9.427 -0.4822 -0.5635  0.3610
   17MOL0     C 2227   3.256   1.843   9.316  0.3541 -0.1187 -0.0429
   17MOL0     H 2228   3.714   1.767   9.376 -1.6976  0.0957  1.1927
   17MOL0     H 2229   3.952   1.757   9.346  2.8530  0.7561  2.1959
   17MOL0     H 2230   4.209   1.485   9.595  0.3758  0.4767 -0.1296
   17MOL0     H 2231   4.177   1.355   9.473 -0.0283 -0.2751  0.8841
   17MOL0     H 2232   4.358   1.436   9.332 -1.7300  1.8958 -0.5657
   17MOL0     H 2233   4.419   1.420   9.496  1.3789 -0.6649 -1.8458
   17MOL0     H 2234   4.365   1.676   9.335  1.1563 -0.6007 -0.8410
   17MOL0     H 2235   4.517   1.619   9.397  0.7951  1.7736  0.7766
   17MOL0     H 2236   4.293   1.743   9.540 -0.9624 -1.0711 -3.6460
   17MOL0     H 2237   4.438   1.670   9.629  0.2223  1.0140  0.5122
   17MOL0     H 2238   4.578   1.812   9.490  0.5851  1.3301 -0.3028
   17MOL0     H 2239   4.434   1.895   9.425 -0.4589 -2.9905 -2.4757
   17MOL0     H 2240   4.387   1.941   9.687 -0.9806 -0.4517  0.1637
   17MOL0     H 2241   4.552   1.899   9.704  0.3262 -0.4655 -0.5457
   17MOL0     H 2242   4.505   2.092   9.486 -5.8768  0.5380  1.7804
   17MOL0     H 2243   4.643   2.081   9.602  0.8641 -0.8831 -0.4605
   17MOL0     H 2244   4.472   2.284   9.608 -0.3739 -0.2690 -0.6287
   17MOL0     H 2245   4.350   2.170   9.675 -0.6803 -0.4699 -1.9238
   17MOL0     H 2246   4.700   2.347   9.801  1.9120 -0.9627 -1.3192
   17MOL0     H 2247   4.801   2.368  10.031  2.9830 -0.5503  1.7926
   17MOL0     H 2248   4.695   2.299  10.158 -2.2395  0.4733 -2.1113
   17MOL0     H 2249   4.830   2.084  10.126  0.9964  0.6592  1.6023
   17MOL0     H 2250   4.906   2.143   9.978 -0.6250 -2.0371  0.5813
   17MOL0     H 2251   4.936   2.245  10.265  2.0963 -0.9861  0.4897
   17MOL0     H 2252   5.009   2.335  10.132  2.4626 -0.5791 -0.6076
   17MOL0     H 2253   5.134   2.145  10.051 -1.5573 -0.6110 -1.1491
   17MOL0     H 2254   5.080   2.054  10.188  0.6841  1.2027 -1.3544
   17MOL0     H 2255   5.325   2.060  10.049 -1.8942 -1.4431  1.5143
   17MOL0     H 2256   5.577   2.024  10.043  1.0529 -1.4896  2.0438
   17MOL0     H 2257   5.872   1.836  10.049  0.6720 -1.3394  1.5643
   17MOL0     H 2258   6.086   1.721  10.085  1.6173 -0.5102  0.5381
   17MOL0     H 2259   6.459   1.972  10.082  0.8913 -2.2916 -0.2312
   17MOL0     H 2260   6.415   1.970  10.262 -0.3040 -0.2642  0.4938
   17MOL0     H 2261   6.513   1.724  10.257  1.0398  0.5572  0.7890
   17MOL0     H 2262   6.556   1.758  10.086 -0.1557 -1.9906  0.9297
   17MOL0     H 2263   6.688   1.957  10.176 -0.8895 -0.2163 -1.0677
   17MOL0     H 2264   6.650   1.899  10.346 -1.4034  0.0107  0.3050
   17MOL0     H 2265   6.797   1.745  10.130  1.7248  0.8753 -0.9940
   17MOL0     H 2266   6.740   1.677  10.283 -2.9255  1.1184  0.7422
   17MOL0     H 2267   6.870   1.827  10.415 -2.6636 -2.8087 -0.3145
   17MOL0     H 2268   6.921   1.927  10.270  0.0052  0.2539 -0.1921
   17MOL0     H 2269   6.989   1.640  10.335  0.4527 -1.0027 -3.0933
   17MOL0     H 2270   7.022   1.726  10.186 -1.3103 -1.1416  0.1612
   17MOL0     H 2271   7.117   1.832  10.450 -2.6196  1.9532 -0.9990
   17MOL0     H 2272   7.192   1.864  10.280 -2.5415 -0.0557 -1.4115
   17MOL0     H 2273   7.210   1.641  10.479 -1.3657 -0.4076  0.4424
   17MOL0     H 2274   7.245   1.614  10.306  0.5793  0.7194 -0.0062
   17MOL0     H 2275   6.265   2.112  10.145  0.6359 -0.2673 -4.3448
   17MOL0     H 2276   6.053   2.213  10.144  1.1120 -0.1007  1.7500
   17MOL0     H 2277   5.624   2.362  10.299  0.6975  2.3416 -2.8699
   17MOL0     H 2278   5.372   2.367  10.339 -0.2958  1.4728 -1.1302
   17MOL0     H 2279   3.944   1.375   9.549 -2.4686 -0.4271 -0.2165
   17MOL0     H 2280   3.736   1.408   9.607  2.4453  1.3584  2.2109
   17MOL0     H 2281   3.367   1.505   9.638 -0.3369 -1.7131 -0.4319
   17MOL0     H 2282   3.123   1.482   9.699  2.3526 -0.0522  0.1239
   17MOL0     H 2283   2.801   1.704   9.473 -0.2828  0.1072 -0.5485
   17MOL0     H 2284   2.863   1.816   9.596  2.6359 -0.1989 -0.8271
   17MOL0     H 2285   2.731   1.666   9.769 -2.4780 -1.9867  1.1303
   17MOL0     H 2286   2.685   1.564   9.627 -1.6183  1.7360 -2.5342
   17MOL0     H 2287   2.582   1.791   9.548 -1.8564 -1.0861 -0.3364
   17MOL0     H 2288   2.623   1.846   9.715 -0.5799 -0.8518  1.4784
   17MOL0     H 2289   2.391   1.767   9.686  1.3918  0.5479  1.8849
   17MOL0     H 2290   2.453   1.596   9.641  0.5025 -1.1247  0.2937
   17MOL0     H 2291   2.529   1.584  10.050  0.3077 -0.1422  0.0314
   17MOL0     H 2292   3.021   1.796   9.408 -0.7494  0.7740  0.6579
   17MOL0     H 2293   3.181   1.920   9.335  1.1678  0.2481  1.9453
   17MOL0     H 2294   3.348   1.900   9.333  0.0035 -0.3768  3.3925
   17MOL0     H 2295   3.257   1.791   9.220 -0.7349  1.2615 -0.8320
   18MOL0     O 2296   8.829   3.449   3.022  0.6854 -0.4585  0.1129
   18MOL0     C 2297   8.808   3.347   3.086  0.7094  0.3161 -0.8035
   18MOL0     O 2298   8.903   3.275   3.151  0.1866 -1.1581 -0.3598
   18MOL0     C 2299   9.034   3.324   3.163  0.5149 -0.1277  0.5377
   18MOL0     C 2300   9.077   3.453   3.163 -1.0876 -0.0717 -0.1966
   18MOL0     C 2301   9.214   3.491   3.160  1.1495  0.7330 -0.8625
   18MOL0     C 2302   9.306   3.390   3.180 -0.2993  0.6861 -0.0847
   18MOL0     O 2303   9.440   3.416   3.193 -0.8069 -0.1784 -0.9745
   18MOL0     C 2304   9.470   3.528   3.273 -0.8892 -0.5157 -0.1217
   18MOL0     C 2305   9.628   3.551   3.264  0.6062 -0.0419 -0.7403
   18MOL0     C 2306   9.699   3.441   3.349 -0.2901 -0.3747 -0.2710
   18MOL0     C 2307   9.857   3.468   3.348  0.3456 -0.0675  0.4892
   18MOL0     C 2308   9.943   3.349   3.392 -0.4088  0.0314  0.4539
   18MOL0     C 2309  10.086   3.387   3.433  0.8144  0.7409 -0.2192
   18MOL0     C 2310  10.172   3.453   3.325  0.4325  0.1751  0.2523
   18MOL0     C 2311  10.318   3.427   3.325 -0.0673 -0.1413 -0.1591
   18MOL0     N 2312  10.383   3.452   3.452  0.1652  0.0419 -0.0472
   18MOL0     C 2313  10.379   3.565   3.524 -0.6108 -0.2757  0.5796
   18MOL0     C 2314  10.463   3.547   3.626  0.1540  0.1626 -0.2226
   18MOL0     C 2315  10.505   3.644   3.728 -1.0283  0.8663 -0.3243
   18MOL0     C 2316  10.567   3.777   3.660  0.1186  0.1375 -0.0713
   18MOL0     C 2317  10.643   3.854   3.769 -0.0648  0.3299 -0.3032
   18MOL0     C 2318  10.765   3.792   3.818  0.3394 -0.0971 -0.0213
   18MOL0     O 2319  10.847   3.883   3.886  0.9227  0.3403  0.6010
   18MOL0     C 2320  10.981   3.875   3.894 -0.8891 -0.5320 -0.3538
   18MOL0     C 2321  11.065   3.765   3.861  0.9270 -1.1662  0.1403
   18MOL0     C 2322  11.201   3.773   3.883 -0.0162  0.4631 -0.3819
   18MOL0     C 2323  11.260   3.888   3.933  0.3071 -0.1409  0.3163
   18MOL0     C 2324  11.408   3.897   3.959 -0.0072  0.1828 -0.4628
   18MOL0     O 2325  11.452   3.992   4.048  0.4338 -0.0083  0.7557
   18MOL0     C 2326  11.584   3.980   4.076  0.4961 -0.1574  0.6692
   18MOL0     C 2327  11.627   3.942   4.201 -0.1375 -0.0603  0.4412
   18MOL0     C 2328  11.766   3.939   4.233 -0.0473 -0.0444  0.2689
   18MOL0     C 2329  11.861   3.968   4.141  0.2613 -0.7786 -0.1141
   18MOL0     O 2330  11.999   3.957   4.165 -0.1269  0.6945  0.7259
   18MOL0     C 2331  12.035   3.869   4.278 -0.9575 -0.0893  0.6877
   18MOL0     C 2332  12.186   3.843   4.278 -0.1417  0.1956  0.2504
   18MOL0     C 2333  12.267   3.980   4.290 -0.8822 -0.5036  0.0659
   18MOL0     C 2334  12.419   3.961   4.268 -0.0939 -0.3284  0.5786
   18MOL0     C 2335  12.464   3.943   4.125 -0.1722 -0.4410  0.1933
   18MOL0     C 2336  12.610   3.947   4.100  0.1409  0.0392  0.1074
   18MOL0     C 2337  12.658   4.096   4.095 -0.2196  1.0918  0.1570
   18MOL0     C 2338  12.804   4.109   4.144  0.0399 -0.6590  0.0663
   18MOL0    Cl 2339  12.918   4.016   4.052 -0.2887 -0.2777  0.6741
   18MOL0     C 2340  11.822   4.000   4.011  0.0533 -0.8904  0.3304
   18MOL0     C 2341  11.682   3.995   3.974  0.3125  0.1126  0.5161
   18MOL0     O 2342  11.479   3.814   3.906  0.0245  0.0570 -0.3769
   18MOL0     C 2343  11.178   3.998   3.966 -0.3898  0.6537  0.0274
   18MOL0     C 2344  11.040   3.992   3.948  0.5800  0.0522  0.6836
   18MOL0     N 2345  10.519   3.425   3.616  0.4422 -0.2787 -0.3195
   18MOL0     N 2346  10.478   3.370   3.503 -0.1604  0.3689 -0.2893
   18MOL0     C 2347   9.260   3.254   3.200 -0.6893 -0.5757  1.2015
   18MOL0     C 2348   9.122   3.217   3.182 -0.6531 -0.5300 -0.0006
   18MOL0     C 2349   8.671   3.293   3.103  0.0440  0.0198 -1.0246
   18MOL0     C 2350   8.651   3.204   3.214  0.2204 -0.1115 -0.5005
   18MOL0     C 2351   8.529   3.158   3.261 -0.7188  0.3723 -0.3729
   18MOL0     C 2352   8.417   3.200   3.189  0.3655  0.6159  0.4769
   18MOL0     O 2353   8.282   3.174   3.212  0.5687  0.6033 -0.2743
   18MOL0     C 2354   8.253   3.102   3.335 -0.3504  0.3165 -0.4729
   18MOL0     C 2355   8.219   3.192   3.457 -0.4528 -0.0546 -0.3165
   18MOL0     C 2356   8.078   3.265   3.443  0.7348 -0.5291  0.1347
   18MOL0     C 2357   7.951   3.189   3.500 -0.0138  0.3459  0.4397
   18MOL0     C 2358   7.976   3.142   3.634 -0.0248  0.5622  0.9415
   18MOL0     C 2359   8.006   3.080   3.736  0.5701 -0.2388  0.3454
   18MOL0     C 2360   8.430   3.277   3.076 -0.3005 -0.6588  0.2309
   18MOL0     C 2361   8.559   3.322   3.027 -0.1618  0.4756  1.1297
   18MOL0     C 2362   8.557   3.393   2.899 -0.0580 -1.1826  0.2288
   18MOL0     H 2363   9.015   3.542   3.154  3.4050  3.3631 -0.9199
   18MOL0     H 2364   9.238   3.594   3.136  0.9776  0.7783 -0.8394
   18MOL0     H 2365   9.432   3.622   3.231  2.3725 -0.0718 -2.4249
   18MOL0     H 2366   9.431   3.527   3.376 -0.3429  1.2199  0.1360
   18MOL0     H 2367   9.653   3.648   3.307  2.1612 -1.3470  1.4723
   18MOL0     H 2368   9.657   3.546   3.158  0.9396  0.1482 -0.6597
   18MOL0     H 2369   9.685   3.344   3.300 -0.4776  0.1022 -1.1872
   18MOL0     H 2370   9.670   3.433   3.454  1.3525 -0.5708  0.1822
   18MOL0     H 2371   9.899   3.509   3.256 -0.6524  3.2135  1.3837
   18MOL0     H 2372   9.872   3.555   3.412 -0.6901  0.3934  0.1143
   18MOL0     H 2373   9.907   3.308   3.487 -0.6365 -0.1616  0.2837
   18MOL0     H 2374   9.936   3.273   3.313  2.6916 -0.0268  0.1210
   18MOL0     H 2375  10.095   3.430   3.533  3.5486 -0.0926 -0.0418
   18MOL0     H 2376  10.130   3.288   3.450  1.1527  0.8667 -0.3547
   18MOL0     H 2377  10.160   3.562   3.325  0.3586  0.3071 -3.4333
   18MOL0     H 2378  10.132   3.428   3.226  1.1252  1.5288 -0.4009
   18MOL0     H 2379  10.327   3.319   3.310 -1.0747 -0.6612  2.4725
   18MOL0     H 2380  10.361   3.490   3.246  1.8424  0.5085  1.3259
   18MOL0     H 2381  10.317   3.654   3.517  1.6650  1.9594  4.8381
   18MOL0     H 2382  10.420   3.664   3.795 -1.1877  0.4110 -0.3890
   18MOL0     H 2383  10.582   3.587   3.779 -1.4678 -0.5807 -1.2169
   18MOL0     H 2384  10.639   3.745   3.584 -0.3476 -2.0888  0.3660
   18MOL0     H 2385  10.498   3.844   3.608 -2.2729 -0.1021  2.6247
   18MOL0     H 2386  10.572   3.876   3.850  2.5052  2.6054  1.5158
   18MOL0     H 2387  10.669   3.952   3.728  0.1542  2.0458  3.5141
   18MOL0     H 2388  10.816   3.749   3.731 -0.3010  0.2134 -0.5609
   18MOL0     H 2389  10.740   3.718   3.895 -1.2850 -1.0988 -1.4169
   18MOL0     H 2390  11.020   3.676   3.817  0.3532 -1.6279  1.6041
   18MOL0     H 2391  11.261   3.688   3.850 -1.4682 -0.8961  0.3025
   18MOL0     H 2392  11.556   3.910   4.277  1.1919 -1.7339  1.0389
   18MOL0     H 2393  11.787   3.910   4.335  3.0222  0.4964 -0.1276
   18MOL0     H 2394  12.007   3.919   4.371 -0.7510 -1.4155  1.4868
   18MOL0     H 2395  11.985   3.772   4.275  0.3024 -0.7478 -0.9997
   18MOL0     H 2396  12.202   3.779   4.365  0.9744  2.6778  2.0159
   18MOL0     H 2397  12.213   3.783   4.191 -0.3724 -0.1445  0.4130
   18MOL0     H 2398  12.241   4.049   4.209  3.5319  0.8433 -0.4643
   18MOL0     H 2399  12.251   4.029   4.387  0.9985  1.2314 -0.4255
   18MOL0     H 2400  12.456   3.874   4.322  0.3360 -1.5994 -1.6181
   18MOL0     H 2401  12.470   4.048   4.310 -1.2783  0.5472  0.2510
   18MOL0     H 2402  12.403   4.015   4.069  0.2616  2.2594  2.9362
   18MOL0     H 2403  12.431   3.843   4.093  0.6097  0.0414 -2.3193
   18MOL0     H 2404  12.659   3.882   4.174 -1.6713  1.2282  2.5194
   18MOL0     H 2405  12.637   3.894   4.009 -4.9396 -3.6537  0.3298
   18MOL0     H 2406  12.592   4.154   4.161 -2.3708 -2.0841  1.0311
   18MOL0     H 2407  12.654   4.127   3.990  0.3989  0.6508  0.0006
   18MOL0     H 2408  12.829   4.216   4.144  0.8013 -0.8297 -0.7175
   18MOL0     H 2409  12.804   4.074   4.248 -2.5299 -1.5302 -0.1667
   18MOL0     H 2410  11.892   4.029   3.934 -0.0223  0.2383  0.6604
   18MOL0     H 2411  11.649   4.028   3.876 -0.4173 -1.1454  0.3169
   18MOL0     H 2412  11.211   4.092   4.009 -1.7779  2.1477 -1.9931
   18MOL0     H 2413  10.969   4.070   3.973  0.3424  0.5530 -1.3548
   18MOL0     H 2414   9.344   3.186   3.199 -0.4107 -0.2629 -1.2386
   18MOL0     H 2415   9.087   3.115   3.176  2.7109 -1.7857 -0.2681
   18MOL0     H 2416   8.734   3.174   3.277  0.1901 -1.8327 -1.2074
   18MOL0     H 2417   8.523   3.093   3.348  1.7751  1.4192  0.6746
   18MOL0     H 2418   8.334   3.032   3.358 -0.2513  0.9864  1.3396
   18MOL0     H 2419   8.165   3.041   3.315  1.3429 -1.9500 -1.4165
   18MOL0     H 2420   8.295   3.271   3.461  0.1009 -0.5071 -1.5212
   18MOL0     H 2421   8.217   3.133   3.549  2.0459  2.1220  1.2938
   18MOL0     H 2422   8.054   3.289   3.339  0.2405  1.6111  0.6948
   18MOL0     H 2423   8.082   3.364   3.489  0.0337 -0.0061 -0.8760
   18MOL0     H 2424   7.864   3.254   3.505 -0.6165 -0.4146  0.0715
   18MOL0     H 2425   7.918   3.116   3.426  0.5304 -0.4179  0.9322
   18MOL0     H 2426   8.049   3.038   3.824  2.8566  1.6246  0.2113
   18MOL0     H 2427   8.343   3.289   3.012  0.5265 -0.7548 -0.9415
   18MOL0     H 2428   8.467   3.392   2.836  0.4159 -1.7195 -0.4619
   18MOL0     H 2429   8.564   3.500   2.919  2.0001 -0.7752 -2.1581
   18MOL0     H 2430   8.627   3.359   2.822 -0.6752 -1.7235 -0.1047
   19MOL0     O 2431   3.125   6.084   8.030 -0.1455  0.5733  0.6454
   19MOL0     C 2432   3.183   5.977   8.018 -0.2128 -0.0041  0.1137
   19MOL0     O 2433   3.142   5.875   7.934  0.2576  0.0908  1.3101
   19MOL0     C 2434   3.023   5.883   7.865  0.7981 -0.2503 -1.0943
   19MOL0     C 2435   3.018   5.887   7.728 -0.6327  0.5161  0.3075
   19MOL0     C 2436   2.907   5.931   7.665 -0.0986 -0.5485  0.4690
   19MOL0     C 2437   2.787   5.957   7.730  0.7137 -0.3614 -0.4460
   19MOL0     O 2438   2.670   5.996   7.678  0.4240 -0.9561  1.0976
   19MOL0     C 2439   2.650   5.959   7.535  1.0547  0.2392  0.3687
   19MOL0     C 2440   2.516   6.004   7.493  0.4846  0.6179 -0.1913
   19MOL0     C 2441   2.397   5.935   7.560 -0.6158 -0.2125  0.3804
   19MOL0     C 2442   2.273   5.997   7.504  0.2441  0.1029  0.3449
   19MOL0     C 2443   2.148   5.927   7.563 -0.3841 -0.7998 -0.2752
   19MOL0     C 2444   2.022   5.948   7.479 -0.3371 -0.1458 -0.5243
   19MOL0     C 2445   2.033   5.860   7.357  0.6100  0.1844 -0.1812
   19MOL0     C 2446   1.899   5.825   7.295 -0.1944  0.2909 -0.2146
   19MOL0     N 2447   1.922   5.739   7.177 -0.8256  0.5984 -0.0877
   19MOL0     C 2448   1.982   5.777   7.061 -0.4904  0.4295  0.4402
   19MOL0     C 2449   1.985   5.663   6.987 -0.0487 -0.2946 -1.2671
   19MOL0     C 2450   2.049   5.651   6.851 -0.4419 -0.1252  0.9443
   19MOL0     C 2451   2.067   5.785   6.779  0.3558  0.7011 -0.2991
   19MOL0     C 2452   2.087   5.763   6.625 -0.1162 -0.3142 -0.9780
   19MOL0     C 2453   2.107   5.896   6.551 -1.4612 -0.4146 -0.3611
   19MOL0     O 2454   2.215   5.968   6.616  0.2314  0.6419 -0.1631
   19MOL0     C 2455   2.343   5.925   6.601 -0.3570 -0.4094 -0.9779
   19MOL0     C 2456   2.435   5.914   6.707 -0.3606 -0.4277 -0.6550
   19MOL0     C 2457   2.558   5.855   6.698 -0.6708 -0.1871  0.3607
   19MOL0     C 2458   2.606   5.822   6.579 -0.5124 -0.0919  0.3659
   19MOL0     C 2459   2.737   5.760   6.565  0.7918 -0.7729 -0.4567
   19MOL0     O 2460   2.800   5.731   6.692  0.4058 -0.1082  0.5053
   19MOL0     C 2461   2.936   5.694   6.699  0.2779  0.5400  1.2132
   19MOL0     C 2462   2.969   5.596   6.796 -1.0003  0.1690  0.2993
   19MOL0     C 2463   3.098   5.540   6.814  0.3084 -0.1643  0.2549
   19MOL0     C 2464   3.198   5.590   6.727 -0.0541  0.1820  0.0382
   19MOL0     O 2465   3.320   5.521   6.712 -0.1502  0.1598  0.0054
   19MOL0     C 2466   3.441   5.604   6.726  0.6773  0.5113  0.0257
   19MOL0     C 2467   3.568   5.534   6.742 -0.1395 -0.1766  0.6169
   19MOL0     C 2468   3.570   5.441   6.866  0.4095 -0.0980  0.1409
   19MOL0     C 2469   3.716   5.385   6.887 -0.7863  0.9584  0.3683
   19MOL0     C 2470   3.721   5.276   6.994 -0.2633  0.0025 -0.0446
   19MOL0     C 2471   3.873   5.247   7.037 -0.3387  0.0611 -0.3504
   19MOL0     C 2472   3.887   5.133   7.130 -0.7372 -0.5344 -0.9007
   19MOL0     C 2473   4.029   5.077   7.144  0.1459 -0.9135  1.1522
   19MOL0    Cl 2474   4.137   5.195   7.237  0.3559 -0.0930  0.1650
   19MOL0     C 2475   3.165   5.690   6.630 -0.3190 -0.2492  0.4245
   19MOL0     C 2476   3.038   5.744   6.627 -0.5200 -0.8990  0.2989
   19MOL0     O 2477   2.779   5.721   6.462  0.2551  0.2115  0.0339
   19MOL0     C 2478   2.526   5.832   6.461  0.4841  0.0631 -1.4956
   19MOL0     C 2479   2.391   5.873   6.479  0.2792 -0.4468 -0.0061
   19MOL0     N 2480   1.927   5.560   7.059 -0.4491  0.5110  0.4228
   19MOL0     N 2481   1.879   5.610   7.167  0.0482  0.0062  0.6266
   19MOL0     C 2482   2.776   5.936   7.873 -0.7003 -0.9691  0.5072
   19MOL0     C 2483   2.902   5.912   7.940  0.6877  1.0309  0.3784
   19MOL0     C 2484   3.305   5.943   8.097 -0.1155 -0.0212 -0.3035
   19MOL0     C 2485   3.360   5.814   8.084 -0.7659  0.0354 -0.7584
   19MOL0     C 2486   3.469   5.772   8.158 -0.1202 -0.6145  1.0259
   19MOL0     C 2487   3.531   5.859   8.245  0.1701  0.5593 -0.1739
   19MOL0     O 2488   3.637   5.801   8.315 -0.1485  0.6107 -0.0268
   19MOL0     C 2489   3.729   5.884   8.378 -0.4246  0.1340  0.0194
   19MOL0     C 2490   3.875   5.833   8.364 -0.2889 -0.7330  0.6882
   19MOL0     C 2491   3.961   5.880   8.485 -0.3703 -0.1147  0.2587
   19MOL0     C 2492   4.106   5.840   8.455 -0.1819 -0.4740  0.4854
   19MOL0     C 2493   4.165   5.940   8.369 -0.1625 -1.0754  0.0010
   19MOL0     C 2494   4.202   6.017   8.284  0.2282  0.3334 -0.0594
   19MOL0     C 2495   3.481   5.993   8.255 -0.6921  0.0774 -0.2061
   19MOL0     C 2496   3.376   6.039   8.179 -0.2831 -0.2452  0.1182
   19MOL0     C 2497   3.326   6.178   8.203  0.4507 -0.6150  0.2968
   19MOL0     H 2498   3.117   5.871   7.687 -1.0803 -0.5120 -0.4131
   19MOL0     H 2499   2.915   5.954   7.559 -2.3998 -1.8270 -0.0573
   19MOL0     H 2500   2.725   6.008   7.472  0.7221  0.5684  0.2271
   19MOL0     H 2501   2.648   5.851   7.520  0.4603  0.4807 -1.5521
   19MOL0     H 2502   2.511   5.991   7.384  0.2835 -1.0924  0.0013
   19MOL0     H 2503   2.526   6.111   7.515  2.2572  0.7292 -1.2825
   19MOL0     H 2504   2.383   5.931   7.668  0.1453 -0.3089  0.4798
   19MOL0     H 2505   2.411   5.833   7.524  1.3407  0.0645  0.2175
   19MOL0     H 2506   2.275   6.102   7.537 -1.4383  0.3333 -0.1856
   19MOL0     H 2507   2.272   6.003   7.395  1.6543  2.0983  0.3781
   19MOL0     H 2508   2.171   5.820   7.564 -2.3779 -1.2576  0.2268
   19MOL0     H 2509   2.141   5.973   7.662 -0.6595  2.5481 -1.7027
   19MOL0     H 2510   1.935   5.924   7.541  0.4123  0.5767  0.8564
   19MOL0     H 2511   2.011   6.051   7.445 -0.9855 -0.7215 -2.1126
   19MOL0     H 2512   2.087   5.769   7.382  2.5623  1.7492  1.7126
   19MOL0     H 2513   2.096   5.900   7.276  1.9406 -0.6797  0.3943
   19MOL0     H 2514   1.830   5.784   7.369  0.0071  0.5442  0.1167
   19MOL0     H 2515   1.859   5.915   7.250  1.7148  1.1243 -0.3638
   19MOL0     H 2516   2.019   5.875   7.032  0.4261  0.3559  1.3221
   19MOL0     H 2517   2.151   5.613   6.864  0.2750  0.8645 -1.2172
   19MOL0     H 2518   1.981   5.591   6.789  1.1504  1.4966 -2.6827
   19MOL0     H 2519   1.972   5.838   6.782 -0.8504 -1.3074 -1.0018
   19MOL0     H 2520   2.154   5.836   6.822  0.7159 -0.3771  0.2781
   19MOL0     H 2521   2.000   5.721   6.573 -1.4886  1.8137 -0.5170
   19MOL0     H 2522   2.175   5.700   6.608 -0.2901 -1.2514  1.2078
   19MOL0     H 2523   2.017   5.957   6.565 -1.7649 -0.1821 -2.8078
   19MOL0     H 2524   2.132   5.887   6.444  1.0049  2.4889 -0.1637
   19MOL0     H 2525   2.407   5.947   6.806  1.3112  5.5523 -1.8080
   19MOL0     H 2526   2.620   5.851   6.788 -2.0598  0.3032  1.3611
   19MOL0     H 2527   2.890   5.567   6.864 -1.3394 -1.5621 -0.7646
   19MOL0     H 2528   3.111   5.460   6.886  2.3116 -3.1811 -3.0882
   19MOL0     H 2529   3.448   5.677   6.645 -2.2607  3.2112  1.9585
   19MOL0     H 2530   3.424   5.663   6.817 -1.2309 -2.7851  1.9998
   19MOL0     H 2531   3.592   5.468   6.658  0.2252  1.7988 -0.8966
   19MOL0     H 2532   3.652   5.605   6.738 -0.6994  0.4471 -2.6514
   19MOL0     H 2533   3.543   5.501   6.953  0.6413  0.2675 -0.0359
   19MOL0     H 2534   3.490   5.367   6.863 -0.8892  1.1784  1.6854
   19MOL0     H 2535   3.794   5.458   6.913 -0.4619  0.8599 -0.2908
   19MOL0     H 2536   3.741   5.326   6.798 -0.5824  1.8039 -0.1504
   19MOL0     H 2537   3.672   5.189   6.950 -0.2387 -0.2881  0.4872
   19MOL0     H 2538   3.666   5.304   7.085  4.1642  0.6909  2.7610
   19MOL0     H 2539   3.918   5.226   6.939 -0.8546 -0.2615 -0.5214
   19MOL0     H 2540   3.925   5.337   7.071  1.5025 -1.5794  1.4585
   19MOL0     H 2541   3.828   5.052   7.086 -0.8163 -0.3682 -1.1024
   19MOL0     H 2542   3.839   5.154   7.226  1.1987  1.0396 -0.2136
   19MOL0     H 2543   4.020   4.976   7.185 -3.3894 -0.5147  1.6401
   19MOL0     H 2544   4.071   5.063   7.043 -2.0883 -1.3100  0.2289
   19MOL0     H 2545   3.230   5.715   6.547  0.0696 -0.2427  0.7254
   19MOL0     H 2546   3.022   5.822   6.554 -0.0035 -1.3446 -0.2956
   19MOL0     H 2547   2.562   5.809   6.361  2.0340 -2.3176 -0.4729
   19MOL0     H 2548   2.329   5.872   6.390  1.6940  0.8119 -1.0644
   19MOL0     H 2549   2.688   5.966   7.929 -2.3018  1.2034 -2.8290
   19MOL0     H 2550   2.910   5.912   8.048  3.1282  2.9040  0.2745
   19MOL0     H 2551   3.319   5.744   8.012  2.8052 -4.6542  1.2265
   19MOL0     H 2552   3.503   5.669   8.163  0.0843 -0.7182 -1.2545
   19MOL0     H 2553   3.698   5.885   8.482 -0.8719 -0.1518 -0.1085
   19MOL0     H 2554   3.718   5.989   8.347 -1.8915  1.0858  3.3545
   19MOL0     H 2555   3.925   5.845   8.268  3.1686  1.0676  2.5283
   19MOL0     H 2556   3.876   5.725   8.377 -0.5439 -1.3036 -2.9242
   19MOL0     H 2557   3.930   5.826   8.574 -2.0407 -1.1048 -0.8645
   19MOL0     H 2558   3.958   5.988   8.501 -0.8816 -0.4843  3.0338
   19MOL0     H 2559   4.169   5.845   8.545  0.8561  0.1660 -0.2557
   19MOL0     H 2560   4.104   5.735   8.425 -2.7236 -1.1359  2.5544
   19MOL0     H 2561   4.236   6.090   8.213 -0.0695 -0.3205 -0.8863
   19MOL0     H 2562   3.538   6.067   8.310  1.3324  2.2712 -4.6684
   19MOL0     H 2563   3.317   6.220   8.102  2.5089 -2.9364 -0.9616
   19MOL0     H 2564   3.222   6.173   8.236 -0.3903  0.8852 -1.8681
   19MOL0     H 2565   3.388   6.244   8.264  0.6698 -0.5505  0.0078
   20MOL0     O 2566   7.685   3.678   3.958  0.0512  0.1345  0.2193
   20MOL0     C 2567   7.773   3.602   3.915  0.3248 -0.7520  0.4716
   20MOL0     O 2568   7.741   3.491   3.841 -0.7374  0.4652  0.4787
   20MOL0     C 2569   7.629   3.490   3.763  0.3901 -0.0840  0.4440
   20MOL0     C 2570   7.637   3.473   3.622  0.1171  0.6673 -1.1846
   20MOL0     C 2571   7.521   3.470   3.541  0.5887  0.3889 -0.1464
   20MOL0     C 2572   7.395   3.494   3.595 -0.5745 -0.2166 -0.9431
   20MOL0     O 2573   7.283   3.505   3.513 -0.5920  0.2342  1.0667
   20MOL0     C 2574   7.151   3.518   3.575  0.3184 -0.6447  0.1704
   20MOL0     C 2575   7.097   3.382   3.612  0.1521  0.5087  0.2514
   20MOL0     C 2576   6.974   3.394   3.703  0.3386  0.5566 -0.4809
   20MOL0     C 2577   7.006   3.413   3.851 -0.9417  0.7137  0.1354
   20MOL0     C 2578   6.899   3.344   3.936  0.6461  0.8680  0.0844
   20MOL0     C 2579   6.922   3.197   3.951 -1.0829 -0.2767 -0.1091
   20MOL0     C 2580   6.814   3.145   4.045  0.7438 -0.1039 -0.9679
   20MOL0     C 2581   6.827   2.996   4.087 -0.4283  0.1149  0.5918
   20MOL0     N 2582   6.714   2.936   4.154 -0.2912 -0.0758 -0.7141
   20MOL0     C 2583   6.583   2.952   4.125 -0.4918  1.0256  0.8164
   20MOL0     C 2584   6.514   2.905   4.222  0.3964 -0.0212 -0.0510
   20MOL0     C 2585   6.364   2.930   4.234  0.1841  0.0101  0.2043
   20MOL0     C 2586   6.319   3.060   4.308 -0.2964 -0.1256 -0.3279
   20MOL0     C 2587   6.352   3.183   4.227  0.0316 -0.9630  0.3464
   20MOL0     C 2588   6.304   3.318   4.294  0.1549 -0.6794  0.0417
   20MOL0     O 2589   6.357   3.446   4.233 -0.0451 -0.0909  0.1459
   20MOL0     C 2590   6.492   3.474   4.240  0.4102  0.2495 -0.2933
   20MOL0     C 2591   6.519   3.596   4.172 -0.0409  0.4647 -0.4106
   20MOL0     C 2592   6.655   3.631   4.161 -0.0228  0.4841 -0.8820
   20MOL0     C 2593   6.753   3.568   4.232 -0.7535  0.0830 -0.8337
   20MOL0     C 2594   6.887   3.612   4.215  0.0515 -0.7341  0.3090
   20MOL0     O 2595   6.905   3.732   4.149  0.0748  0.1452 -0.0458
   20MOL0     C 2596   7.030   3.774   4.112  0.4605 -0.7036  0.1616
   20MOL0     C 2597   7.033   3.908   4.086 -0.2369 -0.0017 -0.0284
   20MOL0     C 2598   7.144   3.963   4.023 -0.5823 -0.0984 -0.7566
   20MOL0     C 2599   7.255   3.889   3.977  0.3688 -0.0922  0.4208
   20MOL0     O 2600   7.346   3.955   3.903 -0.4050 -0.2472  0.1402
   20MOL0     C 2601   7.488   3.935   3.930  0.6729 -0.2191 -0.0527
   20MOL0     C 2602   7.578   4.056   3.885 -0.0820 -0.7691 -0.3137
   20MOL0     C 2603   7.728   4.016   3.878 -0.6019  0.6308  0.4172
   20MOL0     C 2604   7.821   4.136   3.865  0.0904 -0.3096 -0.5490
   20MOL0     C 2605   7.964   4.086   3.874  0.1921 -0.4375 -0.1677
   20MOL0     C 2606   8.059   4.200   3.894  0.0686  0.2192  0.1826
   20MOL0     C 2607   8.205   4.149   3.938 -0.4161 -0.3894  0.3702
   20MOL0     C 2608   8.303   4.257   3.900 -0.0137 -0.3555  0.3634
   20MOL0    Cl 2609   8.359   4.247   3.736  0.1950 -0.3709  0.2426
   20MOL0     C 2610   7.256   3.750   4.017 -0.3066 -0.3544  0.8270
   20MOL0     C 2611   7.144   3.698   4.085 -0.0532 -0.2895  0.6270
   20MOL0     O 2612   6.979   3.545   4.268  0.6044  0.0712 -0.2450
   20MOL0     C 2613   6.725   3.456   4.314  0.1464  0.6942  0.1374
   20MOL0     C 2614   6.594   3.405   4.311 -0.3731 -0.0554 -0.0295
   20MOL0     N 2615   6.603   2.839   4.313 -0.8429 -1.0455 -0.0873
   20MOL0     N 2616   6.721   2.864   4.271  0.5317  0.7101 -0.2309
   20MOL0     C 2617   7.389   3.508   3.739  0.4031 -0.5808  0.1286
   20MOL0     C 2618   7.503   3.506   3.821  0.4675  0.1631 -0.2887
   20MOL0     C 2619   7.912   3.638   3.947 -0.6178  0.1376  0.5567
   20MOL0     C 2620   7.929   3.713   4.061 -0.2097 -0.6287 -0.2410
   20MOL0     C 2621   8.052   3.760   4.091  0.0582 -0.9051  0.0571
   20MOL0     C 2622   8.164   3.735   4.018 -0.1524 -1.0426  0.0174
   20MOL0     O 2623   8.283   3.796   4.048 -0.6656 -0.0157 -0.4580
   20MOL0     C 2624   8.405   3.759   3.984  0.7560 -0.3812 -0.3761
   20MOL0     C 2625   8.432   3.816   3.850  0.0893  0.2168  0.0315
   20MOL0     C 2626   8.529   3.940   3.854  0.1126 -0.1652 -0.1707
   20MOL0     C 2627   8.674   3.905   3.900  0.4790 -0.4080  0.1420
   20MOL0     C 2628   8.756   4.007   3.840 -0.0271  0.1493 -0.6215
   20MOL0     C 2629   8.839   4.074   3.784  0.2243 -0.0655  0.0256
   20MOL0     C 2630   8.156   3.645   3.912  0.5186 -0.4235  0.7453
   20MOL0     C 2631   8.033   3.596   3.876  0.4081 -0.2807 -0.5439
   20MOL0     C 2632   8.020   3.516   3.754  0.7037  0.3913 -0.1505
   20MOL0     H 2633   7.726   3.449   3.565  0.9531  0.8279  0.0297
   20MOL0     H 2634   7.528   3.443   3.436 -2.2173 -0.2846 -0.2395
   20MOL0     H 2635   7.156   3.593   3.654  1.0257 -0.1955 -0.2931
   20MOL0     H 2636   7.088   3.565   3.498  1.7547  0.9435 -0.0837
   20MOL0     H 2637   7.178   3.326   3.659 -3.1420 -2.2447  3.1631
   20MOL0     H 2638   7.076   3.338   3.514  1.0702  0.2852  0.1475
   20MOL0     H 2639   6.900   3.315   3.686  0.8060  0.5624 -3.0254
   20MOL0     H 2640   6.916   3.477   3.662 -1.2139 -1.2857 -2.2730
   20MOL0     H 2641   7.108   3.378   3.870 -0.8350  1.0707  0.2291
   20MOL0     H 2642   6.991   3.518   3.876 -0.6311  0.9075 -0.4943
   20MOL0     H 2643   6.898   3.385   4.038  2.4659  1.3287 -0.0516
   20MOL0     H 2644   6.803   3.367   3.889  0.5264 -0.0063 -0.1204
   20MOL0     H 2645   6.932   3.148   3.854  1.2356 -1.4551  0.6511
   20MOL0     H 2646   7.023   3.179   3.989 -2.0890 -3.4693  1.4421
   20MOL0     H 2647   6.716   3.166   4.001  0.7511  0.6632 -0.6505
   20MOL0     H 2648   6.800   3.202   4.137 -1.7902 -2.9804  0.5679
   20MOL0     H 2649   6.843   2.940   3.995  0.0785  1.1740  0.0083
   20MOL0     H 2650   6.922   2.996   4.140 -0.7731 -0.2665  1.2209
   20MOL0     H 2651   6.536   3.004   4.043  1.5596  0.5588 -0.7394
   20MOL0     H 2652   6.313   2.943   4.138 -0.5696  1.6340  0.7821
   20MOL0     H 2653   6.322   2.844   4.287 -0.1444 -1.1925 -1.9019
   20MOL0     H 2654   6.218   3.058   4.348 -0.7072 -3.6997 -1.2406
   20MOL0     H 2655   6.385   3.066   4.396 -0.5231 -1.7207 -0.0282
   20MOL0     H 2656   6.307   3.174   4.127 -2.6557 -2.3909  1.5678
   20MOL0     H 2657   6.461   3.190   4.219 -0.0365  0.5854  0.3379
   20MOL0     H 2658   6.333   3.319   4.399 -1.8361 -2.2922  0.6787
   20MOL0     H 2659   6.195   3.328   4.292  0.0897 -1.2790  0.4460
   20MOL0     H 2660   6.440   3.649   4.119  0.0440  2.6926  1.5223
   20MOL0     H 2661   6.677   3.707   4.088 -0.0917  1.1590 -0.2148
   20MOL0     H 2662   6.949   3.977   4.089  0.7790  1.3505 -1.3819
   20MOL0     H 2663   7.146   4.070   4.007 -1.8844 -0.0488 -0.6769
   20MOL0     H 2664   7.502   3.906   4.034 -1.4754 -3.4140 -0.4773
   20MOL0     H 2665   7.524   3.849   3.871  0.7776  0.0309 -0.3590
   20MOL0     H 2666   7.549   4.105   3.792  0.3630  0.7225  0.2831
   20MOL0     H 2667   7.569   4.124   3.971  0.0664 -1.9755  0.6856
   20MOL0     H 2668   7.744   3.950   3.964  1.3668 -0.5486 -0.7808
   20MOL0     H 2669   7.749   3.956   3.789 -0.4585 -0.7379  1.3438
   20MOL0     H 2670   7.786   4.201   3.944 -0.2430 -1.9488  0.7084
   20MOL0     H 2671   7.792   4.193   3.776  0.4238 -0.6428 -0.8794
   20MOL0     H 2672   7.997   4.038   3.782 -0.9723 -1.7494  0.0548
   20MOL0     H 2673   7.983   4.017   3.957 -1.3966 -0.0509  0.5740
   20MOL0     H 2674   8.057   4.266   3.807 -0.0574 -1.4622 -1.1378
   20MOL0     H 2675   8.022   4.262   3.977 -1.5345  0.3527 -0.5970
   20MOL0     H 2676   8.237   4.056   3.890  0.0669 -0.4988  0.8807
   20MOL0     H 2677   8.214   4.132   4.046  0.4113  1.6386  0.6619
   20MOL0     H 2678   8.258   4.354   3.925 -1.4247 -0.4350 -1.6750
   20MOL0     H 2679   8.390   4.245   3.965 -1.3175 -4.8193  1.7018
   20MOL0     H 2680   7.332   3.678   3.990  0.2875  0.1914  1.0290
   20MOL0     H 2681   7.150   3.590   4.082 -0.8350 -0.3856  1.8708
   20MOL0     H 2682   6.797   3.409   4.380 -1.1988 -0.2911  0.9590
   20MOL0     H 2683   6.567   3.320   4.373 -3.3008  1.2158  0.6015
   20MOL0     H 2684   7.296   3.522   3.793 -0.2118  0.8013 -1.2051
   20MOL0     H 2685   7.495   3.521   3.928  1.9548  0.2890 -0.1686
   20MOL0     H 2686   7.845   3.738   4.124  0.5193  2.9589 -0.4826
   20MOL0     H 2687   8.067   3.827   4.176 -4.0232  2.0093 -1.1657
   20MOL0     H 2688   8.414   3.652   4.001 -1.7876 -0.5604  0.2761
   20MOL0     H 2689   8.480   3.802   4.051 -0.3001 -1.0260  1.2996
   20MOL0     H 2690   8.342   3.854   3.801 -0.1967 -2.5840 -1.8406
   20MOL0     H 2691   8.476   3.741   3.783  1.9131 -0.4801  1.8997
   20MOL0     H 2692   8.487   4.011   3.925 -1.8599  1.4304 -2.7823
   20MOL0     H 2693   8.523   3.994   3.760  2.2164 -1.0716 -0.9002
   20MOL0     H 2694   8.688   3.912   4.008  0.3056 -3.7693  0.4904
   20MOL0     H 2695   8.713   3.810   3.864 -2.9022 -1.9282  0.1462
   20MOL0     H 2696   8.918   4.121   3.729 -2.8069 -0.8754 -5.9522
   20MOL0     H 2697   8.243   3.621   3.851  0.5606 -1.3541  1.1528
   20MOL0     H 2698   7.944   3.557   3.687  1.2145  0.8755 -0.4386
   20MOL0     H 2699   8.115   3.493   3.706  1.4114  1.4947  0.6942
   20MOL0     H 2700   7.977   3.424   3.796  0.4088  0.3766 -0.4752
   21MOL0     O 2701   1.699   2.322   0.856 -0.5547 -0.4306  0.2998
   21MOL0     C 2702   1.713   2.374   0.966 -0.7260 -0.7308  0.4696
   21MOL0     O 2703   1.838   2.398   1.028  0.6447 -0.3863 -0.5482
   21MOL0     C 2704   1.961   2.407   0.960  0.3003 -0.5248 -0.0743
   21MOL0     C 2705   2.061   2.451   1.039  0.2400  0.0228  0.2278
   21MOL0     C 2706   2.191   2.486   0.993 -0.3232  0.6418  0.6127
   21MOL0     C 2707   2.219   2.457   0.860  0.6731 -0.4575 -0.4388
   21MOL0     O 2708   2.342   2.483   0.806  0.1755 -0.6148  0.7549
   21MOL0     C 2709   2.463   2.497   0.888 -0.4010 -0.4569  0.5238
   21MOL0     C 2710   2.583   2.479   0.792  0.0184 -0.4852  0.1317
   21MOL0     C 2711   2.731   2.482   0.851  0.2187 -0.9377  0.9272
   21MOL0     C 2712   2.761   2.371   0.943  0.4246 -0.2347  0.8961
   21MOL0     C 2713   2.891   2.373   1.005  0.1897 -0.1298 -0.1153
   21MOL0     C 2714   3.005   2.346   0.904  0.5643 -0.4828 -0.0625
   21MOL0     C 2715   3.128   2.304   0.982 -0.4141  0.9633  0.4285
   21MOL0     C 2716   3.136   2.164   1.056 -0.1387 -0.5006 -0.3410
   21MOL0     N 2717   3.152   2.059   0.957 -0.5361 -0.0163 -0.3764
   21MOL0     C 2718   3.059   2.001   0.871 -0.0750 -0.3639 -0.1729
   21MOL0     C 2719   3.128   1.915   0.802 -0.7579 -0.0908  0.1433
   21MOL0     C 2720   3.082   1.820   0.699  0.2259  0.2636  0.2372
   21MOL0     C 2721   2.951   1.854   0.631  0.3377 -0.5183  0.4466
   21MOL0     C 2722   2.916   1.784   0.495  0.3571 -0.4379  0.0791
   21MOL0     C 2723   2.905   1.637   0.500 -0.1766 -0.2919  0.5566
   21MOL0     O 2724   2.822   1.583   0.610  1.1623  0.0014  0.0030
   21MOL0     C 2725   2.685   1.601   0.611  0.0373 -0.4738  0.4712
   21MOL0     C 2726   2.626   1.535   0.713  0.3305 -0.1411  0.0506
   21MOL0     C 2727   2.487   1.536   0.727  0.1204  0.0523  0.0738
   21MOL0     C 2728   2.406   1.599   0.634  0.2972  0.2447 -0.4818
   21MOL0     C 2729   2.260   1.563   0.640 -0.0464 -0.5731  0.1310
   21MOL0     O 2730   2.177   1.653   0.578  0.2355  0.4271 -0.2618
   21MOL0     C 2731   2.048   1.615   0.579  1.4180  0.3677 -0.2650
   21MOL0     C 2732   1.957   1.695   0.643 -0.2016 -0.2402  0.0006
   21MOL0     C 2733   1.816   1.662   0.625  0.7212 -0.4557 -0.2018
   21MOL0     C 2734   1.772   1.547   0.559 -0.1987 -0.1755 -0.9204
   21MOL0     O 2735   1.637   1.529   0.553  0.8872  0.6451  0.7484
   21MOL0     C 2736   1.597   1.392   0.566  0.8708  1.1045 -0.5445
   21MOL0     C 2737   1.435   1.390   0.577  0.0091  0.0641 -0.0212
   21MOL0     C 2738   1.367   1.450   0.698  0.2945 -0.3104  0.0033
   21MOL0     C 2739   1.218   1.475   0.670  0.1886 -0.3705  0.4044
   21MOL0     C 2740   1.149   1.518   0.791 -0.0168 -0.4196  0.6092
   21MOL0     C 2741   1.002   1.554   0.777  0.8158 -0.5154  0.4474
   21MOL0     C 2742   0.913   1.565   0.912 -0.0034 -0.3753 -0.0025
   21MOL0     C 2743   0.757   1.581   0.883  0.1183 -1.0166 -0.6499
   21MOL0    Cl 2744   0.680   1.431   0.848 -0.0023  0.2631  0.3565
   21MOL0     C 2745   1.870   1.479   0.487 -0.6170  0.6268 -0.1227
   21MOL0     C 2746   2.004   1.514   0.502  0.0038  0.0963 -0.5629
   21MOL0     O 2747   2.216   1.467   0.702  0.3577  0.0194 -0.0262
   21MOL0     C 2748   2.466   1.661   0.526  0.5290  0.1205  0.2881
   21MOL0     C 2749   2.605   1.663   0.512 -0.8744 -0.5298  0.1729
   21MOL0     N 2750   3.259   1.906   0.836 -0.2720  0.3695 -0.1169
   21MOL0     N 2751   3.276   1.998   0.934  0.5723 -0.4256  0.1042
   21MOL0     C 2752   2.124   2.409   0.775  0.8368  0.2322  0.1285
   21MOL0     C 2753   1.989   2.382   0.822  0.8574  0.1071  0.5724
   21MOL0     C 2754   1.591   2.392   1.038 -0.2730  0.6225 -0.9004
   21MOL0     C 2755   1.472   2.427   0.978 -0.4235 -0.3331  0.2203
   21MOL0     C 2756   1.351   2.438   1.045  0.2694  0.2347 -0.5297
   21MOL0     C 2757   1.345   2.424   1.181  0.1167 -0.5035 -0.1531
   21MOL0     O 2758   1.221   2.434   1.234  0.1329 -0.2410 -0.3171
   21MOL0     C 2759   1.189   2.329   1.327  0.9461  0.0224  0.4338
   21MOL0     C 2760   1.192   2.197   1.253 -0.1579  0.6964 -0.1592
   21MOL0     C 2761   1.068   2.162   1.175 -0.4501 -0.6733 -0.0155
   21MOL0     C 2762   1.088   2.022   1.110  0.3024 -0.8646  0.1168
   21MOL0     C 2763   1.100   1.916   1.209  0.3545 -0.6776  0.9554
   21MOL0     C 2764   1.098   1.827   1.289  0.9346  0.1440  0.9031
   21MOL0     C 2765   1.466   2.397   1.245  0.3215  0.0160 -0.4417
   21MOL0     C 2766   1.588   2.375   1.179 -0.7753 -0.3605 -0.4500
   21MOL0     C 2767   1.709   2.345   1.266  0.3342 -0.1518  0.4703
   21MOL0     H 2768   2.031   2.479   1.140 -0.5245 -1.5891  0.4701
   21MOL0     H 2769   2.268   2.532   1.054  0.9654 -1.9603  1.0811
   21MOL0     H 2770   2.480   2.597   0.930  2.8979  0.1485 -1.8779
   21MOL0     H 2771   2.459   2.417   0.962  2.6892 -0.0079  1.2853
   21MOL0     H 2772   2.570   2.562   0.722 -0.9272 -0.1751  0.6664
   21MOL0     H 2773   2.555   2.387   0.739 -2.2125  0.8497 -1.1639
   21MOL0     H 2774   2.753   2.572   0.908 -1.6778  0.2037 -0.0374
   21MOL0     H 2775   2.802   2.490   0.768 -0.3232  0.3377  0.5645
   21MOL0     H 2776   2.681   2.364   1.018 -1.3292 -1.2770 -0.9869
   21MOL0     H 2777   2.761   2.274   0.892  0.4410 -0.5491  1.4774
   21MOL0     H 2778   2.913   2.472   1.046 -3.1219 -0.5315  3.2117
   21MOL0     H 2779   2.885   2.307   1.093 -1.3321 -1.1521 -0.9376
   21MOL0     H 2780   2.974   2.274   0.828 -0.9462  1.4551 -1.3816
   21MOL0     H 2781   3.035   2.437   0.851 -1.0577  0.2040  0.1403
   21MOL0     H 2782   3.151   2.383   1.053 -0.3823  1.9684 -0.6770
   21MOL0     H 2783   3.217   2.295   0.919 -1.7901  2.4173 -1.8651
   21MOL0     H 2784   3.215   2.170   1.132 -1.8368 -0.0114  1.4499
   21MOL0     H 2785   3.039   2.147   1.102 -0.6451 -1.2322 -1.6542
   21MOL0     H 2786   2.953   2.026   0.866 -0.1219 -0.6004 -0.3495
   21MOL0     H 2787   3.153   1.820   0.616  0.7729 -1.2299  0.6565
   21MOL0     H 2788   3.081   1.717   0.737 -1.6636  0.7665  1.7004
   21MOL0     H 2789   2.875   1.843   0.708  0.6115  0.7649  0.9268
   21MOL0     H 2790   2.960   1.960   0.604  0.0215 -0.5639  0.1605
   21MOL0     H 2791   3.003   1.807   0.432 -0.4566 -2.3660 -1.8425
   21MOL0     H 2792   2.829   1.837   0.456  0.4293  1.0709  1.8027
   21MOL0     H 2793   3.002   1.587   0.509  0.0211  0.0822  0.5073
   21MOL0     H 2794   2.865   1.617   0.400 -1.0756 -2.7855  1.3390
   21MOL0     H 2795   2.685   1.485   0.789  1.4188  0.9915 -0.0129
   21MOL0     H 2796   2.440   1.491   0.813  1.2753 -0.8710  0.2474
   21MOL0     H 2797   1.983   1.779   0.706 -3.4306  0.4220  0.6487
   21MOL0     H 2798   1.745   1.715   0.687  1.2565 -1.1021  0.9935
   21MOL0     H 2799   1.634   1.336   0.479  0.5599  0.5476 -0.3258
   21MOL0     H 2800   1.644   1.352   0.657 -2.2713 -2.1666 -0.1339
   21MOL0     H 2801   1.404   1.441   0.485 -0.2661  0.3169  0.2040
   21MOL0     H 2802   1.394   1.289   0.575 -1.8755  0.7872 -0.9597
   21MOL0     H 2803   1.362   1.373   0.776 -0.8869 -0.2638 -0.0062
   21MOL0     H 2804   1.411   1.538   0.745  2.8924 -0.8396 -1.3046
   21MOL0     H 2805   1.166   1.384   0.638 -1.5863  0.5658  0.4806
   21MOL0     H 2806   1.207   1.553   0.594 -0.0747  1.3465  2.1352
   21MOL0     H 2807   1.189   1.613   0.827 -1.0166 -0.6939  2.5569
   21MOL0     H 2808   1.167   1.444   0.870  0.9365 -1.0391 -0.1593
   21MOL0     H 2809   0.996   1.655   0.735  2.8114 -0.9850 -1.0908
   21MOL0     H 2810   0.954   1.490   0.703 -0.7117  2.1601 -1.0452
   21MOL0     H 2811   0.944   1.648   0.975 -1.9598  1.6003 -1.5056
   21MOL0     H 2812   0.939   1.471   0.963  2.8805  0.8253  0.8978
   21MOL0     H 2813   0.708   1.619   0.973  1.0051 -0.9499 -0.1824
   21MOL0     H 2814   0.742   1.663   0.812  1.8634  0.3230  0.4316
   21MOL0     H 2815   1.845   1.391   0.429 -1.1400 -0.4482  1.6592
   21MOL0     H 2816   2.085   1.458   0.455 -0.5083 -2.8324  1.7572
   21MOL0     H 2817   2.414   1.711   0.445  1.3020 -1.9580 -1.6235
   21MOL0     H 2818   2.652   1.714   0.429 -0.0412  0.6993  1.3606
   21MOL0     H 2819   2.156   2.396   0.672  0.8609  0.5728  0.0897
   21MOL0     H 2820   1.913   2.345   0.754  0.9085  0.0909  0.5241
   21MOL0     H 2821   1.471   2.423   0.870  0.7283 -3.7860  0.2336
   21MOL0     H 2822   1.258   2.442   0.990  0.2420  0.0982 -0.4923
   21MOL0     H 2823   1.087   2.341   1.364  0.6195 -1.7647  0.1809
   21MOL0     H 2824   1.263   2.334   1.408 -0.3753 -0.3318  1.7080
   21MOL0     H 2825   1.198   2.122   1.332 -0.6430  1.5094  0.6810
   21MOL0     H 2826   1.282   2.181   1.194 -0.0314  2.7846 -0.6327
   21MOL0     H 2827   1.036   2.240   1.104  1.0851  2.0258  2.0616
   21MOL0     H 2828   0.984   2.156   1.245  0.5012  2.3660  1.5369
   21MOL0     H 2829   0.999   1.996   1.053  0.8130 -1.8327 -0.2649
   21MOL0     H 2830   1.176   2.015   1.046  0.4608  0.3492  0.1847
   21MOL0     H 2831   1.106   1.748   1.361  3.3622  0.1934  0.7743
   21MOL0     H 2832   1.458   2.395   1.353  3.8398 -0.5170 -0.0705
   21MOL0     H 2833   1.676   2.322   1.367 -0.3597  2.3870  0.8896
   21MOL0     H 2834   1.768   2.260   1.231  0.2780 -0.1958  0.4826
   21MOL0     H 2835   1.772   2.435   1.270 -0.2472  0.2447  0.9255
   22MOL0     O 2836   6.413  10.302   6.827 -0.0288 -0.7678  0.5035
   22MOL0     C 2837   6.346  10.282   6.726  0.4544 -0.4906 -0.5524
   22MOL0     O 2838   6.394  10.267   6.597  0.3361  0.4557 -0.1511
   22MOL0     C 2839   6.528  10.278   6.568  0.9975  0.0209  0.0570
   22MOL0     C 2840   6.577  10.393   6.620 -0.1336 -0.1004  0.0913
   22MOL0     C 2841   6.711  10.425   6.605  0.2572 -0.5476  0.3611
   22MOL0     C 2842   6.797  10.348   6.521  0.0848 -0.7494  0.4181
   22MOL0     O 2843   6.922  10.388   6.487 -0.2592 -0.7860 -1.3780
   22MOL0     C 2844   6.971  10.375   6.350 -0.2081 -0.4108  0.4713
   22MOL0     C 2845   7.124  10.421   6.342  0.2517 -0.0359  0.1327
   22MOL0     C 2846   7.136  10.570   6.339 -1.2318 -0.1004  0.1740
   22MOL0     C 2847   7.289  10.610   6.332 -0.6563  0.1507 -0.6663
   22MOL0     C 2848   7.292  10.762   6.311  0.3399  0.5791 -0.8323
   22MOL0     C 2849   7.435  10.799   6.287  0.0710  0.2232 -0.0621
   22MOL0     C 2850   7.445  10.953   6.268 -0.4353  0.3057 -0.7864
   22MOL0     C 2851   7.578  10.997   6.226 -0.3952  0.1846  0.2165
   22MOL0     N 2852   7.619  10.929   6.108 -0.2964  0.4815  0.3573
   22MOL0     C 2853   7.582  10.956   5.983 -0.4302 -0.3846  1.2240
   22MOL0     C 2854   7.686  10.906   5.910  0.1305 -0.5949  0.3786
   22MOL0     C 2855   7.710  10.919   5.760 -0.2533 -0.8802  0.1027
   22MOL0     C 2856   7.675  10.799   5.679  0.5047 -0.2346  0.1545
   22MOL0     C 2857   7.661  10.822   5.529  0.2275  0.0849  0.1809
   22MOL0     C 2858   7.793  10.841   5.455 -0.5618 -0.3783 -0.3864
   22MOL0     O 2859   7.853  10.709   5.461 -0.3902 -0.5673  0.0944
   22MOL0     C 2860   7.988  10.708   5.419 -0.4932  0.3790 -0.4378
   22MOL0     C 2861   8.068  10.807   5.366  0.2056 -0.1372 -0.1074
   22MOL0     C 2862   8.196  10.798   5.335 -1.1846  0.5480 -0.6210
   22MOL0     C 2863   8.265  10.672   5.352 -0.6703 -0.2023 -0.1677
   22MOL0     C 2864   8.398  10.643   5.296  0.5403 -0.1016  0.7442
   22MOL0     O 2865   8.473  10.752   5.279 -0.2382  0.9909 -0.4684
   22MOL0     C 2866   8.607  10.741   5.248 -0.7317  0.2658  0.6290
   22MOL0     C 2867   8.680  10.857   5.204  1.0802 -0.0484  0.0881
   22MOL0     C 2868   8.816  10.855   5.171  1.4144  0.0837 -0.0905
   22MOL0     C 2869   8.892  10.742   5.171  0.1592  0.7758 -1.1103
   22MOL0     O 2870   9.024  10.729   5.140 -0.1170 -0.5833 -0.3418
   22MOL0     C 2871   9.086  10.841   5.067  0.5969 -0.6907  0.3174
   22MOL0     C 2872   9.213  10.805   4.979  0.2494 -0.2584  1.1380
   22MOL0     C 2873   9.193  10.683   4.884 -0.0571 -0.6546 -0.5716
   22MOL0     C 2874   9.297  10.685   4.765  0.5859 -0.3031  0.8389
   22MOL0     C 2875   9.276  10.571   4.664  0.0376  0.7646  0.6606
   22MOL0     C 2876   9.383  10.576   4.550  0.3477 -0.0708  0.0828
   22MOL0     C 2877   9.369  10.457   4.451  0.0333  0.2079  0.0388
   22MOL0     C 2878   9.469  10.482   4.339  0.0277 -0.7330  0.6568
   22MOL0    Cl 2879   9.418  10.599   4.217  0.0553 -0.2626 -0.3225
   22MOL0     C 2880   8.831  10.623   5.233  0.8425 -0.5193 -0.3141
   22MOL0     C 2881   8.694  10.624   5.270  0.2110  0.6061  0.4434
   22MOL0     O 2882   8.419  10.527   5.260  0.0961 -0.7490  0.6057
   22MOL0     C 2883   8.194  10.575   5.419  0.2175 -0.3714 -0.5877
   22MOL0     C 2884   8.054  10.587   5.450 -0.3631 -0.1043 -0.1510
   22MOL0     N 2885   7.771  10.834   5.990 -0.5278 -0.4276 -1.0424
   22MOL0     N 2886   7.721  10.838   6.106 -0.5750 -0.6002  0.4633
   22MOL0     C 2887   6.742  10.227   6.471 -0.2790  0.0412 -0.7461
   22MOL0     C 2888   6.605  10.197   6.495  0.9841  0.8230 -0.0788
   22MOL0     C 2889   6.199  10.242   6.749  0.1541 -0.4983 -0.4315
   22MOL0     C 2890   6.121  10.189   6.636 -0.3173  0.3566 -0.3672
   22MOL0     C 2891   5.981  10.168   6.654  0.1135  0.6739  0.0440
   22MOL0     C 2892   5.916  10.179   6.776  0.6019  0.7693  0.0761
   22MOL0     O 2893   5.774  10.151   6.784 -0.4323  0.2831  0.0128
   22MOL0     C 2894   5.703  10.180   6.911 -0.2591  0.5080 -1.1844
   22MOL0     C 2895   5.643  10.323   6.922  0.1641 -0.2514 -0.1203
   22MOL0     C 2896   5.603  10.371   7.054  0.2297  0.3489 -0.3405
   22MOL0     C 2897   5.547  10.511   7.051 -0.6576 -0.2816  0.3673
   22MOL0     C 2898   5.486  10.532   7.188  0.7526  0.4990  0.4244
   22MOL0     C 2899   5.459  10.554   7.305 -0.2536  0.3417 -0.2785
   22MOL0     C 2900   5.996  10.205   6.890 -0.4985 -0.5250 -0.9740
   22MOL0     C 2901   6.132  10.243   6.879  0.6133  0.7200  0.5197
   22MOL0     C 2902   6.211  10.260   7.008 -0.5836 -0.1050  1.0031
   22MOL0     H 2903   6.515  10.464   6.674 -1.5398 -0.6990 -0.7003
   22MOL0     H 2904   6.747  10.504   6.670 -0.4558 -0.3422  0.5205
   22MOL0     H 2905   6.963  10.268   6.331  0.2393 -0.2792 -0.5154
   22MOL0     H 2906   6.908  10.425   6.276 -2.0198 -1.4039  1.2628
   22MOL0     H 2907   7.170  10.383   6.251 -0.2369  0.8680 -0.5094
   22MOL0     H 2908   7.172  10.380   6.432  0.7703 -1.7370 -0.8853
   22MOL0     H 2909   7.095  10.602   6.435  2.8228  1.5387  1.5685
   22MOL0     H 2910   7.083  10.606   6.251  3.0070  0.1081 -2.5758
   22MOL0     H 2911   7.332  10.578   6.428 -1.9040  2.4612  0.7438
   22MOL0     H 2912   7.340  10.551   6.256 -1.7089 -2.1034  0.2582
   22MOL0     H 2913   7.231  10.772   6.221 -2.5457 -0.9864  0.7979
   22MOL0     H 2914   7.257  10.822   6.396  0.4394 -1.4616  0.7270
   22MOL0     H 2915   7.499  10.750   6.362  0.6212  0.5976 -0.2753
   22MOL0     H 2916   7.467  10.743   6.199 -0.0911 -0.8375  0.5340
   22MOL0     H 2917   7.432  11.017   6.355  0.3907  1.9379 -1.8185
   22MOL0     H 2918   7.358  10.981   6.208 -2.2814  1.1198  2.0823
   22MOL0     H 2919   7.589  11.102   6.198  0.7424 -0.2320 -0.9813
   22MOL0     H 2920   7.646  10.990   6.311 -1.2761  0.3491  0.9605
   22MOL0     H 2921   7.493  11.009   5.951 -0.0605  0.6881  1.9289
   22MOL0     H 2922   7.647  11.003   5.729  1.9872  1.2188  0.9276
   22MOL0     H 2923   7.815  10.947   5.747  0.1135 -2.5644 -0.9237
   22MOL0     H 2924   7.745  10.718   5.703  0.3116 -0.3041  0.4918
   22MOL0     H 2925   7.579  10.760   5.716  0.4676 -1.1749 -0.8718
   22MOL0     H 2926   7.603  10.913   5.509  1.3901  1.5937  3.0937
   22MOL0     H 2927   7.605  10.743   5.479  0.4595  0.1344 -0.1693
   22MOL0     H 2928   7.859  10.917   5.499 -0.8940  1.5999 -3.1072
   22MOL0     H 2929   7.783  10.864   5.349 -3.4958 -3.6061 -1.0075
   22MOL0     H 2930   8.024  10.901   5.335  2.2240  1.3360  1.2083
   22MOL0     H 2931   8.231  10.873   5.265 -2.2760 -0.2668 -2.1124
   22MOL0     H 2932   8.632  10.954   5.210 -1.8505 -1.3171 -1.1954
   22MOL0     H 2933   8.858  10.949   5.139  1.9465  0.0395  0.4667
   22MOL0     H 2934   9.014  10.886   4.998  0.5355  0.8705  1.3442
   22MOL0     H 2935   9.107  10.912   5.148  2.2311 -1.0851  0.2869
   22MOL0     H 2936   9.250  10.888   4.917  0.3712 -0.2457  1.2244
   22MOL0     H 2937   9.295  10.780   5.047  3.1067 -0.4421 -2.0878
   22MOL0     H 2938   9.197  10.593   4.947 -2.3561  1.1233  2.3950
   22MOL0     H 2939   9.094  10.693   4.839  0.6526  0.3862 -1.9656
   22MOL0     H 2940   9.397  10.693   4.807  0.3926 -1.7363  1.6396
   22MOL0     H 2941   9.276  10.777   4.710  2.1019 -2.5716 -4.1279
   22MOL0     H 2942   9.177  10.578   4.618  1.6186  1.5194 -2.9230
   22MOL0     H 2943   9.280  10.475   4.716  1.9670  1.5387  2.0482
   22MOL0     H 2944   9.385  10.674   4.500  0.8081 -0.6342 -1.0297
   22MOL0     H 2945   9.481  10.578   4.599  0.4966  2.3490 -0.1659
   22MOL0     H 2946   9.264  10.450   4.421  0.3008 -2.3409 -0.4973
   22MOL0     H 2947   9.385  10.359   4.496 -1.4706 -1.7208 -3.1966
   22MOL0     H 2948   9.566  10.508   4.382 -0.9190  2.1168  1.2829
   22MOL0     H 2949   9.479  10.386   4.288 -2.8870 -0.4089 -0.7278
   22MOL0     H 2950   8.881  10.527   5.237  0.0400 -0.9177  0.5831
   22MOL0     H 2951   8.656  10.527   5.300 -0.9897  0.8935 -0.0886
   22MOL0     H 2952   8.235  10.474   5.418  1.4809  0.1329 -1.5477
   22MOL0     H 2953   7.996  10.502   5.484  0.2386 -1.1100 -1.5215
   22MOL0     H 2954   6.804  10.157   6.417 -0.2042 -0.8484  0.4367
   22MOL0     H 2955   6.566  10.104   6.455  1.4672  0.9150 -0.7771
   22MOL0     H 2956   6.163  10.188   6.536  0.2659 -0.6666 -0.1320
   22MOL0     H 2957   5.923  10.146   6.565 -0.0553  0.1116  0.2924
   22MOL0     H 2958   5.756  10.166   7.005 -0.3151 -1.2174 -1.3826
   22MOL0     H 2959   5.626  10.102   6.912  0.0068  0.2300  0.6837
   22MOL0     H 2960   5.558  10.332   6.854 -0.0933 -0.6575  0.1435
   22MOL0     H 2961   5.720  10.391   6.885 -1.9418  0.3539 -3.8918
   22MOL0     H 2962   5.693  10.382   7.115  2.5396 -2.6872 -2.8916
   22MOL0     H 2963   5.524  10.302   7.086 -1.7814  1.4685 -2.5590
   22MOL0     H 2964   5.631  10.580   7.038 -0.3224 -0.8592 -0.5878
   22MOL0     H 2965   5.474  10.498   6.971  0.6251 -1.8260 -0.6075
   22MOL0     H 2966   5.443  10.569   7.410 -1.6191 -1.4544 -0.1823
   22MOL0     H 2967   5.956  10.205   6.991  0.3697 -2.8030 -0.5678
   22MOL0     H 2968   6.153  10.254   7.101  0.3920  3.1687  1.9833
   22MOL0     H 2969   6.285  10.180   7.013 -0.5375 -0.1250  0.0654
   22MOL0     H 2970   6.266  10.355   7.014 -1.2027  0.2563  0.9831
   23MOL0     O 2971   8.658  10.284   6.833  0.3991 -0.3022 -0.0598
   23MOL0     C 2972   8.605  10.335   6.731 -0.9101  0.1977 -0.1461
   23MOL0     O 2973   8.676  10.412   6.641  0.8695 -0.3691 -0.4867
   23MOL0     C 2974   8.813  10.423   6.658  0.0109 -0.3450  0.1665
   23MOL0     C 2975   8.896  10.313   6.676 -0.1542 -0.7659 -0.4283
   23MOL0     C 2976   9.035  10.318   6.691 -0.0157 -0.3300 -0.0877
   23MOL0     C 2977   9.097  10.445   6.676 -0.3174  0.7923  0.2711
   23MOL0     O 2978   9.232  10.452   6.698 -0.1440  0.8381  0.3460
   23MOL0     C 2979   9.309  10.359   6.779  0.7924  0.1475  1.2826
   23MOL0     C 2980   9.448  10.425   6.810 -0.7310 -0.3278  0.1170
   23MOL0     C 2981   9.525  10.477   6.679  0.1934 -0.5659  0.1117
   23MOL0     C 2982   9.575  10.357   6.593  0.2306  0.6573  0.2454
   23MOL0     C 2983   9.653  10.434   6.482 -0.0756  0.7968 -0.9327
   23MOL0     C 2984   9.734  10.341   6.398  0.6713 -0.0218  0.4436
   23MOL0     C 2985   9.755  10.396   6.259  0.1260 -0.0754 -0.0267
   23MOL0     C 2986   9.845  10.299   6.173  0.3407 -0.0593  0.1966
   23MOL0     N 2987   9.990  10.288   6.204 -0.3258  0.3606 -0.1463
   23MOL0     C 2988  10.086  10.385   6.167  0.0846 -0.3207  0.4271
   23MOL0     C 2989  10.203  10.352   6.235  0.7971 -0.2558  1.4069
   23MOL0     C 2990  10.332  10.425   6.217  0.1109  0.0857 -0.0042
   23MOL0     C 2991  10.402  10.366   6.096 -0.3076 -0.2731 -0.2883
   23MOL0     C 2992  10.542  10.418   6.087  0.1485  0.2550  0.2935
   23MOL0     C 2993  10.638  10.358   6.189  0.1549 -0.4115  0.3497
   23MOL0     O 2994  10.764  10.419   6.165  0.6963  0.5876 -0.0497
   23MOL0     C 2995  10.863  10.352   6.093  0.3476 -0.2932 -0.1733
   23MOL0     C 2996  10.840  10.272   5.981  0.3058  0.1057 -0.2320
   23MOL0     C 2997  10.947  10.211   5.908 -0.4910 -0.3642 -0.0358
   23MOL0     C 2998  11.079  10.236   5.950  0.4743  0.2478  0.5193
   23MOL0     C 2999  11.187  10.184   5.860  0.2769  0.0103 -0.1078
   23MOL0     O 3000  11.314  10.188   5.908 -0.6879  0.6172  0.2542
   23MOL0     C 3001  11.412  10.125   5.830  0.0258 -0.4139  0.2690
   23MOL0     C 3002  11.476  10.005   5.866  0.6263 -0.0769 -0.0148
   23MOL0     C 3003  11.577   9.955   5.782  0.0449  0.7537 -0.3691
   23MOL0     C 3004  11.618  10.021   5.670 -1.0698 -0.0506  0.3602
   23MOL0     O 3005  11.734   9.980   5.606  0.1289  0.1002  0.0952
   23MOL0     C 3006  11.855  10.063   5.619  0.6959  0.3376  0.3992
   23MOL0     C 3007  11.959  10.013   5.518  0.4212  0.1643  0.1993
   23MOL0     C 3008  12.099  10.047   5.532  0.2484  0.0798 -0.5546
   23MOL0     C 3009  12.165   9.968   5.650  0.8518 -0.4334  0.2766
   23MOL0     C 3010  12.315   9.982   5.660  0.2511  0.6380 -0.2649
   23MOL0     C 3011  12.354  10.128   5.674  0.2459 -0.2955 -0.0271
   23MOL0     C 3012  12.320  10.189   5.820  0.0118 -0.5866  0.0033
   23MOL0     C 3013  12.377  10.126   5.941 -0.8702  0.0099 -0.9090
   23MOL0    Cl 3014  12.552  10.120   5.930 -0.0998  0.3621 -0.2492
   23MOL0     C 3015  11.556  10.137   5.631 -1.2112 -0.0006 -0.2632
   23MOL0     C 3016  11.448  10.186   5.712  0.2068  0.5915  0.1918
   23MOL0     O 3017  11.156  10.130   5.754  0.2707 -0.1413 -0.3251
   23MOL0     C 3018  11.099  10.315   6.063  0.5327  0.5725  0.3426
   23MOL0     C 3019  10.995  10.369   6.132 -0.0271 -0.0569 -0.9741
   23MOL0     N 3020  10.174  10.225   6.286 -0.1116 -0.4359 -0.3311
   23MOL0     N 3021  10.050  10.194   6.278 -0.2291 -0.0720 -0.5818
   23MOL0     C 3022   9.021  10.557   6.646  0.6471  0.0364  0.5195
   23MOL0     C 3023   8.878  10.546   6.641  0.7652  0.2710 -0.3797
   23MOL0     C 3024   8.461  10.306   6.702 -0.4337 -0.5034 -0.8061
   23MOL0     C 3025   8.410  10.182   6.751 -0.0266  0.4914  0.4662
   23MOL0     C 3026   8.286  10.136   6.716  0.1431  0.4267  0.7089
   23MOL0     C 3027   8.206  10.226   6.641  1.2165  0.2137  0.2881
   23MOL0     O 3028   8.066  10.201   6.605 -0.6542  0.5603  0.1585
   23MOL0     C 3029   7.990  10.082   6.641  0.5114  0.2345  0.1739
   23MOL0     C 3030   7.996   9.983   6.528 -1.1369 -0.8916 -0.0086
   23MOL0     C 3031   8.136   9.964   6.453  0.0734 -0.1692  0.5134
   23MOL0     C 3032   8.150   9.852   6.355  0.1055 -0.0365 -0.4406
   23MOL0     C 3033   8.285   9.845   6.299 -0.1624 -0.3479  0.3687
   23MOL0     C 3034   8.395   9.865   6.257  0.4666  0.6966  0.1697
   23MOL0     C 3035   8.256  10.349   6.602 -0.4907 -0.4181  0.9114
   23MOL0     C 3036   8.382  10.394   6.633  0.5297 -0.0297 -0.2915
   23MOL0     C 3037   8.413  10.526   6.580 -0.4237  0.0771  0.1791
   23MOL0     H 3038   8.851  10.216   6.689 -0.7812 -0.7830 -2.4313
   23MOL0     H 3039   9.094  10.230   6.716  0.8521 -0.0705 -1.1698
   23MOL0     H 3040   9.248  10.349   6.870 -1.9570 -1.4810 -0.6117
   23MOL0     H 3041   9.316  10.263   6.729 -0.2045  2.3308 -3.5523
   23MOL0     H 3042   9.516  10.356   6.861 -3.0296 -1.9919  1.0667
   23MOL0     H 3043   9.432  10.504   6.884 -0.5807 -1.3765  1.2981
   23MOL0     H 3044   9.609  10.542   6.701 -1.5451  3.0625 -2.8243
   23MOL0     H 3045   9.460  10.541   6.619  0.5030  0.2943  0.6813
   23MOL0     H 3046   9.643  10.290   6.645 -0.2595  1.3503  1.8272
   23MOL0     H 3047   9.500  10.298   6.540 -0.5286 -0.4031  2.4197
   23MOL0     H 3048   9.582  10.495   6.425 -0.5233  1.3674  0.1885
   23MOL0     H 3049   9.721  10.502   6.535  2.0998 -2.3267  0.5419
   23MOL0     H 3050   9.831  10.314   6.442  0.5146  0.5695  1.1693
   23MOL0     H 3051   9.685  10.243   6.395  0.6255 -0.2401  4.1576
   23MOL0     H 3052   9.796  10.497   6.264 -0.8399  0.2640  1.4022
   23MOL0     H 3053   9.659  10.392   6.206 -0.9410 -1.4256  1.9131
   23MOL0     H 3054   9.798  10.200   6.181  1.2104 -0.4215  1.0275
   23MOL0     H 3055   9.845  10.326   6.067 -2.1936  1.9721  0.6415
   23MOL0     H 3056  10.072  10.474   6.106 -1.3134  1.4103  3.0844
   23MOL0     H 3057  10.316  10.530   6.193  3.5654  0.7568  0.0998
   23MOL0     H 3058  10.393  10.423   6.308 -1.7666  0.6046  1.3048
   23MOL0     H 3059  10.391  10.257   6.105  0.0214 -0.2581  0.3613
   23MOL0     H 3060  10.344  10.402   6.011  0.1742 -1.3194 -1.0898
   23MOL0     H 3061  10.548  10.526   6.103  1.5439 -0.0293  1.9700
   23MOL0     H 3062  10.578  10.403   5.985 -0.1353 -0.3290  0.2788
   23MOL0     H 3063  10.635  10.249   6.176 -0.0301 -0.7450  2.7589
   23MOL0     H 3064  10.596  10.374   6.289 -1.0688 -0.4842 -0.1397
   23MOL0     H 3065  10.741  10.253   5.939 -0.4238  1.7778  0.6182
   23MOL0     H 3066  10.925  10.144   5.825  1.5519  0.3517 -1.2286
   23MOL0     H 3067  11.453   9.949   5.956  0.2705  0.3261  0.1472
   23MOL0     H 3068  11.619   9.863   5.822  1.0695  2.7570  3.7154
   23MOL0     H 3069  11.818  10.163   5.598 -1.5683  0.2777  3.4274
   23MOL0     H 3070  11.897  10.053   5.719 -1.5972 -0.7515  1.3190
   23MOL0     H 3071  11.942   9.907   5.537 -0.4458  0.6512  2.5333
   23MOL0     H 3072  11.923  10.050   5.422 -0.0709  1.2053  0.7705
   23MOL0     H 3073  12.166  10.014   5.453  0.6474  1.3646 -0.7687
   23MOL0     H 3074  12.105  10.155   5.544 -4.0899  0.4775 -0.3147
   23MOL0     H 3075  12.141   9.862   5.639  1.2886 -1.1885  4.7082
   23MOL0     H 3076  12.112   9.990   5.743 -1.8688 -2.1992 -0.7214
   23MOL0     H 3077  12.368   9.957   5.567  0.3937 -0.7491  0.1619
   23MOL0     H 3078  12.363   9.915   5.731  2.5650  2.7928  0.3624
   23MOL0     H 3079  12.457  10.131   5.639 -0.4893 -0.7616 -2.3823
   23MOL0     H 3080  12.295  10.172   5.593 -1.5140 -2.8120 -0.2401
   23MOL0     H 3081  12.212  10.182   5.837 -0.2712  0.6492 -1.1669
   23MOL0     H 3082  12.345  10.295   5.815 -2.8659  0.1149 -2.0548
   23MOL0     H 3083  12.344  10.171   6.035 -1.7806 -0.5515 -0.9410
   23MOL0     H 3084  12.334  10.026   5.940 -2.7164  0.6853 -4.0761
   23MOL0     H 3085  11.602  10.187   5.546  0.2594 -3.1144 -1.4600
   23MOL0     H 3086  11.411  10.286   5.690  1.4777  1.0403  0.0054
   23MOL0     H 3087  11.202  10.335   6.093  0.3929  4.8137 -1.3020
   23MOL0     H 3088  10.999  10.438   6.216 -3.5523 -0.3917 -0.3798
   23MOL0     H 3089   9.060  10.658   6.636 -0.0513  0.7387  3.6195
   23MOL0     H 3090   8.827  10.635   6.606  2.0257  0.8413 -0.8207
   23MOL0     H 3091   8.482  10.113   6.794  0.3690 -0.4164 -1.5345
   23MOL0     H 3092   8.261  10.037   6.753 -0.4652 -0.3269 -1.5675
   23MOL0     H 3093   7.889  10.120   6.662 -0.0772 -0.5673 -1.0656
   23MOL0     H 3094   8.004  10.031   6.737 -1.4611  1.0808  0.9881
   23MOL0     H 3095   7.925  10.019   6.453  1.3043  1.4534 -1.3402
   23MOL0     H 3096   7.963   9.888   6.572 -0.6138  0.2640  3.1427
   23MOL0     H 3097   8.195   9.943   6.542  0.5621  0.3146  0.3157
   23MOL0     H 3098   8.162  10.063   6.414 -2.1357  0.2381 -0.0519
   23MOL0     H 3099   8.120   9.759   6.404 -0.3614  1.0455  1.3801
   23MOL0     H 3100   8.097   9.881   6.264  3.1044  4.8980 -1.0010
   23MOL0     H 3101   8.477   9.900   6.198  1.1702 -0.6690  0.3004
   23MOL0     H 3102   8.183  10.410   6.550 -1.0938 -2.3697 -0.6729
   23MOL0     H 3103   8.490  10.577   6.639 -0.7530  2.7147 -1.4943
   23MOL0     H 3104   8.434  10.526   6.472  1.7485  2.8190  0.4830
   23MOL0     H 3105   8.322  10.584   6.595 -0.7297 -0.0500 -1.0927
   24MOL0     O 3106   9.914   7.937   8.589  0.5686  0.1395 -0.3319
   24MOL0     C 3107   9.860   7.945   8.696 -0.3114 -1.0228  0.3089
   24MOL0     O 3108   9.926   7.913   8.814 -0.1313  0.1824 -0.2811
   24MOL0     C 3109  10.051   7.859   8.799 -0.3999 -0.9390  0.5917
   24MOL0     C 3110  10.082   7.725   8.792  0.5370 -1.0338 -0.5913
   24MOL0     C 3111  10.214   7.682   8.778  0.2135 -0.0241  0.5039
   24MOL0     C 3112  10.318   7.779   8.776 -0.8978 -0.0244  0.3479
   24MOL0     O 3113  10.445   7.722   8.762  0.5322 -0.3419 -0.2889
   24MOL0     C 3114  10.555   7.808   8.734  1.2708 -0.1959  0.0804
   24MOL0     C 3115  10.682   7.726   8.727  0.0053 -0.4108 -0.1274
   24MOL0     C 3116  10.728   7.679   8.866 -0.4093 -0.0955  0.5471
   24MOL0     C 3117  10.862   7.595   8.865 -0.2770 -0.1459  0.3912
   24MOL0     C 3118  10.982   7.669   8.806 -0.3906  0.3659  0.4654
   24MOL0     C 3119  11.104   7.583   8.830 -0.2260 -0.4387 -0.2057
   24MOL0     C 3120  11.227   7.663   8.826 -0.7865 -0.5037 -0.5332
   24MOL0     C 3121  11.355   7.600   8.886  0.5229 -0.3891  0.5464
   24MOL0     N 3122  11.421   7.522   8.782 -0.0857 -0.1378 -0.1219
   24MOL0     C 3123  11.387   7.397   8.744 -0.8322 -0.2694 -0.1623
   24MOL0     C 3124  11.482   7.355   8.651 -0.0067 -0.2119 -0.0354
   24MOL0     C 3125  11.483   7.217   8.584  0.0176  0.8068  0.0161
   24MOL0     C 3126  11.624   7.166   8.610  0.0069  0.3525 -0.4059
   24MOL0     C 3127  11.637   7.025   8.548  0.4589 -0.1242 -0.6208
   24MOL0     C 3128  11.780   6.971   8.545 -0.1705 -0.3140  0.3563
   24MOL0     O 3129  11.872   7.068   8.488  0.1199  0.0362 -0.3260
   24MOL0     C 3130  12.006   7.031   8.486 -0.2304 -0.0281  0.6839
   24MOL0     C 3131  12.051   6.898   8.492 -0.0048  0.1832  0.7944
   24MOL0     C 3132  12.192   6.876   8.490  0.4134  0.2846  0.4787
   24MOL0     C 3133  12.286   6.986   8.478 -0.3009  0.8581 -0.2749
   24MOL0     C 3134  12.427   6.959   8.477  0.4852  0.1189  0.1235
   24MOL0     O 3135  12.476   6.830   8.503  0.1167 -0.4294 -0.3246
   24MOL0     C 3136  12.608   6.793   8.505 -0.0930 -0.5068 -0.4858
   24MOL0     C 3137  12.710   6.879   8.469 -0.7247 -0.1536  0.8624
   24MOL0     C 3138  12.839   6.815   8.464  0.0960 -0.0455 -0.2614
   24MOL0     C 3139  12.868   6.687   8.498 -0.4733 -0.1163 -0.3113
   24MOL0     O 3140  12.991   6.647   8.490 -0.0350  0.3222  0.9660
   24MOL0     C 3141  13.030   6.535   8.561  0.7515  0.1748  0.4631
   24MOL0     C 3142  13.183   6.527   8.531 -0.0179  0.2615  0.0857
   24MOL0     C 3143  13.266   6.622   8.625 -0.4516  0.6755  0.5010
   24MOL0     C 3144  13.403   6.565   8.648  0.1588  1.4664 -0.3840
   24MOL0     C 3145  13.477   6.652   8.751  0.5097  0.4889 -0.6090
   24MOL0     C 3146  13.627   6.609   8.756 -0.0726 -0.0350  0.0935
   24MOL0     C 3147  13.704   6.682   8.874  1.0969  0.0241 -0.1169
   24MOL0     C 3148  13.848   6.620   8.897  0.3819  0.8082  0.0571
   24MOL0    Cl 3149  13.959   6.665   8.755  0.1815 -0.1346  0.4608
   24MOL0     C 3150  12.766   6.609   8.547  0.3579 -0.6129  0.0674
   24MOL0     C 3151  12.632   6.668   8.551 -0.1808  0.5066 -0.6331
   24MOL0     O 3152  12.485   7.048   8.428 -0.1778 -0.2898  0.5194
   24MOL0     C 3153  12.237   7.118   8.479  0.6806 -0.2000 -0.2495
   24MOL0     C 3154  12.097   7.137   8.483 -0.6896  0.8716  0.3976
   24MOL0     N 3155  11.577   7.449   8.652 -0.6467 -0.8673 -0.3483
   24MOL0     N 3156  11.537   7.553   8.720  0.0275  0.1989 -0.5140
   24MOL0     C 3157  10.286   7.917   8.774 -0.3771 -0.1674 -0.2901
   24MOL0     C 3158  10.155   7.955   8.785  0.6385 -0.0598  0.4378
   24MOL0     C 3159   9.716   7.945   8.690  0.1171  0.1843 -0.0701
   24MOL0     C 3160   9.666   8.058   8.623  0.0912  0.9669 -0.2488
   24MOL0     C 3161   9.530   8.072   8.618 -0.2957 -0.2288  0.1852
   24MOL0     C 3162   9.445   7.985   8.693  0.0094 -0.6386 -0.2287
   24MOL0     O 3163   9.311   7.993   8.693  0.1740 -0.0827  0.1104
   24MOL0     C 3164   9.254   8.088   8.598 -0.1751 -0.6187 -1.2407
   24MOL0     C 3165   9.100   8.051   8.588 -0.6250 -0.4691  0.3097
   24MOL0     C 3166   9.024   8.025   8.721 -0.6193 -0.0043  1.0030
   24MOL0     C 3167   8.876   7.977   8.712 -0.4134  0.0999  0.4335
   24MOL0     C 3168   8.847   7.834   8.668 -0.3309 -0.0628  0.0699
   24MOL0     C 3169   8.811   7.722   8.630  0.5937 -0.5832  0.4072
   24MOL0     C 3170   9.496   7.889   8.779 -0.4678  0.1555  0.6565
   24MOL0     C 3171   9.631   7.868   8.775 -0.5926 -0.7603 -0.4426
   24MOL0     C 3172   9.691   7.747   8.855 -0.4459 -0.2410  0.4774
   24MOL0     H 3173   9.994   7.663   8.795 -0.5459  0.4430 -0.7316
   24MOL0     H 3174  10.237   7.577   8.766 -1.9488 -0.5178  0.3179
   24MOL0     H 3175  10.547   7.856   8.637 -1.0854 -0.4688  0.0866
   24MOL0     H 3176  10.561   7.889   8.809 -0.0439  2.3407 -2.3763
   24MOL0     H 3177  10.755   7.788   8.673 -2.2625  2.9148  0.3358
   24MOL0     H 3178  10.673   7.633   8.669 -2.2966 -0.9420  0.9551
   24MOL0     H 3179  10.650   7.611   8.901  0.9514 -1.2832  1.3702
   24MOL0     H 3180  10.741   7.766   8.931  0.4077  0.5611 -0.4643
   24MOL0     H 3181  10.886   7.550   8.961 -0.3821 -0.0042  0.4836
   24MOL0     H 3182  10.834   7.508   8.804  3.4089 -0.9506 -0.4335
   24MOL0     H 3183  10.972   7.671   8.697 -1.8447 -0.6723  0.5565
   24MOL0     H 3184  10.986   7.769   8.851  0.9595 -0.4215  2.1905
   24MOL0     H 3185  11.093   7.545   8.933 -1.0205  1.0900  0.3001
   24MOL0     H 3186  11.106   7.493   8.767  2.3850 -0.4973 -0.1236
   24MOL0     H 3187  11.201   7.751   8.886  0.5705  0.6355 -1.5446
   24MOL0     H 3188  11.249   7.690   8.722  1.0544  1.9118  0.3832
   24MOL0     H 3189  11.423   7.679   8.918 -0.7916  1.3626 -0.7910
   24MOL0     H 3190  11.326   7.546   8.976 -1.4777  1.3803  1.0570
   24MOL0     H 3191  11.301   7.342   8.778 -1.4772  1.7795  1.7478
   24MOL0     H 3192  11.407   7.149   8.624  0.5952 -0.9084 -1.6739
   24MOL0     H 3193  11.471   7.234   8.477  0.5855  3.3598  0.3059
   24MOL0     H 3194  11.705   7.225   8.567  1.2762 -1.2140 -0.2636
   24MOL0     H 3195  11.637   7.171   8.718 -1.8052 -1.9509 -0.0151
   24MOL0     H 3196  11.588   7.023   8.450 -3.6002 -0.8882  1.2099
   24MOL0     H 3197  11.576   6.950   8.601 -0.7753  0.8305 -0.6565
   24MOL0     H 3198  11.783   6.875   8.492 -0.0954 -0.1478  0.0596
   24MOL0     H 3199  11.817   6.953   8.647 -0.3774  0.8933  0.6554
   24MOL0     H 3200  11.981   6.815   8.485  1.0417 -0.8392  1.8675
   24MOL0     H 3201  12.224   6.773   8.495  0.8090  0.4229  0.8816
   24MOL0     H 3202  12.716   6.980   8.430  3.5138 -0.7232 -0.4318
   24MOL0     H 3203  12.918   6.873   8.419 -0.7261  0.2521 -1.3783
   24MOL0     H 3204  13.011   6.534   8.668 -0.3846 -0.6517  0.2767
   24MOL0     H 3205  12.975   6.452   8.514  0.0140  1.1250 -0.3883
   24MOL0     H 3206  13.212   6.423   8.547 -0.7799 -0.5665 -3.2093
   24MOL0     H 3207  13.204   6.530   8.424 -1.1992  2.2771 -0.1520
   24MOL0     H 3208  13.281   6.721   8.582  2.7403 -0.5347 -1.4896
   24MOL0     H 3209  13.208   6.625   8.718 -1.2926  0.1992  0.0078
   24MOL0     H 3210  13.449   6.542   8.551 -1.4635 -1.9038 -0.5119
   24MOL0     H 3211  13.391   6.467   8.696  2.0535  0.9171 -0.9508
   24MOL0     H 3212  13.437   6.633   8.851  2.2494  2.1659  0.4737
   24MOL0     H 3213  13.460   6.756   8.721  1.1419  0.4324 -1.1789
   24MOL0     H 3214  13.637   6.503   8.779 -1.2667 -0.0028  0.8305
   24MOL0     H 3215  13.678   6.628   8.660 -0.6890  0.4198 -0.1490
   24MOL0     H 3216  13.646   6.681   8.966  1.6656 -1.5503  0.2470
   24MOL0     H 3217  13.715   6.788   8.846 -1.2209  0.2532 -0.3237
   24MOL0     H 3218  13.902   6.657   8.985  2.0486 -1.0928 -0.0943
   24MOL0     H 3219  13.840   6.513   8.916  1.6011  0.6535 -0.1820
   24MOL0     H 3220  12.778   6.509   8.590  1.0013 -1.2503 -1.5400
   24MOL0     H 3221  12.548   6.621   8.601  0.4063 -0.7535 -0.8104
   24MOL0     H 3222  12.313   7.195   8.479  0.5634 -0.0847 -0.3108
   24MOL0     H 3223  12.055   7.236   8.474 -1.8681  0.2798 -1.4307
   24MOL0     H 3224  10.354   8.002   8.776  0.5996 -0.8799 -2.0612
   24MOL0     H 3225  10.125   8.058   8.802  1.0471 -0.1033  1.5663
   24MOL0     H 3226   9.726   8.132   8.571  1.3955 -0.3038 -0.6172
   24MOL0     H 3227   9.491   8.156   8.561  3.9463  0.6171 -1.8390
   24MOL0     H 3228   9.299   8.086   8.498  0.5834 -1.7265 -0.8940
   24MOL0     H 3229   9.258   8.191   8.634  1.0232 -0.9186 -0.4672
   24MOL0     H 3230   9.100   7.953   8.539 -1.0102 -1.1277  1.5809
   24MOL0     H 3231   9.046   8.122   8.524 -0.1838 -0.4834 -0.0864
   24MOL0     H 3232   9.031   8.117   8.780  1.2019  1.6169 -1.5092
   24MOL0     H 3233   9.074   7.943   8.774  1.4225  0.4497 -0.0896
   24MOL0     H 3234   8.826   7.976   8.809 -2.4665 -2.9022 -0.4870
   24MOL0     H 3235   8.817   8.042   8.646  1.7803 -0.7803 -2.6368
   24MOL0     H 3236   8.796   7.622   8.595  1.2421 -0.3019 -0.7099
   24MOL0     H 3237   9.427   7.818   8.823 -1.8246 -1.6362 -3.7883
   24MOL0     H 3238   9.765   7.687   8.802  0.2323  2.9619 -2.5882
   24MOL0     H 3239   9.733   7.786   8.948  2.0663 -0.1784 -0.6168
   24MOL0     H 3240   9.610   7.679   8.886 -0.6471 -0.2444 -0.0421
   25MOL0     O 3241   1.939   1.681   2.845  0.1808 -0.0908  0.5704
   25MOL0     C 3242   2.001   1.748   2.764  0.0807  0.2794  0.0797
   25MOL0     O 3243   2.130   1.780   2.776 -0.0744 -0.2061 -0.1361
   25MOL0     C 3244   2.209   1.752   2.880  0.1896  0.8481 -0.3199
   25MOL0     C 3245   2.286   1.851   2.942  0.2333 -1.1309 -0.6159
   25MOL0     C 3246   2.393   1.819   3.028  0.1158  0.1015  0.0113
   25MOL0     C 3247   2.429   1.689   3.046 -0.1381  0.6058  0.0597
   25MOL0     O 3248   2.547   1.680   3.126  0.4855 -0.9249  0.3011
   25MOL0     C 3249   2.605   1.550   3.147  0.5335 -0.2858 -1.6194
   25MOL0     C 3250   2.738   1.556   3.230  0.0076  0.7942  1.3846
   25MOL0     C 3251   2.867   1.570   3.141  0.0011  0.4558  0.1519
   25MOL0     C 3252   2.990   1.550   3.228 -0.3145  0.1429  0.1478
   25MOL0     C 3253   3.116   1.609   3.156  0.7276  0.9575 -0.1880
   25MOL0     C 3254   3.228   1.609   3.260  0.1293 -0.2323 -0.7133
   25MOL0     C 3255   3.361   1.639   3.190 -0.1240 -0.2617  0.0515
   25MOL0     C 3256   3.485   1.643   3.288 -1.3403 -0.3075 -0.8581
   25MOL0     N 3257   3.492   1.765   3.377  0.0996 -0.8306 -0.0543
   25MOL0     C 3258   3.420   1.767   3.494  0.2404  0.2320  0.5869
   25MOL0     C 3259   3.460   1.888   3.550  0.2179 -0.6426 -0.5165
   25MOL0     C 3260   3.444   1.933   3.692  0.2892  1.1781 -0.1759
   25MOL0     C 3261   3.556   1.875   3.784 -0.5883  0.0349 -0.4475
   25MOL0     C 3262   3.539   1.933   3.925 -0.1008 -0.2466  0.4401
   25MOL0     C 3263   3.651   1.885   4.017  0.8386  0.0341 -0.3339
   25MOL0     O 3264   3.791   1.896   3.975 -0.0690 -1.0832 -0.4852
   25MOL0     C 3265   3.887   1.906   4.068  0.6653 -0.5058  0.0225
   25MOL0     C 3266   4.007   1.972   4.028 -0.0746  0.4467  0.4601
   25MOL0     C 3267   4.116   1.979   4.114 -0.0680 -0.5658  0.1822
   25MOL0     C 3268   4.102   1.940   4.250 -0.6126 -0.2626  0.1823
   25MOL0     C 3269   4.227   1.954   4.333 -0.2545 -0.3336  1.1371
   25MOL0     O 3270   4.345   1.988   4.267  0.5951 -0.1513  0.2013
   25MOL0     C 3271   4.460   1.996   4.340  0.0572  1.0883 -0.1551
   25MOL0     C 3272   4.493   2.108   4.418  0.1277  0.5822 -0.6337
   25MOL0     C 3273   4.620   2.123   4.477  0.6985 -0.3022  0.3958
   25MOL0     C 3274   4.715   2.026   4.453  0.3078  0.1543 -0.2652
   25MOL0     O 3275   4.845   2.032   4.496  0.3254  0.5946 -0.0906
   25MOL0     C 3276   4.897   2.159   4.547  0.8662  0.1498 -0.9664
   25MOL0     C 3277   5.047   2.167   4.513  1.2247  0.5145 -0.2860
   25MOL0     C 3278   5.129   2.075   4.599 -0.6481  0.1571 -0.0188
   25MOL0     C 3279   5.275   2.104   4.569  0.4625 -0.6249  1.0312
   25MOL0     C 3280   5.379   2.022   4.644 -0.4092 -0.5185  0.6675
   25MOL0     C 3281   5.518   2.033   4.586  0.7298 -0.5368  0.3295
   25MOL0     C 3282   5.615   1.943   4.657  0.0097 -0.0473  0.7492
   25MOL0     C 3283   5.752   1.995   4.629 -0.2174 -1.1863  0.9402
   25MOL0    Cl 3284   5.886   1.886   4.684 -0.1364  0.1569 -0.1440
   25MOL0     C 3285   4.689   1.912   4.377  0.2652 -0.2245 -0.2895
   25MOL0     C 3286   4.554   1.901   4.325 -0.4916 -0.0180  0.3029
   25MOL0     O 3287   4.218   1.934   4.455  0.6053 -0.0567 -0.4733
   25MOL0     C 3288   3.971   1.890   4.293 -0.4420  0.1900  0.2502
   25MOL0     C 3289   3.871   1.868   4.208  0.0885 -0.2355  0.3972
   25MOL0     N 3290   3.530   1.963   3.456 -0.3479  0.0696 -0.0708
   25MOL0     N 3291   3.541   1.887   3.341  0.7229  0.0850 -0.6657
   25MOL0     C 3292   2.372   1.585   2.978  0.7943  0.5223 -0.1383
   25MOL0     C 3293   2.261   1.618   2.895  0.1881  0.2710  0.1051
   25MOL0     C 3294   1.913   1.820   2.663 -0.4356 -0.3501 -0.7087
   25MOL0     C 3295   1.782   1.773   2.638  0.0076 -1.2392 -0.0912
   25MOL0     C 3296   1.699   1.842   2.537  0.7457 -0.2008 -0.4601
   25MOL0     C 3297   1.742   1.949   2.471 -1.1056 -0.2550 -0.4531
   25MOL0     O 3298   1.663   2.004   2.372  0.0627  0.0791  0.6796
   25MOL0     C 3299   1.690   1.962   2.235 -0.1147  0.4715  0.4249
   25MOL0     C 3300   1.593   2.052   2.151 -0.8601  0.8083 -0.5457
   25MOL0     C 3301   1.451   1.994   2.147  0.5394  0.3668 -0.1779
   25MOL0     C 3302   1.380   2.009   2.276  0.5115 -0.3047 -0.6573
   25MOL0     C 3303   1.232   2.015   2.281 -0.5529  0.6992 -0.2909
   25MOL0     C 3304   1.111   2.029   2.275 -0.1981  0.2995 -1.3036
   25MOL0     C 3305   1.862   2.002   2.510 -0.7545  0.5334  0.5679
   25MOL0     C 3306   1.955   1.937   2.596  0.1256 -0.5600  0.6028
   25MOL0     C 3307   2.086   2.007   2.616  0.9135 -0.0969  0.4323
   25MOL0     H 3308   2.259   1.955   2.923 -0.8354 -1.5954 -1.7355
   25MOL0     H 3309   2.456   1.900   3.063 -1.5721  1.0838  0.9657
   25MOL0     H 3310   2.538   1.480   3.197  2.4055  0.5242  2.3981
   25MOL0     H 3311   2.629   1.518   3.045  0.2965 -0.4838 -1.6124
   25MOL0     H 3312   2.739   1.465   3.290 -1.2833  0.1066  0.4026
   25MOL0     H 3313   2.743   1.645   3.294  1.3579  1.2885  0.6192
   25MOL0     H 3314   2.867   1.671   3.098 -0.8179  1.0813  1.5445
   25MOL0     H 3315   2.878   1.488   3.071 -4.3095 -0.4671  0.2430
   25MOL0     H 3316   2.974   1.595   3.326 -2.6708 -0.4023  0.0751
   25MOL0     H 3317   3.007   1.442   3.234 -2.4301 -0.2104  0.5360
   25MOL0     H 3318   3.126   1.548   3.066 -0.2964  0.0797  0.2768
   25MOL0     H 3319   3.101   1.713   3.127 -0.7168  0.7333 -0.2780
   25MOL0     H 3320   3.209   1.680   3.341  3.4012 -0.6354  0.5784
   25MOL0     H 3321   3.237   1.511   3.308 -1.9104  1.2224  3.0296
   25MOL0     H 3322   3.368   1.731   3.132  1.3396 -1.0092 -1.0226
   25MOL0     H 3323   3.366   1.563   3.110 -0.7275  1.2756 -1.5188
   25MOL0     H 3324   3.509   1.555   3.348 -0.4062 -0.1945 -1.0507
   25MOL0     H 3325   3.569   1.655   3.218  1.8868  0.9048  2.8792
   25MOL0     H 3326   3.376   1.687   3.553 -1.4009 -2.1961 -3.5181
   25MOL0     H 3327   3.423   2.039   3.704 -1.5914  1.0356 -1.6572
   25MOL0     H 3328   3.356   1.877   3.727  0.6347 -0.0151 -1.1532
   25MOL0     H 3329   3.541   1.767   3.790  0.8748 -0.3996 -2.9971
   25MOL0     H 3330   3.656   1.887   3.741 -0.5613 -0.8601 -0.6581
   25MOL0     H 3331   3.444   1.898   3.968  0.3212 -2.4375 -0.2812
   25MOL0     H 3332   3.537   2.042   3.923 -3.8600 -0.1028 -3.5177
   25MOL0     H 3333   3.622   1.785   4.051 -2.4100  0.5764 -1.1333
   25MOL0     H 3334   3.642   1.953   4.103  4.0099  4.4996 -3.0660
   25MOL0     H 3335   4.009   2.013   3.928 -2.0855  0.8688  0.5458
   25MOL0     H 3336   4.212   2.012   4.074 -0.1306  3.7580  2.9932
   25MOL0     H 3337   4.411   2.175   4.441 -0.4321 -0.2201 -0.2450
   25MOL0     H 3338   4.629   2.211   4.540  2.6809 -0.4048  0.3088
   25MOL0     H 3339   4.834   2.238   4.504 -4.1525 -1.6505  2.1257
   25MOL0     H 3340   4.879   2.163   4.655  0.8315 -1.7669 -0.8782
   25MOL0     H 3341   5.073   2.142   4.410  0.1083 -1.5149 -0.1444
   25MOL0     H 3342   5.083   2.270   4.520  0.4303  1.2270 -4.4229
   25MOL0     H 3343   5.115   2.090   4.706  3.5351  0.0964  0.7252
   25MOL0     H 3344   5.121   1.968   4.579  2.4141  0.3171 -3.0290
   25MOL0     H 3345   5.295   2.209   4.593  0.1019 -0.5563  1.0405
   25MOL0     H 3346   5.293   2.095   4.462 -0.0622  3.2374  0.4743
   25MOL0     H 3347   5.343   1.919   4.643 -3.8939  0.5491  0.2871
   25MOL0     H 3348   5.384   2.049   4.750  0.3691 -4.4384  1.7938
   25MOL0     H 3349   5.524   2.012   4.478  3.8235 -1.2815  0.5325
   25MOL0     H 3350   5.545   2.138   4.602 -0.2551 -0.4968  1.8363
   25MOL0     H 3351   5.613   1.837   4.628  1.1842  0.2906 -0.7593
   25MOL0     H 3352   5.598   1.958   4.764 -2.0754  1.3206  0.2840
   25MOL0     H 3353   5.779   2.016   4.524  0.5897 -0.8275  1.2089
   25MOL0     H 3354   5.770   2.089   4.681  0.5686 -0.6697 -0.1993
   25MOL0     H 3355   4.765   1.839   4.354 -0.2013 -0.8165  0.0130
   25MOL0     H 3356   4.528   1.824   4.253 -0.2434  1.2163 -1.1730
   25MOL0     H 3357   3.946   1.859   4.394  0.9311  0.7170  0.7745
   25MOL0     H 3358   3.790   1.804   4.242 -1.3462  0.6518 -1.1957
   25MOL0     H 3359   2.425   1.491   2.974  3.0683  1.7355 -0.2721
   25MOL0     H 3360   2.219   1.536   2.837  1.9762 -1.2292  0.8536
   25MOL0     H 3361   1.741   1.694   2.699  0.2561 -0.1652  1.5439
   25MOL0     H 3362   1.599   1.805   2.514  0.7891 -0.7044  0.1198
   25MOL0     H 3363   1.675   1.855   2.218 -1.1789  0.8489 -1.1927
   25MOL0     H 3364   1.788   2.000   2.204 -1.3122  2.3940 -1.2604
   25MOL0     H 3365   1.644   2.047   2.055  0.2835  2.1237 -0.0410
   25MOL0     H 3366   1.587   2.153   2.193 -0.7052 -0.3259  2.4321
   25MOL0     H 3367   1.451   1.887   2.124  2.1989  0.0276  1.2357
   25MOL0     H 3368   1.396   2.048   2.069  1.8726  3.5749  0.9035
   25MOL0     H 3369   1.412   1.930   2.344  0.3441  1.1324  1.1509
   25MOL0     H 3370   1.416   2.096   2.332  1.2778 -2.4774  2.4557
   25MOL0     H 3371   1.007   2.057   2.273 -0.2880  0.4804  1.8583
   25MOL0     H 3372   1.906   2.082   2.451  2.1654 -1.3315 -0.0159
   25MOL0     H 3373   2.094   2.056   2.714  1.7120 -0.6627  0.6647
   25MOL0     H 3374   2.171   1.938   2.611  2.2274  1.4356  0.3861
   25MOL0     H 3375   2.105   2.098   2.557 -0.1710 -1.1614 -1.6261
   26MOL0     O 3376   6.574  11.110   0.119  0.1303 -0.7144 -0.2377
   26MOL0     C 3377   6.544  11.002   0.164 -0.4088 -0.0136 -0.3701
   26MOL0     O 3378   6.626  10.933   0.251 -0.2186  0.5402 -0.4064
   26MOL0     C 3379   6.754  10.973   0.283  0.0627 -0.0821 -0.2449
   26MOL0     C 3380   6.804  11.101   0.292  0.3788  0.5922  0.5873
   26MOL0     C 3381   6.942  11.127   0.313 -0.2962  0.2084 -0.2169
   26MOL0     C 3382   7.031  11.019   0.344  1.2917 -0.1946  0.2929
   26MOL0     O 3383   7.164  11.052   0.354  0.3506  0.0552  0.2348
   26MOL0     C 3384   7.246  10.980   0.447  0.2737 -0.0461  0.4752
   26MOL0     C 3385   7.383  11.045   0.468  0.7702 -0.1220 -0.0044
   26MOL0     C 3386   7.495  11.032   0.364 -0.3494 -0.4002 -0.3652
   26MOL0     C 3387   7.622  11.115   0.416 -0.5549 -0.4603 -0.2393
   26MOL0     C 3388   7.721  11.109   0.306 -0.0832  0.3344 -1.0429
   26MOL0     C 3389   7.835  11.208   0.319  0.6114  0.6421 -0.4554
   26MOL0     C 3390   7.919  11.197   0.194 -0.4821 -0.5057 -0.2772
   26MOL0     C 3391   8.007  11.324   0.182  0.4698  0.4541 -0.1748
   26MOL0     N 3392   8.123  11.287   0.100  0.1379 -0.3399 -0.2009
   26MOL0     C 3393   8.181  11.374   0.006  0.1030  0.4935 -0.1578
   26MOL0     C 3394   8.295  11.297  -0.035  0.2242  0.0321 -0.3762
   26MOL0     C 3395   8.391  11.332  -0.135 -0.0371 -0.1259  0.0554
   26MOL0     C 3396   8.537  11.292  -0.090  0.8586 -0.6695  0.1189
   26MOL0     C 3397   8.572  11.168  -0.161  0.3087 -0.9413 -0.0009
   26MOL0     C 3398   8.709  11.124  -0.120 -0.1866  0.5009  0.1430
   26MOL0     O 3399   8.812  11.206  -0.169  0.6705  0.1984  0.1818
   26MOL0     C 3400   8.943  11.168  -0.191 -0.3103  0.1223  0.2302
   26MOL0     C 3401   9.022  11.259  -0.259 -0.0005 -0.0074  0.0856
   26MOL0     C 3402   9.155  11.233  -0.287 -0.2396 -0.2530  0.5643
   26MOL0     C 3403   9.205  11.096  -0.267  0.2687 -0.5209 -0.7099
   26MOL0     C 3404   9.353  11.053  -0.284  0.2168  0.0618  0.5178
   26MOL0     O 3405   9.431  11.145  -0.341  0.4232 -0.7399  0.2079
   26MOL0     C 3406   9.573  11.131  -0.358 -0.1644 -0.6928  0.4521
   26MOL0     C 3407   9.651  11.014  -0.366 -0.8142 -0.4556  0.2699
   26MOL0     C 3408   9.793  11.024  -0.378 -0.8307 -0.2375 -0.8358
   26MOL0     C 3409   9.863  11.145  -0.395  0.0045 -0.3765  0.5788
   26MOL0     O 3410  10.000  11.153  -0.408  0.0977  0.3562 -0.6173
   26MOL0     C 3411  10.065  11.265  -0.352 -1.2502 -0.5867 -0.7366
   26MOL0     C 3412  10.218  11.231  -0.358 -0.2449 -0.2565  0.0169
   26MOL0     C 3413  10.297  11.352  -0.313  0.0013  0.6226 -0.2240
   26MOL0     C 3414  10.449  11.331  -0.331 -0.8205 -0.4177  0.8113
   26MOL0     C 3415  10.537  11.395  -0.221 -0.6566 -0.4309 -0.4330
   26MOL0     C 3416  10.667  11.462  -0.278 -0.1687 -0.1226  0.5267
   26MOL0     C 3417  10.757  11.552  -0.186 -0.1982 -1.0013 -0.2177
   26MOL0     C 3418  10.878  11.593  -0.269  0.2070  0.3760  0.2167
   26MOL0    Cl 3419  10.990  11.693  -0.174 -0.2880 -0.0605  0.2487
   26MOL0     C 3420   9.780  11.256  -0.406  0.2810 -0.6981  0.5472
   26MOL0     C 3421   9.638  11.246  -0.398 -0.2080 -0.9425 -0.6826
   26MOL0     O 3422   9.388  10.936  -0.266  0.1447 -0.8055  0.2031
   26MOL0     C 3423   9.115  10.997  -0.204 -0.2403 -0.2532  0.3046
   26MOL0     C 3424   8.990  11.041  -0.156  0.0496  0.0156  0.5600
   26MOL0     N 3425   8.294  11.176   0.037 -0.3849 -0.8855 -0.3102
   26MOL0     N 3426   8.188  11.175   0.110 -0.4642  0.4745 -0.4255
   26MOL0     C 3427   6.983  10.892   0.337 -0.4277 -0.2599 -0.2399
   26MOL0     C 3428   6.846  10.872   0.314 -0.2750 -0.6496 -1.0178
   26MOL0     C 3429   6.412  10.943   0.147 -0.2363  0.4178  1.0037
   26MOL0     C 3430   6.403  10.801   0.144  0.0858  0.6217 -0.2855
   26MOL0     C 3431   6.286  10.740   0.115 -0.1664 -0.3114  0.0532
   26MOL0     C 3432   6.174  10.812   0.088 -0.4616 -0.2509  0.3182
   26MOL0     O 3433   6.047  10.758   0.076  0.0807 -0.1152 -0.0892
   26MOL0     C 3434   6.025  10.615   0.078  0.4724  0.9185 -0.5708
   26MOL0     C 3435   6.057  10.561  -0.060 -0.4563 -0.6757 -0.2747
   26MOL0     C 3436   5.950  10.595  -0.170 -0.5930  0.0696 -0.8902
   26MOL0     C 3437   5.834  10.505  -0.205 -0.7834 -1.5074  0.4855
   26MOL0     C 3438   5.747  10.473  -0.089 -0.1766  0.0424  0.2355
   26MOL0     C 3439   5.662  10.423  -0.015 -0.2644 -0.5118 -0.4841
   26MOL0     C 3440   6.186  10.949   0.091 -0.3043  0.6810 -0.2533
   26MOL0     C 3441   6.297  11.023   0.129 -0.1062  0.9340  0.8114
   26MOL0     C 3442   6.292  11.175   0.138  0.6977 -0.2403  0.4378
   26MOL0     H 3443   6.735  11.185   0.295 -1.1199 -0.6250  2.0702
   26MOL0     H 3444   6.967  11.232   0.305 -2.1551  0.5309 -3.9421
   26MOL0     H 3445   7.192  10.965   0.542 -0.3610 -1.9931 -0.1483
   26MOL0     H 3446   7.265  10.882   0.404  1.3488  0.5619 -0.4695
   26MOL0     H 3447   7.423  10.986   0.551 -0.0845 -1.6161 -0.6015
   26MOL0     H 3448   7.372  11.150   0.495 -2.6419 -0.1743 -0.7831
   26MOL0     H 3449   7.468  11.049   0.260 -0.2585  0.7214 -0.2174
   26MOL0     H 3450   7.526  10.927   0.357  0.3619 -0.1213 -1.7528
   26MOL0     H 3451   7.592  11.220   0.428 -0.3517 -0.5692  1.4367
   26MOL0     H 3452   7.661  11.085   0.513  0.9351 -0.6818 -0.8720
   26MOL0     H 3453   7.757  11.006   0.298  0.6065  0.4791  0.0220
   26MOL0     H 3454   7.661  11.130   0.217  0.7468  0.0971 -1.6679
   26MOL0     H 3455   7.794  11.309   0.330 -1.7373 -0.2234 -0.6169
   26MOL0     H 3456   7.892  11.186   0.410  0.8909  2.5051 -0.1511
   26MOL0     H 3457   7.846  11.185   0.114 -1.2646  0.4450  0.2797
   26MOL0     H 3458   7.976  11.104   0.204 -0.2479 -0.3833 -0.4600
   26MOL0     H 3459   7.945  11.406   0.145 -2.8868 -2.0809 -0.6554
   26MOL0     H 3460   8.043  11.351   0.281  0.8338 -2.7677  0.6934
   26MOL0     H 3461   8.144  11.471  -0.025  0.4291  0.2983 -1.2006
   26MOL0     H 3462   8.360  11.284  -0.228 -0.0997  2.4972 -1.3711
   26MOL0     H 3463   8.390  11.439  -0.157  0.3559  0.0516  0.8499
   26MOL0     H 3464   8.606  11.374  -0.112  0.1093  0.7666  2.7639
   26MOL0     H 3465   8.544  11.272   0.017  2.2421  0.7471  0.3344
   26MOL0     H 3466   8.564  11.181  -0.269  2.2588  1.3946  0.0659
   26MOL0     H 3467   8.507  11.085  -0.132 -1.3350  0.3777  0.2625
   26MOL0     H 3468   8.719  11.020  -0.152  1.2672  0.7328 -0.2400
   26MOL0     H 3469   8.715  11.127  -0.011  1.0486 -1.8570  0.2245
   26MOL0     H 3470   8.977  11.353  -0.287 -1.5246 -0.9841 -0.9107
   26MOL0     H 3471   9.220  11.306  -0.334  0.1714 -1.3171 -0.5498
   26MOL0     H 3472   9.605  10.919  -0.341  2.4272 -1.9973  0.9324
   26MOL0     H 3473   9.834  10.924  -0.370 -3.0756 -1.1328  0.3459
   26MOL0     H 3474  10.050  11.352  -0.417  0.4295  0.1201 -0.2126
   26MOL0     H 3475  10.026  11.275  -0.251 -2.1966 -2.7789 -0.8164
   26MOL0     H 3476  10.243  11.138  -0.306  1.0263  0.3312  0.4799
   26MOL0     H 3477  10.255  11.220  -0.460  1.1844 -0.0350  0.4854
   26MOL0     H 3478  10.257  11.438  -0.368 -2.3033 -0.3327 -0.1289
   26MOL0     H 3479  10.282  11.380  -0.208 -1.7292 -0.5251 -0.1421
   26MOL0     H 3480  10.478  11.383  -0.423  0.7808 -1.8663  0.4581
   26MOL0     H 3481  10.481  11.233  -0.365 -2.7584 -0.7178 -0.3439
   26MOL0     H 3482  10.564  11.316  -0.152 -0.0580 -1.5541 -1.9093
   26MOL0     H 3483  10.481  11.472  -0.167  0.6153  0.9364 -0.9812
   26MOL0     H 3484  10.724  11.379  -0.320 -3.5719 -2.0418 -0.7286
   26MOL0     H 3485  10.632  11.525  -0.360 -1.6288  0.0680  1.2514
   26MOL0     H 3486  10.797  11.494  -0.103 -1.7566 -1.5189  0.1870
   26MOL0     H 3487  10.712  11.644  -0.147 -1.6098 -1.4570 -0.7154
   26MOL0     H 3488  10.938  11.510  -0.309  0.6240  1.3633 -1.2737
   26MOL0     H 3489  10.834  11.654  -0.347  1.7328  1.8014  0.4081
   26MOL0     H 3490   9.817  11.354  -0.434  0.1946 -0.9662 -0.5241
   26MOL0     H 3491   9.579  11.337  -0.406 -0.9303 -1.3818 -0.4008
   26MOL0     H 3492   9.150  10.895  -0.189 -0.6722 -0.5435 -0.5706
   26MOL0     H 3493   8.930  10.965  -0.106 -0.1096  0.7411  1.4966
   26MOL0     H 3494   7.042  10.802   0.353  0.8517  0.7085  0.6518
   26MOL0     H 3495   6.806  10.771   0.320 -1.1134 -0.2510  0.6272
   26MOL0     H 3496   6.492  10.742   0.126 -0.2269 -0.3622  1.2041
   26MOL0     H 3497   6.297  10.633   0.108  0.5660 -0.3169  1.0595
   26MOL0     H 3498   5.917  10.613   0.098  0.6377 -0.9936  0.3671
   26MOL0     H 3499   6.078  10.568   0.162 -0.4197  2.1818  0.7603
   26MOL0     H 3500   6.079  10.454  -0.056 -0.1482 -0.5865  2.9100
   26MOL0     H 3501   6.149  10.610  -0.093 -1.5487  1.0791 -0.8962
   26MOL0     H 3502   6.008  10.604  -0.262  1.0785 -1.2798 -0.0206
   26MOL0     H 3503   5.904  10.691  -0.142  0.9616  0.1733  1.7396
   26MOL0     H 3504   5.779  10.558  -0.282  2.0866  0.5758 -0.3080
   26MOL0     H 3505   5.869  10.412  -0.250  1.1117  0.0613 -1.4836
   26MOL0     H 3506   5.586  10.376   0.044  0.4914 -2.2221 -0.7865
   26MOL0     H 3507   6.098  11.002   0.056 -0.2460  2.9173  2.5838
   26MOL0     H 3508   6.292  11.202   0.244 -2.3003  0.3190  0.3680
   26MOL0     H 3509   6.369  11.233   0.085 -0.1814 -0.4784 -1.1437
   26MOL0     H 3510   6.192  11.210   0.112 -0.6933 -1.8372  3.1359
   27MOL0     O 3511   7.327   6.134   3.229  0.1331 -0.8691 -0.4976
   27MOL0     C 3512   7.345   6.017   3.216 -0.0410  0.2603  0.1767
   27MOL0     O 3513   7.466   5.962   3.180  0.2957  0.1997  0.2499
   27MOL0     C 3514   7.562   6.021   3.102 -0.2639  0.2252 -0.0146
   27MOL0     C 3515   7.675   5.945   3.075 -0.4577  0.5940 -0.2230
   27MOL0     C 3516   7.779   5.987   2.991  0.0208 -0.6939  0.5915
   27MOL0     C 3517   7.773   6.116   2.935 -0.7498 -0.2149  0.2419
   27MOL0     O 3518   7.883   6.153   2.859 -0.2210 -0.1407 -0.2255
   27MOL0     C 3519   7.873   6.238   2.745 -0.3837 -0.9429 -0.2646
   27MOL0     C 3520   7.992   6.243   2.659  0.0076 -0.0062  0.0980
   27MOL0     C 3521   8.126   6.278   2.726 -0.4475  0.5747 -0.1184
   27MOL0     C 3522   8.238   6.211   2.654 -0.3669  0.0439 -0.0302
   27MOL0     C 3523   8.373   6.239   2.724 -0.4027  0.3720 -0.1584
   27MOL0     C 3524   8.494   6.190   2.643  0.4145 -0.4069 -0.0045
   27MOL0     C 3525   8.625   6.206   2.718  0.5580 -0.3500 -0.1596
   27MOL0     C 3526   8.735   6.131   2.647 -0.1886  0.1122 -0.1177
   27MOL0     N 3527   8.869   6.155   2.700 -0.4533  0.1508 -0.1712
   27MOL0     C 3528   8.928   6.074   2.795 -0.1003  0.4089  0.4960
   27MOL0     C 3529   9.044   6.140   2.833  0.1641  0.5777 -0.1212
   27MOL0     C 3530   9.129   6.084   2.947  0.1417 -1.1693  0.6672
   27MOL0     C 3531   9.212   5.960   2.884  0.3157 -0.6280 -0.6093
   27MOL0     C 3532   9.278   5.898   3.007 -0.0104  1.0874  0.5287
   27MOL0     C 3533   9.352   5.755   2.977 -0.1818  0.0337 -0.2472
   27MOL0     O 3534   9.430   5.770   2.855  0.2749 -0.1706  0.0836
   27MOL0     C 3535   9.557   5.818   2.866 -1.1336 -0.8607 -0.1762
   27MOL0     C 3536   9.626   5.847   2.989  0.7516 -0.1012 -0.1055
   27MOL0     C 3537   9.754   5.901   2.988 -0.6922 -0.6861  0.6750
   27MOL0     C 3538   9.825   5.915   2.866  0.0991 -0.2954 -0.1530
   27MOL0     C 3539   9.974   5.947   2.874 -0.1419  0.0792  0.4132
   27MOL0     O 3540  10.048   5.924   2.758 -0.6845  0.0563 -0.5419
   27MOL0     C 3541  10.183   5.950   2.754 -0.3424  0.2099 -0.4340
   27MOL0     C 3542  10.273   5.962   2.855 -0.2330 -0.1877  0.0834
   27MOL0     C 3543  10.406   5.992   2.840  0.6443 -0.9234 -0.7074
   27MOL0     C 3544  10.457   6.012   2.713 -0.1114  0.4015  0.4286
   27MOL0     O 3545  10.590   6.039   2.699  0.1412 -0.6960 -0.2924
   27MOL0     C 3546  10.663   5.943   2.622 -0.4058 -0.5139  0.0566
   27MOL0     C 3547  10.811   5.971   2.634  0.3564 -0.0840 -0.4436
   27MOL0     C 3548  10.850   6.112   2.609  0.0150 -1.3215 -0.2652
   27MOL0     C 3549  10.990   6.124   2.556  0.2724 -0.4464  0.2686
   27MOL0     C 3550  11.013   6.269   2.508 -0.0912 -0.2325  0.2685
   27MOL0     C 3551  11.160   6.291   2.467  0.0042  0.2771 -0.7058
   27MOL0     C 3552  11.265   6.283   2.582  0.8078  1.0607 -0.1016
   27MOL0     C 3553  11.342   6.145   2.598 -0.0568  0.2506 -0.1441
   27MOL0    Cl 3554  11.429   6.097   2.444 -0.3719 -0.2888  0.2263
   27MOL0     C 3555  10.364   6.000   2.601 -0.3694  0.8309  0.4554
   27MOL0     C 3556  10.226   5.980   2.623 -0.5267 -0.6272  0.5164
   27MOL0     O 3557  10.018   5.983   2.982 -0.9265 -0.2583 -0.1073
   27MOL0     C 3558   9.759   5.876   2.750  0.5102  0.0331 -0.0419
   27MOL0     C 3559   9.621   5.843   2.751 -0.1474  0.7976 -0.4839
   27MOL0     N 3560   9.065   6.247   2.737 -0.2136 -0.2759 -0.3719
   27MOL0     N 3561   8.960   6.248   2.657  0.4592  0.4483  0.1027
   27MOL0     C 3562   7.662   6.193   2.952  0.8778 -0.7600 -0.5028
   27MOL0     C 3563   7.552   6.145   3.033  0.0345  0.1597 -0.2084
   27MOL0     C 3564   7.239   5.920   3.262  0.3920  0.6191  0.4141
   27MOL0     C 3565   7.147   5.964   3.354 -0.1604 -0.8100 -0.7564
   27MOL0     C 3566   7.054   5.874   3.397 -0.2544  0.2742  0.5583
   27MOL0     C 3567   7.037   5.745   3.340  0.0111 -0.3271 -0.3773
   27MOL0     O 3568   6.950   5.656   3.408 -0.2616 -0.0580  0.3879
   27MOL0     C 3569   6.879   5.556   3.332 -0.3838  0.2383  0.5653
   27MOL0     C 3570   6.740   5.622   3.305 -0.6627  0.7383 -0.0786
   27MOL0     C 3571   6.661   5.649   3.435  0.0079 -0.0569  0.0323
   27MOL0     C 3572   6.518   5.687   3.391 -0.6493  0.1916  0.3785
   27MOL0     C 3573   6.440   5.720   3.515 -0.0740  0.0727  1.0448
   27MOL0     C 3574   6.368   5.747   3.604  0.5586  0.3100 -0.2620
   27MOL0     C 3575   7.109   5.715   3.227  1.1735  0.0887  0.0786
   27MOL0     C 3576   7.207   5.802   3.186 -0.3926  0.2979 -0.4369
   27MOL0     C 3577   7.267   5.756   3.059 -0.1977  0.0274  0.6253
   27MOL0     H 3578   7.681   5.851   3.130 -0.9950  1.2429  0.9948
   27MOL0     H 3579   7.868   5.930   2.965 -0.6663 -1.2893 -0.4935
   27MOL0     H 3580   7.790   6.205   2.681  0.1427 -1.3628 -0.7321
   27MOL0     H 3581   7.857   6.343   2.772 -0.0604 -0.3948 -2.0617
   27MOL0     H 3582   7.974   6.307   2.573 -0.6405  1.6307  1.3825
   27MOL0     H 3583   8.005   6.140   2.625 -0.7574 -0.0457 -0.0938
   27MOL0     H 3584   8.140   6.235   2.825  0.9353  0.7864 -0.2098
   27MOL0     H 3585   8.128   6.388   2.734 -3.2265  0.8694 -2.0442
   27MOL0     H 3586   8.222   6.103   2.644  0.5489 -0.3333  2.1024
   27MOL0     H 3587   8.252   6.252   2.553  1.4719  0.3308  0.3085
   27MOL0     H 3588   8.395   6.341   2.756  1.4098 -0.1652  0.4625
   27MOL0     H 3589   8.368   6.184   2.819 -1.0268 -2.0063 -1.4711
   27MOL0     H 3590   8.480   6.083   2.621  0.8636 -0.8123  1.5718
   27MOL0     H 3591   8.500   6.248   2.551  0.1418  1.2511  0.9751
   27MOL0     H 3592   8.611   6.164   2.818 -1.4116  0.7983  0.0993
   27MOL0     H 3593   8.653   6.312   2.720 -1.4929  0.2410  1.0416
   27MOL0     H 3594   8.715   6.024   2.651  0.6974 -0.0385  2.2822
   27MOL0     H 3595   8.731   6.165   2.543  0.9751 -2.3984 -1.0713
   27MOL0     H 3596   8.880   5.996   2.853  0.3397 -0.4829 -0.3129
   27MOL0     H 3597   9.194   6.165   2.982  1.3698 -2.7091  2.0690
   27MOL0     H 3598   9.056   6.057   3.023 -0.3047 -1.1583  0.2464
   27MOL0     H 3599   9.141   5.890   2.841  0.6198 -1.4313  0.1627
   27MOL0     H 3600   9.277   5.987   2.800 -0.5902  1.2301 -0.7642
   27MOL0     H 3601   9.219   5.894   3.099 -1.6843 -1.4075 -0.5559
   27MOL0     H 3602   9.358   5.968   3.034 -2.1917  4.3103 -0.7441
   27MOL0     H 3603   9.275   5.681   2.956  0.7295 -0.2432 -3.0324
   27MOL0     H 3604   9.410   5.713   3.059 -2.1878 -2.4385  0.0042
   27MOL0     H 3605   9.569   5.850   3.082 -2.4044  2.4772 -1.8936
   27MOL0     H 3606   9.799   5.940   3.078  0.9233 -0.8532 -0.0377
   27MOL0     H 3607  10.249   5.942   2.959  1.1847  1.6941  0.8358
   27MOL0     H 3608  10.458   6.003   2.934  4.4609 -2.2715 -2.4142
   27MOL0     H 3609  10.648   5.836   2.641 -0.2262 -0.5533 -0.0220
   27MOL0     H 3610  10.624   5.963   2.522  0.3604 -1.5333 -0.4708
   27MOL0     H 3611  10.838   5.941   2.735 -2.7333 -0.7871  0.2879
   27MOL0     H 3612  10.859   5.905   2.561  0.6621  1.6437 -1.8785
   27MOL0     H 3613  10.781   6.158   2.537 -2.5898 -0.3902  2.6126
   27MOL0     H 3614  10.850   6.172   2.700  2.2123 -0.1887 -0.9553
   27MOL0     H 3615  11.011   6.063   2.467  1.1131 -0.3514  0.3974
   27MOL0     H 3616  11.052   6.078   2.633 -1.8394 -2.9506  0.6403
   27MOL0     H 3617  10.995   6.339   2.590 -0.4436  0.4689 -0.3841
   27MOL0     H 3618  10.952   6.287   2.419 -0.1071 -0.0249  0.3199
   27MOL0     H 3619  11.190   6.221   2.389  2.3952 -0.7692  1.0133
   27MOL0     H 3620  11.159   6.396   2.439 -1.5210  0.5349  0.1779
   27MOL0     H 3621  11.224   6.315   2.679 -1.6527  2.5458 -1.5258
   27MOL0     H 3622  11.346   6.351   2.553  2.0514 -0.6969 -0.9118
   27MOL0     H 3623  11.406   6.144   2.687 -1.7064 -1.3553  1.0821
   27MOL0     H 3624  11.266   6.068   2.613  0.0217  0.2881  0.4802
   27MOL0     H 3625  10.394   6.018   2.498 -0.4332 -0.9450  0.1057
   27MOL0     H 3626  10.156   5.966   2.541  2.6071 -2.7821 -2.0647
   27MOL0     H 3627   9.799   5.874   2.649  2.3953 -0.7807  0.6757
   27MOL0     H 3628   9.573   5.815   2.658  0.6539 -2.4833 -0.0130
   27MOL0     H 3629   7.651   6.293   2.913 -0.9913  0.3966  2.6037
   27MOL0     H 3630   7.467   6.211   3.044  1.0259  1.5155 -0.3731
   27MOL0     H 3631   7.179   6.059   3.396  0.9767 -0.0137 -3.1856
   27MOL0     H 3632   6.986   5.904   3.477  0.6909 -0.1806  1.5483
   27MOL0     H 3633   6.879   5.464   3.390  2.7250  0.1471  0.5740
   27MOL0     H 3634   6.923   5.533   3.234 -0.2145 -0.7303  0.8639
   27MOL0     H 3635   6.679   5.562   3.237  1.0878 -1.2877  0.0159
   27MOL0     H 3636   6.756   5.720   3.260 -2.6260  1.1379  0.0210
   27MOL0     H 3637   6.706   5.731   3.492  0.5802 -0.0882 -0.3712
   27MOL0     H 3638   6.661   5.558   3.495 -0.3462  1.4350  2.4292
   27MOL0     H 3639   6.531   5.781   3.338  1.5394 -1.1113 -1.5905
   27MOL0     H 3640   6.474   5.623   3.313 -0.1136 -0.2701  0.4465
   27MOL0     H 3641   6.315   5.779   3.691  0.1112 -3.0008  0.8451
   27MOL0     H 3642   7.090   5.626   3.168 -1.7241  1.7829 -1.8169
   27MOL0     H 3643   7.183   5.720   2.999  1.1974  0.2208 -1.5474
   27MOL0     H 3644   7.319   5.825   2.993 -2.1307 -0.8522 -1.9664
   27MOL0     H 3645   7.329   5.669   3.085  1.8673  1.1236 -0.4103
   28MOL0     O 3646   9.437   8.521   0.077 -0.8090  0.1118 -0.4243
   28MOL0     C 3647   9.408   8.404   0.082  0.1450 -0.5972 -0.4066
   28MOL0     O 3648   9.276   8.360   0.064 -0.3747 -0.0653 -0.2227
   28MOL0     C 3649   9.197   8.428  -0.029  0.1569  0.3831 -0.0709
   28MOL0     C 3650   9.153   8.558  -0.008 -0.1955  1.0971  0.3532
   28MOL0     C 3651   9.077   8.625  -0.103  0.2244 -0.1777  0.5351
   28MOL0     C 3652   9.035   8.556  -0.222  0.3895 -0.0637  0.3013
   28MOL0     O 3653   8.944   8.606  -0.311 -0.2940 -0.1343  0.4750
   28MOL0     C 3654   8.917   8.747  -0.307  0.1970 -0.8466  0.5544
   28MOL0     C 3655   8.853   8.787  -0.437  0.7831 -0.0418  0.1149
   28MOL0     C 3656   8.953   8.768  -0.550 -0.5494  0.1153  0.8876
   28MOL0     C 3657   8.872   8.780  -0.684 -0.9957  0.2417 -0.1368
   28MOL0     C 3658   8.950   8.760  -0.820 -0.5341  0.6576 -0.8246
   28MOL0     C 3659   9.029   8.890  -0.847 -0.0389 -0.2348  0.9251
   28MOL0     C 3660   9.075   8.883  -0.997  0.0225  0.1323  0.3507
   28MOL0     C 3661   9.169   9.004  -1.028 -0.1580 -0.1715 -0.0307
   28MOL0     N 3662   9.255   8.979  -1.145 -0.0709  0.3750  0.3220
   28MOL0     C 3663   9.225   9.007  -1.277  0.3482 -0.3213 -0.3039
   28MOL0     C 3664   9.339   8.980  -1.345 -0.3937  0.8303 -0.3522
   28MOL0     C 3665   9.364   8.977  -1.490  0.0996 -1.0518  0.3448
   28MOL0     C 3666   9.422   8.838  -1.529  0.2008 -0.2265 -0.3322
   28MOL0     C 3667   9.543   8.843  -1.632  0.1454  0.6300 -1.0856
   28MOL0     C 3668   9.661   8.929  -1.582  0.1495  0.7536 -0.6231
   28MOL0     O 3669   9.784   8.915  -1.661 -0.1249  0.6390 -0.1509
   28MOL0     C 3670   9.901   8.941  -1.602 -0.7101 -0.6733  0.0152
   28MOL0     C 3671   9.931   9.002  -1.476  0.3557 -0.6553  0.1835
   28MOL0     C 3672  10.060   9.010  -1.430  0.3078  0.2115  0.6676
   28MOL0     C 3673  10.167   8.965  -1.506  0.3781 -0.1099 -0.8534
   28MOL0     C 3674  10.305   8.992  -1.459  0.2433 -0.4787  0.3021
   28MOL0     O 3675  10.394   8.983  -1.562  0.2522 -0.0278 -0.4737
   28MOL0     C 3676  10.536   8.995  -1.549 -0.7591 -0.0426 -0.3923
   28MOL0     C 3677  10.613   8.917  -1.632 -0.4057  0.1059  0.0710
   28MOL0     C 3678  10.743   8.950  -1.660 -0.0529  0.8053 -0.9178
   28MOL0     C 3679  10.810   9.048  -1.586  0.6139 -0.1111 -0.4405
   28MOL0     O 3680  10.938   9.082  -1.597  0.8585  0.2482 -0.3357
   28MOL0     C 3681  11.044   8.992  -1.636 -0.4905  0.3780 -0.5686
   28MOL0     C 3682  11.061   9.004  -1.791 -0.6451 -0.0010  0.1498
   28MOL0     C 3683  11.154   8.899  -1.837 -0.0701  0.0731  0.2198
   28MOL0     C 3684  11.287   8.899  -1.766  0.2269  0.8193  0.1003
   28MOL0     C 3685  11.391   8.812  -1.848 -0.0424 -0.0909 -0.6940
   28MOL0     C 3686  11.510   8.779  -1.770 -0.6489 -0.0680  0.8396
   28MOL0     C 3687  11.491   8.707  -1.632 -0.2170 -0.2841 -0.2115
   28MOL0     C 3688  11.631   8.677  -1.561  0.8800 -0.3566  0.5301
   28MOL0    Cl 3689  11.770   8.604  -1.661 -0.2336 -0.1280  0.3629
   28MOL0     C 3690  10.735   9.125  -1.499 -0.1316 -0.1735  0.3088
   28MOL0     C 3691  10.595   9.104  -1.481  0.1290 -0.2550 -0.1315
   28MOL0     O 3692  10.328   9.002  -1.340  0.3605  0.5182  0.2534
   28MOL0     C 3693  10.138   8.908  -1.631 -0.1538 -0.0706 -0.4159
   28MOL0     C 3694  10.006   8.894  -1.674 -0.1697  0.9137  0.0522
   28MOL0     N 3695   9.441   8.959  -1.254  0.4928  0.1286 -0.8129
   28MOL0     N 3696   9.388   8.973  -1.142  0.7385  0.9331 -0.0026
   28MOL0     C 3697   9.070   8.424  -0.236 -0.4500 -0.2335  0.0772
   28MOL0     C 3698   9.149   8.359  -0.140 -0.6344 -0.0795  0.1013
   28MOL0     C 3699   9.500   8.306   0.140  0.5754 -0.4779  0.5392
   28MOL0     C 3700   9.443   8.190   0.204 -0.6583 -0.8564 -0.3295
   28MOL0     C 3701   9.527   8.091   0.251 -0.2175 -0.3301  0.1354
   28MOL0     C 3702   9.660   8.095   0.251  0.0242  0.3250  0.3046
   28MOL0     O 3703   9.727   7.995   0.318 -0.2933 -0.4036 -0.0928
   28MOL0     C 3704   9.855   7.961   0.271 -0.1101  0.3990  0.0995
   28MOL0     C 3705   9.893   7.819   0.315  0.0095  0.3970 -0.1209
   28MOL0     C 3706   9.971   7.741   0.200  0.2724 -0.6572 -0.0637
   28MOL0     C 3707   9.965   7.596   0.206  0.0180  0.0817 -1.0198
   28MOL0     C 3708  10.059   7.542   0.306  0.0266  0.2692 -0.9497
   28MOL0     C 3709  10.138   7.505   0.398  0.6372  1.0016 -0.3659
   28MOL0     C 3710   9.719   8.205   0.189 -0.7230  0.6337 -0.1277
   28MOL0     C 3711   9.646   8.303   0.129 -1.3192  0.0467 -0.6639
   28MOL0     C 3712   9.728   8.404   0.048  0.1742  0.4931  0.2518
   28MOL0     H 3713   9.197   8.617   0.072  0.3775 -0.2111  1.0241
   28MOL0     H 3714   9.046   8.728  -0.089  0.9734  0.1870 -0.3753
   28MOL0     H 3715   8.850   8.764  -0.223  0.7416  0.0052  0.8298
   28MOL0     H 3716   9.009   8.804  -0.294  0.7569 -1.7626  0.6635
   28MOL0     H 3717   8.844   8.896  -0.429  4.1054  0.2042  2.3940
   28MOL0     H 3718   8.761   8.731  -0.451  0.8771 -0.0381 -0.6006
   28MOL0     H 3719   9.019   8.681  -0.546  0.7803  1.0759  0.5940
   28MOL0     H 3720   9.020   8.854  -0.539 -0.4501  0.2095 -0.3205
   28MOL0     H 3721   8.817   8.687  -0.667 -0.2188  0.0823  1.6612
   28MOL0     H 3722   8.806   8.867  -0.688 -0.7677  0.3770 -2.1553
   28MOL0     H 3723   9.028   8.684  -0.816  0.8543  2.0658  1.0337
   28MOL0     H 3724   8.878   8.736  -0.899 -1.8790  1.1444  0.1985
   28MOL0     H 3725   8.959   8.969  -0.818 -0.1840 -0.3756  0.9633
   28MOL0     H 3726   9.120   8.893  -0.788  2.6847 -2.3431 -2.7568
   28MOL0     H 3727   9.000   8.891  -1.076  0.9976 -1.2296 -0.7733
   28MOL0     H 3728   9.125   8.788  -1.017 -1.5021 -0.7053  0.4277
   28MOL0     H 3729   9.107   9.091  -1.049 -1.9426 -0.9997  1.5028
   28MOL0     H 3730   9.238   9.039  -0.950  0.1528 -0.3594 -0.2194
   28MOL0     H 3731   9.131   9.036  -1.322  0.1216 -2.0025 -0.9874
   28MOL0     H 3732   9.268   9.001  -1.536 -0.3948  3.7028  3.1969
   28MOL0     H 3733   9.432   9.061  -1.508  0.0518 -0.8446  1.1240
   28MOL0     H 3734   9.449   8.774  -1.444  1.3963  2.5383  1.5193
   28MOL0     H 3735   9.343   8.780  -1.578  1.1033 -0.8140 -1.1338
   28MOL0     H 3736   9.497   8.886  -1.721 -1.4116 -0.5183 -0.8738
   28MOL0     H 3737   9.571   8.742  -1.664 -3.4977 -0.0948 -2.4102
   28MOL0     H 3738   9.671   8.913  -1.475 -2.3014 -0.7093 -0.5376
   28MOL0     H 3739   9.637   9.034  -1.599  0.9178  1.1039  0.3819
   28MOL0     H 3740   9.849   9.037  -1.415  0.3386  0.0307 -0.2235
   28MOL0     H 3741  10.079   9.048  -1.330  1.7401 -0.9098  0.8669
   28MOL0     H 3742  10.557   8.849  -1.695  1.2257 -0.8695 -0.4008
   28MOL0     H 3743  10.802   8.887  -1.725  1.2302 -0.0394  0.9896
   28MOL0     H 3744  11.136   9.025  -1.587 -0.9183  0.2962  0.3047
   28MOL0     H 3745  11.026   8.886  -1.616 -2.2190  0.2355 -2.5039
   28MOL0     H 3746  10.966   8.984  -1.841 -0.9606 -2.7168  1.6571
   28MOL0     H 3747  11.098   9.102  -1.823  0.0644  0.3024  1.7863
   28MOL0     H 3748  11.111   8.800  -1.817 -1.0783  0.1821 -1.2277
   28MOL0     H 3749  11.164   8.907  -1.946  0.2294  0.7819  0.2967
   28MOL0     H 3750  11.278   8.869  -1.661 -0.6781  1.1832  0.1322
   28MOL0     H 3751  11.335   8.997  -1.770  0.8892  0.5087  0.2517
   28MOL0     H 3752  11.425   8.870  -1.934  3.3000 -2.6021 -1.2694
   28MOL0     H 3753  11.344   8.723  -1.891  0.5313 -0.4542 -0.5888
   28MOL0     H 3754  11.574   8.709  -1.826 -1.1020  1.2465 -1.4705
   28MOL0     H 3755  11.564   8.872  -1.750  1.7897 -1.3777  0.7061
   28MOL0     H 3756  11.441   8.612  -1.654 -3.0831  0.0088  3.9329
   28MOL0     H 3757  11.429   8.756  -1.557 -1.0592 -0.8202 -0.5417
   28MOL0     H 3758  11.662   8.768  -1.510  0.5442  0.6865 -1.0436
   28MOL0     H 3759  11.610   8.603  -1.483 -4.4541  1.4368  1.2562
   28MOL0     H 3760  10.779   9.211  -1.450  0.4706  0.3678 -1.1529
   28MOL0     H 3761  10.527   9.169  -1.427  1.7024  1.7092 -0.3981
   28MOL0     H 3762  10.218   8.859  -1.686  0.0007  0.1034 -0.3487
   28MOL0     H 3763   9.991   8.843  -1.769  1.7077 -0.4579  0.4288
   28MOL0     H 3764   9.029   8.383  -0.328 -2.6425 -0.8566  1.2629
   28MOL0     H 3765   9.179   8.256  -0.157  0.4996  0.4366 -1.2626
   28MOL0     H 3766   9.336   8.181   0.221 -1.0134  0.0996 -1.9023
   28MOL0     H 3767   9.491   7.995   0.287  3.3765 -1.3125  1.5361
   28MOL0     H 3768   9.932   8.031   0.306  0.1763  0.4098 -0.5498
   28MOL0     H 3769   9.849   7.960   0.162  0.6087 -0.0768  0.0522
   28MOL0     H 3770   9.799   7.768   0.339  0.0395  0.1527 -0.5089
   28MOL0     H 3771   9.955   7.818   0.405  0.1126 -2.1275 -0.1441
   28MOL0     H 3772  10.069   7.788   0.212 -0.7822  1.3984  1.1633
   28MOL0     H 3773   9.931   7.771   0.103 -1.3050  2.0192  1.2720
   28MOL0     H 3774   9.860   7.567   0.203 -0.2428  0.9617 -0.8418
   28MOL0     H 3775  10.000   7.559   0.110 -1.1733 -0.8513 -1.1213
   28MOL0     H 3776  10.189   7.457   0.480  1.5372 -0.3107 -1.6433
   28MOL0     H 3777   9.827   8.215   0.195 -0.7545  0.6171  0.6501
   28MOL0     H 3778   9.735   8.356  -0.050  2.6374 -0.9895  1.0641
   28MOL0     H 3779   9.679   8.500   0.030 -0.3194  0.3926  0.9795
   28MOL0     H 3780   9.830   8.414   0.086  0.1573 -1.9700  1.1782
   29MOL0     O 3781   4.583   1.918   5.450  0.0840  0.3479 -1.3336
   29MOL0     C 3782   4.560   1.798   5.467  0.1402 -0.4499 -0.2096
   29MOL0     O 3783   4.641   1.712   5.534  0.6010 -0.2091  0.2365
   29MOL0     C 3784   4.741   1.760   5.609  0.4419 -0.6597 -0.7197
   29MOL0     C 3785   4.718   1.760   5.746 -0.3635  0.4751 -0.6772
   29MOL0     C 3786   4.820   1.811   5.826 -0.2041  0.3255 -0.3737
   29MOL0     C 3787   4.947   1.854   5.777 -0.1221  0.8498 -0.2543
   29MOL0     O 3788   5.047   1.882   5.866 -0.5110 -0.5719  0.4717
   29MOL0     C 3789   5.129   1.995   5.828 -0.2495 -0.7922  0.2389
   29MOL0     C 3790   5.226   2.046   5.941 -0.2684  0.0078  0.1017
   29MOL0     C 3791   5.331   2.148   5.881 -0.6489  1.2828  0.1588
   29MOL0     C 3792   5.266   2.273   5.826 -0.1954 -0.3526 -0.5328
   29MOL0     C 3793   5.375   2.374   5.784 -0.3440  0.3840  0.1545
   29MOL0     C 3794   5.321   2.507   5.727 -0.1170  1.2005  0.5700
   29MOL0     C 3795   5.416   2.598   5.662  0.1537 -0.2172  0.1335
   29MOL0     C 3796   5.516   2.661   5.756 -0.1767 -0.3679 -0.2947
   29MOL0     N 3797   5.599   2.762   5.686  0.0264  0.0059 -0.4976
   29MOL0     C 3798   5.731   2.757   5.652 -0.0720 -0.5776  0.3272
   29MOL0     C 3799   5.759   2.887   5.617  0.1846 -0.8476  0.5912
   29MOL0     C 3800   5.883   2.954   5.573  0.2911  0.0074 -0.7881
   29MOL0     C 3801   5.973   2.862   5.494 -0.6714 -0.7806 -0.3329
   29MOL0     C 3802   6.093   2.941   5.440  0.2737 -0.7698 -0.9413
   29MOL0     C 3803   6.207   2.861   5.368 -0.1016  0.0220  0.3530
   29MOL0     O 3804   6.299   2.815   5.470  0.2300  0.0103  0.1194
   29MOL0     C 3805   6.427   2.781   5.430  0.6199 -0.5151 -0.3665
   29MOL0     C 3806   6.469   2.764   5.294 -0.5414  0.0504 -0.2010
   29MOL0     C 3807   6.605   2.742   5.261  0.0826 -0.2247  0.0429
   29MOL0     C 3808   6.700   2.704   5.359  0.0935  0.4971  0.1675
   29MOL0     C 3809   6.835   2.672   5.319  0.1715  0.3604 -0.5504
   29MOL0     O 3810   6.926   2.649   5.427 -0.2237  0.3369 -0.1983
   29MOL0     C 3811   7.056   2.638   5.398  0.3168  0.3254  0.0308
   29MOL0     C 3812   7.129   2.735   5.328 -0.2370  0.1056  0.1208
   29MOL0     C 3813   7.263   2.711   5.299 -0.7066 -0.0666 -0.0235
   29MOL0     C 3814   7.327   2.606   5.363  0.2881 -0.8008  0.7784
   29MOL0     O 3815   7.456   2.568   5.335  1.0495  1.0392 -0.3025
   29MOL0     C 3816   7.550   2.662   5.387 -0.3516  0.9380  0.7628
   29MOL0     C 3817   7.697   2.620   5.394  0.6423  0.4524  0.1058
   29MOL0     C 3818   7.706   2.499   5.489 -0.0130 -0.3655 -0.1687
   29MOL0     C 3819   7.824   2.406   5.468 -0.0615 -0.1008  0.5527
   29MOL0     C 3820   7.827   2.335   5.329  0.3697  0.2524  0.0069
   29MOL0     C 3821   7.974   2.301   5.286  0.3495 -0.3898  0.4450
   29MOL0     C 3822   8.037   2.199   5.385  0.1183  0.2539  0.7038
   29MOL0     C 3823   8.162   2.118   5.330  0.2739 -0.6406  0.2823
   29MOL0    Cl 3824   8.246   2.032   5.450 -0.3379  0.3037 -0.1500
   29MOL0     C 3825   7.258   2.515   5.433  0.5028 -0.2155 -0.9258
   29MOL0     C 3826   7.119   2.533   5.459 -0.4201 -0.4246 -0.0356
   29MOL0     O 3827   6.865   2.682   5.200  0.1576 -0.0352  0.0927
   29MOL0     C 3828   6.651   2.716   5.495 -0.3361  0.1114  1.1140
   29MOL0     C 3829   6.520   2.764   5.537  0.3847 -0.5407 -0.2767
   29MOL0     N 3830   5.645   2.959   5.621 -0.3033  1.0531 -0.2629
   29MOL0     N 3831   5.560   2.893   5.681  0.4570  0.1091  0.2579
   29MOL0     C 3832   4.964   1.856   5.638 -0.2002  0.7352 -0.0278
   29MOL0     C 3833   4.859   1.810   5.557  0.1464 -0.5937  0.3573
   29MOL0     C 3834   4.439   1.737   5.399 -0.5490 -0.8475 -0.7705
   29MOL0     C 3835   4.341   1.830   5.366  0.0143 -0.0098 -0.1152
   29MOL0     C 3836   4.226   1.771   5.310  0.8705 -0.6591 -0.6858
   29MOL0     C 3837   4.208   1.636   5.287 -0.1409  0.7894  0.4108
   29MOL0     O 3838   4.087   1.578   5.246 -0.2230  0.6260  0.0107
   29MOL0     C 3839   4.084   1.467   5.154 -0.4267  0.8018  0.5066
   29MOL0     C 3840   3.952   1.475   5.093 -0.4278 -0.4583 -0.6320
   29MOL0     C 3841   3.840   1.444   5.200  0.0449  0.5932  0.5002
   29MOL0     C 3842   3.699   1.425   5.142  0.2784  0.0751 -0.3093
   29MOL0     C 3843   3.606   1.359   5.235  0.7489  0.4359  0.2296
   29MOL0     C 3844   3.535   1.291   5.305 -0.1964  0.2438 -0.1207
   29MOL0     C 3845   4.313   1.552   5.305 -0.7287 -0.4458 -0.0184
   29MOL0     C 3846   4.431   1.600   5.362  0.1489  0.0713  0.0353
   29MOL0     C 3847   4.538   1.495   5.392 -0.6345 -0.0253 -0.3728
   29MOL0     H 3848   4.619   1.732   5.781 -0.8864 -0.1618 -2.4961
   29MOL0     H 3849   4.810   1.817   5.934 -1.2651 -2.3679 -0.2506
   29MOL0     H 3850   5.188   1.965   5.741 -3.4283  0.2277 -2.4886
   29MOL0     H 3851   5.066   2.082   5.802  0.9730 -0.2614 -1.0723
   29MOL0     H 3852   5.282   1.962   5.983 -0.6378 -0.8138 -1.0237
   29MOL0     H 3853   5.171   2.097   6.021 -2.5119 -0.8111 -0.8591
   29MOL0     H 3854   5.384   2.092   5.804  1.1161  0.1512  2.0934
   29MOL0     H 3855   5.400   2.171   5.963  0.5150 -4.2848  1.1008
   29MOL0     H 3856   5.223   2.249   5.728 -0.9140 -1.8405  0.1204
   29MOL0     H 3857   5.203   2.325   5.900  0.8437  1.6907 -1.0047
   29MOL0     H 3858   5.431   2.409   5.871 -2.6235  1.9523  1.0683
   29MOL0     H 3859   5.454   2.333   5.719  0.2168 -1.7214  2.0338
   29MOL0     H 3860   5.258   2.485   5.640  0.4904  1.6802  0.0010
   29MOL0     H 3861   5.256   2.552   5.803 -0.1883 -0.2610  1.4114
   29MOL0     H 3862   5.361   2.675   5.606  1.3835  1.7482  1.4982
   29MOL0     H 3863   5.476   2.532   5.599  1.8826 -0.9813  2.4322
   29MOL0     H 3864   5.459   2.694   5.844  1.5009 -1.0852  1.1149
   29MOL0     H 3865   5.582   2.580   5.786  0.2816  0.2214  0.3142
   29MOL0     H 3866   5.803   2.675   5.656  0.8840  0.1691 -0.8235
   29MOL0     H 3867   5.856   3.043   5.516 -0.8553  1.5914  1.9960
   29MOL0     H 3868   5.930   2.991   5.664 -1.3244 -0.2755  0.2216
   29MOL0     H 3869   5.997   2.771   5.550  1.0992 -1.1196 -1.5564
   29MOL0     H 3870   5.914   2.826   5.410  1.7965 -1.3188 -1.9538
   29MOL0     H 3871   6.124   3.003   5.524 -1.0357  0.2575 -1.1790
   29MOL0     H 3872   6.046   2.999   5.360 -1.5978 -3.0968 -1.6851
   29MOL0     H 3873   6.253   2.930   5.296 -0.7409  1.2875  1.1187
   29MOL0     H 3874   6.175   2.773   5.311 -2.0064  1.2226 -0.5458
   29MOL0     H 3875   6.404   2.782   5.209 -0.7846 -0.8468 -0.2095
   29MOL0     H 3876   6.634   2.751   5.157 -2.4019 -1.8742 -0.8827
   29MOL0     H 3877   7.076   2.821   5.289 -0.5255 -0.5495 -0.9678
   29MOL0     H 3878   7.321   2.774   5.233 -2.4004 -0.5779 -2.1168
   29MOL0     H 3879   7.543   2.755   5.330 -0.3817  1.2097  1.2029
   29MOL0     H 3880   7.532   2.686   5.493  2.1210  0.6089  1.3173
   29MOL0     H 3881   7.733   2.595   5.294  1.8133  2.9740 -0.1749
   29MOL0     H 3882   7.756   2.704   5.432 -1.0179  1.9127 -0.3708
   29MOL0     H 3883   7.704   2.538   5.591 -1.0391  0.7094 -0.5833
   29MOL0     H 3884   7.617   2.436   5.487  0.4727 -1.3238  2.8985
   29MOL0     H 3885   7.831   2.333   5.549 -1.5946 -1.8495 -0.8088
   29MOL0     H 3886   7.916   2.466   5.467  0.8900 -1.4566  2.2816
   29MOL0     H 3887   7.781   2.394   5.250  1.4854 -0.5493 -1.2808
   29MOL0     H 3888   7.768   2.244   5.338 -0.5082  0.8763  0.8352
   29MOL0     H 3889   7.977   2.265   5.182 -2.2979 -0.2010  0.2383
   29MOL0     H 3890   8.031   2.393   5.277  0.5050 -0.4923  0.3856
   29MOL0     H 3891   7.955   2.132   5.410 -2.1743  2.4460 -0.4516
   29MOL0     H 3892   8.071   2.253   5.474  0.4374  2.2993 -0.5921
   29MOL0     H 3893   8.126   2.055   5.248  0.1823 -4.4572  3.0201
   29MOL0     H 3894   8.235   2.194   5.298  1.3299 -0.3017  3.1439
   29MOL0     H 3895   7.308   2.437   5.490  1.1355  1.4930  0.9559
   29MOL0     H 3896   7.065   2.464   5.523 -1.0726 -0.7850 -0.9478
   29MOL0     H 3897   6.723   2.698   5.574 -0.1900  0.8832  1.1676
   29MOL0     H 3898   6.497   2.770   5.643  1.2618  0.9661 -0.1303
   29MOL0     H 3899   5.064   1.878   5.600  1.2019 -2.5070  1.3998
   29MOL0     H 3900   4.880   1.806   5.450  2.1227 -2.1520  0.7430
   29MOL0     H 3901   4.351   1.936   5.384  0.5884  0.2851 -1.9826
   29MOL0     H 3902   4.143   1.840   5.295 -0.3276 -0.4622  4.8890
   29MOL0     H 3903   4.103   1.369   5.198  0.2428  0.5008 -0.4193
   29MOL0     H 3904   4.153   1.470   5.069 -0.8332 -1.4684  0.0493
   29MOL0     H 3905   3.935   1.397   5.018  1.6584  1.0353 -2.8237
   29MOL0     H 3906   3.935   1.571   5.042  1.0774 -0.6611 -1.5802
   29MOL0     H 3907   3.836   1.524   5.273 -2.0315  0.0614  1.0470
   29MOL0     H 3908   3.875   1.351   5.245  2.6264  0.6146 -1.2124
   29MOL0     H 3909   3.658   1.521   5.109 -0.4138 -1.1806 -3.4915
   29MOL0     H 3910   3.692   1.376   5.045 -1.5379  0.5586 -0.4705
   29MOL0     H 3911   3.471   1.248   5.379 -1.1273 -1.0290 -1.6077
   29MOL0     H 3912   4.302   1.445   5.292  0.3195 -0.5890  0.2219
   29MOL0     H 3913   4.536   1.468   5.498  0.4167 -0.2263 -0.3873
   29MOL0     H 3914   4.514   1.403   5.338 -0.7570 -0.8166  0.9722
   29MOL0     H 3915   4.640   1.528   5.370 -0.7513  0.9510  0.4310
   30MOL0     O 3916  10.396   6.385   3.824  0.8518  0.1070  0.0580
   30MOL0     C 3917  10.426   6.450   3.725  0.3714  0.2251 -0.8154
   30MOL0     O 3918  10.346   6.521   3.652 -0.3231 -0.2541 -0.2135
   30MOL0     C 3919  10.211   6.513   3.674 -0.4955 -0.8326 -0.1645
   30MOL0     C 3920  10.146   6.626   3.718  0.6892 -0.2390  0.0320
   30MOL0     C 3921  10.009   6.633   3.754 -0.0597  0.7109  0.8400
   30MOL0     C 3922   9.930   6.520   3.754 -0.8077 -0.3196  0.9913
   30MOL0     O 3923   9.805   6.521   3.786  0.3716  0.8170 -0.6778
   30MOL0     C 3924   9.724   6.632   3.742  0.6180  0.7520 -0.5793
   30MOL0     C 3925   9.581   6.589   3.737 -0.2298  0.8347 -0.0503
   30MOL0     C 3926   9.479   6.690   3.672 -0.0880 -0.4656  0.1674
   30MOL0     C 3927   9.485   6.698   3.524  0.4541 -0.2781 -0.4909
   30MOL0     C 3928   9.384   6.799   3.472 -0.4319 -0.1960  0.0306
   30MOL0     C 3929   9.379   6.780   3.320  0.9412  0.0087  0.9007
   30MOL0     C 3930   9.251   6.844   3.256  1.1080 -0.0460 -0.4031
   30MOL0     C 3931   9.292   6.987   3.238 -0.0047 -0.3967  0.5869
   30MOL0     N 3932   9.190   7.064   3.174 -0.1731 -0.7341  0.0698
   30MOL0     C 3933   9.167   7.070   3.038  0.4999  0.0231  0.1523
   30MOL0     C 3934   9.054   7.154   3.023 -0.2883 -0.1338  1.1585
   30MOL0     C 3935   8.987   7.203   2.897 -0.0209 -0.0387 -0.1920
   30MOL0     C 3936   9.062   7.304   2.807 -0.2938 -0.9706 -0.6111
   30MOL0     C 3937   9.179   7.265   2.724  0.3385  0.7888 -0.3167
   30MOL0     C 3938   9.250   7.369   2.644  1.0282 -0.9976 -0.0795
   30MOL0     O 3939   9.358   7.308   2.568 -0.1794 -0.2677 -0.2881
   30MOL0     C 3940   9.485   7.360   2.569  0.0973 -1.0281 -0.1718
   30MOL0     C 3941   9.591   7.276   2.533  0.1212 -0.5251 -0.3360
   30MOL0     C 3942   9.722   7.316   2.544 -0.0348  0.3442 -0.0905
   30MOL0     C 3943   9.758   7.446   2.583 -1.2027 -0.5956 -1.3526
   30MOL0     C 3944   9.906   7.491   2.587 -0.7952 -0.3846 -0.7872
   30MOL0     O 3945   9.999   7.407   2.524  0.0232  0.4619  0.2788
   30MOL0     C 3946  10.130   7.440   2.514  0.2284  0.4189  0.1299
   30MOL0     C 3947  10.228   7.357   2.551  0.4015  0.3083  0.1109
   30MOL0     C 3948  10.359   7.397   2.541 -0.0576  0.3424 -0.2052
   30MOL0     C 3949  10.389   7.514   2.472  0.0916  0.1486  0.1476
   30MOL0     O 3950  10.510   7.567   2.462 -0.1562 -0.3908  0.0389
   30MOL0     C 3951  10.616   7.486   2.413 -0.4542  0.3510  0.0065
   30MOL0     C 3952  10.756   7.547   2.384  0.1349  0.0766  0.5727
   30MOL0     C 3953  10.795   7.624   2.508  0.1682  0.1191  0.2179
   30MOL0     C 3954  10.929   7.697   2.498 -0.2194  0.3257 -0.1097
   30MOL0     C 3955  10.958   7.760   2.638 -0.3550 -0.9601  0.8980
   30MOL0     C 3956  11.067   7.870   2.632 -0.2149 -0.5083  0.5585
   30MOL0     C 3957  11.218   7.835   2.591  0.3389  0.2165  0.2113
   30MOL0     C 3958  11.299   7.963   2.548 -0.7357  0.8351  0.1790
   30MOL0    Cl 3959  11.467   7.923   2.495 -0.2489 -0.1278 -0.0328
   30MOL0     C 3960  10.286   7.589   2.426  0.7187  0.0238  0.2010
   30MOL0     C 3961  10.160   7.553   2.444 -0.6990  0.2144 -0.1312
   30MOL0     O 3962   9.936   7.590   2.657  0.5148 -0.0773  0.2549
   30MOL0     C 3963   9.650   7.527   2.614 -0.0276 -0.5097  0.8186
   30MOL0     C 3964   9.515   7.489   2.602 -0.1843  0.6374  0.0136
   30MOL0     N 3965   9.020   7.193   3.147  0.3069  0.6285  0.3190
   30MOL0     N 3966   9.094   7.143   3.232 -0.1310 -0.3982  0.5025
   30MOL0     C 3967   9.994   6.405   3.700 -0.0588  0.0128 -0.4138
   30MOL0     C 3968  10.129   6.403   3.661 -0.3792  0.3727 -0.2424
   30MOL0     C 3969  10.569   6.452   3.693  0.3356  0.7283  0.1865
   30MOL0     C 3970  10.616   6.560   3.610  0.8231  0.4560 -1.0363
   30MOL0     C 3971  10.743   6.553   3.548  0.6126  0.2833  0.1252
   30MOL0     C 3972  10.821   6.435   3.563 -0.7956  0.1343  0.4376
   30MOL0     O 3973  10.950   6.408   3.524 -0.0752 -0.2701 -0.6368
   30MOL0     C 3974  10.998   6.500   3.437 -0.2032  0.2715  0.1016
   30MOL0     C 3975  11.147   6.469   3.407 -0.3900  0.5071 -0.7648
   30MOL0     C 3976  11.203   6.589   3.329  0.3209  0.4475 -0.5354
   30MOL0     C 3977  11.357   6.587   3.345  0.0840  0.4347  0.6569
   30MOL0     C 3978  11.431   6.665   3.241  0.3438  0.2978 -0.6175
   30MOL0     C 3979  11.504   6.704   3.158 -1.1115  0.2741  0.8035
   30MOL0     C 3980  10.781   6.340   3.654  0.5279 -0.8870  0.3485
   30MOL0     C 3981  10.657   6.340   3.719  0.1099 -0.1600  0.1592
   30MOL0     C 3982  10.621   6.216   3.796 -0.7697  0.5783  0.0510
   30MOL0     H 3983  10.192   6.722   3.739 -0.7063  0.3248  0.6197
   30MOL0     H 3984   9.968   6.722   3.799 -2.7854  0.6479 -1.2532
   30MOL0     H 3985   9.737   6.719   3.808  2.1168 -0.9003  1.4443
   30MOL0     H 3986   9.745   6.664   3.640  3.2856  0.1925 -0.2716
   30MOL0     H 3987   9.549   6.556   3.836 -0.3964 -0.2594 -0.4554
   30MOL0     H 3988   9.575   6.498   3.676 -1.6370  0.5578  0.4751
   30MOL0     H 3989   9.492   6.788   3.719 -3.1191  0.1130 -0.0113
   30MOL0     H 3990   9.376   6.663   3.695 -0.7236  0.5974 -1.3145
   30MOL0     H 3991   9.586   6.733   3.500  0.8524 -0.0995  1.2801
   30MOL0     H 3992   9.471   6.601   3.477 -0.5808  0.6649 -2.2352
   30MOL0     H 3993   9.283   6.775   3.505 -1.0016  0.8042 -0.9278
   30MOL0     H 3994   9.418   6.897   3.505  0.3643 -0.2110 -0.7008
   30MOL0     H 3995   9.462   6.829   3.270  0.6959 -2.2080 -1.9384
   30MOL0     H 3996   9.395   6.678   3.283  1.5672 -0.2116  1.7518
   30MOL0     H 3997   9.162   6.834   3.318  2.5191 -0.4816  1.6417
   30MOL0     H 3998   9.238   6.799   3.157  0.2706  1.0940 -0.8264
   30MOL0     H 3999   9.321   7.031   3.334  0.7400 -0.3697  0.3576
   30MOL0     H 4000   9.382   6.995   3.176 -1.3180  0.9614 -1.2523
   30MOL0     H 4001   9.227   7.033   2.954  0.8104  2.6194 -0.8618
   30MOL0     H 4002   8.945   7.122   2.836 -1.6718 -0.1809  1.0600
   30MOL0     H 4003   8.898   7.256   2.931  0.5061  0.7903 -0.0611
   30MOL0     H 4004   8.983   7.337   2.740 -1.8911 -0.6776  1.3298
   30MOL0     H 4005   9.083   7.397   2.860 -4.0239 -0.6350  0.5139
   30MOL0     H 4006   9.156   7.180   2.659  1.9475  1.6938 -2.1855
   30MOL0     H 4007   9.259   7.241   2.796  1.1470  0.1122 -1.4028
   30MOL0     H 4008   9.281   7.444   2.717  0.6850 -1.0159  0.0882
   30MOL0     H 4009   9.189   7.427   2.573  2.6648  2.3116  0.9990
   30MOL0     H 4010   9.566   7.174   2.508  1.3697 -0.8832 -0.1857
   30MOL0     H 4011   9.798   7.243   2.516 -0.6483 -0.1573 -0.4610
   30MOL0     H 4012  10.197   7.267   2.604 -2.2669  0.1009 -1.5899
   30MOL0     H 4013  10.435   7.333   2.584 -2.3318 -1.1927  1.7960
   30MOL0     H 4014  10.626   7.405   2.485  1.4105 -1.4731 -2.1312
   30MOL0     H 4015  10.579   7.435   2.324  0.4501 -2.3481  1.0748
   30MOL0     H 4016  10.820   7.465   2.351  0.0334  0.8777 -1.8177
   30MOL0     H 4017  10.753   7.604   2.291  2.5698 -2.2907 -1.0918
   30MOL0     H 4018  10.719   7.696   2.540  0.0038 -0.3176  0.8501
   30MOL0     H 4019  10.806   7.551   2.589  0.6192  3.1890  3.1664
   30MOL0     H 4020  10.924   7.777   2.424 -0.3862  0.5597  0.1546
   30MOL0     H 4021  11.011   7.626   2.480 -0.5375  0.5888 -3.0334
   30MOL0     H 4022  10.989   7.681   2.706 -1.6071  0.8444  3.7479
   30MOL0     H 4023  10.864   7.804   2.673 -0.5490 -0.8788  0.2964
   30MOL0     H 4024  11.035   7.947   2.561  0.5166 -1.1946 -0.5481
   30MOL0     H 4025  11.061   7.914   2.733 -3.0207 -1.8623  1.0779
   30MOL0     H 4026  11.210   7.766   2.506 -3.1314 -0.5970  1.0498
   30MOL0     H 4027  11.269   7.802   2.681 -1.2319  2.3138  1.9927
   30MOL0     H 4028  11.250   8.007   2.461  1.2080  0.1961 -1.3066
   30MOL0     H 4029  11.308   8.029   2.636  2.0042 -2.4390  2.6130
   30MOL0     H 4030  10.317   7.679   2.373  2.5794 -0.9292 -0.4274
   30MOL0     H 4031  10.087   7.622   2.403  1.8547  3.2298  0.0102
   30MOL0     H 4032   9.666   7.629   2.647  0.7570 -0.7856  1.3209
   30MOL0     H 4033   9.446   7.564   2.639 -1.3848 -0.5645  0.3042
   30MOL0     H 4034   9.927   6.320   3.709 -3.1632  2.4678  1.9636
   30MOL0     H 4035  10.166   6.307   3.626  0.1867  0.2855  0.5493
   30MOL0     H 4036  10.552   6.648   3.605  0.7162  0.4630  0.1163
   30MOL0     H 4037  10.771   6.648   3.502 -2.1895  0.6810 -0.9624
   30MOL0     H 4038  10.998   6.605   3.466  2.6083  1.4491 -3.4029
   30MOL0     H 4039  10.943   6.496   3.343 -0.2356 -1.7984  0.1564
   30MOL0     H 4040  11.166   6.372   3.359  1.2786  1.3574 -1.9160
   30MOL0     H 4041  11.203   6.460   3.501 -0.0661 -0.8127 -1.0533
   30MOL0     H 4042  11.158   6.683   3.362 -1.0424 -0.6557  0.9557
   30MOL0     H 4043  11.170   6.579   3.225  2.3901  0.3630 -1.2210
   30MOL0     H 4044  11.392   6.612   3.446 -1.0502  1.2198  0.8724
   30MOL0     H 4045  11.383   6.483   3.326 -2.0712 -0.3887  1.9047
   30MOL0     H 4046  11.569   6.756   3.091  1.4379 -1.2419  1.9755
   30MOL0     H 4047  10.842   6.254   3.678  0.0268 -0.5999  2.9011
   30MOL0     H 4048  10.560   6.235   3.885 -1.7979 -1.2907 -0.1954
   30MOL0     H 4049  10.579   6.139   3.730  1.4730 -0.9388  0.2623
   30MOL0     H 4050  10.708   6.181   3.853 -1.0731  1.7785  1.3094
   31MOL0     O 4051   0.198   3.154   4.917  0.5756  0.1042  0.0180
   31MOL0     C 4052   0.178   3.162   4.797 -0.0834  0.8481 -0.2973
   31MOL0     O 4053   0.260   3.220   4.708  0.2098 -0.2550  0.2248
   31MOL0     C 4054   0.379   3.273   4.750 -0.4526 -0.4360  0.0085
   31MOL0     C 4055   0.495   3.198   4.783  0.1977  0.1132  1.0129
   31MOL0     C 4056   0.615   3.258   4.822 -0.1821 -0.2293 -0.1682
   31MOL0     C 4057   0.623   3.399   4.821  0.4084 -0.1132 -0.2841
   31MOL0     O 4058   0.736   3.469   4.850  0.1690  0.5160 -0.3849
   31MOL0     C 4059   0.785   3.548   4.742  0.2464 -0.4330 -0.2676
   31MOL0     C 4060   0.937   3.594   4.770  0.3319 -0.1702  0.3102
   31MOL0     C 4061   1.030   3.619   4.655 -0.5931 -0.7490 -0.2689
   31MOL0     C 4062   1.150   3.695   4.716  0.0503 -0.0663 -0.1746
   31MOL0     C 4063   1.240   3.757   4.612 -0.1139 -0.2369 -0.4536
   31MOL0     C 4064   1.358   3.833   4.678  0.8510  0.7141 -0.5709
   31MOL0     C 4065   1.444   3.898   4.574 -0.7146 -0.6159 -0.1455
   31MOL0     C 4066   1.575   3.964   4.639  0.0247  0.8392 -0.7655
   31MOL0     N 4067   1.655   4.026   4.537 -0.1923  0.0635 -0.3390
   31MOL0     C 4068   1.761   3.964   4.477  0.4971 -0.1031 -0.0779
   31MOL0     C 4069   1.819   4.061   4.399  0.4809  0.7249 -0.6709
   31MOL0     C 4070   1.946   4.046   4.315 -0.1043  0.5737 -0.0338
   31MOL0     C 4071   1.996   3.908   4.300  0.1122  0.8839  0.2752
   31MOL0     C 4072   2.100   3.903   4.183 -0.8366  0.8484  0.9122
   31MOL0     C 4073   2.191   3.788   4.206 -0.7419  0.8859 -0.2106
   31MOL0     O 4074   2.283   3.816   4.312 -0.0707  0.3846  0.0896
   31MOL0     C 4075   2.417   3.815   4.272 -0.0357 -0.4540  0.3416
   31MOL0     C 4076   2.491   3.935   4.252 -0.0398 -0.6124  0.1301
   31MOL0     C 4077   2.631   3.934   4.222 -0.1990 -0.4856 -0.2305
   31MOL0     C 4078   2.691   3.807   4.217  0.2063 -0.0089  0.0935
   31MOL0     C 4079   2.838   3.803   4.190  1.1001 -0.0189  0.6252
   31MOL0     O 4080   2.896   3.902   4.123  0.4300  0.5169  0.7359
   31MOL0     C 4081   3.033   3.900   4.121 -0.1767 -0.1115 -0.2789
   31MOL0     C 4082   3.097   3.935   3.997  0.6987 -0.3847 -1.5087
   31MOL0     C 4083   3.235   3.927   3.988  0.0582  0.0575 -0.4539
   31MOL0     C 4084   3.317   3.899   4.098  0.1661 -0.3209  0.0898
   31MOL0     O 4085   3.455   3.896   4.080 -0.0558 -0.3064 -0.4933
   31MOL0     C 4086   3.544   3.878   4.195 -0.0824  0.5035  0.1316
   31MOL0     C 4087   3.687   3.888   4.148 -0.2736 -1.0474 -0.6380
   31MOL0     C 4088   3.777   3.859   4.276  0.1273  0.2831  0.0690
   31MOL0     C 4089   3.795   3.982   4.365  0.3399 -1.7546 -0.5192
   31MOL0     C 4090   3.829   3.956   4.505  0.0678  0.3758  0.0291
   31MOL0     C 4091   3.981   3.908   4.509 -0.1019 -0.5913  0.1521
   31MOL0     C 4092   4.087   4.017   4.478  0.4300  0.0770 -0.1769
   31MOL0     C 4093   4.076   4.136   4.576  0.6667 -0.9776 -0.9351
   31MOL0    Cl 4094   4.243   4.198   4.613  0.0629  0.2021 -0.4933
   31MOL0     C 4095   3.259   3.876   4.218 -0.2609 -0.0307 -0.5483
   31MOL0     C 4096   3.119   3.878   4.234  0.5343  0.5127  0.0253
   31MOL0     O 4097   2.892   3.702   4.224 -0.6217 -0.2047 -0.2892
   31MOL0     C 4098   2.619   3.686   4.238 -0.0810 -0.0681 -0.2196
   31MOL0     C 4099   2.482   3.692   4.250  0.1691 -0.2568 -0.4829
   31MOL0     N 4100   1.746   4.177   4.411  0.0466  0.7757 -0.0213
   31MOL0     N 4101   1.646   4.162   4.501 -0.1378 -0.2497  1.0831
   31MOL0     C 4102   0.503   3.472   4.805 -0.0209  0.1292 -0.1712
   31MOL0     C 4103   0.387   3.409   4.771 -0.2249  0.2905  0.7545
   31MOL0     C 4104   0.047   3.109   4.760  1.0979 -0.4624  0.5139
   31MOL0     C 4105   0.001   2.993   4.828  0.0937 -0.3534  0.4428
   31MOL0     C 4106  -0.125   2.945   4.799 -0.8867  0.1273  0.4892
   31MOL0     C 4107  -0.202   3.000   4.695 -0.3266  0.7839 -0.1794
   31MOL0     O 4108  -0.322   2.944   4.665 -0.7895  0.1341  0.1851
   31MOL0     C 4109  -0.434   3.029   4.668  0.6644  0.4777  0.7833
   31MOL0     C 4110  -0.462   3.090   4.805 -0.4462 -1.6241  0.3057
   31MOL0     C 4111  -0.547   3.009   4.892  0.4692  0.5080 -0.0703
   31MOL0     C 4112  -0.667   2.935   4.830  0.6909  0.3626  0.7531
   31MOL0     C 4113  -0.766   3.016   4.759 -0.2389 -0.1692 -0.0458
   31MOL0     C 4114  -0.853   3.086   4.698 -0.9375 -0.2045 -0.7887
   31MOL0     C 4115  -0.151   3.120   4.628  0.6058  0.2784 -0.0250
   31MOL0     C 4116  -0.029   3.174   4.650 -0.1412  0.3115 -0.2562
   31MOL0     C 4117   0.017   3.302   4.584 -0.0170 -0.1422  0.0766
   31MOL0     H 4118   0.497   3.091   4.761  0.6057  0.5118 -1.1160
   31MOL0     H 4119   0.700   3.196   4.847 -0.5967 -2.2300 -3.2322
   31MOL0     H 4120   0.786   3.497   4.645  1.1892 -2.1785  0.6142
   31MOL0     H 4121   0.724   3.638   4.730 -0.8186 -0.7947  1.8912
   31MOL0     H 4122   0.976   3.518   4.838  0.2650  0.4174  1.0165
   31MOL0     H 4123   0.932   3.684   4.832  0.3689 -0.9542  1.4845
   31MOL0     H 4124   0.970   3.673   4.581  0.2135  0.9285  0.2703
   31MOL0     H 4125   1.068   3.522   4.622  1.5914 -0.0386  0.0217
   31MOL0     H 4126   1.113   3.775   4.781  0.9333  1.4170 -1.4243
   31MOL0     H 4127   1.216   3.631   4.776  0.1202 -1.8522 -2.0548
   31MOL0     H 4128   1.264   3.680   4.539 -1.8477 -1.5415  0.2713
   31MOL0     H 4129   1.179   3.831   4.558 -0.5216 -0.2914 -0.0784
   31MOL0     H 4130   1.307   3.898   4.750 -2.1658 -1.3598 -0.6029
   31MOL0     H 4131   1.410   3.754   4.733  0.3378 -1.0458 -2.4956
   31MOL0     H 4132   1.388   3.981   4.530  0.7441  0.3775 -0.2216
   31MOL0     H 4133   1.464   3.821   4.499 -4.3484 -1.4627 -0.4062
   31MOL0     H 4134   1.541   4.038   4.712 -1.7193  2.2712 -2.8868
   31MOL0     H 4135   1.626   3.887   4.697  0.8294  1.0300 -1.2068
   31MOL0     H 4136   1.803   3.868   4.505  1.8671  0.4007 -0.3377
   31MOL0     H 4137   1.912   4.081   4.217  1.6639 -1.2480 -1.3946
   31MOL0     H 4138   2.029   4.114   4.336 -0.6051  0.7315  1.5578
   31MOL0     H 4139   2.050   3.873   4.389  3.0903  2.7995 -0.6483
   31MOL0     H 4140   1.915   3.842   4.267  1.0149  0.0724 -0.3612
   31MOL0     H 4141   2.160   3.995   4.178 -0.6045  0.6909  0.8026
   31MOL0     H 4142   2.060   3.884   4.083 -1.4093 -1.1097  1.4657
   31MOL0     H 4143   2.238   3.769   4.109 -2.3182  1.2073 -1.0595
   31MOL0     H 4144   2.139   3.694   4.225 -0.2224  0.1283 -2.2649
   31MOL0     H 4145   2.446   4.034   4.252  3.7707  1.3130 -0.8176
   31MOL0     H 4146   2.674   4.032   4.208 -2.3473  0.4486 -0.6076
   31MOL0     H 4147   3.043   3.960   3.906 -0.2873  1.2622 -0.5308
   31MOL0     H 4148   3.274   3.931   3.887  0.4857 -0.3332 -0.3160
   31MOL0     H 4149   3.521   3.956   4.268 -1.5223  4.6352 -4.2430
   31MOL0     H 4150   3.541   3.778   4.240 -0.3756 -0.3036 -1.5871
   31MOL0     H 4151   3.712   3.827   4.060 -0.7683  1.7666 -2.8644
   31MOL0     H 4152   3.707   3.990   4.113 -0.2232 -1.5463 -2.1603
   31MOL0     H 4153   3.735   3.769   4.322  1.3376  0.3952  1.4556
   31MOL0     H 4154   3.876   3.824   4.249 -0.8920 -3.4117  0.6532
   31MOL0     H 4155   3.695   4.028   4.367  0.0331 -2.3964 -0.7367
   31MOL0     H 4156   3.870   4.056   4.334  0.0956  0.5659  3.7012
   31MOL0     H 4157   3.767   3.877   4.548  0.8029  0.3879  1.1413
   31MOL0     H 4158   3.827   4.040   4.576  3.1444  0.6608 -0.0903
   31MOL0     H 4159   4.006   3.896   4.614  0.3904  0.8028  0.2176
   31MOL0     H 4160   4.005   3.808   4.472  0.3568 -1.7021  3.1706
   31MOL0     H 4161   4.080   4.055   4.376 -2.3573  0.4977  0.1107
   31MOL0     H 4162   4.187   3.976   4.497  1.1810  1.1927 -1.5573
   31MOL0     H 4163   4.010   4.217   4.544  0.2100  0.4877  3.1320
   31MOL0     H 4164   4.035   4.100   4.671  1.2088 -0.1506 -0.3873
   31MOL0     H 4165   3.316   3.862   4.309  2.7650 -0.4616 -2.3771
   31MOL0     H 4166   3.064   3.870   4.327 -0.3224  0.5204 -0.4768
   31MOL0     H 4167   2.674   3.594   4.254  1.7342  1.3251  2.2711
   31MOL0     H 4168   2.428   3.600   4.271  0.9476 -0.5754  0.1806
   31MOL0     H 4169   0.513   3.580   4.810 -0.0313  0.1313 -0.1951
   31MOL0     H 4170   0.298   3.471   4.765 -0.9952 -0.8961 -1.0887
   31MOL0     H 4171   0.056   2.960   4.916  1.9957  2.4183  0.4416
   31MOL0     H 4172  -0.165   2.857   4.848  0.2768 -0.8170 -0.1948
   31MOL0     H 4173  -0.518   2.973   4.627  1.4647 -0.1538 -0.0311
   31MOL0     H 4174  -0.417   3.116   4.603 -0.5490  0.3622  0.2824
   31MOL0     H 4175  -0.516   3.184   4.791  2.3854  0.0173 -0.2896
   31MOL0     H 4176  -0.370   3.118   4.858 -1.6279  3.1335  0.2648
   31MOL0     H 4177  -0.588   3.065   4.977  3.1320  1.8446  0.4389
   31MOL0     H 4178  -0.488   2.931   4.941 -1.6196 -1.5795 -0.6908
   31MOL0     H 4179  -0.632   2.857   4.762  0.7074  0.4078  0.7096
   31MOL0     H 4180  -0.717   2.879   4.910  1.2027  1.0716  1.5899
   31MOL0     H 4181  -0.924   3.134   4.634 -1.4337 -2.2027 -1.8382
   31MOL0     H 4182  -0.211   3.176   4.557 -0.7024  0.3973  1.1244
   31MOL0     H 4183   0.094   3.285   4.508 -0.4932  0.6180 -0.5902
   31MOL0     H 4184  -0.071   3.337   4.530 -1.0682 -0.8940  1.2552
   31MOL0     H 4185   0.055   3.379   4.652  0.2017  0.1191 -0.3404
   32MOL0     O 4186   4.616   7.033   6.170 -0.4961 -0.4312 -0.1086
   32MOL0     C 4187   4.584   7.145   6.141 -0.5019 -0.9712  0.0865
   32MOL0     O 4188   4.669   7.253   6.149 -0.2397  0.2265  0.0035
   32MOL0     C 4189   4.801   7.231   6.120  0.1343  0.4208 -0.4597
   32MOL0     C 4190   4.907   7.277   6.197 -0.5678 -0.3681 -0.6682
   32MOL0     C 4191   5.035   7.277   6.149 -0.4909 -0.1130  0.0056
   32MOL0     C 4192   5.074   7.211   6.028 -0.8691  0.0008  0.4708
   32MOL0     O 4193   5.205   7.195   5.980  0.3669 -0.2751 -0.3176
   32MOL0     C 4194   5.314   7.232   6.074 -0.0796  0.7416 -0.0709
   32MOL0     C 4195   5.439   7.225   5.973 -0.8418  0.5940 -1.1175
   32MOL0     C 4196   5.572   7.222   6.047 -0.2338 -0.9000 -0.6871
   32MOL0     C 4197   5.672   7.147   5.963  0.1926 -0.0272  0.1443
   32MOL0     C 4198   5.811   7.169   6.018  0.3154  0.1689  0.0889
   32MOL0     C 4199   5.916   7.083   5.945  0.7092  0.0960 -0.1407
   32MOL0     C 4200   6.059   7.137   5.950 -0.3293  0.2172  0.3468
   32MOL0     C 4201   6.118   7.147   6.096 -0.3848  0.1083 -0.1580
   32MOL0     N 4202   6.251   7.202   6.082  0.0007  0.3874  0.1043
   32MOL0     C 4203   6.349   7.144   6.013  0.4297  0.0033 -0.7335
   32MOL0     C 4204   6.450   7.231   6.019  0.3246  0.2516  0.4644
   32MOL0     C 4205   6.579   7.204   5.949 -0.3918  0.2044  0.9054
   32MOL0     C 4206   6.703   7.249   6.017 -0.1535  0.3403 -0.3303
   32MOL0     C 4207   6.817   7.214   5.926  0.3926 -0.2479  0.1436
   32MOL0     C 4208   6.841   7.309   5.807 -0.4011  0.4349  1.1477
   32MOL0     O 4209   6.943   7.265   5.712 -0.0949  0.5883 -0.3945
   32MOL0     C 4210   7.061   7.333   5.709  0.2798  0.1260  0.4429
   32MOL0     C 4211   7.075   7.474   5.732  0.9660  0.9479 -0.0595
   32MOL0     C 4212   7.203   7.533   5.728  0.4739  0.1077 -0.1017
   32MOL0     C 4213   7.322   7.455   5.711 -0.2484 -0.2244  0.9467
   32MOL0     C 4214   7.460   7.515   5.698 -0.2614 -0.6087  1.1345
   32MOL0     O 4215   7.568   7.444   5.741  0.4474 -0.8716  0.3119
   32MOL0     C 4216   7.697   7.502   5.724  0.6477  0.2429 -0.1797
   32MOL0     C 4217   7.762   7.501   5.602 -0.2016  0.6897  0.0385
   32MOL0     C 4218   7.898   7.539   5.584  0.4687 -0.6583 -0.2599
   32MOL0     C 4219   7.961   7.596   5.701 -0.3185  0.2831  0.2113
   32MOL0     O 4220   8.096   7.622   5.685  0.4715 -0.0228 -0.5701
   32MOL0     C 4221   8.179   7.686   5.781  0.2800 -0.1732 -0.5104
   32MOL0     C 4222   8.320   7.667   5.730  0.3517  0.4956 -0.4383
   32MOL0     C 4223   8.408   7.759   5.817  0.6521  0.7884  1.3834
   32MOL0     C 4224   8.551   7.738   5.776 -0.7566  0.7404 -0.6909
   32MOL0     C 4225   8.650   7.810   5.873 -0.4722  0.0696  1.0339
   32MOL0     C 4226   8.799   7.779   5.837  0.1958 -0.0297  0.3862
   32MOL0     C 4227   8.896   7.838   5.934  0.1591  1.0321 -0.5737
   32MOL0     C 4228   8.939   7.973   5.891  0.5817  0.9205  0.4555
   32MOL0    Cl 4229   9.044   7.960   5.737  0.0408  0.0511  0.3641
   32MOL0     C 4230   7.897   7.611   5.826  0.3709 -0.0687 -0.2921
   32MOL0     C 4231   7.764   7.566   5.834 -0.3179  0.3682 -0.6188
   32MOL0     O 4232   7.472   7.621   5.631  0.2292  0.0861  0.0384
   32MOL0     C 4233   7.305   7.323   5.675 -0.1518  0.8562 -0.6324
   32MOL0     C 4234   7.174   7.259   5.677  0.2452 -0.0626  0.3224
   32MOL0     N 4235   6.403   7.351   6.070 -0.4293 -0.4150 -0.0458
   32MOL0     N 4236   6.281   7.327   6.098 -0.9063 -0.5790 -0.7966
   32MOL0     C 4237   4.971   7.163   5.952 -0.3154 -0.4066  0.0385
   32MOL0     C 4238   4.834   7.170   5.994  0.0755 -0.1865  0.2954
   32MOL0     C 4239   4.435   7.172   6.117 -0.4040 -0.1624  0.4127
   32MOL0     C 4240   4.396   7.306   6.132  0.4509 -0.4025  0.0702
   32MOL0     C 4241   4.259   7.333   6.138 -0.1016  0.0406 -0.4784
   32MOL0     C 4242   4.167   7.233   6.133 -0.2390  0.6445  0.0080
   32MOL0     O 4243   4.032   7.273   6.143 -0.2901  0.9277 -0.3196
   32MOL0     C 4244   3.936   7.167   6.131 -0.3323 -0.2231  0.1258
   32MOL0     C 4245   3.800   7.230   6.115 -0.2531  0.3931  0.0963
   32MOL0     C 4246   3.750   7.287   6.253  0.0984 -0.4410 -0.7094
   32MOL0     C 4247   3.613   7.358   6.245 -1.3268 -0.4312 -0.2829
   32MOL0     C 4248   3.499   7.274   6.213 -0.1702  0.4604  0.7489
   32MOL0     C 4249   3.406   7.204   6.177 -0.7185  0.3239 -0.5135
   32MOL0     C 4250   4.204   7.102   6.108 -0.5575 -0.3652 -0.2330
   32MOL0     C 4251   4.337   7.069   6.096 -0.0158 -0.5750  0.7111
   32MOL0     C 4252   4.360   6.929   6.080 -0.2531 -0.6560  0.1982
   32MOL0     H 4253   4.891   7.314   6.297 -0.8446 -1.8880 -0.1272
   32MOL0     H 4254   5.116   7.313   6.211 -0.2099 -3.7454  2.0517
   32MOL0     H 4255   5.295   7.328   6.122  2.0604  0.2825  1.8517
   32MOL0     H 4256   5.315   7.164   6.160 -0.9754  0.9947  0.1522
   32MOL0     H 4257   5.445   7.313   5.907  1.6794 -0.7241 -2.7850
   32MOL0     H 4258   5.431   7.133   5.914  0.2454 -0.3680  0.1736
   32MOL0     H 4259   5.564   7.170   6.143 -0.8629  1.6267  0.7283
   32MOL0     H 4260   5.614   7.318   6.076  0.9131 -1.8926  1.1168
   32MOL0     H 4261   5.644   7.042   5.962 -0.9694  0.1600  2.9934
   32MOL0     H 4262   5.667   7.175   5.858  1.5057  0.1700  0.1146
   32MOL0     H 4263   5.834   7.272   5.990  0.2046 -0.0011 -0.6301
   32MOL0     H 4264   5.813   7.155   6.127 -0.1313  4.7802  0.8742
   32MOL0     H 4265   5.925   6.983   5.987  3.5891  0.8962  1.3877
   32MOL0     H 4266   5.889   7.087   5.839  1.2107  1.0985 -0.2471
   32MOL0     H 4267   6.066   7.231   5.895 -0.3115 -0.7554 -1.3926
   32MOL0     H 4268   6.113   7.068   5.884 -4.1083 -0.2740 -2.5634
   32MOL0     H 4269   6.062   7.217   6.159 -0.4261 -2.1156  2.4576
   32MOL0     H 4270   6.118   7.048   6.143 -1.5196 -0.0705 -0.4904
   32MOL0     H 4271   6.343   7.052   5.954 -1.0638  0.1817 -0.8935
   32MOL0     H 4272   6.591   7.099   5.922  2.2359  0.4080  1.0085
   32MOL0     H 4273   6.575   7.262   5.856  0.9065 -1.4308 -0.2403
   32MOL0     H 4274   6.700   7.355   6.042  0.1467  0.5919 -1.3069
   32MOL0     H 4275   6.708   7.211   6.119 -3.5070  1.2801  0.2795
   32MOL0     H 4276   6.807   7.110   5.895 -1.5354  0.3423 -1.4287
   32MOL0     H 4277   6.907   7.216   5.987  1.5853 -3.3743 -1.3245
   32MOL0     H 4278   6.864   7.404   5.857  0.3195 -0.3154  2.2772
   32MOL0     H 4279   6.754   7.335   5.746 -1.0366  0.6545  2.1340
   32MOL0     H 4280   6.993   7.542   5.753 -1.0186 -2.0758  3.1428
   32MOL0     H 4281   7.215   7.635   5.761 -0.5632  0.1607  0.1416
   32MOL0     H 4282   7.716   7.446   5.520 -0.0953  1.4920 -0.5707
   32MOL0     H 4283   7.953   7.517   5.493 -1.7426 -1.8643 -1.4117
   32MOL0     H 4284   8.159   7.794   5.779  1.8614  0.1900  0.8011
   32MOL0     H 4285   8.168   7.647   5.883 -0.7546 -1.4033 -1.0679
   32MOL0     H 4286   8.364   7.567   5.735  2.0023  1.2303  0.6598
   32MOL0     H 4287   8.328   7.699   5.625  2.3585  1.3421 -0.0720
   32MOL0     H 4288   8.369   7.861   5.809 -0.9711  0.3632  3.1699
   32MOL0     H 4289   8.395   7.730   5.921  1.0032 -0.2667  1.1470
   32MOL0     H 4290   8.571   7.760   5.671  0.4156 -1.6223 -1.0416
   32MOL0     H 4291   8.566   7.629   5.780 -2.6437  0.4487 -0.4964
   32MOL0     H 4292   8.630   7.784   5.977 -0.0103  3.7356  2.1790
   32MOL0     H 4293   8.634   7.917   5.854  1.3250  0.2930  0.5937
   32MOL0     H 4294   8.798   7.670   5.836 -0.8695 -0.0497 -1.7281
   32MOL0     H 4295   8.821   7.815   5.736  0.3650  1.1486  0.8216
   32MOL0     H 4296   8.982   7.772   5.951 -1.3994 -0.2886  3.1807
   32MOL0     H 4297   8.860   7.852   6.036  0.7577  1.6348 -0.4390
   32MOL0     H 4298   8.849   8.031   5.869  0.2489 -0.4350 -2.1726
   32MOL0     H 4299   8.996   8.022   5.971  1.0775 -0.7699  1.1901
   32MOL0     H 4300   7.938   7.637   5.922 -0.1731 -0.5567  0.0800
   32MOL0     H 4301   7.712   7.575   5.929  2.7839  0.4777  1.2025
   32MOL0     H 4302   7.388   7.259   5.644 -1.8378 -0.3189 -2.9922
   32MOL0     H 4303   7.168   7.152   5.657  0.4685  0.0701 -0.4796
   32MOL0     H 4304   4.993   7.114   5.858  0.4189  1.4787 -0.8198
   32MOL0     H 4305   4.756   7.137   5.926 -0.1000 -0.6368  0.7130
   32MOL0     H 4306   4.466   7.382   6.167 -1.0811 -0.0795  2.7237
   32MOL0     H 4307   4.211   7.430   6.146  0.3703  0.2626 -0.2803
   32MOL0     H 4308   3.935   7.107   6.222  3.3144  0.4583  0.7767
   32MOL0     H 4309   3.957   7.100   6.048 -1.1681 -1.8981  1.2230
   32MOL0     H 4310   3.726   7.160   6.073  0.1841 -0.1339  0.1902
   32MOL0     H 4311   3.809   7.310   6.041 -1.7343  2.5840  2.1430
   32MOL0     H 4312   3.820   7.361   6.293 -2.2460  0.3145  2.4379
   32MOL0     H 4313   3.743   7.207   6.327 -0.8850 -0.1544 -0.4810
   32MOL0     H 4314   3.578   7.395   6.342 -2.4161  1.7727 -1.4356
   32MOL0     H 4315   3.608   7.432   6.165 -3.0587 -0.6227 -0.3871
   32MOL0     H 4316   3.342   7.127   6.139  2.4689 -2.2822 -0.9623
   32MOL0     H 4317   4.131   7.021   6.110 -1.7339  0.6718  1.2409
   32MOL0     H 4318   4.285   6.875   6.021  0.6997 -3.6926  1.5175
   32MOL0     H 4319   4.455   6.905   6.031 -0.1633 -1.9768  0.9629
   32MOL0     H 4320   4.369   6.884   6.180  0.8091  2.1935  1.5077
   33MOL0     O 4321   1.983  10.371   1.119  0.1116  0.0510  0.5381
   33MOL0     C 4322   1.958  10.292   1.027 -1.1653 -0.2424  0.1863
   33MOL0     O 4323   2.051  10.216   0.958  1.2019  0.5819  0.7129
   33MOL0     C 4324   2.187  10.242   0.948  0.1323 -0.6367  0.3765
   33MOL0     C 4325   2.245  10.230   0.819 -0.3812  0.3382 -0.5848
   33MOL0     C 4326   2.388  10.229   0.801 -1.3992 -0.4287 -0.0155
   33MOL0     C 4327   2.472  10.243   0.909  0.4699  0.4852 -0.3948
   33MOL0     O 4328   2.607  10.267   0.897  0.2119  0.1322  0.7998
   33MOL0     C 4329   2.682  10.184   0.992 -0.6662 -0.0075 -0.2846
   33MOL0     C 4330   2.831  10.211   0.982  0.3231  0.3689  0.1575
   33MOL0     C 4331   2.918  10.172   1.106 -0.4591  0.1287  0.0983
   33MOL0     C 4332   2.922  10.014   1.108  0.1782 -0.3764 -0.0322
   33MOL0     C 4333   3.037   9.960   1.199 -0.6583  0.0968 -0.3032
   33MOL0     C 4334   3.005   9.986   1.344  0.1019  1.3217  0.0166
   33MOL0     C 4335   3.129   9.954   1.418 -0.4092 -0.2981 -0.5116
   33MOL0     C 4336   3.086   9.922   1.570  0.5674  0.9126  1.0001
   33MOL0     N 4337   3.183   9.826   1.618 -0.8179  0.1382 -0.1859
   33MOL0     C 4338   3.290   9.857   1.705  0.5832 -1.0217  0.6876
   33MOL0     C 4339   3.361   9.743   1.726  0.2314 -0.2605  0.6599
   33MOL0     C 4340   3.485   9.741   1.808 -0.5879 -0.6527  0.7299
   33MOL0     C 4341   3.622   9.752   1.735 -0.3412 -0.2001 -0.2086
   33MOL0     C 4342   3.741   9.751   1.836 -0.3351 -0.1956  0.1028
   33MOL0     C 4343   3.878   9.767   1.753  0.5667 -0.3138 -0.6966
   33MOL0     O 4344   3.983   9.713   1.831 -0.9213 -0.3771 -0.3625
   33MOL0     C 4345   4.117   9.736   1.796  0.3707 -0.1936 -0.7985
   33MOL0     C 4346   4.216   9.677   1.877  0.3985  0.8115  0.8423
   33MOL0     C 4347   4.352   9.679   1.848 -0.2569 -0.1071 -0.1755
   33MOL0     C 4348   4.399   9.768   1.752  0.4525 -0.6459 -0.0246
   33MOL0     C 4349   4.541   9.802   1.732  0.7853  0.6884 -0.3293
   33MOL0     O 4350   4.628   9.760   1.832  0.1993  0.3583  0.5013
   33MOL0     C 4351   4.761   9.805   1.827  0.8736 -0.4279  0.5694
   33MOL0     C 4352   4.783   9.938   1.846  0.2236  0.0247  0.1250
   33MOL0     C 4353   4.909   9.993   1.845  0.4304 -0.4610 -1.1086
   33MOL0     C 4354   5.023   9.908   1.837 -0.0546 -0.2205 -0.0230
   33MOL0     O 4355   5.150   9.962   1.840 -0.4192 -0.0718  0.0974
   33MOL0     C 4356   5.200  10.006   1.962 -0.0130  0.7991 -0.2975
   33MOL0     C 4357   5.329   9.941   1.995 -0.1840  0.2188  0.1313
   33MOL0     C 4358   5.323   9.791   2.009  0.2131 -0.1355 -0.3681
   33MOL0     C 4359   5.395   9.741   2.129  0.4335  0.3079  0.0311
   33MOL0     C 4360   5.549   9.772   2.117 -0.5085  0.6005 -0.7647
   33MOL0     C 4361   5.615   9.696   2.228  0.0692 -1.2470 -0.5247
   33MOL0     C 4362   5.761   9.753   2.234 -0.4947  0.6584  0.2128
   33MOL0     C 4363   5.844   9.677   2.129  0.3295 -0.2282 -0.0862
   33MOL0    Cl 4364   6.010   9.738   2.123  0.1277 -0.1959  0.0507
   33MOL0     C 4365   5.001   9.766   1.817 -0.8225 -0.7902  0.7366
   33MOL0     C 4366   4.867   9.722   1.808 -0.3208  0.4043  0.3021
   33MOL0     O 4367   4.569   9.848   1.622  0.6973 -0.0602 -0.1930
   33MOL0     C 4368   4.299   9.839   1.674  0.4448  0.4178  0.2518
   33MOL0     C 4369   4.158   9.819   1.690 -0.1308 -0.0052  0.0753
   33MOL0     N 4370   3.303   9.646   1.649 -0.4144  0.1164  0.2696
   33MOL0     N 4371   3.201   9.698   1.590  0.5319 -0.3036 -0.0536
   33MOL0     C 4372   2.412  10.261   1.038 -0.1347 -0.2910  0.2650
   33MOL0     C 4373   2.273  10.240   1.057 -0.9173  0.5822  0.2566
   33MOL0     C 4374   1.819  10.277   0.990 -0.3321  0.4192  0.1849
   33MOL0     C 4375   1.731  10.381   1.028  0.0779  0.8749 -0.3343
   33MOL0     C 4376   1.600  10.388   0.973 -0.9626  0.0373  0.4604
   33MOL0     C 4377   1.546  10.273   0.908  0.0637 -0.5767  0.6390
   33MOL0     O 4378   1.416  10.261   0.861  0.4605  0.2620  0.1214
   33MOL0     C 4379   1.325  10.291   0.973 -0.1225  0.5460 -0.1481
   33MOL0     C 4380   1.202  10.350   0.906 -0.0169 -0.1534 -0.0210
   33MOL0     C 4381   1.075  10.359   0.996  0.1066 -0.7835 -0.1192
   33MOL0     C 4382   0.942  10.371   0.919  0.1957 -0.4751  0.0120
   33MOL0     C 4383   0.836  10.429   1.002  0.8107 -0.4601 -0.9737
   33MOL0     C 4384   0.746  10.483   1.071  0.4216  0.4792  0.5698
   33MOL0     C 4385   1.632  10.166   0.877 -0.5488 -0.1246 -0.0267
   33MOL0     C 4386   1.766  10.167   0.908 -0.5134 -0.2823  0.2354
   33MOL0     C 4387   1.843  10.046   0.849  0.1194 -0.6679 -0.7037
   33MOL0     H 4388   2.187  10.212   0.729 -0.5835 -2.3464 -0.0006
   33MOL0     H 4389   2.427  10.222   0.700  0.8228 -0.0066  0.7567
   33MOL0     H 4390   2.667  10.210   1.098  0.9720  1.2818 -0.3090
   33MOL0     H 4391   2.662  10.078   0.973  1.6005 -0.1878 -2.0884
   33MOL0     H 4392   2.842  10.317   0.959  0.5440  0.2533 -0.2686
   33MOL0     H 4393   2.873  10.158   0.896 -1.2516 -1.2868  0.3375
   33MOL0     H 4394   2.878  10.211   1.200 -1.0542 -0.6504  0.1797
   33MOL0     H 4395   3.017  10.216   1.093 -0.7222  0.7790  0.2740
   33MOL0     H 4396   2.821   9.982   1.137 -0.5861 -1.0844 -3.1140
   33MOL0     H 4397   2.944   9.989   1.004  0.2875  0.2841 -0.1732
   33MOL0     H 4398   3.051   9.854   1.176 -0.8467  0.3405 -1.6290
   33MOL0     H 4399   3.130  10.011   1.174  0.6448 -1.1314  1.6871
   33MOL0     H 4400   2.979  10.091   1.361  0.1426  1.0938  1.6423
   33MOL0     H 4401   2.927   9.917   1.377  0.9437  0.3475 -0.0034
   33MOL0     H 4402   3.207  10.032   1.417 -0.2529 -0.4430 -1.7328
   33MOL0     H 4403   3.175   9.864   1.376  1.3733  0.0999  0.4659
   33MOL0     H 4404   3.087  10.013   1.631 -0.5042  0.8755  1.0808
   33MOL0     H 4405   2.983   9.887   1.581  0.3825  0.9845 -0.3330
   33MOL0     H 4406   3.325   9.956   1.734 -1.2990 -0.8599  2.6616
   33MOL0     H 4407   3.474   9.819   1.882 -1.7886  0.9474 -1.0455
   33MOL0     H 4408   3.489   9.644   1.858 -3.9147 -0.6292  1.2852
   33MOL0     H 4409   3.633   9.669   1.664  0.4987 -1.0801  0.9062
   33MOL0     H 4410   3.627   9.843   1.675  1.0389 -0.8684 -1.1499
   33MOL0     H 4411   3.745   9.655   1.888 -0.1311 -0.8770 -1.1365
   33MOL0     H 4412   3.731   9.832   1.910  1.5462  0.3721 -0.1943
   33MOL0     H 4413   3.895   9.870   1.718 -3.5312  0.5389 -0.6609
   33MOL0     H 4414   3.860   9.698   1.671 -2.8462 -1.9557  1.2126
   33MOL0     H 4415   4.194   9.622   1.968  0.9127  0.2784  0.6437
   33MOL0     H 4416   4.425   9.615   1.896  1.3351  0.1903 -2.0723
   33MOL0     H 4417   4.690   9.994   1.855 -0.0349 -0.4600  0.5455
   33MOL0     H 4418   4.918  10.101   1.851 -0.5130 -0.4524  0.7581
   33MOL0     H 4419   5.200  10.116   1.962 -1.6818  0.8300 -0.4446
   33MOL0     H 4420   5.130   9.977   2.042 -1.2371  2.9584 -0.4899
   33MOL0     H 4421   5.407   9.963   1.921 -1.0886 -0.0032 -0.9065
   33MOL0     H 4422   5.378   9.979   2.085 -1.0457  0.5924  0.4574
   33MOL0     H 4423   5.222   9.754   2.028 -0.2309  1.3525  0.3830
   33MOL0     H 4424   5.369   9.745   1.922  2.6880 -0.6932  1.1448
   33MOL0     H 4425   5.393   9.633   2.148  2.0012  0.6766  2.9803
   33MOL0     H 4426   5.359   9.796   2.216  2.5695 -0.5012  1.5163
   33MOL0     H 4427   5.564   9.880   2.123 -1.9425  0.7425  1.1601
   33MOL0     H 4428   5.586   9.727   2.024  1.7826  1.9642 -0.5876
   33MOL0     H 4429   5.563   9.727   2.320 -2.0153 -2.3810 -1.2577
   33MOL0     H 4430   5.609   9.588   2.213 -0.1045 -2.1237  4.1001
   33MOL0     H 4431   5.793   9.740   2.338  0.3339 -0.5505 -0.1648
   33MOL0     H 4432   5.766   9.857   2.202 -1.9530 -0.1278 -2.9379
   33MOL0     H 4433   5.855   9.570   2.150  0.4339 -0.3595 -0.7792
   33MOL0     H 4434   5.796   9.684   2.030 -1.3719  0.7320  0.7527
   33MOL0     H 4435   5.081   9.694   1.827  0.2399  0.2342 -0.1339
   33MOL0     H 4436   4.854   9.614   1.813  4.5325 -0.3176  2.3411
   33MOL0     H 4437   4.337   9.908   1.599 -0.7152  0.3919 -0.3926
   33MOL0     H 4438   4.099   9.869   1.614  1.0792  0.8684 -0.3276
   33MOL0     H 4439   2.481  10.279   1.120  0.7077 -0.6162 -0.3601
   33MOL0     H 4440   2.233  10.214   1.155 -0.1821 -3.7235 -0.3961
   33MOL0     H 4441   1.771  10.460   1.091  0.7112 -1.0760  1.8279
   33MOL0     H 4442   1.539  10.478   0.976  2.2115  2.4691 -1.2369
   33MOL0     H 4443   1.356  10.365   1.047 -2.2578  1.0520  0.3120
   33MOL0     H 4444   1.297  10.198   1.023 -3.2142  1.5185  0.1322
   33MOL0     H 4445   1.169  10.274   0.834  1.1788 -0.3984 -0.3401
   33MOL0     H 4446   1.215  10.451   0.864 -0.1397  0.6786  1.8519
   33MOL0     H 4447   1.097  10.453   1.046  0.7496  0.6995 -2.9643
   33MOL0     H 4448   1.073  10.272   1.063  2.1887 -0.6329  0.2152
   33MOL0     H 4449   0.953  10.433   0.830  1.7614 -0.5538  0.1242
   33MOL0     H 4450   0.895  10.274   0.900 -1.6595 -0.0374  2.0716
   33MOL0     H 4451   0.669  10.523   1.133 -1.2302  4.6691 -3.5829
   33MOL0     H 4452   1.585  10.078   0.834  1.6841 -1.4073  0.0138
   33MOL0     H 4453   1.912  10.012   0.927  0.8969  1.3591 -0.4570
   33MOL0     H 4454   1.781   9.968   0.802  0.0518  0.2981 -2.2877
   33MOL0     H 4455   1.898  10.084   0.762  1.0656 -1.0115 -0.2648
   34MOL0     O 4456   6.245   1.296  10.402 -0.4029  0.4306  0.1967
   34MOL0     C 4457   6.287   1.326  10.288 -0.1026  0.0587  0.4066
   34MOL0     O 4458   6.419   1.331  10.249  0.3633 -0.1216  0.2068
   34MOL0     C 4459   6.513   1.312  10.347  0.4039 -0.4656 -0.0786
   34MOL0     C 4460   6.529   1.187  10.406 -0.1086  0.2024  0.3545
   34MOL0     C 4461   6.632   1.171  10.502  0.0617 -0.6105 -0.1211
   34MOL0     C 4462   6.720   1.278  10.531  0.9348 -1.0794 -0.4838
   34MOL0     O 4463   6.814   1.257  10.632 -0.0915  0.1200  0.6820
   34MOL0     C 4464   6.939   1.202  10.582  0.4971  0.7554  0.2308
   34MOL0     C 4465   6.983   1.110  10.698 -0.1181  0.3973 -0.8085
   34MOL0     C 4466   7.137   1.090  10.694  0.3440 -0.6489  0.0775
   34MOL0     C 4467   7.160   0.959  10.771 -0.0160 -0.7992  0.2251
   34MOL0     C 4468   7.299   0.947  10.790 -0.2299 -0.4177 -0.2749
   34MOL0     C 4469   7.338   0.823  10.868  0.5073 -0.4164 -0.0482
   34MOL0     C 4470   7.495   0.804  10.853  0.3759  0.2792 -0.6639
   34MOL0     C 4471   7.550   0.656  10.876 -0.4594  0.2315 -0.1630
   34MOL0     N 4472   7.692   0.636  10.884 -0.8681 -0.0679  0.3071
   34MOL0     C 4473   7.780   0.692  10.982  0.1471 -0.1561 -0.2677
   34MOL0     C 4474   7.900   0.702  10.935  0.8504  0.2307  0.0228
   34MOL0     C 4475   8.023   0.738  11.013  0.5681  1.2090 -0.6547
   34MOL0     C 4476   8.102   0.619  11.041 -0.7265 -0.2979  0.4760
   34MOL0     C 4477   8.048   0.516  11.137 -0.2721  0.1903  0.5406
   34MOL0     C 4478   8.025   0.588  11.273 -0.4866  0.0999  0.5880
   34MOL0     O 4479   8.050   0.495  11.379 -0.1712  0.4574 -0.1306
   34MOL0     C 4480   8.175   0.453  11.421 -0.5389  0.5762  0.6731
   34MOL0     C 4481   8.193   0.360  11.527 -0.4255 -0.6787 -0.4201
   34MOL0     C 4482   8.319   0.316  11.567  0.6156 -0.2435  0.4119
   34MOL0     C 4483   8.437   0.361  11.515  0.4827 -0.0815 -0.1780
   34MOL0     C 4484   8.574   0.305  11.540  0.2446 -0.0226 -0.0002
   34MOL0     O 4485   8.683   0.350  11.463  0.1230  0.0815 -0.5203
   34MOL0     C 4486   8.792   0.270  11.433  0.7569 -0.8765 -0.3151
   34MOL0     C 4487   8.789   0.128  11.440 -0.3021 -0.5054  0.0279
   34MOL0     C 4488   8.910   0.056  11.424 -0.2723  0.7248  0.0051
   34MOL0     C 4489   9.028   0.117  11.394 -1.2533  0.0111  0.0071
   34MOL0     O 4490   9.142   0.047  11.377  0.3271 -0.0971 -0.4382
   34MOL0     C 4491   9.266   0.115  11.332 -0.0829 -0.2819  0.4053
   34MOL0     C 4492   9.376   0.020  11.311 -0.4824 -0.4820 -0.4880
   34MOL0     C 4493   9.513   0.088  11.289 -0.8244 -0.4393  0.1569
   34MOL0     C 4494   9.619  -0.027  11.292  0.0848  0.0019 -0.9325
   34MOL0     C 4495   9.766   0.010  11.291 -0.0064 -0.0987  0.3516
   34MOL0     C 4496   9.817   0.079  11.417 -0.2646 -0.2184 -0.3358
   34MOL0     C 4497   9.962   0.121  11.398 -0.7375 -0.5234 -0.6739
   34MOL0     C 4498  10.071   0.003  11.378  0.3055 -0.5330  0.9205
   34MOL0    Cl 4499  10.223   0.067  11.314  0.2165 -0.1478 -0.2242
   34MOL0     C 4500   9.030   0.255  11.374 -0.4139  0.1151  0.4611
   34MOL0     C 4501   8.914   0.327  11.398 -0.3382 -0.5752 -0.0476
   34MOL0     O 4502   8.575   0.209  11.619 -0.1039  0.3292  0.1437
   34MOL0     C 4503   8.421   0.461  11.416 -0.8142  0.4881  0.1015
   34MOL0     C 4504   8.295   0.501  11.374 -0.8518 -0.5561  0.1737
   34MOL0     N 4505   7.898   0.646  10.802 -0.2336 -0.2848 -1.1143
   34MOL0     N 4506   7.773   0.613  10.778 -0.2233 -0.1122  0.3055
   34MOL0     C 4507   6.712   1.396  10.458 -0.4404 -0.1174 -0.7663
   34MOL0     C 4508   6.608   1.413  10.370  0.1730  0.2825  0.2693
   34MOL0     C 4509   6.179   1.360  10.188 -0.6949 -0.3139 -0.2097
   34MOL0     C 4510   6.222   1.446  10.090  0.7589 -0.0373  0.0985
   34MOL0     C 4511   6.140   1.500   9.991 -0.0570 -0.5103  0.7072
   34MOL0     C 4512   6.009   1.458   9.981 -0.6853 -0.3606 -0.9546
   34MOL0     O 4513   5.912   1.497   9.893  0.1351  0.2623 -0.2486
   34MOL0     C 4514   5.942   1.569   9.775 -0.1073  0.0722  0.0236
   34MOL0     C 4515   5.830   1.555   9.675 -0.4085 -0.0629 -0.3625
   34MOL0     C 4516   5.696   1.602   9.729  0.1998 -0.3250 -0.2389
   34MOL0     C 4517   5.695   1.735   9.805 -0.3548 -0.0408 -0.8598
   34MOL0     C 4518   5.552   1.773   9.828 -0.0441 -0.0378 -0.2923
   34MOL0     C 4519   5.441   1.800   9.870 -0.4764  0.0006  0.3738
   34MOL0     C 4520   5.973   1.358  10.076  0.2657 -0.4222  0.6597
   34MOL0     C 4521   6.049   1.313  10.183 -0.6639 -0.8177  0.0420
   34MOL0     C 4522   5.981   1.222  10.283  0.1748  0.1393 -0.1567
   34MOL0     H 4523   6.456   1.109  10.387 -1.2571  1.0523  1.1303
   34MOL0     H 4524   6.640   1.083  10.565 -4.7048  1.3697  3.9229
   34MOL0     H 4525   6.930   1.145  10.489  0.2262  0.7736  0.2453
   34MOL0     H 4526   7.004   1.289  10.569  1.1509  0.1653 -0.4966
   34MOL0     H 4527   6.932   1.015  10.683  0.6494 -0.3008  0.8042
   34MOL0     H 4528   6.954   1.147  10.796 -0.9480 -2.8839  0.2988
   34MOL0     H 4529   7.179   1.184  10.732 -0.8317 -0.0573 -0.0494
   34MOL0     H 4530   7.161   1.075  10.588 -2.5094 -0.4164 -0.6769
   34MOL0     H 4531   7.116   0.973  10.871 -2.3012  0.6555 -0.9051
   34MOL0     H 4532   7.122   0.869  10.723  0.0615  0.1602 -1.7111
   34MOL0     H 4533   7.342   0.940  10.690 -1.3697  0.1712 -0.8215
   34MOL0     H 4534   7.351   1.026  10.846  0.1551 -2.1739  1.9905
   34MOL0     H 4535   7.320   0.841  10.975 -0.1487 -1.4340  0.0338
   34MOL0     H 4536   7.280   0.738  10.832 -1.6917  0.9454  0.0824
   34MOL0     H 4537   7.550   0.879  10.911  2.5864 -0.9860 -1.0191
   34MOL0     H 4538   7.517   0.835  10.751  0.9212 -2.0140 -1.2960
   34MOL0     H 4539   7.524   0.621  10.976  1.8286  1.4481  0.9231
   34MOL0     H 4540   7.494   0.596  10.803 -1.1642  2.2475 -1.3431
   34MOL0     H 4541   7.756   0.724  11.083  4.2717  1.5375  0.3559
   34MOL0     H 4542   8.091   0.804  10.958  1.7373  0.3571 -0.2579
   34MOL0     H 4543   7.991   0.784  11.107  0.4941 -3.5543  1.9253
   34MOL0     H 4544   8.131   0.564  10.951 -1.3914  1.1021 -0.6352
   34MOL0     H 4545   8.199   0.658  11.070 -1.0283 -0.2603  1.4868
   34MOL0     H 4546   8.126   0.440  11.148  0.4565  1.0583  1.5940
   34MOL0     H 4547   7.957   0.464  11.103 -0.6911 -1.5663  3.8701
   34MOL0     H 4548   7.923   0.624  11.282 -1.3232 -2.0785  0.5451
   34MOL0     H 4549   8.098   0.668  11.288 -0.7806  0.5849 -0.4584
   34MOL0     H 4550   8.112   0.312  11.581 -0.5849 -0.3937 -0.4024
   34MOL0     H 4551   8.323   0.232  11.635 -0.5674 -0.8745 -0.2610
   34MOL0     H 4552   8.700   0.069  11.457  0.7435 -2.8291 -2.0635
   34MOL0     H 4553   8.921  -0.052  11.413 -0.1808  0.9816 -4.2571
   34MOL0     H 4554   9.245   0.176  11.244 -1.5137  0.2614  1.0950
   34MOL0     H 4555   9.303   0.180  11.412 -2.0455 -2.4488  3.2395
   34MOL0     H 4556   9.371  -0.056  11.390  0.4660  0.0084  0.0577
   34MOL0     H 4557   9.350  -0.032  11.218 -0.3687 -1.2472 -0.0984
   34MOL0     H 4558   9.524   0.144  11.196  0.8085  2.6692  2.0442
   34MOL0     H 4559   9.525   0.162  11.369 -0.9964  0.1672 -0.3619
   34MOL0     H 4560   9.595  -0.096  11.211  3.9390 -0.5132 -1.8175
   34MOL0     H 4561   9.607  -0.086  11.384  3.7574 -2.4505 -1.7929
   34MOL0     H 4562   9.768   0.086  11.213 -1.2679  0.0959  0.4908
   34MOL0     H 4563   9.829  -0.075  11.262 -2.0327 -1.9016  0.9866
   34MOL0     H 4564   9.768   0.173  11.443 -2.4127 -1.2750 -0.3007
   34MOL0     H 4565   9.805   0.023  11.510  0.9309  1.2052  0.7087
   34MOL0     H 4566   9.989   0.189  11.479 -2.5660 -0.5601  0.0058
   34MOL0     H 4567   9.969   0.188  11.312 -2.3810 -0.6111 -0.8929
   34MOL0     H 4568  10.093  -0.056  11.468  4.2066 -1.3954 -0.3951
   34MOL0     H 4569  10.031  -0.064  11.302 -3.5129  2.3423  0.1286
   34MOL0     H 4570   9.118   0.315  11.353  0.5525 -0.7929  1.7609
   34MOL0     H 4571   8.917   0.435  11.389 -3.3313 -0.3106  1.1095
   34MOL0     H 4572   8.509   0.508  11.374 -0.7438  0.0520 -0.2449
   34MOL0     H 4573   8.293   0.590  11.311  0.2672  0.1720  1.1329
   34MOL0     H 4574   6.786   1.475  10.469 -2.4428  1.6404  1.0333
   34MOL0     H 4575   6.589   1.510  10.323  0.1779  0.1397 -0.0300
   34MOL0     H 4576   6.317   1.499  10.082  0.6442 -0.0185 -1.3470
   34MOL0     H 4577   6.169   1.578   9.921 -1.4313 -0.0754  0.5802
   34MOL0     H 4578   6.035   1.526   9.738  0.7815 -0.4211  2.6327
   34MOL0     H 4579   5.961   1.673   9.804 -2.0965 -0.1764  2.6241
   34MOL0     H 4580   5.815   1.450   9.648  0.3209  0.3395 -2.5271
   34MOL0     H 4581   5.855   1.610   9.584 -1.0157  1.6561  0.4496
   34MOL0     H 4582   5.667   1.525   9.801  0.0031 -2.4745 -2.4716
   34MOL0     H 4583   5.625   1.605   9.646  2.8636  0.5983 -2.6318
   34MOL0     H 4584   5.755   1.728   9.897 -0.9476  1.4490 -0.3419
   34MOL0     H 4585   5.748   1.804   9.739 -0.8316  1.2138  0.0383
   34MOL0     H 4586   5.346   1.811   9.919 -1.1310 -0.9401 -0.6338
   34MOL0     H 4587   5.873   1.321  10.060  1.1866 -2.3659 -0.9648
   34MOL0     H 4588   5.873   1.236  10.294 -0.3665 -2.6762 -0.8940
   34MOL0     H 4589   5.989   1.118  10.248  0.2847 -0.3381  1.2399
   34MOL0     H 4590   6.031   1.215  10.380 -0.5434  0.1890  0.2211
   35MOL0     O 4591   3.384   2.019   5.892 -0.1522 -0.1656  0.0999
   35MOL0     C 4592   3.285   2.088   5.913  0.6179 -0.3762 -0.1879
   35MOL0     O 4593   3.263   2.161   6.028 -0.1786 -0.0932  0.5660
   35MOL0     C 4594   3.369   2.170   6.105 -0.1752 -0.3817  0.6135
   35MOL0     C 4595   3.396   2.073   6.207  0.6243  0.3140 -1.0300
   35MOL0     C 4596   3.515   2.086   6.282 -0.0107 -0.2707 -0.1773
   35MOL0     C 4597   3.611   2.189   6.246  0.3499 -0.0557 -0.7062
   35MOL0     O 4598   3.729   2.184   6.317 -0.5674  0.1268 -0.0029
   35MOL0     C 4599   3.853   2.232   6.258 -0.6344 -0.6796 -0.4617
   35MOL0     C 4600   3.957   2.163   6.351  0.2704 -0.3399 -0.1285
   35MOL0     C 4601   4.106   2.212   6.338  0.5662  0.0076  0.8548
   35MOL0     C 4602   4.183   2.175   6.460 -0.5219 -0.3288  0.1788
   35MOL0     C 4603   4.327   2.185   6.427  0.1274 -0.9605  0.3538
   35MOL0     C 4604   4.416   2.185   6.547 -0.1443 -0.6894  0.2685
   35MOL0     C 4605   4.567   2.203   6.519  0.1416  0.0104  0.3066
   35MOL0     C 4606   4.643   2.209   6.658  0.2267  0.2955  0.4624
   35MOL0     N 4607   4.791   2.210   6.658  0.1870 -0.4328  0.2611
   35MOL0     C 4608   4.873   2.300   6.726  0.3394 -0.8340  0.2750
   35MOL0     C 4609   5.001   2.240   6.724 -0.4841  0.1481 -0.8028
   35MOL0     C 4610   5.113   2.288   6.814  0.7024 -0.6570  0.2719
   35MOL0     C 4611   5.257   2.267   6.768  0.6847  0.4037  0.0136
   35MOL0     C 4612   5.293   2.362   6.645  0.7100 -0.0875 -1.3969
   35MOL0     C 4613   5.414   2.325   6.576 -0.6209  0.1224 -0.8702
   35MOL0     O 4614   5.534   2.319   6.652 -0.3541 -0.1887  0.0270
   35MOL0     C 4615   5.655   2.352   6.592  0.0462 -0.1833  0.3369
   35MOL0     C 4616   5.670   2.332   6.448  0.0923 -0.3411 -1.0419
   35MOL0     C 4617   5.786   2.375   6.385  0.1064  0.7184  0.6349
   35MOL0     C 4618   5.890   2.434   6.459  0.3022  0.5512  0.2576
   35MOL0     C 4619   6.013   2.487   6.395  0.2848 -0.2676  0.0560
   35MOL0     O 4620   6.125   2.466   6.468  0.2599  0.0239 -0.2650
   35MOL0     C 4621   6.246   2.514   6.417 -0.1418 -0.5093 -0.3890
   35MOL0     C 4622   6.286   2.480   6.286  0.1232 -0.5667  0.1603
   35MOL0     C 4623   6.421   2.515   6.263  0.2823 -0.2320  0.0054
   35MOL0     C 4624   6.505   2.581   6.360 -0.5256  0.0801  0.5710
   35MOL0     O 4625   6.630   2.608   6.315  0.3567  0.2964  0.4183
   35MOL0     C 4626   6.725   2.685   6.386  0.4632 -0.9183  0.5747
   35MOL0     C 4627   6.822   2.596   6.465 -0.0490 -0.2392  0.0498
   35MOL0     C 4628   6.914   2.498   6.392 -0.1070  0.2585  0.2263
   35MOL0     C 4629   7.037   2.461   6.479  0.0525  0.0037 -0.0140
   35MOL0     C 4630   7.141   2.571   6.497 -0.1287 -0.0622  0.1014
   35MOL0     C 4631   7.202   2.631   6.365  0.3895 -0.1292  0.2890
   35MOL0     C 4632   7.336   2.707   6.394  0.8290 -0.3042  1.0078
   35MOL0     C 4633   7.387   2.756   6.262  0.1864  0.0177  0.5812
   35MOL0    Cl 4634   7.536   2.842   6.294  0.3476  0.0063 -0.1317
   35MOL0     C 4635   6.459   2.605   6.486  0.2852  0.3117  0.4730
   35MOL0     C 4636   6.329   2.571   6.515  0.2859  0.7175 -0.0144
   35MOL0     O 4637   5.998   2.562   6.298 -0.1765 -0.1914  0.1436
   35MOL0     C 4638   5.883   2.433   6.597 -0.0815 -1.1802  0.4201
   35MOL0     C 4639   5.767   2.404   6.663  0.4802 -0.6807  0.8912
   35MOL0     N 4640   4.990   2.123   6.648  0.6870  0.4831  0.3898
   35MOL0     N 4641   4.867   2.115   6.604  0.2098  0.2191  0.1623
   35MOL0     C 4642   3.579   2.289   6.156  0.0532  0.9575 -0.1334
   35MOL0     C 4643   3.461   2.275   6.086  0.0093  1.2401  0.8742
   35MOL0     C 4644   3.169   2.075   5.816  0.6198 -0.0557 -0.3407
   35MOL0     C 4645   3.175   1.978   5.712 -0.2087 -0.0079  0.6580
   35MOL0     C 4646   3.071   1.948   5.629 -0.2255 -0.2705 -0.3508
   35MOL0     C 4647   2.950   2.014   5.635  0.1013 -0.6521 -0.2705
   35MOL0     O 4648   2.860   1.982   5.541 -0.3066 -0.1328 -0.2470
   35MOL0     C 4649   2.727   2.040   5.532  0.3923  0.4362  0.3304
   35MOL0     C 4650   2.616   1.926   5.534 -0.2317  0.5088 -0.8981
   35MOL0     C 4651   2.625   1.836   5.657  0.3223  0.1467 -0.0403
   35MOL0     C 4652   2.523   1.880   5.761  0.2400  0.0034 -0.1482
   35MOL0     C 4653   2.538   2.014   5.802 -0.2763 -1.0881  0.8616
   35MOL0     C 4654   2.546   2.129   5.844  0.3625 -0.1170 -0.3343
   35MOL0     C 4655   2.940   2.116   5.727  0.2512 -0.0420 -1.2673
   35MOL0     C 4656   3.046   2.146   5.821  0.7720  0.1960 -0.1981
   35MOL0     C 4657   3.019   2.247   5.926 -0.3363  0.2346 -0.8390
   35MOL0     H 4658   3.331   1.991   6.236 -0.9542  0.1484 -4.5670
   35MOL0     H 4659   3.535   2.019   6.365 -4.3204  2.0771  3.1361
   35MOL0     H 4660   3.865   2.195   6.156 -0.9749 -0.7552 -0.4737
   35MOL0     H 4661   3.867   2.340   6.263 -1.2987 -0.5173 -1.8007
   35MOL0     H 4662   3.953   2.058   6.320 -1.4509 -0.4414  0.3569
   35MOL0     H 4663   3.926   2.171   6.455 -1.8713  1.5658 -0.8355
   35MOL0     H 4664   4.119   2.320   6.344 -0.1182  0.1354  0.2218
   35MOL0     H 4665   4.159   2.180   6.247  1.5839  0.4974  1.2648
   35MOL0     H 4666   4.158   2.247   6.539 -2.3042 -0.2606 -0.4098
   35MOL0     H 4667   4.157   2.071   6.484 -0.6037 -0.2720  0.3374
   35MOL0     H 4668   4.362   2.107   6.359  1.8506  0.1775 -0.1474
   35MOL0     H 4669   4.349   2.281   6.379 -0.3956 -1.2782 -0.5614
   35MOL0     H 4670   4.384   2.274   6.602 -1.1677  0.5565 -2.1897
   35MOL0     H 4671   4.392   2.092   6.599  0.7155 -1.0921 -0.0366
   35MOL0     H 4672   4.583   2.297   6.465  1.5501  1.0739  2.4227
   35MOL0     H 4673   4.589   2.120   6.451 -0.1180  0.3183 -0.1580
   35MOL0     H 4674   4.629   2.308   6.701  0.5138  1.2978 -1.6353
   35MOL0     H 4675   4.600   2.130   6.721 -1.0822 -0.7234 -1.5912
   35MOL0     H 4676   4.826   2.385   6.774 -2.5612 -1.5858 -0.9975
   35MOL0     H 4677   5.104   2.394   6.839  0.5465 -0.6093  0.0176
   35MOL0     H 4678   5.094   2.239   6.910  1.7478  1.5148  1.6655
   35MOL0     H 4679   5.334   2.268   6.845 -0.1275 -3.0716  1.0523
   35MOL0     H 4680   5.280   2.162   6.743  1.2780  0.4017  0.5370
   35MOL0     H 4681   5.319   2.458   6.692 -1.0202 -0.2909  0.1270
   35MOL0     H 4682   5.215   2.365   6.568  1.1844 -1.7349 -1.9763
   35MOL0     H 4683   5.421   2.400   6.496  1.6212  0.8620 -0.0630
   35MOL0     H 4684   5.405   2.221   6.543 -1.8431 -1.1207  2.9099
   35MOL0     H 4685   5.590   2.279   6.397 -2.2012  1.6140  0.2915
   35MOL0     H 4686   5.787   2.366   6.277 -2.2765  1.2251  0.5181
   35MOL0     H 4687   6.218   2.425   6.223  0.7799 -1.0278 -0.1557
   35MOL0     H 4688   6.464   2.473   6.173  2.1577 -1.9878  1.5897
   35MOL0     H 4689   6.779   2.751   6.319  0.1069 -0.0031  1.1766
   35MOL0     H 4690   6.671   2.749   6.457  1.4005  1.3279 -0.6590
   35MOL0     H 4691   6.882   2.668   6.522  1.7762  0.8425 -3.0092
   35MOL0     H 4692   6.756   2.540   6.533 -0.4721 -2.3583 -1.9616
   35MOL0     H 4693   6.864   2.408   6.356  2.2884 -0.2916 -2.0101
   35MOL0     H 4694   6.945   2.559   6.307  0.7204 -0.9018 -0.3383
   35MOL0     H 4695   7.092   2.373   6.446  0.3223 -0.8293  2.4214
   35MOL0     H 4696   7.008   2.429   6.580 -0.8320  2.9269  0.7533
   35MOL0     H 4697   7.226   2.532   6.554 -0.1005 -0.5740 -0.2847
   35MOL0     H 4698   7.093   2.651   6.555 -0.6525 -0.0216 -0.3707
   35MOL0     H 4699   7.226   2.555   6.290  1.1282  0.1846  0.1977
   35MOL0     H 4700   7.130   2.707   6.331  0.5221  0.2167  0.7760
   35MOL0     H 4701   7.420   2.650   6.436  1.0620 -0.5372  0.2303
   35MOL0     H 4702   7.295   2.795   6.444 -0.0280  0.5552 -1.1254
   35MOL0     H 4703   7.407   2.677   6.189  1.3199  1.2779 -0.5244
   35MOL0     H 4704   7.309   2.823   6.225 -0.3233  1.0223  3.2118
   35MOL0     H 4705   6.523   2.652   6.560  0.4150  0.6982  0.1142
   35MOL0     H 4706   6.286   2.594   6.612 -1.0136 -3.2848  0.5158
   35MOL0     H 4707   5.965   2.476   6.655 -1.8916  1.0796  1.4909
   35MOL0     H 4708   5.757   2.420   6.770  1.1118  3.2852  0.4935
   35MOL0     H 4709   3.653   2.368   6.144  0.4589  0.7748  0.9943
   35MOL0     H 4710   3.443   2.343   6.003 -2.1975 -0.1264  0.1352
   35MOL0     H 4711   3.269   1.926   5.701 -1.5109 -1.8470 -4.6649
   35MOL0     H 4712   3.092   1.879   5.548 -1.4152  0.2913 -1.1734
   35MOL0     H 4713   2.714   2.102   5.443  2.2272 -1.1772 -1.1315
   35MOL0     H 4714   2.711   2.105   5.618  0.5846  1.3675 -0.3276
   35MOL0     H 4715   2.618   1.867   5.442 -4.1838 -1.5022  0.0794
   35MOL0     H 4716   2.514   1.968   5.534  0.1461  1.4663 -1.6748
   35MOL0     H 4717   2.726   1.821   5.698 -1.1990 -1.8994  3.3919
   35MOL0     H 4718   2.586   1.739   5.626 -3.9348  1.9656 -1.0622
   35MOL0     H 4719   2.426   1.867   5.714  1.6972  0.3319 -3.5003
   35MOL0     H 4720   2.528   1.821   5.854 -0.2159  1.2606  0.6980
   35MOL0     H 4721   2.576   2.221   5.891  2.3718 -1.5210  1.3448
   35MOL0     H 4722   2.851   2.178   5.731  0.9441  0.9610  2.2592
   35MOL0     H 4723   3.040   2.218   6.030 -1.6212  1.9985 -0.0425
   35MOL0     H 4724   3.078   2.338   5.912 -2.1163  1.4787 -0.4480
   35MOL0     H 4725   2.913   2.272   5.928 -0.4949 -0.3963  0.8956
   36MOL0     O 4726   5.716   8.852   4.436  0.2976 -0.0864 -0.3344
   36MOL0     C 4727   5.662   8.744   4.427 -0.8115 -0.5026 -0.0852
   36MOL0     O 4728   5.720   8.629   4.385 -0.2112  0.2607  0.4470
   36MOL0     C 4729   5.851   8.620   4.339 -0.0019  0.1215 -0.1860
   36MOL0     C 4730   5.918   8.503   4.351  0.1966  0.2958 -0.3221
   36MOL0     C 4731   6.049   8.489   4.315 -0.6315  0.5289 -0.6346
   36MOL0     C 4732   6.122   8.595   4.259 -0.3891  0.5184  0.4899
   36MOL0     O 4733   6.257   8.598   4.218 -0.0487 -0.2717 -0.1813
   36MOL0     C 4734   6.328   8.477   4.214 -0.3116  0.2956  0.0910
   36MOL0     C 4735   6.465   8.493   4.135  0.8679  0.3456 -0.0464
   36MOL0     C 4736   6.528   8.357   4.119  0.0596 -0.3430  0.2821
   36MOL0     C 4737   6.660   8.364   4.045 -0.2122 -0.0750 -0.7026
   36MOL0     C 4738   6.743   8.231   4.062  0.4690  0.0142  0.9556
   36MOL0     C 4739   6.857   8.236   3.958 -0.9707 -0.5167 -1.1574
   36MOL0     C 4740   6.971   8.132   3.993  0.3117 -0.6328  0.1464
   36MOL0     C 4741   7.111   8.148   3.929  0.0690  0.4741 -0.0513
   36MOL0     N 4742   7.144   8.275   3.857  0.1217  0.1596 -0.3605
   36MOL0     C 4743   7.156   8.393   3.925  0.2908 -0.4733 -0.0967
   36MOL0     C 4744   7.180   8.486   3.827 -0.5909  0.0022 -1.0885
   36MOL0     C 4745   7.218   8.631   3.853 -0.2777  0.3269  0.6367
   36MOL0     C 4746   7.373   8.645   3.853 -0.6037 -0.4676 -0.3861
   36MOL0     C 4747   7.441   8.618   3.718 -0.0964  0.5844  0.1300
   36MOL0     C 4748   7.592   8.639   3.732 -0.4207  0.2694  0.2736
   36MOL0     O 4749   7.660   8.600   3.610  0.2799 -0.8127 -0.2531
   36MOL0     C 4750   7.786   8.644   3.587 -0.0109  0.0350 -0.2971
   36MOL0     C 4751   7.887   8.677   3.689  0.0755  0.2211  0.2437
   36MOL0     C 4752   8.023   8.708   3.656  1.3070 -0.3955 -0.4064
   36MOL0     C 4753   8.060   8.717   3.525  0.2708  0.0781  1.0446
   36MOL0     C 4754   8.201   8.740   3.485 -0.2454  0.3279 -0.5869
   36MOL0     O 4755   8.227   8.778   3.357 -0.0837 -0.2627 -0.3747
   36MOL0     C 4756   8.353   8.800   3.312  0.2118  0.5302  0.1834
   36MOL0     C 4757   8.356   8.805   3.172 -0.0273  0.6933  0.4738
   36MOL0     C 4758   8.470   8.828   3.099  0.1430 -0.0408  0.5004
   36MOL0     C 4759   8.590   8.856   3.170  0.6065 -0.6178  0.0500
   36MOL0     O 4760   8.696   8.890   3.093 -0.8860  0.4573  0.4842
   36MOL0     C 4761   8.770   9.015   3.131 -0.1758 -0.4111 -0.4165
   36MOL0     C 4762   8.906   8.978   3.205  0.7580 -0.0019  0.3982
   36MOL0     C 4763   9.012   8.906   3.121 -0.7804 -0.3482  0.4770
   36MOL0     C 4764   9.093   9.005   3.037 -0.5745  0.2698 -0.0958
   36MOL0     C 4765   9.182   8.935   2.929  0.4611 -0.2353 -0.3396
   36MOL0     C 4766   9.317   8.893   2.990 -0.4632 -0.6547  0.3472
   36MOL0     C 4767   9.426   8.875   2.880 -0.1800  0.6936 -0.4264
   36MOL0     C 4768   9.420   8.738   2.811  0.3458  0.7522  1.3957
   36MOL0    Cl 4769   9.564   8.706   2.697  0.0208 -0.0168 -0.4388
   36MOL0     C 4770   8.591   8.846   3.312  0.6514  0.0115 -0.3655
   36MOL0     C 4771   8.472   8.826   3.380  0.6831  0.1586  0.4585
   36MOL0     O 4772   8.288   8.711   3.567 -0.3050 -0.0224  0.1104
   36MOL0     C 4773   7.964   8.691   3.427  0.9938  0.9221 -0.8456
   36MOL0     C 4774   7.832   8.653   3.456 -0.7462 -0.7300 -0.0476
   36MOL0     N 4775   7.190   8.416   3.712 -0.4514  0.3472 -0.8600
   36MOL0     N 4776   7.149   8.290   3.723  0.0866 -0.2390  0.3223
   36MOL0     C 4777   6.060   8.722   4.254  0.4566 -1.0779  0.4359
   36MOL0     C 4778   5.921   8.728   4.280 -0.4786 -0.1840  0.3390
   36MOL0     C 4779   5.513   8.744   4.453 -0.4595 -0.5536  0.0730
   36MOL0     C 4780   5.439   8.647   4.373 -0.4459 -0.2323  0.0938
   36MOL0     C 4781   5.296   8.655   4.362 -0.4084  0.1685 -0.4653
   36MOL0     C 4782   5.228   8.752   4.439 -0.1238  0.3306 -0.2280
   36MOL0     O 4783   5.089   8.749   4.440 -0.2438  0.0271  0.1781
   36MOL0     C 4784   5.032   8.738   4.573  0.1195 -0.0587 -0.6009
   36MOL0     C 4785   5.063   8.600   4.640  0.1130  0.0224 -0.5083
   36MOL0     C 4786   4.967   8.584   4.764 -0.6001  0.1489  0.1098
   36MOL0     C 4787   5.005   8.681   4.874  0.1370 -0.0536 -0.0186
   36MOL0     C 4788   5.146   8.681   4.907 -0.7683 -0.0875 -0.1690
   36MOL0     C 4789   5.263   8.684   4.946 -0.0182 -0.3803  0.6018
   36MOL0     C 4790   5.301   8.841   4.527  0.6079 -1.0281  0.2322
   36MOL0     C 4791   5.440   8.831   4.536 -0.4174 -0.1641  0.3543
   36MOL0     C 4792   5.517   8.925   4.627 -0.8331  0.4839 -0.3425
   36MOL0     H 4793   5.863   8.420   4.395  1.4848  0.5553  1.9118
   36MOL0     H 4794   6.095   8.393   4.339  4.0416  3.0701  2.1047
   36MOL0     H 4795   6.344   8.438   4.315 -2.7983  1.8058  1.1699
   36MOL0     H 4796   6.284   8.390   4.165 -0.6690 -0.2858  1.3987
   36MOL0     H 4797   6.532   8.551   4.199  0.1870  1.6689 -0.4942
   36MOL0     H 4798   6.451   8.533   4.034 -6.5119  0.9119  0.5989
   36MOL0     H 4799   6.462   8.294   4.060  2.0110  0.6957 -3.3382
   36MOL0     H 4800   6.541   8.303   4.213  1.5271 -0.4620  0.0302
   36MOL0     H 4801   6.645   8.375   3.937  0.1367 -1.1426 -0.8740
   36MOL0     H 4802   6.719   8.453   4.071  0.1035 -0.6280  0.5317
   36MOL0     H 4803   6.797   8.234   4.157  0.8395  3.6542  0.7833
   36MOL0     H 4804   6.682   8.140   4.061  0.8009 -0.2272 -0.9000
   36MOL0     H 4805   6.810   8.212   3.862 -0.8981 -3.0120 -0.6575
   36MOL0     H 4806   6.895   8.338   3.966  1.5255 -1.5575  2.9435
   36MOL0     H 4807   6.928   8.032   3.981 -2.6799  0.9482 -5.1916
   36MOL0     H 4808   6.981   8.123   4.102  3.6180 -1.4388 -0.1002
   36MOL0     H 4809   7.181   8.138   4.013  1.7140  0.9496 -1.3078
   36MOL0     H 4810   7.133   8.059   3.869 -2.8078  0.1749 -0.7981
   36MOL0     H 4811   7.149   8.406   4.033  0.7062  1.3905 -0.2638
   36MOL0     H 4812   7.182   8.688   3.767 -0.3709 -2.6801 -1.4700
   36MOL0     H 4813   7.173   8.674   3.944  1.4364 -0.0101  1.6779
   36MOL0     H 4814   7.400   8.744   3.889  0.0150 -0.7045 -0.1793
   36MOL0     H 4815   7.405   8.577   3.933 -1.7332  0.0968  0.5672
   36MOL0     H 4816   7.403   8.694   3.649  0.6316  3.5268  2.7689
   36MOL0     H 4817   7.416   8.520   3.676  1.2624 -0.3382  1.3730
   36MOL0     H 4818   7.628   8.584   3.819  1.1916  3.3732  1.7170
   36MOL0     H 4819   7.616   8.745   3.743 -1.3117  0.7216 -1.6259
   36MOL0     H 4820   7.858   8.670   3.793 -0.7328 -0.3598 -0.0131
   36MOL0     H 4821   8.096   8.710   3.736  2.4938 -0.5583 -1.4614
   36MOL0     H 4822   8.263   8.788   3.118 -0.5071 -1.0219  1.7626
   36MOL0     H 4823   8.457   8.851   2.993  1.5119 -0.2660  0.2546
   36MOL0     H 4824   8.779   9.085   3.047 -2.4649  1.5505  0.8605
   36MOL0     H 4825   8.707   9.067   3.203  2.0443  2.3432 -0.2896
   36MOL0     H 4826   8.947   9.072   3.241  1.9137 -0.3786  0.1215
   36MOL0     H 4827   8.893   8.906   3.286  1.4706 -1.6284 -0.8771
   36MOL0     H 4828   9.082   8.853   3.187  0.8090  1.9215  0.7553
   36MOL0     H 4829   8.963   8.832   3.058  0.2044 -1.2962  0.7922
   36MOL0     H 4830   9.161   9.061   3.101  3.6267 -0.1401 -3.6613
   36MOL0     H 4831   9.026   9.079   2.991 -0.0329  0.9844  0.2544
   36MOL0     H 4832   9.196   9.011   2.851 -1.1958  2.6499  1.9874
   36MOL0     H 4833   9.125   8.857   2.877 -0.0122  0.6904 -1.2467
   36MOL0     H 4834   9.345   8.977   3.054 -2.5848 -0.8213  1.5819
   36MOL0     H 4835   9.308   8.811   3.062 -0.3380 -0.4448  0.6047
   36MOL0     H 4836   9.526   8.881   2.923  0.1776  0.0368 -1.1480
   36MOL0     H 4837   9.425   8.951   2.801  2.8805  0.2458 -1.0331
   36MOL0     H 4838   9.436   8.658   2.884  2.8978 -0.3293 -0.1854
   36MOL0     H 4839   9.330   8.725   2.750  1.7645 -0.4883 -0.5635
   36MOL0     H 4840   8.682   8.856   3.371  0.6849  3.4828 -0.7824
   36MOL0     H 4841   8.487   8.826   3.487  0.7852 -0.9495  0.4471
   36MOL0     H 4842   8.001   8.696   3.325  1.7865  2.0110 -0.5280
   36MOL0     H 4843   7.764   8.638   3.373 -1.5867 -1.8827  0.8109
   36MOL0     H 4844   6.106   8.805   4.200  1.9920 -2.6683 -0.8210
   36MOL0     H 4845   5.873   8.824   4.263 -0.1162 -0.0342  0.1615
   36MOL0     H 4846   5.497   8.572   4.320  1.7832  0.0581  1.9464
   36MOL0     H 4847   5.248   8.582   4.297 -0.2357  0.2919 -0.7332
   36MOL0     H 4848   4.925   8.747   4.553  0.6725  1.4885 -3.3849
   36MOL0     H 4849   5.057   8.821   4.639  0.9583 -0.8017  0.0427
   36MOL0     H 4850   5.171   8.589   4.658  0.2406  1.5865 -0.1630
   36MOL0     H 4851   5.030   8.517   4.576  1.9908 -2.1261  1.1221
   36MOL0     H 4852   4.986   8.483   4.800 -0.6437 -0.2355 -0.9088
   36MOL0     H 4853   4.861   8.600   4.743 -0.7935  0.1766  1.0461
   36MOL0     H 4854   4.964   8.780   4.854  0.9059  0.4585  0.8924
   36MOL0     H 4855   4.955   8.649   4.966  0.8585  1.1047  0.8063
   36MOL0     H 4856   5.358   8.697   4.995  1.5370 -2.9176 -1.4854
   36MOL0     H 4857   5.254   8.911   4.595  1.6667  0.7011 -0.7146
   36MOL0     H 4858   5.601   8.870   4.671 -2.3974 -0.4665  1.6326
   36MOL0     H 4859   5.561   9.014   4.583  2.6895  0.0211  1.7838
   36MOL0     H 4860   5.451   8.952   4.710 -0.4351 -0.0938  0.1743
   37MOL0     O 4861   5.759   4.396   0.796 -0.3816 -0.7425 -0.2201
   37MOL0     C 4862   5.749   4.404   0.916  0.1169 -0.0770 -0.0571
   37MOL0     O 4863   5.849   4.384   1.013  0.2305  0.0600  0.1242
   37MOL0     C 4864   5.966   4.308   0.999  0.3601  0.6817 -0.5821
   37MOL0     C 4865   6.044   4.301   1.118  0.8243 -1.4261 -0.0163
   37MOL0     C 4866   6.166   4.245   1.132  0.4443 -0.1247  0.3350
   37MOL0     C 4867   6.231   4.195   1.016 -0.0276 -0.2306  0.2597
   37MOL0     O 4868   6.353   4.140   1.025 -0.1942  0.0081 -0.0429
   37MOL0     C 4869   6.460   4.181   0.928  0.4873 -0.7211 -0.7185
   37MOL0     C 4870   6.568   4.078   0.951 -0.9936  0.4944  0.4021
   37MOL0     C 4871   6.693   4.119   0.875  0.3949  0.3170 -0.5046
   37MOL0     C 4872   6.794   4.001   0.866  0.0400 -0.8744  0.1346
   37MOL0     C 4873   6.912   4.024   0.766  0.6749  0.3656 -0.2497
   37MOL0     C 4874   7.007   4.128   0.831  0.2495 -0.0593 -0.1722
   37MOL0     C 4875   7.121   4.167   0.732  0.3439 -0.3893 -0.4193
   37MOL0     C 4876   7.074   4.267   0.626  0.3600 -0.4674  0.5671
   37MOL0     N 4877   7.188   4.287   0.539 -0.4603 -0.0379  0.1481
   37MOL0     C 4878   7.189   4.255   0.404 -0.2744  0.4083  0.2017
   37MOL0     C 4879   7.314   4.291   0.356  0.4719 -0.0274 -0.0580
   37MOL0     C 4880   7.354   4.271   0.215  0.5597 -0.0048  0.5425
   37MOL0     C 4881   7.509   4.285   0.201 -0.1776 -0.3447  0.0682
   37MOL0     C 4882   7.551   4.260   0.062  0.7612  0.1594  0.4053
   37MOL0     C 4883   7.704   4.283   0.051  0.5331  1.0837  0.2022
   37MOL0     O 4884   7.764   4.170   0.118 -0.4725  0.3058  0.1372
   37MOL0     C 4885   7.897   4.150   0.100 -0.0562 -0.5634  0.2198
   37MOL0     C 4886   7.989   4.250   0.061 -0.1477  0.4596 -0.1755
   37MOL0     C 4887   8.120   4.221   0.023 -0.4924 -0.1024  0.1124
   37MOL0     C 4888   8.168   4.084   0.016  0.3334  0.3703  0.0933
   37MOL0     C 4889   8.298   4.050  -0.051  0.5077 -0.2517 -0.0172
   37MOL0     O 4890   8.360   4.158  -0.110 -0.2668 -0.5867  0.0192
   37MOL0     C 4891   8.465   4.134  -0.200  0.6861  0.0028 -0.4653
   37MOL0     C 4892   8.451   4.177  -0.327  0.3143  0.4820 -0.8763
   37MOL0     C 4893   8.556   4.164  -0.414 -0.7279  1.0390 -0.5970
   37MOL0     C 4894   8.679   4.097  -0.374 -0.6595 -1.2550  0.1262
   37MOL0     O 4895   8.785   4.098  -0.462  0.1898  0.0447  0.3193
   37MOL0     C 4896   8.839   3.966  -0.492  0.3659  0.1847  0.8472
   37MOL0     C 4897   8.978   4.004  -0.531  0.3281 -0.6599 -0.3273
   37MOL0     C 4898   9.071   3.872  -0.532  0.1208  0.0658 -0.9525
   37MOL0     C 4899   9.217   3.880  -0.591  0.3541  0.3699 -0.0669
   37MOL0     C 4900   9.305   3.965  -0.504  0.1338 -0.1485  0.8152
   37MOL0     C 4901   9.366   3.899  -0.377 -0.9201  0.3751 -0.4665
   37MOL0     C 4902   9.444   4.006  -0.302 -0.8420 -0.1216 -0.6255
   37MOL0     C 4903   9.598   3.963  -0.286 -0.1499  0.1877  0.0219
   37MOL0    Cl 4904   9.608   3.821  -0.184 -0.1551  0.3142  0.0996
   37MOL0     C 4905   8.695   4.057  -0.244 -0.1945 -0.0114 -0.5263
   37MOL0     C 4906   8.586   4.067  -0.162 -0.3557  0.4810  0.2447
   37MOL0     O 4907   8.327   3.930  -0.064  0.5124 -0.1842 -0.4250
   37MOL0     C 4908   8.074   3.987   0.053 -0.2291  0.2216  0.4115
   37MOL0     C 4909   7.948   4.023   0.110  0.4069  0.7805  0.7998
   37MOL0     N 4910   7.378   4.353   0.463  0.1057 -0.8206  0.1615
   37MOL0     N 4911   7.305   4.353   0.566 -0.7697  0.8327  0.2500
   37MOL0     C 4912   6.148   4.192   0.896 -1.4504 -1.1422 -0.5757
   37MOL0     C 4913   6.016   4.260   0.883 -1.0141 -0.1411  0.6446
   37MOL0     C 4914   5.606   4.428   0.955  0.3357 -0.8362 -0.7010
   37MOL0     C 4915   5.573   4.366   1.077  0.4006  0.3552  0.3638
   37MOL0     C 4916   5.451   4.382   1.137 -0.3989  0.7880  0.3923
   37MOL0     C 4917   5.356   4.466   1.071  0.9804  0.4630  0.5467
   37MOL0     O 4918   5.226   4.461   1.121 -0.1464  0.2711  0.0995
   37MOL0     C 4919   5.204   4.504   1.254  0.0561  0.0909 -0.7993
   37MOL0     C 4920   5.058   4.533   1.284 -0.2194 -0.8263  0.7261
   37MOL0     C 4921   5.028   4.564   1.432 -0.1608 -0.0331  0.0894
   37MOL0     C 4922   5.026   4.422   1.513 -0.2765 -0.6926  0.0465
   37MOL0     C 4923   5.017   4.450   1.655  0.3847  0.6817  1.1427
   37MOL0     C 4924   5.000   4.478   1.772 -0.4052  1.5594 -0.1331
   37MOL0     C 4925   5.380   4.519   0.954  0.9582 -0.2259  0.0428
   37MOL0     C 4926   5.506   4.494   0.889 -0.4532 -0.5252  0.6301
   37MOL0     C 4927   5.513   4.544   0.753 -0.1977 -0.0850  0.3651
   37MOL0     H 4928   6.006   4.341   1.211 -1.2572 -2.0188 -0.5725
   37MOL0     H 4929   6.221   4.232   1.224 -0.2578  0.0529  0.7846
   37MOL0     H 4930   6.415   4.176   0.828 -3.7691 -2.0883  1.0210
   37MOL0     H 4931   6.507   4.277   0.951  1.9514 -1.5855  0.0758
   37MOL0     H 4932   6.531   3.982   0.914 -0.0788  0.0232  0.6895
   37MOL0     H 4933   6.573   4.064   1.059 -3.5778  1.6376  0.7671
   37MOL0     H 4934   6.747   4.192   0.934  1.0308 -1.1705  0.8353
   37MOL0     H 4935   6.681   4.165   0.776 -0.4816 -1.3913 -1.2561
   37MOL0     H 4936   6.827   3.978   0.968  0.3788 -0.7140  0.0634
   37MOL0     H 4937   6.750   3.902   0.850 -0.4164 -0.8154  0.9768
   37MOL0     H 4938   6.974   3.935   0.748  1.3994  0.2020  2.5944
   37MOL0     H 4939   6.870   4.066   0.675  2.6325 -0.9179 -1.8421
   37MOL0     H 4940   6.952   4.220   0.853  2.2881  1.5393 -1.3852
   37MOL0     H 4941   7.052   4.085   0.921  0.9313 -0.5782 -0.7523
   37MOL0     H 4942   7.169   4.083   0.681  0.0955  0.0076 -1.3232
   37MOL0     H 4943   7.194   4.216   0.797 -2.0064  2.0791  0.5628
   37MOL0     H 4944   6.996   4.229   0.559 -2.1973  0.2258  2.9700
   37MOL0     H 4945   7.045   4.360   0.675  2.1079 -0.9473  2.6494
   37MOL0     H 4946   7.108   4.201   0.356 -0.3545 -0.1319  0.9266
   37MOL0     H 4947   7.320   4.170   0.188  0.7204  0.0226  0.2417
   37MOL0     H 4948   7.305   4.344   0.150 -0.2171 -0.3143  0.7664
   37MOL0     H 4949   7.532   4.387   0.233 -1.3863  1.0500 -3.0924
   37MOL0     H 4950   7.555   4.214   0.271 -1.4668 -2.6032 -1.2423
   37MOL0     H 4951   7.503   4.331  -0.006 -0.2573 -0.1969  0.7388
   37MOL0     H 4952   7.516   4.162   0.026 -0.5570  0.7313  0.0606
   37MOL0     H 4953   7.735   4.375   0.101  2.5995  0.1873  0.6554
   37MOL0     H 4954   7.747   4.281  -0.050 -1.3024  0.0762 -0.6051
   37MOL0     H 4955   7.956   4.353   0.072 -1.9761 -0.3502  3.0295
   37MOL0     H 4956   8.188   4.300  -0.008 -2.8066  1.9835  0.0847
   37MOL0     H 4957   8.356   4.220  -0.358  0.3993  0.2417 -1.4831
   37MOL0     H 4958   8.550   4.202  -0.515  0.2497 -0.0288 -1.0811
   37MOL0     H 4959   8.844   3.907  -0.401 -0.7680 -0.5856  0.4334
   37MOL0     H 4960   8.779   3.920  -0.571 -1.1193  2.6903  0.4106
   37MOL0     H 4961   8.977   4.055  -0.628  0.5763  0.6067  0.3094
   37MOL0     H 4962   9.004   4.083  -0.459 -1.0366  2.3133 -2.8657
   37MOL0     H 4963   9.093   3.851  -0.427 -0.3143 -3.3032 -1.4369
   37MOL0     H 4964   9.019   3.784  -0.569 -0.1639 -0.3171  0.3213
   37MOL0     H 4965   9.200   3.915  -0.693 -1.4850 -1.1926 -0.3632
   37MOL0     H 4966   9.260   3.779  -0.597  0.9789  0.6567 -0.5174
   37MOL0     H 4967   9.259   4.060  -0.479  0.8185 -0.1433  2.1136
   37MOL0     H 4968   9.386   3.995  -0.571 -0.8439  3.3984  1.0522
   37MOL0     H 4969   9.294   3.850  -0.310 -0.3809  1.0318  0.6254
   37MOL0     H 4970   9.436   3.823  -0.413 -0.7525  0.6456 -0.7054
   37MOL0     H 4971   9.410   4.018  -0.199  2.6608  2.7017  0.4295
   37MOL0     H 4972   9.424   4.105  -0.342  1.0983  1.9395  2.9299
   37MOL0     H 4973   9.647   3.954  -0.384  0.0172 -0.4250  0.1546
   37MOL0     H 4974   9.654   4.043  -0.238 -1.0166  0.7933  0.0380
   37MOL0     H 4975   8.798   4.045  -0.212 -0.5330 -2.5257 -0.1149
   37MOL0     H 4976   8.601   4.040  -0.058 -1.0708  1.3080  0.5708
   37MOL0     H 4977   8.104   3.882   0.050 -1.4822 -0.1574  0.4106
   37MOL0     H 4978   7.882   3.946   0.149  0.7297  1.6228  3.1811
   37MOL0     H 4979   6.199   4.144   0.813  1.9945  0.4205  0.4580
   37MOL0     H 4980   5.970   4.266   0.785 -2.1523  1.8098  1.2447
   37MOL0     H 4981   5.637   4.296   1.130 -3.0917 -2.1475  1.6569
   37MOL0     H 4982   5.431   4.341   1.235  2.3974 -2.5543 -0.2469
   37MOL0     H 4983   5.265   4.592   1.274 -2.7420  1.8380  0.6950
   37MOL0     H 4984   5.240   4.424   1.320  2.3081 -0.6430 -2.8221
   37MOL0     H 4985   5.005   4.440   1.262  1.4078 -2.2340  2.4150
   37MOL0     H 4986   5.028   4.616   1.218  1.8823 -1.9854 -1.8867
   37MOL0     H 4987   4.940   4.628   1.440 -1.6425 -2.1172  1.7843
   37MOL0     H 4988   5.115   4.623   1.461  1.7139 -2.9988  0.9169
   37MOL0     H 4989   4.939   4.360   1.489  0.8094 -2.7868  1.2874
   37MOL0     H 4990   5.113   4.361   1.490 -1.9217 -2.1037 -2.8542
   37MOL0     H 4991   4.990   4.496   1.878 -0.5806 -0.8367  0.3082
   37MOL0     H 4992   5.288   4.555   0.910  1.6083  1.5901  0.1027
   37MOL0     H 4993   5.416   4.589   0.728 -2.4809 -4.1251  1.1116
   37MOL0     H 4994   5.598   4.612   0.740  0.0633 -0.5182 -0.2127
   37MOL0     H 4995   5.543   4.462   0.688  0.6129  2.2443 -2.3887
   38MOL0     O 4996   6.510   6.848   1.291 -0.1245  0.3262  0.0219
   38MOL0     C 4997   6.404   6.865   1.240  0.4682  0.4714  1.1685
   38MOL0     O 4998   6.375   6.911   1.110  0.2119  0.0635 -0.1171
   38MOL0     C 4999   6.485   6.932   1.033 -0.0007  0.1553 -0.7051
   38MOL0     C 5000   6.545   7.054   1.044 -0.6357 -0.1172 -0.5338
   38MOL0     C 5001   6.662   7.084   0.967 -0.5124 -0.4771  0.0229
   38MOL0     C 5002   6.712   6.992   0.885 -0.0842  0.0044  0.0187
   38MOL0     O 5003   6.831   7.024   0.817 -1.1466 -0.4663 -0.2648
   38MOL0     C 5004   6.913   6.918   0.765 -0.6605 -0.8316 -0.4831
   38MOL0     C 5005   7.024   6.986   0.689 -0.5476 -0.6989  1.6309
   38MOL0     C 5006   7.116   6.890   0.614  0.5494  0.1328  0.6998
   38MOL0     C 5007   7.232   6.973   0.556  0.6560 -0.7374  0.3293
   38MOL0     C 5008   7.353   6.881   0.548  0.1709  0.4131  0.4826
   38MOL0     C 5009   7.482   6.949   0.494 -0.7761 -0.1889  0.0647
   38MOL0     C 5010   7.604   6.854   0.479 -0.1550  0.0178 -0.2744
   38MOL0     C 5011   7.712   6.917   0.401 -0.8874 -0.2004  0.8969
   38MOL0     N 5012   7.814   6.814   0.376  0.4064  0.2206 -0.1885
   38MOL0     C 5013   7.943   6.840   0.336 -0.6241 -0.1011 -0.6835
   38MOL0     C 5014   8.006   6.722   0.351  0.0123  0.0085 -0.0137
   38MOL0     C 5015   8.146   6.707   0.311 -0.1271  0.5465  0.2870
   38MOL0     C 5016   8.251   6.766   0.411  0.9517  0.9244  0.1225
   38MOL0     C 5017   8.274   6.913   0.394  0.4382  0.6367  0.1392
   38MOL0     C 5018   8.372   6.969   0.494  0.0993 -1.2046  0.1721
   38MOL0     O 5019   8.496   6.908   0.462  0.9654 -0.4282  0.0200
   38MOL0     C 5020   8.609   6.980   0.490 -0.0647 -0.2610  0.2433
   38MOL0     C 5021   8.709   6.993   0.398 -0.6302  0.6359 -0.7406
   38MOL0     C 5022   8.823   7.066   0.428 -0.1764  0.6309  0.0486
   38MOL0     C 5023   8.833   7.134   0.546  0.4925 -0.1712  0.9813
   38MOL0     C 5024   8.933   7.228   0.572 -0.0876  0.0312  0.6602
   38MOL0     O 5025   8.905   7.328   0.661  0.4650  0.1997 -0.4010
   38MOL0     C 5026   9.006   7.414   0.703  0.1503 -0.1755  0.8666
   38MOL0     C 5027   8.975   7.551   0.742 -0.7042  0.4021  0.3641
   38MOL0     C 5028   9.077   7.635   0.808  0.3405  0.3067 -0.6792
   38MOL0     C 5029   9.206   7.584   0.822 -1.2165  0.4580  0.8565
   38MOL0     O 5030   9.308   7.667   0.866 -0.4471  0.8546  0.2681
   38MOL0     C 5031   9.272   7.737   0.989  0.7368  0.1109  0.8530
   38MOL0     C 5032   9.392   7.773   1.081 -0.7270  1.0999 -0.3895
   38MOL0     C 5033   9.470   7.647   1.127 -0.3604 -0.3727 -0.0573
   38MOL0     C 5034   9.615   7.687   1.176  0.2154 -0.2839 -0.7979
   38MOL0     C 5035   9.695   7.558   1.207  0.3592  0.2942 -0.6249
   38MOL0     C 5036   9.653   7.498   1.346 -0.0245 -0.4375  0.3150
   38MOL0     C 5037   9.737   7.375   1.366  0.6143  0.2272 -0.2503
   38MOL0     C 5038   9.710   7.306   1.496 -0.0385  0.0522  0.2475
   38MOL0    Cl 5039   9.804   7.152   1.482 -0.4437  0.0541 -0.0790
   38MOL0     C 5040   9.238   7.452   0.778  0.4169 -0.4480 -0.7072
   38MOL0     C 5041   9.142   7.370   0.722 -0.8066  0.5558 -0.4769
   38MOL0     O 5042   9.037   7.219   0.500  0.1013  0.8596 -0.3900
   38MOL0     C 5043   8.734   7.118   0.639  0.6046  0.4793 -0.5906
   38MOL0     C 5044   8.619   7.036   0.614 -0.5207  0.5340 -0.0510
   38MOL0     N 5045   7.918   6.626   0.386 -0.3013 -0.0632 -0.0467
   38MOL0     N 5046   7.803   6.681   0.406 -0.3297 -0.1619 -0.6265
   38MOL0     C 5047   6.643   6.873   0.869 -0.0849 -0.4916 -0.3555
   38MOL0     C 5048   6.530   6.847   0.938  1.2956  0.7249 -0.6833
   38MOL0     C 5049   6.284   6.829   1.324 -0.5239 -0.0844  1.0226
   38MOL0     C 5050   6.160   6.799   1.254 -0.0799  0.3226 -0.7306
   38MOL0     C 5051   6.040   6.775   1.320  0.0994  0.4197  0.3617
   38MOL0     C 5052   6.045   6.755   1.456  0.5747 -0.8911 -0.2139
   38MOL0     O 5053   5.943   6.711   1.536 -0.2187  0.3093 -0.2861
   38MOL0     C 5054   5.807   6.756   1.510 -0.6358 -0.2295  0.3282
   38MOL0     C 5055   5.718   6.650   1.436 -0.7749  0.3331 -0.2841
   38MOL0     C 5056   5.602   6.720   1.359  0.0929 -0.1503 -0.0395
   38MOL0     C 5057   5.564   6.643   1.230 -0.0828 -0.2615 -0.0039
   38MOL0     C 5058   5.484   6.520   1.245 -0.2232 -1.1392 -0.2140
   38MOL0     C 5059   5.413   6.429   1.243 -0.2376  0.0110 -0.4438
   38MOL0     C 5060   6.166   6.771   1.524 -0.2443 -0.3693  0.2673
   38MOL0     C 5061   6.287   6.811   1.461  0.1828  0.1557  0.1279
   38MOL0     C 5062   6.408   6.826   1.550  0.7326  0.1527  0.0457
   38MOL0     H 5063   6.491   7.135   1.093 -0.1875 -1.6083  2.6975
   38MOL0     H 5064   6.701   7.185   0.979 -0.9553 -0.4648  1.6079
   38MOL0     H 5065   6.954   6.857   0.846 -2.9617  0.7605  2.0422
   38MOL0     H 5066   6.860   6.850   0.698  0.7110 -3.4776  0.9629
   38MOL0     H 5067   7.081   7.049   0.759  2.3823 -1.1485 -0.1880
   38MOL0     H 5068   6.985   7.063   0.621  0.4637  0.2971  2.1413
   38MOL0     H 5069   7.075   6.845   0.523 -0.6105  5.6981 -1.9273
   38MOL0     H 5070   7.145   6.814   0.688  1.5726  0.4737  0.6554
   38MOL0     H 5071   7.198   7.011   0.460 -2.3879 -1.6664  0.9359
   38MOL0     H 5072   7.256   7.061   0.617 -0.0728 -1.4113  1.6417
   38MOL0     H 5073   7.369   6.845   0.650  2.5133  1.6343  0.6375
   38MOL0     H 5074   7.347   6.799   0.476 -3.4127 -0.2892  1.3979
   38MOL0     H 5075   7.470   6.979   0.390  2.6625 -0.1765 -0.4575
   38MOL0     H 5076   7.516   7.028   0.562  1.4322 -0.5657 -0.5005
   38MOL0     H 5077   7.561   6.765   0.433 -0.5432 -1.0625  2.0358
   38MOL0     H 5078   7.644   6.814   0.572  1.0544 -1.2316 -1.2863
   38MOL0     H 5079   7.673   6.945   0.303  0.4981 -3.2857 -0.6700
   38MOL0     H 5080   7.755   7.007   0.445 -0.6651  0.6624 -0.9913
   38MOL0     H 5081   7.991   6.931   0.302 -1.0544  0.9871  1.4850
   38MOL0     H 5082   8.168   6.602   0.293  0.1894  0.2869  2.0259
   38MOL0     H 5083   8.161   6.748   0.211 -3.1562 -1.3864 -1.1048
   38MOL0     H 5084   8.214   6.734   0.508 -2.3382 -0.5396 -1.4668
   38MOL0     H 5085   8.343   6.709   0.395  1.4421  1.8303 -0.4152
   38MOL0     H 5086   8.179   6.966   0.405  0.8235  0.9587  2.1943
   38MOL0     H 5087   8.316   6.926   0.294  1.6822  2.4612  0.8465
   38MOL0     H 5088   8.340   6.950   0.597  1.5105 -2.6933  0.3850
   38MOL0     H 5089   8.375   7.078   0.485 -1.7566 -1.0214  1.2660
   38MOL0     H 5090   8.709   6.928   0.311 -2.3845 -2.4046  1.3587
   38MOL0     H 5091   8.907   7.064   0.360  0.9109  1.1677  1.3333
   38MOL0     H 5092   8.871   7.581   0.736 -1.1217 -0.9029  0.8490
   38MOL0     H 5093   9.050   7.734   0.842 -3.0571 -0.6095 -0.2445
   38MOL0     H 5094   9.218   7.829   0.965 -0.8211 -1.3592 -1.7964
   38MOL0     H 5095   9.206   7.683   1.057 -1.0520  1.1718  0.0198
   38MOL0     H 5096   9.464   7.829   1.022 -0.5268 -0.9953 -2.2843
   38MOL0     H 5097   9.354   7.839   1.160 -0.5692 -0.7903  1.3860
   38MOL0     H 5098   9.410   7.603   1.208 -0.7741 -0.4813 -0.4195
   38MOL0     H 5099   9.483   7.578   1.043  0.8721  0.0142 -0.2003
   38MOL0     H 5100   9.615   7.757   1.260  0.8991 -1.0892 -0.1087
   38MOL0     H 5101   9.671   7.735   1.096 -0.7621 -0.2636 -1.4887
   38MOL0     H 5102   9.798   7.591   1.191  0.6631 -1.8503 -4.2370
   38MOL0     H 5103   9.682   7.486   1.126  3.3253 -1.3056  0.1761
   38MOL0     H 5104   9.674   7.578   1.418  3.8743  0.4624 -1.5888
   38MOL0     H 5105   9.548   7.478   1.370 -0.0831  3.3326  4.4546
   38MOL0     H 5106   9.838   7.416   1.372  0.2825  1.5474 -2.4093
   38MOL0     H 5107   9.735   7.319   1.272 -0.6954  1.1672 -0.8209
   38MOL0     H 5108   9.753   7.365   1.577  1.6119 -1.8885  0.8519
   38MOL0     H 5109   9.606   7.280   1.518  0.4199 -2.6368 -0.4454
   38MOL0     H 5110   9.342   7.424   0.792  0.4186 -1.4353 -2.3738
   38MOL0     H 5111   9.181   7.270   0.706 -1.5676  0.3363 -1.0563
   38MOL0     H 5112   8.729   7.161   0.739 -0.8851 -0.9869  0.0106
   38MOL0     H 5113   8.540   7.020   0.686 -2.8970 -0.7663 -2.7252
   38MOL0     H 5114   6.676   6.796   0.800 -2.6094  1.4661 -4.1175
   38MOL0     H 5115   6.486   6.748   0.949  2.1585  0.5339  1.5824
   38MOL0     H 5116   6.167   6.809   1.147  2.7052  0.3501 -0.6244
   38MOL0     H 5117   5.944   6.765   1.271  0.0761 -0.2830  0.5459
   38MOL0     H 5118   5.827   6.849   1.455  1.6932 -0.1107  1.2366
   38MOL0     H 5119   5.768   6.796   1.604  1.4231  0.3525  0.9864
   38MOL0     H 5120   5.682   6.565   1.494 -1.7848  0.1039 -1.2118
   38MOL0     H 5121   5.796   6.611   1.370  1.1691  0.9068  1.5624
   38MOL0     H 5122   5.636   6.821   1.333  0.3269 -0.3111 -0.3643
   38MOL0     H 5123   5.506   6.717   1.410 -1.6655 -2.0070 -3.1746
   38MOL0     H 5124   5.504   6.721   1.184  2.1324  3.1581  2.4571
   38MOL0     H 5125   5.646   6.623   1.160  1.3653  0.6578  1.3786
   38MOL0     H 5126   5.348   6.346   1.263  0.8507 -0.9117 -0.6259
   38MOL0     H 5127   6.152   6.750   1.630  0.0248  0.0972  0.4027
   38MOL0     H 5128   6.397   6.776   1.647  1.9230  1.8503  1.1103
   38MOL0     H 5129   6.491   6.773   1.503  0.8779 -3.0293  3.3386
   38MOL0     H 5130   6.431   6.932   1.561  3.8246 -0.4756  0.5679
   39MOL0     O 5131   5.516   1.338   2.951 -0.3616 -1.1589  0.0933
   39MOL0     C 5132   5.531   1.294   3.064  0.3579  0.0609 -0.2806
   39MOL0     O 5133   5.638   1.214   3.106 -0.2260 -0.0959 -0.2338
   39MOL0     C 5134   5.756   1.189   3.038 -0.1840  0.0721  0.0230
   39MOL0     C 5135   5.797   1.265   2.926 -0.6049 -0.3680  0.0343
   39MOL0     C 5136   5.925   1.242   2.876  0.2611 -0.0555 -0.6126
   39MOL0     C 5137   6.004   1.147   2.932 -0.1473  0.1686 -0.1940
   39MOL0     O 5138   6.127   1.113   2.884 -0.3994 -0.4270  0.2327
   39MOL0     C 5139   6.213   1.219   2.830 -0.2739  0.4119 -0.0846
   39MOL0     C 5140   6.329   1.171   2.751 -0.2119  0.9830 -0.0414
   39MOL0     C 5141   6.302   1.056   2.657  0.1262 -0.9155 -0.2654
   39MOL0     C 5142   6.181   1.091   2.571 -1.5248 -0.2975 -0.3387
   39MOL0     C 5143   6.169   0.994   2.453 -0.2545 -0.2054  0.0887
   39MOL0     C 5144   6.082   1.045   2.350 -0.1336  0.1417 -0.1165
   39MOL0     C 5145   5.941   1.064   2.401  0.1344  0.1825 -0.0334
   39MOL0     C 5146   5.838   1.087   2.291 -0.6460 -0.0604  0.6109
   39MOL0     N 5147   5.699   1.056   2.329  0.4210 -0.5106  0.4428
   39MOL0     C 5148   5.625   1.135   2.405  0.7314 -0.4366 -0.1101
   39MOL0     C 5149   5.502   1.069   2.410  0.0053  0.0122  0.6472
   39MOL0     C 5150   5.369   1.104   2.474  0.0641  0.1978 -0.6774
   39MOL0     C 5151   5.344   1.031   2.616 -0.1335 -0.5210 -0.0779
   39MOL0     C 5152   5.436   1.074   2.735  0.0531  0.3162 -0.7776
   39MOL0     C 5153   5.583   1.032   2.726 -0.2109  0.6085  0.7742
   39MOL0     O 5154   5.610   0.907   2.658 -0.6338 -0.3809 -0.6748
   39MOL0     C 5155   5.731   0.841   2.657  1.2796  0.7822  0.2567
   39MOL0     C 5156   5.846   0.903   2.720  0.9358  0.6255  0.2320
   39MOL0     C 5157   5.967   0.831   2.716  0.1276 -1.0112 -0.1003
   39MOL0     C 5158   5.983   0.706   2.652  0.9121  0.2742  0.2654
   39MOL0     C 5159   6.120   0.647   2.643 -0.1157  0.6901  0.1150
   39MOL0     O 5160   6.220   0.695   2.730 -0.1228  0.2870 -0.4698
   39MOL0     C 5161   6.339   0.631   2.734 -0.6076  0.9636 -0.1852
   39MOL0     C 5162   6.372   0.495   2.731 -0.0218  0.4143  0.3157
   39MOL0     C 5163   6.506   0.441   2.748 -0.4451  1.0097 -0.2012
   39MOL0     C 5164   6.608   0.533   2.746 -0.1722  0.0168 -0.1430
   39MOL0     O 5165   6.741   0.506   2.735 -0.1779  0.1670  0.2770
   39MOL0     C 5166   6.786   0.380   2.784 -0.2166  0.1389 -0.7817
   39MOL0     C 5167   6.935   0.392   2.773  0.4945  0.4626  0.0472
   39MOL0     C 5168   6.981   0.457   2.901  0.3425 -0.9633  0.0321
   39MOL0     C 5169   7.129   0.457   2.917  0.4537  0.5791  0.4511
   39MOL0     C 5170   7.199   0.578   2.967 -0.4256  0.0026  0.6086
   39MOL0     C 5171   7.356   0.571   2.948 -0.8169 -0.1479  0.3123
   39MOL0     C 5172   7.426   0.681   3.036  0.2759 -0.8520  0.2862
   39MOL0     C 5173   7.572   0.716   2.998 -0.6822 -0.0765  0.6059
   39MOL0    Cl 5174   7.693   0.593   3.040  0.0184  0.2552 -0.1437
   39MOL0     C 5175   6.587   0.667   2.730  0.1540  0.0020 -0.8455
   39MOL0     C 5176   6.454   0.716   2.730  0.3107  0.5802 -0.7485
   39MOL0     O 5177   6.148   0.571   2.551 -0.2652  0.5847 -0.1485
   39MOL0     C 5178   5.862   0.650   2.595 -0.2730 -0.1321  0.5726
   39MOL0     C 5179   5.745   0.719   2.595  0.0957 -0.1045  0.2258
   39MOL0     N 5180   5.522   0.956   2.343 -0.1356  0.9080  0.2438
   39MOL0     N 5181   5.639   0.945   2.294 -0.1391 -0.7986 -0.5290
   39MOL0     C 5182   5.960   1.067   3.038  0.1164 -0.3813 -0.6363
   39MOL0     C 5183   5.838   1.088   3.088  0.7603  0.8256  0.7305
   39MOL0     C 5184   5.427   1.327   3.166 -0.9457 -0.6354 -0.3549
   39MOL0     C 5185   5.468   1.323   3.302  0.2535  0.0730  0.2558
   39MOL0     C 5186   5.382   1.356   3.409 -0.6103  0.6246  0.2297
   39MOL0     C 5187   5.251   1.407   3.380  0.2842  0.4417 -0.4012
   39MOL0     O 5188   5.160   1.447   3.472  0.1227 -0.4393 -0.5743
   39MOL0     C 5189   5.188   1.397   3.609  0.1995 -0.7065  0.5382
   39MOL0     C 5190   5.070   1.432   3.704  0.2707  0.1545 -0.8534
   39MOL0     C 5191   4.935   1.395   3.663 -0.2677  0.8233  0.0424
   39MOL0     C 5192   4.828   1.462   3.751  0.0457  0.4246  0.6816
   39MOL0     C 5193   4.704   1.422   3.712 -0.2176  0.8926  0.1733
   39MOL0     C 5194   4.599   1.366   3.685 -0.9885  0.1245 -0.2007
   39MOL0     C 5195   5.212   1.421   3.248 -0.2095  0.0991 -0.0133
   39MOL0     C 5196   5.294   1.374   3.143  0.9433 -0.7934 -0.1224
   39MOL0     C 5197   5.240   1.380   3.002  0.5614  0.1371 -0.5780
   39MOL0     H 5198   5.734   1.345   2.888 -0.0310  0.5882  1.0246
   39MOL0     H 5199   5.956   1.297   2.788  1.5652 -0.4857 -0.4518
   39MOL0     H 5200   6.156   1.284   2.762  0.0611  0.8147  0.0179
   39MOL0     H 5201   6.245   1.283   2.913 -0.8448  1.0068 -0.3101
   39MOL0     H 5202   6.399   1.131   2.825  0.2916 -0.0914 -1.0487
   39MOL0     H 5203   6.389   1.248   2.702  1.5290  1.3383  2.4419
   39MOL0     H 5204   6.267   0.969   2.713  0.0876 -1.0320 -0.4721
   39MOL0     H 5205   6.395   1.026   2.609  0.4338 -2.2706  1.0908
   39MOL0     H 5206   6.094   1.071   2.635 -2.2500 -1.3687 -1.6014
   39MOL0     H 5207   6.178   1.191   2.528 -1.7589 -1.0733 -2.2409
   39MOL0     H 5208   6.266   0.983   2.404  0.7391  0.0305  1.9045
   39MOL0     H 5209   6.138   0.898   2.495 -1.6083  0.3892  0.5223
   39MOL0     H 5210   6.133   1.122   2.291  3.2570 -1.6467  0.2199
   39MOL0     H 5211   6.080   0.952   2.294 -0.1573  0.1219 -0.0815
   39MOL0     H 5212   5.932   1.150   2.467 -3.3036 -0.6060  0.7201
   39MOL0     H 5213   5.909   0.976   2.458  0.6673  1.5180  2.4538
   39MOL0     H 5214   5.834   1.191   2.257  0.2680 -0.5919 -1.3009
   39MOL0     H 5215   5.866   1.024   2.206 -0.2572  1.4027 -0.3937
   39MOL0     H 5216   5.649   1.225   2.461 -0.6518  0.0293 -0.2234
   39MOL0     H 5217   5.349   1.211   2.479 -1.9090 -0.0821 -1.5818
   39MOL0     H 5218   5.287   1.071   2.409  0.9950 -1.0048 -1.2896
   39MOL0     H 5219   5.239   1.040   2.647  0.3792 -1.0030  1.9424
   39MOL0     H 5220   5.368   0.928   2.589 -0.0402  0.4436 -4.4511
   39MOL0     H 5221   5.398   1.024   2.824  0.2586 -0.6655 -1.2331
   39MOL0     H 5222   5.422   1.180   2.757 -0.9549 -0.2223  1.4686
   39MOL0     H 5223   5.617   1.016   2.829  0.8145  0.0531  0.3580
   39MOL0     H 5224   5.645   1.106   2.676  1.1290  0.2129  1.7930
   39MOL0     H 5225   5.857   0.996   2.776 -1.2153 -0.5048  2.7268
   39MOL0     H 5226   6.049   0.886   2.762 -0.5377  1.2565 -1.4287
   39MOL0     H 5227   6.299   0.417   2.713 -1.2626  2.1336 -2.9585
   39MOL0     H 5228   6.529   0.336   2.755 -1.1154  0.6980 -2.1221
   39MOL0     H 5229   6.756   0.376   2.889 -1.5171  0.3247 -1.1359
   39MOL0     H 5230   6.741   0.291   2.738  3.2481 -1.7324 -0.9233
   39MOL0     H 5231   6.979   0.294   2.755 -0.1109  0.4954 -1.8238
   39MOL0     H 5232   6.957   0.461   2.691 -1.4936  0.0026 -0.9488
   39MOL0     H 5233   6.929   0.549   2.927  0.2936 -1.2436  0.9434
   39MOL0     H 5234   6.954   0.387   2.980 -0.9938  0.0709  0.5188
   39MOL0     H 5235   7.178   0.435   2.822  1.2270  0.2878  0.9068
   39MOL0     H 5236   7.145   0.372   2.985  0.9411 -1.7880 -2.4161
   39MOL0     H 5237   7.180   0.581   3.074  0.9071  0.5841  0.8513
   39MOL0     H 5238   7.167   0.667   2.911  0.8094 -0.7623 -1.4434
   39MOL0     H 5239   7.384   0.474   2.992 -2.9853 -0.3690  1.3603
   39MOL0     H 5240   7.387   0.566   2.844 -1.2750 -3.5391  0.2280
   39MOL0     H 5241   7.412   0.650   3.140  3.4608 -0.9362  0.7731
   39MOL0     H 5242   7.367   0.771   3.017 -0.4717 -1.7501 -2.1467
   39MOL0     H 5243   7.586   0.737   2.891  1.6883  1.0494  1.0728
   39MOL0     H 5244   7.600   0.805   3.054  0.1808 -0.7842  1.3405
   39MOL0     H 5245   6.674   0.729   2.708 -0.0360  0.1610 -1.1591
   39MOL0     H 5246   6.444   0.822   2.712  1.6451  0.9480  0.4660
   39MOL0     H 5247   5.859   0.553   2.547  1.8220  0.8393 -1.7656
   39MOL0     H 5248   5.649   0.681   2.563  0.2790  0.5139 -1.1413
   39MOL0     H 5249   6.036   1.000   3.077  2.7155  1.6532 -1.8856
   39MOL0     H 5250   5.781   1.020   3.151 -2.4559  1.2893 -1.4338
   39MOL0     H 5251   5.571   1.292   3.316  0.0791 -0.2526  0.8698
   39MOL0     H 5252   5.399   1.337   3.514 -1.0312  2.6475  0.7054
   39MOL0     H 5253   5.275   1.450   3.648  1.1134  0.2415 -2.4686
   39MOL0     H 5254   5.209   1.290   3.611 -2.3641 -1.3615 -1.2446
   39MOL0     H 5255   5.066   1.539   3.724 -0.2379 -0.0552  0.2829
   39MOL0     H 5256   5.104   1.389   3.799  1.3092  1.5693 -0.5655
   39MOL0     H 5257   4.908   1.290   3.657  0.2467  0.6022  1.3200
   39MOL0     H 5258   4.921   1.436   3.562 -0.5113  0.5178 -0.0469
   39MOL0     H 5259   4.838   1.450   3.859 -0.1174  0.8833  0.7520
   39MOL0     H 5260   4.833   1.571   3.738 -0.2680  0.3371 -0.2604
   39MOL0     H 5261   4.501   1.329   3.664 -1.1207  0.6822 -0.5941
   39MOL0     H 5262   5.110   1.459   3.234 -1.1131 -2.2867 -0.3222
   39MOL0     H 5263   5.269   1.477   2.962  1.1525  0.5356  0.7480
   39MOL0     H 5264   5.280   1.297   2.944  1.7060  1.1337 -1.2381
   39MOL0     H 5265   5.131   1.374   2.995  0.4507 -0.4283  1.0970
   40MOL0     O 5266  10.722  10.993   1.122  0.4978 -0.0133  0.1438
   40MOL0     C 5267  10.716  10.887   1.180  0.1609  0.5887 -0.8454
   40MOL0     O 5268  10.814  10.795   1.180 -0.0473  0.5974  0.0900
   40MOL0     C 5269  10.936  10.836   1.121  0.3810 -0.4256 -0.6676
   40MOL0     C 5270  10.952  10.810   0.981 -0.2062  0.1341  0.2166
   40MOL0     C 5271  11.076  10.826   0.915 -0.3209 -0.5751  0.3808
   40MOL0     C 5272  11.188  10.876   0.986  0.1486  0.4838 -0.2728
   40MOL0     O 5273  11.311  10.879   0.940 -0.1470 -0.9252  0.3279
   40MOL0     C 5274  11.384  10.759   0.971  0.6770  0.0945 -0.0086
   40MOL0     C 5275  11.526  10.753   0.915  0.1593  0.7382  0.0048
   40MOL0     C 5276  11.606  10.646   0.996 -0.1509 -0.0584 -0.4712
   40MOL0     C 5277  11.569  10.504   0.975  0.6981  0.4029 -0.1271
   40MOL0     C 5278  11.645  10.423   1.074 -0.4736 -0.1322 -0.2340
   40MOL0     C 5279  11.626  10.270   1.051 -0.3470 -0.4645  0.4253
   40MOL0     C 5280  11.713  10.186   1.149 -0.3492  0.8969  0.5253
   40MOL0     C 5281  11.867  10.203   1.136  0.6104 -0.1031 -0.2700
   40MOL0     N 5282  11.939  10.123   1.239  0.3248  0.7052  0.3288
   40MOL0     C 5283  11.905  10.097   1.369  0.2754 -0.0861 -0.4450
   40MOL0     C 5284  12.002  10.018   1.421  0.1936  0.1123 -0.3655
   40MOL0     C 5285  12.015   9.982   1.566  0.2674 -0.0131 -0.0082
   40MOL0     C 5286  12.158   9.981   1.622 -0.2996 -0.5928  0.6038
   40MOL0     C 5287  12.239   9.860   1.570 -0.4124  0.6599  0.9177
   40MOL0     C 5288  12.369   9.840   1.629 -0.3256 -1.0907  0.8287
   40MOL0     O 5289  12.453   9.933   1.569 -0.5318 -0.4437  0.0503
   40MOL0     C 5290  12.585   9.930   1.613  0.5233  0.0635 -0.4874
   40MOL0     C 5291  12.642   9.845   1.711  0.4909 -0.6377 -0.2016
   40MOL0     C 5292  12.766   9.862   1.772 -0.7145 -0.3667  0.8424
   40MOL0     C 5293  12.855   9.957   1.718  0.2958 -0.3395 -0.6093
   40MOL0     C 5294  12.993   9.966   1.776  0.7880  0.7803 -0.0760
   40MOL0     O 5295  13.061  10.084   1.749 -0.2565 -0.1476 -0.1597
   40MOL0     C 5296  13.194  10.095   1.779  0.2953  0.5716 -0.8782
   40MOL0     C 5297  13.289  10.012   1.724  0.3751 -0.8612  0.1183
   40MOL0     C 5298  13.423  10.035   1.761  0.0706  0.1757 -0.2343
   40MOL0     C 5299  13.454  10.124   1.866 -0.8114  0.0571 -0.5398
   40MOL0     O 5300  13.581  10.138   1.910 -0.0894  0.6897 -0.0124
   40MOL0     C 5301  13.650  10.015   1.947 -0.0047  0.3145  0.9230
   40MOL0     C 5302  13.767  10.061   2.034  0.3517 -0.4294 -0.3439
   40MOL0     C 5303  13.862  10.159   1.960 -0.6191  0.3546  0.6321
   40MOL0     C 5304  13.915  10.266   2.053  0.7650  0.1808 -0.2845
   40MOL0     C 5305  14.024  10.350   1.982  0.5087  0.3122  0.4314
   40MOL0     C 5306  14.151  10.266   1.970  0.2646  0.3441 -0.2337
   40MOL0     C 5307  14.257  10.366   1.921 -0.0280  0.1206 -0.2933
   40MOL0     C 5308  14.393  10.295   1.970  0.0958 -0.2143 -0.6372
   40MOL0    Cl 5309  14.521  10.413   1.911 -0.1853 -0.3552 -0.3507
   40MOL0     C 5310  13.350  10.212   1.915 -0.5242  0.3740 -1.0187
   40MOL0     C 5311  13.222  10.196   1.872 -0.4317  0.2640  0.2194
   40MOL0     O 5312  13.035   9.874   1.843  0.3600 -0.6723 -0.0980
   40MOL0     C 5313  12.800  10.048   1.621  0.0496  0.6939  0.4215
   40MOL0     C 5314  12.669  10.023   1.567  0.1440  0.1086 -0.2339
   40MOL0     N 5315  12.096   9.995   1.326 -0.5779  0.1461  0.2828
   40MOL0     N 5316  12.056  10.051   1.214 -0.8766  0.1059 -0.0843
   40MOL0     C 5317  11.166  10.918   1.118  0.0349 -0.7112  0.9532
   40MOL0     C 5318  11.054  10.893   1.189  0.0615 -0.0966  0.2851
   40MOL0     C 5319  10.588  10.838   1.241  0.1035  0.1762 -0.2330
   40MOL0     C 5320  10.570  10.699   1.286 -0.4271 -0.2443 -0.1413
   40MOL0     C 5321  10.459  10.659   1.354 -0.2624 -1.0207 -0.0564
   40MOL0     C 5322  10.349  10.740   1.369  0.6093  0.2195  1.0799
   40MOL0     O 5323  10.247  10.682   1.434  0.7767 -0.2744 -0.1629
   40MOL0     C 5324  10.114  10.708   1.383  0.4081 -0.5174  0.1152
   40MOL0     C 5325  10.020  10.782   1.492 -0.2295  0.3861 -0.0445
   40MOL0     C 5326   9.877  10.784   1.444 -0.3555  0.1026 -0.0442
   40MOL0     C 5327   9.813  10.639   1.468  0.6323 -0.2901 -0.0032
   40MOL0     C 5328   9.664  10.648   1.455 -0.8286 -0.3570  0.2549
   40MOL0     C 5329   9.546  10.672   1.457 -0.2970 -0.1347 -0.0724
   40MOL0     C 5330  10.359  10.875   1.322  0.2716  0.9320  0.6616
   40MOL0     C 5331  10.478  10.925   1.268 -0.2710  0.5928 -0.3000
   40MOL0     C 5332  10.483  11.078   1.258  0.4700 -0.3487 -0.5580
   40MOL0     H 5333  10.866  10.782   0.921 -1.1458  0.1972  1.4874
   40MOL0     H 5334  11.076  10.791   0.812  0.7667 -2.4570  0.9679
   40MOL0     H 5335  11.392  10.770   1.080  1.6146  0.7163 -0.1321
   40MOL0     H 5336  11.326  10.669   0.953 -1.1225  0.8333  1.7069
   40MOL0     H 5337  11.589  10.843   0.923  0.4312  0.8891 -2.8339
   40MOL0     H 5338  11.527  10.726   0.809 -0.5938 -2.4656  0.7376
   40MOL0     H 5339  11.593  10.674   1.100  1.4753 -0.1926 -0.1951
   40MOL0     H 5340  11.713  10.652   0.971 -0.1701 -0.8526 -0.7800
   40MOL0     H 5341  11.466  10.472   0.996  0.7008 -1.3460 -2.4038
   40MOL0     H 5342  11.588  10.472   0.872 -1.1260 -0.1535 -0.3250
   40MOL0     H 5343  11.751  10.448   1.057 -0.0081 -1.3557  0.7047
   40MOL0     H 5344  11.634  10.446   1.180  2.5008  0.8132 -0.0320
   40MOL0     H 5345  11.519  10.250   1.061 -1.0127  1.1730 -2.4040
   40MOL0     H 5346  11.656  10.256   0.947  0.4269 -2.2004  0.8315
   40MOL0     H 5347  11.687  10.082   1.128  2.4061  0.3498 -0.6922
   40MOL0     H 5348  11.685  10.205   1.253  0.5784  1.5796  0.6698
   40MOL0     H 5349  11.910  10.171   1.040 -1.5262  1.0163 -1.6883
   40MOL0     H 5350  11.894  10.306   1.161 -1.7266 -0.0777  2.6656
   40MOL0     H 5351  11.825  10.138   1.430  1.3099 -3.6238  3.8171
   40MOL0     H 5352  11.959  10.060   1.617  1.7457  0.2458  1.2908
   40MOL0     H 5353  11.960   9.893   1.598  1.6795 -1.0543 -0.3623
   40MOL0     H 5354  12.221  10.063   1.587 -0.7314  0.2038  1.6279
   40MOL0     H 5355  12.147   9.977   1.731 -0.7402  0.5343  0.6145
   40MOL0     H 5356  12.249   9.858   1.461  0.5463 -2.2024  0.9802
   40MOL0     H 5357  12.175   9.775   1.593 -0.4266  0.7565  1.2336
   40MOL0     H 5358  12.398   9.737   1.606 -1.2617 -0.8785 -1.6159
   40MOL0     H 5359  12.353   9.859   1.735  0.0202  0.8506  0.5610
   40MOL0     H 5360  12.575   9.770   1.752 -1.7525  2.1567  1.6688
   40MOL0     H 5361  12.791   9.796   1.855 -2.2639 -1.0942  0.7741
   40MOL0     H 5362  13.263   9.939   1.649 -1.3774  1.0198 -1.2160
   40MOL0     H 5363  13.497   9.967   1.720 -1.5561 -1.3551 -0.7879
   40MOL0     H 5364  13.593   9.951   2.014  0.6438 -1.4966 -0.1701
   40MOL0     H 5365  13.685   9.958   1.860  1.3478  1.7144  0.4898
   40MOL0     H 5366  13.716  10.103   2.122  0.4757 -0.1772 -0.3928
   40MOL0     H 5367  13.822   9.978   2.078 -1.1643 -2.2414 -1.6849
   40MOL0     H 5368  13.945  10.098   1.923 -0.9189 -0.4935  1.3331
   40MOL0     H 5369  13.818  10.202   1.869 -0.1976  0.8700  0.6630
   40MOL0     H 5370  13.948  10.230   2.151  1.5903  0.7058 -0.3549
   40MOL0     H 5371  13.828  10.329   2.068  0.4017 -0.4616  0.3445
   40MOL0     H 5372  14.044  10.430   2.054 -1.0924  1.4149 -0.2935
   40MOL0     H 5373  13.987  10.396   1.890  2.2668  1.1535  0.1032
   40MOL0     H 5374  14.181  10.219   2.064  1.0958  0.3994 -0.4648
   40MOL0     H 5375  14.145  10.189   1.892  1.1676 -1.1149  1.0737
   40MOL0     H 5376  14.247  10.466   1.964  0.8824  0.4376 -0.8090
   40MOL0     H 5377  14.249  10.376   1.813 -0.0954  1.6139 -0.1680
   40MOL0     H 5378  14.393  10.298   2.080  3.3571  0.8567 -0.5366
   40MOL0     H 5379  14.414  10.193   1.937 -1.2552 -1.2913  1.6083
   40MOL0     H 5380  13.388  10.287   1.983  1.2903  1.0555 -2.6979
   40MOL0     H 5381  13.135  10.260   1.882 -3.1597 -2.3101 -3.9388
   40MOL0     H 5382  12.860  10.126   1.576  1.2579 -1.3466 -1.7365
   40MOL0     H 5383  12.640  10.094   1.490 -0.3210  1.5249  1.1995
   40MOL0     H 5384  11.243  10.981   1.160 -0.7279  3.2360 -2.8028
   40MOL0     H 5385  11.040  10.917   1.294 -4.3594 -2.6790  0.5361
   40MOL0     H 5386  10.655  10.633   1.276  2.0635  2.8685 -1.5274
   40MOL0     H 5387  10.442  10.567   1.409 -2.3292 -1.2150 -0.9063
   40MOL0     H 5388  10.060  10.621   1.346  0.3177  0.3617 -1.9710
   40MOL0     H 5389  10.120  10.762   1.287 -0.2608 -2.4079 -1.0393
   40MOL0     H 5390  10.058  10.884   1.503  0.0418  0.3177 -0.3428
   40MOL0     H 5391  10.033  10.734   1.590  4.7029  1.5490  0.1753
   40MOL0     H 5392   9.880  10.808   1.338 -1.9831 -1.3669 -0.4732
   40MOL0     H 5393   9.823  10.857   1.505 -1.7134 -0.1135 -0.9366
   40MOL0     H 5394   9.849  10.572   1.390  1.9003 -0.9539  1.1117
   40MOL0     H 5395   9.844  10.608   1.569  0.7549  2.2061  0.8107
   40MOL0     H 5396   9.441  10.695   1.464 -0.2402  1.6192 -3.1568
   40MOL0     H 5397  10.275  10.943   1.317  0.4316  1.0785 -0.4781
   40MOL0     H 5398  10.561  11.121   1.323 -1.8111 -0.4870  2.5236
   40MOL0     H 5399  10.508  11.113   1.158 -2.0132  0.0576 -1.0977
   40MOL0     H 5400  10.391  11.129   1.288  0.8049 -0.7675  1.3679
   41MOL0     O 5401   3.602   0.900   1.355  0.0944  0.3566  1.0252
   41MOL0     C 5402   3.553   0.946   1.453  0.2400  0.7696 -0.7830
   41MOL0     O 5403   3.620   1.017   1.548  0.3144 -1.0715 -0.7119
   41MOL0     C 5404   3.749   1.027   1.553  0.5085 -0.2235 -0.4940
   41MOL0     C 5405   3.802   1.133   1.633  0.1807 -0.2962 -0.2936
   41MOL0     C 5406   3.938   1.159   1.654  0.2368  1.0771  0.0910
   41MOL0     C 5407   4.027   1.076   1.583  0.0531  0.3607 -0.1054
   41MOL0     O 5408   4.161   1.100   1.575  0.4869  0.8457 -0.8957
   41MOL0     C 5409   4.227   1.168   1.678 -0.2323  0.1862 -0.4251
   41MOL0     C 5410   4.373   1.164   1.648 -0.3977  0.1261  1.0526
   41MOL0     C 5411   4.427   1.028   1.697 -0.1461  0.4765 -0.2846
   41MOL0     C 5412   4.392   0.911   1.604  0.2773  0.0433  0.5489
   41MOL0     C 5413   4.495   0.804   1.595  0.1222  0.4352  0.5168
   41MOL0     C 5414   4.422   0.673   1.552  0.0382  0.4837 -0.3565
   41MOL0     C 5415   4.531   0.562   1.547  1.1168  0.3642  1.1411
   41MOL0     C 5416   4.552   0.503   1.684 -0.8150  1.0610  0.0272
   41MOL0     N 5417   4.674   0.419   1.688  0.2969 -0.5781 -0.1006
   41MOL0     C 5418   4.716   0.328   1.598 -0.1804 -0.6003  0.2895
   41MOL0     C 5419   4.835   0.286   1.644  0.4143 -0.0239 -0.2064
   41MOL0     C 5420   4.927   0.188   1.585  0.2112  0.2996  0.4982
   41MOL0     C 5421   4.984   0.218   1.440 -0.1197  1.1289  0.2288
   41MOL0     C 5422   5.081   0.337   1.453 -0.5861 -0.0289  0.9632
   41MOL0     C 5423   5.215   0.311   1.511 -0.3425  0.1614 -0.7524
   41MOL0     O 5424   5.268   0.196   1.438  0.5512 -0.0255 -0.4224
   41MOL0     C 5425   5.384   0.133   1.491  0.4201 -0.4653 -0.5718
   41MOL0     C 5426   5.422   0.144   1.622 -0.5049  0.1222  0.2738
   41MOL0     C 5427   5.546   0.091   1.663  0.5597 -0.2308 -0.0542
   41MOL0     C 5428   5.626   0.014   1.579  1.1399  0.4475  0.8071
   41MOL0     C 5429   5.733  -0.069   1.631 -0.8687 -0.6585 -0.4901
   41MOL0     O 5430   5.779  -0.049   1.756  0.2741 -0.2555 -0.3604
   41MOL0     C 5431   5.900  -0.105   1.792 -0.1336  0.0800  0.3104
   41MOL0     C 5432   6.020  -0.085   1.724 -0.2201  0.8216 -0.9015
   41MOL0     C 5433   6.128  -0.166   1.756 -0.3880  0.2117 -0.6628
   41MOL0     C 5434   6.139  -0.249   1.865 -0.6121  0.2117  0.3797
   41MOL0     O 5435   6.258  -0.314   1.889  0.6996  0.6784 -0.4919
   41MOL0     C 5436   6.384  -0.277   1.822 -0.2528  0.6193 -0.2149
   41MOL0     C 5437   6.505  -0.382   1.848 -0.0386 -0.5664 -0.8601
   41MOL0     C 5438   6.650  -0.331   1.824 -0.6739 -0.4739  0.5647
   41MOL0     C 5439   6.756  -0.441   1.854 -0.4444  0.4809 -0.1271
   41MOL0     C 5440   6.895  -0.379   1.836  0.0704  0.1949 -0.3224
   41MOL0     C 5441   7.002  -0.478   1.875  0.6334 -0.2138  0.4770
   41MOL0     C 5442   7.150  -0.432   1.859  0.5651 -0.5989 -0.2145
   41MOL0     C 5443   7.190  -0.438   1.720 -0.0066 -0.2281  0.6430
   41MOL0    Cl 5444   7.211  -0.609   1.675  0.2107  0.1718 -0.1861
   41MOL0     C 5445   6.022  -0.272   1.938  0.1959 -0.1365  0.5156
   41MOL0     C 5446   5.904  -0.198   1.901 -0.4652 -0.5210 -0.4985
   41MOL0     O 5447   5.775  -0.162   1.562 -0.0124  0.2674 -0.2004
   41MOL0     C 5448   5.588   0.008   1.445 -0.5209 -0.5846 -0.2528
   41MOL0     C 5449   5.472   0.072   1.403  0.6646  0.0296  0.0656
   41MOL0     N 5450   4.865   0.349   1.753  1.5235 -0.3134  0.6258
   41MOL0     N 5451   4.779   0.431   1.775 -0.5455 -0.1004 -0.0933
   41MOL0     C 5452   3.983   0.969   1.507  0.0172 -0.1687  0.1693
   41MOL0     C 5453   3.851   0.946   1.492 -0.0862 -0.3173 -0.2364
   41MOL0     C 5454   3.403   0.927   1.478  0.3000  0.2924  0.4823
   41MOL0     C 5455   3.337   1.002   1.577 -0.4518 -0.3873  0.2978
   41MOL0     C 5456   3.204   0.972   1.611 -0.1235  0.6900  0.3147
   41MOL0     C 5457   3.131   0.883   1.538  0.3460  0.0180 -0.1146
   41MOL0     O 5458   2.995   0.872   1.574 -0.0781  0.6915 -0.3112
   41MOL0     C 5459   2.901   0.947   1.493 -0.1912  0.4829  0.0330
   41MOL0     C 5460   2.764   0.920   1.536 -0.1316 -0.0025 -0.1150
   41MOL0     C 5461   2.721   0.778   1.485 -0.3460 -0.2323 -0.3942
   41MOL0     C 5462   2.580   0.736   1.522 -0.6044  0.6880  0.4292
   41MOL0     C 5463   2.489   0.808   1.438  0.1345 -0.3061  0.1466
   41MOL0     C 5464   2.425   0.884   1.367  0.4814 -0.2247  0.6995
   41MOL0     C 5465   3.190   0.812   1.428  0.5685 -0.4313 -0.0943
   41MOL0     C 5466   3.324   0.825   1.406 -0.1839 -0.4119 -0.2354
   41MOL0     C 5467   3.373   0.742   1.289 -0.0166 -0.2191  0.9984
   41MOL0     H 5468   3.741   1.204   1.688 -0.3063 -1.4079  0.6495
   41MOL0     H 5469   3.977   1.240   1.714  1.2289  0.0340  0.8968
   41MOL0     H 5470   4.192   1.272   1.678 -2.4134 -0.2927  4.1581
   41MOL0     H 5471   4.209   1.133   1.780 -0.8163 -1.1999 -0.9779
   41MOL0     H 5472   4.410   1.244   1.713 -0.2359  1.1190 -0.2030
   41MOL0     H 5473   4.397   1.190   1.544  0.8740 -0.7246  1.1114
   41MOL0     H 5474   4.390   1.009   1.798  2.7903 -1.0736  0.6306
   41MOL0     H 5475   4.535   1.030   1.710  0.0244  3.7540 -1.3939
   41MOL0     H 5476   4.308   0.867   1.659  0.4538  0.5407  1.2211
   41MOL0     H 5477   4.365   0.952   1.507 -2.0121 -0.6951  0.7914
   41MOL0     H 5478   4.569   0.825   1.518 -0.4342  0.4435 -0.0226
   41MOL0     H 5479   4.544   0.799   1.693  0.8062  0.1114  0.1671
   41MOL0     H 5480   4.349   0.647   1.629  1.7016 -0.7816  0.8691
   41MOL0     H 5481   4.372   0.680   1.455  2.0400 -1.1134 -1.5773
   41MOL0     H 5482   4.620   0.605   1.499  0.9565 -1.1444 -0.6163
   41MOL0     H 5483   4.488   0.484   1.484  2.6338  0.1349  0.3627
   41MOL0     H 5484   4.565   0.580   1.761  1.9227  2.1430 -1.3708
   41MOL0     H 5485   4.469   0.437   1.707  0.7842 -1.0113  0.1598
   41MOL0     H 5486   4.652   0.297   1.516 -0.9908  1.4878  0.0667
   41MOL0     H 5487   5.011   0.163   1.649 -0.7227  0.3304  1.7699
   41MOL0     H 5488   4.866   0.098   1.570 -0.1572  0.3654  1.5206
   41MOL0     H 5489   5.035   0.128   1.404  0.7391  0.8584  1.9741
   41MOL0     H 5490   4.902   0.247   1.374 -0.8656  0.7723  0.9778
   41MOL0     H 5491   5.041   0.421   1.511 -0.8376 -0.3941  1.3184
   41MOL0     H 5492   5.097   0.378   1.352  0.1270 -1.8867  0.2869
   41MOL0     H 5493   5.201   0.285   1.617  1.1233  1.0141 -0.3283
   41MOL0     H 5494   5.282   0.396   1.506 -1.9832  1.8782  2.6509
   41MOL0     H 5495   5.357   0.191   1.695  1.1298  1.3395  1.0317
   41MOL0     H 5496   5.578   0.113   1.764  1.5785 -1.2379 -0.1304
   41MOL0     H 5497   6.030  -0.013   1.643  2.3868  2.0326  0.3520
   41MOL0     H 5498   6.214  -0.129   1.702 -1.1411  4.7348  0.8670
   41MOL0     H 5499   6.371  -0.277   1.714  0.9206 -1.7277 -0.4271
   41MOL0     H 5500   6.422  -0.185   1.867 -0.2991 -0.7143  2.8371
   41MOL0     H 5501   6.479  -0.416   1.949 -5.2485 -0.6446 -1.9303
   41MOL0     H 5502   6.479  -0.462   1.778 -2.5409  0.3144 -1.0512
   41MOL0     H 5503   6.650  -0.306   1.717 -1.3397  0.0147  0.6755
   41MOL0     H 5504   6.650  -0.242   1.888 -2.5615 -1.7024  2.4157
   41MOL0     H 5505   6.744  -0.522   1.782 -0.9002 -1.8971  2.4751
   41MOL0     H 5506   6.730  -0.490   1.948 -0.5802  0.6595 -0.0719
   41MOL0     H 5507   6.898  -0.284   1.891 -1.8000 -0.9712  1.9436
   41MOL0     H 5508   6.909  -0.346   1.732 -0.1028  1.5935  0.0715
   41MOL0     H 5509   6.987  -0.500   1.982  1.0846 -1.1942  0.3569
   41MOL0     H 5510   6.973  -0.571   1.825 -2.2787  0.3178  1.0218
   41MOL0     H 5511   7.218  -0.504   1.905  0.7955 -1.1427 -1.3555
   41MOL0     H 5512   7.160  -0.334   1.906  1.5055  0.0599 -1.6895
   41MOL0     H 5513   7.119  -0.390   1.652  2.3267 -0.8442 -2.4870
   41MOL0     H 5514   7.282  -0.380   1.707 -0.7943  1.0961  0.7858
   41MOL0     H 5515   6.019  -0.340   2.023 -1.1221 -2.1888 -1.0551
   41MOL0     H 5516   5.810  -0.193   1.954 -1.0275  1.7198 -1.5747
   41MOL0     H 5517   5.654  -0.047   1.379  2.3038  2.5048 -0.2564
   41MOL0     H 5518   5.436   0.061   1.301  2.0587  1.1294 -0.5879
   41MOL0     H 5519   4.052   0.907   1.451  2.0775  0.4063  1.8882
   41MOL0     H 5520   3.807   0.862   1.439 -0.5523 -1.1298  1.3600
   41MOL0     H 5521   3.389   1.081   1.632 -1.1657 -0.6536  1.3823
   41MOL0     H 5522   3.149   1.025   1.689  0.8342  0.9814  0.8062
   41MOL0     H 5523   2.916   0.930   1.386 -0.8961  1.9992 -0.3298
   41MOL0     H 5524   2.912   1.054   1.513 -2.2943  1.0208 -1.3524
   41MOL0     H 5525   2.698   0.995   1.491 -0.5397 -0.1126  0.2919
   41MOL0     H 5526   2.763   0.920   1.645  3.9607  0.9026  0.0859
   41MOL0     H 5527   2.791   0.714   1.540  2.3364  3.0780  0.3541
   41MOL0     H 5528   2.735   0.767   1.377  0.2940 -0.0525 -0.3338
   41MOL0     H 5529   2.569   0.629   1.503  0.7446  0.4849  0.7057
   41MOL0     H 5530   2.555   0.759   1.626 -0.8532  0.9428  0.3147
   41MOL0     H 5531   2.377   0.950   1.298 -0.1005 -1.6069 -0.2458
   41MOL0     H 5532   3.127   0.743   1.373 -1.0997 -1.0401  2.3916
   41MOL0     H 5533   3.295   0.674   1.254 -0.8079  2.7057 -3.7814
   41MOL0     H 5534   3.387   0.805   1.201  1.7997 -0.9302  0.7351
   41MOL0     H 5535   3.472   0.698   1.308 -0.1819  0.2084  3.1156
   42MOL0     O 5536  11.096   7.503   1.299  0.6023 -0.4500  0.5755
   42MOL0     C 5537  11.166   7.444   1.374 -0.8185 -0.0169 -0.0254
   42MOL0     O 5538  11.299   7.419   1.356 -0.3796  0.6498 -0.6641
   42MOL0     C 5539  11.362   7.470   1.248 -0.3029  0.1766 -0.3389
   42MOL0     C 5540  11.423   7.375   1.164  0.0225  0.6286  0.5595
   42MOL0     C 5541  11.499   7.417   1.053  0.2237  0.8571 -0.1889
   42MOL0     C 5542  11.519   7.550   1.022 -0.4761 -0.7962 -0.4979
   42MOL0     O 5543  11.590   7.584   0.908  0.7166 -0.7191  0.3032
   42MOL0     C 5544  11.728   7.612   0.919 -0.4340  0.8208  0.5359
   42MOL0     C 5545  11.781   7.679   0.796  0.3730  0.4785  0.5173
   42MOL0     C 5546  11.936   7.680   0.795 -0.6213 -0.0065 -0.5525
   42MOL0     C 5547  11.996   7.814   0.848 -0.1331 -0.8072 -0.6990
   42MOL0     C 5548  12.149   7.828   0.849 -0.0862  0.4626 -0.2815
   42MOL0     C 5549  12.186   7.965   0.782 -0.1950  0.1303  0.1267
   42MOL0     C 5550  12.155   8.073   0.878 -0.1137  1.1793  0.1052
   42MOL0     C 5551  12.237   8.090   1.011  0.1890 -0.0596  0.1134
   42MOL0     N 5552  12.385   8.101   0.991  0.6970  0.1555  0.0408
   42MOL0     C 5553  12.482   8.047   1.068  0.4610 -0.5910 -1.0256
   42MOL0     C 5554  12.594   8.089   1.014  0.3609 -0.5420  0.6228
   42MOL0     C 5555  12.726   8.078   1.081 -0.3382 -0.2166  0.1503
   42MOL0     C 5556  12.760   7.934   1.104 -0.3317  0.0895 -0.6994
   42MOL0     C 5557  12.893   7.911   1.182 -0.4207 -1.5347  0.3501
   42MOL0     C 5558  13.009   7.957   1.097  0.2931  0.4823  0.5756
   42MOL0     O 5559  13.116   7.987   1.181  0.7771  0.8542  0.1894
   42MOL0     C 5560  13.235   8.030   1.126  0.3627  0.5969  0.2794
   42MOL0     C 5561  13.263   8.048   0.989  0.0411 -0.2636 -0.5806
   42MOL0     C 5562  13.389   8.092   0.951 -0.0325  0.0510 -0.2502
   42MOL0     C 5563  13.492   8.107   1.047  0.2401  0.6199  0.1334
   42MOL0     C 5564  13.630   8.131   1.006  0.3942 -0.5750 -0.6418
   42MOL0     O 5565  13.652   8.124   0.868  0.2418  0.3952  0.3556
   42MOL0     C 5566  13.772   8.155   0.821 -0.6676  0.1189  0.6436
   42MOL0     C 5567  13.868   8.055   0.825 -1.1754  0.2655 -0.6841
   42MOL0     C 5568  14.000   8.078   0.784  0.2849  0.1130  0.3892
   42MOL0     C 5569  14.030   8.205   0.736 -0.0649 -1.3323  0.6516
   42MOL0     O 5570  14.163   8.210   0.689  0.1909 -0.8988 -0.6116
   42MOL0     C 5571  14.205   8.338   0.646  0.2088 -0.4203 -1.4592
   42MOL0     C 5572  14.343   8.332   0.596  0.0796 -0.1054 -0.4691
   42MOL0     C 5573  14.397   8.460   0.538  0.0084  0.1629  0.6212
   42MOL0     C 5574  14.542   8.455   0.477 -0.2873 -0.1682 -0.3645
   42MOL0     C 5575  14.579   8.576   0.388  0.4844  0.5168 -0.6333
   42MOL0     C 5576  14.736   8.560   0.355  0.5251  0.3486  0.2816
   42MOL0     C 5577  14.780   8.663   0.247 -0.4165 -0.3386 -0.0941
   42MOL0     C 5578  14.910   8.616   0.177 -0.6685  0.1256 -0.2175
   42MOL0    Cl 5579  14.882   8.483   0.053  0.3578  0.2823  0.1702
   42MOL0     C 5580  13.926   8.308   0.718 -0.5173  0.9599  0.0046
   42MOL0     C 5581  13.795   8.283   0.765 -0.2587  0.9704 -0.5001
   42MOL0     O 5582  13.714   8.147   1.092 -0.2121 -0.4563 -0.1975
   42MOL0     C 5583  13.461   8.078   1.178  0.2875  0.0844  0.0035
   42MOL0     C 5584  13.336   8.037   1.217  0.0983  0.3231 -0.2888
   42MOL0     N 5585  12.567   8.169   0.903 -0.4173 -1.0108 -0.2042
   42MOL0     N 5586  12.439   8.185   0.900  0.0270  0.2299  0.1312
   42MOL0     C 5587  11.462   7.648   1.108  0.1002  0.8676 -0.4365
   42MOL0     C 5588  11.386   7.605   1.218  0.8496  0.1612  0.3393
   42MOL0     C 5589  11.111   7.398   1.500 -0.1398 -1.1716  0.6187
   42MOL0     C 5590  11.176   7.291   1.561  0.4730  0.1678  0.3358
   42MOL0     C 5591  11.148   7.258   1.697 -0.5099  0.6254  0.1933
   42MOL0     C 5592  11.044   7.310   1.764 -0.5234 -0.8911 -0.5304
   42MOL0     O 5593  11.023   7.273   1.895  0.0428 -0.5844 -0.7611
   42MOL0     C 5594  10.908   7.318   1.974 -0.1078  0.0491 -0.0984
   42MOL0     C 5595  10.948   7.413   2.086 -0.3276  0.4647 -0.1760
   42MOL0     C 5596  11.035   7.541   2.042 -0.6308 -0.5073 -1.0113
   42MOL0     C 5597  11.034   7.656   2.151 -1.0431  0.0969  0.8408
   42MOL0     C 5598  11.140   7.747   2.123 -0.0098  0.1928  0.2931
   42MOL0     C 5599  11.240   7.821   2.123  0.2697  0.5122  0.2685
   42MOL0     C 5600  10.984   7.412   1.698 -0.8842  0.5283 -0.1734
   42MOL0     C 5601  11.003   7.460   1.568 -0.1650 -0.2697  0.1119
   42MOL0     C 5602  10.907   7.566   1.518  0.1210 -0.4191  0.4970
   42MOL0     H 5603  11.418   7.269   1.186  0.6672  0.7256  1.2388
   42MOL0     H 5604  11.545   7.336   0.999  0.4670  1.0023 -0.2003
   42MOL0     H 5605  11.757   7.667   1.009 -2.7920  0.7262  1.4238
   42MOL0     H 5606  11.786   7.520   0.932 -1.3525  0.3521  1.4128
   42MOL0     H 5607  11.737   7.778   0.790  1.2329  0.8855  0.7650
   42MOL0     H 5608  11.754   7.618   0.709  0.3733  1.8158 -0.4453
   42MOL0     H 5609  11.969   7.657   0.693 -2.0131  0.0465 -1.0278
   42MOL0     H 5610  11.982   7.600   0.854 -1.6282 -0.7525 -0.7499
   42MOL0     H 5611  11.949   7.898   0.796 -0.0582 -0.8807 -0.8857
   42MOL0     H 5612  11.960   7.827   0.950  2.4845  1.0496  0.1043
   42MOL0     H 5613  12.178   7.811   0.953  3.5755 -0.1354 -1.2494
   42MOL0     H 5614  12.189   7.743   0.793 -0.4028 -0.7369  1.2628
   42MOL0     H 5615  12.293   7.972   0.760  0.9619 -1.1493  4.4431
   42MOL0     H 5616  12.130   7.967   0.688  3.0315 -1.1130 -2.0000
   42MOL0     H 5617  12.049   8.056   0.897  0.2755 -0.9435  0.6220
   42MOL0     H 5618  12.154   8.158   0.808 -0.3388  0.8112 -0.3450
   42MOL0     H 5619  12.210   8.185   1.058 -2.2252 -0.1009 -1.0137
   42MOL0     H 5620  12.206   8.010   1.079  0.2447  1.4304  1.9842
   42MOL0     H 5621  12.477   8.004   1.168 -0.0065  1.4342 -0.1060
   42MOL0     H 5622  12.802   8.120   1.015 -0.1073 -1.1439 -0.1857
   42MOL0     H 5623  12.725   8.129   1.178  3.7274  1.1148 -0.3036
   42MOL0     H 5624  12.679   7.905   1.171  1.6359 -0.8630  1.4350
   42MOL0     H 5625  12.778   7.895   1.003  0.5155  1.1284 -0.9760
   42MOL0     H 5626  12.910   7.815   1.231  0.5571  0.0895  3.4825
   42MOL0     H 5627  12.889   7.983   1.264 -3.1691 -0.3754 -0.7114
   42MOL0     H 5628  12.986   8.037   1.026  1.2461 -0.0475 -0.3758
   42MOL0     H 5629  13.028   7.872   1.030 -0.8861 -0.4918  1.4307
   42MOL0     H 5630  13.179   8.040   0.920 -0.3129 -1.4535 -0.0410
   42MOL0     H 5631  13.410   8.100   0.845 -0.3755  0.3395 -0.2981
   42MOL0     H 5632  13.846   7.958   0.868 -1.4560  1.2022  1.4159
   42MOL0     H 5633  14.083   8.008   0.791  1.0553 -0.1309 -5.7487
   42MOL0     H 5634  14.148   8.376   0.560  1.2430 -1.6314 -2.7307
   42MOL0     H 5635  14.191   8.391   0.741 -1.2306  0.1950 -1.9807
   42MOL0     H 5636  14.404   8.306   0.683  2.0135 -1.4099 -2.1216
   42MOL0     H 5637  14.342   8.253   0.521  2.0592  0.4953 -1.1704
   42MOL0     H 5638  14.325   8.499   0.466  2.3412  1.9582 -0.8927
   42MOL0     H 5639  14.399   8.534   0.618 -4.5974  0.1305  1.0436
   42MOL0     H 5640  14.546   8.358   0.427  0.3490  0.8233 -2.3263
   42MOL0     H 5641  14.621   8.461   0.553  0.3201  0.0503 -1.0066
   42MOL0     H 5642  14.552   8.659   0.454 -4.2101 -1.7727  0.8184
   42MOL0     H 5643  14.509   8.582   0.304 -2.5150  3.0946  1.8047
   42MOL0     H 5644  14.793   8.574   0.448 -1.1554  4.6446  0.9381
   42MOL0     H 5645  14.751   8.456   0.325  1.4254  0.2884  0.9037
   42MOL0     H 5646  14.808   8.757   0.296 -0.4752 -1.7533  2.8686
   42MOL0     H 5647  14.701   8.693   0.177 -0.9513  0.8858  0.9876
   42MOL0     H 5648  14.959   8.705   0.134  0.5115 -0.0164  0.7714
   42MOL0     H 5649  14.974   8.578   0.257 -0.3945 -0.4223 -0.6868
   42MOL0     H 5650  13.952   8.396   0.660 -0.3599  1.0481  0.2071
   42MOL0     H 5651  13.700   8.334   0.755 -1.1229 -0.8924 -2.4762
   42MOL0     H 5652  13.535   8.080   1.257 -2.4006 -0.3061  2.7429
   42MOL0     H 5653  13.314   8.035   1.323 -1.0322 -0.3895 -0.5187
   42MOL0     H 5654  11.472   7.754   1.088 -0.5901  0.7448 -1.5124
   42MOL0     H 5655  11.345   7.680   1.285 -0.0883  0.2029 -0.2672
   42MOL0     H 5656  11.254   7.241   1.504 -1.1015  0.2163 -2.0099
   42MOL0     H 5657  11.208   7.178   1.740 -0.1528  0.8653  0.1484
   42MOL0     H 5658  10.864   7.230   2.021  1.2270 -0.0469  1.0547
   42MOL0     H 5659  10.834   7.368   1.911 -0.6526 -1.6641 -0.8824
   42MOL0     H 5660  11.025   7.368   2.149  0.0028  0.4167 -0.6120
   42MOL0     H 5661  10.859   7.432   2.146 -0.5874 -0.9776 -0.0567
   42MOL0     H 5662  10.994   7.583   1.949 -1.2238  0.2888 -0.4063
   42MOL0     H 5663  11.137   7.513   2.014 -0.2474  1.1627 -1.3826
   42MOL0     H 5664  10.932   7.695   2.150 -1.6888 -1.4490  2.0953
   42MOL0     H 5665  11.048   7.615   2.251 -2.0253 -2.1662  0.1155
   42MOL0     H 5666  11.324   7.882   2.150 -1.4002  3.1531 -0.0613
   42MOL0     H 5667  10.900   7.456   1.751  0.2060 -0.3486  2.4618
   42MOL0     H 5668  10.840   7.546   1.435 -0.5655  1.0520  0.6599
   42MOL0     H 5669  10.838   7.597   1.597 -0.1546  0.8335 -0.2095
   42MOL0     H 5670  10.965   7.657   1.496  0.9325 -0.6331  1.6333
   43MOL0     O 5671   9.650   7.894   2.427 -0.1732  0.1691 -0.0346
   43MOL0     C 5672   9.589   7.962   2.507  0.0079 -0.6989  0.0494
   43MOL0     O 5673   9.658   8.040   2.597 -0.2548 -0.1945  0.1696
   43MOL0     C 5674   9.797   8.048   2.588  0.2592 -0.4872  1.1324
   43MOL0     C 5675   9.841   8.181   2.613 -0.5013 -0.0639  0.2450
   43MOL0     C 5676   9.984   8.212   2.607  0.2509 -0.1029 -1.0935
   43MOL0     C 5677  10.082   8.114   2.570  0.9526  0.4740  0.0182
   43MOL0     O 5678  10.217   8.134   2.588 -0.1019  0.4630  0.1575
   43MOL0     C 5679  10.308   8.044   2.522 -0.2324 -0.3076 -0.6858
   43MOL0     C 5680  10.439   8.123   2.509 -0.6568 -1.0090  0.1460
   43MOL0     C 5681  10.562   8.054   2.452 -1.1308  0.3283  1.1000
   43MOL0     C 5682  10.696   8.127   2.497 -0.9933 -0.1579  0.6191
   43MOL0     C 5683  10.813   8.089   2.404 -0.2304 -0.5770  0.0166
   43MOL0     C 5684  10.829   8.170   2.274  0.1825 -0.6700 -0.4507
   43MOL0     C 5685  10.905   8.090   2.171 -0.6935 -0.9315 -0.0662
   43MOL0     C 5686  10.904   8.147   2.034 -0.5618 -0.1877  0.9745
   43MOL0     N 5687  11.010   8.250   2.023  0.7676 -0.5331  0.3150
   43MOL0     C 5688  11.012   8.348   1.926 -0.6251  0.1607  0.1117
   43MOL0     C 5689  11.136   8.399   1.927  0.6063  0.5194 -0.6809
   43MOL0     C 5690  11.187   8.508   1.836 -0.3325  0.4681  0.1001
   43MOL0     C 5691  11.338   8.489   1.793  0.4825  1.3042  0.7648
   43MOL0     C 5692  11.403   8.610   1.731 -0.3969  0.1202 -0.1023
   43MOL0     C 5693  11.552   8.586   1.690 -0.2768 -0.0620  0.2937
   43MOL0     O 5694  11.639   8.584   1.805  0.5322  0.1300 -0.5799
   43MOL0     C 5695  11.778   8.581   1.793  0.5595  0.0599  0.0731
   43MOL0     C 5696  11.851   8.631   1.899 -0.1014  0.8240  0.6560
   43MOL0     C 5697  11.987   8.617   1.902 -0.3627  0.5491 -0.5619
   43MOL0     C 5698  12.057   8.561   1.796 -0.2456 -0.2730 -0.4919
   43MOL0     C 5699  12.204   8.543   1.801  0.2589  0.4365 -0.1232
   43MOL0     O 5700  12.269   8.577   1.920 -0.1992  0.1180 -0.2284
   43MOL0     C 5701  12.395   8.526   1.953  0.3816 -0.0336  0.4371
   43MOL0     C 5702  12.453   8.409   1.906 -0.6725  0.3453  0.5760
   43MOL0     C 5703  12.586   8.375   1.948  0.2894 -0.6414 -0.5712
   43MOL0     C 5704  12.659   8.456   2.029 -0.2447 -0.2602 -0.2266
   43MOL0     O 5705  12.788   8.430   2.064 -0.4240 -0.2697 -0.0390
   43MOL0     C 5706  12.887   8.489   1.981 -0.7177  0.5012 -0.2212
   43MOL0     C 5707  13.028   8.469   2.045  0.5621  0.6714  0.8390
   43MOL0     C 5708  13.122   8.505   1.936  0.1868 -0.2039  0.1905
   43MOL0     C 5709  13.260   8.460   1.984 -0.0321 -0.1129 -0.7162
   43MOL0     C 5710  13.375   8.519   1.905 -0.3599  0.8720 -0.9156
   43MOL0     C 5711  13.502   8.552   1.989 -0.8276 -0.0468  0.0963
   43MOL0     C 5712  13.617   8.560   1.895 -0.5271  0.5307 -0.2147
   43MOL0     C 5713  13.748   8.561   1.968  0.2159 -0.1337 -0.5545
   43MOL0    Cl 5714  13.771   8.720   2.048 -0.3909  0.1589  0.2086
   43MOL0     C 5715  12.594   8.575   2.070 -1.4811  0.2821 -0.4505
   43MOL0     C 5716  12.469   8.608   2.028  0.4733 -0.1263 -0.4049
   43MOL0     O 5717  12.249   8.518   1.689 -0.5117 -0.0564  0.1527
   43MOL0     C 5718  11.987   8.514   1.683 -0.4717  0.7479 -0.1449
   43MOL0     C 5719  11.845   8.520   1.692  1.0187 -0.2039  0.6093
   43MOL0     N 5720  11.215   8.321   2.016 -1.1427 -0.3340 -0.5449
   43MOL0     N 5721  11.137   8.229   2.070  0.0808  0.3149  0.6180
   43MOL0     C 5722  10.030   7.979   2.555 -0.5490 -0.5546  0.2865
   43MOL0     C 5723   9.891   7.954   2.558 -0.6858  0.3887  0.2975
   43MOL0     C 5724   9.444   7.935   2.531 -0.5148 -0.3890 -0.6772
   43MOL0     C 5725   9.406   7.953   2.666 -0.0029  1.1188 -0.0199
   43MOL0     C 5726   9.277   7.940   2.701  0.3881 -0.0993  0.3370
   43MOL0     C 5727   9.182   7.910   2.607 -0.0166  0.2602 -0.0587
   43MOL0     O 5728   9.055   7.901   2.657  0.1176 -0.0276 -0.0380
   43MOL0     C 5729   8.946   7.833   2.584 -0.4659 -0.4559 -0.5543
   43MOL0     C 5730   8.986   7.679   2.595 -1.1532 -1.1687  0.0767
   43MOL0     C 5731   8.914   7.604   2.484  0.1071  0.4179  0.2220
   43MOL0     C 5732   8.762   7.626   2.472 -0.2394  0.2480  0.3007
   43MOL0     C 5733   8.708   7.526   2.384  0.6088 -0.6885  0.7547
   43MOL0     C 5734   8.684   7.438   2.307  0.2222  0.6788 -0.0274
   43MOL0     C 5735   9.219   7.885   2.475 -0.2570  1.1455  0.0832
   43MOL0     C 5736   9.348   7.896   2.434  0.6786  0.4699  0.1293
   43MOL0     C 5737   9.381   7.903   2.291 -0.2010 -0.3575 -0.7302
   43MOL0     H 5738   9.766   8.251   2.649 -0.7950 -0.5900  0.6737
   43MOL0     H 5739  10.015   8.309   2.643 -2.3494 -0.1248  1.5761
   43MOL0     H 5740  10.324   7.972   2.602 -2.5371  2.1325  2.2375
   43MOL0     H 5741  10.291   8.013   2.418  2.7752 -0.8166 -1.1051
   43MOL0     H 5742  10.450   8.166   2.609 -2.9660  2.5340 -0.9196
   43MOL0     H 5743  10.425   8.214   2.450 -0.2216 -0.2818  1.1251
   43MOL0     H 5744  10.542   8.060   2.345 -2.6231  1.3825  1.4115
   43MOL0     H 5745  10.553   7.951   2.486 -1.9401 -0.2472 -0.7461
   43MOL0     H 5746  10.690   8.236   2.490  0.1168 -0.1529 -0.3939
   43MOL0     H 5747  10.715   8.105   2.603  1.6576 -3.0419 -0.2977
   43MOL0     H 5748  10.909   8.101   2.455 -0.3299  1.2415 -0.1593
   43MOL0     H 5749  10.791   7.985   2.379 -2.3675  0.0991 -1.1679
   43MOL0     H 5750  10.736   8.212   2.235  0.5352  0.2359 -0.3409
   43MOL0     H 5751  10.867   8.269   2.300 -0.8108 -0.1688 -0.8559
   43MOL0     H 5752  10.860   7.991   2.156  0.7484 -1.9184  1.6900
   43MOL0     H 5753  11.008   8.060   2.194 -0.1331  0.2491 -0.9772
   43MOL0     H 5754  10.907   8.083   1.946 -1.3214  1.8964 -0.6530
   43MOL0     H 5755  10.808   8.199   2.030  1.3859  3.7267  0.8136
   43MOL0     H 5756  10.940   8.377   1.850 -0.2923 -0.5551 -0.4891
   43MOL0     H 5757  11.135   8.498   1.740 -0.4025  0.2847  0.1565
   43MOL0     H 5758  11.177   8.604   1.887  1.9992  0.9735 -0.2799
   43MOL0     H 5759  11.397   8.473   1.884  1.1857 -2.7547 -0.2368
   43MOL0     H 5760  11.356   8.401   1.731 -2.4447 -0.5343  2.3292
   43MOL0     H 5761  11.402   8.689   1.807 -2.5372  1.9213 -1.8753
   43MOL0     H 5762  11.341   8.642   1.647 -0.5416 -0.9679 -0.4276
   43MOL0     H 5763  11.582   8.651   1.607 -3.6663 -0.2444 -1.2338
   43MOL0     H 5764  11.559   8.490   1.637  0.0503 -0.9090  1.8162
   43MOL0     H 5765  11.803   8.682   1.982  3.2416  4.1666  0.7700
   43MOL0     H 5766  12.027   8.666   1.991  1.8085  2.2190 -2.3512
   43MOL0     H 5767  12.396   8.336   1.849  0.2744  0.2840 -0.3336
   43MOL0     H 5768  12.645   8.290   1.915  1.0986  0.2201 -1.4175
   43MOL0     H 5769  12.882   8.427   1.891  1.0534 -0.0437  0.0080
   43MOL0     H 5770  12.857   8.592   1.959 -0.1100  0.6658 -0.2891
   43MOL0     H 5771  13.047   8.530   2.133  0.2135 -2.3704  3.1645
   43MOL0     H 5772  13.044   8.365   2.075  2.3490  1.1516  1.6938
   43MOL0     H 5773  13.097   8.456   1.841  0.2026 -0.1676  0.1677
   43MOL0     H 5774  13.117   8.613   1.925 -1.7382 -0.4765 -2.9000
   43MOL0     H 5775  13.259   8.351   1.976 -0.8296 -0.3350  1.7355
   43MOL0     H 5776  13.272   8.479   2.091  1.9174 -1.3647 -0.6562
   43MOL0     H 5777  13.335   8.611   1.861 -2.1307  0.8481  0.5348
   43MOL0     H 5778  13.403   8.442   1.832  1.3706 -1.8515  2.3422
   43MOL0     H 5779  13.488   8.651   2.033 -1.0305 -0.7079  1.5902
   43MOL0     H 5780  13.518   8.476   2.066 -2.2173 -0.5977 -0.1179
   43MOL0     H 5781  13.614   8.648   1.830  0.1679  1.5727  1.0955
   43MOL0     H 5782  13.616   8.476   1.825 -1.2416  2.3690 -2.5381
   43MOL0     H 5783  13.756   8.481   2.042  2.0041  1.4714  1.0933
   43MOL0     H 5784  13.826   8.537   1.895  1.9156 -1.2569  1.5145
   43MOL0     H 5785  12.652   8.632   2.142  0.1764  0.6878 -2.0173
   43MOL0     H 5786  12.420   8.699   2.064  1.3090  0.6193 -1.1040
   43MOL0     H 5787  12.044   8.470   1.602  1.5831  1.0235  1.0828
   43MOL0     H 5788  11.787   8.471   1.615  1.3376 -0.8316  0.7674
   43MOL0     H 5789  10.095   7.897   2.527  1.9599  0.8508  1.6354
   43MOL0     H 5790   9.863   7.850   2.556 -1.5857  0.6323  0.0951
   43MOL0     H 5791   9.474   7.988   2.743 -1.0281  1.9520  0.5447
   43MOL0     H 5792   9.242   7.943   2.804  1.4914  2.1390  0.7178
   43MOL0     H 5793   8.945   7.863   2.479  0.4776 -0.9210 -0.7052
   43MOL0     H 5794   8.845   7.857   2.618 -0.5846 -0.4858 -0.8846
   43MOL0     H 5795   8.962   7.633   2.691 -0.0346 -2.3733 -0.1906
   43MOL0     H 5796   9.093   7.660   2.584 -0.1409  1.3633  3.6546
   43MOL0     H 5797   8.930   7.499   2.508  0.2618  0.3836 -0.0257
   43MOL0     H 5798   8.957   7.622   2.385 -2.2400 -1.6888 -1.2976
   43MOL0     H 5799   8.710   7.619   2.568  0.6686 -0.0240  0.7853
   43MOL0     H 5800   8.746   7.728   2.436 -0.5390 -0.3677 -1.4263
   43MOL0     H 5801   8.658   7.350   2.253  0.8235  0.7334 -0.4021
   43MOL0     H 5802   9.141   7.871   2.401  0.3548 -0.0093 -0.3583
   43MOL0     H 5803   9.434   7.997   2.272 -2.7520  1.3092 -0.2153
   43MOL0     H 5804   9.444   7.819   2.262  0.1693 -0.9234  1.5515
   43MOL0     H 5805   9.291   7.907   2.228 -0.0076 -2.0648 -1.1550
   44MOL0     O 5806   1.085   7.242   4.523 -0.4102 -0.0635  0.1337
   44MOL0     C 5807   1.027   7.292   4.612 -0.4420  0.2870 -0.6562
   44MOL0     O 5808   1.082   7.342   4.729  0.5129 -0.7347  0.4486
   44MOL0     C 5809   1.222   7.334   4.738 -0.1516 -0.0402  0.2036
   44MOL0     C 5810   1.305   7.413   4.664  0.2009 -0.0689  0.0494
   44MOL0     C 5811   1.446   7.423   4.676 -0.5621 -0.5592 -0.1735
   44MOL0     C 5812   1.505   7.346   4.778 -0.0094 -0.4850  0.1625
   44MOL0     O 5813   1.644   7.352   4.785  0.0050  0.2445 -0.4098
   44MOL0     C 5814   1.726   7.305   4.674 -0.3108  0.4449  0.3664
   44MOL0     C 5815   1.784   7.173   4.717 -0.9186  0.2049  0.2244
   44MOL0     C 5816   1.870   7.126   4.593 -0.1544  0.1999  0.2715
   44MOL0     C 5817   1.935   6.988   4.624 -0.4934  0.5203  0.0050
   44MOL0     C 5818   1.996   6.939   4.492 -0.3363  0.6638  0.0428
   44MOL0     C 5819   2.086   6.824   4.516 -0.0856  0.1039 -0.2063
   44MOL0     C 5820   2.008   6.693   4.508 -0.4321  0.5720 -0.6512
   44MOL0     C 5821   2.071   6.576   4.589  0.5177  0.2126 -0.7338
   44MOL0     N 5822   2.104   6.602   4.734 -0.4259  0.1943  0.3922
   44MOL0     C 5823   2.030   6.575   4.852 -0.3754  0.2216  0.3200
   44MOL0     C 5824   2.120   6.617   4.944  0.0827  0.0063 -0.5450
   44MOL0     C 5825   2.122   6.603   5.092 -0.1325 -0.5488  0.9195
   44MOL0     C 5826   2.243   6.522   5.137  0.6363 -1.2178  0.3532
   44MOL0     C 5827   2.270   6.548   5.287  0.4032  0.2202  0.3890
   44MOL0     C 5828   2.395   6.499   5.338 -0.5554  0.5537  0.1914
   44MOL0     O 5829   2.410   6.366   5.288  0.2174  0.1606  0.4186
   44MOL0     C 5830   2.534   6.302   5.285 -0.1313 -0.4869 -0.1981
   44MOL0     C 5831   2.648   6.358   5.344  0.8702  0.7508 -1.7432
   44MOL0     C 5832   2.769   6.295   5.340  0.0187  0.6676  0.0430
   44MOL0     C 5833   2.788   6.166   5.285  0.8285 -0.1760  0.1992
   44MOL0     C 5834   2.923   6.100   5.290  0.0766  0.1414 -0.5650
   44MOL0     O 5835   3.018   6.158   5.371  0.7221 -0.1024  0.2579
   44MOL0     C 5836   3.148   6.099   5.373  0.5764 -0.2271  0.0170
   44MOL0     C 5837   3.222   6.065   5.256 -0.4451 -0.7146  0.0742
   44MOL0     C 5838   3.331   5.980   5.265 -0.3452  0.7867 -0.0739
   44MOL0     C 5839   3.377   5.944   5.392 -0.1624  0.6554  0.4461
   44MOL0     O 5840   3.494   5.868   5.412 -0.1086 -0.4866  0.5483
   44MOL0     C 5841   3.541   5.790   5.306 -0.2876  0.2577  0.2456
   44MOL0     C 5842   3.639   5.686   5.362  0.5149  1.2551  0.1581
   44MOL0     C 5843   3.759   5.757   5.432  0.0732  0.7737  0.3855
   44MOL0     C 5844   3.886   5.665   5.452 -0.1785 -0.1083 -0.5749
   44MOL0     C 5845   3.998   5.722   5.531 -0.6003  0.0519 -0.2268
   44MOL0     C 5846   3.963   5.749   5.680 -0.7740 -0.7313  0.8142
   44MOL0     C 5847   4.054   5.853   5.754 -0.2372 -0.1168 -0.2042
   44MOL0     C 5848   4.213   5.830   5.749  0.1816 -0.2646 -0.7827
   44MOL0    Cl 5849   4.277   5.728   5.868  0.3093 -0.2564 -0.1375
   44MOL0     C 5850   3.309   5.987   5.508 -0.5580  0.3247 -0.2659
   44MOL0     C 5851   3.193   6.067   5.499 -0.3489  0.8056 -0.2328
   44MOL0     O 5852   2.941   6.002   5.214  0.1983  0.6081 -0.4343
   44MOL0     C 5853   2.674   6.110   5.224 -0.7622  0.1943 -0.3568
   44MOL0     C 5854   2.551   6.177   5.217  0.2167  0.0765 -0.2746
   44MOL0     N 5855   2.229   6.680   4.889  0.3256 -0.2414  0.7384
   44MOL0     N 5856   2.226   6.659   4.761  0.1975 -0.8389 -0.0549
   44MOL0     C 5857   1.428   7.264   4.859  0.5871  0.7867  0.6768
   44MOL0     C 5858   1.291   7.258   4.841 -0.5472  0.5390  0.7732
   44MOL0     C 5859   0.881   7.274   4.600  0.2539  0.4664  0.2455
   44MOL0     C 5860   0.797   7.344   4.690  0.2765 -0.0827 -0.4294
   44MOL0     C 5861   0.658   7.340   4.678 -0.3691 -0.2999 -0.0717
   44MOL0     C 5862   0.595   7.273   4.583  1.1539  0.0526  0.6658
   44MOL0     O 5863   0.454   7.271   4.586 -0.7996  0.1619 -0.1216
   44MOL0     C 5864   0.394   7.185   4.486 -0.1839 -0.3766  0.1400
   44MOL0     C 5865   0.236   7.179   4.478 -0.1640 -0.0974  0.5055
   44MOL0     C 5866   0.189   7.077   4.360 -0.1750  0.0732 -1.2458
   44MOL0     C 5867   0.187   7.143   4.220 -0.1450  0.0465  0.0294
   44MOL0     C 5868   0.073   7.245   4.223  0.4171  0.8130 -0.7171
   44MOL0     C 5869  -0.013   7.324   4.224  0.5908 -0.2640 -0.1884
   44MOL0     C 5870   0.670   7.207   4.491  0.4147 -0.4345  0.1041
   44MOL0     C 5871   0.810   7.208   4.493 -0.5540  0.6347  0.7424
   44MOL0     C 5872   0.879   7.111   4.400  0.0515 -0.8526 -0.0087
   44MOL0     H 5873   1.268   7.479   4.587  0.9392 -1.3668 -1.4677
   44MOL0     H 5874   1.513   7.487   4.618  0.6216 -0.2057  1.5162
   44MOL0     H 5875   1.665   7.294   4.585 -1.3857  0.7232  1.0484
   44MOL0     H 5876   1.814   7.368   4.656  1.8363 -2.1292  1.1970
   44MOL0     H 5877   1.706   7.101   4.741  0.9021 -1.8116  0.4083
   44MOL0     H 5878   1.849   7.195   4.803  0.8343  3.0772 -1.6452
   44MOL0     H 5879   1.946   7.195   4.557  1.7230 -0.9461  1.8538
   44MOL0     H 5880   1.808   7.106   4.505 -0.0838  1.2088 -0.0199
   44MOL0     H 5881   2.011   7.000   4.701  2.1452  1.3721 -2.5302
   44MOL0     H 5882   1.854   6.917   4.644  1.1856 -1.8367 -1.0372
   44MOL0     H 5883   1.928   6.915   4.410  0.1304 -0.7755  0.0298
   44MOL0     H 5884   2.063   7.014   4.450 -0.0536 -0.9962 -2.7901
   44MOL0     H 5885   2.168   6.821   4.443  0.1740 -4.3642  0.0094
   44MOL0     H 5886   2.131   6.827   4.616 -0.6951  1.2279  0.0456
   44MOL0     H 5887   1.997   6.656   4.406 -1.8515 -1.8000  0.2737
   44MOL0     H 5888   1.911   6.711   4.556  0.7301 -0.6547  2.4043
   44MOL0     H 5889   2.008   6.487   4.582 -0.2196  0.6954 -0.4037
   44MOL0     H 5890   2.161   6.541   4.537 -0.9370  0.0567 -3.2678
   44MOL0     H 5891   1.927   6.542   4.861 -0.7377  0.4117 -2.4604
   44MOL0     H 5892   2.122   6.701   5.140  0.9144 -1.7246  3.4600
   44MOL0     H 5893   2.035   6.543   5.121 -1.2519  0.7354  0.3188
   44MOL0     H 5894   2.225   6.417   5.113 -0.3374 -0.5090 -2.3732
   44MOL0     H 5895   2.336   6.557   5.091  0.1917  0.2675  0.5576
   44MOL0     H 5896   2.190   6.507   5.349  0.6904  0.9664  1.2795
   44MOL0     H 5897   2.268   6.657   5.289  0.2552  0.3288 -2.1973
   44MOL0     H 5898   2.379   6.487   5.445 -2.7734 -0.9540 -0.2644
   44MOL0     H 5899   2.475   6.570   5.313 -0.9009  1.1369  0.7314
   44MOL0     H 5900   2.643   6.445   5.408  0.1067 -0.2036 -0.4399
   44MOL0     H 5901   2.859   6.334   5.387  0.5365 -3.0784  2.5772
   44MOL0     H 5902   3.178   6.100   5.164 -2.5515  1.1348  1.6835
   44MOL0     H 5903   3.383   5.965   5.171  0.7476 -0.8935  0.7351
   44MOL0     H 5904   3.457   5.742   5.254  0.1875  1.4497 -1.7122
   44MOL0     H 5905   3.593   5.862   5.242 -3.5929  1.2444 -1.5683
   44MOL0     H 5906   3.586   5.613   5.424  0.0585  0.9075 -0.6329
   44MOL0     H 5907   3.671   5.634   5.271  0.2821  1.4579 -0.0407
   44MOL0     H 5908   3.795   5.852   5.392  0.6901  0.9504  1.3085
   44MOL0     H 5909   3.717   5.790   5.527  0.8169 -0.3787  1.1509
   44MOL0     H 5910   3.916   5.632   5.352 -0.5068  0.5324 -0.8870
   44MOL0     H 5911   3.867   5.567   5.497 -2.4845  0.2155 -0.7226
   44MOL0     H 5912   4.016   5.815   5.476  0.7176  0.9347  1.5960
   44MOL0     H 5913   4.085   5.656   5.535  0.1917  0.9677 -1.6914
   44MOL0     H 5914   3.866   5.800   5.683 -0.1346  0.8132 -1.7080
   44MOL0     H 5915   3.960   5.651   5.729 -0.5850  0.2598  2.9154
   44MOL0     H 5916   4.013   5.860   5.855 -0.5488 -1.2094 -0.2444
   44MOL0     H 5917   4.036   5.946   5.698 -0.0004  0.7145  1.0723
   44MOL0     H 5918   4.234   5.792   5.649  3.4773  0.0535 -0.3250
   44MOL0     H 5919   4.260   5.929   5.759 -1.0856  0.2724  0.1860
   44MOL0     H 5920   3.343   5.946   5.602 -2.2137  0.5839  0.4776
   44MOL0     H 5921   3.123   6.077   5.582 -0.0404  0.4381  0.0726
   44MOL0     H 5922   2.694   6.012   5.181  1.1994  0.9961 -1.3732
   44MOL0     H 5923   2.461   6.127   5.181 -0.2942 -0.5036  1.6797
   44MOL0     H 5924   1.475   7.200   4.933  1.0159  0.6608  0.3036
   44MOL0     H 5925   1.214   7.217   4.906 -3.2504 -0.0673 -2.5009
   44MOL0     H 5926   0.831   7.420   4.759 -1.9209 -0.9796  1.8268
   44MOL0     H 5927   0.598   7.402   4.745 -1.0031 -1.3983  0.4194
   44MOL0     H 5928   0.421   7.081   4.506 -0.3263 -1.2758 -3.6367
   44MOL0     H 5929   0.423   7.220   4.387 -0.7083  0.8478  0.3985
   44MOL0     H 5930   0.210   7.279   4.441  1.4662 -0.2559 -1.2362
   44MOL0     H 5931   0.190   7.148   4.572  0.9891 -1.3513  0.6797
   44MOL0     H 5932   0.090   7.039   4.387 -0.4136  2.0646  0.9881
   44MOL0     H 5933   0.259   6.993   4.354  0.1520  0.3735 -1.6972
   44MOL0     H 5934   0.288   7.178   4.197  0.6090 -1.5073  0.8379
   44MOL0     H 5935   0.169   7.062   4.149  1.1464 -2.5741  2.4641
   44MOL0     H 5936  -0.090   7.397   4.233  2.0133  1.3884 -0.8050
   44MOL0     H 5937   0.623   7.141   4.418 -0.7119  1.8793 -1.3836
   44MOL0     H 5938   0.887   7.166   4.306  0.3664 -1.8416 -0.5680
   44MOL0     H 5939   0.968   7.059   4.435  1.1901 -1.7318 -3.8380
   44MOL0     H 5940   0.808   7.032   4.375  0.4923 -0.5338 -2.5422
   45MOL0     O 5941   1.618  11.109   0.513  0.5734 -0.4574 -1.0051
   45MOL0     C 5942   1.572  11.132   0.402  0.5655  0.3231 -0.4938
   45MOL0     O 5943   1.636  11.186   0.296 -0.4493  0.3435  0.3823
   45MOL0     C 5944   1.770  11.215   0.316 -0.0749 -0.2708 -0.5786
   45MOL0     C 5945   1.816  11.276   0.441 -0.4356 -1.4663  0.5773
   45MOL0     C 5946   1.954  11.301   0.462 -0.4510 -0.5297  0.3414
   45MOL0     C 5947   2.048  11.253   0.370  0.2983 -0.4016  0.0450
   45MOL0     O 5948   2.181  11.268   0.390  0.2725 -0.1344  0.2056
   45MOL0     C 5949   2.227  11.403   0.427  0.6114  0.2907  1.2692
   45MOL0     C 5950   2.343  11.392   0.530  0.1619 -1.3591 -0.1983
   45MOL0     C 5951   2.396  11.536   0.578 -0.5275  0.0352 -0.0548
   45MOL0     C 5952   2.541  11.525   0.622 -0.1908 -0.1401 -0.5089
   45MOL0     C 5953   2.578  11.623   0.733  0.2080 -0.0934  0.3910
   45MOL0     C 5954   2.703  11.582   0.813  0.1424 -0.3916 -0.4345
   45MOL0     C 5955   2.835  11.638   0.752 -0.4880 -0.8543  0.5489
   45MOL0     C 5956   2.962  11.600   0.832 -0.1110 -0.5499 -0.6244
   45MOL0     N 5957   2.987  11.663   0.967 -0.2440 -0.7573  0.9497
   45MOL0     C 5958   2.923  11.615   1.082 -0.4905 -0.0321 -0.7097
   45MOL0     C 5959   2.973  11.697   1.181 -0.4885  0.8794 -0.1330
   45MOL0     C 5960   2.934  11.710   1.324 -0.0594  0.1152  0.1851
   45MOL0     C 5961   3.026  11.633   1.416  0.2393  0.3474  0.4950
   45MOL0     C 5962   3.171  11.677   1.420 -0.0850  0.6614  0.0985
   45MOL0     C 5963   3.237  11.630   1.555  0.0781  0.4201  0.6754
   45MOL0     O 5964   3.269  11.486   1.552  0.6542 -0.6813 -0.7052
   45MOL0     C 5965   3.348  11.443   1.656 -0.0735 -0.0934  0.0328
   45MOL0     C 5966   3.446  11.518   1.718 -0.5342  0.2132  0.2806
   45MOL0     C 5967   3.523  11.480   1.826  0.4067  0.2746 -0.3959
   45MOL0     C 5968   3.503  11.348   1.871  0.1886 -0.5287 -0.7723
   45MOL0     C 5969   3.581  11.300   1.987 -0.2508  0.1570  0.1172
   45MOL0     O 5970   3.691  11.373   2.034 -0.2230 -0.4123 -0.1601
   45MOL0     C 5971   3.770  11.334   2.135  0.5365 -0.2509 -0.3733
   45MOL0     C 5972   3.857  11.436   2.183 -0.7248  0.0321  0.3008
   45MOL0     C 5973   3.954  11.418   2.285  0.4165  0.8820  0.1464
   45MOL0     C 5974   3.968  11.295   2.339  1.2468  0.0121 -0.3947
   45MOL0     O 5975   4.040  11.262   2.448  0.0110 -0.5097  0.0979
   45MOL0     C 5976   4.114  11.359   2.517 -0.5427  0.8196  0.3428
   45MOL0     C 5977   4.195  11.303   2.636 -0.8520  0.1008 -0.0157
   45MOL0     C 5978   4.292  11.199   2.584 -0.1691  0.5610 -0.1460
   45MOL0     C 5979   4.399  11.144   2.678 -0.1271 -0.3646 -0.1020
   45MOL0     C 5980   4.500  11.065   2.596  0.7225  0.4105 -0.1764
   45MOL0     C 5981   4.612  11.014   2.684  0.0447  0.5293  0.0454
   45MOL0     C 5982   4.720  10.943   2.614 -0.5218  0.2344  0.2006
   45MOL0     C 5983   4.822  10.882   2.708 -0.3793  0.0615  0.2212
   45MOL0    Cl 5984   4.745  10.732   2.791 -0.0314 -0.1878  0.0060
   45MOL0     C 5985   3.888  11.189   2.293 -0.4562  0.4393  0.7530
   45MOL0     C 5986   3.793  11.205   2.188  0.0176  0.3016  0.0440
   45MOL0     O 5987   3.538  11.195   2.028 -0.2713  0.1726 -0.2207
   45MOL0     C 5988   3.406  11.268   1.800  0.1188  0.1500 -0.0280
   45MOL0     C 5989   3.335  11.307   1.692 -0.6977  0.0373 -0.3395
   45MOL0     N 5990   3.065  11.786   1.120 -1.1921 -0.7553  0.0694
   45MOL0     N 5991   3.074  11.764   0.995  0.5083 -0.6232 -0.2503
   45MOL0     C 5992   2.002  11.198   0.248  0.1638 -0.9451 -0.5114
   45MOL0     C 5993   1.864  11.181   0.217  0.3083  0.2099  0.1390
   45MOL0     C 5994   1.429  11.086   0.386  0.0154 -0.1950 -0.9059
   45MOL0     C 5995   1.384  10.978   0.462  0.9070  0.2010 -0.2744
   45MOL0     C 5996   1.252  10.931   0.445  0.6080 -0.7182  0.2712
   45MOL0     C 5997   1.164  10.993   0.350  0.2049  0.4277 -0.9198
   45MOL0     O 5998   1.035  10.948   0.325 -0.2575  0.1485 -0.4430
   45MOL0     C 5999   1.006  10.817   0.381 -0.5353 -0.2369 -0.7350
   45MOL0     C 6000   0.870  10.773   0.344  1.2127  0.6177 -0.2307
   45MOL0     C 6001   0.864  10.708   0.200 -0.1219  0.3464 -0.4660
   45MOL0     C 6002   0.735  10.645   0.176  0.0835  0.1202  0.5256
   45MOL0     C 6003   0.620  10.740   0.185 -0.0346  0.3231 -0.5148
   45MOL0     C 6004   0.514  10.798   0.180  0.3595  0.2001  0.3443
   45MOL0     C 6005   1.211  11.102   0.272  0.0853 -0.4282 -0.6230
   45MOL0     C 6006   1.346  11.146   0.291  0.2655  0.0812  0.4059
   45MOL0     C 6007   1.384  11.257   0.196 -1.1692  0.4064  0.3225
   45MOL0     H 6008   1.746  11.314   0.515 -0.3889  2.2348 -1.0160
   45MOL0     H 6009   1.991  11.351   0.551 -1.2731  1.4260 -0.3681
   45MOL0     H 6010   2.263  11.457   0.338  3.5382 -0.2352  2.0334
   45MOL0     H 6011   2.148  11.464   0.470 -1.1394 -1.4997  0.7246
   45MOL0     H 6012   2.428  11.336   0.490  1.0159 -1.9603  2.2787
   45MOL0     H 6013   2.316  11.330   0.616 -0.4767 -2.2944 -1.0423
   45MOL0     H 6014   2.347  11.550   0.675  0.1306 -2.2486  0.6791
   45MOL0     H 6015   2.371  11.620   0.513 -1.3514  0.4393  0.7736
   45MOL0     H 6016   2.567  11.426   0.659 -1.8265 -0.1323  0.7858
   45MOL0     H 6017   2.604  11.555   0.538 -1.7042  0.6516 -1.4063
   45MOL0     H 6018   2.589  11.727   0.700  0.8594 -0.6787 -1.3318
   45MOL0     H 6019   2.492  11.643   0.798 -1.9582 -1.2328 -1.9383
   45MOL0     H 6020   2.696  11.619   0.916 -0.5329 -1.8541  0.0799
   45MOL0     H 6021   2.706  11.473   0.828  1.3507 -0.3689 -0.4648
   45MOL0     H 6022   2.836  11.748   0.745  1.2513 -0.9328 -1.3117
   45MOL0     H 6023   2.845  11.595   0.652  1.6737 -2.2895  1.3196
   45MOL0     H 6024   2.962  11.492   0.850  0.2620 -0.0641  3.0447
   45MOL0     H 6025   3.042  11.627   0.761  1.7615  0.8208  1.8388
   45MOL0     H 6026   2.854  11.532   1.072  0.6011 -0.7927 -2.3695
   45MOL0     H 6027   2.939  11.812   1.364  1.5634  0.0103  0.3375
   45MOL0     H 6028   2.829  11.687   1.343 -0.2926  0.8102 -0.2211
   45MOL0     H 6029   2.979  11.626   1.515 -0.3161 -5.0507  0.1859
   45MOL0     H 6030   3.019  11.532   1.375  1.4771  0.2665  0.4501
   45MOL0     H 6031   3.181  11.785   1.409 -1.9524  0.7650 -0.9795
   45MOL0     H 6032   3.222  11.641   1.330  0.3351 -0.9862  0.9560
   45MOL0     H 6033   3.166  11.637   1.638 -0.9296  0.2947 -0.1525
   45MOL0     H 6034   3.324  11.694   1.572  0.2022  0.0653  1.4185
   45MOL0     H 6035   3.464  11.625   1.704  3.0257 -0.5175 -2.1167
   45MOL0     H 6036   3.600  11.544   1.867  0.5611  0.8977 -1.5829
   45MOL0     H 6037   3.861  11.532   2.133  4.0769 -0.5478 -0.8593
   45MOL0     H 6038   4.003  11.511   2.311  0.2010  1.0224  0.0601
   45MOL0     H 6039   4.184  11.399   2.444 -0.0831  0.4544  0.5749
   45MOL0     H 6040   4.049  11.441   2.550  0.5270  1.4042  1.0794
   45MOL0     H 6041   4.253  11.385   2.679 -2.5541  1.6186 -0.4933
   45MOL0     H 6042   4.125  11.262   2.709  0.0185  0.3151  0.9550
   45MOL0     H 6043   4.251  11.111   2.533  2.1312  0.7539 -2.5748
   45MOL0     H 6044   4.345  11.248   2.501 -0.2084  1.5445  0.3978
   45MOL0     H 6045   4.348  11.086   2.756 -0.2383 -2.1064 -1.4086
   45MOL0     H 6046   4.443  11.232   2.726 -0.4265 -0.2868  0.0412
   45MOL0     H 6047   4.551  11.128   2.522  1.8001 -1.9556 -1.5568
   45MOL0     H 6048   4.448  10.976   2.560  1.4835  0.1193 -0.5879
   45MOL0     H 6049   4.651  11.106   2.729 -2.2837  2.7037 -2.0307
   45MOL0     H 6050   4.566  10.946   2.755 -0.0872  0.6106  0.0380
   45MOL0     H 6051   4.766  11.007   2.539  0.9960  0.9103  1.6405
   45MOL0     H 6052   4.673  10.866   2.553 -1.2970 -0.5896  1.7679
   45MOL0     H 6053   4.908  10.842   2.654 -0.2473 -0.8340  1.0658
   45MOL0     H 6054   4.870  10.948   2.781  0.5439  0.4532 -0.7020
   45MOL0     H 6055   3.909  11.087   2.323  1.1642  0.6865  0.5061
   45MOL0     H 6056   3.734  11.117   2.164  0.3092 -0.4199  1.8659
   45MOL0     H 6057   3.385  11.166   1.831 -2.8631 -0.5227 -3.6342
   45MOL0     H 6058   3.275  11.233   1.640  2.8812 -1.3842 -2.9146
   45MOL0     H 6059   2.079  11.176   0.174  0.1795  3.3736 -2.0902
   45MOL0     H 6060   1.839  11.137   0.121 -2.6848  2.3424 -0.1984
   45MOL0     H 6061   1.450  10.928   0.533 -1.0644 -0.9602  0.8494
   45MOL0     H 6062   1.220  10.851   0.511 -2.6445  0.8994  0.8839
   45MOL0     H 6063   0.986  10.828   0.488 -2.8845 -0.8933 -1.0492
   45MOL0     H 6064   1.074  10.736   0.355 -0.1975  0.6807 -2.9310
   45MOL0     H 6065   0.802  10.859   0.339 -0.4665 -0.7091 -2.5241
   45MOL0     H 6066   0.832  10.705   0.421 -1.3359  1.5193 -0.5735
   45MOL0     H 6067   0.943  10.634   0.181  1.5841  2.5559 -2.6490
   45MOL0     H 6068   0.876  10.783   0.121  0.1606  0.4086 -0.3638
   45MOL0     H 6069   0.733  10.598   0.077  0.1900  3.0066 -0.9441
   45MOL0     H 6070   0.730  10.566   0.252  0.3364 -0.9508 -0.5328
   45MOL0     H 6071   0.422  10.853   0.174 -0.4014 -0.8156  2.1991
   45MOL0     H 6072   1.135  11.140   0.204  0.7172  2.9788  0.3927
   45MOL0     H 6073   1.458  11.327   0.235  0.7589 -0.4653 -1.5517
   45MOL0     H 6074   1.438  11.213   0.112 -2.1465  0.4069 -0.3173
   45MOL0     H 6075   1.297  11.315   0.164  0.3295  1.0174 -2.9678
   46MOL0     O 6076   0.600   4.651  10.246 -0.2572 -0.3501 -0.2833
   46MOL0     C 6077   0.666   4.754  10.205  0.1478  0.2324  0.0456
   46MOL0     O 6078   0.784   4.795  10.258  0.3214 -0.5837 -0.0907
   46MOL0     C 6079   0.866   4.712  10.324  0.4291 -0.6819  0.2269
   46MOL0     C 6080   0.897   4.589  10.261 -1.3233  0.2125 -0.6690
   46MOL0     C 6081   0.971   4.499  10.346  0.0737 -0.2467  0.8524
   46MOL0     C 6082   1.025   4.537  10.469 -0.3734  0.0059  0.1432
   46MOL0     O 6083   1.102   4.447  10.534 -0.3136 -0.1696  0.0336
   46MOL0     C 6084   1.061   4.399  10.660 -0.0290  0.2849  0.6727
   46MOL0     C 6085   1.057   4.252  10.650 -0.4197 -0.2544 -0.2793
   46MOL0     C 6086   0.940   4.199  10.562  0.6561  0.7837 -0.1903
   46MOL0     C 6087   0.977   4.061  10.501  0.2048  0.7414  0.9060
   46MOL0     C 6088   0.933   3.948  10.592  0.1219  0.1404 -0.1712
   46MOL0     C 6089   0.973   3.814  10.534 -0.7784 -0.2795 -0.5569
   46MOL0     C 6090   1.108   3.790  10.472 -0.1034  0.7096 -0.0235
   46MOL0     C 6091   1.118   3.653  10.403  0.3354 -0.1583 -0.4881
   46MOL0     N 6092   1.255   3.599  10.389 -0.1381  0.7589  0.6664
   46MOL0     C 6093   1.300   3.517  10.295 -0.0026  0.6415  1.2159
   46MOL0     C 6094   1.437   3.523  10.297  0.1336  1.3347  0.2747
   46MOL0     C 6095   1.548   3.436  10.224  0.8364 -0.7208  0.4115
   46MOL0     C 6096   1.553   3.493  10.081  0.1370  0.2903 -0.0985
   46MOL0     C 6097   1.686   3.465  10.012 -0.2683 -0.0900 -0.0072
   46MOL0     C 6098   1.702   3.316   9.978 -0.0291  0.4767 -0.0521
   46MOL0     O 6099   1.816   3.301   9.886  0.0858  0.0393 -1.0597
   46MOL0     C 6100   1.930   3.254   9.946  0.2079 -0.1050  0.0451
   46MOL0     C 6101   1.974   3.119   9.912  0.6861  0.0682  0.6108
   46MOL0     C 6102   2.085   3.069   9.977 -1.0557 -0.0934 -0.6256
   46MOL0     C 6103   2.150   3.138  10.078 -0.2266 -0.2659 -0.2203
   46MOL0     C 6104   2.256   3.078  10.161  0.4909  0.3289  1.1450
   46MOL0     O 6105   2.277   3.113  10.288  0.3489 -0.5765  0.1799
   46MOL0     C 6106   2.372   3.051  10.359  0.2614  0.8766 -0.7234
   46MOL0     C 6107   2.505   3.055  10.321 -0.2804  0.2211 -0.6215
   46MOL0     C 6108   2.605   2.975  10.376 -0.0731  0.6894 -0.6478
   46MOL0     C 6109   2.569   2.887  10.478 -0.4707  0.4496 -0.3997
   46MOL0     O 6110   2.674   2.817  10.539 -0.5319 -0.3329  0.3183
   46MOL0     C 6111   2.637   2.733  10.656 -0.3966  0.5380 -0.0978
   46MOL0     C 6112   2.763   2.668  10.730  0.4527  0.1181  1.1998
   46MOL0     C 6113   2.800   2.532  10.665 -0.0154  0.3650 -0.2236
   46MOL0     C 6114   2.886   2.457  10.769  0.5230  0.7888 -0.8580
   46MOL0     C 6115   2.955   2.348  10.691 -0.5089 -0.6445 -0.4328
   46MOL0     C 6116   3.037   2.254  10.777 -0.8618  0.6265 -0.7592
   46MOL0     C 6117   2.957   2.143  10.841 -0.3819 -0.1290 -0.2856
   46MOL0     C 6118   3.030   2.032  10.916 -0.7128  0.4753 -0.0452
   46MOL0    Cl 6119   3.142   1.953  10.805  0.2049 -0.1229  0.2644
   46MOL0     C 6120   2.433   2.892  10.524  0.9001  0.6942 -0.7401
   46MOL0     C 6121   2.335   2.966  10.465 -0.1258 -0.3335 -0.5578
   46MOL0     O 6122   2.324   3.001  10.092 -0.1317  0.0579  0.9267
   46MOL0     C 6123   2.101   3.264  10.117 -0.0093  0.2185 -0.2736
   46MOL0     C 6124   1.999   3.325  10.038  0.0931 -0.2388 -0.1298
   46MOL0     N 6125   1.471   3.605  10.397  0.5386 -0.0464  0.4153
   46MOL0     N 6126   1.366   3.641  10.455  0.1708  0.4968  0.4201
   46MOL0     C 6127   0.997   4.660  10.519  0.8058 -0.1927  0.1003
   46MOL0     C 6128   0.918   4.749  10.448  0.6190 -0.8768 -0.0197
   46MOL0     C 6129   0.602   4.830  10.100  0.6186 -0.5090 -0.0218
   46MOL0     C 6130   0.606   4.972  10.103  0.5241  0.8366  0.6592
   46MOL0     C 6131   0.525   5.053  10.024  0.3778  0.0453 -0.6415
   46MOL0     C 6132   0.436   4.990   9.937  0.4306 -0.3140 -0.1397
   46MOL0     O 6133   0.365   5.081   9.859  0.6773  0.1877 -0.0709
   46MOL0     C 6134   0.322   5.044   9.732 -0.3488  0.1777  0.1230
   46MOL0     C 6135   0.241   5.158   9.663 -0.5240 -0.7676 -0.4389
   46MOL0     C 6136   0.329   5.285   9.617 -0.2705  0.3715 -1.1594
   46MOL0     C 6137   0.422   5.338   9.723  0.0201 -0.2016 -0.5667
   46MOL0     C 6138   0.339   5.414   9.819 -0.0100  0.1722 -0.2202
   46MOL0     C 6139   0.273   5.489   9.885 -0.1265  0.0119 -0.3515
   46MOL0     C 6140   0.433   4.853   9.930  0.3200 -0.7091  0.4100
   46MOL0     C 6141   0.519   4.770  10.006 -0.3330  0.6288 -0.1999
   46MOL0     C 6142   0.509   4.624   9.974 -0.3174  0.0904  0.2929
   46MOL0     H 6143   0.858   4.536  10.175 -0.3084 -1.4960 -0.1273
   46MOL0     H 6144   0.987   4.398  10.309  1.1252  0.5825 -1.1283
   46MOL0     H 6145   1.126   4.431  10.743 -0.5277  0.0571  1.1591
   46MOL0     H 6146   0.959   4.436  10.677 -0.2790  0.2397 -0.6187
   46MOL0     H 6147   1.054   4.211  10.751 -0.0815  1.2811  0.3756
   46MOL0     H 6148   1.149   4.221  10.600 -0.9152 -2.9369  0.3204
   46MOL0     H 6149   0.909   4.269  10.482 -0.6644  0.0628 -0.3464
   46MOL0     H 6150   0.857   4.194  10.633  2.8321 -0.8337  2.4020
   46MOL0     H 6151   0.943   4.041  10.399  0.8815  1.4265  0.5353
   46MOL0     H 6152   1.086   4.061  10.488 -0.0377 -0.7853 -1.7959
   46MOL0     H 6153   0.977   3.973  10.689  0.8583 -1.6876 -0.0049
   46MOL0     H 6154   0.824   3.936  10.594  0.2925 -1.4660  0.9161
   46MOL0     H 6155   0.963   3.747  10.620 -3.5728 -0.4623 -0.9327
   46MOL0     H 6156   0.899   3.800  10.455 -0.1524  0.6688 -1.3380
   46MOL0     H 6157   1.180   3.806  10.553 -1.6536  1.5358  1.2549
   46MOL0     H 6158   1.125   3.868  10.397  0.8120  0.5634  0.0223
   46MOL0     H 6159   1.054   3.583  10.458  1.6257  0.2276  1.6551
   46MOL0     H 6160   1.072   3.673  10.306  0.0977  0.5069 -0.2435
   46MOL0     H 6161   1.242   3.453  10.230  1.8393  0.7213 -0.6027
   46MOL0     H 6162   1.647   3.448  10.269 -0.7534  0.6868  3.8436
   46MOL0     H 6163   1.531   3.328  10.229  1.3095 -0.8633 -0.6464
   46MOL0     H 6164   1.468   3.463  10.020  0.7508 -0.6944 -0.4959
   46MOL0     H 6165   1.556   3.602  10.088 -4.7586  0.8329 -2.2177
   46MOL0     H 6166   1.763   3.508  10.078 -0.9995  1.3830 -0.0593
   46MOL0     H 6167   1.689   3.533   9.926 -1.4292 -1.2340 -0.9682
   46MOL0     H 6168   1.616   3.284   9.918  2.0695 -2.3164 -1.8056
   46MOL0     H 6169   1.727   3.251  10.063 -0.3018 -1.0046 -1.0723
   46MOL0     H 6170   1.928   3.051   9.840 -0.0434 -0.3176  1.4302
   46MOL0     H 6171   2.114   2.968   9.953 -1.5677 -0.6633  1.0478
   46MOL0     H 6172   2.533   3.114  10.234  0.6870  0.5084 -0.1339
   46MOL0     H 6173   2.700   2.969  10.324 -0.1991 -0.0511 -0.8052
   46MOL0     H 6174   2.587   2.787  10.736 -1.3619 -1.9108  1.0565
   46MOL0     H 6175   2.569   2.652  10.626  1.3372 -1.6130  1.4604
   46MOL0     H 6176   2.853   2.728  10.748  1.3738 -1.2738  1.3555
   46MOL0     H 6177   2.729   2.645  10.831  0.7894 -2.2517  0.8306
   46MOL0     H 6178   2.708   2.479  10.638 -0.2806  1.5477 -1.7883
   46MOL0     H 6179   2.854   2.553  10.572 -0.8063 -2.2314 -1.3656
   46MOL0     H 6180   2.822   2.415  10.847 -0.4197  2.2723 -0.7976
   46MOL0     H 6181   2.963   2.516  10.819  0.7485  1.0723 -1.5207
   46MOL0     H 6182   3.013   2.392  10.610 -0.3290  1.3263  0.7060
   46MOL0     H 6183   2.885   2.282  10.639  0.4056 -1.1842 -1.0102
   46MOL0     H 6184   3.120   2.208  10.721  0.7531  0.4496  1.6320
   46MOL0     H 6185   3.087   2.308  10.858 -1.5965  0.9652 -0.5269
   46MOL0     H 6186   2.881   2.111  10.770 -0.0814 -2.2634  0.2729
   46MOL0     H 6187   2.903   2.198  10.918  0.6926  1.1043 -0.3781
   46MOL0     H 6188   3.082   2.059  11.009 -1.1717 -4.6278  2.0280
   46MOL0     H 6189   2.954   1.959  10.949  0.4597 -2.2335 -2.8323
   46MOL0     H 6190   2.411   2.827  10.609  1.1658 -0.5612 -1.6031
   46MOL0     H 6191   2.235   2.955  10.507  1.8526 -0.0763  5.0398
   46MOL0     H 6192   2.155   3.312  10.199 -1.1669  2.2158 -0.6158
   46MOL0     H 6193   1.969   3.423  10.073  0.9639 -0.5657  1.6544
   46MOL0     H 6194   1.047   4.695  10.609  0.2451  0.6368  0.1000
   46MOL0     H 6195   0.891   4.849  10.482 -0.3793 -0.1450 -2.6942
   46MOL0     H 6196   0.666   5.006  10.187  0.3086 -2.6077  2.3789
   46MOL0     H 6197   0.534   5.161  10.031  3.0710 -0.2065  1.1984
   46MOL0     H 6198   0.264   4.951   9.731  0.1692 -0.1608 -1.4682
   46MOL0     H 6199   0.402   5.014   9.664 -1.7273 -0.7411 -1.1822
   46MOL0     H 6200   0.174   5.191   9.743  0.6358  0.0272  0.2338
   46MOL0     H 6201   0.174   5.123   9.584 -0.2240  1.1316 -1.6069
   46MOL0     H 6202   0.267   5.364   9.574 -2.5171 -1.2949 -1.1220
   46MOL0     H 6203   0.395   5.253   9.536  1.0257 -0.3502  0.1246
   46MOL0     H 6204   0.487   5.265   9.774  1.0248  0.2899 -1.1038
   46MOL0     H 6205   0.488   5.416   9.684 -0.0195  0.1126 -0.0165
   46MOL0     H 6206   0.213   5.541   9.956 -0.4729 -2.0902  0.9696
   46MOL0     H 6207   0.368   4.804   9.859  0.4738 -0.4174  0.0650
   46MOL0     H 6208   0.610   4.590   9.949 -0.2549 -0.3157  1.0538
   46MOL0     H 6209   0.474   4.553  10.050  1.7198 -1.4050 -0.0789
   46MOL0     H 6210   0.435   4.607   9.895 -1.9453 -1.4803  2.0514
   47MOL0     O 6211   3.667   7.053   5.836  0.1809 -0.1848 -0.2054
   47MOL0     C 6212   3.719   7.137   5.758  0.5703  0.3340  0.1788
   47MOL0     O 6213   3.835   7.120   5.685  0.3804  0.5712 -0.3016
   47MOL0     C 6214   3.904   7.002   5.694  0.3445  0.7737  1.0149
   47MOL0     C 6215   4.038   7.008   5.734  0.0597 -0.3112  0.2937
   47MOL0     C 6216   4.109   6.888   5.750  0.9375  0.1337  0.1778
   47MOL0     C 6217   4.033   6.770   5.751 -0.0031  0.1650  0.0257
   47MOL0     O 6218   4.101   6.662   5.791  0.0913  0.3425  0.4113
   47MOL0     C 6219   4.083   6.626   5.925 -0.2723  0.8078 -0.0601
   47MOL0     C 6220   4.207   6.550   5.956 -0.1120 -0.8919  0.1960
   47MOL0     C 6221   4.218   6.517   6.099 -0.0208  0.1624  0.2168
   47MOL0     C 6222   4.349   6.445   6.126  0.1021  0.5907  0.6649
   47MOL0     C 6223   4.383   6.437   6.273  0.4721  1.0360  0.0848
   47MOL0     C 6224   4.524   6.362   6.301 -0.4950  0.2006  0.8090
   47MOL0     C 6225   4.568   6.359   6.453  0.0425 -0.9969 -0.0522
   47MOL0     C 6226   4.579   6.506   6.524  0.0929  0.4423  0.1279
   47MOL0     N 6227   4.686   6.587   6.471 -0.2445  0.1126 -0.2016
   47MOL0     C 6228   4.675   6.660   6.356  0.6872 -0.0556 -0.1742
   47MOL0     C 6229   4.801   6.699   6.328 -0.0704  0.1426  0.7174
   47MOL0     C 6230   4.841   6.796   6.217  0.2883 -0.1080 -0.6705
   47MOL0     C 6231   4.940   6.716   6.130  0.3298 -0.1093  0.6587
   47MOL0     C 6232   4.960   6.796   6.001 -1.1816  0.7493 -0.0008
   47MOL0     C 6233   5.104   6.779   5.957  0.0275  0.5937  0.2532
   47MOL0     O 6234   5.195   6.816   6.054 -0.1983  0.6178  0.4699
   47MOL0     C 6235   5.332   6.798   6.029 -0.2474 -0.1729  0.0614
   47MOL0     C 6236   5.390   6.778   5.900  0.0051  0.2704 -0.5927
   47MOL0     C 6237   5.530   6.758   5.888 -0.3382  0.3896  0.4834
   47MOL0     C 6238   5.613   6.749   6.002 -0.1752 -0.5335  0.0632
   47MOL0     C 6239   5.761   6.727   5.988 -0.3412 -0.7180  0.6277
   47MOL0     O 6240   5.843   6.735   6.103 -0.2460  0.2186 -0.0288
   47MOL0     C 6241   5.981   6.742   6.104 -0.4697  0.3500  0.4760
   47MOL0     C 6242   6.071   6.735   5.997 -0.0503 -0.1005 -0.1017
   47MOL0     C 6243   6.207   6.754   6.009  0.4021  0.6215 -1.4141
   47MOL0     C 6244   6.265   6.773   6.143  0.5004 -0.0945  0.1612
   47MOL0     O 6245   6.394   6.793   6.170 -0.2456  0.0608  0.1714
   47MOL0     C 6246   6.490   6.801   6.052  0.7367 -0.1540 -0.4738
   47MOL0     C 6247   6.635   6.822   6.101 -0.4623  0.0721  1.2885
   47MOL0     C 6248   6.725   6.775   5.990  0.7879 -0.4833  0.0209
   47MOL0     C 6249   6.859   6.736   6.041 -0.1365  0.1201 -0.2036
   47MOL0     C 6250   6.949   6.843   6.095 -0.0821 -0.0180  0.1812
   47MOL0     C 6251   7.094   6.832   6.052  0.1831  0.8154 -0.0310
   47MOL0     C 6252   7.179   6.928   6.143 -0.9193  0.5619  0.1421
   47MOL0     C 6253   7.194   6.872   6.288  0.7836 -0.1663  0.7374
   47MOL0    Cl 6254   7.308   6.980   6.369  0.0127 -0.0934  0.2328
   47MOL0     C 6255   6.177   6.768   6.255  0.6959  0.6632 -0.4610
   47MOL0     C 6256   6.040   6.753   6.226 -0.1700  0.0243 -0.9516
   47MOL0     O 6257   5.802   6.726   5.870  0.1594  0.4050  0.2572
   47MOL0     C 6258   5.549   6.758   6.129 -0.4379 -0.8823  0.5937
   47MOL0     C 6259   5.415   6.789   6.139 -0.1916  0.0662 -0.3439
   47MOL0     N 6260   4.887   6.664   6.427 -0.5213  0.3814  0.8329
   47MOL0     N 6261   4.822   6.584   6.504  0.3723 -0.0933 -0.6212
   47MOL0     C 6262   3.903   6.762   5.696 -0.5534 -0.7533  0.8973
   47MOL0     C 6263   3.844   6.880   5.660  0.3690 -0.3952 -0.1777
   47MOL0     C 6264   3.644   7.268   5.730 -0.1940  0.5447 -0.1637
   47MOL0     C 6265   3.554   7.311   5.820 -0.0830 -0.3700 -0.7177
   47MOL0     C 6266   3.481   7.432   5.810 -0.6393  0.2950 -0.2850
   47MOL0     C 6267   3.505   7.518   5.701  0.2634  0.5836 -0.5019
   47MOL0     O 6268   3.452   7.638   5.718 -0.4517  0.0859  0.6646
   47MOL0     C 6269   3.465   7.738   5.615 -0.0911 -0.1856 -0.3054
   47MOL0     C 6270   3.345   7.835   5.616 -0.3898  1.2534 -0.3541
   47MOL0     C 6271   3.346   7.932   5.732  0.0536  0.2686  0.5902
   47MOL0     C 6272   3.219   8.033   5.716 -0.2364  0.1749 -0.1394
   47MOL0     C 6273   3.086   7.969   5.748 -0.5091 -0.3361  1.1996
   47MOL0     C 6274   2.995   7.896   5.786  0.5785  0.2802 -0.0029
   47MOL0     C 6275   3.585   7.468   5.600 -0.6520 -0.0046 -0.0392
   47MOL0     C 6276   3.651   7.342   5.609  1.2507  0.2016  0.1218
   47MOL0     C 6277   3.735   7.305   5.493 -0.6245 -0.3944  0.6841
   47MOL0     H 6278   4.088   7.103   5.752  0.8846 -0.6456 -0.1382
   47MOL0     H 6279   4.207   6.893   5.796  0.7135  0.7756  0.6023
   47MOL0     H 6280   4.057   6.714   5.984  1.6465  0.6461  1.0906
   47MOL0     H 6281   3.996   6.560   5.929  0.3299 -0.0636 -0.7570
   47MOL0     H 6282   4.288   6.621   5.938 -1.9366  1.8812  2.0921
   47MOL0     H 6283   4.214   6.467   5.885  1.0387 -3.1402  2.7621
   47MOL0     H 6284   4.140   6.447   6.130  1.1525 -2.1331 -1.6616
   47MOL0     H 6285   4.217   6.613   6.151 -0.8027  1.3356 -1.8293
   47MOL0     H 6286   4.348   6.348   6.074  0.5621  0.5375  0.7531
   47MOL0     H 6287   4.428   6.505   6.079  0.6024 -1.8980 -1.9944
   47MOL0     H 6288   4.386   6.535   6.321  0.0965  1.2044 -0.2248
   47MOL0     H 6289   4.305   6.378   6.323 -1.8589  3.0406 -0.9748
   47MOL0     H 6290   4.512   6.259   6.269  1.2890 -0.5702  2.4576
   47MOL0     H 6291   4.601   6.413   6.244 -1.0436  1.7987  1.4233
   47MOL0     H 6292   4.663   6.305   6.456 -0.1538 -1.4223 -1.1578
   47MOL0     H 6293   4.490   6.304   6.507 -4.0010  0.4318 -3.7993
   47MOL0     H 6294   4.485   6.559   6.507 -1.2986 -1.6706  0.7861
   47MOL0     H 6295   4.600   6.491   6.630 -0.9976 -1.4400  0.1204
   47MOL0     H 6296   4.585   6.676   6.296 -1.0652  0.0262  2.3163
   47MOL0     H 6297   4.760   6.830   6.151 -1.9839 -2.5548  0.6833
   47MOL0     H 6298   4.893   6.880   6.264  2.0087  1.4611 -4.8962
   47MOL0     H 6299   5.041   6.690   6.166  0.0554 -4.0494 -0.9286
   47MOL0     H 6300   4.890   6.621   6.112 -1.6135  0.7438  1.3378
   47MOL0     H 6301   4.926   6.899   6.012  0.1943  1.0251  2.1079
   47MOL0     H 6302   4.906   6.753   5.916  1.4507 -3.9455  0.3198
   47MOL0     H 6303   5.103   6.841   5.867 -1.4242 -1.5329 -1.2877
   47MOL0     H 6304   5.113   6.674   5.930  0.7457  1.3198 -2.7126
   47MOL0     H 6305   5.338   6.783   5.804 -0.9040 -2.6359 -0.3385
   47MOL0     H 6306   5.569   6.737   5.789 -0.2040 -0.0643  0.6274
   47MOL0     H 6307   6.030   6.730   5.896  1.0053  1.3747 -0.6241
   47MOL0     H 6308   6.274   6.739   5.926  1.3801 -1.8328 -0.2686
   47MOL0     H 6309   6.489   6.710   5.991 -2.4942  1.0783 -2.6077
   47MOL0     H 6310   6.459   6.887   5.991 -0.5509  1.0573  1.7646
   47MOL0     H 6311   6.663   6.920   6.140  0.9081 -0.5888  2.0643
   47MOL0     H 6312   6.652   6.764   6.192  1.4525  2.0954  2.3148
   47MOL0     H 6313   6.686   6.687   5.936 -0.2585  0.1038 -0.1963
   47MOL0     H 6314   6.725   6.849   5.910  0.5171 -1.3556 -0.8165
   47MOL0     H 6315   6.910   6.695   5.954  0.5571 -2.1877  1.2184
   47MOL0     H 6316   6.846   6.657   6.115 -0.1501  0.7809  0.5110
   47MOL0     H 6317   6.943   6.845   6.204 -0.4326 -0.6739  0.1727
   47MOL0     H 6318   6.923   6.946   6.069  1.3729  0.6837  1.3092
   47MOL0     H 6319   7.132   6.729   6.050 -0.3435  0.6270 -0.2892
   47MOL0     H 6320   7.108   6.852   5.946  0.6131  0.3269 -0.0672
   47MOL0     H 6321   7.130   7.026   6.154 -0.2625  0.6583  2.9526
   47MOL0     H 6322   7.278   6.947   6.101 -1.3347  0.6220 -0.8237
   47MOL0     H 6323   7.100   6.882   6.342 -2.2051  0.2102 -3.9022
   47MOL0     H 6324   7.216   6.765   6.294  2.9732  0.3410  3.4230
   47MOL0     H 6325   6.217   6.789   6.353 -0.8818  1.2817  0.0851
   47MOL0     H 6326   5.980   6.752   6.317  0.0678  0.1066 -0.7931
   47MOL0     H 6327   5.608   6.726   6.214  0.4770 -0.7815  0.0102
   47MOL0     H 6328   5.369   6.803   6.236 -0.5891 -0.8579 -0.3869
   47MOL0     H 6329   3.848   6.668   5.693 -2.2926  0.2504  0.0124
   47MOL0     H 6330   3.740   6.867   5.629  1.1471 -4.3029 -1.7447
   47MOL0     H 6331   3.543   7.270   5.919  1.1843  1.1556  0.1053
   47MOL0     H 6332   3.429   7.457   5.902  0.6131 -1.8456  1.1118
   47MOL0     H 6333   3.479   7.705   5.511 -2.8705  1.2989 -1.2572
   47MOL0     H 6334   3.554   7.795   5.645 -0.2431 -0.7277  1.2491
   47MOL0     H 6335   3.260   7.766   5.619  1.1636 -0.7194 -0.4721
   47MOL0     H 6336   3.328   7.899   5.528 -3.4281  1.5794  0.3604
   47MOL0     H 6337   3.435   7.996   5.731 -0.9504  1.7844 -2.0949
   47MOL0     H 6338   3.333   7.884   5.829  0.7166 -1.8979 -0.3241
   47MOL0     H 6339   3.232   8.120   5.781 -1.7089 -0.8272  1.5747
   47MOL0     H 6340   3.211   8.066   5.612 -3.3065 -0.1009 -0.0669
   47MOL0     H 6341   2.927   7.819   5.816 -1.0220  1.5818 -0.1907
   47MOL0     H 6342   3.610   7.518   5.507  0.5647 -1.0465 -0.3026
   47MOL0     H 6343   3.701   7.351   5.399  0.8485  1.0310  0.8079
   47MOL0     H 6344   3.839   7.333   5.513 -0.9589  0.0443  1.9349
   47MOL0     H 6345   3.736   7.196   5.485  0.2116 -0.3738  0.4420
   48MOL0     O 6346   8.660   1.400   8.552  0.4703  0.6621  0.1677
   48MOL0     C 6347   8.752   1.422   8.474  0.0992  0.5595 -0.4715
   48MOL0     O 6348   8.759   1.390   8.342 -0.0691  0.1572  0.3715
   48MOL0     C 6349   8.638   1.342   8.295 -0.3369 -0.1018 -0.3824
   48MOL0     C 6350   8.624   1.202   8.272  0.0255  0.0739 -0.2651
   48MOL0     C 6351   8.510   1.153   8.216 -0.4618 -0.5748  0.4600
   48MOL0     C 6352   8.408   1.236   8.169  0.1720 -0.2930  0.2151
   48MOL0     O 6353   8.292   1.192   8.108 -0.0198 -0.4576  0.3970
   48MOL0     C 6354   8.301   1.099   7.997 -0.4462 -0.4466 -0.3001
   48MOL0     C 6355   8.296   1.193   7.873 -0.0131 -0.3722  0.5667
   48MOL0     C 6356   8.397   1.305   7.840 -0.3420  0.1847  0.2216
   48MOL0     C 6357   8.537   1.241   7.819 -0.2796 -0.0322  0.2609
   48MOL0     C 6358   8.655   1.342   7.786 -0.3608  0.3781 -0.4684
   48MOL0     C 6359   8.702   1.402   7.917 -0.5472  0.1457  0.3775
   48MOL0     C 6360   8.822   1.493   7.883  0.3915 -0.6373  0.4764
   48MOL0     C 6361   8.889   1.553   8.007 -0.4172  0.5968  0.1664
   48MOL0     N 6362   8.994   1.654   7.992  0.0865 -0.9128 -0.4805
   48MOL0     C 6363   8.982   1.777   7.918 -0.4209 -0.0629 -0.6621
   48MOL0     C 6364   9.101   1.837   7.937  0.3098 -0.1359 -0.6646
   48MOL0     C 6365   9.145   1.981   7.893  0.0869  0.2835 -0.1063
   48MOL0     C 6366   9.286   1.985   7.844  0.6674 -0.2372 -0.4532
   48MOL0     C 6367   9.364   2.123   7.863  0.2881 -0.1896 -0.0579
   48MOL0     C 6368   9.513   2.092   7.889  0.0290 -0.2719 -0.3250
   48MOL0     O 6369   9.596   2.204   7.879 -0.0837 -0.9479 -0.1927
   48MOL0     C 6370   9.724   2.195   7.931  0.0088  0.9043  0.0314
   48MOL0     C 6371   9.793   2.309   7.973  0.7290  1.1313 -0.7927
   48MOL0     C 6372   9.912   2.308   8.051  0.2244 -0.4998  0.4732
   48MOL0     C 6373   9.978   2.189   8.079 -0.1287  0.6593 -1.0667
   48MOL0     C 6374  10.097   2.186   8.160 -0.0540  0.5903 -0.5623
   48MOL0     O 6375  10.190   2.286   8.132 -0.1685 -0.2176 -0.9855
   48MOL0     C 6376  10.303   2.289   8.204 -0.9491  0.4844 -0.1151
   48MOL0     C 6377  10.429   2.259   8.139 -0.5886 -0.5634 -0.4742
   48MOL0     C 6378  10.551   2.269   8.209 -0.2282  0.4840  0.6064
   48MOL0     C 6379  10.539   2.292   8.344 -0.4493  0.0289 -0.8824
   48MOL0     O 6380  10.649   2.290   8.419 -0.4438 -0.1152  0.0869
   48MOL0     C 6381  10.701   2.422   8.438  0.4856  0.8750 -0.2616
   48MOL0     C 6382  10.829   2.397   8.525  0.0239 -0.3493  0.6165
   48MOL0     C 6383  10.938   2.321   8.441  0.3056  0.2592  0.0938
   48MOL0     C 6384  11.078   2.332   8.486 -0.5620  0.5543  0.2504
   48MOL0     C 6385  11.190   2.264   8.400  0.1864  0.0409 -0.0827
   48MOL0     C 6386  11.334   2.311   8.434 -0.4446  0.0028 -0.3663
   48MOL0     C 6387  11.438   2.238   8.350  0.0457 -0.3402  0.5905
   48MOL0     C 6388  11.576   2.302   8.366  0.4305 -0.3245  0.5128
   48MOL0    Cl 6389  11.572   2.480   8.383 -0.2706  0.0320  0.0227
   48MOL0     C 6390  10.418   2.326   8.412  0.0966 -0.4864 -0.0347
   48MOL0     C 6391  10.301   2.335   8.334 -0.0757 -0.2721 -0.2696
   48MOL0     O 6392  10.106   2.105   8.256 -0.1439  0.4876 -0.6146
   48MOL0     C 6393   9.911   2.074   8.040 -0.3927  0.0090  0.7303
   48MOL0     C 6394   9.788   2.077   7.980  0.0605  0.5768  1.1348
   48MOL0     N 6395   9.180   1.751   8.012  0.7012  0.4198 -0.5405
   48MOL0     N 6396   9.118   1.647   8.048  0.0951  0.4987 -0.0174
   48MOL0     C 6397   8.421   1.373   8.193  0.6846 -0.1293  0.0230
   48MOL0     C 6398   8.526   1.426   8.256  0.3013 -0.1508 -1.0442
   48MOL0     C 6399   8.865   1.506   8.527 -0.1265  0.8384 -0.9206
   48MOL0     C 6400   8.960   1.546   8.441 -0.3329  0.1726  0.3905
   48MOL0     C 6401   9.066   1.627   8.481 -0.4037  0.0343  0.6037
   48MOL0     C 6402   9.083   1.676   8.610 -0.5349  0.0821  0.1848
   48MOL0     O 6403   9.193   1.754   8.637 -0.7170 -0.0778 -0.1560
   48MOL0     C 6404   9.201   1.820   8.759  0.4813  0.4921 -0.8372
   48MOL0     C 6405   9.281   1.740   8.870 -0.2620  0.2828  0.0395
   48MOL0     C 6406   9.424   1.719   8.838 -0.1240 -0.2421  0.3453
   48MOL0     C 6407   9.493   1.688   8.967 -0.5788 -0.4194 -0.2037
   48MOL0     C 6408   9.637   1.651   8.946  0.2194 -0.7793  0.0186
   48MOL0     C 6409   9.744   1.605   8.923 -0.6582  0.2504 -0.3190
   48MOL0     C 6410   8.986   1.636   8.696  0.7995 -0.1609  0.7069
   48MOL0     C 6411   8.880   1.547   8.664 -0.1503  0.4069 -0.8402
   48MOL0     C 6412   8.791   1.502   8.783  0.2361  0.9499 -0.3429
   48MOL0     H 6413   8.707   1.137   8.300  1.5337  2.4860  1.2488
   48MOL0     H 6414   8.493   1.046   8.203 -1.3736 -0.3773 -0.0811
   48MOL0     H 6415   8.395   1.045   8.002 -0.7328 -1.0617 -1.3861
   48MOL0     H 6416   8.222   1.024   8.009 -0.5302 -0.0795  1.9866
   48MOL0     H 6417   8.198   1.240   7.868  0.4332  0.5582  0.1054
   48MOL0     H 6418   8.304   1.122   7.790  3.1019 -0.0318  0.4358
   48MOL0     H 6419   8.404   1.383   7.916 -0.6634  1.0165 -0.5975
   48MOL0     H 6420   8.353   1.346   7.749 -1.1043 -0.9610  0.0479
   48MOL0     H 6421   8.561   1.183   7.908  0.1907  0.4832  0.4767
   48MOL0     H 6422   8.526   1.169   7.737 -0.0911  2.3483 -2.0078
   48MOL0     H 6423   8.738   1.286   7.741 -1.3736 -1.7337  0.1475
   48MOL0     H 6424   8.622   1.416   7.713 -0.0618 -1.1215 -2.1962
   48MOL0     H 6425   8.625   1.463   7.966 -2.1141 -1.6012  0.2114
   48MOL0     H 6426   8.729   1.329   7.995  2.6279 -1.3983 -1.9490
   48MOL0     H 6427   8.786   1.569   7.812  1.5985 -1.1153 -0.6996
   48MOL0     H 6428   8.899   1.438   7.827 -0.8835  0.0980 -2.2024
   48MOL0     H 6429   8.813   1.584   8.080 -3.5010  0.4044 -2.7169
   48MOL0     H 6430   8.928   1.467   8.062 -5.0741  0.3462  3.7054
   48MOL0     H 6431   8.905   1.811   7.849  0.6053  1.4084 -1.1237
   48MOL0     H 6432   9.088   2.005   7.803 -0.0014 -0.3580 -0.2294
   48MOL0     H 6433   9.135   2.057   7.971 -0.0818 -0.6476  0.8118
   48MOL0     H 6434   9.338   1.912   7.907  0.1845  0.4237  0.7361
   48MOL0     H 6435   9.290   1.961   7.737  0.3628 -2.0790 -0.0989
   48MOL0     H 6436   9.330   2.175   7.953  1.7679  0.8800 -0.0657
   48MOL0     H 6437   9.340   2.186   7.776  1.3041  0.2774 -0.0181
   48MOL0     H 6438   9.537   2.010   7.820  1.3432 -1.7573  1.7828
   48MOL0     H 6439   9.527   2.046   7.987  0.4104 -1.2957 -0.8371
   48MOL0     H 6440   9.735   2.400   7.956 -3.0047 -1.0612 -0.7652
   48MOL0     H 6441   9.955   2.402   8.084 -0.6053  0.4059 -0.8998
   48MOL0     H 6442  10.432   2.252   8.031  0.5840  2.7274 -0.7684
   48MOL0     H 6443  10.646   2.259   8.157 -1.1244  1.1245 -1.2331
   48MOL0     H 6444  10.720   2.463   8.338  0.0277  3.2648  0.5744
   48MOL0     H 6445  10.633   2.487   8.494  0.6437 -0.0271  1.0091
   48MOL0     H 6446  10.865   2.499   8.543  0.4562  0.0437 -2.0612
   48MOL0     H 6447  10.797   2.348   8.617 -1.0686 -1.7661 -0.4836
   48MOL0     H 6448  10.908   2.216   8.438 -0.4342  0.4797 -2.8657
   48MOL0     H 6449  10.939   2.352   8.337 -0.8818 -0.4491 -0.1566
   48MOL0     H 6450  11.091   2.297   8.589 -1.0768  1.0069  0.4738
   48MOL0     H 6451  11.113   2.435   8.482  0.3631  0.2505 -0.0195
   48MOL0     H 6452  11.172   2.295   8.297 -0.2567  1.6913  0.4506
   48MOL0     H 6453  11.179   2.156   8.394 -1.2440  0.1824 -0.4379
   48MOL0     H 6454  11.333   2.419   8.417 -1.4249 -0.0409 -0.6256
   48MOL0     H 6455  11.356   2.281   8.537 -0.1177  0.8056 -0.1946
   48MOL0     H 6456  11.409   2.246   8.245 -1.3383 -0.9691  0.8989
   48MOL0     H 6457  11.441   2.129   8.364 -0.8803 -0.6352 -1.1721
   48MOL0     H 6458  11.602   2.259   8.463 -2.9409 -0.1516  1.6102
   48MOL0     H 6459  11.656   2.279   8.295  0.0547 -1.5066  0.4533
   48MOL0     H 6460  10.416   2.338   8.520  2.1803  0.9768 -0.1182
   48MOL0     H 6461  10.216   2.371   8.390  0.9579  0.5075  0.8710
   48MOL0     H 6462   9.954   1.983   8.082 -1.9167 -0.9708  0.2566
   48MOL0     H 6463   9.758   1.977   7.953  1.2727  1.0446 -2.5573
   48MOL0     H 6464   8.347   1.437   8.148  1.0264  1.7656  1.9507
   48MOL0     H 6465   8.515   1.532   8.277 -2.1373 -0.4278 -0.6689
   48MOL0     H 6466   8.968   1.518   8.337 -0.3646 -0.1790  0.4841
   48MOL0     H 6467   9.140   1.663   8.410 -0.5795  0.8089  0.8096
   48MOL0     H 6468   9.105   1.855   8.798  1.0731  1.9447 -0.5883
   48MOL0     H 6469   9.257   1.914   8.750 -2.2992  2.0860 -2.7077
   48MOL0     H 6470   9.236   1.641   8.879 -0.4869  0.5595  2.8882
   48MOL0     H 6471   9.267   1.781   8.971  0.0501  0.4380  0.0219
   48MOL0     H 6472   9.474   1.808   8.797  1.2063 -1.2180 -0.2094
   48MOL0     H 6473   9.441   1.648   8.757  0.4193 -0.6326  0.7949
   48MOL0     H 6474   9.485   1.767   9.042 -1.3922 -1.4586  0.8528
   48MOL0     H 6475   9.447   1.602   9.018 -2.5778 -1.0634 -2.8726
   48MOL0     H 6476   9.843   1.566   8.911 -0.5352  0.5352 -0.2438
   48MOL0     H 6477   8.985   1.661   8.802 -2.8966  1.4160  0.4443
   48MOL0     H 6478   8.786   1.395   8.808 -3.3746  0.8834 -0.7835
   48MOL0     H 6479   8.805   1.561   8.873 -2.8318 -0.0380  0.9117
   48MOL0     H 6480   8.687   1.531   8.765 -0.4578 -1.3200 -0.4300
   49MOL0     O 6481   0.076  11.060   8.140  0.1525  0.0113 -0.0990
   49MOL0     C 6482   0.009  11.077   8.244  0.5330  0.5262  0.3320
   49MOL0     O 6483   0.061  11.115   8.360  0.3261  0.1157  0.1158
   49MOL0     C 6484   0.187  11.078   8.391 -0.1082  0.1154 -1.3965
   49MOL0     C 6485   0.248  11.158   8.483  0.3226 -0.8244 -0.1643
   49MOL0     C 6486   0.373  11.138   8.533 -0.5761  0.8897  0.1274
   49MOL0     C 6487   0.449  11.032   8.479 -0.3036  0.4382 -0.6932
   49MOL0     O 6488   0.577  11.006   8.521  0.1209 -0.0728  1.7754
   49MOL0     C 6489   0.622  11.062   8.643  1.5112 -0.1572  0.8307
   49MOL0     C 6490   0.742  10.976   8.690 -0.2958 -0.6266 -0.0234
   49MOL0     C 6491   0.718  10.839   8.738  0.4983  0.1535 -0.0202
   49MOL0     C 6492   0.685  10.741   8.622 -0.0692  0.2475 -0.3342
   49MOL0     C 6493   0.698  10.593   8.677  0.0759 -0.6302 -0.4120
   49MOL0     C 6494   0.635  10.509   8.571 -0.4816 -0.0507 -0.8249
   49MOL0     C 6495   0.637  10.358   8.613 -0.0049  0.3248 -0.2321
   49MOL0     C 6496   0.664  10.276   8.478  0.3036 -0.3268 -1.1222
   49MOL0     N 6497   0.655  10.133   8.509  0.1178  0.1835 -0.0655
   49MOL0     C 6498   0.742  10.031   8.493 -0.7115  0.0108  0.1179
   49MOL0     C 6499   0.697   9.920   8.550  0.2797  0.2767  0.0848
   49MOL0     C 6500   0.755   9.789   8.581 -0.5357 -0.3897  0.4451
   49MOL0     C 6501   0.840   9.794   8.705 -0.4261  0.1083 -0.6056
   49MOL0     C 6502   0.751   9.794   8.833  0.3161 -0.4923 -0.0621
   49MOL0     C 6503   0.824   9.782   8.966  0.7509 -0.0721  0.1053
   49MOL0     O 6504   0.899   9.897   8.990 -0.1934 -0.1897 -0.7504
   49MOL0     C 6505   1.026   9.920   8.944 -0.5313 -0.1757 -0.4559
   49MOL0     C 6506   1.052  10.049   8.908 -0.3129 -0.0741 -0.0224
   49MOL0     C 6507   1.186  10.079   8.871  0.4702  0.1967  0.0550
   49MOL0     C 6508   1.288   9.985   8.867  0.0825 -0.6756 -0.5196
   49MOL0     C 6509   1.422  10.018   8.801  0.2664  0.3060  0.0962
   49MOL0     O 6510   1.431  10.129   8.731 -0.3796 -0.4776  0.0869
   49MOL0     C 6511   1.546  10.154   8.656 -0.0965  0.0482 -0.2946
   49MOL0     C 6512   1.670  10.175   8.710  0.2188  0.1360  0.6857
   49MOL0     C 6513   1.785  10.194   8.631  0.3280 -0.4258  1.2730
   49MOL0     C 6514   1.785  10.181   8.487  0.7154 -0.0265 -1.4566
   49MOL0     O 6515   1.905  10.193   8.426 -0.1643  0.6392 -0.3834
   49MOL0     C 6516   1.899  10.181   8.280  0.5482 -0.3788 -0.0979
   49MOL0     C 6517   2.037  10.222   8.222  0.0434  0.0613  0.5895
   49MOL0     C 6518   2.153  10.142   8.293  0.4352  0.5187  0.0235
   49MOL0     C 6519   2.287  10.128   8.215 -0.1248 -0.0904 -0.5066
   49MOL0     C 6520   2.399  10.103   8.313  0.0770  0.0656  0.1530
   49MOL0     C 6521   2.532  10.066   8.236 -0.4039 -0.1485  0.6372
   49MOL0     C 6522   2.590  10.184   8.153  1.0274 -0.3254  0.4015
   49MOL0     C 6523   2.689  10.264   8.230  0.3898 -0.0160 -0.5048
   49MOL0    Cl 6524   2.753  10.409   8.141  0.1542  0.2275  0.0250
   49MOL0     C 6525   1.656  10.153   8.431  0.5543 -0.0149 -0.8859
   49MOL0     C 6526   1.540  10.142   8.517 -0.5783 -0.8677  0.0565
   49MOL0     O 6527   1.512   9.934   8.820  0.2846  0.3151 -0.3802
   49MOL0     C 6528   1.257   9.858   8.911 -0.2184  1.0167  0.2135
   49MOL0     C 6529   1.122   9.821   8.944 -0.4739 -0.1487 -0.1933
   49MOL0     N 6530   0.575   9.961   8.602 -0.7817 -0.5901  0.6760
   49MOL0     N 6531   0.543  10.078   8.562  0.6224 -0.1914 -0.4053
   49MOL0     C 6532   0.394  10.951   8.377  0.5758 -0.4532 -0.5921
   49MOL0     C 6533   0.254  10.964   8.342  1.1677  0.1024  0.0720
   49MOL0     C 6534  -0.135  11.029   8.240 -0.1486  0.4946 -0.1881
   49MOL0     C 6535  -0.188  10.988   8.115  0.4278  0.3494 -0.6663
   49MOL0     C 6536  -0.319  10.936   8.106 -0.3707  0.3863 -0.9753
   49MOL0     C 6537  -0.405  10.931   8.212 -0.3514 -0.5521  0.6636
   49MOL0     O 6538  -0.538  10.888   8.187  0.7027  0.1034 -0.5960
   49MOL0     C 6539  -0.639  10.943   8.283  0.2950  0.1162  0.1344
   49MOL0     C 6540  -0.771  10.960   8.218 -0.5747  0.1174  0.2019
   49MOL0     C 6541  -0.865  11.024   8.312 -1.0543  0.1944  1.0524
   49MOL0     C 6542  -1.013  11.020   8.259  0.0790 -0.6071 -0.3420
   49MOL0     C 6543  -1.110  11.075   8.361 -0.8618  0.9933  0.8334
   49MOL0     C 6544  -1.186  11.128   8.436 -0.6107 -0.1868  0.4522
   49MOL0     C 6545  -0.355  10.972   8.337 -0.1039 -0.0146  0.9708
   49MOL0     C 6546  -0.219  11.021   8.344  0.2755 -0.7424  0.1488
   49MOL0     C 6547  -0.181  11.067   8.478  0.8851  0.4857  0.3831
   49MOL0     H 6548   0.192  11.248   8.506  2.4821  1.2563 -2.4259
   49MOL0     H 6549   0.424  11.202   8.604  2.4063 -2.9527  1.8083
   49MOL0     H 6550   0.656  11.164   8.623 -0.1185  0.4701  1.0778
   49MOL0     H 6551   0.543  11.056   8.718 -0.6510  2.1428 -1.0763
   49MOL0     H 6552   0.788  11.028   8.775  1.3221 -1.7564 -0.1531
   49MOL0     H 6553   0.819  10.986   8.612  1.3861  1.9656  1.7973
   49MOL0     H 6554   0.630  10.834   8.804  0.5956  2.2292  0.3290
   49MOL0     H 6555   0.809  10.800   8.784 -1.2271 -1.3574  2.3709
   49MOL0     H 6556   0.583  10.768   8.594 -1.7960 -0.9243  4.1328
   49MOL0     H 6557   0.760  10.752   8.543  1.0446 -2.4566  0.2400
   49MOL0     H 6558   0.804  10.572   8.692  0.4924  0.8776 -1.0184
   49MOL0     H 6559   0.651  10.575   8.774 -2.7497 -2.0079 -1.9058
   49MOL0     H 6560   0.536  10.544   8.539 -0.7129  1.4160  1.2781
   49MOL0     H 6561   0.706  10.524   8.489 -1.1263  1.2666 -1.1739
   49MOL0     H 6562   0.543  10.337   8.664  0.9877 -2.5176  0.6778
   49MOL0     H 6563   0.717  10.334   8.685 -0.4896  1.7569  0.8268
   49MOL0     H 6564   0.594  10.304   8.399  0.3976  0.8357 -0.8095
   49MOL0     H 6565   0.766  10.295   8.441  1.0505 -0.2613  0.8344
   49MOL0     H 6566   0.834  10.040   8.435  0.0674 -2.3434  0.8808
   49MOL0     H 6567   0.680   9.711   8.591 -0.1615 -0.9975 -1.1586
   49MOL0     H 6568   0.825   9.774   8.498  1.9893  1.0649  2.1635
   49MOL0     H 6569   0.905   9.706   8.706 -0.2806  0.1880  1.3404
   49MOL0     H 6570   0.901   9.885   8.699 -2.5242  1.8035  1.7750
   49MOL0     H 6571   0.673   9.717   8.829  0.6143 -0.7782 -0.3531
   49MOL0     H 6572   0.700   9.891   8.841 -0.6960 -1.1102  1.5965
   49MOL0     H 6573   0.873   9.683   8.968 -2.2282 -1.7499 -2.1443
   49MOL0     H 6574   0.751   9.757   9.043  1.2347 -0.7728  0.3543
   49MOL0     H 6575   0.968  10.116   8.899  1.0311  1.7989  0.6557
   49MOL0     H 6576   1.207  10.177   8.831  0.3439  1.0174  1.8853
   49MOL0     H 6577   1.682  10.187   8.817 -0.7029  0.9222  0.7159
   49MOL0     H 6578   1.882  10.220   8.671  1.5124  3.5179 -3.2861
   49MOL0     H 6579   1.865  10.083   8.246 -1.9304  0.4408 -0.1817
   49MOL0     H 6580   1.827  10.248   8.233  3.1011  1.1270 -2.1276
   49MOL0     H 6581   2.045  10.188   8.118  4.6223 -0.2396  0.8334
   49MOL0     H 6582   2.057  10.328   8.238  2.0660 -0.4660  1.9083
   49MOL0     H 6583   2.167  10.188   8.391 -0.8201  2.0590 -0.4791
   49MOL0     H 6584   2.121  10.038   8.306  4.1645 -1.7369 -5.2378
   49MOL0     H 6585   2.299  10.220   8.156  0.6179  1.3747  1.8043
   49MOL0     H 6586   2.285  10.043   8.146 -2.3830 -1.7441  1.4244
   49MOL0     H 6587   2.372  10.024   8.383 -0.0426  1.3698  1.6204
   49MOL0     H 6588   2.431  10.185   8.377  0.4393  0.7127 -0.8405
   49MOL0     H 6589   2.601  10.033   8.314 -0.8767 -0.3709  0.9616
   49MOL0     H 6590   2.514   9.975   8.178 -0.9315 -0.4658  1.2886
   49MOL0     H 6591   2.519  10.255   8.108  1.9290 -0.9080 -2.0925
   49MOL0     H 6592   2.642  10.140   8.068  0.4534  0.3293 -0.3045
   49MOL0     H 6593   2.645  10.307   8.320  0.5700  2.1384 -1.3953
   49MOL0     H 6594   2.765  10.193   8.265 -2.9522 -3.4540  0.4775
   49MOL0     H 6595   1.650  10.125   8.327 -1.1240  4.8902 -2.4026
   49MOL0     H 6596   1.443  10.113   8.477 -0.6917 -0.3851 -0.0260
   49MOL0     H 6597   1.330   9.781   8.890  1.6342  3.5218 -4.1066
   49MOL0     H 6598   1.106   9.717   8.970 -2.3275 -0.5579 -2.6311
   49MOL0     H 6599   0.444  10.866   8.330 -0.6518 -1.9034  0.5987
   49MOL0     H 6600   0.208  10.889   8.279  3.5452 -1.1763 -0.2464
   49MOL0     H 6601  -0.122  10.994   8.028  3.8471  1.3991  1.7946
   49MOL0     H 6602  -0.350  10.899   8.009  1.8572  0.5384 -1.8004
   49MOL0     H 6603  -0.610  11.044   8.314  2.2043 -0.1947 -0.5031
   49MOL0     H 6604  -0.639  10.881   8.373 -1.6225 -2.7172 -1.6411
   49MOL0     H 6605  -0.819  10.864   8.193  0.5176 -0.0416 -1.5041
   49MOL0     H 6606  -0.762  11.023   8.129  0.5361 -1.5298 -0.9275
   49MOL0     H 6607  -0.826  11.124   8.331  2.1687 -1.0755  1.7264
   49MOL0     H 6608  -0.872  10.966   8.405 -0.5519 -0.3503  0.7578
   49MOL0     H 6609  -1.026  11.084   8.171 -0.7446 -0.7030 -0.3051
   49MOL0     H 6610  -1.048  10.921   8.229 -0.0096 -0.4015 -0.9402
   49MOL0     H 6611  -1.245  11.177   8.511  0.1382 -0.6087  1.3320
   49MOL0     H 6612  -0.428  10.988   8.416 -0.0654 -1.0696  1.2375
   49MOL0     H 6613  -0.114  10.996   8.526  0.7133 -0.9229 -1.3550
   49MOL0     H 6614  -0.147  11.171   8.480  2.4018  0.0530 -1.0360
   49MOL0     H 6615  -0.266  11.063   8.547 -0.9549  0.5056 -1.7577
   50MOL0     O 6616   9.070   4.162  10.111  0.1737 -0.3363  0.0646
   50MOL0     C 6617   9.017   4.087  10.187 -0.2592 -0.3197  0.1757
   50MOL0     O 6618   9.072   4.052  10.308 -0.1090 -0.4751 -0.2050
   50MOL0     C 6619   9.204   4.088  10.344  0.3394  0.8461  0.0388
   50MOL0     C 6620   9.306   4.067  10.255 -0.5266 -0.0406 -0.4915
   50MOL0     C 6621   9.437   4.115  10.284  0.5465  0.2074 -0.0706
   50MOL0     C 6622   9.472   4.173  10.403  0.5453  0.8051  0.7516
   50MOL0     O 6623   9.585   4.231  10.442 -0.3132  0.3069 -0.3309
   50MOL0     C 6624   9.690   4.252  10.352  0.6469  1.1188 -1.1170
   50MOL0     C 6625   9.674   4.367  10.263  0.4977 -0.0954  0.5482
   50MOL0     C 6626   9.679   4.502  10.343 -0.6065  0.0545 -0.0950
   50MOL0     C 6627   9.801   4.504  10.441  0.2711  0.8097 -0.4291
   50MOL0     C 6628   9.815   4.641  10.514  0.0752 -0.4529  0.2077
   50MOL0     C 6629   9.912   4.620  10.625 -0.5065  0.0437 -0.9465
   50MOL0     C 6630   9.917   4.743  10.711  0.3090 -0.3529  0.5398
   50MOL0     C 6631   9.820   4.737  10.831 -0.1273 -0.5069  0.1707
   50MOL0     N 6632   9.849   4.860  10.910  0.0090 -0.1703 -0.1545
   50MOL0     C 6633   9.870   4.989  10.862 -0.2143 -0.4237  0.2386
   50MOL0     C 6634   9.897   5.060  10.976 -0.6191  0.3758  0.6238
   50MOL0     C 6635   9.944   5.210  10.984  0.7521  0.5188  1.0499
   50MOL0     C 6636  10.085   5.233  10.935 -0.5531  0.1655 -0.2243
   50MOL0     C 6637  10.085   5.281  10.788 -0.3813 -0.4128 -0.1873
   50MOL0     C 6638  10.228   5.295  10.738  0.4882 -0.2518  0.7161
   50MOL0     O 6639  10.272   5.428  10.769  0.4682  0.2119  0.1492
   50MOL0     C 6640  10.409   5.457  10.776  0.4556 -0.7046 -0.1743
   50MOL0     C 6641  10.447   5.588  10.812 -0.6680  0.7129 -0.8288
   50MOL0     C 6642  10.580   5.628  10.823 -0.0844  0.5463 -0.7209
   50MOL0     C 6643  10.685   5.538  10.813 -0.9667  0.0892  0.3132
   50MOL0     C 6644  10.830   5.575  10.841  0.6404 -0.4560  0.6242
   50MOL0     O 6645  10.849   5.690  10.917  0.2916 -0.1151 -0.5861
   50MOL0     C 6646  10.976   5.722  10.960  0.7841  0.1888  0.1872
   50MOL0     C 6647  11.070   5.765  10.872  0.0400  0.4565  1.0249
   50MOL0     C 6648  11.203   5.792  10.918 -0.7159  0.5070  0.3263
   50MOL0     C 6649  11.237   5.776  11.055  0.5580 -0.0958  0.1975
   50MOL0     O 6650  11.368   5.762  11.090  0.4062 -0.1381  0.4287
   50MOL0     C 6651  11.405   5.630  11.128  0.5983  0.3453  0.5884
   50MOL0     C 6652  11.442   5.526  11.021 -0.2041  0.2674 -0.5615
   50MOL0     C 6653  11.573   5.547  10.942  1.1166  0.3618 -0.3649
   50MOL0     C 6654  11.697   5.505  11.025 -0.2306 -0.1796  0.2193
   50MOL0     C 6655  11.818   5.513  10.935  1.0406 -0.1223  0.4084
   50MOL0     C 6656  11.940   5.466  11.017  0.3075  0.2234  0.0038
   50MOL0     C 6657  12.071   5.472  10.933  0.4887 -0.3143  0.4191
   50MOL0     C 6658  12.186   5.509  11.027 -0.6001 -0.5289  0.4885
   50MOL0    Cl 6659  12.218   5.347  11.109  0.4364 -0.2636  0.3305
   50MOL0     C 6660  11.136   5.740  11.141 -0.5136  0.3609  0.6999
   50MOL0     C 6661  11.006   5.714  11.090 -0.4945  0.2734  0.6477
   50MOL0     O 6662  10.920   5.498  10.811 -0.0843  0.2186  0.4034
   50MOL0     C 6663  10.644   5.413  10.767  0.4388 -0.0400  0.1004
   50MOL0     C 6664  10.512   5.370  10.749 -0.2101 -0.9906 -0.5977
   50MOL0     N 6665   9.902   4.974  11.082 -0.9592 -0.3220  0.0796
   50MOL0     N 6666   9.881   4.860  11.038  0.3869  0.2670 -0.6036
   50MOL0     C 6667   9.371   4.183  10.495  0.4203 -0.0338 -0.6557
   50MOL0     C 6668   9.238   4.140  10.471  0.5964 -0.6422  0.6805
   50MOL0     C 6669   8.877   4.036  10.155  0.2030  0.3252 -0.6212
   50MOL0     C 6670   8.813   3.971  10.263  0.1823 -0.1298  0.7076
   50MOL0     C 6671   8.686   3.920  10.255  0.6708 -0.5934  0.3477
   50MOL0     C 6672   8.615   3.936  10.136  0.1552  0.5725 -0.4645
   50MOL0     O 6673   8.487   3.894  10.116 -0.4539  0.1502  0.7075
   50MOL0     C 6674   8.427   3.827  10.228 -0.2164  0.2986  0.1662
   50MOL0     C 6675   8.288   3.782  10.191  0.1424 -0.1450  0.6603
   50MOL0     C 6676   8.303   3.671  10.080  0.3779  0.5956 -1.1640
   50MOL0     C 6677   8.170   3.634  10.011 -0.5523  0.0881 -0.3199
   50MOL0     C 6678   8.116   3.739   9.937 -0.3423 -0.2523  0.3054
   50MOL0     C 6679   8.069   3.820   9.868  1.1340 -0.2918  0.1991
   50MOL0     C 6680   8.672   4.001  10.028 -0.0619 -0.2774 -0.7482
   50MOL0     C 6681   8.799   4.051  10.035  0.4992 -0.5231  0.0749
   50MOL0     C 6682   8.842   4.134   9.912 -0.3127  0.5547 -0.0243
   50MOL0     H 6683   9.286   4.013  10.163 -1.7148  1.1156 -0.9420
   50MOL0     H 6684   9.520   4.101  10.215  0.2750  0.1873 -0.3965
   50MOL0     H 6685   9.769   4.261  10.427 -2.1366 -1.0963  2.4535
   50MOL0     H 6686   9.706   4.166  10.287 -0.9838 -1.0411  1.1497
   50MOL0     H 6687   9.576   4.355  10.216  0.7425  0.2381 -0.0573
   50MOL0     H 6688   9.755   4.375  10.190  1.7385 -2.0590  1.6367
   50MOL0     H 6689   9.590   4.515  10.406 -0.9625  1.0062 -0.7765
   50MOL0     H 6690   9.680   4.586  10.273 -0.7423  1.6120  1.6664
   50MOL0     H 6691   9.793   4.423  10.515 -0.3207  0.1863 -1.1669
   50MOL0     H 6692   9.891   4.480  10.384 -0.3745  2.8788 -2.4592
   50MOL0     H 6693   9.846   4.709  10.433  1.1627 -2.4087 -1.1066
   50MOL0     H 6694   9.715   4.676  10.542 -0.6031 -1.4709 -0.8671
   50MOL0     H 6695   9.897   4.535  10.693  2.7629 -0.4321 -0.6691
   50MOL0     H 6696  10.003   4.599  10.569 -0.5505 -1.4130 -0.5247
   50MOL0     H 6697   9.891   4.825  10.643  2.7547 -0.5668 -0.7869
   50MOL0     H 6698  10.018   4.755  10.751 -0.0815 -2.4646  2.3421
   50MOL0     H 6699   9.714   4.739  10.806 -0.9777 -4.2051  2.6049
   50MOL0     H 6700   9.831   4.644  10.889 -1.0544 -0.7224  0.0162
   50MOL0     H 6701   9.877   5.035  10.764  0.4607  0.0623  0.5076
   50MOL0     H 6702   9.881   5.269  10.917  1.6410 -0.2509 -0.5036
   50MOL0     H 6703   9.932   5.247  11.086 -1.0281  1.2506  0.6168
   50MOL0     H 6704  10.121   5.307  11.007 -0.0501  0.8505 -1.1593
   50MOL0     H 6705  10.141   5.141  10.952  0.9072  1.1189  0.3482
   50MOL0     H 6706  10.029   5.374  10.781  2.3427  1.4006  0.5796
   50MOL0     H 6707  10.044   5.201  10.725 -1.2418  1.1648 -1.7003
   50MOL0     H 6708  10.237   5.272  10.632 -0.3428 -1.6504  0.9246
   50MOL0     H 6709  10.281   5.219  10.795  0.0538  0.8825  2.7326
   50MOL0     H 6710  10.369   5.664  10.811  0.0888  1.5930  1.2305
   50MOL0     H 6711  10.586   5.730  10.859  0.0972 -0.2877  1.8321
   50MOL0     H 6712  11.040   5.757  10.768 -0.0413  1.5334  0.9519
   50MOL0     H 6713  11.288   5.803  10.851 -1.0338 -3.2992 -0.9387
   50MOL0     H 6714  11.493   5.639  11.192  0.8424 -1.8402  0.6596
   50MOL0     H 6715  11.330   5.582  11.192  2.5787 -2.6965  0.8453
   50MOL0     H 6716  11.434   5.429  11.070  3.4946  0.5111  0.8225
   50MOL0     H 6717  11.356   5.527  10.953  0.4590  1.3505 -1.4155
   50MOL0     H 6718  11.567   5.494  10.847 -0.6550 -0.5553  0.2180
   50MOL0     H 6719  11.574   5.656  10.927 -1.7934  0.2590 -1.8903
   50MOL0     H 6720  11.678   5.405  11.065 -1.5323 -0.6170 -1.3749
   50MOL0     H 6721  11.722   5.573  11.107  0.8197  2.4130 -2.0914
   50MOL0     H 6722  11.818   5.615  10.895 -0.9383  0.5679  2.0349
   50MOL0     H 6723  11.805   5.450  10.846 -0.1368  1.7353 -0.7897
   50MOL0     H 6724  11.946   5.522  11.111  2.3750 -0.9694  0.6467
   50MOL0     H 6725  11.923   5.362  11.045 -1.2386  1.0784  2.6393
   50MOL0     H 6726  12.070   5.542  10.848 -0.4888 -0.2134  0.5029
   50MOL0     H 6727  12.090   5.374  10.889 -0.8390 -0.6948  0.6307
   50MOL0     H 6728  12.279   5.526  10.971 -0.4159 -1.9247  0.3357
   50MOL0     H 6729  12.176   5.601  11.086 -0.3306  0.2608 -0.6610
   50MOL0     H 6730  11.155   5.738  11.248 -0.8959 -0.1914  0.7623
   50MOL0     H 6731  10.924   5.688  11.156 -0.8157  0.5791  0.3705
   50MOL0     H 6732  10.718   5.336  10.746  1.7948  1.1108  0.4924
   50MOL0     H 6733  10.508   5.267  10.715 -0.5070 -1.1067 -0.2280
   50MOL0     H 6734   9.400   4.218  10.593  1.9590 -1.6397 -0.4981
   50MOL0     H 6735   9.173   4.141  10.558  0.6352 -3.1122  0.8018
   50MOL0     H 6736   8.858   3.949  10.360 -0.5300 -0.6926  0.9220
   50MOL0     H 6737   8.636   3.873  10.339  1.5552  0.0033  1.2350
   50MOL0     H 6738   8.422   3.892  10.316 -1.3732  1.7264 -0.8956
   50MOL0     H 6739   8.484   3.736  10.250 -2.5845 -1.4240 -0.4509
   50MOL0     H 6740   8.220   3.858  10.152  0.9825  0.8295  1.0593
   50MOL0     H 6741   8.240   3.732  10.276  0.5610 -1.6065  0.0799
   50MOL0     H 6742   8.348   3.582  10.125  2.1278  1.8293 -0.3838
   50MOL0     H 6743   8.362   3.704   9.993  1.9816 -0.0868 -0.3735
   50MOL0     H 6744   8.177   3.549   9.943 -0.6674  1.0113 -1.5204
   50MOL0     H 6745   8.099   3.603  10.088  0.6690  1.5545  1.5045
   50MOL0     H 6746   8.037   3.881   9.785  1.8403 -1.3033 -0.8467
   50MOL0     H 6747   8.612   4.033   9.944  0.8526  2.2474 -0.5401
   50MOL0     H 6748   8.894   4.070   9.839  2.0667  1.1604  1.0541
   50MOL0     H 6749   8.750   4.161   9.859 -2.5945 -0.9357  2.8826
   50MOL0     H 6750   8.893   4.229   9.932  0.9303 -0.0002 -0.4284
   51MOL0     O 6751   4.407   8.116   1.980 -0.3921  1.1102  0.2027
   51MOL0     C 6752   4.360   8.050   2.073 -0.3411 -0.2741  0.6586
   51MOL0     O 6753   4.438   7.973   2.153 -0.1428  0.4259 -1.2185
   51MOL0     C 6754   4.580   7.983   2.139  0.5471  0.8191 -0.3732
   51MOL0     C 6755   4.661   8.066   2.231 -0.0709  0.3179  0.7425
   51MOL0     C 6756   4.794   8.066   2.201 -0.2262  0.3156  0.4005
   51MOL0     C 6757   4.851   7.990   2.104 -0.3250 -0.5618 -1.1218
   51MOL0     O 6758   4.980   7.986   2.080  0.1454  0.7418 -0.0365
   51MOL0     C 6759   5.069   7.935   2.180 -0.4270  0.0679 -0.7918
   51MOL0     C 6760   5.209   7.908   2.125 -0.4641 -0.1177  0.3823
   51MOL0     C 6761   5.291   8.043   2.124  0.0811 -0.9758  0.3865
   51MOL0     C 6762   5.445   8.016   2.128  0.3461  0.2306 -0.1824
   51MOL0     C 6763   5.512   7.941   2.010 -0.3756 -0.2809  0.2813
   51MOL0     C 6764   5.666   7.930   2.028  0.1623 -0.1456 -0.3682
   51MOL0     C 6765   5.728   7.854   1.900 -0.0573 -0.0971 -0.0073
   51MOL0     C 6766   5.717   7.940   1.769 -0.1911  0.1736  0.1010
   51MOL0     N 6767   5.849   7.943   1.693  0.7870  0.7104 -0.5123
   51MOL0     C 6768   5.889   7.854   1.608  0.0542  0.3950 -0.4839
   51MOL0     C 6769   6.014   7.886   1.570 -0.2572  0.0452 -0.3258
   51MOL0     C 6770   6.104   7.840   1.464  0.3575 -0.0817 -0.6965
   51MOL0     C 6771   6.177   7.711   1.508 -0.0968  0.5125 -0.6967
   51MOL0     C 6772   6.293   7.726   1.615  0.3516 -0.4301 -0.4392
   51MOL0     C 6773   6.388   7.613   1.610  0.0357 -0.0654  0.2056
   51MOL0     O 6774   6.496   7.645   1.701 -0.6031 -0.6593 -0.0770
   51MOL0     C 6775   6.608   7.569   1.703  0.1035  0.3000 -0.4047
   51MOL0     C 6776   6.631   7.443   1.656  0.3106  0.5153 -0.0862
   51MOL0     C 6777   6.747   7.368   1.666  0.0729 -0.2774 -0.8395
   51MOL0     C 6778   6.854   7.417   1.736  1.0097 -0.0116  0.2067
   51MOL0     C 6779   6.978   7.337   1.735 -0.8579  0.0923 -0.4709
   51MOL0     O 6780   7.096   7.408   1.763 -0.4518 -0.2431  0.1401
   51MOL0     C 6781   7.218   7.342   1.785 -0.1919 -0.2050  0.4418
   51MOL0     C 6782   7.224   7.219   1.860 -0.3713  0.2028  0.3321
   51MOL0     C 6783   7.344   7.159   1.902 -0.4065  0.8550  0.4241
   51MOL0     C 6784   7.466   7.213   1.856  0.7109 -0.5411  0.8533
   51MOL0     O 6785   7.591   7.160   1.882 -0.1244 -0.0664 -0.0580
   51MOL0     C 6786   7.614   7.126   2.014  0.4106 -0.5116 -0.1507
   51MOL0     C 6787   7.764   7.093   2.024  0.8517  0.3360  0.4019
   51MOL0     C 6788   7.807   7.057   2.167  0.2884  0.1109  0.2367
   51MOL0     C 6789   7.958   7.056   2.186 -0.2448  0.5424  0.2762
   51MOL0     C 6790   8.012   7.198   2.218 -0.2416 -0.4076 -0.1212
   51MOL0     C 6791   8.160   7.195   2.257 -0.5284  0.2820  0.3975
   51MOL0     C 6792   8.192   7.312   2.367  0.3573  0.3980  0.2761
   51MOL0     C 6793   8.344   7.339   2.368 -0.3646  0.2332  0.4755
   51MOL0    Cl 6794   8.370   7.489   2.267  0.4964 -0.3780  0.2300
   51MOL0     C 6795   7.460   7.333   1.774  0.3969 -0.7576  0.3902
   51MOL0     C 6796   7.334   7.399   1.739  0.1463  0.6345 -0.0578
   51MOL0     O 6797   6.967   7.211   1.707  0.3815 -0.1006 -0.7426
   51MOL0     C 6798   6.838   7.548   1.795 -0.2260  0.0951  0.6104
   51MOL0     C 6799   6.715   7.618   1.775  0.9251 -0.3273 -0.4464
   51MOL0     N 6800   6.052   7.999   1.649  0.6328  0.2345 -0.3287
   51MOL0     N 6801   5.948   8.029   1.723 -0.1322  0.5969 -0.6681
   51MOL0     C 6802   4.772   7.919   2.017 -0.1485 -0.1942 -0.7332
   51MOL0     C 6803   4.633   7.915   2.036 -0.4266 -0.3312  0.5593
   51MOL0     C 6804   4.213   8.038   2.079 -0.2729  0.7088  0.4181
   51MOL0     C 6805   4.169   7.969   2.192 -0.3329  0.6739  0.6392
   51MOL0     C 6806   4.034   7.939   2.217  0.6676  0.1412  0.8025
   51MOL0     C 6807   3.937   7.998   2.139  0.6636  0.2478  1.2892
   51MOL0     O 6808   3.797   7.993   2.158 -0.2083  0.3433 -0.7452
   51MOL0     C 6809   3.747   7.888   2.252 -1.0155 -1.4594  0.1771
   51MOL0     C 6810   3.590   7.899   2.269 -0.2043 -0.6825  0.0844
   51MOL0     C 6811   3.515   7.883   2.139 -0.2108  0.0108  0.6879
   51MOL0     C 6812   3.370   7.846   2.175  0.1731  0.4188 -0.3253
   51MOL0     C 6813   3.301   7.799   2.059  0.0700  0.5459  0.4311
   51MOL0     C 6814   3.224   7.747   1.969 -1.0308 -0.4714 -0.4374
   51MOL0     C 6815   3.979   8.075   2.024  0.1059 -0.3595 -0.0864
   51MOL0     C 6816   4.118   8.095   1.990  1.3115 -0.4536  0.7944
   51MOL0     C 6817   4.152   8.194   1.871  0.2547 -0.1944 -0.2473
   51MOL0     H 6818   4.622   8.129   2.310 -0.6497 -0.4067  1.0532
   51MOL0     H 6819   4.865   8.120   2.262  1.7630 -0.4700 -1.0858
   51MOL0     H 6820   5.078   7.996   2.270 -1.0430 -1.0700  0.0538
   51MOL0     H 6821   5.025   7.840   2.207 -0.1208 -0.3087 -1.5773
   51MOL0     H 6822   5.208   7.882   2.018 -1.3270  3.4056 -0.6001
   51MOL0     H 6823   5.250   7.834   2.193  1.3348 -0.7782 -1.3281
   51MOL0     H 6824   5.245   8.113   2.194 -2.7917 -0.7029 -1.6238
   51MOL0     H 6825   5.276   8.089   2.026 -2.5197 -1.1894  0.6054
   51MOL0     H 6826   5.486   8.117   2.131 -0.3540  0.5340 -0.8226
   51MOL0     H 6827   5.478   7.960   2.217 -1.9252 -1.4815 -0.3305
   51MOL0     H 6828   5.460   7.846   1.990 -0.7723 -0.1154  0.4989
   51MOL0     H 6829   5.498   7.997   1.917  2.4737 -1.6358 -1.0886
   51MOL0     H 6830   5.716   8.026   2.044  1.6536 -1.3204  2.8298
   51MOL0     H 6831   5.683   7.877   2.122  0.4391  1.5064  0.5459
   51MOL0     H 6832   5.673   7.759   1.893  0.2539 -0.3443  0.7787
   51MOL0     H 6833   5.831   7.835   1.929  0.1173 -1.4717 -1.3850
   51MOL0     H 6834   5.633   7.907   1.707  2.7307  0.8324 -4.7145
   51MOL0     H 6835   5.697   8.042   1.804  2.0873  0.5361  0.5297
   51MOL0     H 6836   5.839   7.776   1.552  0.0878 -0.2957  0.4412
   51MOL0     H 6837   6.045   7.811   1.376 -0.0724  0.0659 -0.4596
   51MOL0     H 6838   6.175   7.918   1.435  0.4260 -0.7084 -2.2892
   51MOL0     H 6839   6.108   7.641   1.556 -0.3854  1.9521  1.1344
   51MOL0     H 6840   6.220   7.650   1.429 -0.1836 -2.6593  1.5236
   51MOL0     H 6841   6.246   7.741   1.713 -2.0425 -3.9805 -0.8559
   51MOL0     H 6842   6.355   7.813   1.591  0.0137 -0.0699 -0.0278
   51MOL0     H 6843   6.421   7.584   1.510 -1.4617  1.7775 -0.8910
   51MOL0     H 6844   6.339   7.519   1.639  0.3992 -1.0567 -2.1328
   51MOL0     H 6845   6.549   7.399   1.601  0.9839 -0.7335 -0.1395
   51MOL0     H 6846   6.743   7.275   1.610 -1.5647 -1.7336  1.5443
   51MOL0     H 6847   7.129   7.169   1.877 -1.3441  1.9477  0.2836
   51MOL0     H 6848   7.343   7.070   1.965 -2.1561  0.2478 -0.3806
   51MOL0     H 6849   7.589   7.216   2.071 -1.5787 -0.0916 -1.5548
   51MOL0     H 6850   7.549   7.044   2.047  0.3766 -0.6655 -0.5944
   51MOL0     H 6851   7.784   7.008   1.958  0.4556 -1.6485  2.6773
   51MOL0     H 6852   7.825   7.175   1.985  0.8758  1.3210  2.3628
   51MOL0     H 6853   7.760   7.126   2.237 -1.2307 -0.8817  0.2366
   51MOL0     H 6854   7.772   6.957   2.196 -1.4205  0.4759 -0.4728
   51MOL0     H 6855   7.999   7.008   2.097 -0.5839 -0.7930  0.8274
   51MOL0     H 6856   7.995   6.993   2.267  0.7900  1.5309  0.6043
   51MOL0     H 6857   7.962   7.224   2.311  2.6194 -1.5448  1.8521
   51MOL0     H 6858   8.000   7.282   2.149 -1.2807  1.0495  1.7390
   51MOL0     H 6859   8.191   7.099   2.298  1.4950  1.2356  1.2750
   51MOL0     H 6860   8.213   7.206   2.161 -1.0366  1.4989  0.2327
   51MOL0     H 6861   8.166   7.278   2.468 -1.0856 -0.9602 -0.4951
   51MOL0     H 6862   8.139   7.404   2.340  1.5080  1.1736  0.5650
   51MOL0     H 6863   8.376   7.359   2.470  2.6284 -1.7528  0.0710
   51MOL0     H 6864   8.405   7.255   2.332 -0.8598 -1.8072  3.9979
   51MOL0     H 6865   7.550   7.368   1.725 -0.9536  1.7472 -0.5459
   51MOL0     H 6866   7.330   7.488   1.677  1.1089  1.4260  0.9588
   51MOL0     H 6867   6.924   7.599   1.837 -1.3670  3.2463 -0.6197
   51MOL0     H 6868   6.704   7.719   1.813  0.9610  0.0584 -1.4499
   51MOL0     H 6869   4.820   7.868   1.935 -1.0515  0.2524 -1.5634
   51MOL0     H 6870   4.581   7.850   1.967  1.5777 -0.5471 -0.8131
   51MOL0     H 6871   4.241   7.934   2.265 -1.1431 -0.2473  1.0182
   51MOL0     H 6872   4.012   7.900   2.316 -1.4185 -0.7299  0.0590
   51MOL0     H 6873   3.792   7.912   2.349 -0.3682  1.9794 -0.8696
   51MOL0     H 6874   3.776   7.786   2.223  2.9964 -0.4590  0.0455
   51MOL0     H 6875   3.568   8.003   2.293  1.9074  0.1984 -1.4384
   51MOL0     H 6876   3.560   7.834   2.352  4.5598  0.8621  3.4495
   51MOL0     H 6877   3.566   7.803   2.084 -0.9065  0.8180 -1.2016
   51MOL0     H 6878   3.528   7.973   2.079  1.9438 -1.0163 -0.5175
   51MOL0     H 6879   3.367   7.769   2.252  1.5037  1.2908  0.6591
   51MOL0     H 6880   3.318   7.935   2.213  1.5835  1.6072 -1.0634
   51MOL0     H 6881   3.166   7.697   1.894  0.9571  0.4611 -2.7340
   51MOL0     H 6882   3.903   8.122   1.962  0.5838  0.4412 -0.0810
   51MOL0     H 6883   4.204   8.284   1.903  1.0579 -0.4332 -0.8356
   51MOL0     H 6884   4.222   8.139   1.808  0.0653  1.5196 -2.0803
   51MOL0     H 6885   4.059   8.213   1.816 -0.7401 -0.8356  1.1655
   52MOL0     O 6886   8.361   7.101  10.895 -0.6945 -0.3813  0.0320
   52MOL0     C 6887   8.342   7.201  10.826  0.4390 -0.0122  0.1842
   52MOL0     O 6888   8.431   7.288  10.766 -0.0959 -0.0370 -0.2110
   52MOL0     C 6889   8.566   7.269  10.757 -0.1125 -0.1399 -0.5560
   52MOL0     C 6890   8.645   7.217  10.862  0.1445  0.5961  0.2595
   52MOL0     C 6891   8.782   7.213  10.842 -0.1977  0.0929 -0.5849
   52MOL0     C 6892   8.836   7.250  10.719 -0.6433 -0.1897  0.6552
   52MOL0     O 6893   8.978   7.256  10.699 -0.4204 -0.3918 -0.2951
   52MOL0     C 6894   9.055   7.146  10.752  0.3941 -0.0977 -0.1574
   52MOL0     C 6895   9.120   7.202  10.877  1.2057  0.6642 -0.8689
   52MOL0     C 6896   9.182   7.341  10.872 -0.2322 -0.3367  0.3096
   52MOL0     C 6897   9.266   7.388  10.994  0.0870 -0.6853 -0.7860
   52MOL0     C 6898   9.392   7.470  10.952  0.3577 -0.3556 -0.1193
   52MOL0     C 6899   9.360   7.611  10.889  0.8278  0.6891 -0.3404
   52MOL0     C 6900   9.492   7.669  10.830  0.3116 -0.3443  0.4721
   52MOL0     C 6901   9.484   7.818  10.814 -0.0480 -0.6491  0.0859
   52MOL0     N 6902   9.603   7.887  10.755 -1.0722  0.0957  0.7669
   52MOL0     C 6903   9.725   7.893  10.806 -0.2089 -0.2805  0.4814
   52MOL0     C 6904   9.801   7.947  10.710  0.4544  0.2034 -0.3637
   52MOL0     C 6905   9.945   7.990  10.724 -0.7978  0.0653 -0.1878
   52MOL0     C 6906   9.984   8.112  10.645  1.0079 -0.0733  0.9996
   52MOL0     C 6907  10.121   8.160  10.676 -0.1351  0.2519 -0.1712
   52MOL0     C 6908  10.145   8.279  10.586  0.7978 -0.1579  0.1629
   52MOL0     O 6909  10.278   8.324  10.606  0.5923  0.0214 -0.0225
   52MOL0     C 6910  10.378   8.278  10.525 -0.2318 -0.4255 -0.5710
   52MOL0     C 6911  10.366   8.191  10.419  0.0049 -0.0267  0.3906
   52MOL0     C 6912  10.481   8.147  10.337  0.5252 -0.1105 -1.1025
   52MOL0     C 6913  10.609   8.197  10.365  0.4986 -0.1696 -0.3390
   52MOL0     C 6914  10.730   8.157  10.294 -0.2668 -0.0705 -0.0827
   52MOL0     O 6915  10.836   8.248  10.282  0.0522 -0.1182  0.1774
   52MOL0     C 6916  10.959   8.198  10.249 -0.0581  0.6568  0.3087
   52MOL0     C 6917  10.991   8.130  10.128 -0.0524 -0.4719 -0.0319
   52MOL0     C 6918  11.124   8.096  10.102  0.9091  0.5872  0.1435
   52MOL0     C 6919  11.223   8.130  10.196 -0.4115  0.4438 -0.2722
   52MOL0     O 6920  11.348   8.075  10.177  0.4203  0.2753 -0.1752
   52MOL0     C 6921  11.468   8.142  10.223 -0.3049  0.6151 -0.2818
   52MOL0     C 6922  11.580   8.119  10.125 -0.6636  0.6465  0.4340
   52MOL0     C 6923  11.655   7.987  10.151  0.3535 -0.4292 -0.0759
   52MOL0     C 6924  11.747   8.009  10.271  0.1881  0.5489 -0.3372
   52MOL0     C 6925  11.831   7.881  10.300  0.3718  0.3577 -0.0515
   52MOL0     C 6926  11.961   7.914  10.391  1.0454 -0.2240  0.1135
   52MOL0     C 6927  12.079   7.821  10.388 -0.5077  0.4252  0.2823
   52MOL0     C 6928  12.159   7.836  10.260 -0.7606  0.1665 -0.2712
   52MOL0    Cl 6929  12.322   7.773  10.291  0.1162 -0.0626 -0.2214
   52MOL0     C 6930  11.191   8.190  10.317  0.4478 -0.1867 -0.3315
   52MOL0     C 6931  11.055   8.233  10.340 -0.8160  0.3583 -1.0469
   52MOL0     O 6932  10.730   8.039  10.260 -0.2202  0.2630  1.0274
   52MOL0     C 6933  10.623   8.298  10.463  0.1937  0.7661 -0.7310
   52MOL0     C 6934  10.514   8.328  10.546  1.9315  0.1883  0.3227
   52MOL0     N 6935   9.711   7.994  10.606 -0.0414  0.0370 -0.2078
   52MOL0     N 6936   9.591   7.952  10.637  0.2757 -0.6206  0.2139
   52MOL0     C 6937   8.768   7.311  10.623  0.2490 -0.9059 -0.2448
   52MOL0     C 6938   8.631   7.330  10.636  0.5470 -0.7182 -1.3260
   52MOL0     C 6939   8.199   7.242  10.818 -0.0197 -0.7665  0.6313
   52MOL0     C 6940   8.161   7.310  10.697 -0.4340  0.1591 -0.6206
   52MOL0     C 6941   8.030   7.352  10.666  0.3299  0.9942  0.3256
   52MOL0     C 6942   7.924   7.322  10.760 -0.2661 -0.1314 -0.3930
   52MOL0     O 6943   7.788   7.359  10.751 -0.0862  0.5957 -0.1546
   52MOL0     C 6944   7.740   7.324  10.623 -0.2261  0.1036  0.1090
   52MOL0     C 6945   7.612   7.400  10.597  0.6546 -0.8497 -0.2607
   52MOL0     C 6946   7.491   7.309  10.638 -0.7184  0.6185  0.0776
   52MOL0     C 6947   7.361   7.382  10.648  0.2462 -0.3182 -0.0966
   52MOL0     C 6948   7.236   7.309  10.629 -0.6654 -0.4029  0.0219
   52MOL0     C 6949   7.132   7.259  10.594 -0.6064  0.3889 -0.4606
   52MOL0     C 6950   7.962   7.283  10.885 -0.3586 -0.1474  0.2566
   52MOL0     C 6951   8.093   7.235  10.915 -0.2100  0.1614 -0.7389
   52MOL0     C 6952   8.108   7.176  11.047  0.8248  0.5368 -0.7911
   52MOL0     H 6953   8.593   7.197  10.955 -0.3050  0.3518 -0.0361
   52MOL0     H 6954   8.843   7.173  10.923 -0.8771  2.6666  1.3443
   52MOL0     H 6955   8.996   7.058  10.782 -2.5612  1.5395 -0.7677
   52MOL0     H 6956   9.136   7.117  10.685 -0.5420  1.5516 -2.0978
   52MOL0     H 6957   9.194   7.130  10.913 -0.3632  0.0818  1.3848
   52MOL0     H 6958   9.043   7.213  10.954  1.5181 -0.3067 -0.4070
   52MOL0     H 6959   9.094   7.402  10.850  0.3148  0.7335  1.0186
   52MOL0     H 6960   9.245   7.342  10.783 -0.5673 -1.1318  0.0437
   52MOL0     H 6961   9.188   7.427  11.061  0.3451 -4.0197  1.7423
   52MOL0     H 6962   9.309   7.305  11.052 -0.6871  1.4467  3.2215
   52MOL0     H 6963   9.452   7.493  11.040 -0.8400  0.5439  0.4879
   52MOL0     H 6964   9.455   7.404  10.891 -0.1681  0.2912 -1.3981
   52MOL0     H 6965   9.283   7.591  10.813 -1.5463  0.1854  2.0516
   52MOL0     H 6966   9.326   7.686  10.961  0.2910  0.4905 -0.3874
   52MOL0     H 6967   9.509   7.619  10.734  0.3356 -0.4807  0.5475
   52MOL0     H 6968   9.579   7.646  10.892  0.4297 -0.3035  0.3236
   52MOL0     H 6969   9.395   7.842  10.755  0.2162 -2.0706 -0.9386
   52MOL0     H 6970   9.475   7.861  10.914 -3.8792  2.3059 -1.2972
   52MOL0     H 6971   9.754   7.886  10.911 -0.6201 -1.3057  0.5419
   52MOL0     H 6972   9.959   8.018  10.828 -0.9334  2.9190 -0.8532
   52MOL0     H 6973   9.998   7.897  10.698 -3.6530 -1.3258 -1.5995
   52MOL0     H 6974   9.985   8.093  10.538  0.1308  1.0515  0.7718
   52MOL0     H 6975   9.904   8.184  10.665 -1.8807 -2.7078 -0.2083
   52MOL0     H 6976  10.198   8.086  10.653 -0.6358 -1.0737  2.0872
   52MOL0     H 6977  10.131   8.185  10.782 -1.6310 -0.4765  0.1740
   52MOL0     H 6978  10.079   8.360  10.620  0.1716 -0.4729 -0.2812
   52MOL0     H 6979  10.114   8.264  10.482 -0.7830 -1.1451  0.7346
   52MOL0     H 6980  10.269   8.141  10.410  0.4634 -0.9955  0.6783
   52MOL0     H 6981  10.476   8.052  10.285  3.3036 -1.4033  0.7591
   52MOL0     H 6982  10.914   8.097  10.059  1.0691 -0.6347 -1.2331
   52MOL0     H 6983  11.151   8.031  10.019 -2.3836 -0.6972 -0.1010
   52MOL0     H 6984  11.456   8.251  10.218  0.9860  0.8491  0.9941
   52MOL0     H 6985  11.492   8.114  10.326 -1.6856 -4.3136 -1.0477
   52MOL0     H 6986  11.524   8.100  10.033 -0.1480  0.3073  0.1843
   52MOL0     H 6987  11.647   8.206  10.123 -0.9581  0.8980  1.3829
   52MOL0     H 6988  11.589   7.903  10.176  1.0619 -1.5713 -1.8186
   52MOL0     H 6989  11.710   7.951  10.063  1.3085 -1.4631  0.9073
   52MOL0     H 6990  11.696   8.044  10.362  0.3659 -1.8983  0.7938
   52MOL0     H 6991  11.823   8.081  10.241  1.1915 -0.8138 -1.1943
   52MOL0     H 6992  11.863   7.844  10.202  0.4132  1.2531 -0.3853
   52MOL0     H 6993  11.767   7.805  10.346  0.1410 -0.2513 -1.3277
   52MOL0     H 6994  12.003   8.011  10.364 -1.0070  0.8124  0.4732
   52MOL0     H 6995  11.919   7.921  10.492 -3.4793 -1.4941 -1.4486
   52MOL0     H 6996  12.043   7.720  10.410  1.7146 -0.1062  1.9124
   52MOL0     H 6997  12.145   7.849  10.471 -0.1774  0.7946 -0.1009
   52MOL0     H 6998  12.114   7.796  10.168  0.7440  0.2345 -1.0809
   52MOL0     H 6999  12.171   7.944  10.254  0.8162  0.3296  3.2330
   52MOL0     H 7000  11.265   8.200  10.396 -1.0489  0.2501  1.0756
   52MOL0     H 7001  11.034   8.285  10.432  2.3404  4.2457 -2.2424
   52MOL0     H 7002  10.720   8.341  10.483  0.6111  0.7203 -2.4634
   52MOL0     H 7003  10.530   8.395  10.630  2.0789  0.6269 -0.0484
   52MOL0     H 7004   8.816   7.337  10.530  1.7804 -4.2251 -0.5471
   52MOL0     H 7005   8.565   7.375  10.563  0.0105  4.4827  1.8921
   52MOL0     H 7006   8.247   7.317  10.632  0.7376  0.4154  0.8864
   52MOL0     H 7007   8.002   7.394  10.570  0.5972 -0.2887 -0.3404
   52MOL0     H 7008   7.725   7.215  10.625 -4.2426  0.5159  0.0725
   52MOL0     H 7009   7.805   7.347  10.539 -0.9594 -1.3014 -0.8911
   52MOL0     H 7010   7.607   7.437  10.495 -0.0607  1.5910  0.5888
   52MOL0     H 7011   7.604   7.494  10.653 -1.0499 -0.9118 -0.3683
   52MOL0     H 7012   7.516   7.262  10.734  0.1507 -0.1613 -0.5187
   52MOL0     H 7013   7.473   7.233  10.562  0.1897  1.7270 -1.3082
   52MOL0     H 7014   7.359   7.445  10.738 -3.1201  0.5990 -0.6647
   52MOL0     H 7015   7.367   7.452  10.564  1.2242  0.7507  0.8181
   52MOL0     H 7016   7.033   7.230  10.566 -0.0144 -0.0355 -2.2325
   52MOL0     H 7017   7.880   7.285  10.956 -0.3611  0.4185  0.2435
   52MOL0     H 7018   8.150   7.075  11.042  1.5901  0.4243  3.7659
   52MOL0     H 7019   8.170   7.246  11.104 -2.1557  0.4687  2.9154
   52MOL0     H 7020   8.011   7.169  11.097  0.0929 -4.3925 -2.3127
   53MOL0     O 7021   2.284   4.103   0.998  0.0184 -0.1556  0.4169
   53MOL0     C 7022   2.318   3.981   0.993  0.1628 -0.3603 -0.2967
   53MOL0     O 7023   2.397   3.915   1.084 -0.7844 -0.5324 -0.1290
   53MOL0     C 7024   2.452   3.998   1.187  0.8581  0.0287  0.3936
   53MOL0     C 7025   2.572   4.065   1.156 -0.1959  0.0683 -0.0504
   53MOL0     C 7026   2.632   4.139   1.250 -0.1088  0.7068 -0.2405
   53MOL0     C 7027   2.590   4.140   1.376  0.0682 -0.5616 -0.3841
   53MOL0     O 7028   2.669   4.190   1.476  0.0299  0.7684 -0.5682
   53MOL0     C 7029   2.701   4.332   1.486  0.2464 -0.3822  0.1888
   53MOL0     C 7030   2.841   4.340   1.421 -1.0003 -1.0078 -0.2228
   53MOL0     C 7031   2.932   4.446   1.498 -0.9237  0.1313  0.5581
   53MOL0     C 7032   3.073   4.458   1.433  0.5440 -0.1300 -0.2809
   53MOL0     C 7033   3.175   4.489   1.541 -0.0328  0.3836  0.1116
   53MOL0     C 7034   3.145   4.633   1.591  0.2425 -0.0488 -0.2371
   53MOL0     C 7035   3.238   4.666   1.711  0.8106  0.0446 -0.3198
   53MOL0     C 7036   3.380   4.715   1.667 -0.2908 -0.1155 -0.3278
   53MOL0     N 7037   3.468   4.721   1.781  0.6517  0.0648  0.3849
   53MOL0     C 7038   3.605   4.701   1.785 -0.0410  0.8448 -0.1838
   53MOL0     C 7039   3.640   4.700   1.915 -0.8401  0.1449  0.1967
   53MOL0     C 7040   3.777   4.700   1.960 -0.5257  0.1467  0.1664
   53MOL0     C 7041   3.840   4.829   1.943 -0.1851  0.0655 -0.2086
   53MOL0     C 7042   3.792   4.927   2.063 -1.0078  0.0920  0.9061
   53MOL0     C 7043   3.874   5.054   2.071 -0.2313  0.0335 -0.8460
   53MOL0     O 7044   4.014   5.025   2.076  0.3176  0.1995 -0.2556
   53MOL0     C 7045   4.102   5.130   2.052 -0.4500  0.2234  0.0664
   53MOL0     C 7046   4.229   5.096   2.013 -0.5560 -0.2510  0.3114
   53MOL0     C 7047   4.329   5.187   1.993 -0.2609 -0.5707  0.7681
   53MOL0     C 7048   4.301   5.323   2.009 -0.2989 -0.4680  0.2310
   53MOL0     C 7049   4.412   5.423   2.003  0.2559  0.8953 -0.5508
   53MOL0     O 7050   4.379   5.549   2.035  0.4925 -0.0958 -0.3507
   53MOL0     C 7051   4.475   5.653   2.035  0.3777  0.6069 -1.5266
   53MOL0     C 7052   4.463   5.756   2.132  0.5831  0.1304  0.4591
   53MOL0     C 7053   4.567   5.845   2.153  0.2709  0.0018 -0.1062
   53MOL0     C 7054   4.686   5.836   2.075  0.1278  1.2208  0.1678
   53MOL0     O 7055   4.792   5.924   2.103  0.5442 -0.2023  0.6452
   53MOL0     C 7056   4.864   5.991   1.997  0.9573 -0.4202  0.0652
   53MOL0     C 7057   5.006   6.000   2.044  0.3427 -0.0254 -0.0010
   53MOL0     C 7058   5.066   6.116   1.959  0.2019 -0.5122  0.1259
   53MOL0     C 7059   5.201   6.146   2.015  0.2776 -0.2245 -0.6232
   53MOL0     C 7060   5.266   6.271   1.968  0.0199 -0.2869 -0.0244
   53MOL0     C 7061   5.349   6.265   1.834  1.2052  0.0639 -0.1564
   53MOL0     C 7062   5.402   6.409   1.783  0.2352 -0.5256 -0.6539
   53MOL0     C 7063   5.444   6.407   1.636  0.5586 -0.4073 -0.1542
   53MOL0    Cl 7064   5.308   6.367   1.524 -0.1405 -0.2077  0.3745
   53MOL0     C 7065   4.691   5.744   1.971 -0.2944 -0.6671  0.3359
   53MOL0     C 7066   4.592   5.648   1.954  0.5509 -1.0156 -0.8764
   53MOL0     O 7067   4.524   5.384   1.986  0.6003  0.3231 -0.5232
   53MOL0     C 7068   4.168   5.357   2.030 -0.1855  0.4213 -0.4469
   53MOL0     C 7069   4.069   5.265   2.061 -0.5972  0.0938  0.5730
   53MOL0     N 7070   3.530   4.741   1.982 -0.4257 -0.0295 -0.0994
   53MOL0     N 7071   3.426   4.758   1.903 -0.7467 -0.5535  0.5039
   53MOL0     C 7072   2.470   4.065   1.409 -0.5547  0.1786  0.3969
   53MOL0     C 7073   2.401   3.995   1.312 -0.1613 -0.0030  0.6941
   53MOL0     C 7074   2.251   3.895   0.888 -0.4237 -0.0467  0.3839
   53MOL0     C 7075   2.126   3.936   0.838 -0.3108  0.2384 -0.6386
   53MOL0     C 7076   2.056   3.865   0.738  0.4083  1.1942 -0.2824
   53MOL0     C 7077   2.116   3.750   0.677  0.1571 -0.3568  0.6374
   53MOL0     O 7078   2.059   3.674   0.574  0.4250  0.1952  0.3752
   53MOL0     C 7079   1.916   3.685   0.556 -0.8004 -0.7614  0.4913
   53MOL0     C 7080   1.897   3.589   0.441 -1.0636 -0.0668 -0.5822
   53MOL0     C 7081   1.752   3.555   0.407 -0.5518 -0.0448 -0.0932
   53MOL0     C 7082   1.648   3.660   0.426 -0.5016  0.0388 -0.2645
   53MOL0     C 7083   1.513   3.619   0.375  0.0335  0.9789 -0.1510
   53MOL0     C 7084   1.400   3.608   0.341  0.1067  0.5163  0.8425
   53MOL0     C 7085   2.240   3.707   0.729  0.9599  0.1479  0.3389
   53MOL0     C 7086   2.311   3.779   0.830  0.1646  0.4421  0.2137
   53MOL0     C 7087   2.451   3.716   0.862  0.1586 -0.3413  0.2705
   53MOL0     H 7088   2.613   4.065   1.056 -0.7263  3.2327 -0.3828
   53MOL0     H 7089   2.714   4.202   1.218 -0.2519  0.5843 -0.8612
   53MOL0     H 7090   2.628   4.400   1.441  0.0938 -0.3944  0.4107
   53MOL0     H 7091   2.712   4.367   1.589 -0.3323  1.1484 -0.2427
   53MOL0     H 7092   2.836   4.363   1.314  0.6954 -1.8641 -0.5248
   53MOL0     H 7093   2.875   4.236   1.424 -0.6920 -0.8931  0.4595
   53MOL0     H 7094   2.929   4.413   1.602  0.6847 -3.1680 -0.2974
   53MOL0     H 7095   2.882   4.543   1.491  0.0822  0.5561 -3.0606
   53MOL0     H 7096   3.106   4.362   1.394 -1.4380 -1.2147  0.5745
   53MOL0     H 7097   3.066   4.542   1.363 -0.9309  0.9311  1.0481
   53MOL0     H 7098   3.167   4.417   1.622  1.0391 -0.3887 -0.4368
   53MOL0     H 7099   3.280   4.482   1.511 -0.3623 -1.2925 -0.7499
   53MOL0     H 7100   3.153   4.711   1.515 -0.4960 -0.6613 -0.9576
   53MOL0     H 7101   3.046   4.636   1.638  1.0391 -1.5279  1.6801
   53MOL0     H 7102   3.252   4.576   1.771  2.4884  0.6153  0.2225
   53MOL0     H 7103   3.198   4.745   1.776 -0.3005  0.1837 -1.1463
   53MOL0     H 7104   3.421   4.640   1.600  1.4986  0.2272  0.3414
   53MOL0     H 7105   3.388   4.811   1.615  1.7157  1.4053  2.5203
   53MOL0     H 7106   3.653   4.676   1.690 -0.2329 -3.3238  0.6286
   53MOL0     H 7107   3.773   4.687   2.069 -2.1799  0.4586  0.1597
   53MOL0     H 7108   3.834   4.618   1.914  0.4771 -0.1965  1.9275
   53MOL0     H 7109   3.948   4.818   1.933 -0.1924  1.2185 -1.9227
   53MOL0     H 7110   3.806   4.875   1.850 -0.5131 -1.2677 -0.7707
   53MOL0     H 7111   3.819   4.877   2.157  5.8416  0.2271 -0.4712
   53MOL0     H 7112   3.688   4.960   2.057 -0.1625  2.8992  0.3749
   53MOL0     H 7113   3.842   5.114   2.157 -0.1275  0.5915 -1.1947
   53MOL0     H 7114   3.849   5.107   1.979 -2.4184 -1.0146 -0.9117
   53MOL0     H 7115   4.261   4.992   2.010  1.4114  0.3392 -2.2476
   53MOL0     H 7116   4.433   5.160   1.978  0.1882  2.0930 -1.7800
   53MOL0     H 7117   4.372   5.760   2.190  1.3344  0.3641  1.6611
   53MOL0     H 7118   4.561   5.920   2.231 -2.6816  2.2825 -2.2654
   53MOL0     H 7119   4.861   5.938   1.901 -0.4914 -1.7772  0.8068
   53MOL0     H 7120   4.814   6.087   1.977 -1.4217 -2.0807 -2.9706
   53MOL0     H 7121   5.013   6.014   2.152  0.1528 -0.9609  0.1357
   53MOL0     H 7122   5.054   5.907   2.013  0.4778 -0.4067  1.3116
   53MOL0     H 7123   5.074   6.090   1.853 -3.3070  0.9542 -0.6257
   53MOL0     H 7124   5.005   6.207   1.959  0.8694 -0.0003  2.7631
   53MOL0     H 7125   5.273   6.067   1.990 -0.4472 -0.5126 -1.8579
   53MOL0     H 7126   5.199   6.163   2.123  2.9294  0.6665 -0.6479
   53MOL0     H 7127   5.335   6.305   2.046  0.1235 -0.1793 -0.1631
   53MOL0     H 7128   5.189   6.344   1.943 -1.2019 -0.8809  1.8013
   53MOL0     H 7129   5.439   6.206   1.858  2.8172  2.7330  0.8745
   53MOL0     H 7130   5.296   6.220   1.750  2.0191 -2.3352  0.5154
   53MOL0     H 7131   5.483   6.435   1.851  0.0370 -0.7318 -0.3332
   53MOL0     H 7132   5.324   6.485   1.789  1.0777  0.3093 -0.0411
   53MOL0     H 7133   5.493   6.501   1.611 -0.2826  0.3312  0.8848
   53MOL0     H 7134   5.517   6.327   1.625  1.3781  0.0814  1.5153
   53MOL0     H 7135   4.785   5.745   1.918 -1.1551 -0.5281 -1.2418
   53MOL0     H 7136   4.599   5.574   1.875 -0.5622 -2.1103 -0.0007
   53MOL0     H 7137   4.144   5.461   2.050  0.7763  0.8701 -1.5155
   53MOL0     H 7138   3.966   5.291   2.084 -0.4930  2.0009 -0.9195
   53MOL0     H 7139   2.450   4.047   1.514 -0.7184 -3.1700 -0.1005
   53MOL0     H 7140   2.316   3.931   1.333 -0.9169  1.0952  1.0444
   53MOL0     H 7141   2.093   4.030   0.880  1.6644  1.0236 -0.7166
   53MOL0     H 7142   1.965   3.895   0.687  2.5486 -0.1154 -5.5810
   53MOL0     H 7143   1.883   3.783   0.520  0.0244  0.2117  2.2238
   53MOL0     H 7144   1.867   3.664   0.652 -0.3466  0.1313  0.9322
   53MOL0     H 7145   1.946   3.495   0.468 -0.5750  0.6956  1.3172
   53MOL0     H 7146   1.946   3.639   0.357  0.1978 -1.8787 -0.9777
   53MOL0     H 7147   1.732   3.473   0.476  1.9283 -1.7069 -1.2116
   53MOL0     H 7148   1.741   3.512   0.307 -2.1631  0.4506 -0.1625
   53MOL0     H 7149   1.640   3.682   0.533  0.7845  1.5583 -0.4629
   53MOL0     H 7150   1.684   3.755   0.386  3.8947 -1.3317 -0.0338
   53MOL0     H 7151   1.307   3.571   0.303  1.2740 -1.1131 -0.5885
   53MOL0     H 7152   2.290   3.625   0.679  0.7194 -0.3273  0.8635
   53MOL0     H 7153   2.447   3.614   0.823 -1.6003  0.5463 -2.1437
   53MOL0     H 7154   2.514   3.772   0.792 -1.0545  2.2952  1.1764
   53MOL0     H 7155   2.496   3.731   0.960 -0.6593  0.6712  0.5047
   54MOL0     O 7156   9.644   0.262  10.768 -0.5305  0.1623  0.4311
   54MOL0     C 7157   9.598   0.337  10.852 -0.1985  0.4955 -0.6374
   54MOL0     O 7158   9.679   0.423  10.934 -0.0472 -0.0104 -0.2020
   54MOL0     C 7159   9.805   0.449  10.911 -0.7833 -0.1373  0.0309
   54MOL0     C 7160   9.917   0.369  10.947  0.5811 -0.5608 -0.0328
   54MOL0     C 7161  10.047   0.398  10.907 -0.4290  0.3232 -0.0144
   54MOL0     C 7162  10.076   0.503  10.817  0.0224 -0.7799 -0.0200
   54MOL0     O 7163  10.208   0.512  10.776  0.5638  0.5418 -0.3860
   54MOL0     C 7164  10.245   0.634  10.711 -0.4194 -0.4162  0.9430
   54MOL0     C 7165  10.378   0.621  10.648  0.1037  0.7388 -0.7065
   54MOL0     C 7166  10.491   0.592  10.755 -0.2421  0.1560  0.0203
   54MOL0     C 7167  10.629   0.623  10.687  0.4984  0.5670 -0.1757
   54MOL0     C 7168  10.743   0.641  10.788  0.5014 -0.8985  0.3122
   54MOL0     C 7169  10.883   0.654  10.723  0.8710 -0.2798  0.2219
   54MOL0     C 7170  10.937   0.520  10.687  0.4084  0.4555  0.2957
   54MOL0     C 7171  11.086   0.497  10.731 -0.1951 -0.3919  0.3552
   54MOL0     N 7172  11.190   0.557  10.646 -0.2334  0.1709  0.2297
   54MOL0     C 7173  11.299   0.495  10.602 -0.0850 -0.4801  0.4546
   54MOL0     C 7174  11.379   0.592  10.549 -0.8610 -0.4851  0.6007
   54MOL0     C 7175  11.519   0.574  10.495 -0.5646 -0.2953  0.2911
   54MOL0     C 7176  11.518   0.619  10.347 -1.0007  0.2214  0.3973
   54MOL0     C 7177  11.569   0.768  10.335 -0.4327  0.5397  0.5143
   54MOL0     C 7178  11.562   0.816  10.184  0.4060  0.2706 -0.0132
   54MOL0     O 7179  11.652   0.747  10.096  0.0708  0.8539 -0.3268
   54MOL0     C 7180  11.785   0.780  10.101 -0.1501 -0.7015 -0.2625
   54MOL0     C 7181  11.826   0.914  10.073  0.5013  0.3192  0.2647
   54MOL0     C 7182  11.957   0.939  10.051  0.6609  0.5338 -0.9980
   54MOL0     C 7183  12.052   0.838  10.042 -0.4881 -0.2078 -0.0100
   54MOL0     C 7184  12.198   0.866  10.016  0.6528 -0.9425  0.7293
   54MOL0     O 7185  12.282   0.764  10.035 -0.1244  0.5428  0.0520
   54MOL0     C 7186  12.416   0.770   9.990 -0.3951  0.4559 -0.2388
   54MOL0     C 7187  12.465   0.844   9.880 -0.4820 -0.0449  0.8657
   54MOL0     C 7188  12.595   0.831   9.842  0.4249  0.5702 -0.0604
   54MOL0     C 7189  12.683   0.749   9.912  0.0407 -0.0788  0.9678
   54MOL0     O 7190  12.803   0.736   9.853 -0.2235 -0.3923  0.3705
   54MOL0     C 7191  12.881   0.620   9.878  0.5406  0.2641 -0.2605
   54MOL0     C 7192  13.007   0.615   9.789  0.3670 -0.3209  1.1859
   54MOL0     C 7193  13.089   0.744   9.801  0.1584  0.4418 -0.8923
   54MOL0     C 7194  13.220   0.757   9.724 -0.8886  0.3791  0.6431
   54MOL0     C 7195  13.326   0.660   9.784  0.2383 -0.4309 -0.3307
   54MOL0     C 7196  13.460   0.710   9.748 -0.3198 -0.1420 -0.5060
   54MOL0     C 7197  13.469   0.745   9.597  0.4666 -0.4950 -0.2036
   54MOL0     C 7198  13.607   0.747   9.542 -0.5531  0.1392 -0.0667
   54MOL0    Cl 7199  13.706   0.884   9.599 -0.0902  0.2163  0.1745
   54MOL0     C 7200  12.635   0.676  10.024 -0.1124  0.4269 -0.9079
   54MOL0     C 7201  12.503   0.691  10.064 -0.6402 -0.0094  0.8244
   54MOL0     O 7202  12.223   0.980   9.993  1.0934  0.1614  0.8008
   54MOL0     C 7203  12.011   0.707  10.077  0.2296 -0.4064 -0.0158
   54MOL0     C 7204  11.879   0.674  10.102 -0.2348 -1.0160  0.6250
   54MOL0     N 7205  11.305   0.714  10.570 -0.3775  0.1443 -0.0173
   54MOL0     N 7206  11.194   0.690  10.636 -0.2590 -0.9383  0.7482
   54MOL0     C 7207   9.965   0.582  10.787  0.6682 -0.5196  0.6356
   54MOL0     C 7208   9.832   0.557  10.824 -0.3535  0.6895 -0.4574
   54MOL0     C 7209   9.453   0.331  10.873 -0.0559  0.3414 -0.0631
   54MOL0     C 7210   9.370   0.288  10.773 -0.6357  1.0125  0.3944
   54MOL0     C 7211   9.230   0.282  10.783  0.1624 -0.6580  0.6841
   54MOL0     C 7212   9.166   0.335  10.893 -0.1995  0.1675 -0.5931
   54MOL0     O 7213   9.032   0.353  10.887  0.5331  0.3571 -0.5061
   54MOL0     C 7214   8.968   0.474  10.944 -0.4306  0.4795 -0.6323
   54MOL0     C 7215   8.833   0.438  11.019  0.3410  0.4445  0.4656
   54MOL0     C 7216   8.778   0.556  11.097 -0.5484 -0.3655  0.5949
   54MOL0     C 7217   8.626   0.541  11.092  0.5501 -0.0981 -0.4803
   54MOL0     C 7218   8.571   0.658  11.156  0.0039 -0.3563  0.6818
   54MOL0     C 7219   8.507   0.756  11.188 -0.0659  0.9902  0.3527
   54MOL0     C 7220   9.245   0.377  10.997  0.2015 -0.3229 -0.3941
   54MOL0     C 7221   9.384   0.372  10.989 -0.6035  0.6338 -0.0490
   54MOL0     C 7222   9.446   0.420  11.114 -0.4678 -0.2088 -0.3378
   54MOL0     H 7223   9.893   0.288  11.015 -0.0062  1.6397  2.5673
   54MOL0     H 7224  10.118   0.332  10.955 -2.5014  0.0002  2.8945
   54MOL0     H 7225  10.176   0.667  10.632 -1.7439 -3.1682  0.8330
   54MOL0     H 7226  10.258   0.707  10.792  0.0129  1.3733 -0.6674
   54MOL0     H 7227  10.391   0.711  10.587  0.6058  0.3841 -1.1367
   54MOL0     H 7228  10.390   0.545  10.571 -2.2435 -0.4913  0.0470
   54MOL0     H 7229  10.484   0.485  10.780  1.0886 -0.2846 -1.3663
   54MOL0     H 7230  10.480   0.656  10.843 -0.6739 -1.2266  1.0190
   54MOL0     H 7231  10.650   0.544  10.614  2.4714  1.9493 -1.1908
   54MOL0     H 7232  10.619   0.721  10.640 -3.5805 -0.3363 -1.5278
   54MOL0     H 7233  10.718   0.734  10.839  0.6086  0.4156 -1.9010
   54MOL0     H 7234  10.745   0.563  10.864  1.6221  1.4610  2.8426
   54MOL0     H 7235  10.873   0.712  10.630 -0.2584 -1.6025 -0.5164
   54MOL0     H 7236  10.946   0.712  10.791 -0.7337  2.2445 -0.3086
   54MOL0     H 7237  10.930   0.498  10.580  1.6322 -0.1805  0.3201
   54MOL0     H 7238  10.875   0.439  10.725  0.2111  0.2809 -0.3892
   54MOL0     H 7239  11.084   0.541  10.831  0.9165  1.0231 -0.2067
   54MOL0     H 7240  11.119   0.393  10.735 -1.7128 -0.9786 -1.1010
   54MOL0     H 7241  11.316   0.389  10.618 -3.6388 -1.0416  1.4319
   54MOL0     H 7242  11.591   0.630  10.554 -1.4833  3.0334 -1.5124
   54MOL0     H 7243  11.550   0.469  10.500  0.6428  0.0874  4.5602
   54MOL0     H 7244  11.582   0.558  10.281 -2.5909  2.0447 -3.1173
   54MOL0     H 7245  11.422   0.622  10.296 -1.3471  1.2508  1.0933
   54MOL0     H 7246  11.674   0.766  10.366 -0.9615 -0.6247  2.4074
   54MOL0     H 7247  11.519   0.840  10.400 -0.7244  0.9804 -0.1940
   54MOL0     H 7248  11.580   0.924  10.192 -2.6573  0.7640  2.1578
   54MOL0     H 7249  11.460   0.801  10.149  1.0557  0.3146 -2.0299
   54MOL0     H 7250  11.750   0.990  10.064  0.5837  0.7340  2.4225
   54MOL0     H 7251  11.992   1.040  10.038  0.2096  0.5979 -1.8250
   54MOL0     H 7252  12.403   0.902   9.812  0.1478 -1.1559 -0.7239
   54MOL0     H 7253  12.641   0.874   9.754  0.9265 -0.4909 -0.3375
   54MOL0     H 7254  12.910   0.607   9.983 -0.2355  2.9611  0.3488
   54MOL0     H 7255  12.817   0.534   9.857  1.5364 -0.8354  0.9474
   54MOL0     H 7256  13.070   0.530   9.817 -1.6060 -2.8859 -1.5630
   54MOL0     H 7257  12.978   0.592   9.687  1.9522 -1.7740  1.0150
   54MOL0     H 7258  13.026   0.827   9.767 -3.9853 -1.6198  1.0629
   54MOL0     H 7259  13.112   0.747   9.908 -1.4362  0.4561 -0.5160
   54MOL0     H 7260  13.248   0.863   9.735  0.4503  0.1138 -0.0673
   54MOL0     H 7261  13.212   0.742   9.616 -0.0912  0.5293  0.5609
   54MOL0     H 7262  13.321   0.560   9.739 -0.1162 -0.4163 -0.3265
   54MOL0     H 7263  13.310   0.648   9.892 -3.6302  1.5181 -0.5335
   54MOL0     H 7264  13.486   0.798   9.807 -0.8348  0.2338 -0.8308
   54MOL0     H 7265  13.531   0.628   9.765 -1.1325 -1.0914 -1.5791
   54MOL0     H 7266  13.420   0.841   9.578  1.8208  0.2376 -0.1233
   54MOL0     H 7267  13.415   0.666   9.543 -1.9032  1.1228 -0.3632
   54MOL0     H 7268  13.662   0.655   9.567 -0.1371  0.1545 -0.8920
   54MOL0     H 7269  13.604   0.751   9.433 -0.4793 -0.9415 -0.1184
   54MOL0     H 7270  12.689   0.601  10.080 -1.5185  0.5217  0.6438
   54MOL0     H 7271  12.467   0.635  10.150  1.8220 -1.4730  0.9947
   54MOL0     H 7272  12.083   0.626  10.072  0.8172  0.1021  0.1058
   54MOL0     H 7273  11.853   0.569  10.102 -3.0775 -0.4019  1.3342
   54MOL0     H 7274   9.979   0.659  10.712  1.1506 -3.0452 -2.1071
   54MOL0     H 7275   9.753   0.614  10.776 -0.2319  0.2185 -1.2359
   54MOL0     H 7276   9.411   0.254  10.679  1.3846  0.5277  1.3922
   54MOL0     H 7277   9.168   0.249  10.700 -0.6191  3.0055 -0.4049
   54MOL0     H 7278   8.956   0.550  10.867 -0.5660  0.6615 -0.4289
   54MOL0     H 7279   9.029   0.522  11.020 -0.7336 -0.1083 -0.0061
   54MOL0     H 7280   8.868   0.364  11.092 -0.3230  1.2698  1.6592
   54MOL0     H 7281   8.765   0.390  10.948 -1.4864  0.9289  1.8108
   54MOL0     H 7282   8.795   0.648  11.040 -2.2782  0.7417  1.7849
   54MOL0     H 7283   8.807   0.567  11.202 -2.7127  3.6795  0.9521
   54MOL0     H 7284   8.594   0.545  10.987 -1.2515  0.5874  0.0667
   54MOL0     H 7285   8.600   0.441  11.127  0.8954 -0.3804 -1.0146
   54MOL0     H 7286   8.451   0.847  11.203 -1.0037  1.9173 -5.9400
   54MOL0     H 7287   9.200   0.413  11.089  0.1278  0.0776 -0.5835
   54MOL0     H 7288   9.400   0.396  11.210  3.9977 -0.5761  2.0000
   54MOL0     H 7289   9.544   0.372  11.127  0.8362  1.3428 -3.3047
   54MOL0     H 7290   9.471   0.526  11.099 -1.4549 -0.2530 -2.6920
   55MOL0     O 7291   2.564   2.347   5.177 -0.2026  0.5547 -0.3252
   55MOL0     C 7292   2.526   2.441   5.247 -0.3449  0.8053 -0.1948
   55MOL0     O 7293   2.566   2.572   5.230 -0.8634 -0.0736 -0.9074
   55MOL0     C 7294   2.607   2.606   5.103 -0.0528  0.4839 -0.2636
   55MOL0     C 7295   2.526   2.576   4.994 -0.5453  0.8238 -0.0071
   55MOL0     C 7296   2.544   2.629   4.867 -0.3846  0.7241 -0.2357
   55MOL0     C 7297   2.659   2.701   4.843  0.2335  0.1319 -0.6566
   55MOL0     O 7298   2.688   2.762   4.729  0.0950  0.2726 -0.3124
   55MOL0     C 7299   2.809   2.716   4.659  0.8571  0.6012  0.2496
   55MOL0     C 7300   2.768   2.652   4.522  0.3912 -0.2099 -0.8629
   55MOL0     C 7301   2.666   2.533   4.533  0.4861  0.1416  0.5584
   55MOL0     C 7302   2.736   2.418   4.599  0.2847 -0.3872  0.3379
   55MOL0     C 7303   2.652   2.293   4.572  0.3241 -0.5767  0.7467
   55MOL0     C 7304   2.535   2.287   4.672  0.4914  0.1936 -0.2454
   55MOL0     C 7305   2.463   2.153   4.660 -0.3612  0.4583  0.0090
   55MOL0     C 7306   2.403   2.116   4.520 -0.1852  0.2608 -0.1052
   55MOL0     N 7307   2.331   1.986   4.527 -0.0265  0.1041  0.2819
   55MOL0     C 7308   2.307   1.909   4.418  0.2943 -0.0000  0.6427
   55MOL0     C 7309   2.210   1.827   4.463 -0.7291 -0.7638  0.4926
   55MOL0     C 7310   2.153   1.720   4.371 -0.1346  0.1994 -0.2715
   55MOL0     C 7311   2.010   1.672   4.395 -1.9061 -0.0256 -0.1114
   55MOL0     C 7312   1.912   1.786   4.353  0.4660  0.6240 -0.2058
   55MOL0     C 7313   1.781   1.783   4.430  1.4040  0.0055  0.3600
   55MOL0     O 7314   1.680   1.856   4.352  0.6940 -0.9331 -0.4441
   55MOL0     C 7315   1.548   1.849   4.393  1.5295 -0.7845 -0.4315
   55MOL0     C 7316   1.496   1.789   4.510 -0.0497  0.1734 -0.4666
   55MOL0     C 7317   1.359   1.791   4.547  0.2221  0.3314 -0.4862
   55MOL0     C 7318   1.274   1.858   4.452  0.2160 -0.8448 -0.3654
   55MOL0     C 7319   1.128   1.862   4.480  1.1815  0.0680 -0.3830
   55MOL0     O 7320   1.074   1.750   4.547  0.1897 -0.1560  0.3619
   55MOL0     C 7321   0.936   1.755   4.573  0.0885 -0.0606 -0.0292
   55MOL0     C 7322   0.858   1.643   4.541  0.0768 -0.5233  0.4760
   55MOL0     C 7323   0.723   1.639   4.583 -0.1931 -0.2333  0.2646
   55MOL0     C 7324   0.666   1.743   4.662  0.7055  0.3272  0.6521
   55MOL0     O 7325   0.538   1.712   4.704  0.1105  0.5312 -0.0379
   55MOL0     C 7326   0.463   1.826   4.741 -0.8782  0.4259  1.0599
   55MOL0     C 7327   0.322   1.769   4.772 -0.2712 -0.2324  0.3755
   55MOL0     C 7328   0.229   1.850   4.857  0.0338 -0.4189 -0.2940
   55MOL0     C 7329   0.169   1.965   4.776 -0.5974  0.3931  0.2217
   55MOL0     C 7330   0.090   2.076   4.844 -0.7006  0.3874  0.6440
   55MOL0     C 7331  -0.022   2.025   4.926  0.1187 -0.4607  0.1599
   55MOL0     C 7332  -0.116   2.144   4.979  0.2025 -0.5868  0.2049
   55MOL0     C 7333  -0.167   2.264   4.895 -0.0472  0.5597 -0.1597
   55MOL0    Cl 7334  -0.194   2.207   4.738 -0.2506  0.3853  0.1975
   55MOL0     C 7335   0.746   1.856   4.691  0.5677 -1.0402  0.3028
   55MOL0     C 7336   0.880   1.866   4.643  0.6185 -0.7725 -0.8005
   55MOL0     O 7337   1.060   1.958   4.434 -0.1020  0.1506 -0.2010
   55MOL0     C 7338   1.322   1.917   4.334  0.3770 -0.6667  0.2171
   55MOL0     C 7339   1.460   1.915   4.304 -0.0307  0.2668 -0.6659
   55MOL0     N 7340   2.180   1.855   4.588 -0.8685 -0.0452 -1.4555
   55MOL0     N 7341   2.250   1.954   4.624 -0.0273 -0.1153  0.2714
   55MOL0     C 7342   2.744   2.739   4.958  0.6324  0.3078  0.3681
   55MOL0     C 7343   2.715   2.694   5.082  0.0449  0.3157 -0.6381
   55MOL0     C 7344   2.460   2.396   5.378  0.0245 -0.3131 -0.2267
   55MOL0     C 7345   2.448   2.494   5.467  0.4249 -0.2784 -0.6279
   55MOL0     C 7346   2.385   2.473   5.586 -0.2353  0.5578 -0.7242
   55MOL0     C 7347   2.330   2.355   5.618  0.4635 -0.6819  0.5239
   55MOL0     O 7348   2.247   2.352   5.725  0.9207  0.1588  0.1974
   55MOL0     C 7349   2.174   2.231   5.752 -0.3366 -0.3603  0.0234
   55MOL0     C 7350   2.046   2.216   5.666  0.0896  1.1736 -0.1357
   55MOL0     C 7351   1.951   2.109   5.721  0.7078 -0.5208  0.6019
   55MOL0     C 7352   2.004   1.961   5.726  0.1586  0.6171  0.3397
   55MOL0     C 7353   2.056   1.920   5.590 -0.4332  0.0840 -0.2513
   55MOL0     C 7354   2.081   1.893   5.476 -0.3887 -0.1259  0.8042
   55MOL0     C 7355   2.347   2.250   5.533 -0.2882  0.3616  0.5726
   55MOL0     C 7356   2.420   2.261   5.410 -0.3061 -0.8313 -0.1190
   55MOL0     C 7357   2.422   2.150   5.311 -0.6476 -0.5361  0.6365
   55MOL0     H 7358   2.436   2.518   5.012  2.1782 -2.7668  3.9948
   55MOL0     H 7359   2.477   2.595   4.789  0.4647 -1.4671 -0.0976
   55MOL0     H 7360   2.865   2.804   4.629  0.1247  0.5392 -1.4350
   55MOL0     H 7361   2.878   2.656   4.719  1.3904  1.2776  0.3141
   55MOL0     H 7362   2.859   2.615   4.474 -0.2071 -3.6198  0.3501
   55MOL0     H 7363   2.722   2.735   4.467 -2.7181 -0.7722  0.6358
   55MOL0     H 7364   2.645   2.503   4.430  3.4048 -1.0338  0.2066
   55MOL0     H 7365   2.580   2.556   4.595  0.4078  1.7656 -0.1137
   55MOL0     H 7366   2.836   2.412   4.555 -1.2611 -1.2138 -3.5835
   55MOL0     H 7367   2.737   2.435   4.707  1.7273 -0.1022  0.2886
   55MOL0     H 7368   2.617   2.307   4.469  3.1748  2.0753 -0.0404
   55MOL0     H 7369   2.716   2.205   4.568 -0.9628 -1.5016 -1.8222
   55MOL0     H 7370   2.569   2.305   4.775 -1.6968  1.0562  0.3890
   55MOL0     H 7371   2.467   2.369   4.646 -0.2060 -0.6034 -0.9999
   55MOL0     H 7372   2.385   2.156   4.736  0.8395 -1.8190  1.4363
   55MOL0     H 7373   2.526   2.073   4.698 -0.9397  0.4289  0.9317
   55MOL0     H 7374   2.324   2.190   4.501 -2.2815 -1.9137 -0.3000
   55MOL0     H 7375   2.470   2.118   4.434 -1.7274 -0.6215 -1.3831
   55MOL0     H 7376   2.358   1.920   4.323 -0.4696  0.6422  0.2937
   55MOL0     H 7377   2.153   1.755   4.268 -0.9399  2.2143  0.3665
   55MOL0     H 7378   2.225   1.638   4.384  0.5313  0.0792 -3.8221
   55MOL0     H 7379   1.996   1.577   4.344 -2.5378 -0.6105  1.1057
   55MOL0     H 7380   2.002   1.653   4.503  3.1164  4.2328  1.4608
   55MOL0     H 7381   1.889   1.782   4.246  2.2532 -0.9978 -0.5947
   55MOL0     H 7382   1.965   1.877   4.383  0.7723  1.2688 -2.4723
   55MOL0     H 7383   1.794   1.823   4.531  3.7005  0.7909 -0.2019
   55MOL0     H 7384   1.757   1.676   4.434  0.5308  0.2039  0.7086
   55MOL0     H 7385   1.568   1.739   4.574 -0.6122 -0.0963 -0.0471
   55MOL0     H 7386   1.318   1.747   4.637 -0.8407  1.6757 -0.2807
   55MOL0     H 7387   0.909   1.555   4.502 -0.0803 -0.1565 -0.5931
   55MOL0     H 7388   0.652   1.561   4.558 -1.5122  1.0123 -0.0443
   55MOL0     H 7389   0.508   1.877   4.826  0.2141  2.6843 -0.7464
   55MOL0     H 7390   0.470   1.896   4.657  4.1160  0.4415  1.1992
   55MOL0     H 7391   0.282   1.727   4.679 -0.2334 -1.6974  1.0028
   55MOL0     H 7392   0.351   1.692   4.844  1.6457  0.9093  0.9091
   55MOL0     H 7393   0.143   1.790   4.887 -0.0084 -0.1794  0.0694
   55MOL0     H 7394   0.275   1.890   4.948 -0.0337  2.9258 -1.5772
   55MOL0     H 7395   0.103   1.919   4.702 -3.3143 -0.1662  2.8240
   55MOL0     H 7396   0.247   2.018   4.720 -1.3062  1.8990  0.6260
   55MOL0     H 7397   0.044   2.132   4.762 -0.3054  0.4013  0.4261
   55MOL0     H 7398   0.150   2.145   4.906 -0.6004  0.7072  0.1962
   55MOL0     H 7399  -0.081   1.956   4.865 -1.0923 -1.2255  2.0909
   55MOL0     H 7400   0.020   1.969   5.010 -1.2180 -0.2163  1.0327
   55MOL0     H 7401  -0.065   2.179   5.069 -1.6915 -1.8453  1.8328
   55MOL0     H 7402  -0.208   2.098   5.015 -0.2297 -1.1753 -1.5612
   55MOL0     H 7403  -0.264   2.293   4.936  1.0572  0.8762  2.4687
   55MOL0     H 7404  -0.097   2.348   4.893 -1.0154  1.4385 -3.9731
   55MOL0     H 7405   0.704   1.931   4.756 -0.0412 -2.8463  2.0683
   55MOL0     H 7406   0.932   1.955   4.675 -0.5102 -0.8439  1.4004
   55MOL0     H 7407   1.247   1.962   4.269 -0.1552 -1.0092  0.5905
   55MOL0     H 7408   1.505   1.954   4.213 -1.7294  2.0616 -0.8169
   55MOL0     H 7409   2.836   2.795   4.937  0.7895  0.2230  0.8333
   55MOL0     H 7410   2.771   2.725   5.170 -2.2086 -0.1850  1.0894
   55MOL0     H 7411   2.499   2.586   5.442 -1.8326  1.2666  0.1574
   55MOL0     H 7412   2.373   2.555   5.656 -1.9590  1.0323 -1.5283
   55MOL0     H 7413   2.148   2.221   5.858  0.9808 -0.5808  0.3510
   55MOL0     H 7414   2.238   2.142   5.747  0.0324 -0.0528 -0.9216
   55MOL0     H 7415   2.062   2.197   5.559  0.5548 -0.3470  0.1726
   55MOL0     H 7416   1.985   2.307   5.668 -3.9638 -1.2043 -2.5964
   55MOL0     H 7417   1.857   2.098   5.666  1.0637 -2.9798  0.3628
   55MOL0     H 7418   1.912   2.142   5.818 -1.0367  0.7461 -0.4787
   55MOL0     H 7419   2.080   1.953   5.804  1.0398 -0.0450 -0.5812
   55MOL0     H 7420   1.926   1.893   5.763  1.5843 -0.4380  1.5209
   55MOL0     H 7421   2.106   1.865   5.375 -0.9496  2.9845 -0.3109
   55MOL0     H 7422   2.304   2.151   5.544  2.5325 -1.2064 -1.2864
   55MOL0     H 7423   2.367   2.179   5.221  2.4170 -0.7790 -1.4632
   55MOL0     H 7424   2.520   2.116   5.278 -0.7751  0.3561 -0.7486
   55MOL0     H 7425   2.386   2.058   5.357  0.9829 -0.5209  2.0440
   56MOL0     O 7426   9.400   0.288   8.433 -0.3084  0.1253  0.3630
   56MOL0     C 7427   9.346   0.399   8.419 -0.0710 -0.0210  0.4281
   56MOL0     O 7428   9.406   0.518   8.424  0.5414 -0.0936  0.6104
   56MOL0     C 7429   9.542   0.527   8.409  0.4476 -0.6201  0.0819
   56MOL0     C 7430   9.596   0.588   8.296 -0.6361  0.4388 -0.2900
   56MOL0     C 7431   9.733   0.609   8.284  0.3263 -0.8614 -0.2725
   56MOL0     C 7432   9.817   0.555   8.381  1.1117  0.5410 -0.0412
   56MOL0     O 7433   9.953   0.550   8.358 -0.3234  0.2416 -0.7977
   56MOL0     C 7434  10.037   0.529   8.464 -0.1962  0.5923 -0.8160
   56MOL0     C 7435  10.177   0.564   8.415 -0.2473 -0.0323  0.8119
   56MOL0     C 7436  10.276   0.580   8.526  0.2390  0.1617 -0.2587
   56MOL0     C 7437  10.417   0.616   8.477 -0.3029  0.5194  0.0243
   56MOL0     C 7438  10.519   0.639   8.595 -0.4215  0.1492  0.7199
   56MOL0     C 7439  10.662   0.663   8.560 -0.0638  0.1874  0.5031
   56MOL0     C 7440  10.738   0.685   8.689 -0.2404  0.2978  0.8293
   56MOL0     C 7441  10.893   0.652   8.660  0.4542 -0.0818 -1.4775
   56MOL0     N 7442  10.954   0.755   8.571  0.6425 -0.2902  0.4577
   56MOL0     C 7443  10.962   0.886   8.601  0.3138  0.1835 -0.2395
   56MOL0     C 7444  11.018   0.936   8.489  0.4337  0.8043 -0.1033
   56MOL0     C 7445  11.046   1.080   8.446  0.1917  0.0044  0.4773
   56MOL0     C 7446  11.143   1.162   8.535  0.8488  0.6604  1.1692
   56MOL0     C 7447  11.293   1.123   8.520 -0.4881  0.4159 -0.3957
   56MOL0     C 7448  11.370   1.203   8.621  0.1733 -0.2725  0.9364
   56MOL0     O 7449  11.503   1.228   8.570 -0.0992  0.3451 -0.1875
   56MOL0     C 7450  11.589   1.114   8.555 -0.2790 -0.2495  0.0124
   56MOL0     C 7451  11.657   1.087   8.434  0.3945 -0.1113  0.2186
   56MOL0     C 7452  11.724   0.962   8.411 -0.1926 -0.5038  0.5128
   56MOL0     C 7453  11.739   0.877   8.521  0.0253 -0.1207  0.4394
   56MOL0     C 7454  11.824   0.755   8.512 -0.1287  0.2351 -0.2383
   56MOL0     O 7455  11.860   0.718   8.386 -0.2121  0.2422  0.1575
   56MOL0     C 7456  11.963   0.631   8.373  0.1070 -0.1053  0.0085
   56MOL0     C 7457  12.091   0.655   8.422  0.2534  0.4124  0.5927
   56MOL0     C 7458  12.198   0.572   8.385 -0.0215  0.2060  0.1515
   56MOL0     C 7459  12.177   0.455   8.309 -0.6001 -0.9054 -0.3666
   56MOL0     O 7460  12.285   0.368   8.291 -0.0136 -0.1135  0.2200
   56MOL0     C 7461  12.282   0.290   8.172 -0.3686  0.1857 -0.0834
   56MOL0     C 7462  12.421   0.229   8.150 -0.5029  0.2855  0.2318
   56MOL0     C 7463  12.453   0.099   8.234 -0.0126 -0.3967 -0.3508
   56MOL0     C 7464  12.602   0.054   8.203  0.9045 -0.2250 -0.6268
   56MOL0     C 7465  12.648  -0.067   8.295  0.4672  0.0168  0.4602
   56MOL0     C 7466  12.730  -0.016   8.416 -0.3859 -0.1796 -0.5083
   56MOL0     C 7467  12.877   0.004   8.369 -0.1217 -0.7484 -0.3228
   56MOL0     C 7468  12.968   0.047   8.479 -0.3642 -0.7710 -0.6225
   56MOL0    Cl 7469  13.143   0.042   8.429 -0.4287 -0.2287  0.5706
   56MOL0     C 7470  12.046   0.427   8.262  0.5297  0.4561  0.0228
   56MOL0     C 7471  11.948   0.518   8.289  0.6854 -0.3270  0.2087
   56MOL0     O 7472  11.859   0.693   8.613  0.3032 -0.9831 -0.1527
   56MOL0     C 7473  11.671   0.906   8.641  0.8649  0.1248 -0.5224
   56MOL0     C 7474  11.608   1.028   8.662 -0.4008 -0.1252  0.0630
   56MOL0     N 7475  11.028   0.839   8.395 -0.1107  0.5725 -0.3211
   56MOL0     N 7476  10.987   0.725   8.443  0.2453 -0.5546  0.3451
   56MOL0     C 7477   9.759   0.484   8.486  0.2452  0.1404 -0.5001
   56MOL0     C 7478   9.621   0.475   8.507  0.3492  0.2522 -0.1231
   56MOL0     C 7479   9.203   0.415   8.441  0.3720  0.5746 -1.2272
   56MOL0     C 7480   9.138   0.532   8.404 -0.0231  0.6808 -0.1155
   56MOL0     C 7481   9.006   0.559   8.435  0.9580  0.2972 -0.2353
   56MOL0     C 7482   8.915   0.459   8.470  0.2185 -0.0854  0.0913
   56MOL0     O 7483   8.781   0.485   8.484 -0.0849 -0.0447  0.1591
   56MOL0     C 7484   8.705   0.532   8.369 -0.0001 -0.0860 -0.7518
   56MOL0     C 7485   8.598   0.630   8.416 -0.2664  0.5920  0.9472
   56MOL0     C 7486   8.501   0.666   8.300 -1.2024 -0.3380  0.0580
   56MOL0     C 7487   8.381   0.749   8.354  0.1336 -0.3251  0.3263
   56MOL0     C 7488   8.267   0.738   8.261 -0.5552 -0.6471  0.4209
   56MOL0     C 7489   8.164   0.724   8.194  0.3446  0.1515  0.2174
   56MOL0     C 7490   8.976   0.325   8.488  0.4562 -1.0235 -0.5174
   56MOL0     C 7491   9.113   0.309   8.482 -0.2092  0.1549  0.1739
   56MOL0     C 7492   9.155   0.168   8.516 -0.2815  0.6072  0.0978
   56MOL0     H 7493   9.530   0.631   8.221  0.7476 -0.6068 -2.2031
   56MOL0     H 7494   9.774   0.662   8.199 -2.1862  1.9819  0.0988
   56MOL0     H 7495  10.022   0.596   8.550 -0.3337 -0.3633 -0.0858
   56MOL0     H 7496  10.046   0.428   8.504  1.4034  1.7499  2.0943
   56MOL0     H 7497  10.171   0.651   8.350 -2.1341 -0.6124  0.1279
   56MOL0     H 7498  10.208   0.485   8.345 -0.9148 -0.8485  1.4133
   56MOL0     H 7499  10.278   0.486   8.582  0.6246  0.7048  0.6628
   56MOL0     H 7500  10.245   0.665   8.587 -0.5645 -0.3506  0.0636
   56MOL0     H 7501  10.463   0.537   8.417  1.0896 -1.3452  3.3265
   56MOL0     H 7502  10.407   0.701   8.408 -1.0144  1.2754  1.0199
   56MOL0     H 7503  10.478   0.727   8.647 -1.8416  0.3020 -0.5937
   56MOL0     H 7504  10.503   0.558   8.666 -1.5796  0.7951  1.2378
   56MOL0     H 7505  10.702   0.585   8.494 -2.3107  0.0030 -0.7179
   56MOL0     H 7506  10.666   0.752   8.496 -0.2829 -0.5439 -0.5440
   56MOL0     H 7507  10.707   0.617   8.769  4.5315 -2.4563  0.6960
   56MOL0     H 7508  10.720   0.786   8.727  0.5210  1.1094 -0.8662
   56MOL0     H 7509  10.949   0.641   8.753 -1.0494 -3.6108 -0.8259
   56MOL0     H 7510  10.897   0.554   8.611 -0.4802 -0.9018  0.0067
   56MOL0     H 7511  10.934   0.938   8.692  0.7443  3.4483 -1.8593
   56MOL0     H 7512  11.087   1.096   8.345  5.8087 -2.8639  1.8882
   56MOL0     H 7513  10.947   1.126   8.456 -0.8288 -2.0507  0.3426
   56MOL0     H 7514  11.121   1.265   8.505 -2.4680  0.4288  2.3587
   56MOL0     H 7515  11.112   1.155   8.640  1.8673 -3.2000  1.3407
   56MOL0     H 7516  11.339   1.139   8.422  0.7645  2.6858  0.4885
   56MOL0     H 7517  11.296   1.015   8.539  0.9783  0.3914 -0.6691
   56MOL0     H 7518  11.366   1.158   8.721  0.3877 -1.1878  0.5421
   56MOL0     H 7519  11.325   1.301   8.637 -1.5997 -0.1681 -3.4548
   56MOL0     H 7520  11.649   1.177   8.373  0.4988  1.5077  2.4719
   56MOL0     H 7521  11.772   0.948   8.315 -2.4745  1.3302 -1.0173
   56MOL0     H 7522  12.114   0.750   8.468  2.0042 -0.2341  1.1264
   56MOL0     H 7523  12.302   0.596   8.403  0.2055 -1.0087  0.5601
   56MOL0     H 7524  12.208   0.209   8.177 -0.0665 -0.0077  2.2686
   56MOL0     H 7525  12.265   0.348   8.081 -0.7671 -1.2777 -0.9882
   56MOL0     H 7526  12.433   0.194   8.047 -2.5357 -3.2671  1.0317
   56MOL0     H 7527  12.491   0.311   8.172 -0.8923  0.3063  1.4962
   56MOL0     H 7528  12.444   0.119   8.341 -0.1280  0.3576 -0.5012
   56MOL0     H 7529  12.395   0.011   8.203  1.3570 -1.2796 -0.5363
   56MOL0     H 7530  12.667   0.141   8.214 -1.0657  1.4879 -1.7580
   56MOL0     H 7531  12.597   0.023   8.098 -2.2420  0.9782 -0.9664
   56MOL0     H 7532  12.724  -0.123   8.239  3.4300  3.8367  0.2116
   56MOL0     H 7533  12.560  -0.126   8.321 -0.2452  0.3025 -1.1300
   56MOL0     H 7534  12.690   0.069   8.471  0.9429 -1.0867  2.0357
   56MOL0     H 7535  12.731  -0.093   8.494 -0.2464 -0.4784 -0.7994
   56MOL0     H 7536  12.881   0.083   8.294  4.0353 -0.6166 -0.1448
   56MOL0     H 7537  12.920  -0.090   8.334 -1.6784 -1.5072 -0.3271
   56MOL0     H 7538  12.930   0.147   8.505 -0.9622 -1.1639  0.0516
   56MOL0     H 7539  12.961  -0.017   8.568  0.5403 -0.4469 -0.3098
   56MOL0     H 7540  12.022   0.334   8.210 -0.1076  0.5383  0.1635
   56MOL0     H 7541  11.850   0.497   8.248  0.3456 -1.2438  1.4373
   56MOL0     H 7542  11.675   0.838   8.726 -1.1634 -0.1336 -0.5756
   56MOL0     H 7543  11.537   1.043   8.743 -2.2671  0.3705 -1.5798
   56MOL0     H 7544   9.817   0.425   8.556 -1.8064 -1.0807  0.2389
   56MOL0     H 7545   9.585   0.426   8.597 -0.5877 -0.3389 -0.7953
   56MOL0     H 7546   9.206   0.609   8.369  0.5690  1.1134  1.8448
   56MOL0     H 7547   8.976   0.662   8.425 -0.9946 -0.3423 -1.5529
   56MOL0     H 7548   8.662   0.438   8.335 -0.4236 -0.3935  0.5813
   56MOL0     H 7549   8.772   0.583   8.299 -0.3273 -3.1097 -3.4791
   56MOL0     H 7550   8.643   0.720   8.458  0.2587  1.0263 -0.4963
   56MOL0     H 7551   8.546   0.590   8.504 -0.4373  0.3609  0.7446
   56MOL0     H 7552   8.466   0.573   8.254  1.6107 -0.8088 -1.2967
   56MOL0     H 7553   8.560   0.721   8.227 -1.0549 -2.7924 -1.7709
   56MOL0     H 7554   8.342   0.702   8.445 -0.6128 -2.2830 -0.9271
   56MOL0     H 7555   8.407   0.854   8.372 -1.3304  0.3883 -1.4429
   56MOL0     H 7556   8.081   0.709   8.128  0.7487  3.7741 -1.3990
   56MOL0     H 7557   8.913   0.241   8.514  2.1891 -1.4238  2.9544
   56MOL0     H 7558   9.195   0.122   8.426 -2.3737  1.1971 -1.1786
   56MOL0     H 7559   9.244   0.164   8.580  1.3959 -1.4376 -2.1984
   56MOL0     H 7560   9.069   0.111   8.553  0.4302 -0.0217  0.8319
   57MOL0     O 7561   5.041   3.947   0.322 -0.2280  0.0921 -0.3146
   57MOL0     C 7562   4.974   4.040   0.310  0.5719 -0.3955 -0.0950
   57MOL0     O 7563   5.021   4.166   0.321 -0.5598 -0.1346 -0.4295
   57MOL0     C 7564   5.157   4.184   0.329 -0.9704 -0.1661 -0.0226
   57MOL0     C 7565   5.263   4.105   0.279  0.4803  0.5882  0.1278
   57MOL0     C 7566   5.391   4.121   0.320  0.2972 -0.0524  0.0255
   57MOL0     C 7567   5.428   4.226   0.400 -0.2866 -0.5931 -0.7299
   57MOL0     O 7568   5.554   4.263   0.446 -1.1749 -0.2121  0.1052
   57MOL0     C 7569   5.674   4.201   0.390 -0.0985 -0.4129 -0.3172
   57MOL0     C 7570   5.797   4.294   0.419  0.6522  0.2507 -0.0182
   57MOL0     C 7571   5.933   4.231   0.381  0.5898 -0.5377  0.2798
   57MOL0     C 7572   6.061   4.315   0.397  0.3733  0.2774  0.0110
   57MOL0     C 7573   6.184   4.228   0.375  0.3281 -0.0533  0.4835
   57MOL0     C 7574   6.312   4.310   0.396 -0.6307  0.6425  0.2849
   57MOL0     C 7575   6.432   4.217   0.364  0.4634  0.6710  0.2345
   57MOL0     C 7576   6.553   4.315   0.368  0.2291 -0.0162  0.7585
   57MOL0     N 7577   6.674   4.250   0.314 -0.4134 -0.7954  0.4416
   57MOL0     C 7578   6.711   4.235   0.182 -0.6672 -0.1650 -0.2174
   57MOL0     C 7579   6.816   4.154   0.180  0.7173  1.0046  0.3701
   57MOL0     C 7580   6.889   4.105   0.056 -0.4061 -1.0595 -0.2426
   57MOL0     C 7581   6.986   4.210   0.005  0.2261  0.3279  0.2624
   57MOL0     C 7582   7.111   4.158  -0.070 -0.2160 -0.3038 -0.8533
   57MOL0     C 7583   7.071   4.158  -0.220 -0.0783 -0.1586  0.3170
   57MOL0     O 7584   7.148   4.065  -0.300  0.1641  0.0298  0.4469
   57MOL0     C 7585   7.279   4.093  -0.333  0.2947  0.5520  0.4235
   57MOL0     C 7586   7.329   4.219  -0.309 -0.6725  0.3246  0.0389
   57MOL0     C 7587   7.459   4.246  -0.340  0.0326 -0.0383  0.8183
   57MOL0     C 7588   7.543   4.157  -0.417  0.9851 -0.0631  0.0536
   57MOL0     C 7589   7.681   4.198  -0.447 -0.6579 -0.8555  0.3243
   57MOL0     O 7590   7.750   4.124  -0.542 -0.1657 -0.0769 -0.0112
   57MOL0     C 7591   7.874   4.173  -0.579 -0.4391  0.5604 -0.7180
   57MOL0     C 7592   7.902   4.304  -0.620  1.0814 -0.0390 -0.8970
   57MOL0     C 7593   8.030   4.342  -0.666 -0.4010 -0.0926 -0.4101
   57MOL0     C 7594   8.137   4.249  -0.668 -0.2285  0.2502 -0.0815
   57MOL0     O 7595   8.265   4.288  -0.711  1.2322 -0.4507 -0.0864
   57MOL0     C 7596   8.326   4.213  -0.813 -0.1669  0.7018  0.5570
   57MOL0     C 7597   8.262   4.267  -0.941  0.0194 -0.3002 -0.2976
   57MOL0     C 7598   8.304   4.189  -1.067  0.3966  0.0239 -0.3478
   57MOL0     C 7599   8.281   4.279  -1.189  0.0245 -0.4401  1.0901
   57MOL0     C 7600   8.277   4.181  -1.309 -0.7548 -0.0508  0.0584
   57MOL0     C 7601   8.335   4.258  -1.429  0.4894 -0.4481 -0.3671
   57MOL0     C 7602   8.336   4.167  -1.547  0.5172  0.2585 -0.4332
   57MOL0     C 7603   8.333   4.256  -1.676 -0.0535  1.0334 -0.2376
   57MOL0    Cl 7604   8.492   4.329  -1.688 -0.5121  0.2808 -0.6038
   57MOL0     C 7605   8.109   4.114  -0.630 -0.0852 -1.2482 -0.2528
   57MOL0     C 7606   7.975   4.073  -0.599 -0.5917  0.1003  0.7134
   57MOL0     O 7607   7.723   4.309  -0.403  0.4786  0.0503  0.3835
   57MOL0     C 7608   7.483   4.033  -0.448 -0.1361  0.8204  0.6726
   57MOL0     C 7609   7.353   3.996  -0.395 -0.5883 -0.9010 -0.4491
   57MOL0     N 7610   6.861   4.130   0.310  0.5901 -0.0864  0.1983
   57MOL0     N 7611   6.777   4.190   0.390 -0.5447 -0.0224 -0.3246
   57MOL0     C 7612   5.329   4.316   0.441 -1.0336  0.6743  0.4929
   57MOL0     C 7613   5.194   4.295   0.400 -0.2698 -0.1415 -0.4677
   57MOL0     C 7614   4.826   4.022   0.308  0.4818  0.1036  1.1126
   57MOL0     C 7615   4.744   4.134   0.318  0.7507 -0.0892  0.0443
   57MOL0     C 7616   4.609   4.125   0.311  0.0648 -0.5924 -0.0070
   57MOL0     C 7617   4.552   3.997   0.307 -0.0625  0.1945  0.7578
   57MOL0     O 7618   4.415   3.966   0.295  0.5419 -0.5084 -0.2697
   57MOL0     C 7619   4.313   4.069   0.298 -0.4802  0.0096 -0.2380
   57MOL0     C 7620   4.169   4.013   0.303 -0.1294 -1.0705 -0.0688
   57MOL0     C 7621   4.149   3.908   0.184 -0.1277 -0.2195 -0.4242
   57MOL0     C 7622   3.998   3.887   0.169  0.0961  1.0661 -0.6679
   57MOL0     C 7623   3.927   4.005   0.138 -0.2048  0.4325 -1.0598
   57MOL0     C 7624   3.868   4.106   0.117  0.4254  0.3839 -0.1911
   57MOL0     C 7625   4.628   3.889   0.314 -0.5379 -0.9437 -0.2623
   57MOL0     C 7626   4.765   3.892   0.298 -0.1742 -0.4681 -0.3235
   57MOL0     C 7627   4.842   3.764   0.265  0.3292  0.3593  0.3524
   57MOL0     H 7628   5.261   4.033   0.197 -2.8203  1.4502 -0.7268
   57MOL0     H 7629   5.459   4.044   0.285  1.0991  0.8674 -0.5279
   57MOL0     H 7630   5.693   4.103   0.435  2.7518 -0.6586 -1.8275
   57MOL0     H 7631   5.664   4.185   0.283 -0.2412 -1.5334 -0.1421
   57MOL0     H 7632   5.802   4.311   0.527  2.3721 -1.7389  0.2603
   57MOL0     H 7633   5.778   4.391   0.372  0.2614  0.2554  0.1408
   57MOL0     H 7634   5.929   4.196   0.278  0.5587  0.2407  0.0115
   57MOL0     H 7635   5.941   4.157   0.462 -1.1773 -0.1815  0.8273
   57MOL0     H 7636   6.057   4.397   0.324 -0.4058  1.6774  1.5635
   57MOL0     H 7637   6.066   4.360   0.497 -1.2418 -0.2709  0.3693
   57MOL0     H 7638   6.192   4.151   0.452  5.3304 -0.4245 -0.0946
   57MOL0     H 7639   6.181   4.184   0.275  1.7937  0.9488 -0.0414
   57MOL0     H 7640   6.313   4.394   0.327 -0.3198 -0.0723 -0.6041
   57MOL0     H 7641   6.313   4.341   0.501 -2.9896 -0.5981  0.7453
   57MOL0     H 7642   6.418   4.169   0.266  0.6901  3.9349 -1.5378
   57MOL0     H 7643   6.451   4.141   0.440  0.5898  3.1612  2.8309
   57MOL0     H 7644   6.530   4.406   0.311 -0.0960 -0.8671 -0.5155
   57MOL0     H 7645   6.573   4.343   0.472  1.2876 -1.2976  0.9214
   57MOL0     H 7646   6.671   4.281   0.093  0.7058  0.7109 -0.4083
   57MOL0     H 7647   6.955   4.022   0.084  2.6495  1.6921  1.4737
   57MOL0     H 7648   6.814   4.075  -0.018 -2.6077  3.1578 -0.0346
   57MOL0     H 7649   6.924   4.276  -0.057 -1.5000 -0.6023  0.9282
   57MOL0     H 7650   7.021   4.271   0.088 -0.9552 -0.9136  1.7347
   57MOL0     H 7651   7.139   4.058  -0.036 -1.1313 -0.8213 -1.5566
   57MOL0     H 7652   7.184   4.239  -0.065 -3.4759  2.8572 -0.7234
   57MOL0     H 7653   7.073   4.263  -0.249  0.1434  0.4583  2.3675
   57MOL0     H 7654   6.965   4.132  -0.230  0.5901 -3.2195  0.3708
   57MOL0     H 7655   7.286   4.297  -0.247 -1.4392  0.4052 -0.5750
   57MOL0     H 7656   7.487   4.346  -0.309 -0.8252  0.6193 -0.4503
   57MOL0     H 7657   7.818   4.372  -0.612 -0.1764 -1.6467  0.2531
   57MOL0     H 7658   8.032   4.444  -0.703 -1.6827 -0.7891 -2.6271
   57MOL0     H 7659   8.433   4.234  -0.804 -0.3441  1.3593  1.3038
   57MOL0     H 7660   8.303   4.106  -0.815 -0.6723  0.8063  0.7056
   57MOL0     H 7661   8.153   4.275  -0.935 -0.2230 -2.5097 -0.9447
   57MOL0     H 7662   8.303   4.368  -0.951 -0.7194 -0.1562 -2.2824
   57MOL0     H 7663   8.411   4.167  -1.062  0.2713 -0.8826 -1.3871
   57MOL0     H 7664   8.245   4.097  -1.073 -0.1713  0.3014  0.6284
   57MOL0     H 7665   8.360   4.354  -1.197 -1.6507  1.2435 -1.4962
   57MOL0     H 7666   8.185   4.332  -1.185  1.4473  2.2814  1.2132
   57MOL0     H 7667   8.177   4.142  -1.329 -0.9032  0.0230  0.6486
   57MOL0     H 7668   8.339   4.093  -1.291 -0.0184 -0.1653 -2.6179
   57MOL0     H 7669   8.281   4.352  -1.444  1.1299 -0.1076 -0.5495
   57MOL0     H 7670   8.437   4.290  -1.406 -0.8953  3.1753  1.5850
   57MOL0     H 7671   8.249   4.101  -1.540  2.6245 -2.5327  1.4991
   57MOL0     H 7672   8.425   4.104  -1.544  0.4714  0.2043 -0.1986
   57MOL0     H 7673   8.322   4.190  -1.763  0.5020 -3.0026  2.4918
   57MOL0     H 7674   8.247   4.323  -1.664  0.7578  1.9288  0.7438
   57MOL0     H 7675   8.193   4.046  -0.623 -0.9720 -2.4620 -0.9702
   57MOL0     H 7676   7.946   3.971  -0.576  2.0214 -0.3583  2.5034
   57MOL0     H 7677   7.526   3.966  -0.521 -2.3908 -0.1900  0.1865
   57MOL0     H 7678   7.302   3.906  -0.427 -2.7435  0.2648 -0.4216
   57MOL0     H 7679   5.354   4.394   0.511 -0.8589  1.6114 -0.5846
   57MOL0     H 7680   5.112   4.360   0.428  2.0945  2.4905  0.8085
   57MOL0     H 7681   4.778   4.237   0.327 -0.7829  0.4897 -0.5735
   57MOL0     H 7682   4.545   4.213   0.304 -0.7067 -1.2438 -1.8004
   57MOL0     H 7683   4.328   4.141   0.216 -0.3665  0.4551  0.1707
   57MOL0     H 7684   4.320   4.131   0.388 -0.1646 -0.7174  0.2442
   57MOL0     H 7685   4.110   4.105   0.295 -0.6511 -1.2228  1.6750
   57MOL0     H 7686   4.155   3.963   0.399 -0.4666 -0.4931  0.1912
   57MOL0     H 7687   4.203   3.815   0.202  1.6819  0.9824  0.7153
   57MOL0     H 7688   4.196   3.948   0.093  0.5809 -0.1668 -0.0440
   57MOL0     H 7689   3.973   3.814   0.092 -1.7678  0.5444  0.3741
   57MOL0     H 7690   3.959   3.838   0.259  0.4611  1.8021 -0.0953
   57MOL0     H 7691   3.839   4.206   0.094  2.0681  0.8560 -0.3611
   57MOL0     H 7692   4.575   3.795   0.318 -1.7643 -0.3832 -2.1765
   57MOL0     H 7693   4.919   3.738   0.338  1.6240  0.2804 -1.0003
   57MOL0     H 7694   4.777   3.677   0.258  0.4264  0.2888  0.3250
   57MOL0     H 7695   4.892   3.770   0.168 -0.1830 -0.8346 -0.0053
   58MOL0     O 7696   1.629   6.495   8.949  0.2783  0.5341 -0.2087
   58MOL0     C 7697   1.580   6.388   8.906  0.3779 -0.1538  0.0536
   58MOL0     O 7698   1.646   6.264   8.886 -0.2643 -1.2883 -0.4358
   58MOL0     C 7699   1.776   6.245   8.931  0.4381  0.3347  0.1032
   58MOL0     C 7700   1.806   6.123   8.988 -0.0688  0.2182  0.3617
   58MOL0     C 7701   1.932   6.100   9.040  0.3297 -0.2096 -0.8031
   58MOL0     C 7702   2.031   6.197   9.035 -0.0222  1.0825 -0.8806
   58MOL0     O 7703   2.151   6.157   9.086  0.1619 -0.1367 -0.7151
   58MOL0     C 7704   2.234   6.264   9.133 -0.5158 -0.2630 -0.0207
   58MOL0     C 7705   2.356   6.212   9.215  0.1506  0.3957  0.8299
   58MOL0     C 7706   2.434   6.098   9.151 -0.1456  0.0028  0.2314
   58MOL0     C 7707   2.576   6.080   9.201 -0.3898  0.1697  0.2316
   58MOL0     C 7708   2.576   6.062   9.354  0.3236 -0.5327  0.0490
   58MOL0     C 7709   2.708   5.983   9.389  0.2747  0.6295  1.1429
   58MOL0     C 7710   2.719   5.930   9.538  0.0117 -0.7620 -0.3400
   58MOL0     C 7711   2.687   6.042   9.641  0.2116  0.3891  0.1817
   58MOL0     N 7712   2.705   5.995   9.782 -0.5994  0.4273  0.1846
   58MOL0     C 7713   2.794   5.903   9.826 -0.3888  0.4377 -0.0330
   58MOL0     C 7714   2.795   5.908   9.959  0.6454 -0.4536 -0.4870
   58MOL0     C 7715   2.885   5.836  10.055 -0.5811  0.4013  0.3614
   58MOL0     C 7716   2.954   5.923  10.163 -0.0250  0.5191  0.0651
   58MOL0     C 7717   3.053   6.026  10.096 -0.0222 -0.4394  0.4207
   58MOL0     C 7718   3.128   6.109  10.206  0.1287 -0.3185  0.5486
   58MOL0     O 7719   3.205   6.208  10.148 -0.0161 -0.3484  0.4455
   58MOL0     C 7720   3.316   6.249  10.218  0.1189 -0.1778 -0.3536
   58MOL0     C 7721   3.391   6.352  10.159  0.2331  0.2153  0.3399
   58MOL0     C 7722   3.510   6.412  10.209  0.5350  0.4374 -0.6746
   58MOL0     C 7723   3.564   6.360  10.328 -0.0936 -0.4743  0.5827
   58MOL0     C 7724   3.696   6.401  10.385 -0.2378  0.8734 -0.3104
   58MOL0     O 7725   3.719   6.357  10.515  0.2121 -0.6403  0.0531
   58MOL0     C 7726   3.824   6.402  10.588 -0.1617 -0.3512 -0.4422
   58MOL0     C 7727   3.953   6.387  10.546 -0.9380 -0.3368 -0.0153
   58MOL0     C 7728   4.063   6.425  10.622  0.3151 -0.4142  0.4480
   58MOL0     C 7729   4.040   6.481  10.747 -0.9727  0.7333 -0.5155
   58MOL0     O 7730   4.138   6.530  10.826 -0.3437  0.3133 -0.1630
   58MOL0     C 7731   4.279   6.492  10.823 -0.0545  0.0849 -0.2091
   58MOL0     C 7732   4.351   6.525  10.947 -0.5148 -0.6096  0.4401
   58MOL0     C 7733   4.364   6.677  10.951  0.0994 -1.1932  0.2886
   58MOL0     C 7734   4.450   6.707  11.080 -0.5659 -0.9016  0.3820
   58MOL0     C 7735   4.486   6.855  11.100  1.1673  0.3473  0.6444
   58MOL0     C 7736   4.587   6.885  11.208  0.7301  0.4044 -0.3508
   58MOL0     C 7737   4.727   6.823  11.188 -0.0593 -0.3906 -0.4170
   58MOL0     C 7738   4.819   6.890  11.289 -0.2700 -0.0817  0.1476
   58MOL0    Cl 7739   4.991   6.837  11.279  0.2623  0.2884  0.0474
   58MOL0     C 7740   3.914   6.498  10.790  0.0648  0.6486 -0.4089
   58MOL0     C 7741   3.802   6.458  10.716  0.5804  0.1082 -0.9949
   58MOL0     O 7742   3.768   6.470  10.323  0.7089  0.1399  0.2930
   58MOL0     C 7743   3.486   6.261  10.393  0.1487  0.7443  0.3710
   58MOL0     C 7744   3.361   6.214  10.349  0.4191 -0.1848  0.2375
   58MOL0     N 7745   2.710   6.009   9.994  0.6480  0.0620 -0.1319
   58MOL0     N 7746   2.653   6.055   9.892 -0.2419  0.0101  0.3271
   58MOL0     C 7747   2.001   6.321   8.979 -0.4510  0.4798  0.0501
   58MOL0     C 7748   1.876   6.342   8.922 -0.6439  0.7587  0.6033
   58MOL0     C 7749   1.437   6.383   8.869  0.7042  0.4783  0.6775
   58MOL0     C 7750   1.388   6.257   8.824  1.2181 -0.3049 -0.0442
   58MOL0     C 7751   1.266   6.243   8.776  0.5715  0.3290  0.2019
   58MOL0     C 7752   1.180   6.349   8.763 -0.3348  0.5629  0.1196
   58MOL0     O 7753   1.054   6.319   8.713  0.9611 -0.3175 -0.4400
   58MOL0     C 7754   0.961   6.424   8.690  0.3792 -0.5902  0.3931
   58MOL0     C 7755   0.839   6.370   8.618 -0.0979 -0.3266  0.0959
   58MOL0     C 7756   0.719   6.466   8.597  0.5723 -0.3737  0.1143
   58MOL0     C 7757   0.621   6.476   8.720 -0.0598 -0.3694 -0.0897
   58MOL0     C 7758   0.513   6.573   8.686 -0.3115  0.7237 -0.5446
   58MOL0     C 7759   0.427   6.648   8.672  0.8301  0.0488 -0.1832
   58MOL0     C 7760   1.219   6.473   8.816 -0.1831  0.3087  0.1003
   58MOL0     C 7761   1.349   6.492   8.864 -0.4095  0.9773  0.0842
   58MOL0     C 7762   1.372   6.635   8.914  0.0253  0.5173 -0.0109
   58MOL0     H 7763   1.739   6.040   9.005 -0.6388  1.0517  2.5029
   58MOL0     H 7764   1.957   6.004   9.083 -3.4855  0.3402  3.3122
   58MOL0     H 7765   2.271   6.332   9.056 -2.1881  1.2884  0.4597
   58MOL0     H 7766   2.178   6.329   9.200 -0.4975 -0.9451  0.6733
   58MOL0     H 7767   2.313   6.187   9.313 -1.4906 -0.8398 -0.1470
   58MOL0     H 7768   2.430   6.290   9.235  1.4307 -0.6792  0.4364
   58MOL0     H 7769   2.444   6.119   9.045 -1.6568  2.1295  0.4494
   58MOL0     H 7770   2.384   6.003   9.175  1.3263 -0.6097  1.0356
   58MOL0     H 7771   2.612   5.989   9.152  1.9422  0.4552  1.2738
   58MOL0     H 7772   2.649   6.156   9.172 -0.9632  1.3823  1.7695
   58MOL0     H 7773   2.580   6.157   9.408  1.3457 -1.8181  2.3892
   58MOL0     H 7774   2.484   6.016   9.391 -0.3203 -0.6218 -1.5890
   58MOL0     H 7775   2.701   5.893   9.327 -1.2962  2.5156 -1.6774
   58MOL0     H 7776   2.795   6.043   9.360  0.3033  0.6374  1.2464
   58MOL0     H 7777   2.820   5.891   9.553  0.0128  0.2105  3.0650
   58MOL0     H 7778   2.646   5.851   9.556  1.2669 -1.9673 -0.3426
   58MOL0     H 7779   2.759   6.122   9.622  0.7382  0.0583  0.7111
   58MOL0     H 7780   2.589   6.084   9.619  1.3554  1.1265 -4.6389
   58MOL0     H 7781   2.844   5.838   9.755  0.1518  0.0206  0.7084
   58MOL0     H 7782   2.825   5.753  10.093  1.5324  0.1344  3.4382
   58MOL0     H 7783   2.954   5.782   9.989  0.0516  0.8829  0.6250
   58MOL0     H 7784   2.885   5.975  10.230  0.3895  1.7059 -0.3973
   58MOL0     H 7785   3.016   5.861  10.228 -2.1134 -1.2298  0.4875
   58MOL0     H 7786   3.001   6.094  10.028  0.6198 -1.1120 -0.7721
   58MOL0     H 7787   3.130   5.975  10.038 -0.8812  0.6019 -1.7320
   58MOL0     H 7788   3.189   6.031  10.253 -1.2715 -2.3829 -0.9213
   58MOL0     H 7789   3.057   6.160  10.272  0.4164  1.7304 -0.6562
   58MOL0     H 7790   3.355   6.397  10.066  0.6452  0.9195  0.5181
   58MOL0     H 7791   3.552   6.487  10.143 -1.6055  1.3074 -1.1373
   58MOL0     H 7792   3.953   6.355  10.442 -2.0770  1.6476 -0.6861
   58MOL0     H 7793   4.165   6.420  10.585  0.6118  2.2317  0.6952
   58MOL0     H 7794   4.285   6.383  10.815  2.8357  0.2127 -0.9918
   58MOL0     H 7795   4.331   6.534  10.737  0.0603  1.6586  0.5946
   58MOL0     H 7796   4.289   6.476  11.023 -1.4187  1.0626  0.8082
   58MOL0     H 7797   4.448   6.475  10.934  0.3639  1.5315 -2.3417
   58MOL0     H 7798   4.409   6.717  10.860 -0.0059  4.2849  2.2970
   58MOL0     H 7799   4.263   6.718  10.957 -0.6198 -2.8751  0.1977
   58MOL0     H 7800   4.539   6.643  11.078  0.7191  0.8328  0.2341
   58MOL0     H 7801   4.399   6.667  11.168 -0.4565 -0.5337  0.6126
   58MOL0     H 7802   4.391   6.900  11.130 -0.1672 -1.2634 -0.9706
   58MOL0     H 7803   4.517   6.902  11.007 -1.3835  3.4105  1.1863
   58MOL0     H 7804   4.601   6.994  11.208 -0.3879  0.6071 -2.8307
   58MOL0     H 7805   4.550   6.848  11.305 -0.5150  1.5939 -0.3243
   58MOL0     H 7806   4.770   6.841  11.090  2.4641  0.9761  0.8497
   58MOL0     H 7807   4.728   6.714  11.204  0.3978 -0.2528  0.6135
   58MOL0     H 7808   4.815   6.999  11.291 -1.6358 -0.0533 -1.8218
   58MOL0     H 7809   4.778   6.855  11.384  1.7902  1.7014  1.8054
   58MOL0     H 7810   3.903   6.540  10.890  2.8378  1.6259 -0.4193
   58MOL0     H 7811   3.701   6.471  10.755  0.9878  2.4302 -0.5494
   58MOL0     H 7812   3.530   6.216  10.482 -2.4014 -2.0799  0.3550
   58MOL0     H 7813   3.307   6.140  10.408  1.2376 -1.0328 -0.0540
   58MOL0     H 7814   2.071   6.404   8.977 -0.0672  0.1548 -0.4649
   58MOL0     H 7815   1.851   6.428   8.861 -0.1829 -2.0504 -4.0339
   58MOL0     H 7816   1.442   6.163   8.832  0.3202 -1.0408 -1.9586
   58MOL0     H 7817   1.230   6.148   8.738  0.8628  1.0274 -1.9587
   58MOL0     H 7818   1.006   6.496   8.621  0.4464 -2.2255 -1.3509
   58MOL0     H 7819   0.929   6.481   8.778 -1.4331  3.2288 -2.4043
   58MOL0     H 7820   0.794   6.290   8.678 -0.9866  0.0261 -0.0874
   58MOL0     H 7821   0.869   6.318   8.526  1.0598  0.3052  0.0946
   58MOL0     H 7822   0.660   6.423   8.515 -4.0789 -0.4929  3.1453
   58MOL0     H 7823   0.753   6.567   8.572  0.5717 -0.6212 -0.9503
   58MOL0     H 7824   0.571   6.382   8.745 -2.0468  1.5205  3.8900
   58MOL0     H 7825   0.674   6.510   8.810 -1.9165  2.8301 -0.0563
   58MOL0     H 7826   0.348   6.719   8.658 -0.0874 -0.9612 -0.2228
   58MOL0     H 7827   1.147   6.554   8.809 -0.3237  0.0245 -2.5656
   58MOL0     H 7828   1.457   6.668   8.854  0.3436 -2.8935 -1.6565
   58MOL0     H 7829   1.284   6.699   8.910 -0.4079  0.3274  3.2485
   58MOL0     H 7830   1.399   6.638   9.020 -0.0641 -1.1108  0.0903
   59MOL0     O 7831  10.250   8.179   4.720  0.0368 -0.2134 -0.1107
   59MOL0     C 7832  10.216   8.296   4.721  0.0278 -0.0749 -1.0383
   59MOL0     O 7833  10.281   8.398   4.781  0.3592 -0.7341  0.8454
   59MOL0     C 7834  10.408   8.384   4.836 -1.0899  0.5302  0.0025
   59MOL0     C 7835  10.510   8.293   4.795  0.2412 -0.9045 -0.0033
   59MOL0     C 7836  10.631   8.290   4.861 -0.1871  1.0736  0.3100
   59MOL0     C 7837  10.657   8.368   4.973 -0.1503  0.4833 -0.1800
   59MOL0     O 7838  10.768   8.366   5.049  1.1156 -0.3608  0.3415
   59MOL0     C 7839  10.893   8.328   4.974 -0.0109  0.2388 -0.0507
   59MOL0     C 7840  11.019   8.373   5.057 -0.4568 -0.1751  0.2439
   59MOL0     C 7841  11.143   8.400   4.987 -0.1219 -0.3202  0.5999
   59MOL0     C 7842  11.133   8.518   4.883 -0.2039  0.0124  0.6505
   59MOL0     C 7843  11.267   8.543   4.810 -0.4688  0.2357  0.4859
   59MOL0     C 7844  11.397   8.567   4.899 -0.2056  0.1905  0.4135
   59MOL0     C 7845  11.512   8.620   4.806  0.6322 -0.1836  0.0581
   59MOL0     C 7846  11.630   8.659   4.890 -0.8391 -0.4208  0.0375
   59MOL0     N 7847  11.728   8.733   4.801  0.4431  0.2486  0.0467
   59MOL0     C 7848  11.811   8.835   4.844  0.5908  0.1141 -0.1970
   59MOL0     C 7849  11.880   8.865   4.741 -0.1168 -0.2064  0.5319
   59MOL0     C 7850  11.970   8.983   4.735  0.1184 -0.4591 -0.2265
   59MOL0     C 7851  12.114   8.951   4.788  0.0374 -0.4196  0.0925
   59MOL0     C 7852  12.192   9.076   4.827  0.4933 -0.2204  0.1652
   59MOL0     C 7853  12.156   9.124   4.973  0.2504  0.6126  0.7272
   59MOL0     O 7854  12.164   9.265   4.981 -0.8155 -0.8218 -0.3863
   59MOL0     C 7855  12.297   9.308   4.992 -0.1126  0.4102 -0.4813
   59MOL0     C 7856  12.315   9.438   4.954  0.9368 -0.1159 -0.7288
   59MOL0     C 7857  12.434   9.499   4.970  0.2414  0.0196  0.2104
   59MOL0     C 7858  12.546   9.432   5.021 -0.8620  0.1676 -0.7032
   59MOL0     C 7859  12.678   9.496   5.043  0.5305  0.0825  0.7865
   59MOL0     O 7860  12.781   9.423   5.091  0.5751 -0.2321  0.8176
   59MOL0     C 7861  12.909   9.470   5.116 -0.5409 -0.1976  0.8409
   59MOL0     C 7862  12.947   9.601   5.104 -0.4038  0.0652 -0.6635
   59MOL0     C 7863  13.087   9.632   5.122  0.4686  0.0287 -0.1974
   59MOL0     C 7864  13.178   9.532   5.142 -0.3066  0.4270  0.5689
   59MOL0     O 7865  13.310   9.568   5.159 -0.7703 -0.3026  0.0001
   59MOL0     C 7866  13.385   9.504   5.056  0.5320 -0.2687  0.1807
   59MOL0     C 7867  13.537   9.528   5.060 -0.4254  0.2748  0.1635
   59MOL0     C 7868  13.602   9.524   5.207  0.2923  0.2751 -0.9257
   59MOL0     C 7869  13.683   9.656   5.236  0.3064  0.4054 -0.3254
   59MOL0     C 7870  13.707   9.646   5.384  0.2326  0.4150  0.0475
   59MOL0     C 7871  13.778   9.780   5.423  0.2179 -0.6347  0.4908
   59MOL0     C 7872  13.768   9.785   5.579 -0.0855  0.6680  0.3521
   59MOL0     C 7873  13.824   9.910   5.639 -0.1238 -0.0233 -0.1974
   59MOL0    Cl 7874  13.990   9.917   5.596 -0.0825  0.5965  0.1467
   59MOL0     C 7875  13.131   9.406   5.153 -0.6907 -0.6034 -0.5505
   59MOL0     C 7876  12.994   9.369   5.131  0.4139  0.7669  0.8105
   59MOL0     O 7877  12.676   9.616   5.010 -0.0203 -0.1970 -0.2637
   59MOL0     C 7878  12.534   9.295   5.048 -1.0147 -0.1426 -0.5431
   59MOL0     C 7879  12.405   9.230   5.045 -0.5635 -0.3176 -0.1350
   59MOL0     N 7880  11.833   8.784   4.633 -0.8746  0.0411 -0.7145
   59MOL0     N 7881  11.740   8.707   4.672 -0.3703  0.2061  0.3920
   59MOL0     C 7882  10.558   8.462   5.012 -0.5707  1.4672  0.4684
   59MOL0     C 7883  10.441   8.472   4.944  0.1162 -0.4562  0.5389
   59MOL0     C 7884  10.082   8.333   4.666  0.4307 -0.1489  0.4455
   59MOL0     C 7885   9.990   8.395   4.752  0.0679  0.0785  0.3165
   59MOL0     C 7886   9.857   8.418   4.717 -0.5805 -0.3668  0.1652
   59MOL0     C 7887   9.821   8.377   4.593  0.3349  0.3940  0.3488
   59MOL0     O 7888   9.692   8.384   4.558 -0.7843  0.3281  0.2569
   59MOL0     C 7889   9.677   8.487   4.465  0.2633 -0.4449  0.1863
   59MOL0     C 7890   9.531   8.478   4.422  0.0536  0.3936 -0.2010
   59MOL0     C 7891   9.434   8.512   4.533 -0.5308 -0.1771  0.3342
   59MOL0     C 7892   9.289   8.485   4.518 -0.0187  0.2614  0.4660
   59MOL0     C 7893   9.251   8.526   4.377 -0.4503  0.5840  0.2137
   59MOL0     C 7894   9.205   8.548   4.267 -1.1165  0.2672 -0.4393
   59MOL0     C 7895   9.907   8.312   4.505  0.0200  0.1495  0.1238
   59MOL0     C 7896  10.037   8.293   4.542  0.3879  0.5622 -0.0450
   59MOL0     C 7897  10.126   8.214   4.449  0.9144 -0.2743  0.6424
   59MOL0     H 7898  10.488   8.218   4.720  0.8274 -0.9130 -0.1714
   59MOL0     H 7899  10.706   8.216   4.836  0.6145  2.3607 -1.2943
   59MOL0     H 7900  10.888   8.219   4.964 -0.2022 -0.2885  4.0003
   59MOL0     H 7901  10.890   8.379   4.877 -0.1657  0.3557  0.0150
   59MOL0     H 7902  11.043   8.297   5.132  0.2659 -1.6299 -1.4130
   59MOL0     H 7903  10.996   8.467   5.108 -1.0347  0.1481 -0.5947
   59MOL0     H 7904  11.172   8.308   4.934  1.6134  1.4825 -1.8400
   59MOL0     H 7905  11.228   8.432   5.049 -0.7857  2.6867  0.1196
   59MOL0     H 7906  11.059   8.494   4.807 -2.3780  2.7003  1.7452
   59MOL0     H 7907  11.103   8.608   4.938  3.3056  0.3431  2.3055
   59MOL0     H 7908  11.294   8.454   4.754 -1.4712  0.5180 -0.4756
   59MOL0     H 7909  11.250   8.627   4.743 -0.1696  0.9911  1.3268
   59MOL0     H 7910  11.382   8.652   4.967  0.2573  0.9658 -0.4345
   59MOL0     H 7911  11.427   8.473   4.947  0.0601 -1.3098 -2.5042
   59MOL0     H 7912  11.475   8.703   4.746  2.0603  0.1582 -0.3730
   59MOL0     H 7913  11.548   8.537   4.745  0.3975 -1.2387  1.2986
   59MOL0     H 7914  11.599   8.735   4.963 -1.0908 -1.2904  0.8502
   59MOL0     H 7915  11.689   8.580   4.937  0.6890  1.0672  0.6984
   59MOL0     H 7916  11.817   8.878   4.943 -0.2260  2.8550 -1.2574
   59MOL0     H 7917  11.985   9.032   4.639  1.6356  0.3721  0.3949
   59MOL0     H 7918  11.915   9.055   4.796 -2.2664  1.6018 -4.3851
   59MOL0     H 7919  12.111   8.879   4.871  0.5254 -1.6950 -0.9674
   59MOL0     H 7920  12.168   8.891   4.714 -0.9629  1.4058 -2.2282
   59MOL0     H 7921  12.171   9.155   4.755  2.4139  1.7518  1.6670
   59MOL0     H 7922  12.298   9.050   4.836 -0.1318 -2.3287  2.8498
   59MOL0     H 7923  12.204   9.063   5.050  1.8850  0.9080 -0.0116
   59MOL0     H 7924  12.054   9.086   4.986  0.4408 -0.4503 -0.6802
   59MOL0     H 7925  12.241   9.493   4.897  1.1662 -2.0598 -3.0240
   59MOL0     H 7926  12.440   9.604   4.945  0.2373  0.2164  1.0086
   59MOL0     H 7927  12.885   9.690   5.098  1.1257  1.1145 -1.5341
   59MOL0     H 7928  13.119   9.735   5.124  1.2873 -0.2294  0.5273
   59MOL0     H 7929  13.372   9.397   5.073  1.1211 -0.3350  0.2432
   59MOL0     H 7930  13.333   9.533   4.965 -0.1222  0.5158  0.7845
   59MOL0     H 7931  13.589   9.451   5.002  1.7124 -0.3154  2.7037
   59MOL0     H 7932  13.548   9.626   5.012 -2.8752  0.0850 -0.9416
   59MOL0     H 7933  13.521   9.508   5.279 -0.2031  0.8729 -1.3451
   59MOL0     H 7934  13.668   9.437   5.213  1.1200  0.9706  1.0795
   59MOL0     H 7935  13.654   9.749   5.186  0.3462 -0.3862 -1.8830
   59MOL0     H 7936  13.782   9.643   5.192  0.4194  1.4345 -0.4113
   59MOL0     H 7937  13.767   9.555   5.395  0.3732  0.2619 -1.6946
   59MOL0     H 7938  13.616   9.624   5.440  1.0481 -0.4197  1.0946
   59MOL0     H 7939  13.877   9.775   5.377 -0.7967 -1.8249 -1.7466
   59MOL0     H 7940  13.724   9.866   5.384  0.0157 -0.4971  1.0620
   59MOL0     H 7941  13.816   9.695   5.619 -1.9398 -0.3658  0.3820
   59MOL0     H 7942  13.662   9.782   5.604 -0.4584  0.1624 -1.1471
   59MOL0     H 7943  13.764   9.998   5.611 -2.9086 -0.9209  2.3940
   59MOL0     H 7944  13.827   9.910   5.749  0.3690  0.9147 -0.1964
   59MOL0     H 7945  13.206   9.336   5.190  0.6491  0.7073 -0.6728
   59MOL0     H 7946  12.958   9.267   5.142 -0.2840  0.3278 -3.8284
   59MOL0     H 7947  12.624   9.245   5.081 -1.1154 -1.4153 -2.1040
   59MOL0     H 7948  12.397   9.128   5.083 -2.5877 -0.4491 -0.7927
   59MOL0     H 7949  10.589   8.515   5.102  1.2961 -0.7059  1.2133
   59MOL0     H 7950  10.376   8.553   4.975 -0.9894 -0.7918 -0.7699
   59MOL0     H 7951  10.022   8.417   4.854  1.4857 -0.4682  0.0193
   59MOL0     H 7952   9.782   8.468   4.776 -0.2015  0.0967  0.2596
   59MOL0     H 7953   9.732   8.469   4.372 -3.5713 -1.5181 -2.1351
   59MOL0     H 7954   9.700   8.586   4.506  1.8986 -1.3814  1.6513
   59MOL0     H 7955   9.518   8.379   4.375  0.4908 -0.5764  1.6223
   59MOL0     H 7956   9.526   8.560   4.350 -0.7396  0.1259 -0.4643
   59MOL0     H 7957   9.465   8.613   4.561 -1.2050 -0.1860  1.1911
   59MOL0     H 7958   9.470   8.444   4.611  2.2325 -0.1208 -0.7992
   59MOL0     H 7959   9.275   8.380   4.544  4.7315 -0.4538  1.0270
   59MOL0     H 7960   9.230   8.540   4.592 -0.4524 -0.1270  0.4100
   59MOL0     H 7961   9.167   8.582   4.173  0.0334  0.8112 -0.7308
   59MOL0     H 7962   9.865   8.265   4.416 -1.4205 -0.0657  0.8908
   59MOL0     H 7963  10.082   8.194   4.351  0.5967 -1.4034  0.9971
   59MOL0     H 7964  10.223   8.262   4.432  0.7624 -0.0258  0.4663
   59MOL0     H 7965  10.152   8.118   4.494  1.9761 -0.3016 -0.0089
   60MOL0     O 7966   9.989   4.038   8.542 -0.2490  0.7298  0.2480
   60MOL0     C 7967   9.986   3.913   8.549 -0.1062 -0.1689  0.2220
   60MOL0     O 7968  10.097   3.834   8.571  0.4014 -0.3519  1.0078
   60MOL0     C 7969  10.211   3.893   8.607 -0.3003 -1.0117 -0.9712
   60MOL0     C 7970  10.221   3.980   8.719  0.2327 -0.0792 -1.0067
   60MOL0     C 7971  10.348   4.017   8.765 -0.5398 -0.4373  0.6075
   60MOL0     C 7972  10.465   3.980   8.693  0.6584 -0.8095  0.6921
   60MOL0     O 7973  10.590   4.004   8.742 -0.1933  0.3087 -0.4140
   60MOL0     C 7974  10.609   4.004   8.885  0.3703 -0.0709  0.0900
   60MOL0     C 7975  10.754   4.017   8.921  0.2040 -0.0040  0.2890
   60MOL0     C 7976  10.820   4.142   8.884 -0.5037 -0.5030 -0.2359
   60MOL0     C 7977  10.974   4.133   8.918  0.3499  0.4451  0.4405
   60MOL0     C 7978  11.047   4.271   8.911 -0.2254  0.2518  0.1016
   60MOL0     C 7979  11.196   4.243   8.934  0.5768 -0.6298 -0.5800
   60MOL0     C 7980  11.267   4.365   8.971 -0.5184 -0.5341 -0.8110
   60MOL0     C 7981  11.402   4.326   9.040  0.6506 -1.0271 -0.2628
   60MOL0     N 7982  11.466   4.454   9.076 -0.4352 -0.2909 -0.6416
   60MOL0     C 7983  11.561   4.523   9.008  0.2816 -0.1426 -0.2046
   60MOL0     C 7984  11.602   4.622   9.094  0.0387  0.6521  0.5639
   60MOL0     C 7985  11.715   4.721   9.085 -0.2956 -0.0693 -0.5300
   60MOL0     C 7986  11.853   4.665   9.109 -0.3945  1.1867  0.6620
   60MOL0     C 7987  11.960   4.768   9.106  0.5767 -0.1644 -0.3984
   60MOL0     C 7988  12.094   4.699   9.119  0.3993 -0.4435 -0.0236
   60MOL0     O 7989  12.095   4.624   9.239 -0.1793 -0.4161 -0.0655
   60MOL0     C 7990  12.217   4.580   9.283 -0.0577 -0.0965  0.6624
   60MOL0     C 7991  12.224   4.549   9.418 -0.2889 -1.1328  0.9112
   60MOL0     C 7992  12.343   4.509   9.475 -0.0292 -0.2694  0.1064
   60MOL0     C 7993  12.466   4.510   9.405 -0.0865  0.2297 -0.1123
   60MOL0     C 7994  12.594   4.467   9.465  0.9545  0.3607 -0.0132
   60MOL0     O 7995  12.590   4.406   9.587  0.1024  0.8526  0.4605
   60MOL0     C 7996  12.701   4.347   9.638  0.3155 -0.2523 -0.9173
   60MOL0     C 7997  12.707   4.199   9.647  0.0050 -2.1054 -0.0066
   60MOL0     C 7998  12.817   4.134   9.710  0.6173 -0.7075 -0.3000
   60MOL0     C 7999  12.918   4.211   9.771  0.1454 -0.0869  0.4624
   60MOL0     O 8000  13.017   4.133   9.828  0.5402 -0.0724 -0.4782
   60MOL0     C 8001  13.101   4.217   9.914 -0.2752  0.3548 -0.4132
   60MOL0     C 8002  13.210   4.130   9.971  0.2669 -0.2654 -2.0273
   60MOL0     C 8003  13.136   4.019  10.058  0.9925 -0.1815 -0.7043
   60MOL0     C 8004  13.221   3.930  10.157 -0.3434  0.5464 -0.4653
   60MOL0     C 8005  13.126   3.836  10.233  0.4073 -0.7485 -0.5491
   60MOL0     C 8006  13.196   3.695  10.247 -0.1610  0.1353 -0.4064
   60MOL0     C 8007  13.320   3.703  10.346 -0.1888  0.3461 -0.3366
   60MOL0     C 8008  13.378   3.557  10.364 -0.9567 -1.1294  0.5042
   60MOL0    Cl 8009  13.261   3.428  10.401 -0.1693 -0.1956  0.5715
   60MOL0     C 8010  12.911   4.352   9.756  0.5775 -0.6073  0.1653
   60MOL0     C 8011  12.799   4.416   9.702 -0.1414 -1.0115  0.5992
   60MOL0     O 8012  12.695   4.487   9.402  0.3692  0.0888  0.1075
   60MOL0     C 8013  12.462   4.551   9.271  0.6291 -0.2350  0.8595
   60MOL0     C 8014  12.335   4.587   9.202  0.2112  0.7786 -1.1135
   60MOL0     N 8015  11.519   4.612   9.211  0.1240 -0.3989  0.4714
   60MOL0     N 8016  11.443   4.511   9.192  0.2614  0.1450 -0.5810
   60MOL0     C 8017  10.454   3.898   8.582 -0.0433 -0.3778  0.5592
   60MOL0     C 8018  10.329   3.853   8.543  0.4324  0.2415  0.0471
   60MOL0     C 8019   9.852   3.860   8.555 -0.3865  0.2583 -0.1156
   60MOL0     C 8020   9.750   3.946   8.597 -0.5425 -0.0708  0.2349
   60MOL0     C 8021   9.615   3.908   8.604 -0.8266  0.2023  0.3032
   60MOL0     C 8022   9.581   3.771   8.578  0.6560  0.2694  0.5199
   60MOL0     O 8023   9.457   3.721   8.589  0.7284 -0.0305 -0.0575
   60MOL0     C 8024   9.342   3.793   8.621 -0.1737  0.1039 -0.6460
   60MOL0     C 8025   9.221   3.710   8.588 -0.5565 -0.1535 -0.2528
   60MOL0     C 8026   9.235   3.563   8.624 -0.2228  0.5639 -0.6440
   60MOL0     C 8027   9.131   3.468   8.569  0.4756 -0.0959  0.5500
   60MOL0     C 8028   9.135   3.329   8.604 -0.2753 -0.3402 -0.1551
   60MOL0     C 8029   9.159   3.211   8.646  0.3886  0.4289  0.5106
   60MOL0     C 8030   9.686   3.680   8.554 -0.0743  0.4303 -0.3074
   60MOL0     C 8031   9.823   3.721   8.536 -0.3763  0.3165 -0.9179
   60MOL0     C 8032   9.922   3.616   8.500 -0.0038 -0.2736  0.0319
   60MOL0     H 8033  10.126   4.015   8.758 -0.5834 -1.9267 -1.2350
   60MOL0     H 8034  10.343   4.085   8.850  0.1062 -0.9503  1.0667
   60MOL0     H 8035  10.554   4.084   8.935  0.5549  0.4409 -0.5138
   60MOL0     H 8036  10.574   3.912   8.932 -0.1625  0.5122  0.8777
   60MOL0     H 8037  10.809   3.934   8.877  2.7417  0.4654  2.3735
   60MOL0     H 8038  10.753   4.009   9.030  0.3700  2.7928  0.5672
   60MOL0     H 8039  10.785   4.220   8.952  0.8732 -2.8116  3.3902
   60MOL0     H 8040  10.811   4.167   8.778 -4.4861  1.4196  0.3882
   60MOL0     H 8041  10.988   4.096   9.020  3.7616 -1.5163 -0.5604
   60MOL0     H 8042  11.017   4.062   8.846 -1.6733 -1.2050  0.7802
   60MOL0     H 8043  11.027   4.313   8.812 -1.8160  1.9067  1.0725
   60MOL0     H 8044  11.006   4.340   8.985 -0.6687 -0.6031  0.6674
   60MOL0     H 8045  11.199   4.167   9.013  2.8314  1.1573  1.2102
   60MOL0     H 8046  11.228   4.199   8.839  1.9700 -1.0752  0.0647
   60MOL0     H 8047  11.207   4.435   9.031  0.9870  0.3918 -0.3452
   60MOL0     H 8048  11.273   4.431   8.884 -1.0098 -0.4381 -0.7752
   60MOL0     H 8049  11.389   4.268   9.131  1.7804  1.1220  1.3765
   60MOL0     H 8050  11.467   4.274   8.968  1.3324 -0.3292 -0.1699
   60MOL0     H 8051  11.602   4.495   8.912 -0.5531  3.0285 -1.6440
   60MOL0     H 8052  11.703   4.768   8.987 -2.5088  3.2977  1.1537
   60MOL0     H 8053  11.696   4.799   9.159 -1.5651  0.7074 -1.6221
   60MOL0     H 8054  11.852   4.621   9.209 -0.5594 -0.9636 -0.2175
   60MOL0     H 8055  11.874   4.585   9.037 -3.5528  1.1569 -0.3798
   60MOL0     H 8056  11.952   4.832   9.194  0.3071  1.0590 -1.2839
   60MOL0     H 8057  11.954   4.827   9.014  0.5811 -0.2105 -0.4282
   60MOL0     H 8058  12.175   4.771   9.132 -1.1344  0.8349  4.2488
   60MOL0     H 8059  12.122   4.638   9.033  3.6653 -0.0413  0.6130
   60MOL0     H 8060  12.131   4.551   9.473 -1.2659 -2.0640 -0.6233
   60MOL0     H 8061  12.338   4.482   9.580 -1.7230 -1.1394 -0.1663
   60MOL0     H 8062  12.629   4.139   9.599 -1.4454  1.0392 -1.8859
   60MOL0     H 8063  12.812   4.026   9.718 -3.0986 -0.5722  1.7160
   60MOL0     H 8064  13.158   4.299   9.869 -1.3641  2.5026  1.8425
   60MOL0     H 8065  13.036   4.258   9.991  1.2602  1.9919  0.0742
   60MOL0     H 8066  13.268   4.090   9.888  1.1132 -1.9964 -0.6795
   60MOL0     H 8067  13.276   4.198  10.026 -2.7909 -0.6264  2.6421
   60MOL0     H 8068  13.059   4.058  10.125  1.8876 -3.0019  2.2595
   60MOL0     H 8069  13.079   3.954   9.990  1.1883 -2.0870  0.8455
   60MOL0     H 8070  13.297   3.979  10.218  2.1820 -2.2555 -1.0970
   60MOL0     H 8071  13.274   3.855  10.098 -1.2474 -0.1695 -0.3967
   60MOL0     H 8072  13.034   3.827  10.175 -0.0721  0.9055 -0.1106
   60MOL0     H 8073  13.091   3.872  10.330 -0.5988 -2.7415 -0.1224
   60MOL0     H 8074  13.129   3.619  10.288  0.2625 -0.6195 -1.1053
   60MOL0     H 8075  13.225   3.659  10.148  1.8130  0.5360 -0.0234
   60MOL0     H 8076  13.273   3.734  10.439  0.8122 -0.3609  0.4253
   60MOL0     H 8077  13.399   3.770  10.312  0.0076  0.1842 -0.2026
   60MOL0     H 8078  13.432   3.525  10.274 -2.1947 -0.6726 -0.4185
   60MOL0     H 8079  13.451   3.570  10.445 -1.2857 -0.4920  0.7051
   60MOL0     H 8080  12.980   4.420   9.806  1.3797 -1.3656  0.1014
   60MOL0     H 8081  12.801   4.525   9.707  2.8306 -0.8718 -1.0112
   60MOL0     H 8082  12.549   4.544   9.206  0.3274  2.2020  0.1284
   60MOL0     H 8083  12.350   4.610   9.097 -0.1978  0.5018 -1.2354
   60MOL0     H 8084  10.542   3.858   8.532 -0.7831 -0.9262 -0.3334
   60MOL0     H 8085  10.322   3.789   8.456  1.9927 -0.5909  0.4967
   60MOL0     H 8086   9.778   4.046   8.628  1.1670  0.2540 -2.0715
   60MOL0     H 8087   9.537   3.968   8.650 -3.2627 -0.5787 -2.5164
   60MOL0     H 8088   9.348   3.879   8.555 -0.6357 -0.3845 -1.3382
   60MOL0     H 8089   9.349   3.816   8.728 -1.0003 -2.1071 -0.0418
   60MOL0     H 8090   9.207   3.719   8.480 -0.0644 -1.7914 -0.4692
   60MOL0     H 8091   9.136   3.749   8.646 -0.9705 -0.7978 -0.4143
   60MOL0     H 8092   9.229   3.550   8.732 -3.2991  0.5184 -0.7312
   60MOL0     H 8093   9.332   3.525   8.590  0.5646  1.0396  0.9991
   60MOL0     H 8094   9.033   3.503   8.603 -0.7573 -0.5404 -2.2645
   60MOL0     H 8095   9.127   3.477   8.460 -0.8927  0.2124  0.6028
   60MOL0     H 8096   9.185   3.113   8.680  0.3732 -0.2027 -1.2215
   60MOL0     H 8097   9.670   3.574   8.541 -0.8021  0.2400  1.7870
   60MOL0     H 8098   9.992   3.592   8.581 -0.3694 -0.2499  0.3611
   60MOL0     H 8099   9.879   3.520   8.469 -1.4301 -0.0685  1.2682
   60MOL0     H 8100   9.981   3.650   8.415  1.1094 -0.1556  0.8219
   61MOL0     O 8101   1.241   5.874   1.988 -0.3426  0.0525 -0.6143
   61MOL0     C 8102   1.217   5.819   2.097  0.1709  0.3140 -0.2484
   61MOL0     O 8103   1.291   5.837   2.216 -0.5340  0.1197 -0.2873
   61MOL0     C 8104   1.410   5.908   2.211 -0.0655 -0.0612 -0.2895
   61MOL0     C 8105   1.429   5.998   2.318 -0.4386  0.4890 -0.3723
   61MOL0     C 8106   1.539   6.089   2.326 -0.1872  0.4468 -0.6139
   61MOL0     C 8107   1.639   6.081   2.226 -1.0483  0.5151 -0.4297
   61MOL0     O 8108   1.754   6.164   2.204  0.4773  0.1579 -0.0835
   61MOL0     C 8109   1.785   6.262   2.300  0.1046 -0.4407 -0.6590
   61MOL0     C 8110   1.898   6.348   2.239 -1.3606 -0.9412 -0.9801
   61MOL0     C 8111   1.934   6.456   2.345 -0.1051  0.1058 -0.4881
   61MOL0     C 8112   2.071   6.521   2.327  1.0990  0.2026  0.7205
   61MOL0     C 8113   2.091   6.627   2.438 -1.2859  0.8687 -0.4923
   61MOL0     C 8114   2.233   6.696   2.432  0.3508 -0.2872 -0.2185
   61MOL0     C 8115   2.241   6.817   2.510 -0.0018 -0.8595 -0.5184
   61MOL0     C 8116   2.251   6.814   2.665 -0.0251  1.3069 -0.4470
   61MOL0     N 8117   2.383   6.786   2.719 -0.0516  0.1231 -0.0651
   61MOL0     C 8118   2.492   6.868   2.705  1.4233 -0.3896  0.0135
   61MOL0     C 8119   2.590   6.811   2.780  0.7659 -0.3013  0.4102
   61MOL0     C 8120   2.726   6.865   2.802  0.1915  0.1493 -0.2953
   61MOL0     C 8121   2.816   6.818   2.688  0.0500  0.4837  0.3634
   61MOL0     C 8122   2.865   6.673   2.700  0.3562  0.8589  0.5396
   61MOL0     C 8123   2.926   6.642   2.835 -0.4680  0.0585  0.1198
   61MOL0     O 8124   3.020   6.755   2.870 -0.1012  0.1554  0.4138
   61MOL0     C 8125   3.145   6.760   2.811 -0.0808 -0.5237  0.5893
   61MOL0     C 8126   3.224   6.872   2.826  0.0684 -0.4957  1.1047
   61MOL0     C 8127   3.356   6.866   2.784 -0.4044 -0.2064  0.3121
   61MOL0     C 8128   3.420   6.759   2.730 -0.0145 -0.7683 -0.2415
   61MOL0     C 8129   3.554   6.773   2.678  1.2435  0.6373  0.4241
   61MOL0     O 8130   3.607   6.895   2.683 -0.0832 -0.0369  0.0047
   61MOL0     C 8131   3.733   6.907   2.637  0.0114  0.0357  0.8495
   61MOL0     C 8132   3.843   6.902   2.728  1.2962  0.0304  0.0513
   61MOL0     C 8133   3.971   6.936   2.690  0.8343 -0.1221 -0.1267
   61MOL0     C 8134   3.999   6.953   2.553 -0.6067 -0.1934 -0.1601
   61MOL0     O 8135   4.124   6.989   2.501  0.4005 -0.6727 -0.7101
   61MOL0     C 8136   4.234   6.998   2.599 -0.4286 -0.3542  0.3430
   61MOL0     C 8137   4.361   7.030   2.516  0.4941 -0.5061 -0.5802
   61MOL0     C 8138   4.484   7.074   2.600  0.2434 -0.1231 -0.2201
   61MOL0     C 8139   4.598   7.108   2.507  0.0329  0.8445  0.3190
   61MOL0     C 8140   4.715   7.157   2.600  0.0306 -0.4900 -0.2856
   61MOL0     C 8141   4.837   7.218   2.537  0.2954  0.2061  0.4612
   61MOL0     C 8142   4.850   7.367   2.559  0.5420  0.4603  0.4540
   61MOL0     C 8143   4.970   7.419   2.478  0.5777 -0.5489  0.1611
   61MOL0    Cl 8144   5.126   7.374   2.556 -0.4455 -0.3293 -0.2619
   61MOL0     C 8145   3.897   6.958   2.470  1.1088 -0.7346 -0.1444
   61MOL0     C 8146   3.764   6.924   2.499 -0.8383  0.7585 -1.1616
   61MOL0     O 8147   3.605   6.667   2.636  0.0497 -0.0416 -0.4446
   61MOL0     C 8148   3.346   6.646   2.710 -0.6274  0.3507 -0.7174
   61MOL0     C 8149   3.213   6.647   2.753 -0.3809 -1.4186  0.0639
   61MOL0     N 8150   2.534   6.693   2.830 -0.3584  0.8793  0.3537
   61MOL0     N 8151   2.417   6.668   2.782 -0.7837  0.4653  0.7801
   61MOL0     C 8152   1.624   5.987   2.127 -0.4206 -0.2772  0.3629
   61MOL0     C 8153   1.513   5.902   2.109  0.0553 -0.5908 -0.4529
   61MOL0     C 8154   1.094   5.732   2.106  0.6206 -1.1188  0.0591
   61MOL0     C 8155   1.080   5.657   2.219 -0.4239  0.3013  0.5245
   61MOL0     C 8156   0.974   5.576   2.249 -0.6490 -0.0011 -0.5315
   61MOL0     C 8157   0.875   5.563   2.154 -0.2248 -0.3614 -0.1610
   61MOL0     O 8158   0.767   5.480   2.159  0.0969  1.1434 -0.3875
   61MOL0     C 8159   0.746   5.389   2.264 -0.2416 -0.6758  0.2813
   61MOL0     C 8160   0.725   5.442   2.404  0.0654 -0.7740 -0.0704
   61MOL0     C 8161   0.657   5.584   2.397  0.4305  1.0006  0.0754
   61MOL0     C 8162   0.638   5.616   2.544  0.2349 -0.5438  0.4333
   61MOL0     C 8163   0.552   5.734   2.556  0.4555  0.3145  0.8168
   61MOL0     C 8164   0.469   5.823   2.564  0.0646 -0.2417  0.3215
   61MOL0     C 8165   0.886   5.638   2.038 -0.0835  0.1072 -0.8021
   61MOL0     C 8166   0.980   5.736   2.021 -0.0114 -0.3134  0.9934
   61MOL0     C 8167   0.966   5.830   1.907 -0.6313  0.0731 -0.0283
   61MOL0     H 8168   1.350   6.007   2.392  1.2927  2.5305  1.3886
   61MOL0     H 8169   1.544   6.158   2.409 -0.0755 -0.9304  0.5491
   61MOL0     H 8170   1.697   6.327   2.309  0.2647 -0.4925  2.1717
   61MOL0     H 8171   1.806   6.218   2.397 -0.3119  0.3621 -0.1937
   61MOL0     H 8172   1.867   6.394   2.144 -2.0402 -0.5533 -0.5784
   61MOL0     H 8173   1.980   6.279   2.215  0.5972  1.3453 -1.3154
   61MOL0     H 8174   1.917   6.420   2.447 -2.0697  2.1589  0.0098
   61MOL0     H 8175   1.859   6.535   2.334 -0.5798 -0.2975 -0.2168
   61MOL0     H 8176   2.155   6.450   2.328  0.6458 -0.4175 -1.3106
   61MOL0     H 8177   2.071   6.569   2.229 -0.2845 -1.3283 -0.0711
   61MOL0     H 8178   2.017   6.707   2.431 -1.9582  0.5217  1.9125
   61MOL0     H 8179   2.084   6.575   2.534 -1.9282  0.6169 -0.6739
   61MOL0     H 8180   2.311   6.623   2.456 -1.3750 -1.8908  0.8081
   61MOL0     H 8181   2.241   6.725   2.326  0.5559  1.3908  0.2300
   61MOL0     H 8182   2.159   6.881   2.477  1.8912  1.5330 -0.8221
   61MOL0     H 8183   2.324   6.881   2.480 -2.7467  2.6443 -1.2492
   61MOL0     H 8184   2.217   6.913   2.698 -0.6111  0.9339  0.0957
   61MOL0     H 8185   2.186   6.739   2.713 -0.8306 -0.7990 -4.4343
   61MOL0     H 8186   2.501   6.965   2.655  2.6041 -0.0856  0.7695
   61MOL0     H 8187   2.723   6.972   2.782 -1.5226  0.0731 -0.5986
   61MOL0     H 8188   2.768   6.842   2.900  0.9201  1.9376 -0.1575
   61MOL0     H 8189   2.764   6.828   2.592  0.4148  0.7167  0.1878
   61MOL0     H 8190   2.904   6.883   2.687  1.3435 -0.8739  4.6559
   61MOL0     H 8191   2.950   6.657   2.632 -0.5517 -1.3179 -0.1746
   61MOL0     H 8192   2.785   6.606   2.668 -0.6932  3.3197 -2.4501
   61MOL0     H 8193   2.974   6.544   2.834 -0.1974  0.1839  0.5715
   61MOL0     H 8194   2.848   6.636   2.911  0.5246  1.4768  1.3160
   61MOL0     H 8195   3.179   6.959   2.874  0.5477 -0.6874  1.9292
   61MOL0     H 8196   3.414   6.955   2.805 -2.0189  1.1813 -0.7757
   61MOL0     H 8197   3.825   6.887   2.834  0.4533 -0.4398 -0.1466
   61MOL0     H 8198   4.051   6.940   2.763 -0.4625  1.2422  1.3010
   61MOL0     H 8199   4.212   7.083   2.664  0.9752  1.3633 -1.3080
   61MOL0     H 8200   4.252   6.912   2.663  3.8586 -0.1687 -0.3611
   61MOL0     H 8201   4.387   6.951   2.445  1.8394  1.2515 -2.1589
   61MOL0     H 8202   4.334   7.114   2.450 -2.1561 -2.3034 -2.0103
   61MOL0     H 8203   4.458   7.169   2.647  0.1061  0.4775 -1.4559
   61MOL0     H 8204   4.514   6.996   2.670  1.3603  0.8893  0.4444
   61MOL0     H 8205   4.566   7.188   2.439  1.7698  0.4962 -0.9866
   61MOL0     H 8206   4.633   7.032   2.436 -2.1468  1.8100 -1.9623
   61MOL0     H 8207   4.743   7.063   2.649 -1.1260  0.4861  2.4319
   61MOL0     H 8208   4.688   7.225   2.681  1.4259  0.2436 -0.4117
   61MOL0     H 8209   4.921   7.164   2.582  0.2030 -0.4283 -0.1084
   61MOL0     H 8210   4.819   7.194   2.432 -0.1642 -0.6804  0.7308
   61MOL0     H 8211   4.874   7.389   2.663 -2.0039 -0.5282  1.3168
   61MOL0     H 8212   4.761   7.424   2.531 -0.4287  0.2564  2.8649
   61MOL0     H 8213   4.965   7.392   2.372 -1.8243 -1.3115  0.4018
   61MOL0     H 8214   4.973   7.527   2.490 -0.0657 -0.4200 -0.8033
   61MOL0     H 8215   3.911   6.993   2.368  1.9447 -1.4918 -0.2971
   61MOL0     H 8216   3.685   6.920   2.425  1.5056 -3.8574 -3.9112
   61MOL0     H 8217   3.393   6.558   2.666 -0.6050 -0.1776  0.3232
   61MOL0     H 8218   3.158   6.554   2.756 -1.4248 -0.8059  1.9048
   61MOL0     H 8219   1.702   5.980   2.052 -0.3773 -0.7122  0.4429
   61MOL0     H 8220   1.500   5.840   2.021 -0.5551  0.7367 -1.3431
   61MOL0     H 8221   1.154   5.653   2.298 -1.2330 -1.4081  1.2569
   61MOL0     H 8222   0.978   5.510   2.335  0.8292  0.2306 -0.3951
   61MOL0     H 8223   0.835   5.326   2.269  1.3788  1.5335  0.9025
   61MOL0     H 8224   0.666   5.320   2.235  1.9667 -3.5699  0.6112
   61MOL0     H 8225   0.814   5.449   2.467  1.2640 -0.6886 -1.7136
   61MOL0     H 8226   0.653   5.372   2.447 -1.6094 -0.4846 -2.2530
   61MOL0     H 8227   0.555   5.575   2.358  0.4150 -0.0277  0.3160
   61MOL0     H 8228   0.713   5.660   2.342  1.1065  0.0117 -0.6393
   61MOL0     H 8229   0.581   5.542   2.601 -0.7757 -1.0898 -1.2042
   61MOL0     H 8230   0.737   5.638   2.586  0.9627  0.4176 -1.6230
   61MOL0     H 8231   0.400   5.903   2.584  1.9099  0.8956  2.5471
   61MOL0     H 8232   0.803   5.636   1.967 -0.1910  0.7794 -0.7064
   61MOL0     H 8233   1.044   5.824   1.831 -1.3591  0.8808 -0.8685
   61MOL0     H 8234   0.872   5.811   1.854 -0.9938  1.9250 -0.1170
   61MOL0     H 8235   0.969   5.928   1.957  1.0236  0.2964 -0.5229
   62MOL0     O 8236   9.605   9.262   6.759  0.3676  0.2993 -0.0369
   62MOL0     C 8237   9.551   9.211   6.855 -0.0774  0.4665 -0.1024
   62MOL0     O 8238   9.612   9.114   6.943 -0.0186 -1.2892  0.0870
   62MOL0     C 8239   9.734   9.070   6.899  0.6475  0.4487  0.1886
   62MOL0     C 8240   9.753   9.014   6.773 -0.3573  1.2309 -0.0184
   62MOL0     C 8241   9.880   8.963   6.737  0.2283  0.3582  0.6100
   62MOL0     C 8242   9.995   8.964   6.822 -0.1312 -0.0145 -0.9347
   62MOL0     O 8243  10.119   8.917   6.791 -0.2563 -0.1450  0.0337
   62MOL0     C 8244  10.128   8.788   6.726 -0.3600 -0.2011  0.2260
   62MOL0     C 8245  10.239   8.695   6.780 -0.3546 -0.8284 -0.0131
   62MOL0     C 8246  10.373   8.750   6.709  0.8516  0.2572  0.0036
   62MOL0     C 8247  10.498   8.694   6.781  0.6053  0.3876  0.2593
   62MOL0     C 8248  10.628   8.714   6.700  0.4334 -0.3852  0.2601
   62MOL0     C 8249  10.754   8.712   6.791 -0.5283 -0.0652 -0.9100
   62MOL0     C 8250  10.885   8.740   6.713 -0.0772 -0.1769 -0.7928
   62MOL0     C 8251  10.905   8.644   6.596 -0.7091 -0.4281 -0.4221
   62MOL0     N 8252  11.018   8.690   6.512 -1.0260  0.3364 -1.1154
   62MOL0     C 8253  11.033   8.810   6.453 -0.5723  0.0787  0.3177
   62MOL0     C 8254  11.122   8.794   6.351  0.5356  0.0075 -0.4926
   62MOL0     C 8255  11.156   8.891   6.243 -0.2318 -0.2791 -1.0271
   62MOL0     C 8256  11.044   8.920   6.141 -0.2624  0.3313 -0.5781
   62MOL0     C 8257  11.116   8.933   6.012  0.6527 -0.3367 -0.2257
   62MOL0     C 8258  11.009   8.967   5.901  0.2422 -0.8534 -0.1820
   62MOL0     O 8259  11.006   9.108   5.847 -0.3023  0.5236  0.4666
   62MOL0     C 8260  11.110   9.153   5.773  0.1418 -0.7043  0.4292
   62MOL0     C 8261  11.218   9.071   5.726 -0.5990  0.1116  0.7096
   62MOL0     C 8262  11.327   9.132   5.656 -1.0618  0.2620 -0.9106
   62MOL0     C 8263  11.333   9.268   5.634 -0.2642  0.0974 -0.2322
   62MOL0     C 8264  11.444   9.325   5.558  0.1231 -0.6821 -0.1973
   62MOL0     O 8265  11.455   9.462   5.541  0.8492  0.3470 -0.0388
   62MOL0     C 8266  11.554   9.516   5.464 -0.3903 -0.7615  0.9640
   62MOL0     C 8267  11.633   9.617   5.518 -0.7007  0.3957  0.3954
   62MOL0     C 8268  11.737   9.679   5.444  0.6081  0.1695  0.0381
   62MOL0     C 8269  11.773   9.628   5.321 -0.1960  0.3273 -0.2606
   62MOL0     O 8270  11.873   9.705   5.259  0.1781  0.6523 -0.4704
   62MOL0     C 8271  11.907   9.670   5.127 -0.3888  0.3147  0.8143
   62MOL0     C 8272  11.815   9.742   5.024  0.0420  0.2619  0.5203
   62MOL0     C 8273  11.840   9.741   4.878 -0.2561 -0.1886  1.9289
   62MOL0     C 8274  11.990   9.743   4.847 -1.7184  0.2472  0.8949
   62MOL0     C 8275  12.017   9.755   4.696 -0.3818  0.3235  0.3310
   62MOL0     C 8276  12.166   9.748   4.650 -0.2420  0.4685 -0.1355
   62MOL0     C 8277  12.251   9.873   4.675 -0.4269  0.0044 -0.7935
   62MOL0     C 8278  12.394   9.860   4.623 -0.1912  1.0699  0.7666
   62MOL0    Cl 8279  12.501   9.754   4.723 -0.1655  0.2531  0.4221
   62MOL0     C 8280  11.700   9.518   5.265 -1.1081 -0.3370  0.3874
   62MOL0     C 8281  11.583   9.479   5.331 -0.4212  0.6576 -0.1743
   62MOL0     O 8282  11.526   9.253   5.507 -0.3894  0.1892  0.8957
   62MOL0     C 8283  11.225   9.349   5.682 -0.2659 -0.2607  1.0379
   62MOL0     C 8284  11.120   9.292   5.751 -0.1627  0.2981  0.5098
   62MOL0     N 8285  11.159   8.662   6.345 -0.0728 -0.1417 -0.1078
   62MOL0     N 8286  11.107   8.609   6.452 -0.3850  0.9329 -0.8593
   62MOL0     C 8287   9.967   9.027   6.948 -0.2449  0.6851 -0.1055
   62MOL0     C 8288   9.843   9.081   6.982  0.5079  0.7988 -0.3809
   62MOL0     C 8289   9.412   9.247   6.873  0.1153 -0.5819  0.4881
   62MOL0     C 8290   9.365   9.242   7.007  0.1324  0.5955  0.9120
   62MOL0     C 8291   9.258   9.315   7.043 -0.7439  0.4044  0.6351
   62MOL0     C 8292   9.167   9.367   6.950 -0.0874 -0.3382 -0.1497
   62MOL0     O 8293   9.053   9.426   6.999 -0.1306  0.2905 -0.5775
   62MOL0     C 8294   8.958   9.483   6.907 -0.4702 -0.7348  0.2269
   62MOL0     C 8295   8.868   9.380   6.848  0.1168  0.6957  0.9277
   62MOL0     C 8296   8.755   9.324   6.940  0.0556  0.0496 -0.2926
   62MOL0     C 8297   8.643   9.259   6.862  0.3336  0.3786  1.2841
   62MOL0     C 8298   8.671   9.117   6.833  0.2991  0.3469 -0.1385
   62MOL0     C 8299   8.695   9.002   6.805  0.1730  0.2129 -0.4265
   62MOL0     C 8300   9.200   9.352   6.817 -0.0096 -0.8618 -0.2983
   62MOL0     C 8301   9.326   9.307   6.778  0.1361  0.0680  0.7661
   62MOL0     C 8302   9.336   9.287   6.632  0.1693 -0.0198 -0.0449
   62MOL0     H 8303   9.675   9.008   6.698 -1.2767  0.1702  0.9678
   62MOL0     H 8304   9.895   8.920   6.639  4.1911  0.2133  1.0986
   62MOL0     H 8305  10.031   8.737   6.728  0.7217 -2.3165  0.9914
   62MOL0     H 8306  10.146   8.807   6.620  2.7758  0.6246  0.8114
   62MOL0     H 8307  10.224   8.588   6.762 -0.0768 -0.5213 -2.3993
   62MOL0     H 8308  10.250   8.715   6.887  1.1269  0.5108 -0.3848
   62MOL0     H 8309  10.378   8.859   6.706  0.3069  0.2614 -1.0640
   62MOL0     H 8310  10.374   8.706   6.609  1.3417 -0.6335  0.3782
   62MOL0     H 8311  10.510   8.756   6.871 -0.1844  1.8210 -0.5725
   62MOL0     H 8312  10.494   8.588   6.806  0.6304  0.1413 -0.7548
   62MOL0     H 8313  10.629   8.638   6.621 -0.7577  0.9217 -1.0870
   62MOL0     H 8314  10.628   8.811   6.649  1.0512 -0.4355  0.1553
   62MOL0     H 8315  10.748   8.791   6.867  0.8204 -0.7027 -0.0876
   62MOL0     H 8316  10.759   8.615   6.842 -2.3660 -0.4200 -1.3514
   62MOL0     H 8317  10.981   8.733   6.766 -0.3019  1.5944 -0.0909
   62MOL0     H 8318  10.872   8.842   6.674 -1.9445  0.0330  0.2630
   62MOL0     H 8319  10.928   8.541   6.625  0.4358 -0.2200 -0.5485
   62MOL0     H 8320  10.810   8.638   6.543  0.1212 -0.6836 -1.9251
   62MOL0     H 8321  10.978   8.903   6.466  0.8478  1.0129 -0.1401
   62MOL0     H 8322  11.185   8.989   6.281  0.6702 -0.7232 -0.5419
   62MOL0     H 8323  11.247   8.856   6.194  0.4104 -1.8480  1.1412
   62MOL0     H 8324  10.970   8.840   6.135 -0.6014  0.4994  0.8190
   62MOL0     H 8325  10.987   9.009   6.172 -0.1469 -0.0476  0.8223
   62MOL0     H 8326  11.164   8.838   5.987 -0.2597 -0.1753 -2.8853
   62MOL0     H 8327  11.189   9.014   6.024 -1.7757  2.3100 -1.8643
   62MOL0     H 8328  10.912   8.954   5.951 -0.2129  1.2056 -0.4393
   62MOL0     H 8329  11.027   8.884   5.832 -1.3507 -2.9120  1.7285
   62MOL0     H 8330  11.232   8.967   5.753  1.7780  1.3259  5.2668
   62MOL0     H 8331  11.416   9.076   5.631  1.4244  2.2772  2.5356
   62MOL0     H 8332  11.613   9.660   5.616 -1.4275  0.8394  0.0687
   62MOL0     H 8333  11.779   9.769   5.488  0.2651  0.3456  0.0075
   62MOL0     H 8334  12.014   9.685   5.111 -0.3268 -0.6518  0.2359
   62MOL0     H 8335  11.895   9.567   5.091 -1.4551  1.2296 -1.6377
   62MOL0     H 8336  11.717   9.701   5.048  0.4781 -1.9321 -1.1381
   62MOL0     H 8337  11.819   9.846   5.057 -0.4006 -0.4687  3.0649
   62MOL0     H 8338  11.794   9.651   4.837  2.0152 -0.0953 -1.2306
   62MOL0     H 8339  11.793   9.829   4.832  0.3010 -0.6937  0.3344
   62MOL0     H 8340  12.035   9.651   4.885 -1.7259 -1.2433 -2.3858
   62MOL0     H 8341  12.043   9.824   4.898  3.4433 -1.0402 -1.7560
   62MOL0     H 8342  11.970   9.849   4.663 -1.4514  0.1300  1.2576
   62MOL0     H 8343  11.964   9.672   4.649  1.5554 -0.9199  0.2249
   62MOL0     H 8344  12.218   9.662   4.694  0.2261  0.3366 -0.9403
   62MOL0     H 8345  12.166   9.719   4.545 -0.5397 -1.2278  0.2936
   62MOL0     H 8346  12.266   9.899   4.780  0.0973  1.2671 -1.1569
   62MOL0     H 8347  12.201   9.958   4.628 -0.4415 -0.0449 -0.8644
   62MOL0     H 8348  12.383   9.820   4.522  0.2011  0.5217  0.9343
   62MOL0     H 8349  12.444   9.954   4.601 -0.3776  0.1645 -5.0110
   62MOL0     H 8350  11.722   9.481   5.165 -1.0096 -1.5542  0.8360
   62MOL0     H 8351  11.536   9.391   5.289  0.3683  0.4768 -0.7046
   62MOL0     H 8352  11.222   9.454   5.655  0.1800 -0.3331  0.6878
   62MOL0     H 8353  11.034   9.348   5.787 -0.9829 -1.1681  0.9194
   62MOL0     H 8354  10.043   9.033   7.026 -2.7828 -0.9115  2.6971
   62MOL0     H 8355   9.836   9.126   7.080 -0.7381 -0.5659  0.2043
   62MOL0     H 8356   9.432   9.210   7.086  1.5173 -0.8980 -0.7657
   62MOL0     H 8357   9.240   9.329   7.150 -0.0651  0.8864  0.6983
   62MOL0     H 8358   9.012   9.546   6.835 -0.7410 -0.6633  0.0862
   62MOL0     H 8359   8.897   9.542   6.975 -1.8511 -0.3402 -1.2769
   62MOL0     H 8360   8.925   9.295   6.808  1.4062  0.3410  3.3415
   62MOL0     H 8361   8.814   9.436   6.771  2.7519  1.8983 -0.1870
   62MOL0     H 8362   8.710   9.400   7.004  0.1359 -1.9021  2.2461
   62MOL0     H 8363   8.787   9.257   7.020 -0.8821  0.9252  0.8538
   62MOL0     H 8364   8.548   9.267   6.916  0.1084 -0.9731  1.1014
   62MOL0     H 8365   8.637   9.313   6.767  2.7306 -0.7317  0.4305
   62MOL0     H 8366   8.714   8.896   6.799  0.6306  0.2940 -0.4311
   62MOL0     H 8367   9.130   9.395   6.745 -0.3743 -1.6092 -0.4082
   62MOL0     H 8368   9.243   9.283   6.575  0.8873 -0.0757 -1.2478
   62MOL0     H 8369   9.389   9.369   6.583  0.3857  1.3452  2.2932
   62MOL0     H 8370   9.383   9.191   6.610 -0.2678 -0.4470  0.8222
   63MOL0     O 8371   3.691   4.512  10.396  0.1238  0.1729  0.0191
   63MOL0     C 8372   3.621   4.614  10.393 -0.2786  0.2545  0.6683
   63MOL0     O 8373   3.645   4.740  10.445 -0.5100  0.0781  0.5454
   63MOL0     C 8374   3.774   4.765  10.488 -0.8320  0.4438  0.9615
   63MOL0     C 8375   3.809   4.833  10.601  0.3133 -0.2821 -0.3281
   63MOL0     C 8376   3.939   4.880  10.624  0.4985 -0.0851  0.4077
   63MOL0     C 8377   4.040   4.854  10.530  0.3942  0.3955 -0.7117
   63MOL0     O 8378   4.161   4.918  10.549  0.7267 -0.5698 -0.0655
   63MOL0     C 8379   4.276   4.880  10.476  0.4558  0.0556 -0.1171
   63MOL0     C 8380   4.399   4.933  10.552 -0.1485 -0.6671 -1.2908
   63MOL0     C 8381   4.524   4.894  10.476 -0.9976  0.5973  1.0015
   63MOL0     C 8382   4.531   4.972  10.346 -0.2921 -0.6014  0.3430
   63MOL0     C 8383   4.679   4.972  10.301  0.1058 -0.1956  0.1050
   63MOL0     C 8384   4.732   4.840  10.251 -0.7555 -0.1975 -0.2390
   63MOL0     C 8385   4.884   4.858  10.199 -0.4427  0.7916 -0.4687
   63MOL0     C 8386   4.952   4.745  10.120  0.0798  0.2214 -0.0222
   63MOL0     N 8387   5.082   4.799  10.085 -1.4551 -0.5656 -0.5065
   63MOL0     C 8388   5.191   4.788  10.165 -0.2546 -0.5241  0.0768
   63MOL0     C 8389   5.296   4.829  10.088 -0.8672  0.1165  0.0165
   63MOL0     C 8390   5.438   4.828  10.117  0.1996  0.5309  0.2767
   63MOL0     C 8391   5.517   4.935  10.035  0.3347  0.3613  0.0390
   63MOL0     C 8392   5.660   4.922  10.075 -0.5083  0.6311 -0.2223
   63MOL0     C 8393   5.757   5.019   9.999  0.0926  0.1246 -0.3767
   63MOL0     O 8394   5.886   4.981  10.034 -0.6157 -0.3182  0.3078
   63MOL0     C 8395   5.988   5.046   9.973  0.0394 -0.0568 -0.3810
   63MOL0     C 8396   6.056   5.136  10.053 -0.3097  0.0533 -0.6401
   63MOL0     C 8397   6.167   5.190   9.996 -0.2238  0.7202  0.3608
   63MOL0     C 8398   6.223   5.153   9.869  0.0788  0.1331  0.1377
   63MOL0     C 8399   6.342   5.220   9.819 -0.0103  0.2801  0.1963
   63MOL0     O 8400   6.393   5.324   9.888  0.3090 -0.5390 -0.2884
   63MOL0     C 8401   6.506   5.389   9.838 -0.1734 -0.0865  0.1506
   63MOL0     C 8402   6.500   5.533   9.825 -0.0914  0.0296  0.3428
   63MOL0     C 8403   6.610   5.596   9.753  0.3062  0.0161 -0.2272
   63MOL0     C 8404   6.724   5.532   9.711  1.0227  0.1206  0.6470
   63MOL0     O 8405   6.815   5.609   9.630  0.7149 -0.4746 -0.2513
   63MOL0     C 8406   6.930   5.529   9.603  0.1261 -0.8442  0.6050
   63MOL0     C 8407   7.029   5.601   9.514 -0.8420 -0.4934  0.8254
   63MOL0     C 8408   7.157   5.513   9.493  0.3024 -0.1071  0.4176
   63MOL0     C 8409   7.270   5.590   9.406 -0.5619  0.1952  0.1631
   63MOL0     C 8410   7.398   5.502   9.433  0.8460 -0.6491  0.0446
   63MOL0     C 8411   7.516   5.562   9.364  0.4988 -0.7569 -0.3868
   63MOL0     C 8412   7.651   5.481   9.372 -0.7538 -0.8309 -0.1259
   63MOL0     C 8413   7.742   5.541   9.269 -0.7336  0.0100 -0.8413
   63MOL0    Cl 8414   7.697   5.496   9.098  0.1020  0.4851 -0.1552
   63MOL0     C 8415   6.735   5.397   9.747 -1.2981  0.0794  0.6202
   63MOL0     C 8416   6.624   5.330   9.800  0.5486 -0.0553 -0.3700
   63MOL0     O 8417   6.395   5.179   9.715 -0.8824 -0.0647 -0.5410
   63MOL0     C 8418   6.151   5.063   9.798 -0.1961  0.7962  0.0077
   63MOL0     C 8419   6.029   5.017   9.843  0.8357 -0.2782 -0.6673
   63MOL0     N 8420   5.248   4.880   9.968 -0.8140 -0.6064  0.9117
   63MOL0     N 8421   5.122   4.856   9.969 -0.1724 -0.0474  0.5500
   63MOL0     C 8422   4.015   4.779  10.418  0.7419 -0.4436  0.0684
   63MOL0     C 8423   3.882   4.736  10.391  0.9487 -0.0776 -0.1771
   63MOL0     C 8424   3.485   4.607  10.329 -0.3976  0.3433 -0.2722
   63MOL0     C 8425   3.431   4.480  10.306  0.3538  0.0210 -0.3444
   63MOL0     C 8426   3.301   4.465  10.251  0.0534 -0.1821 -0.5897
   63MOL0     C 8427   3.226   4.575  10.219  0.5633  0.9708 -0.3737
   63MOL0     O 8428   3.101   4.580  10.174 -0.1356 -0.3529 -0.0565
   63MOL0     C 8429   3.020   4.466  10.163 -0.0771 -1.1717 -0.0819
   63MOL0     C 8430   2.882   4.494  10.105  0.2893 -0.0213 -0.6086
   63MOL0     C 8431   2.799   4.566  10.211  0.2590  0.2972  0.2469
   63MOL0     C 8432   2.685   4.646  10.153  0.7115  0.2266  0.2764
   63MOL0     C 8433   2.594   4.557  10.078  0.5434  0.2441 -0.2364
   63MOL0     C 8434   2.518   4.488  10.014  0.1853  0.1836 -0.4467
   63MOL0     C 8435   3.280   4.702  10.244 -0.0369 -0.0055 -0.3581
   63MOL0     C 8436   3.408   4.724  10.293  0.3284 -0.5085  0.0166
   63MOL0     C 8437   3.464   4.875  10.298  0.0540 -0.3169  0.2598
   63MOL0     H 8438   3.724   4.866  10.659  1.5801  3.6505 -0.3715
   63MOL0     H 8439   3.964   4.940  10.711  1.3030  0.7693 -0.3909
   63MOL0     H 8440   4.292   4.772  10.473  2.2521  0.2511  0.9871
   63MOL0     H 8441   4.281   4.925  10.376  2.3119 -2.5819 -1.3387
   63MOL0     H 8442   4.392   4.881  10.648 -1.2570  0.8844 -0.5034
   63MOL0     H 8443   4.396   5.040  10.574  0.0961 -0.6727 -1.2253
   63MOL0     H 8444   4.533   4.788  10.450  2.9135  1.4863 -2.2386
   63MOL0     H 8445   4.611   4.914  10.538  1.7961 -0.7410 -2.1467
   63MOL0     H 8446   4.474   4.926  10.265  1.2255 -2.2563  0.1752
   63MOL0     H 8447   4.496   5.075  10.359 -1.7172 -0.9191 -0.6798
   63MOL0     H 8448   4.700   5.045  10.222  2.2168 -0.4512  0.3870
   63MOL0     H 8449   4.739   5.014  10.382 -0.9515  1.5151  0.0548
   63MOL0     H 8450   4.729   4.768  10.333  1.6267 -0.3003 -0.1864
   63MOL0     H 8451   4.669   4.800  10.170  0.1366 -1.7137 -0.2222
   63MOL0     H 8452   4.943   4.898  10.282 -0.3689  0.4880 -0.3757
   63MOL0     H 8453   4.883   4.934  10.120  2.0629 -0.6150 -1.9879
   63MOL0     H 8454   4.950   4.653  10.179 -0.4685  0.2929  0.0706
   63MOL0     H 8455   4.894   4.738  10.028  1.1451  0.2022 -0.7161
   63MOL0     H 8456   5.192   4.741  10.263  0.3782  0.5959  0.6254
   63MOL0     H 8457   5.440   4.861  10.221 -2.7188  2.4916 -0.1589
   63MOL0     H 8458   5.471   4.727  10.094 -2.0573 -0.1606 -0.1867
   63MOL0     H 8459   5.502   4.912   9.929  0.5266 -0.6687  0.2284
   63MOL0     H 8460   5.490   5.041  10.045  0.3632  0.4170 -0.4115
   63MOL0     H 8461   5.686   4.818  10.058 -1.3718  0.2860  0.4907
   63MOL0     H 8462   5.666   4.930  10.184  1.1834  2.8695 -0.4053
   63MOL0     H 8463   5.739   5.114  10.050  1.7128  1.5124 -2.1990
   63MOL0     H 8464   5.742   5.021   9.891  0.5305 -0.0547 -0.4442
   63MOL0     H 8465   6.034   5.162  10.156  1.1285  2.3889 -0.8394
   63MOL0     H 8466   6.207   5.267  10.061 -0.3245 -0.0763  1.3947
   63MOL0     H 8467   6.410   5.586   9.854 -2.2293 -0.8737 -3.8080
   63MOL0     H 8468   6.609   5.700   9.723  2.3458 -0.1763 -1.1413
   63MOL0     H 8469   6.981   5.512   9.698  0.0992 -0.7867  0.6300
   63MOL0     H 8470   6.913   5.430   9.559 -3.5282 -1.7442  3.5147
   63MOL0     H 8471   6.982   5.620   9.416 -0.3990  1.8147  0.9874
   63MOL0     H 8472   7.063   5.702   9.541 -2.0673  0.2907 -0.4371
   63MOL0     H 8473   7.198   5.479   9.589  0.8034  1.6577  0.8754
   63MOL0     H 8474   7.124   5.423   9.441  1.8376  0.4159 -1.5816
   63MOL0     H 8475   7.287   5.695   9.434  1.4435  0.6810 -2.4283
   63MOL0     H 8476   7.259   5.589   9.297  2.7029  0.4081 -0.2576
   63MOL0     H 8477   7.385   5.405   9.383 -1.0073  0.5107 -1.8835
   63MOL0     H 8478   7.423   5.476   9.537 -3.2622 -4.8992  0.3580
   63MOL0     H 8479   7.476   5.594   9.267 -0.0541 -2.3280 -0.7159
   63MOL0     H 8480   7.538   5.646   9.430 -0.6138 -0.4920 -0.3268
   63MOL0     H 8481   7.618   5.379   9.347 -0.6650 -0.6739 -0.9322
   63MOL0     H 8482   7.696   5.491   9.471  1.3247  1.6433 -1.2178
   63MOL0     H 8483   7.744   5.649   9.288 -0.0771 -0.0847 -0.3191
   63MOL0     H 8484   7.838   5.497   9.297  0.4014  3.8187  2.1872
   63MOL0     H 8485   6.830   5.347   9.732 -0.9525  1.2409 -1.4871
   63MOL0     H 8486   6.626   5.221   9.805  0.4319 -0.0384  0.0460
   63MOL0     H 8487   6.181   5.027   9.701 -2.8649  0.5368 -0.8089
   63MOL0     H 8488   5.976   4.944   9.782  0.3233  1.3603 -2.2654
   63MOL0     H 8489   4.092   4.751  10.348 -1.2928  1.4796 -3.1824
   63MOL0     H 8490   3.856   4.685  10.299 -1.4994  1.9994 -0.7280
   63MOL0     H 8491   3.490   4.392  10.331  1.5513  0.8190 -0.2672
   63MOL0     H 8492   3.259   4.365  10.243  0.2726 -0.2322 -1.1343
   63MOL0     H 8493   3.011   4.412  10.258 -0.8639 -1.9821 -0.6006
   63MOL0     H 8494   3.065   4.402  10.087  0.2047  0.6933 -1.5590
   63MOL0     H 8495   2.824   4.403  10.087  0.2985 -0.5311  1.5748
   63MOL0     H 8496   2.902   4.548  10.012  2.4382 -0.1555 -0.2721
   63MOL0     H 8497   2.865   4.636  10.262  1.2850  1.5271 -2.5880
   63MOL0     H 8498   2.756   4.496  10.282 -1.5736  0.8946 -0.2182
   63MOL0     H 8499   2.631   4.678  10.243  0.1186  0.6406 -0.2177
   63MOL0     H 8500   2.711   4.736  10.098 -2.8179 -0.4610 -2.9496
   63MOL0     H 8501   2.465   4.427   9.944  1.5615 -0.6599 -0.8023
   63MOL0     H 8502   3.223   4.794  10.237  0.9925  0.5403 -2.5432
   63MOL0     H 8503   3.561   4.897  10.254  0.3004  0.8444  1.3551
   63MOL0     H 8504   3.388   4.927  10.238  1.1878 -1.9373 -2.8192
   63MOL0     H 8505   3.469   4.905  10.403 -0.2268  2.5239 -0.4503
   64MOL0     O 8506   5.179   1.746  10.886  0.5504 -0.6491 -0.5038
   64MOL0     C 8507   5.075   1.804  10.901 -0.1597 -0.0320 -1.0776
   64MOL0     O 8508   5.066   1.928  10.971 -0.4460  0.8588 -0.0964
   64MOL0     C 8509   5.179   1.984  11.028 -0.3374  0.3645  1.1931
   64MOL0     C 8510   5.194   2.112  10.975  0.2584 -0.0782  0.0534
   64MOL0     C 8511   5.318   2.177  11.009  0.3073  0.1605  0.0607
   64MOL0     C 8512   5.410   2.119  11.095 -0.6239  0.3088 -0.1520
   64MOL0     O 8513   5.531   2.171  11.113 -0.5040 -0.8923 -0.1522
   64MOL0     C 8514   5.536   2.307  11.171 -0.7372  0.1590 -0.5953
   64MOL0     C 8515   5.683   2.334  11.220 -0.4391  0.5486 -0.1200
   64MOL0     C 8516   5.718   2.229  11.320 -0.1128  0.1346  0.5160
   64MOL0     C 8517   5.851   2.273  11.391 -0.3476  0.0584  0.1529
   64MOL0     C 8518   5.928   2.156  11.455 -0.8116  0.3433  0.5391
   64MOL0     C 8519   6.075   2.189  11.434  1.0301  0.7033  0.0244
   64MOL0     C 8520   6.171   2.093  11.509  0.3481 -1.1323  1.0578
   64MOL0     C 8521   6.195   1.958  11.449 -0.8761  0.7157  0.2140
   64MOL0     N 8522   6.256   1.969  11.315 -0.0478  0.0332  0.0966
   64MOL0     C 8523   6.384   2.017  11.280 -0.6828 -0.2937 -0.5191
   64MOL0     C 8524   6.392   2.005  11.146 -0.6135  0.0711  0.1050
   64MOL0     C 8525   6.501   2.072  11.056 -0.2371 -0.0623 -0.5829
   64MOL0     C 8526   6.619   1.973  11.042  0.7355 -0.0619 -0.1244
   64MOL0     C 8527   6.719   1.963  11.160 -0.2551  0.0047  0.2559
   64MOL0     C 8528   6.846   1.881  11.134  0.2992  0.6785  0.0268
   64MOL0     O 8529   6.932   1.894  11.255  0.0679  0.0586 -0.5337
   64MOL0     C 8530   7.059   1.849  11.244  0.1806 -0.4711  1.0112
   64MOL0     C 8531   7.124   1.809  11.126 -0.0252 -0.3040  0.8928
   64MOL0     C 8532   7.257   1.752  11.136 -0.5914 -0.4714 -0.4211
   64MOL0     C 8533   7.321   1.753  11.266 -0.4888 -0.7293  0.4051
   64MOL0     C 8534   7.455   1.693  11.275  1.1614 -0.1280 -0.0468
   64MOL0     O 8535   7.519   1.697  11.396 -0.0905 -0.2712 -0.4868
   64MOL0     C 8536   7.637   1.626  11.419 -0.2615 -0.7948 -0.2082
   64MOL0     C 8537   7.750   1.650  11.334  0.4396  1.3727 -0.2597
   64MOL0     C 8538   7.868   1.572  11.349 -0.1959  0.2606  0.5647
   64MOL0     C 8539   7.879   1.479  11.448 -1.1069  0.2147 -0.2913
   64MOL0     O 8540   7.998   1.418  11.482  0.3115 -0.7419 -0.1388
   64MOL0     C 8541   8.125   1.493  11.471 -0.5038 -0.1540 -0.5468
   64MOL0     C 8542   8.224   1.428  11.579  0.5899 -0.2964 -0.1109
   64MOL0     C 8543   8.361   1.502  11.565 -0.6454 -0.8402  0.0076
   64MOL0     C 8544   8.374   1.654  11.587 -0.2512 -0.7793 -0.5576
   64MOL0     C 8545   8.524   1.700  11.582  0.1749  0.9025  0.7621
   64MOL0     C 8546   8.586   1.698  11.442  0.1131 -0.4548  0.5134
   64MOL0     C 8547   8.736   1.685  11.456 -1.2664 -0.0886  0.6448
   64MOL0     C 8548   8.806   1.719  11.325 -0.0938 -0.2726  0.3727
   64MOL0    Cl 8549   8.827   1.894  11.315  0.1721  0.1618 -0.3406
   64MOL0     C 8550   7.766   1.445  11.520  0.5329 -0.7330  0.2307
   64MOL0     C 8551   7.643   1.518  11.505  0.3260  0.5771 -0.6752
   64MOL0     O 8552   7.491   1.639  11.171 -0.1021 -0.7350  0.5413
   64MOL0     C 8553   7.252   1.808  11.377  0.6820 -0.1735  0.9827
   64MOL0     C 8554   7.125   1.862  11.355 -0.4340 -0.6230 -0.6720
   64MOL0     N 8555   6.278   1.942  11.100  0.0205  0.2384 -0.3395
   64MOL0     N 8556   6.195   1.932  11.202  0.7054  0.2016  0.0361
   64MOL0     C 8557   5.392   1.990  11.154  0.4183 -0.6423 -0.3177
   64MOL0     C 8558   5.271   1.921  11.113 -0.0753  0.2869  0.1897
   64MOL0     C 8559   4.946   1.737  10.859  0.1198 -0.0113 -0.2000
   64MOL0     C 8560   4.818   1.807  10.876 -0.5016  0.4140  0.4653
   64MOL0     C 8561   4.702   1.756  10.813  0.4746  0.6171 -0.0550
   64MOL0     C 8562   4.694   1.624  10.754  0.5707 -1.0373 -0.3404
   64MOL0     O 8563   4.581   1.580  10.702 -0.4471  0.0754 -0.0699
   64MOL0     C 8564   4.585   1.476  10.603 -0.6154 -0.1628 -0.2066
   64MOL0     C 8565   4.456   1.431  10.547 -0.2235 -0.1650 -0.2641
   64MOL0     C 8566   4.365   1.546  10.510  0.4272 -0.0588  0.4093
   64MOL0     C 8567   4.238   1.496  10.439 -0.5351  0.3520 -0.0780
   64MOL0     C 8568   4.158   1.413  10.530 -0.1791 -0.0391  0.4177
   64MOL0     C 8569   4.084   1.349  10.600  0.3348  0.7993  0.1780
   64MOL0     C 8570   4.813   1.549  10.758  0.4840  0.1918 -0.3934
   64MOL0     C 8571   4.932   1.602  10.811  0.0506  0.2320  0.2274
   64MOL0     C 8572   5.041   1.496  10.798 -0.1267  0.4520  0.3115
   64MOL0     H 8573   5.113   2.147  10.913 -1.8008 -1.8158  1.6222
   64MOL0     H 8574   5.337   2.277  10.969  0.0353  0.7742  1.4267
   64MOL0     H 8575   5.518   2.383  11.095  1.4308 -0.6644 -2.0397
   64MOL0     H 8576   5.461   2.307  11.250 -0.4959 -1.0066 -0.3458
   64MOL0     H 8577   5.688   2.434  11.265 -0.0482 -0.3123  1.8395
   64MOL0     H 8578   5.756   2.320  11.139  2.2519 -0.0939  2.2491
   64MOL0     H 8579   5.736   2.132  11.273  0.8222  1.7430 -2.7408
   64MOL0     H 8580   5.635   2.222  11.391 -2.3869  1.4631 -1.8372
   64MOL0     H 8581   5.913   2.338  11.328  1.6344 -1.4593  0.4368
   64MOL0     H 8582   5.814   2.330  11.477 -0.0728  1.6447 -0.7331
   64MOL0     H 8583   5.898   2.140  11.559  0.1256 -1.2605  0.5918
   64MOL0     H 8584   5.900   2.065  11.401  0.6680  0.5825 -0.7086
   64MOL0     H 8585   6.097   2.203  11.328 -1.2633 -0.2525 -0.6541
   64MOL0     H 8586   6.097   2.286  11.479  3.5767 -0.8779  2.5263
   64MOL0     H 8587   6.132   2.091  11.611 -1.1227 -0.2025  0.5496
   64MOL0     H 8588   6.266   2.146  11.500  0.0512 -0.9529 -2.4411
   64MOL0     H 8589   6.270   1.915  11.515 -1.4925  1.7204  1.6244
   64MOL0     H 8590   6.099   1.906  11.450 -0.9433  0.8162 -0.4419
   64MOL0     H 8591   6.460   2.056  11.346 -1.7279  1.8174 -0.5027
   64MOL0     H 8592   6.460   2.087  10.955  1.6282 -2.2876 -1.7579
   64MOL0     H 8593   6.540   2.166  11.095  4.5197 -2.2596  0.7227
   64MOL0     H 8594   6.574   1.875  11.025 -0.9254  0.7803 -0.8092
   64MOL0     H 8595   6.673   2.001  10.951  0.1996  2.8151  0.3591
   64MOL0     H 8596   6.675   1.937  11.257  0.1267  4.0317  1.7256
   64MOL0     H 8597   6.751   2.067  11.170  0.8157 -0.0147 -2.1826
   64MOL0     H 8598   6.896   1.918  11.044  0.1827 -0.0256 -0.3311
   64MOL0     H 8599   6.828   1.775  11.111  2.0380 -0.0969  1.8886
   64MOL0     H 8600   7.078   1.814  11.028  0.4672  0.9817  0.7059
   64MOL0     H 8601   7.309   1.713  11.050 -0.4193 -0.3132 -0.3886
   64MOL0     H 8602   7.754   1.731  11.263  1.0919  1.0723 -0.5690
   64MOL0     H 8603   7.950   1.594  11.282  0.1899 -0.1396  0.9018
   64MOL0     H 8604   8.161   1.486  11.368 -0.2501  0.9318 -0.5445
   64MOL0     H 8605   8.092   1.595  11.494 -2.0135 -0.8403  0.5525
   64MOL0     H 8606   8.192   1.430  11.684 -1.5997  2.1584 -0.7135
   64MOL0     H 8607   8.251   1.325  11.556  3.3005  0.1559  0.6574
   64MOL0     H 8608   8.429   1.455  11.636  0.5618 -1.4830 -1.5120
   64MOL0     H 8609   8.391   1.483  11.462 -0.7084  1.2668 -0.4436
   64MOL0     H 8610   8.333   1.686  11.683  1.9376  2.1427 -0.4590
   64MOL0     H 8611   8.310   1.701  11.512  1.2232  2.2375 -0.0482
   64MOL0     H 8612   8.580   1.635  11.651 -0.8992  0.1043  0.9116
   64MOL0     H 8613   8.526   1.806  11.610 -0.1666  0.4661  2.6195
   64MOL0     H 8614   8.558   1.609  11.386  1.9402 -1.5354  1.2433
   64MOL0     H 8615   8.564   1.791  11.388  0.0678  2.0899  4.5388
   64MOL0     H 8616   8.768   1.583  11.480  5.0553  1.7432  1.7833
   64MOL0     H 8617   8.767   1.747  11.541 -2.8305 -1.3696  2.2354
   64MOL0     H 8618   8.900   1.667  11.304  0.3484  1.5309 -2.7879
   64MOL0     H 8619   8.749   1.688  11.236 -0.9825 -1.7105  1.3971
   64MOL0     H 8620   7.756   1.365  11.593 -1.2704  0.3149  1.2239
   64MOL0     H 8621   7.558   1.493  11.567  1.3784  0.6593  0.8645
   64MOL0     H 8622   7.296   1.805  11.476  0.3752  1.7770  1.2169
   64MOL0     H 8623   7.076   1.906  11.441  0.5369 -1.7809  0.5192
   64MOL0     H 8624   5.456   1.940  11.226  1.7114 -1.4004 -1.9363
   64MOL0     H 8625   5.249   1.826  11.161  1.9539  0.1032  0.8621
   64MOL0     H 8626   4.820   1.902  10.927 -1.3983  2.5105 -3.0875
   64MOL0     H 8627   4.615   1.817  10.789 -0.4968 -0.6912  0.0136
   64MOL0     H 8628   4.632   1.385  10.642  1.9329  1.2748  0.2587
   64MOL0     H 8629   4.657   1.506  10.526  1.6383  3.7299  3.0233
   64MOL0     H 8630   4.410   1.383  10.634  0.0826 -0.9096 -0.5053
   64MOL0     H 8631   4.476   1.364  10.462 -1.0911  0.2336 -0.8074
   64MOL0     H 8632   4.414   1.609  10.435  0.3973  0.7432  1.0577
   64MOL0     H 8633   4.344   1.599  10.603  1.4296  1.0363  0.0364
   64MOL0     H 8634   4.186   1.582  10.397  0.0477  1.3220  1.1130
   64MOL0     H 8635   4.276   1.432  10.359 -1.4652  1.3773 -1.3683
   64MOL0     H 8636   4.013   1.285  10.647 -0.7550  0.7850 -1.4094
   64MOL0     H 8637   4.806   1.447  10.721 -2.5308 -0.8815  2.5086
   64MOL0     H 8638   5.080   1.484  10.696 -2.2428 -1.0844 -0.3841
   64MOL0     H 8639   5.123   1.530  10.862 -1.3703  1.3263  1.4712
   64MOL0     H 8640   5.009   1.397  10.833  0.6012  0.9442  2.5469
   65MOL0     O 8641  10.310   2.393   4.999 -0.2516  0.7882 -0.4388
   65MOL0     C 8642  10.325   2.392   4.881 -0.3363 -0.8462 -1.0212
   65MOL0     O 8643  10.443   2.410   4.816  0.5304  0.3137  0.4273
   65MOL0     C 8644  10.554   2.455   4.896  1.1134  0.5041 -0.2951
   65MOL0     C 8645  10.596   2.384   5.009 -0.1707  0.2695 -0.3851
   65MOL0     C 8646  10.713   2.426   5.080  0.4197 -0.3295  0.7436
   65MOL0     C 8647  10.794   2.521   5.024  0.3251 -0.0829  0.4363
   65MOL0     O 8648  10.912   2.553   5.099  0.0399 -0.6783 -0.8401
   65MOL0     C 8649  10.978   2.672   5.059 -0.6151  0.1249 -0.6515
   65MOL0     C 8650  11.124   2.693   5.130  0.6827 -0.3576 -0.0914
   65MOL0     C 8651  11.246   2.610   5.098 -0.6659  0.1570 -0.3389
   65MOL0     C 8652  11.359   2.615   5.198 -0.0355 -0.1053  0.2793
   65MOL0     C 8653  11.485   2.516   5.169  0.5273 -0.0918  0.1089
   65MOL0     C 8654  11.591   2.549   5.276  0.1359  0.7026 -0.5141
   65MOL0     C 8655  11.681   2.667   5.241 -0.1469  0.5963 -0.4819
   65MOL0     C 8656  11.758   2.711   5.366  0.3977  0.5381  1.6276
   65MOL0     N 8657  11.851   2.597   5.403  0.1519 -0.1924 -0.5399
   65MOL0     C 8658  11.957   2.540   5.344 -0.1388  1.1668 -0.1802
   65MOL0     C 8659  11.981   2.424   5.414  0.8113 -0.0082 -0.0899
   65MOL0     C 8660  12.096   2.331   5.384 -0.0519 -0.2502 -0.3755
   65MOL0     C 8661  12.219   2.390   5.458  0.8179 -0.1527  0.0036
   65MOL0     C 8662  12.331   2.291   5.491 -0.2797  0.4117 -0.2084
   65MOL0     C 8663  12.447   2.363   5.559 -0.3125 -0.3859 -0.1291
   65MOL0     O 8664  12.527   2.268   5.634  0.3285 -0.2475 -0.7383
   65MOL0     C 8665  12.643   2.321   5.681 -0.3128 -0.8709 -0.2383
   65MOL0     C 8666  12.684   2.451   5.662 -0.0689 -0.3542  0.5052
   65MOL0     C 8667  12.801   2.504   5.709 -0.2966  0.4738  0.0266
   65MOL0     C 8668  12.878   2.428   5.796  0.2300  1.3973 -0.2691
   65MOL0     C 8669  12.985   2.491   5.887  0.3424  0.0315  0.0608
   65MOL0     O 8670  13.089   2.407   5.926  0.9210  0.5481  0.0668
   65MOL0     C 8671  13.191   2.456   5.991 -0.2046  0.2311  0.7511
   65MOL0     C 8672  13.196   2.466   6.127  1.1219 -0.0798  0.5307
   65MOL0     C 8673  13.321   2.499   6.186  0.3695  0.0401  0.0423
   65MOL0     C 8674  13.432   2.534   6.113 -0.4858  0.4827 -0.4492
   65MOL0     O 8675  13.545   2.570   6.190  0.0171 -0.8701 -0.5386
   65MOL0     C 8676  13.652   2.631   6.120  0.7005 -0.5744  0.0505
   65MOL0     C 8677  13.763   2.542   6.061  0.7747 -0.0276 -0.6558
   65MOL0     C 8678  13.856   2.615   5.963  0.2711  0.0258 -0.1698
   65MOL0     C 8679  13.938   2.521   5.869  0.2858 -0.3486  0.0422
   65MOL0     C 8680  13.981   2.590   5.743  0.3632 -0.4127 -0.0068
   65MOL0     C 8681  14.087   2.495   5.675  0.5936  0.0502  0.4817
   65MOL0     C 8682  14.184   2.563   5.579  0.1552  0.6815 -0.1302
   65MOL0     C 8683  14.130   2.563   5.434 -0.0200  0.3064  0.0500
   65MOL0    Cl 8684  14.251   2.665   5.337  0.0212  0.0164 -0.2505
   65MOL0     C 8685  13.428   2.531   5.973  0.5987  0.1637  0.0774
   65MOL0     C 8686  13.309   2.486   5.915  0.3860  0.8184  1.2096
   65MOL0     O 8687  12.954   2.595   5.946 -0.5573 -0.1282 -0.7766
   65MOL0     C 8688  12.843   2.295   5.808  0.4024  0.2497  0.5800
   65MOL0     C 8689  12.727   2.238   5.759 -0.4736  0.1098  0.4366
   65MOL0     N 8690  11.896   2.419   5.523 -0.2010  0.1128 -0.2760
   65MOL0     N 8691  11.828   2.527   5.519  0.6518  0.1936  0.1522
   65MOL0     C 8692  10.756   2.584   4.898  0.2969 -0.3187 -0.3333
   65MOL0     C 8693  10.632   2.561   4.845  0.5167  0.4556 -0.2603
   65MOL0     C 8694  10.207   2.363   4.802 -0.3406 -0.2382 -0.9286
   65MOL0     C 8695  10.139   2.467   4.737  0.0455  1.2329  0.5827
   65MOL0     C 8696  10.030   2.442   4.649 -0.7758  0.7478  0.4840
   65MOL0     C 8697   9.992   2.313   4.624  0.5606  0.2954  0.7485
   65MOL0     O 8698   9.890   2.298   4.529 -0.0101 -0.3417  0.5040
   65MOL0     C 8699   9.850   2.164   4.503 -0.2974  0.4951 -0.0312
   65MOL0     C 8700   9.934   2.095   4.391 -0.0020  0.1157  0.2348
   65MOL0     C 8701   9.895   2.153   4.254  0.9702 -0.0812 -0.3070
   65MOL0     C 8702   9.815   2.066   4.160  0.0785  0.2799 -0.8245
   65MOL0     C 8703   9.691   2.008   4.218  0.6807 -0.0223 -0.3686
   65MOL0     C 8704   9.591   1.973   4.266 -0.3053 -0.6707  1.0500
   65MOL0     C 8705  10.066   2.205   4.689  0.1919 -0.4876  0.5174
   65MOL0     C 8706  10.167   2.231   4.779  0.8455 -0.1950 -1.1796
   65MOL0     C 8707  10.239   2.110   4.843 -1.0813 -0.4574  0.1640
   65MOL0     H 8708  10.554   2.285   5.025  0.3132  0.6309  4.3459
   65MOL0     H 8709  10.752   2.388   5.174  0.5347 -1.3838  0.2927
   65MOL0     H 8710  11.004   2.685   4.954 -0.1138  2.9324 -0.2442
   65MOL0     H 8711  10.915   2.758   5.080 -0.1873  1.2544 -3.6100
   65MOL0     H 8712  11.112   2.691   5.238  1.3650 -0.2077 -0.0069
   65MOL0     H 8713  11.150   2.796   5.103  4.6962 -0.5334  2.3523
   65MOL0     H 8714  11.294   2.659   5.013  2.8216  4.1319  3.4366
   65MOL0     H 8715  11.222   2.504   5.084  1.9718 -0.3531 -1.7118
   65MOL0     H 8716  11.391   2.717   5.222  0.6793 -0.1603 -0.3991
   65MOL0     H 8717  11.312   2.576   5.288 -1.5100  0.2440 -0.3026
   65MOL0     H 8718  11.436   2.419   5.171 -1.8692  1.0463  1.2059
   65MOL0     H 8719  11.532   2.531   5.071  1.7772  0.8640  0.8154
   65MOL0     H 8720  11.550   2.573   5.374 -1.1276  2.9806 -1.5085
   65MOL0     H 8721  11.661   2.466   5.290  1.8449  2.2393  0.4665
   65MOL0     H 8722  11.619   2.745   5.196  0.7039  0.2293 -2.3698
   65MOL0     H 8723  11.752   2.630   5.167 -2.3430  1.7382 -3.3164
   65MOL0     H 8724  11.819   2.799   5.343  3.4479 -1.0890  2.9455
   65MOL0     H 8725  11.688   2.742   5.444 -1.8652 -1.0160  0.3179
   65MOL0     H 8726  11.998   2.563   5.246 -3.0004 -0.5228 -1.9191
   65MOL0     H 8727  12.073   2.230   5.418 -0.4770 -0.9298 -2.5194
   65MOL0     H 8728  12.124   2.328   5.278 -1.3979  1.9237 -0.8566
   65MOL0     H 8729  12.254   2.475   5.399  0.1618  0.0605 -0.0791
   65MOL0     H 8730  12.184   2.420   5.557 -0.1302 -0.9685 -0.0709
   65MOL0     H 8731  12.366   2.247   5.397 -0.1808  0.9068 -0.4064
   65MOL0     H 8732  12.301   2.218   5.567 -2.6016 -1.2535 -2.5254
   65MOL0     H 8733  12.406   2.428   5.637 -1.3516 -1.8347  0.5634
   65MOL0     H 8734  12.508   2.421   5.489 -0.4717  2.2497  1.7368
   65MOL0     H 8735  12.630   2.526   5.605 -0.2314 -1.3805 -0.7511
   65MOL0     H 8736  12.826   2.608   5.691  1.1141  0.3407  1.0698
   65MOL0     H 8737  13.109   2.448   6.189 -0.4964  0.0549 -1.5763
   65MOL0     H 8738  13.324   2.509   6.294  0.1903  1.7871 -0.0701
   65MOL0     H 8739  13.615   2.697   6.041  0.5864 -0.5284  0.1418
   65MOL0     H 8740  13.698   2.700   6.192  0.9818 -2.0192  1.3105
   65MOL0     H 8741  13.811   2.493   6.146 -2.0152 -1.9823 -0.0742
   65MOL0     H 8742  13.719   2.453   6.016 -1.6996  0.7407  0.0844
   65MOL0     H 8743  13.789   2.676   5.902 -0.9728 -0.2246  0.9011
   65MOL0     H 8744  13.918   2.684   6.021  1.2865 -0.5690 -0.5264
   65MOL0     H 8745  13.871   2.439   5.841 -1.2309  0.6810  0.5864
   65MOL0     H 8746  14.030   2.489   5.920  1.4165  2.6449  0.0969
   65MOL0     H 8747  14.027   2.683   5.780  1.2480 -0.7766 -0.1589
   65MOL0     H 8748  13.894   2.617   5.683 -0.2886  1.3811  1.6341
   65MOL0     H 8749  14.155   2.455   5.751  0.0501 -0.1676  0.8654
   65MOL0     H 8750  14.039   2.415   5.618  3.0465 -2.1864  1.3716
   65MOL0     H 8751  14.273   2.500   5.571 -2.4583 -3.0217 -4.0470
   65MOL0     H 8752  14.198   2.669   5.603  2.6298  1.0258 -2.5757
   65MOL0     H 8753  14.128   2.462   5.392  2.2557 -0.3175  1.2301
   65MOL0     H 8754  14.029   2.602   5.417 -0.7049 -1.5424 -0.3059
   65MOL0     H 8755  13.508   2.555   5.904 -0.5601  2.7310 -0.5016
   65MOL0     H 8756  13.313   2.482   5.807  0.5277  4.2186  0.9802
   65MOL0     H 8757  12.909   2.240   5.874  1.7709 -1.9134 -2.3579
   65MOL0     H 8758  12.687   2.143   5.793  0.6341  0.1002  1.7619
   65MOL0     H 8759  10.824   2.652   4.848  0.2634 -0.6504 -0.8433
   65MOL0     H 8760  10.611   2.617   4.754  0.6669 -1.0243 -1.2500
   65MOL0     H 8761  10.164   2.567   4.770  1.7943  1.0477 -0.0990
   65MOL0     H 8762   9.984   2.531   4.608  2.4454  2.2743 -0.0640
   65MOL0     H 8763   9.745   2.157   4.475 -0.3554  3.7134 -1.0431
   65MOL0     H 8764   9.856   2.103   4.594  2.0952  0.1909 -0.3122
   65MOL0     H 8765   9.909   1.989   4.391  2.7679 -0.6534  2.3062
   65MOL0     H 8766  10.042   2.106   4.405  0.3189 -1.9069 -0.2872
   65MOL0     H 8767   9.989   2.171   4.201  0.6919  0.0764 -0.7489
   65MOL0     H 8768   9.856   2.254   4.266 -1.2607 -0.3886 -3.7409
   65MOL0     H 8769   9.799   2.122   4.068 -1.4610 -0.3129 -0.9423
   65MOL0     H 8770   9.888   1.985   4.147 -0.0445 -0.4138  2.0120
   65MOL0     H 8771   9.502   1.939   4.313 -0.1701 -1.2683  0.8862
   65MOL0     H 8772  10.031   2.102   4.683 -0.8321 -0.2722  2.2489
   65MOL0     H 8773  10.338   2.133   4.886 -1.6658 -1.3915  2.1204
   65MOL0     H 8774  10.173   2.064   4.917  0.6284 -1.8048  0.9458
   65MOL0     H 8775  10.256   2.037   4.763 -0.2799 -0.3406  0.2181
   66MOL0     O 8776   2.264   0.390   0.930 -0.2084 -0.0456 -0.0981
   66MOL0     C 8777   2.196   0.463   1.004  0.2156  0.6027  0.6285
   66MOL0     O 8778   2.240   0.577   1.068  0.3013  0.0875  0.6239
   66MOL0     C 8779   2.366   0.626   1.049 -0.5474  0.5066  0.3192
   66MOL0     C 8780   2.387   0.740   0.966  0.1385 -0.4562 -0.0250
   66MOL0     C 8781   2.511   0.795   0.959  1.4200 -0.1532  0.5592
   66MOL0     C 8782   2.632   0.735   1.002 -0.8024  0.2527 -0.2375
   66MOL0     O 8783   2.753   0.795   0.982  0.3063  0.1359 -0.0272
   66MOL0     C 8784   2.864   0.736   1.041 -0.3507 -0.4853  0.7031
   66MOL0     C 8785   2.983   0.834   1.025  0.1494 -0.6083  0.8587
   66MOL0     C 8786   3.015   0.881   0.883  0.3988 -1.1070  1.0694
   66MOL0     C 8787   3.123   0.786   0.821  0.3668  1.0194  0.0195
   66MOL0     C 8788   3.201   0.839   0.696  0.0318  0.0633 -0.2287
   66MOL0     C 8789   3.259   0.729   0.605 -0.1933 -0.3170 -0.1789
   66MOL0     C 8790   3.340   0.794   0.491  0.1130  0.1968 -0.0538
   66MOL0     C 8791   3.247   0.876   0.399  0.6514  0.2811 -0.0943
   66MOL0     N 8792   3.327   0.904   0.279 -0.2886 -0.4016 -0.8865
   66MOL0     C 8793   3.442   0.979   0.280  0.6044 -0.1518 -0.3414
   66MOL0     C 8794   3.494   0.974   0.153 -0.3537 -0.2708 -0.6952
   66MOL0     C 8795   3.631   1.031   0.113 -0.3231 -0.0885 -1.0704
   66MOL0     C 8796   3.720   0.929   0.038 -0.4935 -0.1150  0.4750
   66MOL0     C 8797   3.836   1.003  -0.039 -0.2246  0.4799 -0.3065
   66MOL0     C 8798   3.934   1.065   0.069  0.2132 -0.0621  0.2909
   66MOL0     O 8799   4.037   1.131  -0.012 -0.2624  0.2361 -1.0692
   66MOL0     C 8800   4.158   1.166   0.045  0.0093 -1.2418  0.4046
   66MOL0     C 8801   4.205   1.121   0.166  0.3491 -0.1141 -0.1175
   66MOL0     C 8802   4.325   1.162   0.207  0.0052 -0.2619 -0.9284
   66MOL0     C 8803   4.418   1.241   0.134 -0.1515  0.8677 -0.7983
   66MOL0     C 8804   4.552   1.278   0.185  0.3967  0.0799 -1.1066
   66MOL0     O 8805   4.575   1.240   0.310 -0.7479  0.9585 -0.7981
   66MOL0     C 8806   4.695   1.280   0.360  0.1743 -0.5646  0.0114
   66MOL0     C 8807   4.799   1.188   0.372 -0.2758 -0.8725 -0.2358
   66MOL0     C 8808   4.920   1.230   0.432 -0.4116  0.3836 -1.1387
   66MOL0     C 8809   4.937   1.364   0.471  0.1759 -0.9309  0.5407
   66MOL0     O 8810   5.058   1.402   0.529 -0.4097 -0.1564 -0.4080
   66MOL0     C 8811   5.180   1.326   0.504 -0.0034 -0.2409 -0.4385
   66MOL0     C 8812   5.316   1.397   0.534  0.1234 -0.1981 -0.2376
   66MOL0     C 8813   5.441   1.297   0.538  0.5774  0.0810 -0.6344
   66MOL0     C 8814   5.563   1.381   0.545  1.5096 -0.7410  0.6270
   66MOL0     C 8815   5.671   1.313   0.618 -0.2919 -0.0168  0.5656
   66MOL0     C 8816   5.718   1.181   0.545 -0.0374  0.1707  0.7566
   66MOL0     C 8817   5.865   1.152   0.567 -0.0094 -0.3219 -0.8179
   66MOL0     C 8818   5.913   1.014   0.519  0.6421 -0.2174 -0.3752
   66MOL0    Cl 8819   6.061   0.961   0.605  0.0755 -0.6032 -0.4771
   66MOL0     C 8820   4.841   1.459   0.454 -0.5600 -0.3287  0.3208
   66MOL0     C 8821   4.714   1.423   0.400  0.1421  0.6707 -0.1875
   66MOL0     O 8822   4.637   1.330   0.114 -0.2707 -0.1701 -0.5626
   66MOL0     C 8823   4.379   1.288   0.012  0.0854  0.0235  1.5109
   66MOL0     C 8824   4.246   1.245  -0.036 -0.2286 -0.6973 -0.1938
   66MOL0     N 8825   3.403   0.910   0.073  0.0565  0.0128 -0.0694
   66MOL0     N 8826   3.304   0.878   0.145  0.5810 -0.2303  0.5568
   66MOL0     C 8827   2.613   0.612   1.070  0.9156  0.0982  0.4408
   66MOL0     C 8828   2.481   0.563   1.101 -0.3229 -0.1482 -0.2064
   66MOL0     C 8829   2.046   0.451   1.013 -0.0986 -0.0754  0.0016
   66MOL0     C 8830   1.974   0.572   1.035  0.4701  0.0343  0.5561
   66MOL0     C 8831   1.840   0.575   1.051 -0.1342  0.3433 -0.0318
   66MOL0     C 8832   1.769   0.453   1.041 -0.9376  0.0557 -0.6380
   66MOL0     O 8833   1.641   0.452   1.093  0.5229  0.5189 -0.3035
   66MOL0     C 8834   1.552   0.340   1.052  0.2163  0.0009 -0.9772
   66MOL0     C 8835   1.403   0.367   1.095 -0.4352 -0.0944  0.3923
   66MOL0     C 8836   1.306   0.286   1.017  0.5776 -0.3409 -0.1548
   66MOL0     C 8837   1.158   0.320   1.070  0.5501 -0.2674  0.3885
   66MOL0     C 8838   1.060   0.273   0.972  0.9279  0.3625 -0.4646
   66MOL0     C 8839   0.961   0.247   0.909 -0.3259 -0.0497  0.2524
   66MOL0     C 8840   1.836   0.333   0.997  0.4168  0.0839  0.1339
   66MOL0     C 8841   1.973   0.337   0.991  0.5514 -0.0611  1.1482
   66MOL0     C 8842   2.038   0.200   0.962  0.0739  0.8888  0.3585
   66MOL0     H 8843   2.301   0.779   0.913 -1.6193 -1.6338  1.8228
   66MOL0     H 8844   2.532   0.889   0.909 -1.2250  0.5552  0.6204
   66MOL0     H 8845   2.858   0.712   1.147 -2.5283  2.0929  1.2748
   66MOL0     H 8846   2.883   0.647   0.980  1.7760 -1.1092  2.1509
   66MOL0     H 8847   3.073   0.799   1.077  0.7333  0.3639  0.5321
   66MOL0     H 8848   2.960   0.923   1.083  0.9613  0.4422 -0.3648
   66MOL0     H 8849   3.060   0.980   0.881  1.0705 -1.4160 -0.8265
   66MOL0     H 8850   2.927   0.896   0.820 -0.2681 -1.9439  1.7582
   66MOL0     H 8851   3.194   0.765   0.901  2.9414  2.9541 -1.6149
   66MOL0     H 8852   3.068   0.696   0.790 -0.4330  2.5656 -3.6187
   66MOL0     H 8853   3.134   0.906   0.642 -0.0513 -0.4277 -0.7475
   66MOL0     H 8854   3.285   0.898   0.732 -0.1226 -1.3463  2.8217
   66MOL0     H 8855   3.322   0.663   0.664  0.6794 -1.2909 -2.1004
   66MOL0     H 8856   3.175   0.670   0.566 -1.8858  2.0324 -0.2863
   66MOL0     H 8857   3.378   0.712   0.429 -0.8051  0.8098 -1.4755
   66MOL0     H 8858   3.430   0.849   0.520  1.6407 -1.5030 -1.2946
   66MOL0     H 8859   3.147   0.836   0.380  0.2811  1.9868 -2.1227
   66MOL0     H 8860   3.222   0.974   0.441 -0.3011  0.7672 -1.6668
   66MOL0     H 8861   3.487   1.033   0.364  1.8007  0.2626 -1.2157
   66MOL0     H 8862   3.636   1.120   0.050  1.1415 -1.0404 -2.3690
   66MOL0     H 8863   3.677   1.068   0.205  0.7182  0.4708 -1.8028
   66MOL0     H 8864   3.774   0.863   0.107  0.2614 -1.8293 -1.6588
   66MOL0     H 8865   3.667   0.866  -0.033  3.9280 -3.9430  0.0855
   66MOL0     H 8866   3.806   1.077  -0.113  0.7208 -1.4307 -2.7551
   66MOL0     H 8867   3.894   0.929  -0.096 -3.5635 -0.8523 -2.2451
   66MOL0     H 8868   3.968   0.982   0.132 -0.5189 -1.4553 -1.0782
   66MOL0     H 8869   3.878   1.133   0.133  0.3836  1.8753 -1.4957
   66MOL0     H 8870   4.142   1.062   0.232 -0.8543 -0.4484 -1.5089
   66MOL0     H 8871   4.354   1.135   0.308 -0.2628  2.2064 -0.1032
   66MOL0     H 8872   4.784   1.082   0.355 -0.2334 -0.9889  0.4311
   66MOL0     H 8873   5.003   1.165   0.459 -0.1391  1.3794  0.5371
   66MOL0     H 8874   5.173   1.236   0.566  1.5322 -0.5623 -0.6890
   66MOL0     H 8875   5.185   1.309   0.397 -2.6714  1.9739 -1.0430
   66MOL0     H 8876   5.330   1.479   0.462  0.0215 -1.8485 -2.2353
   66MOL0     H 8877   5.304   1.428   0.638 -0.7322 -1.3849  0.0327
   66MOL0     H 8878   5.428   1.227   0.621  0.4097  0.9715  0.0930
   66MOL0     H 8879   5.439   1.244   0.442  1.6598  0.0353 -0.6504
   66MOL0     H 8880   5.532   1.471   0.598  1.3906  0.0104 -0.6899
   66MOL0     H 8881   5.602   1.396   0.444 -0.4926 -1.2763 -0.2633
   66MOL0     H 8882   5.636   1.287   0.718  0.6177 -0.9522  0.6648
   66MOL0     H 8883   5.752   1.386   0.614  1.7695 -2.2023 -0.3914
   66MOL0     H 8884   5.669   1.088   0.574  3.3440 -3.7191 -4.2453
   66MOL0     H 8885   5.687   1.192   0.441 -0.3908 -1.1390  0.7033
   66MOL0     H 8886   5.883   1.155   0.675  0.0428  1.1175 -0.8564
   66MOL0     H 8887   5.932   1.226   0.524 -0.7704  0.6917 -0.3031
   66MOL0     H 8888   5.832   0.950   0.555 -1.1460  1.9725 -0.2803
   66MOL0     H 8889   5.919   1.015   0.410  0.2890 -0.9622 -0.4080
   66MOL0     H 8890   4.863   1.560   0.487  0.1614 -0.6530  0.8551
   66MOL0     H 8891   4.634   1.496   0.397 -1.2458 -0.6427  2.0419
   66MOL0     H 8892   4.450   1.337  -0.054 -0.3796 -1.5396 -0.2408
   66MOL0     H 8893   4.200   1.280  -0.128 -3.2376 -1.6071  0.8215
   66MOL0     H 8894   2.694   0.554   1.112  0.1112 -0.1560  1.7149
   66MOL0     H 8895   2.462   0.468   1.152  0.5351 -3.4473 -5.2906
   66MOL0     H 8896   2.026   0.667   1.035 -1.4070  1.1017  1.1348
   66MOL0     H 8897   1.795   0.671   1.075  2.4823  1.7311 -0.2938
   66MOL0     H 8898   1.589   0.247   1.097  0.4605  0.8839  0.7476
   66MOL0     H 8899   1.548   0.335   0.943  1.0846  1.1713 -1.0816
   66MOL0     H 8900   1.380   0.472   1.072  4.7621  0.9649 -1.1380
   66MOL0     H 8901   1.402   0.348   1.203  0.5015 -1.1022  0.2334
   66MOL0     H 8902   1.327   0.184   1.049 -1.1754 -0.3400  1.1398
   66MOL0     H 8903   1.320   0.305   0.910 -0.2658 -0.3841 -0.2761
   66MOL0     H 8904   1.133   0.286   1.171  0.3563 -1.2757  0.0041
   66MOL0     H 8905   1.152   0.429   1.077  0.5283 -0.0769 -1.8634
   66MOL0     H 8906   0.883   0.233   0.837 -1.0342 -0.1372  1.0240
   66MOL0     H 8907   1.776   0.245   0.974  0.2440  0.8770 -2.7262
   66MOL0     H 8908   2.060   0.200   0.855 -2.2245  0.6171 -0.1725
   66MOL0     H 8909   2.130   0.178   1.017 -0.6813 -0.7688  1.0214
   66MOL0     H 8910   1.963   0.123   0.983  0.3836 -0.3251 -2.4724
   67MOL0     O 8911   4.172   8.796   2.559  0.1752  0.2224  0.3677
   67MOL0     C 8912   4.178   8.879   2.649 -0.4927 -0.2170 -0.0650
   67MOL0     O 8913   4.072   8.931   2.714  0.4594 -0.0285 -0.3880
   67MOL0     C 8914   3.942   8.923   2.660  0.0058 -0.1788  0.5764
   67MOL0     C 8915   3.868   9.036   2.604 -0.1900  0.3161  0.2006
   67MOL0     C 8916   3.745   9.023   2.544  1.4946 -0.0456 -0.5975
   67MOL0     C 8917   3.679   8.890   2.548  0.0544  0.0186  0.1199
   67MOL0     O 8918   3.552   8.852   2.505  0.3603  0.0905 -0.0013
   67MOL0     C 8919   3.461   8.954   2.457  0.3521  0.2333 -0.4551
   67MOL0     C 8920   3.322   8.941   2.519 -0.4306  0.1056  0.4560
   67MOL0     C 8921   3.213   9.031   2.444  0.6654 -0.0611 -0.1722
   67MOL0     C 8922   3.064   8.998   2.484 -0.0874 -0.2137  0.0428
   67MOL0     C 8923   2.977   9.042   2.366  0.1294  0.8833  0.4160
   67MOL0     C 8924   2.832   9.003   2.377  0.3638  0.6861  0.1303
   67MOL0     C 8925   2.732   9.049   2.264  0.2665 -0.0205 -1.9172
   67MOL0     C 8926   2.649   9.178   2.305 -0.1918 -0.4973  0.1158
   67MOL0     N 8927   2.727   9.298   2.354  0.1183 -0.2328 -0.2301
   67MOL0     C 8928   2.802   9.385   2.281 -0.2836 -0.5882  0.0924
   67MOL0     C 8929   2.867   9.461   2.377 -0.0682  0.6628 -0.3230
   67MOL0     C 8930   2.955   9.581   2.363 -0.1035 -0.2281 -0.4783
   67MOL0     C 8931   3.088   9.563   2.445  0.5113 -0.6541 -0.0562
   67MOL0     C 8932   3.082   9.595   2.601 -0.2670  0.0770  0.2426
   67MOL0     C 8933   3.225   9.627   2.650  0.4773  0.1082 -0.3918
   67MOL0     O 8934   3.228   9.609   2.794 -0.0920 -0.0861 -0.5963
   67MOL0     C 8935   3.352   9.609   2.861  0.2345 -0.6890  0.0350
   67MOL0     C 8936   3.373   9.556   2.985  0.7584 -0.3356  0.2799
   67MOL0     C 8937   3.500   9.556   3.050  0.7141  0.1399 -0.3486
   67MOL0     C 8938   3.606   9.629   2.998  0.0191  0.3059 -0.0806
   67MOL0     C 8939   3.732   9.636   3.075 -0.2688 -0.5030 -0.4140
   67MOL0     O 8940   3.737   9.601   3.209  0.0868 -0.7015 -0.5542
   67MOL0     C 8941   3.852   9.641   3.275 -0.5713 -0.3434 -0.4639
   67MOL0     C 8942   3.936   9.546   3.330 -0.0947 -0.2650 -0.1485
   67MOL0     C 8943   4.051   9.576   3.392 -0.6534 -0.3975  1.2281
   67MOL0     C 8944   4.087   9.709   3.408 -0.1401  0.7584 -0.5697
   67MOL0     O 8945   4.204   9.730   3.479  0.3808 -0.9170 -0.1245
   67MOL0     C 8946   4.226   9.869   3.512 -0.2247  0.0372  0.0272
   67MOL0     C 8947   4.360   9.881   3.590 -0.6900 -0.6185 -0.9694
   67MOL0     C 8948   4.386  10.030   3.642  0.2793 -0.1683  1.0803
   67MOL0     C 8949   4.528  10.047   3.694  0.4128 -0.3201 -0.0154
   67MOL0     C 8950   4.544  10.167   3.785  0.4576 -1.1121  0.1400
   67MOL0     C 8951   4.695  10.187   3.833 -0.0948 -0.2385  0.2714
   67MOL0     C 8952   4.709  10.311   3.921  0.3986  0.5501  0.2434
   67MOL0     C 8953   4.855  10.333   3.969 -1.0626 -0.0644  0.7729
   67MOL0    Cl 8954   4.953  10.369   3.821 -0.1738  0.1349  0.3165
   67MOL0     C 8955   4.011   9.809   3.353 -1.1197  0.3564 -0.0961
   67MOL0     C 8956   3.896   9.775   3.286  0.0575 -0.1663 -0.6063
   67MOL0     O 8957   3.838   9.655   3.008 -0.7025  0.2889  0.4815
   67MOL0     C 8958   3.586   9.695   2.874  0.1797 -0.4545  0.4190
   67MOL0     C 8959   3.463   9.681   2.808  0.9001 -0.1353 -0.7607
   67MOL0     N 8960   2.826   9.413   2.501  0.3791  0.0174  1.0160
   67MOL0     N 8961   2.732   9.326   2.484  0.4820 -0.2590 -0.1168
   67MOL0     C 8962   3.750   8.783   2.611 -0.9251  0.2416  1.2737
   67MOL0     C 8963   3.880   8.798   2.654 -0.7277  0.0766 -0.6997
   67MOL0     C 8964   4.313   8.896   2.709  0.1201  0.7917 -0.5471
   67MOL0     C 8965   4.422   8.863   2.621 -0.0518  0.1549 -0.3325
   67MOL0     C 8966   4.551   8.876   2.657  0.0356  0.0159 -0.3691
   67MOL0     C 8967   4.587   8.925   2.788  0.1751  0.9531 -0.8002
   67MOL0     O 8968   4.720   8.914   2.817  0.8922 -0.1874 -0.2100
   67MOL0     C 8969   4.786   9.036   2.855 -0.3040 -0.9795 -0.1146
   67MOL0     C 8970   4.926   9.019   2.803 -0.0167 -0.3370  0.6974
   67MOL0     C 8971   5.003   9.144   2.829  0.3924 -0.0452 -0.6455
   67MOL0     C 8972   5.146   9.140   2.753  0.0993 -0.2756 -0.6562
   67MOL0     C 8973   5.225   9.250   2.819  0.6655  0.0119 -0.3106
   67MOL0     C 8974   5.253   9.352   2.871 -0.4292  0.1543  0.5704
   67MOL0     C 8975   4.476   8.947   2.876 -0.0451  0.2503 -0.1255
   67MOL0     C 8976   4.342   8.938   2.839 -0.2306  0.9757 -0.4418
   67MOL0     C 8977   4.237   8.953   2.949  0.4410 -0.2472  0.0126
   67MOL0     H 8978   3.919   9.132   2.604  3.2108 -1.2855 -1.4758
   67MOL0     H 8979   3.703   9.114   2.502  1.1531  2.1189  3.8612
   67MOL0     H 8980   3.505   9.049   2.488  1.1389 -0.6956  1.4465
   67MOL0     H 8981   3.445   8.945   2.349 -4.3349  2.5411 -0.1828
   67MOL0     H 8982   3.335   8.953   2.627  1.0666 -1.6725  0.5182
   67MOL0     H 8983   3.277   8.841   2.515 -3.0937  1.1698  1.2321
   67MOL0     H 8984   3.226   9.016   2.336 -4.8468  1.5927 -1.3594
   67MOL0     H 8985   3.236   9.136   2.462  2.4845 -0.6755  1.4862
   67MOL0     H 8986   3.046   8.891   2.492  1.8020 -0.5623  0.2061
   67MOL0     H 8987   3.031   9.049   2.575 -0.1785  0.7822 -0.5366
   67MOL0     H 8988   2.992   9.150   2.354 -0.0841  0.6992 -1.9589
   67MOL0     H 8989   3.011   8.998   2.272  1.0470  1.3361  0.5231
   67MOL0     H 8990   2.831   8.893   2.380  0.9441  0.5731 -2.2466
   67MOL0     H 8991   2.783   9.036   2.469 -1.1566  0.5111 -0.5769
   67MOL0     H 8992   2.660   8.969   2.241 -1.2540  0.6442  0.2001
   67MOL0     H 8993   2.783   9.065   2.169  1.0313  0.6437 -1.4125
   67MOL0     H 8994   2.589   9.212   2.220  0.5015  1.5404  0.3651
   67MOL0     H 8995   2.578   9.164   2.387  0.1928 -0.9502  0.3730
   67MOL0     H 8996   2.789   9.406   2.175  0.3451 -1.3201 -0.1333
   67MOL0     H 8997   2.976   9.591   2.257 -0.2686 -3.9855 -1.0209
   67MOL0     H 8998   2.892   9.664   2.394  0.5006 -0.6565  2.2039
   67MOL0     H 8999   3.114   9.457   2.441 -2.3163 -1.5218  1.3298
   67MOL0     H 9000   3.169   9.612   2.391 -0.3719 -2.6838 -3.5865
   67MOL0     H 9001   3.042   9.508   2.652 -1.1775 -1.5076 -2.8819
   67MOL0     H 9002   3.006   9.669   2.626 -0.8581  0.4813 -2.3764
   67MOL0     H 9003   3.260   9.724   2.615 -0.1832  0.2181 -0.7805
   67MOL0     H 9004   3.290   9.553   2.603 -0.4810 -1.3176  0.4181
   67MOL0     H 9005   3.284   9.508   3.026 -1.2266  0.8635 -2.3399
   67MOL0     H 9006   3.503   9.514   3.150  0.6388  0.1948 -0.3230
   67MOL0     H 9007   3.913   9.440   3.320 -0.2749 -0.7650  3.6873
   67MOL0     H 9008   4.114   9.491   3.416  1.3681  0.2865 -1.1963
   67MOL0     H 9009   4.230   9.939   3.428  3.9226  2.1860  1.7365
   67MOL0     H 9010   4.153   9.917   3.578  1.6221  3.2188 -0.0296
   67MOL0     H 9011   4.359   9.814   3.676  1.2956  0.8335  0.2841
   67MOL0     H 9012   4.439   9.845   3.524 -0.4572 -1.7262 -0.1032
   67MOL0     H 9013   4.368  10.103   3.562  2.3008 -1.2722 -0.4881
   67MOL0     H 9014   4.308  10.053   3.714  0.8471  0.4015  1.5273
   67MOL0     H 9015   4.587  10.044   3.602 -1.1101  0.3288 -1.0566
   67MOL0     H 9016   4.561   9.959   3.749  0.9171 -0.0783  0.0668
   67MOL0     H 9017   4.493  10.151   3.881  1.5175 -1.0762  0.7299
   67MOL0     H 9018   4.510  10.254   3.728  0.3812 -1.0610  0.2629
   67MOL0     H 9019   4.732  10.100   3.888  4.1944 -1.8959 -4.4072
   67MOL0     H 9020   4.754  10.189   3.740 -0.8884 -0.7355 -0.2570
   67MOL0     H 9021   4.640  10.307   4.006  0.7202  0.2969  0.4952
   67MOL0     H 9022   4.678  10.396   3.859 -0.2062  1.0942  1.2591
   67MOL0     H 9023   4.866  10.418   4.037 -0.5519  1.7914 -1.5016
   67MOL0     H 9024   4.892  10.241   4.015  0.1300 -0.3402 -0.6657
   67MOL0     H 9025   4.032   9.915   3.363 -2.0509  0.5030  0.3417
   67MOL0     H 9026   3.836   9.854   3.241 -1.7667 -0.3974  1.2812
   67MOL0     H 9027   3.660   9.760   2.830 -0.4103  0.2218  0.4161
   67MOL0     H 9028   3.455   9.723   2.708 -2.1017 -0.4491 -0.7456
   67MOL0     H 9029   3.697   8.689   2.603 -1.0863  0.5055 -2.0930
   67MOL0     H 9030   3.937   8.722   2.706 -1.8835  0.2970  0.9582
   67MOL0     H 9031   4.410   8.846   2.515  1.6699  2.9541 -1.0921
   67MOL0     H 9032   4.630   8.840   2.592 -0.1299 -0.4083 -0.3316
   67MOL0     H 9033   4.790   9.058   2.962  1.3595 -1.6819 -0.0041
   67MOL0     H 9034   4.736   9.119   2.805  1.4087 -0.7642 -1.5617
   67MOL0     H 9035   4.925   8.987   2.698 -1.2824  2.7736 -0.3380
   67MOL0     H 9036   4.976   8.934   2.851  1.3954  0.4382  0.6361
   67MOL0     H 9037   5.023   9.151   2.936 -2.1790  0.7796 -0.1465
   67MOL0     H 9038   4.948   9.235   2.801  0.0906  0.9430  2.7558
   67MOL0     H 9039   5.196   9.043   2.759 -0.4680 -0.6998 -2.3094
   67MOL0     H 9040   5.122   9.166   2.650 -0.1811 -1.8101 -0.9914
   67MOL0     H 9041   5.276   9.451   2.907  0.0112 -0.0051  0.7252
   67MOL0     H 9042   4.495   8.988   2.975 -1.9588  0.9936 -0.0066
   67MOL0     H 9043   4.192   8.854   2.959  1.3736 -0.6507  0.3704
   67MOL0     H 9044   4.282   8.980   3.044  2.5538  0.4057 -1.1097
   67MOL0     H 9045   4.166   9.030   2.919 -0.5302  0.1921  3.1038
   68MOL0     O 9046   3.544   3.389   4.776  0.5097 -0.3386 -0.1261
   68MOL0     C 9047   3.487   3.324   4.681 -0.4619  0.5121 -1.5116
   68MOL0     O 9048   3.535   3.301   4.556 -0.2096  0.1227  0.3139
   68MOL0     C 9049   3.670   3.322   4.526  0.1066  0.0584  0.4669
   68MOL0     C 9050   3.749   3.218   4.484  0.2947 -0.4765 -0.4279
   68MOL0     C 9051   3.889   3.237   4.454  0.0230 -0.3204  0.1295
   68MOL0     C 9052   3.953   3.354   4.496 -0.1295  0.3983  0.1493
   68MOL0     O 9053   4.095   3.371   4.476  0.1457 -0.3119  0.2918
   68MOL0     C 9054   4.151   3.291   4.368  0.3527  0.1849 -0.9434
   68MOL0     C 9055   4.284   3.358   4.353  0.0681  0.8062 -1.1921
   68MOL0     C 9056   4.359   3.290   4.244 -0.2990 -0.9979  0.1551
   68MOL0     C 9057   4.443   3.157   4.265  0.0972 -0.4858 -0.0101
   68MOL0     C 9058   4.509   3.107   4.130 -0.0061 -0.0067 -0.3383
   68MOL0     C 9059   4.538   2.960   4.130 -0.7995  0.9188  0.2418
   68MOL0     C 9060   4.642   2.906   4.044  0.3096  1.0167  0.6096
   68MOL0     C 9061   4.649   2.753   4.039  0.3938 -0.1271 -0.4475
   68MOL0     N 9062   4.787   2.718   4.000  0.0601  0.2634 -0.1743
   68MOL0     C 9063   4.896   2.731   4.087  0.0664 -0.6859 -1.0953
   68MOL0     C 9064   4.993   2.649   4.042 -0.1402 -0.4373  0.8032
   68MOL0     C 9065   5.140   2.631   4.088  0.1225  0.1543  0.5138
   68MOL0     C 9066   5.142   2.555   4.226 -0.0654 -0.5625 -0.5537
   68MOL0     C 9067   5.120   2.406   4.217  0.3747 -0.4995  0.4056
   68MOL0     C 9068   5.233   2.328   4.150 -0.4536 -0.5532  0.4590
   68MOL0     O 9069   5.357   2.372   4.211  0.5715  0.3797  0.1113
   68MOL0     C 9070   5.465   2.297   4.197  0.0925  0.3668  0.6410
   68MOL0     C 9071   5.562   2.300   4.290 -0.4872  1.0369  0.2964
   68MOL0     C 9072   5.673   2.215   4.271  0.1170 -0.6209 -0.0935
   68MOL0     C 9073   5.706   2.159   4.147 -0.1828  0.8449  0.4718
   68MOL0     C 9074   5.829   2.084   4.135  0.2144  0.7813 -1.0897
   68MOL0     O 9075   5.881   2.051   4.009 -0.1383 -0.0012  0.0278
   68MOL0     C 9076   5.967   1.945   4.018  0.4609  0.6623  0.0126
   68MOL0     C 9077   6.093   1.954   3.949  0.1143 -0.4581  0.3600
   68MOL0     C 9078   6.178   1.844   3.952 -0.7123 -0.0287  0.2781
   68MOL0     C 9079   6.143   1.722   4.024  0.2008  0.3333 -0.4269
   68MOL0     O 9080   6.244   1.632   4.033 -0.5651 -0.0179  0.3061
   68MOL0     C 9081   6.221   1.514   4.108 -0.1885 -0.0141  0.5529
   68MOL0     C 9082   6.357   1.460   4.123  0.1907  0.2874  0.6311
   68MOL0     C 9083   6.368   1.336   4.215 -0.4432 -0.3530 -0.2219
   68MOL0     C 9084   6.342   1.204   4.139 -0.7421  0.3467 -0.1591
   68MOL0     C 9085   6.366   1.092   4.230  0.7516 -0.3245  0.2621
   68MOL0     C 9086   6.414   0.954   4.158  0.3399 -0.3981  0.3502
   68MOL0     C 9087   6.521   0.882   4.241  0.7042 -0.6461  0.1163
   68MOL0     C 9088   6.669   0.928   4.201  0.1728  0.4767 -0.1366
   68MOL0    Cl 9089   6.710   0.921   4.033 -0.2526  0.3335 -0.2239
   68MOL0     C 9090   6.020   1.712   4.092  0.0203 -0.8362 -0.5491
   68MOL0     C 9091   5.936   1.824   4.074 -0.9975 -0.3486 -0.3982
   68MOL0     O 9092   5.871   2.048   4.242 -0.7118  0.5896 -0.1820
   68MOL0     C 9093   5.613   2.163   4.050  0.5217  0.4420  1.4027
   68MOL0     C 9094   5.488   2.230   4.075 -0.7464  0.4060  0.6682
   68MOL0     N 9095   4.948   2.592   3.923 -0.1031 -0.3950 -0.3541
   68MOL0     N 9096   4.822   2.620   3.909  0.1754  0.9162  0.1649
   68MOL0     C 9097   3.878   3.453   4.559  0.3593  0.0844 -0.0720
   68MOL0     C 9098   3.738   3.445   4.555  0.1048 -0.3641 -0.0453
   68MOL0     C 9099   3.361   3.263   4.720  0.3442 -0.3890 -0.2045
   68MOL0     C 9100   3.330   3.133   4.673 -0.2370 -0.1141 -0.2722
   68MOL0     C 9101   3.208   3.077   4.698 -0.5330  0.5176  0.1967
   68MOL0     C 9102   3.116   3.139   4.780  0.7885 -1.4056 -0.3288
   68MOL0     O 9103   2.996   3.076   4.802 -0.3922  0.1674  0.1326
   68MOL0     C 9104   2.881   3.143   4.746  1.0709  0.4684 -0.2634
   68MOL0     C 9105   2.759   3.081   4.815  0.4443  0.0003 -1.0096
   68MOL0     C 9106   2.757   3.100   4.965 -0.0976  0.5423 -0.8401
   68MOL0     C 9107   2.758   3.238   5.016 -0.2823 -0.7346 -0.1383
   68MOL0     C 9108   2.754   3.248   5.160  0.6814 -0.4159 -0.4868
   68MOL0     C 9109   2.745   3.264   5.274  0.0718  0.2143 -0.6488
   68MOL0     C 9110   3.140   3.269   4.831  0.2582 -0.5433 -0.0443
   68MOL0     C 9111   3.259   3.328   4.805  0.2931 -0.2341  0.4151
   68MOL0     C 9112   3.277   3.477   4.857  0.2769  0.7539 -0.3101
   68MOL0     H 9113   3.698   3.126   4.456 -0.9960  0.0753  0.0091
   68MOL0     H 9114   3.948   3.155   4.414 -1.9471 -0.8798 -1.8301
   68MOL0     H 9115   4.157   3.185   4.396  2.5459  0.6701  0.6813
   68MOL0     H 9116   4.092   3.312   4.278 -1.6475 -0.7557  0.0738
   68MOL0     H 9117   4.342   3.373   4.445 -3.0892  1.6038  0.8029
   68MOL0     H 9118   4.264   3.460   4.320 -1.7378  0.3370 -1.6268
   68MOL0     H 9119   4.431   3.363   4.207 -1.3469  0.0232  0.0789
   68MOL0     H 9120   4.300   3.283   4.152  1.1764 -1.9843 -0.7666
   68MOL0     H 9121   4.525   3.162   4.337  2.5990  3.3683 -2.7078
   68MOL0     H 9122   4.365   3.091   4.305  0.0575 -2.0888 -2.4999
   68MOL0     H 9123   4.447   3.141   4.047 -0.9462  2.2802  1.2081
   68MOL0     H 9124   4.599   3.167   4.119 -0.3476  1.0095  1.8591
   68MOL0     H 9125   4.568   2.933   4.231 -1.8365 -1.7375 -0.0817
   68MOL0     H 9126   4.445   2.905   4.113 -0.2299 -0.5251  1.6076
   68MOL0     H 9127   4.741   2.943   4.070  1.7677  0.1333 -3.0421
   68MOL0     H 9128   4.637   2.943   3.941  2.5762  1.0810  0.4825
   68MOL0     H 9129   4.624   2.704   4.133 -0.9379 -1.0272 -1.2358
   68MOL0     H 9130   4.569   2.721   3.971 -2.7493  0.8419  2.4767
   68MOL0     H 9131   4.896   2.789   4.178 -0.1960 -3.5302  0.8742
   68MOL0     H 9132   5.196   2.571   4.015  0.8698  1.9369 -0.4332
   68MOL0     H 9133   5.195   2.725   4.096  2.3350 -1.2265  3.0661
   68MOL0     H 9134   5.241   2.573   4.270  0.3084 -1.7573 -0.8554
   68MOL0     H 9135   5.069   2.598   4.295 -1.1724 -1.5515 -1.0799
   68MOL0     H 9136   5.023   2.395   4.168  0.4981  0.0012  0.0407
   68MOL0     H 9137   5.100   2.371   4.319 -2.8270 -1.2761 -0.3570
   68MOL0     H 9138   5.234   2.352   4.043 -0.8771 -0.0041  0.5741
   68MOL0     H 9139   5.224   2.220   4.164 -0.3855 -0.5610  0.4447
   68MOL0     H 9140   5.540   2.353   4.382  0.0259 -1.4756  1.9620
   68MOL0     H 9141   5.757   2.218   4.340  1.1411 -1.3667 -1.2553
   68MOL0     H 9142   6.135   2.040   3.897 -1.7863  0.0692 -0.3837
   68MOL0     H 9143   6.281   1.854   3.919 -0.2496 -1.3080  1.2361
   68MOL0     H 9144   6.174   1.525   4.207 -1.2420 -5.9334  1.0499
   68MOL0     H 9145   6.157   1.436   4.066 -0.7639 -0.2190  1.7590
   68MOL0     H 9146   6.403   1.428   4.030  0.2046 -1.0198  1.0603
   68MOL0     H 9147   6.420   1.544   4.156 -2.0928  1.8393  1.3136
   68MOL0     H 9148   6.469   1.335   4.258 -0.3772 -1.6769 -0.3803
   68MOL0     H 9149   6.310   1.341   4.307  1.7841 -0.2781  1.2548
   68MOL0     H 9150   6.402   1.198   4.047 -0.6192  0.2720 -0.0749
   68MOL0     H 9151   6.240   1.192   4.102  0.2903  0.9236 -3.4975
   68MOL0     H 9152   6.275   1.062   4.282 -0.0744  1.0834 -0.3153
   68MOL0     H 9153   6.436   1.115   4.311 -0.3903  0.4113  1.0656
   68MOL0     H 9154   6.329   0.886   4.154 -1.5697  1.8915  0.2719
   68MOL0     H 9155   6.449   0.975   4.057  0.1919 -0.3653  0.3058
   68MOL0     H 9156   6.510   0.774   4.228 -3.0655 -0.1314 -2.9325
   68MOL0     H 9157   6.508   0.899   4.349  0.1903  2.2814 -0.3243
   68MOL0     H 9158   6.682   1.034   4.227 -1.2143  0.3998  1.0382
   68MOL0     H 9159   6.736   0.867   4.263  0.6803  0.8665 -0.2928
   68MOL0     H 9160   5.978   1.634   4.154 -0.2458 -0.6689 -0.5172
   68MOL0     H 9161   5.842   1.817   4.129  0.2277  0.0074  1.8386
   68MOL0     H 9162   5.613   2.099   3.963 -3.8268  1.9742 -0.0011
   68MOL0     H 9163   5.415   2.238   3.996  1.2701  2.1277 -1.1581
   68MOL0     H 9164   3.931   3.542   4.592 -1.1443  0.5610  1.1568
   68MOL0     H 9165   3.684   3.531   4.594 -1.0755 -0.4025 -1.4930
   68MOL0     H 9166   3.391   3.078   4.603 -1.5241 -2.9502  0.6595
   68MOL0     H 9167   3.175   2.980   4.662 -0.4104 -0.9695  3.7147
   68MOL0     H 9168   2.879   3.115   4.641 -2.7034 -0.3180 -0.1090
   68MOL0     H 9169   2.877   3.252   4.755 -2.4858  0.3712  1.0997
   68MOL0     H 9170   2.765   2.972   4.801 -0.3579 -0.3040  0.7521
   68MOL0     H 9171   2.664   3.107   4.767 -1.1189 -3.5038 -0.1963
   68MOL0     H 9172   2.829   3.036   5.018 -2.7044 -0.9639  1.2163
   68MOL0     H 9173   2.662   3.057   5.001 -0.5103  1.3255 -0.9699
   68MOL0     H 9174   2.857   3.277   4.988 -0.7043  1.1295  0.7749
   68MOL0     H 9175   2.686   3.298   4.959  1.2155 -0.2717 -1.6360
   68MOL0     H 9176   2.740   3.284   5.379  0.7927 -0.2698 -0.5165
   68MOL0     H 9177   3.077   3.333   4.892  0.2223  1.7835 -2.3501
   68MOL0     H 9178   3.326   3.470   4.955 -2.3198 -2.4241  0.9341
   68MOL0     H 9179   3.338   3.542   4.794  0.1480  1.0837 -0.0959
   68MOL0     H 9180   3.182   3.524   4.884  0.4417  0.1593  1.3918
   69MOL0     O 9181  11.016   8.706   4.554 -0.0587  0.3083  0.1976
   69MOL0     C 9182  11.065   8.597   4.512  0.1052 -0.1677 -0.2685
   69MOL0     O 9183  11.188   8.576   4.472  0.1231  0.4350  0.3814
   69MOL0     C 9184  11.272   8.678   4.427  0.8633 -0.0511  0.1260
   69MOL0     C 9185  11.409   8.662   4.444 -0.2142 -0.2273 -0.5924
   69MOL0     C 9186  11.501   8.764   4.424 -0.3642 -0.6153 -0.0879
   69MOL0     C 9187  11.456   8.884   4.359  0.1950 -0.6388 -0.3607
   69MOL0     O 9188  11.535   9.006   4.334  0.5419 -0.5193 -0.2888
   69MOL0     C 9189  11.672   8.995   4.359  0.0775  0.7328  0.1359
   69MOL0     C 9190  11.765   9.089   4.282 -0.6008 -0.7855 -0.1334
   69MOL0     C 9191  11.916   9.054   4.301 -0.6340 -0.6607 -0.0183
   69MOL0     C 9192  11.942   8.918   4.232  0.1499  0.0315 -0.7415
   69MOL0     C 9193  12.086   8.878   4.210  0.3743 -0.6499  0.1893
   69MOL0     C 9194  12.178   8.886   4.333  0.5505 -0.9632  0.0526
   69MOL0     C 9195  12.314   8.815   4.326  0.2094  1.1186  1.1409
   69MOL0     C 9196  12.409   8.858   4.433  0.5987  0.3432  0.8201
   69MOL0     N 9197  12.547   8.822   4.398  0.0883 -0.5348 -0.4217
   69MOL0     C 9198  12.634   8.742   4.474 -0.7680 -0.0150 -0.1600
   69MOL0     C 9199  12.750   8.750   4.406 -0.7336  0.4046 -0.4835
   69MOL0     C 9200  12.874   8.686   4.457 -0.0143 -0.2982 -0.5000
   69MOL0     C 9201  12.914   8.737   4.596 -0.3826  0.2836  0.3331
   69MOL0     C 9202  13.065   8.721   4.608  0.6133 -0.1487 -0.6182
   69MOL0     C 9203  13.116   8.817   4.719 -0.5959  0.0661  0.1857
   69MOL0     O 9204  13.248   8.786   4.757  0.0057 -0.0398  0.2453
   69MOL0     C 9205  13.322   8.874   4.828 -0.0482  0.4771  0.0966
   69MOL0     C 9206  13.273   8.989   4.887  0.1668 -0.4079 -0.3151
   69MOL0     C 9207  13.367   9.077   4.951  0.7333 -0.1241 -0.6361
   69MOL0     C 9208  13.500   9.033   4.955 -0.1521  0.7897 -0.1269
   69MOL0     C 9209  13.594   9.114   5.037  0.0632 -1.0949 -0.3391
   69MOL0     O 9210  13.731   9.089   5.015  0.0009 -0.2128 -0.8629
   69MOL0     C 9211  13.811   9.178   5.090  0.5168 -0.5980 -0.7322
   69MOL0     C 9212  13.909   9.245   5.029  0.0755 -0.2415 -0.0016
   69MOL0     C 9213  13.992   9.335   5.106  0.0512 -0.3693  0.3352
   69MOL0     C 9214  13.982   9.346   5.250  0.3627 -0.3870 -0.3753
   69MOL0     O 9215  14.074   9.431   5.308 -0.5178  0.1229  0.1666
   69MOL0     C 9216  14.078   9.444   5.452 -0.0314  0.0792 -0.5625
   69MOL0     C 9217  14.161   9.578   5.481 -0.0184  0.0103 -0.5252
   69MOL0     C 9218  14.315   9.579   5.448  0.6283  0.4334 -1.2313
   69MOL0     C 9219  14.378   9.715   5.490 -0.2557 -0.3467  0.2147
   69MOL0     C 9220  14.537   9.730   5.463  0.4695 -0.0337  0.2885
   69MOL0     C 9221  14.616   9.668   5.580 -0.3022 -0.3319  0.1239
   69MOL0     C 9222  14.763   9.649   5.550  0.2782 -0.3337 -0.6871
   69MOL0     C 9223  14.837   9.784   5.528  1.4041 -0.7019 -0.0503
   69MOL0    Cl 9224  15.021   9.764   5.522 -0.1007 -0.0744 -0.1336
   69MOL0     C 9225  13.879   9.271   5.312  0.0849 -0.7561  0.9533
   69MOL0     C 9226  13.799   9.188   5.231  0.3084  0.6293  0.8973
   69MOL0     O 9227  13.547   9.214   5.100  0.6436  0.1200 -0.0943
   69MOL0     C 9228  13.548   8.914   4.902 -0.9195  0.4229  0.0182
   69MOL0     C 9229  13.458   8.840   4.830  0.7239 -0.3460 -0.4195
   69MOL0     N 9230  12.735   8.822   4.290 -0.6804 -0.1316 -0.2079
   69MOL0     N 9231  12.616   8.865   4.287  0.1876 -0.1329  0.6436
   69MOL0     C 9232  11.322   8.894   4.322 -0.3368  0.1269  0.1823
   69MOL0     C 9233  11.231   8.789   4.353  0.1876  0.4211  0.1287
   69MOL0     C 9234  10.965   8.480   4.508 -0.0778  0.5353 -0.7691
   69MOL0     C 9235  10.829   8.504   4.522  0.0233  0.1333 -0.3187
   69MOL0     C 9236  10.741   8.401   4.526  0.4006  0.6950  0.0763
   69MOL0     C 9237  10.776   8.270   4.514  0.4746  0.5568 -0.4331
   69MOL0     O 9238  10.675   8.174   4.523  0.4654  0.1132 -0.8551
   69MOL0     C 9239  10.701   8.038   4.476  0.1954  0.6461  0.2223
   69MOL0     C 9240  10.597   7.943   4.526 -0.4371 -0.3597  0.6082
   69MOL0     C 9241  10.454   7.972   4.478  0.1276 -0.3495  1.1415
   69MOL0     C 9242  10.353   7.860   4.505  0.0128 -0.1404 -0.7117
   69MOL0     C 9243  10.336   7.841   4.648 -0.0371 -0.6407 -0.3686
   69MOL0     C 9244  10.325   7.828   4.770 -0.4790  0.0874  0.4388
   69MOL0     C 9245  10.908   8.233   4.496 -0.1925  0.6897 -0.1169
   69MOL0     C 9246  11.001   8.338   4.500 -0.4018 -0.3058 -0.3446
   69MOL0     C 9247  11.143   8.294   4.501 -0.0476  0.3861 -0.6381
   69MOL0     H 9248  11.451   8.580   4.503  1.7939  2.1648  1.5507
   69MOL0     H 9249  11.602   8.755   4.463  0.1860  1.5686 -0.8274
   69MOL0     H 9250  11.688   9.001   4.467  2.2241 -0.3131 -0.0647
   69MOL0     H 9251  11.704   8.891   4.346 -2.4743 -0.2649  1.2749
   69MOL0     H 9252  11.747   9.194   4.307 -0.8023 -0.4725 -1.4960
   69MOL0     H 9253  11.734   9.088   4.177 -1.1832 -3.1951  0.0090
   69MOL0     H 9254  11.940   9.060   4.408  0.9993  2.9431 -0.4037
   69MOL0     H 9255  11.974   9.137   4.258  0.5672 -2.2654 -1.6562
   69MOL0     H 9256  11.900   8.837   4.293 -2.6038  1.4781 -0.5488
   69MOL0     H 9257  11.885   8.924   4.139  0.8768  0.8797 -1.1338
   69MOL0     H 9258  12.083   8.774   4.175 -1.8279 -2.3757  4.6024
   69MOL0     H 9259  12.128   8.953   4.143 -0.1394 -0.2924  0.2623
   69MOL0     H 9260  12.200   8.983   4.379  1.9364 -0.9914 -0.5093
   69MOL0     H 9261  12.108   8.828   4.394 -2.2727  0.8459 -1.2010
   69MOL0     H 9262  12.363   8.826   4.229  0.9518 -2.9461  0.8875
   69MOL0     H 9263  12.298   8.708   4.344  0.3452  1.2616  2.1898
   69MOL0     H 9264  12.412   8.967   4.447  0.0939  0.4857 -0.0306
   69MOL0     H 9265  12.380   8.823   4.532 -1.4903 -1.3231 -0.2971
   69MOL0     H 9266  12.618   8.707   4.576  1.8559  2.1561  1.1297
   69MOL0     H 9267  12.867   8.577   4.461  0.9273 -0.3629 -0.2416
   69MOL0     H 9268  12.951   8.705   4.381  0.0739  2.2004  0.1229
   69MOL0     H 9269  12.889   8.843   4.609  1.1473  0.9939 -2.0109
   69MOL0     H 9270  12.874   8.672   4.675 -1.4251  0.8311  0.2730
   69MOL0     H 9271  13.112   8.745   4.513 -0.4109  0.3707 -1.0102
   69MOL0     H 9272  13.078   8.617   4.640 -0.0985  0.3208  1.3230
   69MOL0     H 9273  13.049   8.800   4.803 -0.2415 -2.7554  0.0053
   69MOL0     H 9274  13.106   8.917   4.678  1.1701 -0.2373 -1.1302
   69MOL0     H 9275  13.169   9.018   4.880 -0.1278 -1.5945 -1.3029
   69MOL0     H 9276  13.328   9.167   4.998 -0.1394 -0.5614 -0.4995
   69MOL0     H 9277  13.917   9.248   4.921  0.6564  1.0981  0.0508
   69MOL0     H 9278  14.057   9.406   5.057 -0.0656 -1.9524 -2.2718
   69MOL0     H 9279  13.977   9.465   5.486 -0.0081  0.5005 -0.7436
   69MOL0     H 9280  14.124   9.363   5.509 -0.9867  0.8241  1.3422
   69MOL0     H 9281  14.121   9.660   5.421  0.9210 -0.0350 -1.2359
   69MOL0     H 9282  14.147   9.604   5.587  0.3488 -1.3365 -0.1183
   69MOL0     H 9283  14.360   9.494   5.501  0.3726  1.5226  0.8256
   69MOL0     H 9284  14.323   9.561   5.340 -1.7861  0.2005 -1.4190
   69MOL0     H 9285  14.352   9.745   5.592  1.9967  1.5209  0.3065
   69MOL0     H 9286  14.321   9.788   5.432 -0.4549  1.5966  2.6923
   69MOL0     H 9287  14.559   9.837   5.456  4.8095 -0.7760 -0.0216
   69MOL0     H 9288  14.573   9.686   5.370  0.6347  0.7937 -0.0415
   69MOL0     H 9289  14.601   9.728   5.670  0.9459 -1.9395  1.4633
   69MOL0     H 9290  14.559   9.577   5.604  0.7787 -1.3090 -0.9062
   69MOL0     H 9291  14.771   9.595   5.455 -1.8404 -0.2317 -0.9781
   69MOL0     H 9292  14.823   9.594   5.623  1.0138  0.3829 -0.7395
   69MOL0     H 9293  14.815   9.818   5.426  2.2859 -1.4449 -0.4988
   69MOL0     H 9294  14.791   9.857   5.595 -2.2650 -1.0559 -1.9383
   69MOL0     H 9295  13.871   9.289   5.418  1.3694 -0.5779  1.0345
   69MOL0     H 9296  13.726   9.120   5.274 -0.1834  0.5710  0.0003
   69MOL0     H 9297  13.653   8.890   4.910 -0.7814  1.6062  3.3064
   69MOL0     H 9298  13.509   8.761   4.776  1.7228 -0.6394  0.9114
   69MOL0     H 9299  11.292   8.982   4.266  2.1818  2.1223  1.7258
   69MOL0     H 9300  11.131   8.802   4.314  1.2621  2.7700 -2.1451
   69MOL0     H 9301  10.792   8.606   4.528 -2.7707 -0.8729  1.3538
   69MOL0     H 9302  10.636   8.425   4.535 -0.3959 -2.4693  0.7458
   69MOL0     H 9303  10.799   8.006   4.515  0.2340 -1.9720 -1.7383
   69MOL0     H 9304  10.708   8.037   4.367  2.1833  3.8580  0.1977
   69MOL0     H 9305  10.593   7.942   4.635  1.8352  0.3932  0.7528
   69MOL0     H 9306  10.630   7.846   4.487  2.3463 -0.2440  2.4424
   69MOL0     H 9307  10.463   7.980   4.369 -0.4142 -1.3241  1.0138
   69MOL0     H 9308  10.419   8.061   4.531 -1.8214 -0.4795  0.1802
   69MOL0     H 9309  10.251   7.882   4.475 -1.0439  2.1733  3.7361
   69MOL0     H 9310  10.388   7.769   4.455  2.4282 -0.1334  0.7976
   69MOL0     H 9311  10.300   7.819   4.874 -0.6830  3.2365  0.7457
   69MOL0     H 9312  10.949   8.133   4.485 -0.6895  0.1291  2.4631
   69MOL0     H 9313  11.204   8.341   4.579  1.9499 -2.1567 -0.5584
   69MOL0     H 9314  11.145   8.186   4.513 -0.1564  0.4883  0.3780
   69MOL0     H 9315  11.190   8.313   4.404  1.2903  1.0737  0.1201
   70MOL0     O 9316  10.785   0.823   3.880 -0.1650 -0.5983 -0.4775
   70MOL0     C 9317  10.803   0.847   4.002  0.5173 -0.8161  0.1658
   70MOL0     O 9318  10.929   0.883   4.055  0.1825  0.3813 -0.4315
   70MOL0     C 9319  11.036   0.890   3.974 -0.0623 -1.0066 -0.0915
   70MOL0     C 9320  11.107   1.013   3.948  0.0665  0.6046  0.0368
   70MOL0     C 9321  11.223   1.014   3.880  0.7776  0.0659 -0.1584
   70MOL0     C 9322  11.287   0.895   3.830  0.2400 -0.2189 -0.4135
   70MOL0     O 9323  11.410   0.890   3.760  0.3988 -0.1044 -0.3063
   70MOL0     C 9324  11.477   1.006   3.726 -0.2951 -0.7739 -0.1518
   70MOL0     C 9325  11.607   0.985   3.637  0.4209 -0.6921  0.5704
   70MOL0     C 9326  11.710   0.926   3.732  0.5885  0.1508 -0.1073
   70MOL0     C 9327  11.848   0.908   3.667  0.5281  0.1789  0.2371
   70MOL0     C 9328  11.915   1.041   3.637 -0.1395 -0.1395 -0.3034
   70MOL0     C 9329  12.055   1.020   3.571 -0.0460 -0.3677 -0.2147
   70MOL0     C 9330  12.155   1.130   3.572 -0.6323 -0.2535  0.4423
   70MOL0     C 9331  12.208   1.161   3.707  0.4098  0.3061  0.0305
   70MOL0     N 9332  12.285   1.275   3.717 -0.7811 -0.8204 -0.0909
   70MOL0     C 9333  12.271   1.390   3.642  0.7486 -0.3854 -0.7647
   70MOL0     C 9334  12.361   1.474   3.694 -0.2705 -0.4378  0.9429
   70MOL0     C 9335  12.375   1.616   3.647  0.6763 -1.0600  0.7542
   70MOL0     C 9336  12.452   1.619   3.515  0.2689  0.4079 -0.5944
   70MOL0     C 9337  12.505   1.761   3.487  0.2834  0.7577 -0.0131
   70MOL0     C 9338  12.655   1.777   3.529  0.1142  0.2577 -0.3376
   70MOL0     O 9339  12.651   1.776   3.676 -0.4623 -0.7304  0.0061
   70MOL0     C 9340  12.770   1.793   3.740 -0.4503 -1.0696 -0.2073
   70MOL0     C 9341  12.778   1.796   3.878 -0.2365  0.1564 -1.0383
   70MOL0     C 9342  12.907   1.810   3.937  0.8047  0.0611 -0.1726
   70MOL0     C 9343  13.028   1.818   3.865  1.0894 -0.2250  0.4265
   70MOL0     C 9344  13.155   1.861   3.919 -0.4248  0.6741 -0.6725
   70MOL0     O 9345  13.267   1.816   3.852 -0.0086 -0.2262 -0.1913
   70MOL0     C 9346  13.391   1.852   3.878  0.3721  1.2029  1.2278
   70MOL0     C 9347  13.470   1.864   3.763 -0.0030  0.8446  0.1214
   70MOL0     C 9348  13.598   1.903   3.775  0.7532 -1.1421  0.5781
   70MOL0     C 9349  13.659   1.926   3.898 -0.0571  0.4562 -0.2417
   70MOL0     O 9350  13.783   1.972   3.925  0.1553 -0.5350 -0.2202
   70MOL0     C 9351  13.891   1.939   3.835 -0.7537 -0.3993 -0.5758
   70MOL0     C 9352  14.029   1.994   3.873 -0.5016 -0.0038 -0.3714
   70MOL0     C 9353  14.045   1.989   4.031  0.4138  0.2102  0.5825
   70MOL0     C 9354  14.174   2.060   4.070  0.4699 -0.1765 -0.2770
   70MOL0     C 9355  14.179   2.085   4.225 -0.0769  0.2905  0.3398
   70MOL0     C 9356  14.328   2.118   4.262  0.6719 -0.0829 -0.1017
   70MOL0     C 9357  14.335   2.144   4.410 -0.2293 -0.2927 -0.0431
   70MOL0     C 9358  14.481   2.164   4.465 -0.3075 -0.0082  0.6849
   70MOL0    Cl 9359  14.456   2.167   4.654  0.0142 -0.1575  0.3629
   70MOL0     C 9360  13.579   1.915   4.011 -0.2041 -0.6989  0.3353
   70MOL0     C 9361  13.444   1.889   4.008 -0.3943  0.4094 -0.0554
   70MOL0     O 9362  13.161   1.936   4.020 -0.0611  0.3845  0.1405
   70MOL0     C 9363  13.019   1.803   3.723  0.0038  0.4732 -0.0296
   70MOL0     C 9364  12.893   1.812   3.663 -0.7315  0.2188 -0.8488
   70MOL0     N 9365  12.436   1.404   3.784 -0.1321  0.2289 -0.6648
   70MOL0     N 9366  12.398   1.285   3.794 -0.2730  0.1673 -0.2490
   70MOL0     C 9367  11.212   0.775   3.840 -0.3488 -1.1189  0.6374
   70MOL0     C 9368  11.092   0.773   3.911 -0.7779 -0.5045  0.1918
   70MOL0     C 9369  10.686   0.838   4.095 -0.4782 -0.0317 -0.1905
   70MOL0     C 9370  10.579   0.768   4.050 -0.1811 -0.2811  0.4334
   70MOL0     C 9371  10.472   0.753   4.136 -0.6981  0.3717 -0.5144
   70MOL0     C 9372  10.460   0.820   4.263  0.1557 -0.2976 -0.0358
   70MOL0     O 9373  10.348   0.809   4.331  0.4670  0.1275  0.0394
   70MOL0     C 9374  10.332   0.865   4.460 -0.1905 -0.3146 -0.8445
   70MOL0     C 9375  10.194   0.826   4.516 -0.5450  0.3139  0.1552
   70MOL0     C 9376  10.063   0.866   4.443 -0.1729  1.0514 -0.3577
   70MOL0     C 9377   9.948   0.822   4.542  0.6393 -1.4813 -0.0054
   70MOL0     C 9378   9.818   0.851   4.484 -0.1891 -0.1968 -0.1440
   70MOL0     C 9379   9.718   0.873   4.421 -0.4791  0.4822 -0.2659
   70MOL0     C 9380  10.566   0.899   4.299 -0.1344 -0.1756  0.0521
   70MOL0     C 9381  10.685   0.907   4.220  0.5841 -0.5046  0.7937
   70MOL0     C 9382  10.782   0.986   4.295 -0.6569 -0.5910  0.5741
   70MOL0     H 9383  11.076   1.108   3.990  1.6610  0.4231  1.7454
   70MOL0     H 9384  11.278   1.107   3.867  1.1589 -0.4637 -3.1260
   70MOL0     H 9385  11.407   1.070   3.672  3.1272  2.9087 -0.6643
   70MOL0     H 9386  11.494   1.064   3.817 -0.7462  0.0498 -0.5778
   70MOL0     H 9387  11.639   1.085   3.605 -1.5490  0.3214  1.5556
   70MOL0     H 9388  11.592   0.918   3.552 -0.2299  1.5701 -1.1931
   70MOL0     H 9389  11.671   0.828   3.761  0.1709 -1.2342 -4.6212
   70MOL0     H 9390  11.718   0.989   3.821  1.5657 -0.4431  0.2339
   70MOL0     H 9391  11.919   0.848   3.726  1.6038  0.8645 -0.3402
   70MOL0     H 9392  11.823   0.856   3.574  1.8651  0.1525 -0.1238
   70MOL0     H 9393  11.851   1.094   3.566 -3.2310 -0.6586  1.8639
   70MOL0     H 9394  11.922   1.103   3.726  0.1909  0.8952 -1.0326
   70MOL0     H 9395  12.103   0.941   3.631  0.5696  1.4044  1.7449
   70MOL0     H 9396  12.038   0.971   3.475  0.3787 -0.4988 -0.2251
   70MOL0     H 9397  12.100   1.219   3.539  1.4296  1.1732  0.6516
   70MOL0     H 9398  12.236   1.117   3.500 -0.0562  1.5936  0.6904
   70MOL0     H 9399  12.129   1.157   3.782  0.2914 -1.0105 -0.1395
   70MOL0     H 9400  12.265   1.070   3.730 -2.9866 -2.2298 -0.8649
   70MOL0     H 9401  12.185   1.423   3.585  0.1540  0.8805  0.7799
   70MOL0     H 9402  12.281   1.672   3.634  1.8329  0.4289 -2.2953
   70MOL0     H 9403  12.445   1.677   3.705  1.3897  0.3504 -1.4774
   70MOL0     H 9404  12.529   1.542   3.521 -2.0156 -2.0721 -0.9089
   70MOL0     H 9405  12.387   1.586   3.433 -0.0944  0.5592 -0.3693
   70MOL0     H 9406  12.432   1.834   3.525 -1.0648 -0.6418  0.2036
   70MOL0     H 9407  12.510   1.773   3.379  3.2491 -0.3716 -0.0848
   70MOL0     H 9408  12.681   1.881   3.510  1.2800  0.3707  1.5904
   70MOL0     H 9409  12.722   1.704   3.482 -1.7495 -0.3451 -2.1860
   70MOL0     H 9410  12.688   1.779   3.937  0.7067 -0.5305  0.2533
   70MOL0     H 9411  12.903   1.823   4.045  0.3403 -0.2490 -0.1527
   70MOL0     H 9412  13.432   1.856   3.662 -0.3698  0.4106  0.2927
   70MOL0     H 9413  13.658   1.919   3.685 -0.4709  1.2971  0.0992
   70MOL0     H 9414  13.903   1.830   3.836  3.3057 -0.1142  0.4414
   70MOL0     H 9415  13.868   1.965   3.731  0.8907  0.3317 -0.7919
   70MOL0     H 9416  14.108   1.934   3.826  0.0812  0.9909 -0.6986
   70MOL0     H 9417  14.035   2.099   3.842 -2.3443  0.8048  1.8015
   70MOL0     H 9418  13.959   2.029   4.085  0.3076  0.6488  0.1045
   70MOL0     H 9419  14.053   1.884   4.061  2.3360 -0.0032 -0.4756
   70MOL0     H 9420  14.179   2.164   4.038 -0.1450  0.4958  1.7038
   70MOL0     H 9421  14.252   1.998   4.025 -0.3167  0.9027 -3.3713
   70MOL0     H 9422  14.153   2.001   4.290 -0.6877 -0.3574 -0.7162
   70MOL0     H 9423  14.126   2.177   4.250  1.0981  1.1563 -0.2622
   70MOL0     H 9424  14.401   2.043   4.230  0.6937 -0.8209  1.5740
   70MOL0     H 9425  14.339   2.211   4.206 -2.3684  1.1302  1.1177
   70MOL0     H 9426  14.284   2.064   4.463 -1.7321 -0.0922 -1.1366
   70MOL0     H 9427  14.284   2.235   4.444 -1.4292 -0.9572 -0.0249
   70MOL0     H 9428  14.543   2.078   4.440  0.9939  0.6883  1.4031
   70MOL0     H 9429  14.534   2.252   4.428  0.3214 -0.1048  1.3332
   70MOL0     H 9430  13.617   1.937   4.110 -1.2498  0.7630  0.4499
   70MOL0     H 9431  13.388   1.888   4.101  2.7392 -1.2832  2.0133
   70MOL0     H 9432  13.105   1.829   3.663 -1.2284  1.8663 -1.2812
   70MOL0     H 9433  12.905   1.826   3.556 -1.2037 -1.0963 -1.0915
   70MOL0     H 9434  11.255   0.691   3.785 -1.3016 -0.0362 -1.9273
   70MOL0     H 9435  11.039   0.678   3.916 -1.1711 -0.2615  0.6783
   70MOL0     H 9436  10.576   0.735   3.946 -0.1230  0.1149  0.3033
   70MOL0     H 9437  10.385   0.692   4.112 -2.7735  2.1963  1.8014
   70MOL0     H 9438  10.337   0.973   4.444  3.8050 -0.3240 -0.7086
   70MOL0     H 9439  10.414   0.829   4.523  0.2412  1.5733 -0.2407
   70MOL0     H 9440  10.191   0.859   4.620 -2.4139 -1.2952  0.6678
   70MOL0     H 9441  10.197   0.718   4.528  0.9906  0.2014 -0.8896
   70MOL0     H 9442  10.056   0.817   4.346  0.7539  1.2990 -0.5601
   70MOL0     H 9443  10.055   0.974   4.428  0.3870  1.6393  2.8652
   70MOL0     H 9444   9.947   0.715   4.566 -1.2593 -1.3915  0.4946
   70MOL0     H 9445   9.950   0.885   4.632 -2.2203 -0.6413 -0.4237
   70MOL0     H 9446   9.627   0.892   4.368 -0.2981  3.3774  0.2782
   70MOL0     H 9447  10.562   0.960   4.388  1.1826  2.9520 -1.8427
   70MOL0     H 9448  10.823   0.945   4.387  0.2022  0.3474  0.6303
   70MOL0     H 9449  10.867   1.008   4.230 -0.7526  0.6273  0.8424
   70MOL0     H 9450  10.739   1.084   4.315 -1.3782 -0.6836 -0.4060
   71MOL0     O 9451   5.996   8.304   3.519  0.0870 -0.5045  0.1653
   71MOL0     C 9452   5.904   8.228   3.497  0.2079  0.5646 -0.3324
   71MOL0     O 9453   5.916   8.096   3.470  0.0179 -0.2197  0.3575
   71MOL0     C 9454   6.035   8.045   3.426  0.0428  0.7556 -0.6250
   71MOL0     C 9455   6.057   7.906   3.451 -0.1102 -0.3596 -0.2497
   71MOL0     C 9456   6.178   7.838   3.424 -0.5653  0.0182 -0.0254
   71MOL0     C 9457   6.281   7.900   3.353 -0.4370  1.0900  0.5373
   71MOL0     O 9458   6.401   7.848   3.321 -0.1380  0.0173 -0.6131
   71MOL0     C 9459   6.403   7.702   3.313  0.0891  0.3793  0.0117
   71MOL0     C 9460   6.541   7.650   3.251 -0.0733 -0.0428  0.8028
   71MOL0     C 9461   6.571   7.716   3.109 -0.1913  0.4023 -0.9526
   71MOL0     C 9462   6.701   7.651   3.058  0.1810 -0.0373 -0.0341
   71MOL0     C 9463   6.697   7.664   2.907 -0.5127 -0.1479  0.2652
   71MOL0     C 9464   6.624   7.542   2.846 -0.3378  0.0884  0.2724
   71MOL0     C 9465   6.585   7.558   2.692  0.5562 -0.0733 -0.1330
   71MOL0     C 9466   6.704   7.621   2.614  0.0012 -0.9726 -0.1099
   71MOL0     N 9467   6.713   7.607   2.475 -0.1461  0.4969 -0.1052
   71MOL0     C 9468   6.625   7.638   2.377 -0.5031 -0.6533  0.8585
   71MOL0     C 9469   6.674   7.585   2.262  0.4293 -0.0284  0.1365
   71MOL0     C 9470   6.605   7.590   2.130 -0.5759  0.2377  0.4419
   71MOL0     C 9471   6.482   7.502   2.125 -0.6262 -0.5635 -0.6561
   71MOL0     C 9472   6.376   7.527   2.024  0.0563 -0.1697  0.0331
   71MOL0     C 9473   6.328   7.673   2.027 -0.1653 -0.3383 -1.1093
   71MOL0     O 9474   6.192   7.669   1.988  0.8852  0.9278  0.2667
   71MOL0     C 9475   6.111   7.756   2.059  0.2426  0.0019 -0.1844
   71MOL0     C 9476   6.043   7.697   2.161  0.3054  0.6930  0.7691
   71MOL0     C 9477   5.981   7.786   2.247 -0.2398 -0.3711 -0.4581
   71MOL0     C 9478   5.975   7.921   2.227 -0.0978 -0.8062  0.5911
   71MOL0     C 9479   5.891   8.014   2.297 -0.5925 -0.9056 -0.1599
   71MOL0     O 9480   5.823   7.961   2.406  0.6260 -0.3315  0.6214
   71MOL0     C 9481   5.714   8.022   2.473 -0.0879 -0.3524 -0.7604
   71MOL0     C 9482   5.672   7.953   2.583  0.6618 -0.0075 -0.8617
   71MOL0     C 9483   5.566   7.994   2.667  0.2684  1.6181 -0.1751
   71MOL0     C 9484   5.511   8.124   2.649  0.0283 -0.0352 -0.2617
   71MOL0     O 9485   5.409   8.158   2.733  0.3407 -0.3847  0.3951
   71MOL0     C 9486   5.291   8.220   2.666 -0.3971 -0.2352 -0.3299
   71MOL0     C 9487   5.178   8.166   2.744  0.0528  0.4252 -0.0703
   71MOL0     C 9488   5.050   8.195   2.679  0.2741 -0.0354  0.1495
   71MOL0     C 9489   4.938   8.142   2.766  0.5498  1.2332  0.7644
   71MOL0     C 9490   4.804   8.173   2.703  0.4233 -0.1757 -0.5822
   71MOL0     C 9491   4.693   8.079   2.765 -0.5689 -1.0760  0.6465
   71MOL0     C 9492   4.583   8.058   2.664  0.1185 -0.2461 -0.1381
   71MOL0     C 9493   4.495   8.187   2.632  0.1074  0.3705 -0.1780
   71MOL0    Cl 9494   4.332   8.141   2.586  0.2512 -0.0353  0.4734
   71MOL0     C 9495   5.562   8.202   2.538 -0.3207  0.0062  0.3884
   71MOL0     C 9496   5.664   8.154   2.450 -0.1159  0.8485  0.6238
   71MOL0     O 9497   5.897   8.135   2.270 -0.8263 -0.7245  0.3967
   71MOL0     C 9498   6.048   7.976   2.118 -0.5768 -0.0928  0.0500
   71MOL0     C 9499   6.124   7.889   2.037 -0.1765 -0.5398  0.2880
   71MOL0     N 9500   6.790   7.513   2.290  0.2674 -0.8302 -0.6762
   71MOL0     N 9501   6.807   7.528   2.418  0.8454  0.0013 -0.3275
   71MOL0     C 9502   6.254   8.035   3.309 -0.2993  0.2978 -0.3443
   71MOL0     C 9503   6.138   8.105   3.353 -0.6488  0.1820  0.7598
   71MOL0     C 9504   5.759   8.278   3.502 -0.4401 -0.7522 -0.1301
   71MOL0     C 9505   5.662   8.186   3.452 -0.5082  0.3105 -0.5871
   71MOL0     C 9506   5.532   8.220   3.437  0.4575  0.6202  0.2713
   71MOL0     C 9507   5.491   8.342   3.478 -0.7245  0.2549 -0.6155
   71MOL0     O 9508   5.354   8.361   3.466  0.0519  0.0934 -0.3721
   71MOL0     C 9509   5.301   8.488   3.510 -0.1085  0.4414  0.5134
   71MOL0     C 9510   5.146   8.489   3.493  0.4291  0.1440 -0.4327
   71MOL0     C 9511   5.084   8.624   3.457  0.8328 -0.4876 -0.0617
   71MOL0     C 9512   4.934   8.632   3.483  0.3385  0.7855  0.2233
   71MOL0     C 9513   4.862   8.533   3.403 -0.7433 -0.0680 -0.2361
   71MOL0     C 9514   4.814   8.459   3.320 -0.1240 -0.0983 -0.1827
   71MOL0     C 9515   5.578   8.433   3.538  0.6219 -0.2847  0.8765
   71MOL0     C 9516   5.713   8.411   3.545 -0.2157  0.3403  0.2021
   71MOL0     C 9517   5.807   8.520   3.602 -0.0049  0.5473  0.3069
   71MOL0     H 9518   5.985   7.857   3.515 -0.2455 -0.1026 -0.2043
   71MOL0     H 9519   6.193   7.740   3.468  0.6959  0.6659  1.0625
   71MOL0     H 9520   6.391   7.654   3.411  1.5759 -0.0337  0.0249
   71MOL0     H 9521   6.326   7.673   3.241 -1.0781  0.4793  1.1840
   71MOL0     H 9522   6.516   7.544   3.239 -2.1905  0.4804  0.1684
   71MOL0     H 9523   6.622   7.674   3.321 -1.2701 -0.1596  2.2819
   71MOL0     H 9524   6.583   7.824   3.116 -2.6830  0.6488  1.0543
   71MOL0     H 9525   6.493   7.682   3.041  3.1140 -4.1989 -2.9878
   71MOL0     H 9526   6.791   7.693   3.104 -1.8537  1.1784  3.2252
   71MOL0     H 9527   6.707   7.545   3.084 -1.5384 -0.4506 -1.1489
   71MOL0     H 9528   6.646   7.756   2.877 -3.1872 -0.7356  2.6170
   71MOL0     H 9529   6.798   7.662   2.866  0.5511  2.1176  2.5421
   71MOL0     H 9530   6.695   7.459   2.853  0.2990  0.3391 -2.1386
   71MOL0     H 9531   6.540   7.528   2.915 -2.8960 -2.7168 -3.0304
   71MOL0     H 9532   6.499   7.625   2.687  1.9851  2.0670  1.6116
   71MOL0     H 9533   6.573   7.460   2.646  3.3042 -1.3653  1.6255
   71MOL0     H 9534   6.682   7.727   2.631 -0.5005 -1.3001  1.3560
   71MOL0     H 9535   6.799   7.599   2.662 -0.3110  1.6490  1.9242
   71MOL0     H 9536   6.533   7.694   2.387 -0.3618 -0.0199 -1.0507
   71MOL0     H 9537   6.582   7.689   2.090 -1.4317 -0.6088 -1.2635
   71MOL0     H 9538   6.674   7.557   2.052 -1.5066 -2.2142  0.5586
   71MOL0     H 9539   6.508   7.396   2.118 -4.0685 -1.8432  2.7065
   71MOL0     H 9540   6.435   7.508   2.223  0.4727 -0.0568 -0.1449
   71MOL0     H 9541   6.290   7.460   2.031 -2.4619  2.4595 -2.6888
   71MOL0     H 9542   6.417   7.511   1.924  1.3303 -1.9965  0.7927
   71MOL0     H 9543   6.373   7.746   1.958 -5.0459  2.5314 -1.6908
   71MOL0     H 9544   6.342   7.707   2.131  0.1631 -0.2397 -1.1841
   71MOL0     H 9545   6.038   7.589   2.171  1.3446  0.5333 -0.2026
   71MOL0     H 9546   5.932   7.739   2.331  1.2207 -0.6933  0.2557
   71MOL0     H 9547   5.717   7.859   2.613 -3.5302 -1.6815  0.9457
   71MOL0     H 9548   5.530   7.930   2.747  0.8700 -0.0610 -1.1830
   71MOL0     H 9549   5.284   8.329   2.675 -2.1068 -0.3953  0.7512
   71MOL0     H 9550   5.290   8.199   2.559 -2.5383  1.8607 -0.8258
   71MOL0     H 9551   5.194   8.060   2.767  0.6687  0.3568 -0.7767
   71MOL0     H 9552   5.176   8.229   2.834  1.0800  1.2897 -0.6309
   71MOL0     H 9553   5.023   8.301   2.666 -4.1279 -0.9794  0.1267
   71MOL0     H 9554   5.038   8.140   2.585  1.2230  0.6777 -0.4065
   71MOL0     H 9555   4.937   8.187   2.865  1.3431  1.9963  0.4471
   71MOL0     H 9556   4.956   8.037   2.792 -3.9476 -0.4945 -1.8424
   71MOL0     H 9557   4.818   8.149   2.598  2.2579 -3.0327  0.1889
   71MOL0     H 9558   4.777   8.279   2.710  1.2353 -0.0172  0.4390
   71MOL0     H 9559   4.735   7.979   2.775  0.2768 -1.0926 -2.1775
   71MOL0     H 9560   4.668   8.106   2.868  1.5574  0.2715  0.8806
   71MOL0     H 9561   4.512   7.987   2.708 -1.5087 -0.3341 -2.6899
   71MOL0     H 9562   4.616   8.024   2.566 -1.5274  0.4248 -0.9748
   71MOL0     H 9563   4.481   8.246   2.723 -0.9137 -0.1983  0.0425
   71MOL0     H 9564   4.546   8.250   2.559 -0.3083  2.0717  0.9459
   71MOL0     H 9565   5.519   8.301   2.524  5.2152  2.7961  0.4556
   71MOL0     H 9566   5.694   8.211   2.363 -1.4129  0.1712 -0.2962
   71MOL0     H 9567   6.055   8.084   2.106  1.4210 -0.1868 -0.0150
   71MOL0     H 9568   6.187   7.930   1.959 -1.7247 -1.8638 -1.7552
   71MOL0     H 9569   6.333   8.086   3.254 -0.0571  2.7129  2.0474
   71MOL0     H 9570   6.137   8.209   3.324 -0.6645  0.3782  1.4531
   71MOL0     H 9571   5.693   8.089   3.416  1.3738  0.0120  1.5953
   71MOL0     H 9572   5.470   8.140   3.399  3.5165 -0.7829 -2.1527
   71MOL0     H 9573   5.350   8.575   3.466 -3.2547  2.1265  0.0163
   71MOL0     H 9574   5.327   8.495   3.616  3.1753 -0.6426 -0.0972
   71MOL0     H 9575   5.112   8.452   3.590 -2.4331  0.7208 -1.1140
   71MOL0     H 9576   5.107   8.416   3.421 -1.7190 -1.3814  2.0717
   71MOL0     H 9577   5.097   8.641   3.349 -1.3307 -0.7330 -0.4050
   71MOL0     H 9578   5.131   8.706   3.512  0.8360  2.0589 -3.4966
   71MOL0     H 9579   4.908   8.622   3.589 -2.7484 -0.3177 -0.5329
   71MOL0     H 9580   4.893   8.729   3.453  2.1613  1.7787  0.7846
   71MOL0     H 9581   4.758   8.389   3.261  0.1620 -1.1900  0.7798
   71MOL0     H 9582   5.548   8.534   3.563  0.4192  0.2945 -1.5174
   71MOL0     H 9583   5.887   8.484   3.667  3.2103  3.4805 -1.7008
   71MOL0     H 9584   5.853   8.567   3.514 -1.1833  1.1001 -0.0398
   71MOL0     H 9585   5.750   8.598   3.653 -1.9579 -0.4447 -0.2501
   72MOL0     O 9586   8.753   3.625  11.014  0.2290  0.0076 -0.0558
   72MOL0     C 9587   8.705   3.514  11.017  0.0444  0.4142 -0.3099
   72MOL0     O 9588   8.776   3.406  10.976  0.0259  0.7157  0.2465
   72MOL0     C 9589   8.912   3.427  10.948 -0.0257  0.1845 -0.2549
   72MOL0     C 9590   8.962   3.514  10.848  0.3371 -0.5625 -1.0306
   72MOL0     C 9591   9.107   3.513  10.830 -0.4367 -0.0483  0.7841
   72MOL0     C 9592   9.188   3.415  10.892  0.1792 -0.3202  0.5409
   72MOL0     O 9593   9.320   3.417  10.852 -0.0162  0.3842  0.1310
   72MOL0     C 9594   9.431   3.366  10.933 -0.7431 -0.3342  0.2842
   72MOL0     C 9595   9.445   3.472  11.048 -0.0714  0.1764 -0.0640
   72MOL0     C 9596   9.558   3.454  11.138  0.1616  0.4660  0.4262
   72MOL0     C 9597   9.528   3.366  11.257  0.3565  1.0816 -0.0564
   72MOL0     C 9598   9.660   3.346  11.338  0.0177  0.3257  0.2629
   72MOL0     C 9599   9.762   3.254  11.268  0.1129  0.4037 -0.0174
   72MOL0     C 9600   9.873   3.209  11.361  1.3542 -0.6475  0.7152
   72MOL0     C 9601   9.954   3.337  11.398  0.2535 -0.1916 -0.3592
   72MOL0     N 9602  10.073   3.300  11.480  0.0453 -0.2173 -0.8532
   72MOL0     C 9603  10.193   3.358  11.451 -0.0001 -0.2102 -0.5551
   72MOL0     C 9604  10.278   3.308  11.532 -0.6303  1.0048  0.1035
   72MOL0     C 9605  10.423   3.327  11.534  0.9780 -0.4513 -0.1658
   72MOL0     C 9606  10.464   3.471  11.550  0.0406 -0.5224  0.4130
   72MOL0     C 9607  10.611   3.475  11.506 -0.3358 -0.1047 -0.3056
   72MOL0     C 9608  10.666   3.615  11.545  0.1359  0.4614  0.2320
   72MOL0     O 9609  10.803   3.627  11.514 -0.1953 -0.3537 -0.6103
   72MOL0     C 9610  10.900   3.578  11.597 -1.1495  0.7728  0.4590
   72MOL0     C 9611  11.031   3.620  11.567  0.3128 -1.0690 -0.5191
   72MOL0     C 9612  11.142   3.591  11.648 -0.4837 -0.4168  0.0914
   72MOL0     C 9613  11.133   3.505  11.756 -0.8974 -0.3595  0.0772
   72MOL0     C 9614  11.250   3.474  11.832  0.3296  0.6161 -0.8147
   72MOL0     O 9615  11.253   3.356  11.898  0.0849  0.2921 -0.9131
   72MOL0     C 9616  11.366   3.294  11.938 -0.6664  0.2994  1.2323
   72MOL0     C 9617  11.448   3.333  12.048 -0.3476 -0.5557  0.0196
   72MOL0     C 9618  11.558   3.253  12.100  0.7508 -0.1677  0.2905
   72MOL0     C 9619  11.579   3.128  12.046  0.2138  0.6651  0.5415
   72MOL0     O 9620  11.685   3.058  12.086 -0.2239 -0.6218 -0.0146
   72MOL0     C 9621  11.741   2.955  12.001 -0.4697  0.6171  0.1452
   72MOL0     C 9622  11.666   2.808  12.022  0.3648 -0.2421 -0.5401
   72MOL0     C 9623  11.697   2.738  12.152 -0.2826 -0.0326 -0.7339
   72MOL0     C 9624  11.604   2.782  12.270  0.1393  0.2328  0.7483
   72MOL0     C 9625  11.639   2.735  12.407 -1.3438  0.3187 -0.9076
   72MOL0     C 9626  11.562   2.825  12.506  0.3009  0.1786 -0.5985
   72MOL0     C 9627  11.549   2.752  12.640  0.4620 -0.5571 -0.1500
   72MOL0     C 9628  11.488   2.848  12.745  0.2342  0.7447  0.3621
   72MOL0    Cl 9629  11.315   2.890  12.722 -0.1631  0.0037 -0.1752
   72MOL0     C 9630  11.498   3.095  11.933 -0.4588 -0.7250  0.0203
   72MOL0     C 9631  11.397   3.170  11.883  0.2988 -0.0642 -0.1987
   72MOL0     O 9632  11.346   3.547  11.828 -0.2961  0.5190 -0.7680
   72MOL0     C 9633  11.002   3.462  11.783  0.6787  0.6484 -0.2111
   72MOL0     C 9634  10.885   3.496  11.706 -0.0542 -0.1340  0.6780
   72MOL0     N 9635  10.212   3.218  11.610  0.5954  0.8631 -0.0186
   72MOL0     N 9636  10.085   3.212  11.584 -0.8009 -0.3995 -0.1768
   72MOL0     C 9637   9.137   3.328  10.986  0.5282  0.2164 -0.5876
   72MOL0     C 9638   9.001   3.337  11.011  0.6139  0.4983 -0.6036
   72MOL0     C 9639   8.564   3.493  11.054 -0.5831 -0.9826 -0.2259
   72MOL0     C 9640   8.497   3.606  11.115 -1.0217  0.0140  0.4588
   72MOL0     C 9641   8.384   3.605  11.184  0.8807 -1.0186  0.1104
   72MOL0     C 9642   8.313   3.482  11.183  1.0256  0.0285  0.3353
   72MOL0     O 9643   8.185   3.455  11.224 -0.4132  0.4230 -0.4571
   72MOL0     C 9644   8.100   3.563  11.256 -0.5862  0.2349 -0.0807
   72MOL0     C 9645   8.060   3.579  11.397 -0.1982  0.3513 -0.1949
   72MOL0     C 9646   8.018   3.443  11.457  0.4473  0.1561  0.0524
   72MOL0     C 9647   7.983   3.460  11.609 -0.0530  0.2443  1.3555
   72MOL0     C 9648   7.938   3.334  11.671 -0.1496 -0.3326 -0.1296
   72MOL0     C 9649   7.873   3.249  11.729 -0.0362  0.3841 -0.0380
   72MOL0     C 9650   8.368   3.375  11.115 -0.2317  0.1670  0.2274
   72MOL0     C 9651   8.495   3.377  11.058 -0.1740  0.8395 -0.0455
   72MOL0     C 9652   8.550   3.249  11.008 -0.2907  1.1973  0.2748
   72MOL0     H 9653   8.904   3.597  10.809 -2.2871 -1.0835  1.4146
   72MOL0     H 9654   9.149   3.586  10.762 -0.6710 -1.4711 -0.9822
   72MOL0     H 9655   9.417   3.264  10.968 -0.1276 -0.9328 -1.1439
   72MOL0     H 9656   9.521   3.366  10.871 -0.2173  3.3295  0.8329
   72MOL0     H 9657   9.353   3.480  11.107 -1.0441  2.9105 -1.7942
   72MOL0     H 9658   9.464   3.564  10.993  0.0521  0.8413  1.0647
   72MOL0     H 9659   9.592   3.550  11.179 -0.9198  1.0409  0.0239
   72MOL0     H 9660   9.641   3.409  11.083 -2.0589 -4.1490  0.3510
   72MOL0     H 9661   9.457   3.412  11.326  0.9149  0.4583  0.9584
   72MOL0     H 9662   9.483   3.276  11.214  0.2037  0.6918  0.8985
   72MOL0     H 9663   9.699   3.443  11.370 -2.6400  1.8083 -0.6339
   72MOL0     H 9664   9.631   3.295  11.431  1.9848 -0.0936  0.6919
   72MOL0     H 9665   9.709   3.166  11.229 -0.4935 -0.2351  2.1338
   72MOL0     H 9666   9.803   3.300  11.177 -0.6179 -0.6422 -0.9012
   72MOL0     H 9667   9.937   3.145  11.300  2.3438  0.7241  0.2553
   72MOL0     H 9668   9.837   3.147  11.444 -2.4995  0.1915 -0.1481
   72MOL0     H 9669   9.993   3.387  11.308  3.0955 -2.0635 -0.3020
   72MOL0     H 9670   9.896   3.412  11.452 -1.4672 -0.9276 -1.1268
   72MOL0     H 9671  10.223   3.426  11.372  2.2055  1.1917  1.3528
   72MOL0     H 9672  10.463   3.266  11.617  0.3438  0.2101  0.6400
   72MOL0     H 9673  10.461   3.280  11.443  0.3833 -1.0965 -0.0938
   72MOL0     H 9674  10.413   3.528  11.472  1.5958 -3.1331 -2.7419
   72MOL0     H 9675  10.441   3.503  11.652 -0.5937  0.2271  0.0396
   72MOL0     H 9676  10.628   3.461  11.399 -0.9707 -0.1642 -0.4009
   72MOL0     H 9677  10.660   3.393  11.560  1.7006  1.2444  0.0399
   72MOL0     H 9678  10.666   3.631  11.654  0.7453 -0.8473  0.4421
   72MOL0     H 9679  10.606   3.696  11.502 -0.7732  0.2315  1.0068
   72MOL0     H 9680  11.053   3.685  11.483  1.8418 -0.2595  0.4507
   72MOL0     H 9681  11.244   3.627  11.636  0.0274 -2.2134 -1.4508
   72MOL0     H 9682  11.422   3.432  12.083 -0.8118 -0.4651 -0.5734
   72MOL0     H 9683  11.619   3.271  12.188  0.9550 -2.3802  0.6632
   72MOL0     H 9684  11.741   2.975  11.894 -0.0331 -0.0472  0.0125
   72MOL0     H 9685  11.846   2.940  12.026 -1.1284 -1.3297  2.0799
   72MOL0     H 9686  11.559   2.813  12.000  0.4157  0.9139 -0.5614
   72MOL0     H 9687  11.718   2.746  11.948  1.2830 -1.5998  1.1752
   72MOL0     H 9688  11.684   2.630  12.140 -3.0014 -0.0483  1.4975
   72MOL0     H 9689  11.800   2.761  12.182 -0.0240 -2.2387  0.2903
   72MOL0     H 9690  11.502   2.751  12.243  1.4883 -2.3199 -1.9668
   72MOL0     H 9691  11.604   2.892  12.273 -0.7945  0.2408  0.7355
   72MOL0     H 9692  11.744   2.749  12.431 -1.5662 -0.1625  0.4588
   72MOL0     H 9693  11.619   2.627  12.416  1.5032 -0.2462 -0.5154
   72MOL0     H 9694  11.605   2.926  12.513 -0.6830  0.8538 -3.0689
   72MOL0     H 9695  11.464   2.857  12.470 -0.2741  2.8768  2.8100
   72MOL0     H 9696  11.654   2.734  12.664  1.5075  2.3745 -1.9056
   72MOL0     H 9697  11.478   2.670  12.628 -0.8638  0.4407  0.5751
   72MOL0     H 9698  11.499   2.800  12.843 -1.9228 -2.0900 -0.6418
   72MOL0     H 9699  11.550   2.938  12.750  1.9767 -0.3597 -0.3816
   72MOL0     H 9700  11.518   3.003  11.879  0.3131 -0.5322 -0.0235
   72MOL0     H 9701  11.348   3.138  11.791  2.7814 -0.9862 -1.2962
   72MOL0     H 9702  10.975   3.400  11.868  2.1669 -0.4870 -0.5293
   72MOL0     H 9703  10.790   3.448  11.730 -0.2547  0.5466  1.2684
   72MOL0     H 9704   9.189   3.243  11.028 -0.6942 -1.4204 -2.2304
   72MOL0     H 9705   8.956   3.265  11.079  4.0120  0.3906  1.7773
   72MOL0     H 9706   8.563   3.688  11.145  1.6982 -1.3630 -1.3010
   72MOL0     H 9707   8.353   3.683  11.253 -3.7312 -3.3479  1.0527
   72MOL0     H 9708   8.006   3.550  11.203 -1.6126  0.6184  1.5724
   72MOL0     H 9709   8.140   3.663  11.234 -1.4980  0.8426  0.9136
   72MOL0     H 9710   7.974   3.646  11.406 -1.1187 -0.4512 -2.3820
   72MOL0     H 9711   8.138   3.626  11.457  0.1147  1.0668 -1.1337
   72MOL0     H 9712   8.105   3.376  11.456  2.5003  2.4920  3.3306
   72MOL0     H 9713   7.933   3.389  11.415  0.4024 -0.8078  1.3206
   72MOL0     H 9714   8.072   3.492  11.665  1.5822 -2.6347  0.5873
   72MOL0     H 9715   7.905   3.536  11.625 -2.1601 -1.4523 -0.2476
   72MOL0     H 9716   7.811   3.172  11.771  1.5397 -1.6469 -1.2813
   72MOL0     H 9717   8.308   3.285  11.125 -0.8251  0.5943  0.5594
   72MOL0     H 9718   8.591   3.275  10.910 -1.2314 -1.8757 -1.0736
   72MOL0     H 9719   8.625   3.207  11.075 -0.8179 -0.7625 -0.3011
   72MOL0     H 9720   8.473   3.172  10.998 -0.8151  1.3021  2.8444
   73MOL0     O 9721   0.796   8.686   1.145  0.5427  0.2052  0.7746
   73MOL0     C 9722   0.769   8.598   1.229 -0.0082  0.3443  0.5936
   73MOL0     O 9723   0.864   8.517   1.291  0.4596  0.5350  0.5387
   73MOL0     C 9724   0.988   8.546   1.271 -0.9908  0.7576 -0.3652
   73MOL0     C 9725   1.063   8.475   1.183 -0.3158  1.3864 -0.2386
   73MOL0     C 9726   1.201   8.498   1.160  0.6141 -0.0835  0.3296
   73MOL0     C 9727   1.262   8.607   1.221  0.2321 -0.1894  0.3464
   73MOL0     O 9728   1.395   8.622   1.189 -0.1013  0.1798  0.8529
   73MOL0     C 9729   1.468   8.713   1.265 -0.0470 -0.4847 -0.0020
   73MOL0     C 9730   1.608   8.703   1.206  0.0238 -0.3056 -0.5270
   73MOL0     C 9731   1.705   8.764   1.308 -0.2784 -0.1969  0.2083
   73MOL0     C 9732   1.845   8.754   1.256  0.4804 -0.6503 -0.0217
   73MOL0     C 9733   1.944   8.817   1.358  0.3984 -0.5670  0.3335
   73MOL0     C 9734   2.078   8.822   1.293 -0.1028 -0.0850 -0.1373
   73MOL0     C 9735   2.182   8.872   1.394 -0.0988 -0.2171 -0.3441
   73MOL0     C 9736   2.323   8.864   1.335 -0.4542  0.4800  0.4135
   73MOL0     N 9737   2.399   8.987   1.336  0.2415  0.5884  0.6573
   73MOL0     C 9738   2.436   9.057   1.452 -0.0261 -0.1942  0.3780
   73MOL0     C 9739   2.467   9.180   1.400  0.5522  0.1677 -0.3381
   73MOL0     C 9740   2.510   9.295   1.478 -0.0322 -0.1790 -0.3075
   73MOL0     C 9741   2.635   9.270   1.568  0.3138  0.1954  0.6597
   73MOL0     C 9742   2.668   9.410   1.617 -0.4772 -0.5402  0.2954
   73MOL0     C 9743   2.810   9.420   1.675  0.6407 -0.1880 -0.5818
   73MOL0     O 9744   2.830   9.340   1.793 -0.8157 -0.4844  0.3451
   73MOL0     C 9745   2.950   9.361   1.859  0.2136  0.2670  0.3486
   73MOL0     C 9746   3.070   9.432   1.820  0.8412 -0.8677  0.0190
   73MOL0     C 9747   3.179   9.440   1.903 -0.0156 -0.1098  0.2126
   73MOL0     C 9748   3.176   9.391   2.033  0.3346 -0.1668 -0.7140
   73MOL0     C 9749   3.300   9.409   2.116 -0.0471 -0.5747 -0.1446
   73MOL0     O 9750   3.320   9.320   2.228  0.3291 -0.7161 -0.0242
   73MOL0     C 9751   3.438   9.327   2.301  0.4155  0.4841  0.0801
   73MOL0     C 9752   3.561   9.324   2.240 -0.1190  0.3015  0.1251
   73MOL0     C 9753   3.677   9.347   2.328  0.3245  0.5399  0.4460
   73MOL0     C 9754   3.660   9.355   2.464  0.2879 -0.4778  0.2274
   73MOL0     O 9755   3.776   9.363   2.535  0.4701  0.3988 -0.7057
   73MOL0     C 9756   3.779   9.384   2.684 -1.1967  0.4252  0.5192
   73MOL0     C 9757   3.912   9.461   2.723  0.4105 -0.7459 -0.3582
   73MOL0     C 9758   4.030   9.375   2.750  0.4810  0.1429 -0.3091
   73MOL0     C 9759   4.159   9.458   2.788 -0.1833  0.5002  0.5547
   73MOL0     C 9760   4.283   9.372   2.826  0.2914 -1.5382 -0.1108
   73MOL0     C 9761   4.397   9.472   2.871 -0.7819  0.4437 -0.4481
   73MOL0     C 9762   4.515   9.382   2.907  0.4452 -0.3224  0.2799
   73MOL0     C 9763   4.635   9.471   2.928  0.0460  0.2435 -0.4628
   73MOL0    Cl 9764   4.754   9.352   2.987  0.1482  0.2830 -0.2837
   73MOL0     C 9765   3.538   9.347   2.518 -0.2499  1.2091 -0.1599
   73MOL0     C 9766   3.423   9.329   2.439 -0.4244  0.7963 -0.4195
   73MOL0     O 9767   3.373   9.505   2.090 -0.2520 -0.4215 -0.3377
   73MOL0     C 9768   3.072   9.307   2.068 -0.1917  0.7912  0.0745
   73MOL0     C 9769   2.962   9.293   1.985 -0.7166  0.5069  0.3800
   73MOL0     N 9770   2.449   9.188   1.265  0.0926  0.4184 -0.3285
   73MOL0     N 9771   2.420   9.068   1.230  0.8966  0.5344  0.3314
   73MOL0     C 9772   1.185   8.687   1.319 -0.1414  0.3751 -0.7737
   73MOL0     C 9773   1.051   8.647   1.342 -0.2577 -0.9222  0.4866
   73MOL0     C 9774   0.631   8.587   1.266  0.9105  0.9472  0.3496
   73MOL0     C 9775   0.550   8.699   1.256  0.1080 -0.0974 -0.7400
   73MOL0     C 9776   0.417   8.707   1.294 -1.1160 -0.7090 -0.2677
   73MOL0     C 9777   0.354   8.590   1.329  0.0675  0.0306 -0.1733
   73MOL0     O 9778   0.216   8.572   1.357  0.4652 -0.4535 -0.4537
   73MOL0     C 9779   0.126   8.681   1.315  0.1318 -0.1550 -0.2854
   73MOL0     C 9780  -0.014   8.610   1.330 -0.2677 -0.8842 -0.0879
   73MOL0     C 9781  -0.126   8.710   1.293 -0.5993  0.4649 -0.2489
   73MOL0     C 9782  -0.253   8.628   1.290  0.4497  1.0617 -0.1577
   73MOL0     C 9783  -0.306   8.558   1.408  0.1582 -0.8624  0.0433
   73MOL0     C 9784  -0.348   8.486   1.490  0.2319  0.3679 -0.7526
   73MOL0     C 9785   0.429   8.473   1.325  0.0294  0.1494 -0.0616
   73MOL0     C 9786   0.564   8.463   1.298 -0.4357  0.7364 -0.3421
   73MOL0     C 9787   0.625   8.327   1.283  0.4286  0.3889  0.0963
   73MOL0     H 9788   1.029   8.385   1.134  0.4138  1.0024 -0.0566
   73MOL0     H 9789   1.252   8.427   1.096  0.8327 -1.4336  1.9377
   73MOL0     H 9790   1.443   8.816   1.239  2.8317  0.1915 -0.4611
   73MOL0     H 9791   1.461   8.701   1.374  1.4666  1.2769  0.3408
   73MOL0     H 9792   1.631   8.747   1.109  1.6142  3.5249  1.3676
   73MOL0     H 9793   1.626   8.595   1.195  1.3797  0.0017 -1.5838
   73MOL0     H 9794   1.702   8.701   1.398  2.2652 -0.6599  0.0415
   73MOL0     H 9795   1.677   8.867   1.331  0.5004 -0.1240  0.8864
   73MOL0     H 9796   1.874   8.648   1.251  0.5735 -1.0233  4.2050
   73MOL0     H 9797   1.851   8.793   1.154 -0.8012 -1.8506 -0.5937
   73MOL0     H 9798   1.912   8.917   1.390  0.8028 -0.7245  1.2610
   73MOL0     H 9799   1.948   8.754   1.447 -2.8190 -0.7526  0.4389
   73MOL0     H 9800   2.099   8.720   1.259 -1.4709 -0.7549  0.9649
   73MOL0     H 9801   2.067   8.887   1.206  0.9838  0.4848  0.1330
   73MOL0     H 9802   2.162   8.810   1.482 -3.3036  1.2842  0.1406
   73MOL0     H 9803   2.157   8.976   1.418 -0.9782 -0.0010 -2.0419
   73MOL0     H 9804   2.396   8.791   1.371 -0.9095 -0.7216 -1.0015
   73MOL0     H 9805   2.299   8.827   1.235 -0.9314 -3.3869  1.7876
   73MOL0     H 9806   2.417   9.038   1.557  1.6287  0.0324  0.7606
   73MOL0     H 9807   2.546   9.367   1.405  1.2856  0.7462  1.1913
   73MOL0     H 9808   2.432   9.351   1.530  1.1724  0.6465  0.6799
   73MOL0     H 9809   2.606   9.199   1.646 -0.4198  1.4642  1.5752
   73MOL0     H 9810   2.707   9.228   1.497 -2.0725  0.5115 -2.1495
   73MOL0     H 9811   2.592   9.449   1.686 -0.1404 -0.8218  0.8343
   73MOL0     H 9812   2.670   9.486   1.538  4.1497  2.3726  2.7571
   73MOL0     H 9813   2.830   9.522   1.710 -0.0471  0.1877 -1.2290
   73MOL0     H 9814   2.882   9.391   1.598  0.2763  0.9586 -1.3890
   73MOL0     H 9815   3.076   9.477   1.722 -1.8735 -0.0570  0.1451
   73MOL0     H 9816   3.269   9.489   1.867  1.5901 -0.7011  3.0994
   73MOL0     H 9817   3.571   9.307   2.133  0.5295  0.6306  0.1280
   73MOL0     H 9818   3.771   9.339   2.275 -0.2856 -1.3504 -0.4705
   73MOL0     H 9819   3.708   9.459   2.720  1.2774  2.8074  0.7742
   73MOL0     H 9820   3.760   9.287   2.730 -0.5717  1.4386  3.1059
   73MOL0     H 9821   3.940   9.539   2.651 -0.0841  0.6190  0.8874
   73MOL0     H 9822   3.886   9.506   2.819  1.3548  0.0065 -0.4494
   73MOL0     H 9823   4.016   9.322   2.845  0.0886  1.5984  0.4866
   73MOL0     H 9824   4.056   9.310   2.667  0.0982 -0.7062  0.2159
   73MOL0     H 9825   4.139   9.531   2.867  0.6189 -0.2546  1.4919
   73MOL0     H 9826   4.188   9.513   2.698  0.2856 -3.7414 -2.1927
   73MOL0     H 9827   4.311   9.307   2.743 -2.9831  0.7129 -3.3035
   73MOL0     H 9828   4.253   9.319   2.917 -3.1242 -1.2910 -0.9466
   73MOL0     H 9829   4.419   9.548   2.795 -3.3402  0.3825 -1.3364
   73MOL0     H 9830   4.362   9.527   2.959  0.0358 -1.5063  1.1580
   73MOL0     H 9831   4.541   9.317   2.823  3.9617  2.7327 -1.3218
   73MOL0     H 9832   4.499   9.323   2.997  0.6063  1.3630  1.4668
   73MOL0     H 9833   4.677   9.512   2.835  0.5556 -0.6371 -0.6343
   73MOL0     H 9834   4.616   9.549   3.003  0.7735 -0.0618  0.0500
   73MOL0     H 9835   3.521   9.354   2.626 -0.1191  0.2890 -0.0681
   73MOL0     H 9836   3.327   9.326   2.490  0.8691 -0.3236  2.1218
   73MOL0     H 9837   3.086   9.256   2.162  2.1675 -0.4613 -0.8764
   73MOL0     H 9838   2.884   9.224   2.015 -1.0983  1.0222  0.5717
   73MOL0     H 9839   1.232   8.768   1.374  1.3554 -3.1596  3.8650
   73MOL0     H 9840   0.991   8.719   1.398  2.3255  2.2366 -0.4982
   73MOL0     H 9841   0.608   8.785   1.224 -0.9540 -0.1173 -2.8912
   73MOL0     H 9842   0.371   8.805   1.286 -0.6561 -0.5495 -1.0402
   73MOL0     H 9843   0.148   8.699   1.209 -0.6559 -0.9803 -0.5961
   73MOL0     H 9844   0.137   8.766   1.382  0.2767 -1.1746  1.0348
   73MOL0     H 9845  -0.020   8.581   1.435  1.3174 -0.6336  0.1020
   73MOL0     H 9846  -0.018   8.519   1.270 -1.3979  0.4133 -2.0746
   73MOL0     H 9847  -0.102   8.758   1.197  2.1713 -0.2051  0.0155
   73MOL0     H 9848  -0.132   8.783   1.374  0.7695  0.3268  0.0030
   73MOL0     H 9849  -0.332   8.696   1.257  0.3195  0.4182 -1.2375
   73MOL0     H 9850  -0.239   8.556   1.209  3.8744  1.1062  0.2638
   73MOL0     H 9851  -0.378   8.422   1.570  1.6705  2.9461  2.0621
   73MOL0     H 9852   0.382   8.377   1.345  3.4568 -1.2131  2.5774
   73MOL0     H 9853   0.654   8.321   1.178 -4.7690 -1.0566 -1.5791
   73MOL0     H 9854   0.708   8.318   1.354  2.3148  2.0458 -1.7806
   73MOL0     H 9855   0.551   8.248   1.294 -0.6084  1.2427 -0.5410
   74MOL0     O 9856   5.611   0.093   3.683 -0.1858  0.3294  0.4787
   74MOL0     C 9857   5.559   0.140   3.783 -0.0646 -0.2423 -0.2968
   74MOL0     O 9858   5.624   0.156   3.905 -0.3685  0.2757  0.2007
   74MOL0     C 9859   5.755   0.193   3.915 -0.4741  0.5665  0.6077
   74MOL0     C 9860   5.831   0.137   4.014  0.2823 -0.4335 -0.3061
   74MOL0     C 9861   5.967   0.170   4.021  1.0996 -0.3818 -0.4085
   74MOL0     C 9862   6.028   0.266   3.944 -0.2309 -0.1032 -0.1322
   74MOL0     O 9863   6.151   0.314   3.961  0.6510 -0.1720 -0.0299
   74MOL0     C 9864   6.247   0.214   3.996 -0.5999 -0.5306  0.5164
   74MOL0     C 9865   6.375   0.287   4.000  0.1563 -0.1742 -1.2967
   74MOL0     C 9866   6.413   0.345   3.871  0.4957  0.1116 -0.1272
   74MOL0     C 9867   6.569   0.358   3.850 -0.2238  0.5516 -0.4399
   74MOL0     C 9868   6.606   0.428   3.716  0.2429 -0.0445 -0.4707
   74MOL0     C 9869   6.755   0.451   3.693  0.5418  0.5372  0.3959
   74MOL0     C 9870   6.835   0.315   3.669  0.0649 -0.7079  0.8003
   74MOL0     C 9871   6.990   0.354   3.676  0.1679  0.1866  0.3889
   74MOL0     N 9872   7.066   0.230   3.663 -0.3474 -0.2495  0.2187
   74MOL0     C 9873   7.200   0.231   3.679  0.0435 -0.2116  0.4657
   74MOL0     C 9874   7.226   0.099   3.659  0.8750  0.0126  0.6332
   74MOL0     C 9875   7.359   0.044   3.656  0.1297  0.2626 -0.0822
   74MOL0     C 9876   7.466   0.134   3.601  0.7420 -0.3367 -1.0427
   74MOL0     C 9877   7.600   0.066   3.585  0.5366 -0.1528 -0.4885
   74MOL0     C 9878   7.723   0.154   3.553 -0.5762  0.1605 -0.5908
   74MOL0     O 9879   7.835   0.057   3.558  0.0851  0.7483 -0.5890
   74MOL0     C 9880   7.959   0.099   3.514  0.5521  0.9102  0.6014
   74MOL0     C 9881   7.977   0.232   3.457 -0.7608  0.1197 -1.1016
   74MOL0     C 9882   8.107   0.277   3.425 -0.7781  0.2809  0.7226
   74MOL0     C 9883   8.217   0.188   3.440 -0.4468  0.1350 -0.0569
   74MOL0     C 9884   8.358   0.228   3.414  0.1369 -0.0784  0.1879
   74MOL0     O 9885   8.388   0.361   3.420 -0.2823  0.1626 -0.3073
   74MOL0     C 9886   8.513   0.400   3.419 -0.6332  0.1280 -0.2044
   74MOL0     C 9887   8.536   0.530   3.382  0.5001  0.7108  0.6177
   74MOL0     C 9888   8.661   0.595   3.394  0.7653 -0.7717 -0.8234
   74MOL0     C 9889   8.769   0.524   3.460  1.1795  0.0434 -0.8152
   74MOL0     O 9890   8.891   0.593   3.477 -0.2713 -0.3510 -0.0528
   74MOL0     C 9891   8.996   0.533   3.549 -0.1935  0.4560 -0.5292
   74MOL0     C 9892   9.103   0.627   3.595 -0.7053  0.4031 -0.1373
   74MOL0     C 9893   9.174   0.696   3.476  0.2054  0.5299  0.7273
   74MOL0     C 9894   9.295   0.759   3.532 -0.4675  0.2796 -0.1118
   74MOL0     C 9895   9.397   0.803   3.426 -0.3224  0.1930  0.2116
   74MOL0     C 9896   9.496   0.898   3.490 -0.0409  0.1792 -0.4891
   74MOL0     C 9897   9.582   0.827   3.599 -0.2866  0.5711  0.4839
   74MOL0     C 9898   9.692   0.738   3.538  0.0330  0.5248  0.1498
   74MOL0    Cl 9899   9.800   0.679   3.652 -0.0687 -0.2374  0.2182
   74MOL0     C 9900   8.744   0.397   3.499 -0.3399  0.9002 -0.5757
   74MOL0     C 9901   8.624   0.332   3.484  0.4592 -0.7020 -0.4322
   74MOL0     O 9902   8.435   0.136   3.373  0.6729 -0.0834  0.1807
   74MOL0     C 9903   8.193   0.063   3.496 -0.1399 -0.0698  0.5362
   74MOL0     C 9904   8.065   0.020   3.522  0.4187  0.4903  0.2499
   74MOL0     N 9905   7.114   0.034   3.609 -0.1402  0.5319  0.1772
   74MOL0     N 9906   7.011   0.114   3.616  0.2213  0.0133  0.8651
   74MOL0     C 9907   5.946   0.317   3.845 -0.0642 -0.8356  0.6024
   74MOL0     C 9908   5.814   0.284   3.823  0.0442  0.5695  0.9069
   74MOL0     C 9909   5.423   0.189   3.773 -0.2328  0.5895 -1.4017
   74MOL0     C 9910   5.363   0.209   3.649  0.8225  0.0106  0.2745
   74MOL0     C 9911   5.230   0.243   3.621 -0.9180  0.4066  0.0282
   74MOL0     C 9912   5.151   0.267   3.743  0.5195 -0.0350  1.0897
   74MOL0     O 9913   5.018   0.304   3.739  0.1311 -0.0485 -0.0634
   74MOL0     C 9914   4.955   0.332   3.613 -0.0202  0.1653 -0.2479
   74MOL0     C 9915   4.809   0.373   3.613 -0.0290 -0.5251  1.1549
   74MOL0     C 9916   4.717   0.305   3.719  0.3850  0.6098  0.3638
   74MOL0     C 9917   4.726   0.152   3.719 -0.1583  0.5154  0.2412
   74MOL0     C 9918   4.687   0.102   3.582 -0.3010  0.0216 -0.3535
   74MOL0     C 9919   4.657   0.071   3.469 -0.3309 -0.7414 -0.0793
   74MOL0     C 9920   5.209   0.253   3.861 -0.5201  1.2649 -0.1640
   74MOL0     C 9921   5.340   0.210   3.888  0.1193 -1.1340 -0.5645
   74MOL0     C 9922   5.371   0.183   4.041 -0.7206 -0.1336  0.6770
   74MOL0     H 9923   5.786   0.058   4.073 -0.5068  2.1311  2.8504
   74MOL0     H 9924   6.025   0.121   4.100  2.2549  1.4045 -0.0900
   74MOL0     H 9925   6.231   0.177   4.098 -0.7056  0.8508  1.0182
   74MOL0     H 9926   6.257   0.132   3.924 -0.9639 -0.2136  0.0988
   74MOL0     H 9927   6.444   0.207   4.031  0.3022  0.5596  0.3751
   74MOL0     H 9928   6.378   0.370   4.072  0.1917 -0.0134 -1.4843
   74MOL0     H 9929   6.354   0.438   3.875 -0.4436 -0.3652 -1.8086
   74MOL0     H 9930   6.381   0.294   3.780  0.7134 -0.3864  0.0700
   74MOL0     H 9931   6.618   0.410   3.934  3.6073 -0.4965 -1.8173
   74MOL0     H 9932   6.614   0.259   3.856 -1.8300 -0.2009 -0.4536
   74MOL0     H 9933   6.569   0.380   3.625  1.0806  0.1595 -0.9291
   74MOL0     H 9934   6.549   0.521   3.710 -0.7947 -0.7458 -2.0020
   74MOL0     H 9935   6.759   0.500   3.595 -0.2853 -2.5304 -1.3128
   74MOL0     H 9936   6.802   0.500   3.779 -2.8703  2.4985  1.3157
   74MOL0     H 9937   6.811   0.271   3.571  2.9237 -1.5455  0.3772
   74MOL0     H 9938   6.816   0.237   3.743 -0.7934  1.2976  2.7984
   74MOL0     H 9939   7.025   0.420   3.596  0.1186 -0.3489 -0.0820
   74MOL0     H 9940   7.004   0.395   3.776 -0.4759  0.0822  0.5289
   74MOL0     H 9941   7.261   0.318   3.699  1.5099 -0.3568 -2.6826
   74MOL0     H 9942   7.382   0.018   3.759  0.2596 -4.3294 -1.0430
   74MOL0     H 9943   7.355  -0.054   3.607 -3.8131 -0.3112  1.0385
   74MOL0     H 9944   7.445   0.176   3.502 -0.2015  2.2262  0.1487
   74MOL0     H 9945   7.472   0.224   3.663 -0.7009 -1.5246  0.9378
   74MOL0     H 9946   7.590  -0.006   3.503  3.6631  0.3029 -1.4067
   74MOL0     H 9947   7.622   0.012   3.677  2.2641  2.1373  0.5441
   74MOL0     H 9948   7.737   0.229   3.631  0.1573 -0.3413 -0.2187
   74MOL0     H 9949   7.707   0.207   3.459 -1.8955 -0.8766 -0.9833
   74MOL0     H 9950   7.887   0.290   3.437  1.3819  3.6280 -1.5052
   74MOL0     H 9951   8.122   0.372   3.374 -1.3831  0.3184  0.6027
   74MOL0     H 9952   8.453   0.595   3.357 -0.8759 -0.6871  1.3274
   74MOL0     H 9953   8.682   0.700   3.377 -0.1216 -0.7763 -2.1301
   74MOL0     H 9954   8.955   0.492   3.642  4.0309 -0.6580  1.0336
   74MOL0     H 9955   9.042   0.451   3.492 -0.2143  0.6729 -0.8579
   74MOL0     H 9956   9.052   0.695   3.663  0.4637  0.4393  0.7340
   74MOL0     H 9957   9.170   0.557   3.647  0.2022  0.7037 -0.8671
   74MOL0     H 9958   9.190   0.625   3.395  1.0511  0.5924  0.8315
   74MOL0     H 9959   9.103   0.771   3.442 -0.2110 -0.0154  0.3867
   74MOL0     H 9960   9.330   0.690   3.609 -0.5076 -0.7988 -1.0249
   74MOL0     H 9961   9.261   0.849   3.583 -0.4025  0.4372 -0.3439
   74MOL0     H 9962   9.344   0.857   3.347 -1.0358 -2.2793 -1.1113
   74MOL0     H 9963   9.445   0.717   3.378 -0.9147 -0.2486  0.4003
   74MOL0     H 9964   9.554   0.963   3.423  1.8052 -0.2009  0.7006
   74MOL0     H 9965   9.436   0.976   3.538 -1.5139  0.8385 -3.1744
   74MOL0     H 9966   9.524   0.766   3.668 -0.1839  1.9791  1.8755
   74MOL0     H 9967   9.624   0.909   3.658 -1.3928  0.2479  1.7828
   74MOL0     H 9968   9.640   0.650   3.498  1.3670 -1.0305  1.6594
   74MOL0     H 9969   9.749   0.786   3.459  1.8015 -1.6706 -0.0197
   74MOL0     H 9970   8.821   0.345   3.555  0.6208  1.3849 -1.4107
   74MOL0     H 9971   8.625   0.228   3.516  1.5604 -0.9299 -1.1636
   74MOL0     H 9972   8.278  -0.004   3.504 -1.0342 -1.2610  0.3036
   74MOL0     H 9973   8.042  -0.083   3.547 -1.6447  0.5112 -1.3628
   74MOL0     H 9974   5.987   0.399   3.788  1.9811 -1.1979  1.4635
   74MOL0     H 9975   5.753   0.319   3.740  2.2287  1.8858 -0.2027
   74MOL0     H 9976   5.421   0.177   3.563 -1.2251  0.4776 -1.3661
   74MOL0     H 9977   5.183   0.249   3.523 -2.0074 -0.8033  0.4483
   74MOL0     H 9978   4.966   0.246   3.546  1.1210  0.2986 -0.2599
   74MOL0     H 9979   5.019   0.407   3.566  0.0169  0.7408  0.6775
   74MOL0     H 9980   4.757   0.355   3.519  0.1831  2.0893  0.4497
   74MOL0     H 9981   4.804   0.483   3.618 -0.3904 -0.2412 -2.7960
   74MOL0     H 9982   4.615   0.340   3.702  0.1227 -0.2240  0.1783
   74MOL0     H 9983   4.746   0.342   3.818  1.1224  0.6267  0.1467
   74MOL0     H 9984   4.827   0.116   3.739 -0.6140 -0.3266  1.0819
   74MOL0     H 9985   4.648   0.113   3.785 -0.1587  3.3955  2.0868
   74MOL0     H 9986   4.624   0.048   3.369 -0.1617 -0.9802 -0.0808
   74MOL0     H 9987   5.141   0.281   3.941 -1.0194  0.4069 -0.2808
   74MOL0     H 9988   5.403   0.080   4.054 -2.0395 -0.2598  3.9020
   74MOL0     H 9989   5.454   0.245   4.078 -0.1277  0.2068 -1.1478
   74MOL0     H 9990   5.287   0.200   4.110 -2.3055 -0.0461 -1.2008
   75MOL0     O 9991   2.165   6.672   9.254 -0.1134  0.2857 -0.4825
   75MOL0     C 9992   2.192   6.771   9.184 -0.3758  0.4799  0.6061
   75MOL0     O 9993   2.304   6.850   9.200  0.5005  0.8111  0.7726
   75MOL0     C 9994   2.389   6.826   9.303  0.0676 -0.3733  0.1390
   75MOL0     C 9995   2.344   6.812   9.437 -0.0591 -0.2746 -0.0549
   75MOL0     C 9996   2.446   6.812   9.537 -0.0299  0.3860  1.1967
   75MOL0     C 9997   2.581   6.820   9.504  0.2983  0.0097  0.0471
   75MOL0     O 9998   2.674   6.813   9.608  0.8336 -0.7263 -0.2046
   75MOL0     C 9999   2.713   6.942   9.663  1.2943  0.3166 -0.3994
   75MOL0     C10000   2.854   6.946   9.720  0.1475 -0.4778 -0.1463
   75MOL0     C10001   2.893   7.089   9.764  0.8110 -0.2567 -0.7179
   75MOL0     C10002   3.036   7.098   9.822 -0.4036  0.9456  0.7917
   75MOL0     C10003   3.069   7.232   9.889  0.4129 -0.6862  0.1038
   75MOL0     C10004   3.212   7.244   9.936 -0.1345 -0.1899 -0.5261
   75MOL0     C10005   3.239   7.372  10.009 -0.0754  0.2461  0.4786
   75MOL0     C10006   3.387   7.408   9.994 -0.2336 -0.8327 -0.7160
   75MOL0     N10007   3.441   7.472  10.113  0.5367 -0.8064  0.4170
   75MOL0     C10008   3.423   7.603  10.157  0.2170  0.4641  0.2138
   75MOL0     C10009   3.480   7.600  10.278 -0.2146  0.6312  0.2233
   75MOL0     C10010   3.478   7.714  10.368 -0.2838 -0.5963  0.0608
   75MOL0     C10011   3.604   7.776  10.415 -0.0928  0.7580 -0.4894
   75MOL0     C10012   3.638   7.713  10.549  0.3421  1.1097 -0.2765
   75MOL0     C10013   3.783   7.757  10.583  1.1503  1.2677  1.0396
   75MOL0     O10014   3.793   7.902  10.570 -0.2777 -0.2522 -0.4386
   75MOL0     C10015   3.920   7.958  10.590 -0.1726  0.3150  0.0284
   75MOL0     C10016   4.033   7.882  10.627  0.3618 -0.2517  0.0878
   75MOL0     C10017   4.160   7.939  10.642  0.0189 -0.2763 -1.0015
   75MOL0     C10018   4.177   8.076  10.622 -0.1447 -0.7363  0.1508
   75MOL0     C10019   4.309   8.142  10.647 -0.2150  0.6383  0.2998
   75MOL0     O10020   4.411   8.058  10.682  0.2865  0.6564  0.2153
   75MOL0     C10021   4.538   8.113  10.696  0.6272 -0.5051 -0.4214
   75MOL0     C10022   4.586   8.147  10.825 -0.0947 -0.3116 -0.0223
   75MOL0     C10023   4.711   8.209  10.842 -0.4176 -0.5809  0.2940
   75MOL0     C10024   4.788   8.242  10.734 -0.9131 -1.2630  0.2256
   75MOL0     O10025   4.907   8.312  10.757  0.2457  0.4944  0.1231
   75MOL0     C10026   4.980   8.366  10.641 -0.0844  0.1614 -0.9680
   75MOL0     C10027   5.113   8.418  10.693  0.0613 -0.4643 -0.0583
   75MOL0     C10028   5.212   8.320  10.755  1.1570 -0.5292  0.4660
   75MOL0     C10029   5.333   8.395  10.813 -0.2571 -0.7853 -0.0616
   75MOL0     C10030   5.446   8.302  10.841 -0.7192 -0.2071 -0.7809
   75MOL0     C10031   5.567   8.356  10.925  0.4268 -0.3600 -0.7264
   75MOL0     C10032   5.644   8.237  10.986 -0.6100 -0.1412 -0.4277
   75MOL0     C10033   5.791   8.281  11.026  1.1024  0.3417  0.0831
   75MOL0    Cl10034   5.770   8.409  11.149  0.2465 -0.1481  0.3480
   75MOL0     C10035   4.757   8.185  10.609 -0.2246 -0.0897  0.1081
   75MOL0     C10036   4.631   8.119  10.591 -0.2283  0.2268 -0.1878
   75MOL0     O10037   4.314   8.266  10.650  0.4801  0.4573  0.2114
   75MOL0     C10038   4.067   8.157  10.574 -0.0131  0.4103  0.1443
   75MOL0     C10039   3.946   8.098  10.559  0.0447  0.0402 -0.2749
   75MOL0     N10040   3.539   7.476  10.307 -0.3639 -0.2441  0.1450
   75MOL0     N10041   3.507   7.399  10.208  0.0569  0.4587 -0.1948
   75MOL0     C10042   2.629   6.814   9.372 -0.1162  0.3595 -0.1899
   75MOL0     C10043   2.526   6.830   9.274 -0.9118 -0.0362 -0.1437
   75MOL0     C10044   2.107   6.810   9.073 -0.3286  0.4463 -0.3084
   75MOL0     C10045   2.167   6.900   8.982  0.0746  0.2219 -0.0829
   75MOL0     C10046   2.084   6.965   8.889 -0.3552  0.5836  0.2653
   75MOL0     C10047   1.953   6.925   8.869  0.6173 -0.2365  0.4089
   75MOL0     O10048   1.884   6.994   8.766 -0.2603  1.0020 -0.4949
   75MOL0     C10049   1.748   6.967   8.736  0.2947  0.4035 -0.7865
   75MOL0     C10050   1.664   7.054   8.836  0.2296 -0.9430 -0.0846
   75MOL0     C10051   1.512   7.045   8.806  0.1970  0.2640  0.1977
   75MOL0     C10052   1.475   7.120   8.676  0.2728  0.0611  1.1327
   75MOL0     C10053   1.489   7.275   8.683  0.4663  0.8859 -0.5575
   75MOL0     C10054   1.507   7.395   8.694 -0.2861 -0.1958 -0.2618
   75MOL0     C10055   1.902   6.821   8.946  0.1371 -0.8150  0.0075
   75MOL0     C10056   1.975   6.772   9.057 -0.2310 -0.3620 -0.2541
   75MOL0     C10057   1.903   6.669   9.148 -0.5800 -0.3703 -0.0963
   75MOL0     H10058   2.241   6.791   9.461  0.6715 -1.8504  2.0091
   75MOL0     H10059   2.415   6.817   9.641 -4.5802 -2.3193  0.2850
   75MOL0     H10060   2.714   7.017   9.583 -0.0766 -0.1976 -0.9351
   75MOL0     H10061   2.641   6.980   9.736  1.4396 -0.2701  0.0584
   75MOL0     H10062   2.920   6.905   9.643  0.3390 -1.5587  0.5863
   75MOL0     H10063   2.862   6.887   9.811  2.3118 -0.3975 -0.2302
   75MOL0     H10064   2.822   7.118   9.842  0.3774 -2.5685 -0.1957
   75MOL0     H10065   2.879   7.153   9.677  0.5850  3.3335  1.7364
   75MOL0     H10066   3.047   7.021   9.898  2.2765 -1.8540 -2.1262
   75MOL0     H10067   3.102   7.076   9.738  0.8365  1.6714  1.5439
   75MOL0     H10068   3.038   7.309   9.819 -1.7834 -1.1619  0.4699
   75MOL0     H10069   3.011   7.244   9.981  0.9348  2.7847  0.0865
   75MOL0     H10070   3.244   7.157   9.995  0.4002  0.1717 -0.2727
   75MOL0     H10071   3.265   7.252   9.841 -0.8414  2.1086 -0.7872
   75MOL0     H10072   3.215   7.340  10.111  0.0829 -2.9130 -0.3789
   75MOL0     H10073   3.170   7.447   9.969 -0.0569 -0.7228 -1.4710
   75MOL0     H10074   3.450   7.318   9.988  1.4280 -0.0241  2.3248
   75MOL0     H10075   3.398   7.460   9.899 -0.9870 -1.2878 -1.0554
   75MOL0     H10076   3.375   7.689  10.111 -0.5652  0.1265  0.3814
   75MOL0     H10077   3.421   7.790  10.314  1.0711  0.2118 -0.2492
   75MOL0     H10078   3.412   7.694  10.453 -0.8199  1.9837  0.3334
   75MOL0     H10079   3.684   7.764  10.342 -0.7967 -1.2370 -0.9925
   75MOL0     H10080   3.591   7.883  10.435  0.4666  0.9691 -1.2351
   75MOL0     H10081   3.637   7.604  10.536 -0.3846  1.1486 -0.5965
   75MOL0     H10082   3.566   7.731  10.630 -0.5755  0.3958 -0.9093
   75MOL0     H10083   3.848   7.706  10.511 -2.1902 -2.0036  0.0645
   75MOL0     H10084   3.804   7.727  10.686  2.2372  2.0052  1.0570
   75MOL0     H10085   4.039   7.774  10.637  2.6749 -0.1786 -0.0066
   75MOL0     H10086   4.242   7.872  10.670  0.5842  0.0985 -1.7244
   75MOL0     H10087   4.520   8.130  10.909 -0.5677  1.4811 -0.0031
   75MOL0     H10088   4.754   8.226  10.940  1.1042  0.5126 -0.5276
   75MOL0     H10089   5.005   8.288  10.568  0.5911  1.2975 -1.9828
   75MOL0     H10090   4.921   8.449  10.601  3.3705  2.8332 -1.0086
   75MOL0     H10091   5.167   8.471  10.614 -0.3335 -1.6166 -1.1372
   75MOL0     H10092   5.092   8.492  10.771  0.8059  0.6245 -0.8647
   75MOL0     H10093   5.157   8.258  10.826  3.0402 -1.0803  1.5217
   75MOL0     H10094   5.242   8.257  10.671 -0.1812 -0.8609  0.2092
   75MOL0     H10095   5.307   8.442  10.909  0.9386  0.7527 -0.4380
   75MOL0     H10096   5.373   8.471  10.745 -5.0611  0.6640 -1.6590
   75MOL0     H10097   5.491   8.263  10.749  1.4403 -0.2447  0.2337
   75MOL0     H10098   5.409   8.220  10.904  0.3915  0.0148  0.2009
   75MOL0     H10099   5.630   8.402  10.848  1.8447  0.3418  0.7817
   75MOL0     H10100   5.537   8.423  11.006  2.4396 -0.9194  0.5587
   75MOL0     H10101   5.658   8.157  10.913  0.6912  1.5473 -2.1142
   75MOL0     H10102   5.597   8.189  11.073 -1.0646  0.5832 -0.2593
   75MOL0     H10103   5.835   8.197  11.081  1.3826 -0.0976 -0.7948
   75MOL0     H10104   5.855   8.297  10.939  0.0689  1.1038 -0.5544
   75MOL0     H10105   4.821   8.190  10.521 -1.2950  2.5578 -0.6216
   75MOL0     H10106   4.605   8.085  10.491 -2.4922  1.3963 -0.0659
   75MOL0     H10107   4.077   8.262  10.549 -0.7614  0.2953 -0.6635
   75MOL0     H10108   3.859   8.158  10.531  0.8214  0.7420 -1.2770
   75MOL0     H10109   2.733   6.804   9.342  0.1091  0.3982  0.5540
   75MOL0     H10110   2.564   6.822   9.173  0.3906  1.6677  0.1641
   75MOL0     H10111   2.270   6.934   8.988  0.5630 -1.2752  0.3913
   75MOL0     H10112   2.109   7.055   8.833 -0.7513  0.7853  0.4079
   75MOL0     H10113   1.730   6.859   8.741  0.9504  0.2819 -0.9764
   75MOL0     H10114   1.729   6.995   8.632  1.5569  0.0200 -1.1431
   75MOL0     H10115   1.709   7.154   8.834 -0.0378 -0.7780  1.2370
   75MOL0     H10116   1.680   7.026   8.940 -1.4779  0.1654  0.5381
   75MOL0     H10117   1.459   7.094   8.888  0.9548  0.1718  0.7547
   75MOL0     H10118   1.487   6.938   8.797  3.5384 -0.5040 -2.1661
   75MOL0     H10119   1.541   7.075   8.601 -0.9634 -1.6259  0.9829
   75MOL0     H10120   1.376   7.103   8.633 -0.0122  0.9688  1.4133
   75MOL0     H10121   1.528   7.500   8.698 -0.8872 -0.0628 -0.4742
   75MOL0     H10122   1.800   6.785   8.930  0.2493 -0.4770 -1.6840
   75MOL0     H10123   1.796   6.652   9.135 -0.6827 -0.3822  0.6867
   75MOL0     H10124   1.955   6.573   9.140 -1.2981 -0.9845  1.9582
   75MOL0     H10125   1.916   6.698   9.253  3.6556  0.1466 -0.5584
   76MOL0     O10126   7.029  10.097   3.742 -0.4359  0.1079 -0.2490
   76MOL0     C10127   7.058  10.216   3.746 -0.1165 -0.2009  0.1499
   76MOL0     O10128   7.181  10.273   3.769  0.0435 -0.3511  0.1327
   76MOL0     C10129   7.294  10.203   3.788 -0.4136  0.0854  0.1424
   76MOL0     C10130   7.414  10.276   3.818 -0.3754 -0.2858 -0.0621
   76MOL0     C10131   7.536  10.217   3.846  0.6353 -0.1369 -0.0596
   76MOL0     C10132   7.553  10.083   3.840  0.3306  0.2693 -0.3206
   76MOL0     O10133   7.670  10.019   3.868  0.1474  0.2339 -0.2735
   76MOL0     C10134   7.763   9.997   3.764  0.6188  0.0296 -0.4443
   76MOL0     C10135   7.765   9.848   3.722 -0.1288 -0.6835 -0.2450
   76MOL0     C10136   7.871   9.828   3.620 -0.0883 -0.3035  0.5910
   76MOL0     C10137   7.994   9.755   3.675 -0.2660  0.0010  0.3222
   76MOL0     C10138   8.090   9.741   3.559 -0.8889  0.5151  0.1120
   76MOL0     C10139   8.220   9.674   3.601 -0.1544 -1.0597  0.4548
   76MOL0     C10140   8.325   9.631   3.492  0.0986  0.1904 -0.0015
   76MOL0     C10141   8.453   9.578   3.558 -0.6264 -0.0423  0.3473
   76MOL0     N10142   8.561   9.677   3.561  0.1718 -0.4403  0.0022
   76MOL0     C10143   8.593   9.746   3.678  0.2957 -0.3814  0.3624
   76MOL0     C10144   8.718   9.805   3.646 -1.0548  0.5455 -0.9022
   76MOL0     C10145   8.793   9.889   3.749  0.9594 -0.1703 -0.1158
   76MOL0     C10146   8.931   9.931   3.704  0.8017  0.2697 -0.7845
   76MOL0     C10147   9.023   9.962   3.821 -0.2925  0.3960  0.0790
   76MOL0     C10148   8.985  10.101   3.880 -0.1907  0.4495 -0.9027
   76MOL0     O10149   9.036  10.217   3.808 -0.5253 -0.0744 -0.3300
   76MOL0     C10150   9.166  10.255   3.843  0.0802 -0.1223 -0.0038
   76MOL0     C10151   9.218  10.382   3.802  0.1807 -0.3452 -0.7131
   76MOL0     C10152   9.349  10.425   3.834  0.3555  0.0232  0.0567
   76MOL0     C10153   9.426  10.356   3.922  0.2203 -0.1295 -0.2394
   76MOL0     C10154   9.551  10.404   3.970  0.1229 -0.0730  0.8815
   76MOL0     O10155   9.597  10.518   3.907  0.1347  0.0132  0.3969
   76MOL0     C10156   9.717  10.563   3.944 -0.4309 -0.2613  0.5285
   76MOL0     C10157   9.745  10.607   4.075  0.4039  0.8133  0.1693
   76MOL0     C10158   9.861  10.685   4.094  0.0203  0.9028 -1.2362
   76MOL0     C10159   9.954  10.707   3.998 -0.5071 -0.2245  0.7680
   76MOL0     O10160  10.068  10.774   4.033 -0.4019 -0.5064 -0.3479
   76MOL0     C10161  10.160  10.789   3.929 -0.5330  0.6789  0.0505
   76MOL0     C10162  10.288  10.858   3.975  0.7776 -0.3564  0.3226
   76MOL0     C10163  10.383  10.906   3.851  1.3859  0.3252 -0.7937
   76MOL0     C10164  10.493  10.986   3.921 -0.6354  0.1373  0.0734
   76MOL0     C10165  10.580  11.075   3.822  0.0850  0.0325 -0.4663
   76MOL0     C10166  10.696  11.141   3.901 -0.7155 -0.1827 -0.8533
   76MOL0     C10167  10.772  11.229   3.816  0.0602 -0.7259 -0.2636
   76MOL0     C10168  10.796  11.371   3.875 -0.0794 -0.3023  0.5808
   76MOL0    Cl10169  10.842  11.472   3.745 -0.3138  0.0588  0.1236
   76MOL0     C10170   9.916  10.681   3.860  0.3956 -0.5746 -0.0336
   76MOL0     C10171   9.798  10.608   3.837  0.2753 -0.4954 -0.1368
   76MOL0     O10172   9.613  10.337   4.056  0.0983  0.2386 -0.3353
   76MOL0     C10173   9.380  10.234   3.970 -1.0399  0.1358 -0.6052
   76MOL0     C10174   9.251  10.182   3.933  0.0086 -0.1382  0.5041
   76MOL0     N10175   8.755   9.768   3.521 -0.4227 -0.1497  0.7702
   76MOL0     N10176   8.668   9.691   3.474 -0.5010  0.1465 -0.3912
   76MOL0     C10177   7.440  10.009   3.809 -0.6825  0.4348  0.1603
   76MOL0     C10178   7.318  10.062   3.779  0.3225  0.4562 -0.3241
   76MOL0     C10179   6.944  10.310   3.740 -0.0861 -0.6488  0.7407
   76MOL0     C10180   6.811  10.248   3.765  0.3738  0.5885 -0.1514
   76MOL0     C10181   6.697  10.328   3.763  1.0896  0.4165  0.1240
   76MOL0     C10182   6.704  10.464   3.740 -0.2365 -0.3958  0.2204
   76MOL0     O10183   6.588  10.545   3.720  0.1994  0.2667  0.2726
   76MOL0     C10184   6.484  10.482   3.640 -0.0390  0.7413  0.5428
   76MOL0     C10185   6.378  10.576   3.589 -0.5324  0.5745  0.1122
   76MOL0     C10186   6.276  10.517   3.479 -0.7080  0.2836  0.1337
   76MOL0     C10187   6.145  10.587   3.473  1.0007 -1.2511  0.2330
   76MOL0     C10188   6.054  10.537   3.368 -0.1058  1.5180  0.1583
   76MOL0     C10189   5.977  10.493   3.280 -0.1880  0.8486  0.3796
   76MOL0     C10190   6.829  10.527   3.723 -0.7530  0.6617  0.4868
   76MOL0     C10191   6.944  10.448   3.722 -0.2070  0.2222 -0.1585
   76MOL0     C10192   7.079  10.523   3.701 -0.4995  0.6152  0.3791
   76MOL0     H10193   7.407  10.384   3.825  2.0128 -0.1481  1.6594
   76MOL0     H10194   7.618  10.277   3.883  0.2224  1.3060 -1.3910
   76MOL0     H10195   7.745  10.061   3.677 -0.1916  0.1044 -0.2372
   76MOL0     H10196   7.860  10.009   3.812 -0.0108 -1.1860  1.2501
   76MOL0     H10197   7.670   9.827   3.672 -1.4591 -2.0937  2.6254
   76MOL0     H10198   7.766   9.781   3.809 -1.7911 -1.4533 -0.7799
   76MOL0     H10199   7.898   9.921   3.571 -0.4239 -1.7126 -2.5224
   76MOL0     H10200   7.821   9.767   3.544 -0.9950  1.4008 -0.2264
   76MOL0     H10201   8.046   9.802   3.759 -0.4330 -2.5141  1.9280
   76MOL0     H10202   7.962   9.656   3.708  0.7421  0.1148  1.7495
   76MOL0     H10203   8.050   9.686   3.473  1.1827  0.7426 -1.0798
   76MOL0     H10204   8.116   9.841   3.522 -0.3472  0.9242  1.5620
   76MOL0     H10205   8.275   9.736   3.673  3.7716  0.4524 -3.4594
   76MOL0     H10206   8.192   9.579   3.648  2.1218 -1.8670  0.2966
   76MOL0     H10207   8.369   9.716   3.438  1.4992 -1.4223 -1.5321
   76MOL0     H10208   8.293   9.564   3.412  1.8880  1.7560 -2.1575
   76MOL0     H10209   8.432   9.544   3.660 -0.9944 -4.1043 -0.9080
   76MOL0     H10210   8.499   9.500   3.496  1.8249  3.4985 -2.7527
   76MOL0     H10211   8.543   9.743   3.774 -0.4982  2.3446  0.0973
   76MOL0     H10212   8.731   9.975   3.779 -0.6323 -2.0343  2.3184
   76MOL0     H10213   8.799   9.826   3.838 -2.4971  0.2153  0.5129
   76MOL0     H10214   8.983   9.855   3.645  0.7839 -1.2025  1.0016
   76MOL0     H10215   8.903  10.018   3.644 -0.7734 -0.6354 -1.4327
   76MOL0     H10216   9.125   9.961   3.781  0.4309 -0.9719  1.7936
   76MOL0     H10217   9.021   9.883   3.897 -2.1538  1.9241  1.7389
   76MOL0     H10218   9.020  10.096   3.984  0.3228 -0.5172 -1.1059
   76MOL0     H10219   8.877  10.114   3.884 -0.0092  1.8732 -0.1995
   76MOL0     H10220   9.155  10.440   3.736  1.9056 -0.4222 -2.5101
   76MOL0     H10221   9.375  10.524   3.798 -0.3408  0.4297  0.6494
   76MOL0     H10222   9.681  10.570   4.155  2.9668 -1.5768  1.2931
   76MOL0     H10223   9.880  10.720   4.196 -0.3861  0.0478 -0.8577
   76MOL0     H10224  10.187  10.691   3.890  0.3176  0.7374  0.4659
   76MOL0     H10225  10.110  10.842   3.847  0.7661  0.3658 -0.9800
   76MOL0     H10226  10.258  10.947   4.032 -1.1418 -1.0868  0.5037
   76MOL0     H10227  10.336  10.783   4.038  0.1552 -1.3929 -0.4185
   76MOL0     H10228  10.418  10.816   3.799  0.5011 -0.1213 -0.6215
   76MOL0     H10229  10.332  10.977   3.785 -0.0652 -0.0090 -0.0605
   76MOL0     H10230  10.558  10.915   3.973  1.7780  0.4193 -2.3411
   76MOL0     H10231  10.445  11.062   3.984 -0.3478  1.4508 -1.2434
   76MOL0     H10232  10.518  11.155   3.782 -0.9290  0.2448  1.3875
   76MOL0     H10233  10.632  11.013   3.749 -0.3644  0.2532 -0.9759
   76MOL0     H10234  10.660  11.191   3.992 -2.6528  0.4446 -1.9127
   76MOL0     H10235  10.762  11.064   3.942  0.3130  0.8834 -0.4503
   76MOL0     H10236  10.709  11.258   3.731  0.2741  0.8980  0.0872
   76MOL0     H10237  10.861  11.182   3.774 -0.7409 -1.3245 -1.3363
   76MOL0     H10238  10.707  11.413   3.922 -0.4600  2.4839 -2.2398
   76MOL0     H10239  10.870  11.360   3.955 -0.4803 -1.8169  0.7694
   76MOL0     H10240   9.967  10.724   3.775 -0.4713 -0.3797 -0.4682
   76MOL0     H10241   9.779  10.583   3.733  2.0550 -1.2551 -0.3095
   76MOL0     H10242   9.437  10.173   4.038 -3.6892  0.6909  2.3461
   76MOL0     H10243   9.239  10.081   3.968  3.0860 -1.3340 -1.4626
   76MOL0     H10244   7.458   9.902   3.797  0.3963  0.3111  2.3713
   76MOL0     H10245   7.241   9.995   3.744  0.4764  1.2912 -2.3897
   76MOL0     H10246   6.799  10.143   3.788  1.2770  0.6410  0.6264
   76MOL0     H10247   6.596  10.288   3.775 -0.2893  3.5391 -0.1814
   76MOL0     H10248   6.437  10.401   3.696  0.2826  0.5055  0.4745
   76MOL0     H10249   6.532  10.437   3.553 -0.5265  0.3942  0.4542
   76MOL0     H10250   6.435  10.660   3.548 -0.4373  0.4721  0.0361
   76MOL0     H10251   6.329  10.620   3.677  1.5708 -1.8277  2.6554
   76MOL0     H10252   6.260  10.415   3.513  1.3634 -1.1200 -2.6882
   76MOL0     H10253   6.329  10.522   3.384  0.3070 -0.0666  0.6614
   76MOL0     H10254   6.084  10.573   3.563  1.3145 -3.8937  0.1164
   76MOL0     H10255   6.158  10.695   3.463 -2.4502 -0.5517  1.8436
   76MOL0     H10256   5.911  10.453   3.206 -0.5356  1.1696  0.5091
   76MOL0     H10257   6.833  10.635   3.710  0.1504  1.1193  3.6338
   76MOL0     H10258   7.138  10.488   3.617  0.7513 -0.7407  1.7734
   76MOL0     H10259   7.062  10.631   3.693  2.3814  0.9912 -1.8373
   76MOL0     H10260   7.142  10.505   3.789  3.3466 -0.3706 -2.3522
   77MOL0     O10261   0.796   7.996   1.315  0.8351 -0.2268 -0.0062
   77MOL0     C10262   0.757   7.970   1.427 -0.6248  0.4851 -0.6155
   77MOL0     O10263   0.846   7.970   1.541  0.4043 -0.1126 -0.6962
   77MOL0     C10264   0.962   8.035   1.523  0.7334 -0.0612 -0.0399
   77MOL0     C10265   0.964   8.170   1.528 -0.1426  0.2557 -0.1196
   77MOL0     C10266   1.087   8.238   1.537  0.1457 -0.0023  0.2335
   77MOL0     C10267   1.207   8.171   1.503  0.0495 -0.1404 -0.1830
   77MOL0     O10268   1.328   8.239   1.488  0.4509 -0.1978  0.4849
   77MOL0     C10269   1.340   8.381   1.516 -0.5503  0.5414  0.0058
   77MOL0     C10270   1.492   8.409   1.494  0.4969  0.0844 -0.9556
   77MOL0     C10271   1.586   8.307   1.578  0.9798  0.5652  0.4163
   77MOL0     C10272   1.721   8.331   1.534 -0.5028 -0.6697  0.4386
   77MOL0     C10273   1.755   8.260   1.397  0.2759  0.3086 -0.4053
   77MOL0     C10274   1.864   8.337   1.321 -0.7746  0.2644 -0.0366
   77MOL0     C10275   2.005   8.323   1.386  0.9625 -1.2610  0.3623
   77MOL0     C10276   2.117   8.407   1.294  0.1713 -0.1071 -0.4247
   77MOL0     N10277   2.239   8.436   1.369  1.1848  0.8531  0.6952
   77MOL0     C10278   2.364   8.394   1.339 -0.2019 -0.3614 -0.1317
   77MOL0     C10279   2.443   8.474   1.415  0.5679 -0.3364 -0.1726
   77MOL0     C10280   2.593   8.449   1.431  0.2363 -0.0548 -0.2784
   77MOL0     C10281   2.655   8.590   1.461  0.1355 -0.3322 -0.0103
   77MOL0     C10282   2.661   8.612   1.611 -0.1845 -0.0057  0.6411
   77MOL0     C10283   2.738   8.502   1.684  0.0693 -0.7237  0.7506
   77MOL0     O10284   2.835   8.571   1.760  0.0157 -0.2928 -0.3868
   77MOL0     C10285   2.959   8.594   1.708  0.6039  0.3859 -0.7574
   77MOL0     C10286   2.995   8.688   1.610 -0.1909  0.0272 -0.7882
   77MOL0     C10287   3.130   8.711   1.566  0.7917 -0.9490  0.2750
   77MOL0     C10288   3.239   8.648   1.637  0.3760  0.1516 -0.1388
   77MOL0     C10289   3.375   8.687   1.607 -0.3514 -0.0232 -1.0347
   77MOL0     O10290   3.403   8.808   1.542 -0.2229 -0.1413 -0.6062
   77MOL0     C10291   3.532   8.831   1.496  0.6760 -0.7510 -0.0190
   77MOL0     C10292   3.547   8.840   1.357  0.2859  0.7153  0.4198
   77MOL0     C10293   3.665   8.865   1.296 -1.0442  0.1748 -0.8813
   77MOL0     C10294   3.776   8.879   1.383 -0.2906  0.7558  0.0547
   77MOL0     O10295   3.901   8.925   1.343 -0.5882 -0.2103 -0.1139
   77MOL0     C10296   3.902   9.001   1.220 -0.4549 -0.2452  0.1573
   77MOL0     C10297   4.050   9.048   1.215 -0.5786  0.1996 -0.5800
   77MOL0     C10298   4.107   9.141   1.323  0.0458 -0.3473 -0.1291
   77MOL0     C10299   4.262   9.126   1.327  0.8727 -0.5240 -0.2743
   77MOL0     C10300   4.316   9.179   1.192 -0.4257 -0.8501 -1.0637
   77MOL0     C10301   4.469   9.217   1.211 -0.2462 -0.7009 -0.2009
   77MOL0     C10302   4.533   9.264   1.084  0.1284  0.1847  0.1869
   77MOL0     C10303   4.683   9.268   1.080 -0.1076  0.0038 -0.8136
   77MOL0    Cl10304   4.753   9.276   0.910 -0.2301  0.3674  0.1599
   77MOL0     C10305   3.767   8.874   1.519 -0.3610  0.3952 -0.5203
   77MOL0     C10306   3.641   8.857   1.579 -0.3815 -0.0730 -0.6221
   77MOL0     O10307   3.459   8.606   1.638  1.0296  0.5431 -0.1269
   77MOL0     C10308   3.200   8.560   1.734 -0.5684 -0.6633 -0.8828
   77MOL0     C10309   3.071   8.532   1.767  0.0969  1.3310 -0.6371
   77MOL0     N10310   2.355   8.542   1.509 -0.0528  0.1248 -0.4343
   77MOL0     N10311   2.237   8.519   1.471  0.5683  0.3275 -0.5996
   77MOL0     C10312   1.198   8.034   1.493 -0.1244 -0.1270 -0.8785
   77MOL0     C10313   1.082   7.964   1.504  0.5556  1.0518  0.1568
   77MOL0     C10314   0.623   7.910   1.457 -0.1101  0.0325  0.2008
   77MOL0     C10315   0.591   7.863   1.586  0.5773 -0.2087  0.4148
   77MOL0     C10316   0.466   7.813   1.619 -0.2546 -0.4138 -0.1480
   77MOL0     C10317   0.360   7.823   1.531  0.0441 -0.2812 -0.1622
   77MOL0     O10318   0.227   7.811   1.561 -0.1570 -0.1086 -0.1241
   77MOL0     C10319   0.194   7.682   1.620 -0.6921  0.5318  0.3632
   77MOL0     C10320   0.140   7.703   1.754 -0.4065 -0.9983  0.0528
   77MOL0     C10321   0.079   7.572   1.813  0.3466  1.0024 -0.3992
   77MOL0     C10322   0.171   7.447   1.810 -0.3455  0.4307 -0.0144
   77MOL0     C10323   0.106   7.341   1.897 -0.3977 -0.4869 -1.0779
   77MOL0     C10324   0.059   7.264   1.976  0.3894 -0.2667 -0.2315
   77MOL0     C10325   0.391   7.859   1.402 -0.2019 -0.5246 -0.2095
   77MOL0     C10326   0.523   7.895   1.362 -0.1281 -0.8086 -0.2268
   77MOL0     C10327   0.547   7.920   1.213  0.8601  0.0953  0.4673
   77MOL0     H10328   0.875   8.226   1.550 -1.1061  0.1318 -3.2037
   77MOL0     H10329   1.086   8.343   1.564  0.5646  0.2241 -0.5765
   77MOL0     H10330   1.276   8.448   1.457 -2.1616  1.1106  2.3008
   77MOL0     H10331   1.315   8.402   1.620 -1.8114 -0.8996  0.0164
   77MOL0     H10332   1.528   8.506   1.530  0.8812 -0.0700 -0.9129
   77MOL0     H10333   1.508   8.408   1.386 -1.7736  1.0902 -1.3512
   77MOL0     H10334   1.550   8.204   1.567  1.5413  0.5347 -1.4900
   77MOL0     H10335   1.591   8.340   1.682  1.7828 -2.2951  1.3777
   77MOL0     H10336   1.735   8.439   1.521  2.0776 -1.1439 -1.6654
   77MOL0     H10337   1.793   8.302   1.611 -0.3184 -3.1357 -0.5751
   77MOL0     H10338   1.795   8.162   1.422 -1.5255 -0.2409  0.4447
   77MOL0     H10339   1.662   8.246   1.341  0.2852 -1.0095 -0.1153
   77MOL0     H10340   1.876   8.302   1.218 -1.4444  0.2214 -0.1014
   77MOL0     H10341   1.842   8.444   1.321  0.6515  0.6206 -1.8671
   77MOL0     H10342   2.023   8.217   1.409  0.1828 -1.3992  0.3846
   77MOL0     H10343   2.006   8.370   1.485  1.0813  3.1381 -1.5116
   77MOL0     H10344   2.142   8.344   1.208 -0.4634  2.5512 -2.6965
   77MOL0     H10345   2.069   8.501   1.263 -1.9755 -0.4103  1.7007
   77MOL0     H10346   2.397   8.323   1.263 -1.8490 -1.4497  0.1426
   77MOL0     H10347   2.605   8.376   1.511 -2.7997 -0.7098 -0.3010
   77MOL0     H10348   2.636   8.411   1.337  3.3512  0.3263  0.8803
   77MOL0     H10349   2.760   8.585   1.430  0.3397 -0.6619  0.7066
   77MOL0     H10350   2.602   8.670   1.409  0.3449  1.9365  2.9849
   77MOL0     H10351   2.558   8.601   1.649  0.2408 -0.6854  1.6351
   77MOL0     H10352   2.695   8.715   1.629  0.5332 -0.1336  0.0370
   77MOL0     H10353   2.786   8.430   1.617 -0.7081 -0.7389  0.1949
   77MOL0     H10354   2.671   8.445   1.749 -0.2435  0.7199  1.7624
   77MOL0     H10355   2.911   8.741   1.565 -1.4553 -1.0582  0.2519
   77MOL0     H10356   3.145   8.785   1.488  0.9436  1.1221  2.1588
   77MOL0     H10357   3.456   8.835   1.298  1.3847  0.1417 -1.2957
   77MOL0     H10358   3.668   8.876   1.188 -0.9627 -0.3860 -0.9384
   77MOL0     H10359   3.883   8.926   1.143  2.6621 -1.8446  0.7954
   77MOL0     H10360   3.836   9.088   1.222  1.0500  1.3771 -4.9842
   77MOL0     H10361   4.106   8.954   1.225  1.0854  1.2726  0.8253
   77MOL0     H10362   4.074   9.083   1.114 -0.5787  0.0290 -0.6401
   77MOL0     H10363   4.073   9.244   1.313  2.6378  0.6261  0.1567
   77MOL0     H10364   4.079   9.104   1.422  3.1180 -0.2642  0.9028
   77MOL0     H10365   4.284   9.019   1.333 -0.2890 -0.6935  2.9132
   77MOL0     H10366   4.299   9.185   1.411 -0.0486  1.1920 -1.0319
   77MOL0     H10367   4.268   9.272   1.158 -0.1837 -0.9372 -1.6636
   77MOL0     H10368   4.306   9.100   1.116 -1.0560 -2.0560  0.2342
   77MOL0     H10369   4.484   9.299   1.282 -0.4901  1.6551 -2.6829
   77MOL0     H10370   4.527   9.126   1.226  2.6002 -0.1348 -5.4131
   77MOL0     H10371   4.504   9.369   1.085  0.4985  0.2816  0.6652
   77MOL0     H10372   4.503   9.211   0.993  0.1417 -0.1103  0.3532
   77MOL0     H10373   4.728   9.343   1.145  0.4748 -0.8908 -0.1626
   77MOL0     H10374   4.718   9.174   1.124 -0.2571  0.9821  1.5758
   77MOL0     H10375   3.857   8.907   1.569 -0.2939  1.2794 -1.2057
   77MOL0     H10376   3.619   8.856   1.685  0.4196  1.9811 -0.4011
   77MOL0     H10377   3.283   8.540   1.802 -2.3947 -1.5149  1.2253
   77MOL0     H10378   3.036   8.471   1.850 -0.0240 -0.9760 -2.2810
   77MOL0     H10379   1.291   7.983   1.468 -0.0883 -0.3830 -0.2445
   77MOL0     H10380   1.087   7.855   1.503 -0.2936  1.0135 -0.4364
   77MOL0     H10381   0.673   7.861   1.657 -0.4509 -2.0149  1.6290
   77MOL0     H10382   0.450   7.789   1.724  1.1545  1.9307  0.6793
   77MOL0     H10383   0.273   7.607   1.616  0.8135  2.1005 -0.7990
   77MOL0     H10384   0.111   7.647   1.557  0.4231 -3.0220  0.6563
   77MOL0     H10385   0.076   7.792   1.744 -0.0030 -0.9624 -3.1789
   77MOL0     H10386   0.218   7.738   1.823 -1.5326  0.4248  0.6573
   77MOL0     H10387  -0.005   7.543   1.750 -0.0004  0.3153  0.3709
   77MOL0     H10388   0.052   7.597   1.916  1.6121  1.7463 -0.2208
   77MOL0     H10389   0.175   7.409   1.708 -2.9462  0.9755 -0.3889
   77MOL0     H10390   0.266   7.470   1.859 -1.1874  3.9243  0.2691
   77MOL0     H10391   0.009   7.197   2.043 -2.6313 -0.5553 -2.5392
   77MOL0     H10392   0.311   7.855   1.328  0.7391  2.4145 -1.5341
   77MOL0     H10393   0.642   7.893   1.167  0.4931 -0.3836 -0.0307
   77MOL0     H10394   0.473   7.868   1.150 -1.5323 -0.3335  3.3931
   77MOL0     H10395   0.506   8.020   1.199 -2.3040 -0.9540  1.3144
   78MOL0     O10396   1.023   5.830   8.532  0.1878 -0.3485  0.2077
   78MOL0     C10397   0.910   5.847   8.591  0.5125  0.3750  0.1572
   78MOL0     O10398   0.869   5.767   8.699  0.2769 -0.4838 -0.6516
   78MOL0     C10399   0.965   5.689   8.760 -0.2445 -0.1653  0.9691
   78MOL0     C10400   0.977   5.552   8.762 -0.3098  0.0383 -0.2557
   78MOL0     C10401   1.076   5.478   8.828  0.3576  0.6539  0.8036
   78MOL0     C10402   1.160   5.549   8.912  0.2946 -0.1096 -1.5673
   78MOL0     O10403   1.250   5.479   8.994 -0.0194 -0.1326 -0.2228
   78MOL0     C10404   1.266   5.342   8.995  0.6198  0.2059 -0.2751
   78MOL0     C10405   1.394   5.300   9.067 -0.3634 -0.3849  0.0920
   78MOL0     C10406   1.513   5.343   8.987  0.0366 -1.1519  0.4890
   78MOL0     C10407   1.636   5.268   9.021  0.9192 -0.0230 -0.1796
   78MOL0     C10408   1.750   5.303   8.924 -0.3611 -0.5386 -0.1756
   78MOL0     C10409   1.883   5.227   8.965  0.4069 -0.6989  0.1523
   78MOL0     C10410   2.011   5.279   8.891 -0.9081  0.5788 -0.4372
   78MOL0     C10411   2.131   5.192   8.928 -0.6573  0.6161  0.6228
   78MOL0     N10412   2.271   5.234   8.909 -0.0388 -0.2852  0.4770
   78MOL0     C10413   2.314   5.356   8.867  0.2439 -0.2630 -0.9199
   78MOL0     C10414   2.441   5.343   8.845  0.3440 -0.0111 -0.1747
   78MOL0     C10415   2.523   5.456   8.803  0.0519  0.1987  0.0070
   78MOL0     C10416   2.644   5.404   8.708 -0.3595 -0.1105 -0.1471
   78MOL0     C10417   2.735   5.515   8.674 -0.4948 -0.3650  0.3204
   78MOL0     C10418   2.833   5.473   8.567 -0.5876 -0.0577 -0.2337
   78MOL0     O10419   2.918   5.363   8.614  0.2388  0.3074 -0.2964
   78MOL0     C10420   3.031   5.378   8.695 -0.7427 -0.4357  0.2843
   78MOL0     C10421   3.117   5.267   8.696 -0.0236  0.2528 -0.4098
   78MOL0     C10422   3.234   5.271   8.774 -0.0408  0.6052 -0.1576
   78MOL0     C10423   3.263   5.379   8.858  0.0899  0.1141  0.4456
   78MOL0     C10424   3.389   5.365   8.938  1.1632  0.0931  0.6234
   78MOL0     O10425   3.443   5.243   8.956 -1.3940  0.1675 -0.5199
   78MOL0     C10426   3.558   5.231   9.037  0.4534  0.4992  0.6331
   78MOL0     C10427   3.683   5.286   9.005 -1.3267 -0.2159 -0.1619
   78MOL0     C10428   3.789   5.282   9.098 -0.5009  0.1698 -0.2237
   78MOL0     C10429   3.772   5.219   9.218 -0.3642 -0.0093  0.4219
   78MOL0     O10430   3.878   5.215   9.302  0.5655 -0.3873  0.1145
   78MOL0     C10431   3.856   5.186   9.440 -0.4825 -0.8610 -0.2124
   78MOL0     C10432   3.987   5.238   9.506 -0.5586  0.4821  0.2095
   78MOL0     C10433   4.002   5.217   9.658  0.4240  0.3656 -0.4525
   78MOL0     C10434   4.117   5.285   9.739 -0.5227 -0.5362  1.0931
   78MOL0     C10435   4.072   5.340   9.877  0.0520 -0.8326 -0.5632
   78MOL0     C10436   3.971   5.457   9.866  0.3315 -0.8325  0.3245
   78MOL0     C10437   3.918   5.503   9.999  0.5649  0.2657 -0.7048
   78MOL0     C10438   3.783   5.579   9.993 -0.1523  0.1110 -0.0339
   78MOL0    Cl10439   3.658   5.469   9.911  0.2080  0.1123 -0.0375
   78MOL0     C10440   3.645   5.164   9.250  0.1610 -0.0944 -0.2548
   78MOL0     C10441   3.543   5.174   9.160 -0.2249 -0.4253 -0.6064
   78MOL0     O10442   3.425   5.466   8.989 -0.0666 -0.4700  0.2557
   78MOL0     C10443   3.178   5.493   8.854 -0.6821  0.3346  0.6354
   78MOL0     C10444   3.057   5.496   8.774  1.1099  0.9048 -0.5573
   78MOL0     N10445   2.480   5.222   8.885  0.6658 -0.4720 -0.5831
   78MOL0     N10446   2.380   5.151   8.919  0.3507 -0.5216  0.0576
   78MOL0     C10447   1.156   5.689   8.914  0.0257  0.1865 -0.9041
   78MOL0     C10448   1.063   5.756   8.839 -0.6916  0.5577  0.8123
   78MOL0     C10449   0.809   5.938   8.533  0.1814 -0.4405 -0.6668
   78MOL0     C10450   0.678   5.920   8.578  0.1329 -0.1757  0.2875
   78MOL0     C10451   0.581   6.011   8.527  0.9499  0.2588  0.0649
   78MOL0     C10452   0.613   6.116   8.446  0.4961  0.1617  0.9713
   78MOL0     O10453   0.528   6.202   8.380 -0.4223  0.3955  0.0398
   78MOL0     C10454   0.384   6.187   8.418  0.2274  0.1010 -0.2107
   78MOL0     C10455   0.290   6.291   8.353  0.9635 -0.1565  0.2960
   78MOL0     C10456   0.152   6.235   8.385  0.1197  0.0031 -0.1926
   78MOL0     C10457   0.035   6.335   8.371  0.6316 -0.2116  1.0357
   78MOL0     C10458   0.006   6.369   8.232 -0.0578 -0.3483  0.0627
   78MOL0     C10459  -0.003   6.393   8.112 -0.0541 -0.6397  0.4110
   78MOL0     C10460   0.740   6.138   8.418 -0.6484 -0.0465  0.4328
   78MOL0     C10461   0.846   6.055   8.452  0.8235  0.6107 -0.5094
   78MOL0     C10462   0.979   6.103   8.432 -0.6338  0.7070 -0.8127
   78MOL0     H10463   0.914   5.503   8.688 -0.2814 -0.1512 -0.1557
   78MOL0     H10464   1.092   5.372   8.811 -0.4377  0.1121  3.0175
   78MOL0     H10465   1.172   5.308   9.039  0.5560  1.2146  0.3954
   78MOL0     H10466   1.281   5.310   8.891  2.4658  0.2669 -0.0640
   78MOL0     H10467   1.400   5.191   9.070 -0.0943 -0.3751 -0.1060
   78MOL0     H10468   1.398   5.326   9.173 -2.7569 -0.6032  0.2840
   78MOL0     H10469   1.541   5.447   9.003  0.2781 -1.2099  0.4454
   78MOL0     H10470   1.493   5.332   8.880  1.0047 -0.0985  0.1790
   78MOL0     H10471   1.667   5.313   9.116  2.8777 -0.7646 -0.4176
   78MOL0     H10472   1.622   5.161   9.035 -0.0932 -0.0271 -1.0967
   78MOL0     H10473   1.724   5.280   8.820  3.4420  2.1510 -1.9216
   78MOL0     H10474   1.758   5.412   8.934 -2.7005 -0.3775  0.6062
   78MOL0     H10475   1.904   5.236   9.072 -1.6654  0.1111  0.5398
   78MOL0     H10476   1.860   5.121   8.949  0.1031 -0.7304  0.7556
   78MOL0     H10477   2.032   5.381   8.924  2.0317 -0.3646  0.9236
   78MOL0     H10478   1.997   5.275   8.782 -0.2601  2.1450 -0.5984
   78MOL0     H10479   2.124   5.176   9.036 -0.2755  2.0115  0.8681
   78MOL0     H10480   2.119   5.093   8.883 -3.4233  0.4983  1.4682
   78MOL0     H10481   2.249   5.440   8.847  2.1167  1.4595 -0.1457
   78MOL0     H10482   2.463   5.536   8.759  0.7994 -0.0811 -1.6126
   78MOL0     H10483   2.561   5.502   8.895 -0.2094  4.1955 -1.7011
   78MOL0     H10484   2.704   5.323   8.752 -0.1907  0.1520  0.1036
   78MOL0     H10485   2.604   5.364   8.614  0.2430  1.3029 -1.0315
   78MOL0     H10486   2.798   5.540   8.760  1.8710 -0.6830 -1.2354
   78MOL0     H10487   2.680   5.599   8.632  0.5529 -0.1578 -0.6774
   78MOL0     H10488   2.902   5.554   8.540  0.9179 -1.3439 -0.3736
   78MOL0     H10489   2.781   5.447   8.474 -1.3408  0.4583  0.0347
   78MOL0     H10490   3.108   5.174   8.642 -2.1037  0.8875 -1.2796
   78MOL0     H10491   3.296   5.183   8.780 -2.0537 -0.8033  1.2293
   78MOL0     H10492   3.687   5.329   8.905 -1.1734  3.7989  1.3910
   78MOL0     H10493   3.881   5.334   9.072 -1.6801  1.5067 -1.9995
   78MOL0     H10494   3.774   5.252   9.471  0.6609  0.2871  0.5120
   78MOL0     H10495   3.829   5.084   9.467  0.0567 -0.2399  3.2753
   78MOL0     H10496   4.071   5.196   9.450 -0.3941  0.1890  0.6724
   78MOL0     H10497   4.008   5.345   9.493  2.4675  0.4079  3.2878
   78MOL0     H10498   3.906   5.241   9.705 -0.0625 -0.0273 -1.2184
   78MOL0     H10499   4.010   5.112   9.684 -1.5725  0.4776  0.8247
   78MOL0     H10500   4.165   5.364   9.680 -0.7617 -0.1076  1.4590
   78MOL0     H10501   4.199   5.216   9.760 -0.8024 -1.3717 -0.4622
   78MOL0     H10502   4.157   5.365   9.941 -0.1853 -0.6731 -0.3042
   78MOL0     H10503   4.019   5.258   9.927 -0.3057 -0.8048 -0.8947
   78MOL0     H10504   4.016   5.546   9.822  0.9956  0.0637  2.6600
   78MOL0     H10505   3.884   5.424   9.808 -0.7222 -0.4190  1.6238
   78MOL0     H10506   3.990   5.575  10.038  0.5819 -0.4550  0.6577
   78MOL0     H10507   3.920   5.423  10.073 -5.6251 -0.4882 -0.8311
   78MOL0     H10508   3.740   5.614  10.087 -0.6894  0.6325 -0.4574
   78MOL0     H10509   3.797   5.676   9.943 -0.7277  0.4882  0.5086
   78MOL0     H10510   3.619   5.137   9.352 -1.6547 -0.0890 -0.6796
   78MOL0     H10511   3.450   5.122   9.183 -0.5771  0.3246 -0.2990
   78MOL0     H10512   3.207   5.573   8.921 -1.7033  0.2465  1.2060
   78MOL0     H10513   3.007   5.592   8.769  0.5920  0.5892 -1.9963
   78MOL0     H10514   1.234   5.747   8.964  1.0709 -1.2452 -0.8300
   78MOL0     H10515   1.060   5.864   8.843  1.7379  0.7992 -1.4123
   78MOL0     H10516   0.649   5.833   8.637  0.6543 -1.1509 -0.8408
   78MOL0     H10517   0.475   5.999   8.544  0.5540  1.2384 -1.4585
   78MOL0     H10518   0.373   6.186   8.527 -0.4479  0.5976 -0.2584
   78MOL0     H10519   0.353   6.091   8.377 -0.9844  0.3364  0.0973
   78MOL0     H10520   0.314   6.303   8.247  0.5146  1.6186  0.3607
   78MOL0     H10521   0.292   6.390   8.401 -1.2857  0.9941 -1.7573
   78MOL0     H10522   0.158   6.212   8.491 -1.1593  1.3057  0.1876
   78MOL0     H10523   0.127   6.140   8.337 -1.7648 -0.3220  1.2963
   78MOL0     H10524  -0.059   6.294   8.409 -0.6753  0.7567 -1.0195
   78MOL0     H10525   0.054   6.427   8.428  0.5644 -0.2861  1.1792
   78MOL0     H10526   0.010   6.418   8.009  2.2833 -1.5792  0.4086
   78MOL0     H10527   0.766   6.211   8.342  3.1606 -3.4001 -1.8599
   78MOL0     H10528   0.985   6.203   8.387 -1.2810  1.0809 -0.1018
   78MOL0     H10529   1.029   6.108   8.529 -5.0152 -2.2316  1.9917
   78MOL0     H10530   1.032   6.033   8.368 -1.8063 -0.4931 -0.5210
   79MOL0     O10531   2.907   7.845   8.992 -0.0511 -0.2758 -0.6315
   79MOL0     C10532   2.881   7.724   9.005  0.2557 -0.6143 -0.6978
   79MOL0     O10533   2.947   7.643   9.096 -0.4326 -0.0332 -0.0926
   79MOL0     C10534   3.081   7.678   9.113 -0.4570  1.3214 -0.0208
   79MOL0     C10535   3.126   7.752   9.224 -0.6173  0.6150 -0.3478
   79MOL0     C10536   3.260   7.773   9.244  0.4723 -0.0881 -0.0733
   79MOL0     C10537   3.357   7.729   9.150  0.6156 -0.3744  0.2133
   79MOL0     O10538   3.491   7.767   9.175 -0.0869 -0.2557  0.3283
   79MOL0     C10539   3.595   7.741   9.079 -0.0435  0.2101 -0.9379
   79MOL0     C10540   3.732   7.705   9.150  0.2250 -0.0982  0.9994
   79MOL0     C10541   3.812   7.825   9.181  0.4342  0.3279  0.3203
   79MOL0     C10542   3.939   7.793   9.267 -0.0540  0.2237 -0.6399
   79MOL0     C10543   4.015   7.916   9.310  0.3796  0.3458  0.9963
   79MOL0     C10544   4.144   7.876   9.382 -0.5732 -0.8795  0.3770
   79MOL0     C10545   4.222   8.012   9.388 -0.5029  0.5109 -1.0421
   79MOL0     C10546   4.347   7.992   9.481  0.2574 -0.4632  0.5787
   79MOL0     N10547   4.428   7.877   9.445 -0.1536 -0.3151 -0.2174
   79MOL0     C10548   4.535   7.833   9.520 -1.3086 -0.2133 -0.5486
   79MOL0     C10549   4.622   7.780   9.433  0.1293 -0.3431  0.2206
   79MOL0     C10550   4.759   7.736   9.450  0.1606  0.4081 -0.1851
   79MOL0     C10551   4.865   7.842   9.396  1.1854  1.0703 -0.0194
   79MOL0     C10552   4.865   7.971   9.472 -0.2411  0.7779 -0.4197
   79MOL0     C10553   4.925   8.086   9.394 -0.0180  0.2196  0.1157
   79MOL0     O10554   5.066   8.066   9.375 -0.3239 -0.4884  0.0629
   79MOL0     C10555   5.151   8.165   9.334  0.3180 -0.3670  0.3666
   79MOL0     C10556   5.124   8.287   9.282 -0.5319 -0.3015  0.5370
   79MOL0     C10557   5.226   8.375   9.251 -0.0153  0.0960  0.0799
   79MOL0     C10558   5.360   8.335   9.250 -0.0888 -1.2968 -0.8437
   79MOL0     C10559   5.471   8.420   9.194  0.5347  0.4680 -0.3424
   79MOL0     O10560   5.589   8.361   9.153  0.1332  0.5428  0.4735
   79MOL0     C10561   5.695   8.421   9.094 -0.0660  0.9712  0.9607
   79MOL0     C10562   5.676   8.507   8.982  0.8952  0.2738  0.8820
   79MOL0     C10563   5.778   8.561   8.912 -0.8634  0.0708 -0.1734
   79MOL0     C10564   5.906   8.522   8.939 -0.8936  0.1502  0.2141
   79MOL0     O10565   6.006   8.594   8.875  0.3233  0.5651 -0.9139
   79MOL0     C10566   6.133   8.586   8.934  0.5548 -0.0137 -0.2987
   79MOL0     C10567   6.214   8.678   8.847  0.1506 -0.3409 -0.0547
   79MOL0     C10568   6.362   8.650   8.870  0.1235 -0.4126 -0.9264
   79MOL0     C10569   6.436   8.723   8.980  0.9076  0.4196 -0.3599
   79MOL0     C10570   6.585   8.723   8.941  0.4151 -0.4973  0.2113
   79MOL0     C10571   6.682   8.775   9.055 -0.5132  0.2249 -0.0803
   79MOL0     C10572   6.829   8.776   9.002  0.2077  0.1054  0.1451
   79MOL0     C10573   6.910   8.870   9.091  0.0470  0.4021  0.1947
   79MOL0    Cl10574   7.070   8.912   9.026  0.0242  0.1741  0.3925
   79MOL0     C10575   5.932   8.419   9.032 -0.8402 -0.3319  0.0695
   79MOL0     C10576   5.828   8.387   9.115  1.3725  0.2584 -0.0224
   79MOL0     O10577   5.440   8.535   9.177  0.1726  0.0018  0.2821
   79MOL0     C10578   5.385   8.204   9.287  0.2325  0.0802  0.5048
   79MOL0     C10579   5.286   8.123   9.334 -0.0349 -1.1169  0.8703
   79MOL0     N10580   4.564   7.790   9.312  0.0645  0.5442 -0.9310
   79MOL0     N10581   4.451   7.848   9.313  0.3008  0.8150 -0.8163
   79MOL0     C10582   3.314   7.656   9.038  0.3286 -0.3089  0.9922
   79MOL0     C10583   3.179   7.632   9.022 -0.3446 -1.1987  0.2829
   79MOL0     C10584   2.764   7.663   8.933  0.6689 -0.1503  0.6277
   79MOL0     C10585   2.749   7.522   8.926 -0.4290  1.1152  0.9106
   79MOL0     C10586   2.660   7.455   8.836 -0.6673 -0.1203 -1.0624
   79MOL0     C10587   2.573   7.536   8.757 -0.2715  0.0222 -0.4789
   79MOL0     O10588   2.478   7.475   8.685 -0.3385  0.5239 -0.3745
   79MOL0     C10589   2.520   7.405   8.568  0.5346 -0.8193 -0.0049
   79MOL0     C10590   2.572   7.491   8.452  0.1465  0.0736 -0.1970
   79MOL0     C10591   2.449   7.537   8.364  0.0372  0.2224 -0.1700
   79MOL0     C10592   2.381   7.663   8.413 -0.6437  0.0302  0.1751
   79MOL0     C10593   2.257   7.695   8.341  0.7127 -0.5225 -0.4282
   79MOL0     C10594   2.158   7.709   8.270 -0.2519  0.2069  0.3750
   79MOL0     C10595   2.578   7.672   8.769  0.4332 -0.1158  0.0153
   79MOL0     C10596   2.664   7.738   8.856 -0.2807 -1.1096  0.2997
   79MOL0     C10597   2.659   7.896   8.855  0.2911 -0.4132 -0.7640
   79MOL0     H10598   3.059   7.789   9.301 -1.2903  1.1867 -1.1841
   79MOL0     H10599   3.297   7.822   9.333  3.5079 -2.1023 -0.0756
   79MOL0     H10600   3.567   7.642   9.040  1.1620 -1.6223  2.3909
   79MOL0     H10601   3.614   7.817   9.003  2.7433 -1.4694 -2.0988
   79MOL0     H10602   3.787   7.632   9.090 -1.5001 -1.0758  0.5394
   79MOL0     H10603   3.708   7.659   9.247 -0.5084  0.7123  1.2181
   79MOL0     H10604   3.746   7.897   9.231 -0.7652  1.1254 -2.2103
   79MOL0     H10605   3.830   7.866   9.081  0.5838 -1.3277 -0.3647
   79MOL0     H10606   3.907   7.742   9.359  1.2626  4.1757  2.2786
   79MOL0     H10607   4.000   7.725   9.205 -1.3695 -2.1858  0.5484
   79MOL0     H10608   4.043   7.978   9.224 -2.7895 -2.0168 -1.9981
   79MOL0     H10609   3.951   7.983   9.368  0.0638  0.2927  0.7144
   79MOL0     H10610   4.124   7.840   9.484 -0.4698  1.7818  1.4329
   79MOL0     H10611   4.195   7.799   9.324 -1.9877  0.9877 -3.7218
   79MOL0     H10612   4.161   8.089   9.437 -1.0635 -0.7920  0.3882
   79MOL0     H10613   4.255   8.055   9.293 -3.7393  2.4165 -1.4388
   79MOL0     H10614   4.410   8.081   9.483 -0.8564  0.3382  1.7358
   79MOL0     H10615   4.310   7.986   9.584 -0.8369 -0.1716  0.2082
   79MOL0     H10616   4.550   7.846   9.627  1.5298 -1.5389 -0.6891
   79MOL0     H10617   4.778   7.699   9.551 -1.5576 -1.3182 -0.4310
   79MOL0     H10618   4.760   7.648   9.385 -2.1291 -1.4470  2.0898
   79MOL0     H10619   4.961   7.790   9.392  0.1449 -1.0455  0.6218
   79MOL0     H10620   4.838   7.867   9.293 -1.4956  1.4859  0.7058
   79MOL0     H10621   4.923   7.959   9.564 -0.4386  1.8001 -0.1482
   79MOL0     H10622   4.762   7.992   9.502 -1.8073 -1.3184 -3.7431
   79MOL0     H10623   4.910   8.178   9.450 -2.5818  1.5562 -2.4869
   79MOL0     H10624   4.878   8.088   9.295 -0.0740  0.3463  0.1447
   79MOL0     H10625   5.022   8.323   9.278  0.0742  1.5252  0.8154
   79MOL0     H10626   5.203   8.472   9.207 -3.1229  0.0788  1.4061
   79MOL0     H10627   5.579   8.542   8.949  1.2913 -0.2127 -0.8941
   79MOL0     H10628   5.757   8.641   8.841  1.9143  0.7122 -0.3699
   79MOL0     H10629   6.117   8.622   9.036  1.3098 -0.3036 -0.0722
   79MOL0     H10630   6.166   8.482   8.943 -3.3684 -1.2718  4.4185
   79MOL0     H10631   6.199   8.659   8.740 -0.2128 -0.4616  0.0159
   79MOL0     H10632   6.192   8.783   8.867 -1.3877 -0.5750 -0.4116
   79MOL0     H10633   6.370   8.543   8.889  0.4236 -0.0078  1.4349
   79MOL0     H10634   6.413   8.675   8.776  2.5334 -2.1575 -0.1874
   79MOL0     H10635   6.412   8.667   9.071 -0.9868  2.5475  0.5615
   79MOL0     H10636   6.401   8.824   9.003 -1.0847 -0.2988 -0.0387
   79MOL0     H10637   6.609   8.781   8.851 -0.6861 -0.6756 -0.2087
   79MOL0     H10638   6.618   8.621   8.920 -1.6816 -1.2240  0.2569
   79MOL0     H10639   6.656   8.881   9.069 -0.0970  0.6566 -2.1391
   79MOL0     H10640   6.675   8.714   9.145  0.3760 -0.3186 -0.3726
   79MOL0     H10641   6.835   8.819   8.901 -1.1062  4.1775  1.5856
   79MOL0     H10642   6.879   8.680   9.016  0.8412  0.3962 -0.0810
   79MOL0     H10643   6.850   8.961   9.102  0.5539  1.0526 -1.9711
   79MOL0     H10644   6.913   8.821   9.189  1.6359  2.0220  1.0232
   79MOL0     H10645   6.032   8.383   9.055  0.6702  2.3944 -1.6100
   79MOL0     H10646   5.860   8.328   9.200  0.2909 -1.3422 -0.6694
   79MOL0     H10647   5.484   8.166   9.267  1.4984  1.5296  3.3623
   79MOL0     H10648   5.305   8.019   9.358 -1.9175 -1.7487 -0.1577
   79MOL0     H10649   3.381   7.620   8.961  0.1411 -0.2880  0.8170
   79MOL0     H10650   3.148   7.585   8.929  0.5441  0.1818 -0.7521
   79MOL0     H10651   2.825   7.464   8.976 -0.1727 -0.5292 -1.2384
   79MOL0     H10652   2.646   7.348   8.848 -0.1807 -0.0560  0.1630
   79MOL0     H10653   2.426   7.356   8.542 -1.3643  1.9737  1.2477
   79MOL0     H10654   2.594   7.332   8.603 -0.7146 -0.8464  2.8848
   79MOL0     H10655   2.641   7.441   8.384 -0.4132 -0.2571 -0.5255
   79MOL0     H10656   2.629   7.575   8.494 -0.6743 -0.0381  1.2188
   79MOL0     H10657   2.378   7.454   8.367  2.5766 -2.1360 -0.8334
   79MOL0     H10658   2.483   7.560   8.262 -0.2997  0.4909 -0.2204
   79MOL0     H10659   2.365   7.654   8.521  0.8448 -0.3573  0.3874
   79MOL0     H10660   2.441   7.749   8.385  0.0445 -0.4950  0.0002
   79MOL0     H10661   2.072   7.706   8.207 -1.0598 -2.0690  1.4451
   79MOL0     H10662   2.526   7.738   8.701  0.8213  3.5491  2.9085
   79MOL0     H10663   2.651   7.929   8.959  0.9456  3.7688 -1.8505
   79MOL0     H10664   2.744   7.943   8.805  0.7644  2.1920  2.2151
   79MOL0     H10665   2.566   7.936   8.812 -1.1404  0.6483  2.8883
   80MOL0     O10666   8.662  11.151   7.134 -0.0696 -0.2708 -0.1863
   80MOL0     C10667   8.590  11.175   7.227  0.1295 -0.2527 -0.8892
   80MOL0     O10668   8.617  11.262   7.333  0.1658  1.4573  0.1247
   80MOL0     C10669   8.742  11.323   7.340  1.1136 -0.5652 -0.7246
   80MOL0     C10670   8.776  11.416   7.238 -0.0020 -0.1988 -0.0647
   80MOL0     C10671   8.899  11.483   7.234  0.7008 -0.7626  0.0536
   80MOL0     C10672   8.996  11.450   7.326 -0.5342 -0.9418 -0.5511
   80MOL0     O10673   9.121  11.499   7.334  0.3443  0.3476 -0.0657
   80MOL0     C10674   9.145  11.636   7.291 -0.0150 -0.0518 -0.0520
   80MOL0     C10675   9.280  11.697   7.332 -0.3636 -0.0880 -0.0986
   80MOL0     C10676   9.322  11.673   7.481 -0.1103  0.3277 -0.7930
   80MOL0     C10677   9.412  11.768   7.544 -1.4161  0.4516  0.7386
   80MOL0     C10678   9.527  11.805   7.465 -0.3110  0.2959  1.4475
   80MOL0     C10679   9.634  11.889   7.546  0.8400  0.8794 -0.4247
   80MOL0     C10680   9.739  11.938   7.445 -0.0904  0.2408  0.4835
   80MOL0     C10681   9.826  12.042   7.513 -0.2984 -0.5004 -0.4645
   80MOL0     N10682   9.899  12.129   7.421 -0.1021 -0.3117 -0.8932
   80MOL0     C10683  10.013  12.093   7.351 -0.1277  0.8520 -0.0543
   80MOL0     C10684  10.061  12.205   7.305 -0.1978  0.2864  0.9410
   80MOL0     C10685  10.188  12.238   7.226  0.0722  0.4824  0.5496
   80MOL0     C10686  10.155  12.288   7.081 -1.2372  0.3481 -0.2665
   80MOL0     C10687  10.267  12.378   7.028 -0.9196 -1.1726 -0.0886
   80MOL0     C10688  10.409  12.326   7.029 -0.0322  0.0557 -0.0388
   80MOL0     O10689  10.433  12.256   6.908  0.0277  0.5904 -0.1508
   80MOL0     C10690  10.554  12.219   6.873 -0.7663 -0.4563 -0.6557
   80MOL0     C10691  10.600  12.270   6.757  0.1185  0.1238  0.3108
   80MOL0     C10692  10.731  12.244   6.710  0.7920  0.0899 -0.5185
   80MOL0     C10693  10.812  12.146   6.781  0.9053 -0.9585  0.8737
   80MOL0     C10694  10.950  12.101   6.737  0.6902 -0.0620  0.4597
   80MOL0     O10695  11.002  12.161   6.623  0.3812  0.1979  0.0821
   80MOL0     C10696  11.103  12.100   6.564  0.1484  0.0794  0.3542
   80MOL0     C10697  11.078  12.004   6.465  0.4829 -0.6776 -0.2179
   80MOL0     C10698  11.186  11.938   6.410 -0.3050  0.0283 -0.0187
   80MOL0     C10699  11.321  11.960   6.451  0.0273  1.0166  0.5228
   80MOL0     O10700  11.432  11.884   6.401  0.4699 -0.3219  0.2643
   80MOL0     C10701  11.403  11.762   6.337  0.0352  0.4776  0.1074
   80MOL0     C10702  11.397  11.773   6.179 -0.2630  0.1350 -0.1439
   80MOL0     C10703  11.531  11.816   6.123 -0.3458  0.2715  0.1679
   80MOL0     C10704  11.515  11.827   5.975  0.3276 -0.6951  0.0320
   80MOL0     C10705  11.644  11.855   5.908  0.2105  0.1336  0.1217
   80MOL0     C10706  11.625  11.867   5.760  0.2017 -0.0939 -0.4417
   80MOL0     C10707  11.756  11.878   5.679 -0.1661 -0.3554  1.4472
   80MOL0     C10708  11.730  11.870   5.531  0.0191  0.5470  1.1532
   80MOL0    Cl10709  11.719  12.026   5.437 -0.2083  0.3245  0.1489
   80MOL0     C10710  11.340  12.048   6.556  0.3014  0.5790  0.1511
   80MOL0     C10711  11.232  12.122   6.607 -0.0776  1.0413  0.2928
   80MOL0     O10712  11.009  12.015   6.805 -0.1082  0.2463  0.2891
   80MOL0     C10713  10.762  12.096   6.900 -0.4488 -0.8836 -0.2074
   80MOL0     C10714  10.635  12.126   6.947  0.2769 -0.6728 -0.5729
   80MOL0     N10715   9.974  12.301   7.338  0.0565 -0.4904 -0.2136
   80MOL0     N10716   9.871  12.256   7.399 -0.5138  0.4774 -0.1530
   80MOL0     C10717   8.961  11.364   7.429  0.2158  0.2371  0.4930
   80MOL0     C10718   8.836  11.307   7.441 -0.0943  0.1843  0.0578
   80MOL0     C10719   8.454  11.108   7.224 -0.1378 -0.4747 -0.0090
   80MOL0     C10720   8.363  11.142   7.330 -0.5647 -0.1115 -0.0386
   80MOL0     C10721   8.248  11.077   7.360  0.3044  0.3474 -0.3602
   80MOL0     C10722   8.210  10.966   7.276  0.2219  0.3252 -0.2916
   80MOL0     O10723   8.090  10.905   7.311  0.5240 -0.4253  0.1054
   80MOL0     C10724   8.031  10.804   7.220 -1.3146 -0.5477 -0.3581
   80MOL0     C10725   8.110  10.670   7.219  0.3693  0.1617  0.3675
   80MOL0     C10726   8.064  10.591   7.342 -0.4251 -0.0415 -0.0528
   80MOL0     C10727   8.151  10.455   7.351 -0.3814 -0.4165 -0.0538
   80MOL0     C10728   8.292  10.489   7.388 -0.5473  0.5091  0.0281
   80MOL0     C10729   8.406  10.511   7.423 -0.3508  0.3741 -0.1966
   80MOL0     C10730   8.293  10.938   7.167  0.5973  0.4236  1.0246
   80MOL0     C10731   8.412  11.008   7.138 -0.1514 -0.0367 -1.1948
   80MOL0     C10732   8.484  10.964   7.013 -0.5890 -0.2240 -0.3175
   80MOL0     H10733   8.711  11.433   7.153  0.7580  3.4698 -0.0399
   80MOL0     H10734   8.940  11.546   7.155  2.7401 -0.5412  1.2301
   80MOL0     H10735   9.147  11.630   7.182  1.5972 -3.1322  0.0129
   80MOL0     H10736   9.069  11.704   7.331 -0.2280 -0.4719  0.2718
   80MOL0     H10737   9.280  11.804   7.308  0.5583  0.0750  0.5522
   80MOL0     H10738   9.365  11.652   7.279  0.2804 -0.0929  0.9128
   80MOL0     H10739   9.370  11.575   7.482 -1.6350 -0.4769 -2.1458
   80MOL0     H10740   9.236  11.667   7.549 -0.2007  0.9667 -0.8415
   80MOL0     H10741   9.364  11.863   7.567  1.4971  2.6307 -1.5421
   80MOL0     H10742   9.444  11.716   7.635 -1.0223 -1.1953 -0.2822
   80MOL0     H10743   9.576  11.713   7.431  2.9078  2.3808 -0.1153
   80MOL0     H10744   9.496  11.867   7.380  0.8409 -2.5230 -1.2009
   80MOL0     H10745   9.587  11.978   7.590  0.4043 -0.7187  2.6079
   80MOL0     H10746   9.680  11.823   7.619  0.5584  0.6799 -0.4262
   80MOL0     H10747   9.693  11.975   7.353 -2.4402 -0.9796  1.0828
   80MOL0     H10748   9.805  11.855   7.415 -0.6353  0.4674 -1.4998
   80MOL0     H10749   9.768  12.107   7.579  1.8434  1.7532 -0.6518
   80MOL0     H10750   9.902  11.990   7.572  0.4659  0.4877 -0.5356
   80MOL0     H10751  10.053  11.992   7.347  0.8987  1.2706 -0.8015
   80MOL0     H10752  10.255  12.304   7.282 -1.1395  0.8067  1.6525
   80MOL0     H10753  10.247  12.146   7.218  0.1888  0.5187  0.9753
   80MOL0     H10754  10.157  12.202   7.014  0.5247 -0.0054  0.2001
   80MOL0     H10755  10.060  12.341   7.068 -0.9947  0.6067 -1.0163
   80MOL0     H10756  10.261  12.474   7.081  2.1125 -1.3549  0.7605
   80MOL0     H10757  10.256  12.411   6.924  1.2593  0.0313  0.0001
   80MOL0     H10758  10.433  12.248   7.102  2.3957 -0.6985 -1.4997
   80MOL0     H10759  10.480  12.408   7.045  2.6180 -2.5023  2.7721
   80MOL0     H10760  10.540  12.348   6.713 -1.8219  0.0834  2.6659
   80MOL0     H10761  10.769  12.299   6.624 -0.4727  0.9787 -0.5242
   80MOL0     H10762  10.982  11.998   6.415 -0.9002  1.1284  2.0110
   80MOL0     H10763  11.146  11.871   6.334 -0.8342 -0.3993  0.6292
   80MOL0     H10764  11.482  11.692   6.367 -0.0524  0.0163 -0.7121
   80MOL0     H10765  11.317  11.713   6.382 -0.6164  1.8646  0.4390
   80MOL0     H10766  11.379  11.672   6.143  0.2424  0.8833 -2.6624
   80MOL0     H10767  11.328  11.847   6.139  0.8143  1.1216 -0.2368
   80MOL0     H10768  11.570  11.906   6.172 -2.2365  1.4029 -0.2892
   80MOL0     H10769  11.604  11.736   6.139 -0.1835  0.6525  1.4734
   80MOL0     H10770  11.450  11.913   5.953  0.7910 -0.9540 -2.6265
   80MOL0     H10771  11.468  11.739   5.931  1.8166 -0.5400 -1.9900
   80MOL0     H10772  11.714  11.772   5.916 -0.7481 -0.6454  0.7257
   80MOL0     H10773  11.682  11.945   5.958 -0.2386  0.7384 -0.6087
   80MOL0     H10774  11.572  11.784   5.713 -0.8145 -0.4343  1.2288
   80MOL0     H10775  11.559  11.951   5.734 -0.2107 -0.7403 -1.5739
   80MOL0     H10776  11.824  11.795   5.703  2.2843  1.1129  0.0309
   80MOL0     H10777  11.808  11.969   5.709  0.4785 -0.4904  0.7537
   80MOL0     H10778  11.818  11.828   5.481 -1.3057  0.1465 -0.9772
   80MOL0     H10779  11.655  11.798   5.496  2.0213 -0.1031 -2.3070
   80MOL0     H10780  11.439  12.044   6.602  0.7162 -0.7869 -0.8174
   80MOL0     H10781  11.243  12.197   6.684  1.5219  2.1129 -0.8835
   80MOL0     H10782  10.811  12.016   6.955  1.5418  0.7684  0.5578
   80MOL0     H10783  10.592  12.085   7.038  1.4964  0.8013  0.7476
   80MOL0     H10784   9.037  11.341   7.503  1.2153 -2.1146 -1.1394
   80MOL0     H10785   8.821  11.241   7.526  1.5842  1.2710  1.2597
   80MOL0     H10786   8.401  11.208   7.408  0.2968  2.5470 -2.4958
   80MOL0     H10787   8.191  11.106   7.447 -0.9066 -0.3603 -0.8851
   80MOL0     H10788   8.026  10.846   7.119 -1.5423  0.5634  0.0984
   80MOL0     H10789   7.925  10.785   7.242 -1.1391 -1.9946 -0.7103
   80MOL0     H10790   8.219  10.676   7.215  0.5370 -2.2056 -1.7350
   80MOL0     H10791   8.076  10.626   7.125  0.1376  2.1063 -0.5037
   80MOL0     H10792   7.960  10.562   7.329 -0.4737  0.3663 -0.5647
   80MOL0     H10793   8.068  10.653   7.432 -0.6726  0.8575 -0.6519
   80MOL0     H10794   8.108  10.386   7.425 -0.9721  0.0189  0.0157
   80MOL0     H10795   8.149  10.394   7.261 -2.8818 -3.0995  1.6218
   80MOL0     H10796   8.505  10.535   7.458 -1.8196  4.9236  1.4710
   80MOL0     H10797   8.268  10.852   7.106  0.5608 -0.1679  1.8541
   80MOL0     H10798   8.505  11.057   6.960 -0.0538 -0.8034 -1.1511
   80MOL0     H10799   8.575  10.908   7.035  0.7242  2.0952  0.4059
   80MOL0     H10800   8.426  10.909   6.939  0.9136  0.9851 -2.4806
   81MOL0     O10801   1.207   9.576  11.228  0.4938  0.6559  0.1329
   81MOL0     C10802   1.215   9.551  11.112 -0.4880  1.3112 -0.4080
   81MOL0     O10803   1.319   9.600  11.031  0.0154  0.3307 -0.3374
   81MOL0     C10804   1.413   9.689  11.076  0.3980 -0.2889 -0.7511
   81MOL0     C10805   1.406   9.776  11.184  0.1536  0.1682 -0.9353
   81MOL0     C10806   1.513   9.878  11.194 -0.0896 -0.0190  0.3786
   81MOL0     C10807   1.622   9.881  11.103  0.1068 -0.3461 -0.0914
   81MOL0     O10808   1.722   9.979  11.114  1.0233 -0.3271 -0.1308
   81MOL0     C10809   1.839   9.977  11.045 -0.2623  0.1944 -0.4218
   81MOL0     C10810   1.938  10.088  11.110  0.6753  0.1875  0.3258
   81MOL0     C10811   2.085  10.060  11.091  0.2706 -0.4151  0.9020
   81MOL0     C10812   2.163   9.983  11.201  0.1747 -0.2454 -0.2181
   81MOL0     C10813   2.312   9.999  11.175  0.0824  0.2717 -0.6877
   81MOL0     C10814   2.399   9.952  11.296 -0.3897 -0.2360 -0.3429
   81MOL0     C10815   2.547   9.995  11.275  0.1477 -0.5573  0.7162
   81MOL0     C10816   2.633   9.938  11.390 -0.2298 -0.2326  0.0835
   81MOL0     N10817   2.774   9.946  11.362  0.2074 -0.4496  0.5496
   81MOL0     C10818   2.846  10.060  11.372 -0.0633 -0.4760 -0.3122
   81MOL0     C10819   2.966  10.033  11.342 -1.7020 -0.1448 -0.9229
   81MOL0     C10820   3.082  10.131  11.328 -0.7467 -0.3429  1.0344
   81MOL0     C10821   3.227  10.091  11.373 -0.0788  0.7659  0.5354
   81MOL0     C10822   3.260  10.108  11.525  0.5322  0.2503  0.0882
   81MOL0     C10823   3.402  10.075  11.557  1.4049 -0.4489  0.1196
   81MOL0     O10824   3.467  10.186  11.528  0.0032  0.4821 -0.6296
   81MOL0     C10825   3.601  10.174  11.543  0.7158 -0.2915  0.4658
   81MOL0     C10826   3.677  10.057  11.568  0.5991  0.1692  0.5466
   81MOL0     C10827   3.818  10.057  11.568  0.1821  0.8913 -0.7664
   81MOL0     C10828   3.893  10.176  11.552  0.3613 -0.3597 -0.3516
   81MOL0     C10829   4.038  10.187  11.574  0.0720 -0.8204  1.4644
   81MOL0     O10830   4.091  10.313  11.578 -0.3984  0.4664 -0.2148
   81MOL0     C10831   4.226  10.332  11.602 -0.2624  0.3910 -0.0466
   81MOL0     C10832   4.319  10.314  11.500 -0.4510  0.2182 -0.6633
   81MOL0     C10833   4.456  10.346  11.530  0.5526 -0.3118 -0.1252
   81MOL0     C10834   4.505  10.387  11.660 -0.5793  1.1011 -0.2768
   81MOL0     O10835   4.629  10.432  11.696  0.4220 -0.2616 -0.0949
   81MOL0     C10836   4.737  10.369  11.625  0.2247 -0.3183  0.6687
   81MOL0     C10837   4.732  10.219  11.627 -0.2820 -0.7301  0.9874
   81MOL0     C10838   4.717  10.153  11.763  0.3661 -0.6468 -0.0384
   81MOL0     C10839   4.584  10.060  11.771  0.9692 -0.6486 -0.2886
   81MOL0     C10840   4.593   9.939  11.674  1.1641 -0.1045  0.0115
   81MOL0     C10841   4.452   9.882  11.629  0.6781 -0.7295 -0.5176
   81MOL0     C10842   4.361   9.857  11.750 -0.1945 -0.2788  0.7061
   81MOL0     C10843   4.240   9.769  11.711 -0.5535 -0.1932 -0.4053
   81MOL0    Cl10844   4.295   9.602  11.676  0.1011  0.0520 -0.0349
   81MOL0     C10845   4.404  10.392  11.760  0.5393 -0.0911 -0.3912
   81MOL0     C10846   4.267  10.361  11.733 -0.8725 -0.3149 -1.0128
   81MOL0     O10847   4.105  10.088  11.583 -0.0608  0.3399  0.0923
   81MOL0     C10848   3.816  10.290  11.517 -0.1577 -0.1182  0.0500
   81MOL0     C10849   3.674  10.282  11.508 -0.3839 -0.0843 -0.2524
   81MOL0     N10850   2.972   9.903  11.293  0.2823 -0.2509 -0.5545
   81MOL0     N10851   2.854   9.848  11.306 -0.3596 -0.6196 -0.5365
   81MOL0     C10852   1.632   9.774  11.015 -0.4583  0.3499  1.1802
   81MOL0     C10853   1.531   9.681  10.994 -0.0327 -0.2953 -0.1113
   81MOL0     C10854   1.120   9.469  11.031  0.2509 -0.2935  0.5601
   81MOL0     C10855   1.130   9.468  10.888  0.2615 -0.4728 -0.4254
   81MOL0     C10856   1.047   9.386  10.808  0.2085  0.1517  0.1064
   81MOL0     C10857   0.944   9.315  10.877 -0.4606  0.3075  0.5108
   81MOL0     O10858   0.861   9.246  10.792  0.4176  0.4773  0.2823
   81MOL0     C10859   0.878   9.105  10.786  0.5109  0.1610  0.0613
   81MOL0     C10860   0.779   9.036  10.676 -0.3505 -0.1400  0.2077
   81MOL0     C10861   0.802   9.096  10.541 -0.2814  0.0155  0.5121
   81MOL0     C10862   0.765   8.989  10.438  0.0318  0.1068  0.3371
   81MOL0     C10863   0.766   9.036  10.297 -1.4767  0.1261  0.5400
   81MOL0     C10864   0.780   9.042  10.180  0.3701  0.7549 -0.4680
   81MOL0     C10865   0.928   9.317  11.011 -0.1447 -0.0867 -0.8258
   81MOL0     C10866   1.018   9.392  11.087  0.2838  0.7950 -0.0902
   81MOL0     C10867   1.011   9.374  11.236 -0.8313 -0.1005  0.5083
   81MOL0     H10868   1.316   9.777  11.244 -0.5483 -2.3502 -1.8259
   81MOL0     H10869   1.509   9.948  11.277  1.9391 -1.6616  1.9772
   81MOL0     H10870   1.898   9.885  11.052  0.7473  0.8102 -0.6178
   81MOL0     H10871   1.827  10.001  10.939  0.0906  1.1021 -0.2588
   81MOL0     H10872   1.931  10.109  11.217  0.5480  1.4839  0.0837
   81MOL0     H10873   1.910  10.178  11.054  0.6136 -0.6258 -1.0068
   81MOL0     H10874   2.135  10.157  11.080  1.2383 -1.1589 -2.3088
   81MOL0     H10875   2.101   9.995  11.004  1.7808 -0.2100  0.9974
   81MOL0     H10876   2.139  10.013  11.304  3.6316  2.0475  0.1106
   81MOL0     H10877   2.147   9.875  11.189  3.5234 -0.7066 -1.6872
   81MOL0     H10878   2.340   9.950  11.082 -1.0529 -1.8266  0.0057
   81MOL0     H10879   2.342  10.103  11.159  0.1095  0.1946 -1.1383
   81MOL0     H10880   2.362   9.992  11.391  1.6482 -4.0752  2.3264
   81MOL0     H10881   2.387   9.846  11.320 -0.5386  0.2176  1.7800
   81MOL0     H10882   2.553  10.104  11.279  1.9742 -0.4902 -1.6324
   81MOL0     H10883   2.581   9.965  11.176 -1.9101  0.5313 -0.4015
   81MOL0     H10884   2.604  10.002  11.474 -1.6353  0.5205 -0.9286
   81MOL0     H10885   2.606   9.834  11.408 -0.7437 -0.4424 -1.7106
   81MOL0     H10886   2.806  10.160  11.378  0.2231 -0.4449  2.3205
   81MOL0     H10887   3.090  10.146  11.220 -0.6005 -0.3968  1.0386
   81MOL0     H10888   3.065  10.230  11.370  0.5062  1.5205 -2.4928
   81MOL0     H10889   3.263   9.995  11.336 -0.1399  0.9046  0.1143
   81MOL0     H10890   3.298  10.160  11.326  1.4262 -0.5859  0.7241
   81MOL0     H10891   3.209  10.028  11.580 -0.1463  0.1440 -0.6847
   81MOL0     H10892   3.215  10.197  11.570 -1.2907 -0.1733 -0.7700
   81MOL0     H10893   3.430   9.994  11.490 -3.2730 -1.7812 -0.5951
   81MOL0     H10894   3.421  10.046  11.661  3.6659  1.4145  0.3136
   81MOL0     H10895   3.624   9.964  11.588  0.1057  0.7238  1.8551
   81MOL0     H10896   3.866   9.962  11.588 -1.9156  0.0062  0.3274
   81MOL0     H10897   4.280  10.284  11.403 -1.4650  0.5754 -0.3840
   81MOL0     H10898   4.529  10.366  11.453  0.6063 -3.0639 -0.8902
   81MOL0     H10899   4.738  10.411  11.524  2.1515  2.5764  1.7677
   81MOL0     H10900   4.830  10.397  11.675 -1.0243 -0.9380  3.5670
   81MOL0     H10901   4.660  10.184  11.553  0.7296  0.1637 -0.4709
   81MOL0     H10902   4.821  10.173  11.582 -0.2414 -0.0425  0.3470
   81MOL0     H10903   4.805  10.090  11.779  0.9713 -0.5473 -2.4778
   81MOL0     H10904   4.706  10.224  11.845 -0.0048 -1.9063  1.0301
   81MOL0     H10905   4.502  10.121  11.733  1.5002  1.0072  1.1252
   81MOL0     H10906   4.560  10.026  11.872 -0.9598  0.9580 -0.1400
   81MOL0     H10907   4.664   9.866  11.715  2.0229  1.1043  0.7320
   81MOL0     H10908   4.639   9.962  11.578  0.3791  2.1266  0.1072
   81MOL0     H10909   4.406   9.956  11.563  0.1800 -0.2933  0.3020
   81MOL0     H10910   4.469   9.788  11.574 -0.5461 -1.3587  0.1284
   81MOL0     H10911   4.322   9.955  11.780 -1.4134 -1.1981  2.2389
   81MOL0     H10912   4.420   9.813  11.830  2.7440  2.6987  0.3927
   81MOL0     H10913   4.178   9.769  11.801  0.1861  0.2144  0.1087
   81MOL0     H10914   4.181   9.817  11.632 -0.8720  0.1624  0.0425
   81MOL0     H10915   4.425  10.446  11.852 -2.9598  2.0412 -0.6896
   81MOL0     H10916   4.192  10.385  11.808  0.3205  1.4509 -0.3236
   81MOL0     H10917   3.867  10.381  11.486  1.2027 -0.9248 -0.1608
   81MOL0     H10918   3.620  10.375  11.490 -0.1813 -0.4423 -3.0797
   81MOL0     H10919   1.706   9.774  10.937 -1.2240 -0.3583  0.4332
   81MOL0     H10920   1.531   9.620  10.904  0.0752  1.9410 -1.7037
   81MOL0     H10921   1.195   9.536  10.835 -1.3135  1.3082 -0.2006
   81MOL0     H10922   1.059   9.392  10.701  1.8153  2.0875  0.3273
   81MOL0     H10923   0.857   9.058  10.883  0.3330 -0.9676 -0.5152
   81MOL0     H10924   0.980   9.074  10.763  0.6079 -0.5930  1.3788
   81MOL0     H10925   0.673   9.053  10.695 -0.7311 -1.2364 -0.8166
   81MOL0     H10926   0.800   8.928  10.679 -1.7838 -0.4388 -0.0204
   81MOL0     H10927   0.907   9.116  10.521 -0.3646  0.5342  0.5743
   81MOL0     H10928   0.739   9.186  10.533  0.9295  0.7630 -1.3231
   81MOL0     H10929   0.833   8.904  10.445  0.1831  0.1011 -0.9815
   81MOL0     H10930   0.666   8.947  10.459 -0.3994  1.2390  0.6466
   81MOL0     H10931   0.778   9.031  10.074  1.3068  0.8736 -0.5123
   81MOL0     H10932   0.842   9.256  11.037 -0.2588 -0.3455 -1.7475
   81MOL0     H10933   0.952   9.459  11.274 -0.1270  0.5716  0.1171
   81MOL0     H10934   0.953   9.288  11.271  0.0579 -0.8625  0.1361
   81MOL0     H10935   1.111   9.367  11.278  0.3673  0.5058 -2.0500
   82MOL0     O10936   7.036   2.824   0.038 -0.1163  0.5680  0.6939
   82MOL0     C10937   7.038   2.837   0.163 -0.4912  0.0528  1.0677
   82MOL0     O10938   7.142   2.911   0.226  0.0378 -0.1834  0.0316
   82MOL0     C10939   7.245   2.941   0.144 -0.1236  0.7807  0.3294
   82MOL0     C10940   7.364   2.865   0.152  0.2661 -0.3839 -0.0323
   82MOL0     C10941   7.459   2.873   0.054  0.4422 -0.3337 -0.2759
   82MOL0     C10942   7.455   2.980  -0.032 -0.0967  0.4639 -0.1372
   82MOL0     O10943   7.562   2.989  -0.111 -0.0502  0.4262  0.6765
   82MOL0     C10944   7.565   3.097  -0.201 -0.1674 -0.8551  0.1649
   82MOL0     C10945   7.704   3.087  -0.270  0.1323 -0.1190 -0.3851
   82MOL0     C10946   7.822   3.083  -0.170  0.9356  0.6479  0.3748
   82MOL0     C10947   7.934   3.170  -0.221  0.0785 -0.1091  0.1983
   82MOL0     C10948   7.997   3.137  -0.360  0.0410 -0.1372 -0.6003
   82MOL0     C10949   8.101   3.236  -0.405 -0.8162  0.5752 -0.5814
   82MOL0     C10950   8.114   3.249  -0.558  0.1085 -0.0757  0.5520
   82MOL0     C10951   8.144   3.114  -0.622 -1.3433  0.7328 -0.8564
   82MOL0     N10952   8.290   3.087  -0.613  0.2942  0.2809 -0.0675
   82MOL0     C10953   8.392   3.145  -0.682  0.5372 -0.2135 -1.0596
   82MOL0     C10954   8.507   3.077  -0.635  0.5400 -1.0067  0.1838
   82MOL0     C10955   8.643   3.127  -0.685  0.7348 -0.6656 -0.2107
   82MOL0     C10956   8.684   3.041  -0.804  0.9519 -1.2707  0.0493
   82MOL0     C10957   8.801   3.104  -0.894  0.2213  0.2626 -0.4915
   82MOL0     C10958   8.831   3.030  -1.023  0.3291  0.6023 -0.2565
   82MOL0     O10959   8.920   3.101  -1.112  0.1287  0.3487  0.1254
   82MOL0     C10960   9.055   3.106  -1.068  1.0244 -0.0582 -0.1774
   82MOL0     C10961   9.107   3.226  -1.096 -0.0449 -0.2570 -0.5560
   82MOL0     C10962   9.243   3.258  -1.066  0.1964 -0.0264 -0.5426
   82MOL0     C10963   9.324   3.153  -1.018  0.1100 -0.4336 -0.3719
   82MOL0     C10964   9.470   3.171  -0.994  0.3717 -0.3484  0.3154
   82MOL0     O10965   9.532   3.066  -0.933 -0.1505  1.0054  0.3608
   82MOL0     C10966   9.666   3.078  -0.921  0.5630  0.7868  0.4781
   82MOL0     C10967   9.753   3.047  -1.027  0.2794 -0.0584 -1.0865
   82MOL0     C10968   9.888   3.076  -1.017  0.2538 -0.0900  0.4968
   82MOL0     C10969   9.940   3.141  -0.902 -0.5910  0.2625  0.5743
   82MOL0     O10970  10.071   3.179  -0.885  0.7216 -0.3664  0.0293
   82MOL0     C10971  10.163   3.130  -0.981 -0.1198  0.0978  0.0783
   82MOL0     C10972  10.299   3.187  -0.975 -0.6613  0.1315  0.2438
   82MOL0     C10973  10.370   3.146  -1.102 -0.2951  0.8617  1.2056
   82MOL0     C10974  10.522   3.183  -1.101  0.6203  1.2763  0.7253
   82MOL0     C10975  10.585   3.137  -1.235 -0.1941 -0.3422 -0.0837
   82MOL0     C10976  10.738   3.120  -1.218  0.6855 -0.2797  0.4653
   82MOL0     C10977  10.796   3.065  -1.350  0.0080  0.3418  0.1644
   82MOL0     C10978  10.951   3.052  -1.346  0.5671 -0.6849  0.8437
   82MOL0    Cl10979  11.041   3.201  -1.327  0.2823  0.3760 -0.0012
   82MOL0     C10980   9.845   3.171  -0.797 -0.3921 -0.2417  0.2424
   82MOL0     C10981   9.714   3.137  -0.810  0.7700 -0.5611  0.3390
   82MOL0     O10982   9.521   3.263  -1.060  0.9286 -0.2677 -0.4885
   82MOL0     C10983   9.267   3.025  -0.987 -0.3322 -0.5299  0.5603
   82MOL0     C10984   9.129   3.005  -1.004 -0.3788  0.4000  0.9523
   82MOL0     N10985   8.469   2.990  -0.540 -0.5815  0.0289  0.0128
   82MOL0     N10986   8.341   2.996  -0.521  0.2629 -0.6948  0.8443
   82MOL0     C10987   7.344   3.068  -0.032  0.5503  0.2994  0.2027
   82MOL0     C10988   7.233   3.049   0.051 -0.6450  0.2760  0.2550
   82MOL0     C10989   6.928   2.801   0.249 -0.4360 -0.1102  0.1639
   82MOL0     C10990   6.800   2.822   0.203  0.1504 -0.4573 -0.1690
   82MOL0     C10991   6.682   2.831   0.288 -0.3333 -0.2080  0.2575
   82MOL0     C10992   6.706   2.810   0.427  0.6534 -0.1140  0.4682
   82MOL0     O10993   6.595   2.781   0.507 -0.1774 -0.4435 -0.3526
   82MOL0     C10994   6.604   2.784   0.652  0.1749  0.1553  0.3880
   82MOL0     C10995   6.462   2.812   0.714 -0.5099  0.0163  0.6794
   82MOL0     C10996   6.361   2.692   0.692  0.4251  0.1147  0.1405
   82MOL0     C10997   6.232   2.708   0.774  0.3473  0.0456  0.6534
   82MOL0     C10998   6.164   2.830   0.733 -0.6349  0.7401  0.5801
   82MOL0     C10999   6.109   2.934   0.701 -0.4081 -0.1874 -0.7243
   82MOL0     C11000   6.835   2.779   0.477 -0.2586  0.0301  0.3579
   82MOL0     C11001   6.946   2.777   0.387  0.4046  0.0601  0.7441
   82MOL0     C11002   7.084   2.731   0.440  0.0960  1.0408 -0.4299
   82MOL0     H11003   7.382   2.790   0.229  2.7911 -2.5514 -2.4906
   82MOL0     H11004   7.550   2.814   0.061  0.5176 -0.2369 -0.4157
   82MOL0     H11005   7.488   3.093  -0.278  2.0208  2.3195 -2.4806
   82MOL0     H11006   7.555   3.187  -0.140  3.0950 -1.2449  1.5125
   82MOL0     H11007   7.713   3.172  -0.338  0.0867  0.8468  0.7812
   82MOL0     H11008   7.693   2.999  -0.334  1.0805 -0.3655 -0.2254
   82MOL0     H11009   7.861   2.981  -0.164  1.2778  0.6620 -1.0441
   82MOL0     H11010   7.793   3.109  -0.068  3.3451 -2.3432  1.9906
   82MOL0     H11011   7.902   3.274  -0.229  0.7809  0.2168  1.3950
   82MOL0     H11012   8.017   3.166  -0.150 -0.6207  2.0990  1.2291
   82MOL0     H11013   8.053   3.043  -0.350 -0.7315 -0.6298 -0.8916
   82MOL0     H11014   7.917   3.130  -0.433  0.0030  0.6525 -0.6432
   82MOL0     H11015   8.078   3.337  -0.370 -0.6503  1.1546 -2.0895
   82MOL0     H11016   8.197   3.203  -0.366  0.0136  0.4856 -2.5886
   82MOL0     H11017   8.191   3.321  -0.589  0.0165 -0.7204 -1.2837
   82MOL0     H11018   8.020   3.294  -0.593  0.4507  0.9997  0.9563
   82MOL0     H11019   8.081   3.032  -0.589 -3.3829  1.8412 -1.7836
   82MOL0     H11020   8.136   3.128  -0.731  2.5790 -0.8251 -1.5062
   82MOL0     H11021   8.381   3.224  -0.755 -0.6423 -0.1748 -0.8686
   82MOL0     H11022   8.636   3.233  -0.710 -1.7868 -0.9084 -0.7630
   82MOL0     H11023   8.719   3.124  -0.606 -0.4395  0.3060  0.9820
   82MOL0     H11024   8.696   2.935  -0.778 -1.1625 -1.5014  0.2068
   82MOL0     H11025   8.596   3.039  -0.868  0.5383  2.4422  0.2785
   82MOL0     H11026   8.890   3.101  -0.830 -0.5574  1.5097  0.6895
   82MOL0     H11027   8.762   3.204  -0.916  0.5597  1.2628  2.9497
   82MOL0     H11028   8.731   3.015  -1.066 -0.3396  2.0043  0.7440
   82MOL0     H11029   8.869   2.933  -0.989  1.0157  1.1620  0.6255
   82MOL0     H11030   9.047   3.306  -1.139 -0.1999  0.1503  0.4025
   82MOL0     H11031   9.291   3.354  -1.083 -1.4509  0.7414 -1.0004
   82MOL0     H11032   9.720   3.004  -1.121 -2.3631  2.7852 -1.6067
   82MOL0     H11033   9.951   3.047  -1.101  0.0110  0.2848  0.1819
   82MOL0     H11034  10.169   3.021  -0.966 -0.9014  0.1074  0.4990
   82MOL0     H11035  10.122   3.152  -1.080  1.9942  0.6972 -0.7293
   82MOL0     H11036  10.293   3.296  -0.972  1.2297  0.3164 -0.7040
   82MOL0     H11037  10.349   3.154  -0.883  1.4480 -1.4745 -1.3734
   82MOL0     H11038  10.360   3.040  -1.130 -2.0269  1.8349 -2.6818
   82MOL0     H11039  10.325   3.199  -1.187  0.6623 -0.2660 -0.0688
   82MOL0     H11040  10.577   3.145  -1.014  2.2251 -0.4143 -0.9275
   82MOL0     H11041  10.525   3.293  -1.098 -3.6440  1.5405  1.3165
   82MOL0     H11042  10.561   3.210  -1.313 -0.8181 -1.6354 -1.1346
   82MOL0     H11043  10.543   3.039  -1.260  0.0882 -0.5216  0.1398
   82MOL0     H11044  10.784   3.215  -1.190 -0.7918 -0.0013  2.1354
   82MOL0     H11045  10.754   3.046  -1.140 -1.0794  0.5419  1.6967
   82MOL0     H11046  10.773   3.129  -1.436 -1.0459 -0.2594 -0.0077
   82MOL0     H11047  10.746   2.971  -1.372 -2.1093  1.5119 -0.2684
   82MOL0     H11048  10.983   2.992  -1.261  0.8614  0.3690  1.4907
   82MOL0     H11049  10.985   3.003  -1.438  0.7729 -0.0262  0.5650
   82MOL0     H11050   9.879   3.228  -0.711 -1.3320  0.1811  0.3474
   82MOL0     H11051   9.652   3.155  -0.722  2.7010 -0.2368  1.7098
   82MOL0     H11052   9.331   2.951  -0.940  1.6857 -0.5789 -2.0478
   82MOL0     H11053   9.094   2.904  -0.983 -1.7209 -0.1264 -2.9818
   82MOL0     H11054   7.327   3.142  -0.111 -1.4958 -1.0416 -0.6905
   82MOL0     H11055   7.154   3.121   0.037 -1.6965 -1.0378 -0.8822
   82MOL0     H11056   6.770   2.823   0.098 -1.2029 -0.5112  0.1955
   82MOL0     H11057   6.585   2.851   0.245  0.2011  1.3451 -0.2996
   82MOL0     H11058   6.665   2.866   0.691 -0.6889  1.3512 -0.7034
   82MOL0     H11059   6.636   2.689   0.696 -0.0083 -0.1426 -0.1120
   82MOL0     H11060   6.428   2.909   0.674 -2.0439 -1.7845 -2.8716
   82MOL0     H11061   6.467   2.823   0.822  1.3912 -0.4150  0.6681
   82MOL0     H11062   6.411   2.597   0.710  0.9171  0.2518 -0.4790
   82MOL0     H11063   6.330   2.676   0.589  0.6583  2.1589 -0.2834
   82MOL0     H11064   6.169   2.618   0.764  1.5316 -0.6120 -1.4441
   82MOL0     H11065   6.254   2.711   0.881  1.0841  0.9115  0.4846
   82MOL0     H11066   6.050   3.019   0.672  1.3646  0.6263 -2.1228
   82MOL0     H11067   6.854   2.759   0.582 -4.8368  0.4118  1.4685
   82MOL0     H11068   7.126   2.659   0.370 -2.4091 -1.2314  0.2026
   82MOL0     H11069   7.149   2.817   0.457  3.4161 -1.7104  2.5436
   82MOL0     H11070   7.083   2.685   0.540  1.4060  1.3731 -0.2475
   83MOL0     O11071   5.731   7.962   5.207 -0.7103 -0.1208 -0.0888
   83MOL0     C11072   5.660   7.896   5.290  0.3077 -0.8491 -0.5833
   83MOL0     O11073   5.702   7.784   5.353  0.6529 -0.4525 -1.1606
   83MOL0     C11074   5.822   7.731   5.321 -0.6860 -0.1288  0.3808
   83MOL0     C11075   5.823   7.606   5.261  0.1415 -0.0160  0.3427
   83MOL0     C11076   5.936   7.535   5.239  0.0226  0.2554 -1.4259
   83MOL0     C11077   6.062   7.602   5.265 -0.1533  0.0135 -0.2922
   83MOL0     O11078   6.179   7.530   5.247  0.1257  0.3367 -0.5555
   83MOL0     C11079   6.251   7.512   5.372  0.5855 -0.2677  0.3450
   83MOL0     C11080   6.376   7.433   5.351  0.7149 -1.2562 -0.2517
   83MOL0     C11081   6.476   7.511   5.261  0.0681  0.8444 -0.5268
   83MOL0     C11082   6.622   7.446   5.283  0.5815 -0.2338  0.0438
   83MOL0     C11083   6.697   7.523   5.393 -0.5353 -0.2530 -1.5949
   83MOL0     C11084   6.817   7.433   5.450  0.0335 -0.0948  0.5647
   83MOL0     C11085   6.951   7.443   5.364 -0.0076  0.1067 -0.6729
   83MOL0     C11086   7.015   7.585   5.360 -0.0345 -0.5788 -0.4312
   83MOL0     N11087   7.152   7.583   5.302  0.3093 -0.7327 -0.1259
   83MOL0     C11088   7.272   7.540   5.352 -0.0544 -0.7762 -0.7731
   83MOL0     C11089   7.359   7.537   5.241 -1.2097 -1.0368 -0.2155
   83MOL0     C11090   7.510   7.485   5.232  0.7035 -0.9011  0.0456
   83MOL0     C11091   7.595   7.589   5.169 -0.1586 -0.7129  0.3220
   83MOL0     C11092   7.739   7.542   5.119 -0.3165  0.1101 -0.4971
   83MOL0     C11093   7.828   7.651   5.056 -0.3763  0.2520  0.0291
   83MOL0     O11094   7.964   7.614   5.081  0.1558 -0.0755  0.0157
   83MOL0     C11095   8.049   7.581   4.978 -0.0457  0.5221 -0.5563
   83MOL0     C11096   8.001   7.543   4.851  0.1171 -0.9794  0.1876
   83MOL0     C11097   8.086   7.517   4.742  0.4792  0.1925 -0.5646
   83MOL0     C11098   8.233   7.524   4.755 -0.0734 -0.7399  0.0527
   83MOL0     C11099   8.320   7.469   4.643  0.5767 -0.1274  0.1546
   83MOL0     O11100   8.455   7.491   4.650  0.0454 -0.5707 -0.1715
   83MOL0     C11101   8.542   7.439   4.554 -0.1667  0.5394  0.7901
   83MOL0     C11102   8.535   7.309   4.502  0.3905 -0.4438  0.3563
   83MOL0     C11103   8.630   7.285   4.407  0.6485 -0.5259 -0.1125
   83MOL0     C11104   8.739   7.370   4.356 -0.4637  0.9674 -0.5749
   83MOL0     O11105   8.823   7.330   4.255  0.9711 -0.8101 -0.2436
   83MOL0     C11106   8.915   7.429   4.208 -1.2666 -0.1795 -0.9497
   83MOL0     C11107   9.049   7.432   4.278  0.0513  0.3544 -0.0247
   83MOL0     C11108   9.141   7.547   4.240  0.1865 -0.7075  0.2625
   83MOL0     C11109   9.260   7.557   4.338  0.8701 -0.0827  0.0116
   83MOL0     C11110   9.358   7.656   4.290 -0.3615  0.6163 -0.3636
   83MOL0     C11111   9.481   7.687   4.387  1.1347 -0.2108 -0.5276
   83MOL0     C11112   9.560   7.553   4.425 -0.4705  0.1681  0.6212
   83MOL0     C11113   9.563   7.527   4.578 -0.3530 -0.8979  0.1718
   83MOL0    Cl11114   9.402   7.550   4.641 -0.2336  0.5926  0.6614
   83MOL0     C11115   8.734   7.495   4.415 -0.3950  0.3602 -0.4914
   83MOL0     C11116   8.646   7.521   4.516  0.4055 -0.2029  0.2921
   83MOL0     O11117   8.265   7.404   4.553  1.2210 -0.6119  0.0220
   83MOL0     C11118   8.285   7.565   4.889 -0.2605 -0.0304  0.7649
   83MOL0     C11119   8.192   7.595   4.995  0.8328  0.5436  0.1870
   83MOL0     N11120   7.285   7.580   5.135 -0.2380 -0.3792 -0.1571
   83MOL0     N11121   7.162   7.611   5.169 -0.6173 -0.3922  0.3051
   83MOL0     C11122   6.063   7.729   5.314 -0.1044  0.1517  0.5704
   83MOL0     C11123   5.941   7.792   5.352  0.0442 -0.3102  0.7889
   83MOL0     C11124   5.513   7.934   5.322  0.3631  0.3214 -0.0425
   83MOL0     C11125   5.440   7.857   5.414 -0.3373 -0.5421 -0.3165
   83MOL0     C11126   5.329   7.899   5.486 -0.3297 -0.4697  0.1170
   83MOL0     C11127   5.272   8.024   5.453 -0.1248 -0.3891 -0.2377
   83MOL0     O11128   5.165   8.076   5.528  0.4925 -0.0458  0.4433
   83MOL0     C11129   5.110   8.201   5.471  0.6964  0.0656  0.0657
   83MOL0     C11130   4.973   8.232   5.524 -0.0923 -0.2272  0.2795
   83MOL0     C11131   4.870   8.113   5.513 -0.5955  0.6718 -0.5219
   83MOL0     C11132   4.733   8.137   5.587 -0.6893 -0.1317 -0.4594
   83MOL0     C11133   4.650   8.217   5.502  1.3906 -0.9121  0.1256
   83MOL0     C11134   4.598   8.303   5.428  0.3298  0.7265 -0.2469
   83MOL0     C11135   5.345   8.096   5.354 -0.4773  0.0370 -1.2448
   83MOL0     C11136   5.461   8.055   5.295  0.6229  0.5178 -0.2749
   83MOL0     C11137   5.527   8.157   5.201 -0.0922  0.3666  0.2583
   83MOL0     H11138   5.720   7.572   5.248 -0.2660 -0.0029  2.9732
   83MOL0     H11139   5.943   7.433   5.201  1.7380 -0.5570  0.8141
   83MOL0     H11140   6.280   7.611   5.409 -2.4377  1.4713 -1.4767
   83MOL0     H11141   6.185   7.453   5.436 -1.7227  0.7112 -1.0122
   83MOL0     H11142   6.346   7.337   5.309 -2.5979 -1.5378  2.3812
   83MOL0     H11143   6.430   7.419   5.445 -1.6346 -0.6650  1.2680
   83MOL0     H11144   6.484   7.610   5.307  1.8897 -0.8589  3.2846
   83MOL0     H11145   6.431   7.516   5.161 -4.5766  0.5444  1.2881
   83MOL0     H11146   6.620   7.341   5.315  0.4913 -0.5063 -0.8150
   83MOL0     H11147   6.671   7.460   5.186  0.2888  0.4126 -0.0154
   83MOL0     H11148   6.731   7.622   5.361  1.4532 -0.6622 -0.8743
   83MOL0     H11149   6.617   7.537   5.467 -0.1105 -2.0420 -0.7420
   83MOL0     H11150   6.827   7.471   5.552 -0.4464  0.2377  0.4920
   83MOL0     H11151   6.785   7.329   5.457 -1.0310  0.2978  2.0349
   83MOL0     H11152   6.928   7.408   5.263  0.3719 -2.5861  0.1030
   83MOL0     H11153   7.035   7.383   5.399 -0.3352 -0.6919 -1.2484
   83MOL0     H11154   6.951   7.638   5.289 -1.8901 -1.2148  0.7102
   83MOL0     H11155   7.012   7.637   5.456 -1.6608  0.0776 -0.8108
   83MOL0     H11156   7.296   7.509   5.452  1.4755 -1.2204 -1.2601
   83MOL0     H11157   7.549   7.462   5.332  0.1094 -0.2833  0.4346
   83MOL0     H11158   7.501   7.397   5.168 -1.8452 -0.0572 -0.8778
   83MOL0     H11159   7.546   7.625   5.078  0.8088 -2.3545 -0.9051
   83MOL0     H11160   7.614   7.668   5.242  0.8057  0.8602 -1.5472
   83MOL0     H11161   7.729   7.464   5.043  0.9287 -1.4390  0.8753
   83MOL0     H11162   7.788   7.494   5.204 -2.1861 -0.8387  0.0968
   83MOL0     H11163   7.822   7.749   5.105  1.7729  1.6882 -2.3023
   83MOL0     H11164   7.802   7.672   4.952  1.3365  1.8472 -0.1299
   83MOL0     H11165   7.895   7.542   4.828  0.6318 -1.6190 -2.4954
   83MOL0     H11166   8.039   7.493   4.648 -1.7894 -1.9304  1.0008
   83MOL0     H11167   8.462   7.239   4.542 -0.3819  0.6780  0.9764
   83MOL0     H11168   8.615   7.181   4.379 -1.7968 -0.2531 -0.0447
   83MOL0     H11169   8.944   7.409   4.105  0.2964 -1.5364 -0.3038
   83MOL0     H11170   8.877   7.530   4.194 -1.2970 -0.2620 -1.4779
   83MOL0     H11171   9.013   7.440   4.381 -0.6426 -2.4675  0.0317
   83MOL0     H11172   9.096   7.335   4.259  0.4864  0.5635 -0.0366
   83MOL0     H11173   9.174   7.532   4.136  1.3341 -0.4665  0.5771
   83MOL0     H11174   9.086   7.641   4.253  0.5418 -0.8089  2.9652
   83MOL0     H11175   9.303   7.457   4.327 -2.3557 -1.3931 -1.8511
   83MOL0     H11176   9.228   7.577   4.441  0.5523  3.6013 -0.6607
   83MOL0     H11177   9.304   7.746   4.260 -0.9148 -0.5349 -3.1431
   83MOL0     H11178   9.405   7.622   4.197  0.6785  0.5151  0.1875
   83MOL0     H11179   9.551   7.759   4.341 -0.0117 -0.2308 -2.4382
   83MOL0     H11180   9.438   7.740   4.472  2.3867  3.2099 -1.8457
   83MOL0     H11181   9.662   7.562   4.386  0.2950  1.0784  2.6810
   83MOL0     H11182   9.506   7.471   4.377 -2.0802  1.3758  0.2688
   83MOL0     H11183   9.608   7.431   4.605  0.4927 -0.4129  0.5291
   83MOL0     H11184   9.629   7.607   4.610 -2.3112  1.5377 -1.4186
   83MOL0     H11185   8.810   7.568   4.388 -1.1911  1.2400 -0.4005
   83MOL0     H11186   8.650   7.612   4.575 -1.6904  1.3724 -1.8547
   83MOL0     H11187   8.389   7.571   4.921 -0.0541 -0.0001  0.0999
   83MOL0     H11188   8.236   7.618   5.091  1.0694 -0.8161  0.4169
   83MOL0     H11189   6.160   7.772   5.337 -0.3188  1.1737 -0.3667
   83MOL0     H11190   5.941   7.896   5.384 -2.1448  0.1296 -0.4031
   83MOL0     H11191   5.476   7.760   5.448 -1.1939  0.2318  3.1367
   83MOL0     H11192   5.281   7.840   5.564 -3.0844  1.8389  0.3121
   83MOL0     H11193   5.096   8.185   5.364  0.2217 -0.4981  0.2074
   83MOL0     H11194   5.179   8.284   5.488 -0.4359  0.9831  0.2848
   83MOL0     H11195   4.942   8.315   5.461 -1.7579 -1.1843 -0.2045
   83MOL0     H11196   4.972   8.264   5.629 -0.0737 -1.8473  0.7985
   83MOL0     H11197   4.924   8.030   5.558  1.0468  2.3418  0.7617
   83MOL0     H11198   4.859   8.077   5.410 -0.1432  1.3355 -0.8122
   83MOL0     H11199   4.693   8.038   5.610  0.5828 -0.1975  1.7024
   83MOL0     H11200   4.748   8.174   5.689 -0.4929 -3.0380  0.6749
   83MOL0     H11201   4.554   8.384   5.373  2.0804  1.2202 -0.9954
   83MOL0     H11202   5.319   8.199   5.333  0.5358  0.6421  0.3105
   83MOL0     H11203   5.472   8.247   5.173 -0.0643  0.2889 -0.0556
   83MOL0     H11204   5.619   8.190   5.250 -1.0081  1.7072  1.1187
   83MOL0     H11205   5.555   8.115   5.104 -0.3482  0.3911  0.1722
   84MOL0     O11206   6.056   8.812   1.703  0.5962  0.4865  0.1565
   84MOL0     C11207   6.034   8.816   1.585 -0.7201 -0.7693  0.1642
   84MOL0     O11208   6.119   8.885   1.495  0.2471 -0.0120 -0.9569
   84MOL0     C11209   6.256   8.885   1.501 -0.5977  0.2217 -0.0359
   84MOL0     C11210   6.332   8.797   1.585  0.2048 -0.4673  0.3941
   84MOL0     C11211   6.468   8.803   1.589 -0.6708 -0.3563 -0.6407
   84MOL0     C11212   6.537   8.892   1.503  0.4896  0.6312 -0.4140
   84MOL0     O11213   6.670   8.924   1.510  0.3342  0.6019 -0.9849
   84MOL0     C11214   6.751   8.841   1.423  0.1503  0.6727  0.8003
   84MOL0     C11215   6.900   8.867   1.411 -0.9950 -0.2656 -0.5228
   84MOL0     C11216   6.930   9.006   1.362  0.4801  0.4838  0.2320
   84MOL0     C11217   7.082   9.024   1.366  0.9181 -0.3492 -0.4552
   84MOL0     C11218   7.099   9.176   1.371 -0.1044 -0.3402  0.4522
   84MOL0     C11219   7.241   9.226   1.395 -0.4093  0.5115 -0.6654
   84MOL0     C11220   7.256   9.356   1.328  0.4245  0.6953  0.4273
   84MOL0     C11221   7.381   9.430   1.354 -0.6833  0.2065  0.3590
   84MOL0     N11222   7.502   9.356   1.310 -0.0621  0.3717  0.5695
   84MOL0     C11223   7.619   9.338   1.382  0.0431 -0.0232 -0.9776
   84MOL0     C11224   7.699   9.266   1.304 -0.4394  0.1482  0.3612
   84MOL0     C11225   7.828   9.195   1.319  0.5284  0.7717 -0.0697
   84MOL0     C11226   7.952   9.290   1.296  0.5341 -0.0547 -0.1733
   84MOL0     C11227   8.093   9.240   1.300  0.0787  0.2975  0.5019
   84MOL0     C11228   8.200   9.356   1.299 -0.1100 -0.1182 -0.0937
   84MOL0     O11229   8.335   9.308   1.284  0.7724  0.0365  0.0340
   84MOL0     C11230   8.444   9.395   1.312 -0.1919 -0.4057 -0.7042
   84MOL0     C11231   8.443   9.520   1.386  0.2495  0.4250  0.7707
   84MOL0     C11232   8.563   9.600   1.394 -0.2602  0.2015 -0.0591
   84MOL0     C11233   8.683   9.541   1.355  0.2848  0.7584  0.2334
   84MOL0     C11234   8.814   9.608   1.372  0.5322 -0.5311 -1.3684
   84MOL0     O11235   8.924   9.541   1.327 -0.1308 -0.1704  0.0005
   84MOL0     C11236   9.043   9.604   1.331 -0.3338  0.1976 -0.1761
   84MOL0     C11237   9.128   9.585   1.440  0.4811  0.2973  0.5851
   84MOL0     C11238   9.258   9.641   1.438  0.3474  0.4241  0.0951
   84MOL0     C11239   9.298   9.727   1.342  0.2677  0.1065 -0.9749
   84MOL0     O11240   9.420   9.786   1.334 -0.1197  0.0882 -0.0944
   84MOL0     C11241   9.452   9.884   1.439  0.6268 -0.5602  0.0673
   84MOL0     C11242   9.603   9.915   1.420  0.1065 -0.0950  0.1442
   84MOL0     C11243   9.662  10.016   1.516 -0.1879 -0.3356  0.2351
   84MOL0     C11244   9.569  10.138   1.534  0.1450  0.0429  0.1171
   84MOL0     C11245   9.631  10.242   1.634 -0.7747  0.0239  0.7270
   84MOL0     C11246   9.621  10.189   1.774  0.0375 -0.4124 -0.0303
   84MOL0     C11247   9.480  10.158   1.823  0.2039 -0.1631  0.4295
   84MOL0     C11248   9.385  10.277   1.808 -0.0739  0.9959 -0.3359
   84MOL0    Cl11249   9.419  10.406   1.920 -0.3781 -0.0226 -0.3939
   84MOL0     C11250   9.214   9.753   1.234  0.3173 -0.5351  0.6518
   84MOL0     C11251   9.087   9.689   1.227 -0.5228 -0.2214 -0.3822
   84MOL0     O11252   8.813   9.714   1.441 -0.8446 -0.1097 -0.7432
   84MOL0     C11253   8.686   9.417   1.281 -0.7749  0.1784  0.1929
   84MOL0     C11254   8.566   9.348   1.259  0.0894 -0.8350 -0.8907
   84MOL0     N11255   7.633   9.244   1.189 -0.6742 -0.4037 -0.2902
   84MOL0     N11256   7.520   9.297   1.187 -0.3108 -0.0754 -0.1363
   84MOL0     C11257   6.462   8.974   1.420  0.0972  0.8253  0.3967
   84MOL0     C11258   6.324   8.969   1.420  0.4308 -0.4440  0.1710
   84MOL0     C11259   5.899   8.761   1.529  0.3179 -0.0494  0.1648
   84MOL0     C11260   5.909   8.724   1.394 -0.9047 -0.6025  0.1747
   84MOL0     C11261   5.801   8.670   1.324 -0.5074 -0.1794  0.7385
   84MOL0     C11262   5.679   8.652   1.390  1.0497 -0.1758 -1.0308
   84MOL0     O11263   5.575   8.600   1.320 -0.5023  0.0436 -0.2649
   84MOL0     C11264   5.451   8.558   1.393 -0.4215 -0.7856  0.3718
   84MOL0     C11265   5.330   8.506   1.307 -0.0150 -0.6735  0.6182
   84MOL0     C11266   5.217   8.460   1.398  0.4717 -0.1217 -0.1546
   84MOL0     C11267   5.103   8.401   1.310 -0.1011  0.4224  0.2673
   84MOL0     C11268   5.013   8.312   1.379 -1.1826 -0.1490 -0.0478
   84MOL0     C11269   4.919   8.258   1.433  0.1146 -0.5510  0.8501
   84MOL0     C11270   5.669   8.693   1.529 -0.1822  0.1906 -0.0510
   84MOL0     C11271   5.775   8.750   1.601  0.4869 -0.1151 -0.0272
   84MOL0     C11272   5.756   8.781   1.747  0.2316 -0.5954 -0.5068
   84MOL0     H11273   6.281   8.718   1.639  1.9165 -3.9063 -2.5782
   84MOL0     H11274   6.521   8.742   1.661 -1.0538  1.4837  1.2910
   84MOL0     H11275   6.747   8.738   1.461 -0.4590  0.4071  0.0568
   84MOL0     H11276   6.706   8.851   1.324 -1.1634  1.5470  1.4508
   84MOL0     H11277   6.946   8.791   1.347  1.4426  0.7344 -0.0623
   84MOL0     H11278   6.944   8.860   1.511 -0.4233  1.2142 -0.6363
   84MOL0     H11279   6.876   9.082   1.420 -1.7331  1.9478 -3.4062
   84MOL0     H11280   6.880   9.014   1.265 -1.5261  0.9711  1.2485
   84MOL0     H11281   7.130   8.971   1.449  1.8303 -0.6670 -1.1678
   84MOL0     H11282   7.122   8.981   1.274 -1.6249 -0.0644 -1.7654
   84MOL0     H11283   7.060   9.217   1.278  1.8369 -1.8996 -1.1433
   84MOL0     H11284   7.041   9.210   1.457 -0.9004 -1.1410  0.2403
   84MOL0     H11285   7.245   9.223   1.504 -2.3366 -4.1864 -0.5145
   84MOL0     H11286   7.314   9.152   1.364 -1.3073 -1.3792  1.4773
   84MOL0     H11287   7.173   9.425   1.346  0.9293  2.0024 -1.8565
   84MOL0     H11288   7.242   9.329   1.223 -1.2740 -0.0496  0.8146
   84MOL0     H11289   7.391   9.526   1.303 -1.3684 -0.0721 -0.3040
   84MOL0     H11290   7.395   9.448   1.461 -4.6532 -0.9785  1.2441
   84MOL0     H11291   7.651   9.363   1.483 -0.9896  0.4909 -0.7706
   84MOL0     H11292   7.841   9.162   1.422  2.9279 -1.1943 -0.9085
   84MOL0     H11293   7.840   9.107   1.255  1.9204 -1.2820  2.8223
   84MOL0     H11294   7.938   9.349   1.205  0.7094  0.3657  0.0676
   84MOL0     H11295   7.937   9.360   1.379 -1.9440  1.3267 -1.6621
   84MOL0     H11296   8.115   9.173   1.216  0.2490 -0.9607  1.5114
   84MOL0     H11297   8.119   9.182   1.390 -1.4086 -0.3395  0.5529
   84MOL0     H11298   8.183   9.412   1.392 -0.5085  0.0692 -0.2786
   84MOL0     H11299   8.186   9.419   1.211 -1.0744 -0.2089 -0.0234
   84MOL0     H11300   8.345   9.553   1.420 -1.4649 -1.4888 -1.9495
   84MOL0     H11301   8.553   9.700   1.434 -2.2046 -0.0191  0.1056
   84MOL0     H11302   9.099   9.523   1.525  0.7173 -1.1424 -0.3477
   84MOL0     H11303   9.325   9.623   1.522  1.5075  0.4163 -0.8051
   84MOL0     H11304   9.397   9.978   1.424  0.3478 -0.8561 -0.7834
   84MOL0     H11305   9.441   9.843   1.540  0.9192 -0.9950 -0.0757
   84MOL0     H11306   9.655   9.819   1.432 -1.5091 -0.7983  1.9853
   84MOL0     H11307   9.614   9.956   1.319  1.9293 -0.5704  0.0999
   84MOL0     H11308   9.685   9.960   1.608 -0.6157 -1.1602 -0.1439
   84MOL0     H11309   9.759  10.045   1.475  1.0288 -4.7222 -0.5801
   84MOL0     H11310   9.473  10.100   1.569  1.5978 -2.6536  1.5429
   84MOL0     H11311   9.553  10.186   1.437  0.1390  1.2029  0.6783
   84MOL0     H11312   9.598  10.346   1.626 -1.0153 -0.0464  0.7918
   84MOL0     H11313   9.735  10.264   1.608 -1.1709  2.6925  1.0866
   84MOL0     H11314   9.685  10.102   1.792  1.6894  0.0215 -3.1450
   84MOL0     H11315   9.658  10.264   1.845 -0.9464  0.0276  0.0377
   84MOL0     H11316   9.484  10.142   1.931  1.4746  0.5481  0.5177
   84MOL0     H11317   9.440  10.066   1.781 -2.4738  0.2482  1.8379
   84MOL0     H11318   9.388  10.311   1.704 -1.3278 -0.2436 -0.7974
   84MOL0     H11319   9.287  10.232   1.827  0.0233  0.3570 -1.2680
   84MOL0     H11320   9.241   9.826   1.158  2.9737 -1.3762  0.6813
   84MOL0     H11321   9.029   9.721   1.141  0.7094 -0.9788 -1.5566
   84MOL0     H11322   8.782   9.374   1.255 -0.8643 -0.4084  0.8030
   84MOL0     H11323   8.570   9.264   1.192  4.0841 -1.8474  0.3543
   84MOL0     H11324   6.515   9.053   1.366 -1.9849  1.8735 -0.2087
   84MOL0     H11325   6.265   9.042   1.366 -0.3939 -1.6516 -0.6159
   84MOL0     H11326   6.008   8.731   1.352 -0.7712 -0.7254  0.4626
   84MOL0     H11327   5.802   8.640   1.220  0.3823 -1.0213  0.9779
   84MOL0     H11328   5.407   8.647   1.440  1.6334  0.5723 -0.1301
   84MOL0     H11329   5.470   8.474   1.460  1.7539 -1.5358 -1.0915
   84MOL0     H11330   5.352   8.427   1.235 -1.6203  1.0274 -1.9299
   84MOL0     H11331   5.289   8.592   1.253 -0.1046 -0.6552  0.7174
   84MOL0     H11332   5.173   8.547   1.448 -1.9046 -0.2972 -1.7843
   84MOL0     H11333   5.244   8.391   1.479 -0.4665  0.9379  1.1118
   84MOL0     H11334   5.041   8.483   1.272  0.7837  0.7815 -0.4564
   84MOL0     H11335   5.139   8.354   1.217 -1.3140  0.7237 -0.3766
   84MOL0     H11336   4.846   8.206   1.491  1.1696 -0.2727  2.5272
   84MOL0     H11337   5.576   8.656   1.573  0.0750  0.2065  0.5157
   84MOL0     H11338   5.829   8.732   1.812 -0.4501  1.4942  2.0232
   84MOL0     H11339   5.779   8.888   1.760 -2.6319  0.0600 -0.2511
   84MOL0     H11340   5.655   8.762   1.784 -1.4602  1.9840 -3.3787
   85MOL0     O11341   1.718   2.313   7.878  0.7599  0.3148 -0.5702
   85MOL0     C11342   1.703   2.348   7.992 -0.1763 -0.0520  0.0532
   85MOL0     O11343   1.781   2.303   8.100  0.7859 -0.6436  0.6672
   85MOL0     C11344   1.897   2.236   8.086 -0.4082  0.0122 -0.0411
   85MOL0     C11345   1.994   2.251   8.197 -0.1046  0.3601  0.4342
   85MOL0     C11346   2.116   2.180   8.192 -0.0637  0.0732 -0.3583
   85MOL0     C11347   2.147   2.101   8.081 -0.0075 -0.6515  0.0806
   85MOL0     O11348   2.257   2.022   8.098 -0.2145 -0.7019  0.3199
   85MOL0     C11349   2.320   1.967   7.979  0.0673  0.2927 -0.4314
   85MOL0     C11350   2.420   2.064   7.903 -0.1056  0.4477 -0.1946
   85MOL0     C11351   2.525   2.120   7.997 -0.5156 -0.4128 -0.2268
   85MOL0     C11352   2.659   2.057   7.969 -1.0312  0.4335  0.2009
   85MOL0     C11353   2.765   2.097   8.078  0.0152 -0.4710  0.0671
   85MOL0     C11354   2.709   2.069   8.225  0.5338  0.2998  0.3305
   85MOL0     C11355   2.821   2.069   8.332 -0.3712 -0.1726  0.0567
   85MOL0     C11356   2.885   2.202   8.363  0.4569 -0.3326 -0.0311
   85MOL0     N11357   2.999   2.202   8.455 -0.5208  0.0062  0.5935
   85MOL0     C11358   3.127   2.177   8.429 -0.7093  0.8076  0.2197
   85MOL0     C11359   3.187   2.165   8.551 -0.1298 -0.4172  0.4256
   85MOL0     C11360   3.324   2.121   8.578 -0.8735  1.0389 -0.1716
   85MOL0     C11361   3.330   1.977   8.639 -0.6062  0.0866 -0.3145
   85MOL0     C11362   3.447   1.878   8.592 -0.1548  0.8165 -0.1714
   85MOL0     C11363   3.583   1.950   8.616  0.6736  0.5595  0.0912
   85MOL0     O11364   3.679   1.871   8.556 -0.2805 -0.0480  0.2862
   85MOL0     C11365   3.816   1.886   8.586 -0.1665 -0.4361 -0.1623
   85MOL0     C11366   3.905   1.795   8.522 -0.5622 -0.2042  0.2162
   85MOL0     C11367   4.041   1.809   8.557  0.0668  0.6264 -0.7785
   85MOL0     C11368   4.092   1.897   8.650  0.1614  0.6484 -0.0308
   85MOL0     C11369   4.236   1.893   8.701  0.1843  0.7372  0.2482
   85MOL0     O11370   4.268   1.995   8.785 -0.1573 -0.0277 -0.1778
   85MOL0     C11371   4.379   1.963   8.861  1.2667  0.8024 -1.0156
   85MOL0     C11372   4.368   1.864   8.957  0.0432  0.4937  0.5190
   85MOL0     C11373   4.471   1.835   9.048 -0.5739  0.4415  0.0811
   85MOL0     C11374   4.588   1.908   9.039 -0.2500  0.0123 -0.2165
   85MOL0     O11375   4.684   1.898   9.133  0.2789 -0.1928  0.2600
   85MOL0     C11376   4.694   1.768   9.198 -1.0676  0.2446 -0.1000
   85MOL0     C11377   4.801   1.793   9.305 -0.4994 -0.5314 -0.0385
   85MOL0     C11378   4.828   1.663   9.373  0.1956 -0.1798  1.0662
   85MOL0     C11379   4.919   1.672   9.486  0.3871 -0.0168 -0.7840
   85MOL0     C11380   4.844   1.719   9.613 -0.0265  0.7363 -0.0527
   85MOL0     C11381   4.943   1.728   9.732  0.3095 -0.2774  0.4284
   85MOL0     C11382   4.868   1.789   9.849 -0.2973 -0.1926 -1.2061
   85MOL0     C11383   4.939   1.776   9.987  0.6050 -1.1749 -0.0116
   85MOL0    Cl11384   5.087   1.859   9.991 -0.1693 -0.4638 -0.1299
   85MOL0     C11385   4.602   2.011   8.945  0.0302 -0.4310 -0.3699
   85MOL0     C11386   4.495   2.034   8.849 -0.2478 -0.6990 -0.2075
   85MOL0     O11387   4.307   1.803   8.666  0.1310 -0.0956  0.4756
   85MOL0     C11388   4.000   1.983   8.712 -1.0014  0.3040 -0.4378
   85MOL0     C11389   3.863   1.987   8.671  0.0990  0.0773 -0.0529
   85MOL0     N11390   3.104   2.182   8.655  0.3151 -0.5367  0.2767
   85MOL0     N11391   2.987   2.208   8.589 -0.2934  0.5558 -0.6462
   85MOL0     C11392   2.063   2.097   7.972  0.3508  0.6004 -0.1615
   85MOL0     C11393   1.945   2.167   7.975  0.3312  0.3570 -0.0398
   85MOL0     C11394   1.590   2.431   8.036  0.0384 -0.2634 -0.4273
   85MOL0     C11395   1.546   2.447   8.170 -0.3816  1.3760 -0.2075
   85MOL0     C11396   1.432   2.517   8.205 -0.0496 -0.9444  0.0990
   85MOL0     C11397   1.353   2.570   8.103  0.7332  0.1100  0.0417
   85MOL0     O11398   1.230   2.629   8.131  0.2748 -0.0737 -0.5632
   85MOL0     C11399   1.186   2.643   8.267  0.6674 -0.7311 -0.3775
   85MOL0     C11400   1.043   2.710   8.272 -0.0716  0.0154  0.2833
   85MOL0     C11401   0.938   2.594   8.274  0.5193  0.0466  0.7044
   85MOL0     C11402   0.804   2.653   8.252 -0.9609 -0.4014  0.7100
   85MOL0     C11403   0.704   2.549   8.234 -0.8233  0.5914 -0.1791
   85MOL0     C11404   0.618   2.466   8.219 -0.0419 -0.2704  0.8922
   85MOL0     C11405   1.401   2.576   7.970 -0.1369 -0.5964 -0.1884
   85MOL0     C11406   1.525   2.519   7.938  0.0271 -0.8059  0.0886
   85MOL0     C11407   1.568   2.537   7.790  0.6766 -0.5260  0.1711
   85MOL0     H11408   1.955   2.302   8.285 -3.2979 -2.0743  0.6127
   85MOL0     H11409   2.182   2.184   8.278 -2.1290 -0.0392  1.3073
   85MOL0     H11410   2.385   1.893   8.025  0.3657 -0.1982 -1.6028
   85MOL0     H11411   2.258   1.911   7.909 -1.3153  2.0587 -0.6997
   85MOL0     H11412   2.349   2.143   7.877  0.0135  1.5478  2.5299
   85MOL0     H11413   2.470   2.012   7.821 -1.0061 -2.2250  0.8388
   85MOL0     H11414   2.494   2.082   8.094 -0.3854 -2.0287 -0.7746
   85MOL0     H11415   2.521   2.228   7.984 -0.7908 -0.5168 -1.1234
   85MOL0     H11416   2.653   1.948   7.967 -2.8287  0.4675  1.2318
   85MOL0     H11417   2.704   2.099   7.878  0.8160  0.8821  1.2719
   85MOL0     H11418   2.853   2.034   8.063  0.0024 -0.8128  1.3490
   85MOL0     H11419   2.793   2.202   8.068  2.1111 -1.0730 -1.0084
   85MOL0     H11420   2.641   2.150   8.255  1.0660  1.6999 -2.0178
   85MOL0     H11421   2.662   1.971   8.231  1.1155 -0.0383 -0.4986
   85MOL0     H11422   2.896   1.998   8.294 -3.3570 -2.4427 -2.1175
   85MOL0     H11423   2.783   2.025   8.424  1.1133 -2.5186 -0.3584
   85MOL0     H11424   2.916   2.242   8.266  0.0384  0.1758  0.0393
   85MOL0     H11425   2.815   2.272   8.411 -0.5622 -1.7702  0.6585
   85MOL0     H11426   3.179   2.171   8.334 -1.9244  1.5870 -0.5088
   85MOL0     H11427   3.370   2.105   8.480 -0.7928 -0.5261  0.0991
   85MOL0     H11428   3.376   2.194   8.642  1.2833  0.6181 -1.3546
   85MOL0     H11429   3.315   1.976   8.747 -0.3545 -1.5144 -0.2756
   85MOL0     H11430   3.246   1.926   8.590  0.6095 -0.1165 -2.3030
   85MOL0     H11431   3.431   1.846   8.489  0.5138 -0.3931  0.0832
   85MOL0     H11432   3.439   1.789   8.655 -1.2613  1.0832  0.0833
   85MOL0     H11433   3.596   1.959   8.724  0.3342 -1.1447  0.2972
   85MOL0     H11434   3.579   2.049   8.570  1.1517  1.1229  1.2204
   85MOL0     H11435   3.885   1.708   8.459  0.9398 -1.8037  1.8283
   85MOL0     H11436   4.109   1.734   8.520 -2.4212 -1.4007 -1.5751
   85MOL0     H11437   4.279   1.806   8.981  0.2430 -0.0231  0.0443
   85MOL0     H11438   4.452   1.754   9.117 -4.5311  0.1831 -1.0301
   85MOL0     H11439   4.602   1.741   9.250 -1.1621  1.8120  0.5922
   85MOL0     H11440   4.725   1.691   9.127 -1.7459  2.1766 -2.6257
   85MOL0     H11441   4.897   1.829   9.266 -0.5238 -0.2215  0.1891
   85MOL0     H11442   4.767   1.873   9.370 -2.4583  0.1060 -1.7314
   85MOL0     H11443   4.734   1.617   9.404  0.7138 -2.3803 -0.4319
   85MOL0     H11444   4.872   1.592   9.303  0.1201  1.1406 -0.3935
   85MOL0     H11445   5.001   1.743   9.471  2.7972 -2.2571  0.9850
   85MOL0     H11446   4.967   1.577   9.507  1.1718  1.0863  3.4241
   85MOL0     H11447   4.753   1.660   9.628  0.0424  0.8188  0.7377
   85MOL0     H11448   4.804   1.819   9.595 -1.3039 -0.1452 -2.6563
   85MOL0     H11449   4.978   1.626   9.754 -0.0224 -0.6560 -0.7234
   85MOL0     H11450   5.024   1.798   9.708 -0.0747  0.3925  1.0386
   85MOL0     H11451   4.770   1.743   9.862  0.2358 -0.7326  1.4687
   85MOL0     H11452   4.835   1.891   9.832 -1.2889 -0.5297 -1.3332
   85MOL0     H11453   4.876   1.815  10.068  1.8365  0.5727  0.1471
   85MOL0     H11454   4.950   1.673  10.021 -1.7195 -1.8246 -0.9582
   85MOL0     H11455   4.691   2.073   8.937 -0.2334  0.0169  0.1344
   85MOL0     H11456   4.516   2.105   8.769  0.8833 -0.8520 -0.0596
   85MOL0     H11457   4.027   2.052   8.792  0.2011 -0.2120 -0.3752
   85MOL0     H11458   3.800   2.055   8.728  0.1168 -1.9203  2.5489
   85MOL0     H11459   2.085   2.035   7.885  0.1197  1.2078 -0.6656
   85MOL0     H11460   1.885   2.160   7.885  1.4415  1.4387 -0.9024
   85MOL0     H11461   1.602   2.399   8.250 -2.3406  2.1310  1.7515
   85MOL0     H11462   1.401   2.530   8.308 -0.8821 -1.9992  0.0031
   85MOL0     H11463   1.262   2.699   8.321  1.1349 -2.4449  0.7977
   85MOL0     H11464   1.173   2.546   8.316  1.1901 -0.9822 -0.7317
   85MOL0     H11465   1.032   2.769   8.181  2.0151  0.9745  0.5798
   85MOL0     H11466   1.021   2.776   8.357 -2.2921  0.2523 -0.4159
   85MOL0     H11467   0.941   2.535   8.365 -0.9107 -0.2683  0.5749
   85MOL0     H11468   0.967   2.539   8.184  1.9945  1.3880  0.3041
   85MOL0     H11469   0.785   2.727   8.330 -1.9270  0.9782 -0.7705
   85MOL0     H11470   0.796   2.711   8.160 -0.3583 -1.9782 -0.3941
   85MOL0     H11471   0.555   2.380   8.212 -0.4017 -0.0280  1.1418
   85MOL0     H11472   1.331   2.620   7.898  1.7498  3.7916  0.3174
   85MOL0     H11473   1.534   2.631   7.746 -0.6833  0.3857  2.9578
   85MOL0     H11474   1.677   2.545   7.785  0.6952 -0.0840  1.0265
   85MOL0     H11475   1.537   2.447   7.737  1.0577 -0.5933  0.0580
   86MOL0     O11476   1.526   2.915   9.759 -0.0393 -0.1668 -0.4355
   86MOL0     C11477   1.446   2.954   9.673  0.4086 -0.5038 -0.8637
   86MOL0     O11478   1.473   3.045   9.575 -0.2248 -0.0015  0.1127
   86MOL0     C11479   1.610   3.058   9.561 -0.2323  0.2343  0.4226
   86MOL0     C11480   1.687   2.955   9.498 -0.4139  0.0557 -0.8362
   86MOL0     C11481   1.828   2.964   9.485 -0.8395 -0.0337 -1.0659
   86MOL0     C11482   1.899   3.085   9.532 -0.4383  0.6812  0.0448
   86MOL0     O11483   2.039   3.082   9.525  0.3450 -0.6845 -0.3100
   86MOL0     C11484   2.121   3.158   9.614 -0.1277 -0.8620  0.3469
   86MOL0     C11485   2.227   3.237   9.545 -0.0227  0.0938  0.6262
   86MOL0     C11486   2.345   3.266   9.641  0.2796 -1.0544 -0.4422
   86MOL0     C11487   2.478   3.293   9.559  1.0083  0.0635 -0.1742
   86MOL0     C11488   2.592   3.327   9.651 -0.3675 -0.6390  0.4750
   86MOL0     C11489   2.657   3.208   9.720  0.0572  0.1840  0.1759
   86MOL0     C11490   2.766   3.255   9.812  0.0091  0.5680  0.0906
   86MOL0     C11491   2.717   3.281   9.958  0.7450  0.1197 -0.9409
   86MOL0     N11492   2.812   3.325  10.059  0.3484 -0.0273  0.2200
   86MOL0     C11493   2.928   3.249  10.079 -0.0860 -0.4009 -0.4109
   86MOL0     C11494   2.975   3.303  10.202 -1.0726  0.2583  1.1079
   86MOL0     C11495   3.102   3.259  10.265 -0.5699  0.2831 -0.3485
   86MOL0     C11496   3.095   3.112  10.321  0.1822  0.1709 -0.6222
   86MOL0     C11497   3.232   3.077  10.391  1.1743 -0.3706 -0.1323
   86MOL0     C11498   3.263   3.165  10.507 -0.2559 -0.3139 -0.1975
   86MOL0     O11499   3.392   3.124  10.560  0.2167  0.7979 -0.0329
   86MOL0     C11500   3.471   3.206  10.631 -0.3057  0.3229  0.4699
   86MOL0     C11501   3.593   3.148  10.663  0.5899  0.7499 -0.0398
   86MOL0     C11502   3.690   3.211  10.732  0.4463  0.0909 -0.3229
   86MOL0     C11503   3.660   3.344  10.778  0.5998 -0.0802 -0.3692
   86MOL0     C11504   3.765   3.426  10.831  0.4024  0.3121 -0.4063
   86MOL0     O11505   3.732   3.549  10.870  0.3460  0.2201  0.1755
   86MOL0     C11506   3.822   3.652  10.887 -0.0393  0.4493 -0.2391
   86MOL0     C11507   3.953   3.649  10.834  0.2567 -0.0675 -0.0234
   86MOL0     C11508   4.048   3.747  10.876  0.1591  0.7932 -0.1620
   86MOL0     C11509   4.010   3.850  10.960  0.8946  0.8063 -0.9723
   86MOL0     O11510   4.113   3.928  11.000  0.1391 -0.1682  0.1513
   86MOL0     C11511   4.085   4.019  11.119  0.1139  0.2014 -0.8022
   86MOL0     C11512   4.201   4.107  11.129  0.2612  0.1559  0.2258
   86MOL0     C11513   4.343   4.038  11.132 -0.4322 -0.7796  0.6268
   86MOL0     C11514   4.452   4.142  11.155 -0.3452  0.7263 -0.5247
   86MOL0     C11515   4.584   4.090  11.143  0.6838 -0.2815  0.5108
   86MOL0     C11516   4.701   4.177  11.188 -0.1512 -1.1226 -0.6055
   86MOL0     C11517   4.824   4.097  11.238 -0.8492 -0.7386 -0.0503
   86MOL0     C11518   4.940   4.199  11.278 -0.5505 -0.0577  0.1034
   86MOL0    Cl11519   4.876   4.348  11.361 -0.0887  0.1030 -0.2431
   86MOL0     C11520   3.871   3.850  11.010 -0.2832 -0.0784  1.2183
   86MOL0     C11521   3.775   3.758  10.974  0.1231  0.9151 -0.1958
   86MOL0     O11522   3.881   3.379  10.849  0.0178  0.9458 -0.1441
   86MOL0     C11523   3.534   3.402  10.761 -0.4656 -0.4101 -0.1297
   86MOL0     C11524   3.435   3.331  10.689 -0.5301 -1.3649 -0.2538
   86MOL0     N11525   2.890   3.396  10.250 -0.1691  0.6580  0.3641
   86MOL0     N11526   2.796   3.403  10.166  0.2830 -0.8340  1.0380
   86MOL0     C11527   1.821   3.188   9.590 -0.4107  0.4773  0.1605
   86MOL0     C11528   1.676   3.175   9.598 -0.7740  0.2045  0.2204
   86MOL0     C11529   1.300   2.910   9.687  0.4298  1.0045 -0.6894
   86MOL0     C11530   1.274   2.793   9.755 -0.5623 -0.5921 -0.1870
   86MOL0     C11531   1.146   2.733   9.772  0.3478  0.6099  0.7539
   86MOL0     C11532   1.038   2.801   9.723 -0.2585  0.4535  0.2379
   86MOL0     O11533   0.918   2.740   9.735 -0.6232  0.6935  0.8450
   86MOL0     C11534   0.892   2.627   9.650 -0.0989  0.2505  0.1090
   86MOL0     C11535   0.805   2.530   9.726 -0.1838 -0.3029 -0.2259
   86MOL0     C11536   0.884   2.484   9.851 -0.0894  0.9794 -0.2525
   86MOL0     C11537   0.815   2.366   9.926 -0.9613 -0.4987  0.4478
   86MOL0     C11538   0.896   2.315  10.036  0.2444  0.6739 -0.5526
   86MOL0     C11539   0.973   2.278  10.128  0.1661  0.2845  0.0135
   86MOL0     C11540   1.050   2.926   9.665 -0.6958 -0.1194 -0.1376
   86MOL0     C11541   1.186   2.971   9.635  0.2927  0.0545  0.6240
   86MOL0     C11542   1.195   3.100   9.551 -0.5015  0.2418  0.0084
   86MOL0     H11543   1.641   2.860   9.472  1.1163 -0.9941  0.1488
   86MOL0     H11544   1.888   2.886   9.440 -0.0818  1.4431 -2.7456
   86MOL0     H11545   2.059   3.224   9.675 -0.6917  0.6523 -1.7291
   86MOL0     H11546   2.173   3.086   9.677  1.2373  1.7743  2.4192
   86MOL0     H11547   2.175   3.329   9.516 -1.5769 -0.6053  1.0748
   86MOL0     H11548   2.264   3.183   9.458 -2.1057 -1.0488  0.3823
   86MOL0     H11549   2.356   3.183   9.711 -2.3328 -0.8735  0.2820
   86MOL0     H11550   2.323   3.354   9.701  1.3704  1.2112 -3.1200
   86MOL0     H11551   2.495   3.202   9.501  0.8063 -1.6172  2.2598
   86MOL0     H11552   2.460   3.376   9.490 -0.9202  3.3029  3.7535
   86MOL0     H11553   2.671   3.374   9.591 -2.1533 -1.2355 -2.5387
   86MOL0     H11554   2.569   3.399   9.730  2.2413  0.8690  0.0071
   86MOL0     H11555   2.581   3.150   9.774  0.1006 -0.8551 -0.8492
   86MOL0     H11556   2.700   3.143   9.644  0.3901  0.9915 -0.3502
   86MOL0     H11557   2.826   3.342   9.784  1.6252  0.5363  2.9721
   86MOL0     H11558   2.831   3.170   9.835 -0.8822 -0.3023 -0.5508
   86MOL0     H11559   2.631   3.349   9.950  0.2737 -0.0140  1.8430
   86MOL0     H11560   2.681   3.185   9.996  2.9382  0.3779  2.1557
   86MOL0     H11561   2.956   3.163  10.019  0.1668 -1.5589  1.3006
   86MOL0     H11562   3.180   3.274  10.191  1.7094 -2.7579  1.2327
   86MOL0     H11563   3.124   3.335  10.341  1.1206 -0.8443  0.3188
   86MOL0     H11564   3.013   3.104  10.392 -1.2145 -2.2103 -2.3395
   86MOL0     H11565   3.075   3.046  10.236 -0.1328 -1.8519  0.9413
   86MOL0     H11566   3.319   3.090  10.325  2.6612 -0.6201  1.7130
   86MOL0     H11567   3.215   2.976  10.428 -3.9844 -0.3014 -1.5865
   86MOL0     H11568   3.187   3.153  10.584  2.1741  0.9871  2.6137
   86MOL0     H11569   3.274   3.269  10.474 -3.5063 -1.0713 -4.4397
   86MOL0     H11570   3.591   3.047  10.625 -0.3475  1.0559 -0.8456
   86MOL0     H11571   3.784   3.166  10.760  0.3622 -1.2603 -2.0535
   86MOL0     H11572   3.988   3.581  10.757  1.7937  0.5323  0.1145
   86MOL0     H11573   4.150   3.745  10.839  1.6096  0.5497  3.4137
   86MOL0     H11574   3.997   4.083  11.110 -0.7276 -0.7818  0.1910
   86MOL0     H11575   4.073   3.963  11.212  0.1270 -0.2721 -1.0837
   86MOL0     H11576   4.186   4.175  11.045 -0.6254  0.0061  0.2475
   86MOL0     H11577   4.178   4.160  11.223  0.4879 -1.4853  1.2495
   86MOL0     H11578   4.347   3.952  11.199  0.6482 -0.7152  0.6551
   86MOL0     H11579   4.358   3.993  11.033 -0.0140 -1.3343  0.9397
   86MOL0     H11580   4.448   4.183  11.257 -1.1660 -1.3721  0.3457
   86MOL0     H11581   4.427   4.226  11.089 -0.6775  1.6845  0.7583
   86MOL0     H11582   4.607   4.053  11.043 -0.0321  2.8279 -0.9409
   86MOL0     H11583   4.588   4.001  11.206  2.3215 -1.7003 -1.4883
   86MOL0     H11584   4.722   4.241  11.102  0.6913  0.5007  0.7488
   86MOL0     H11585   4.673   4.246  11.268  2.0707  0.3057 -0.9841
   86MOL0     H11586   4.874   4.038  11.161  1.4880  0.5339  0.4154
   86MOL0     H11587   4.791   4.031  11.319 -2.0579 -1.8711 -1.4012
   86MOL0     H11588   5.015   4.140  11.331  2.2547  1.3500 -2.0045
   86MOL0     H11589   4.997   4.230  11.190 -1.4061  0.4673 -0.2820
   86MOL0     H11590   3.834   3.933  11.070 -0.1652  0.1991  0.9106
   86MOL0     H11591   3.679   3.745  11.023  0.1950 -1.8325 -0.6247
   86MOL0     H11592   3.501   3.499  10.796 -0.7031 -0.4842 -0.1444
   86MOL0     H11593   3.340   3.377  10.665  0.5205  0.8460 -0.4126
   86MOL0     H11594   1.873   3.277   9.623 -0.3337  0.5215 -0.0749
   86MOL0     H11595   1.620   3.254   9.647 -1.8694  0.3457 -1.2041
   86MOL0     H11596   1.343   2.719   9.795 -0.3291 -0.0427  0.4385
   86MOL0     H11597   1.134   2.632   9.811  1.6089  0.1613  0.0647
   86MOL0     H11598   0.983   2.568   9.631 -0.1662  1.1363 -3.8779
   86MOL0     H11599   0.841   2.660   9.559  1.1034  0.7098 -0.4132
   86MOL0     H11600   0.770   2.447   9.665 -1.7142 -0.5649  0.9485
   86MOL0     H11601   0.721   2.590   9.761  0.8033  0.3662  1.0999
   86MOL0     H11602   0.890   2.572   9.917  0.5271  0.6757  0.1115
   86MOL0     H11603   0.984   2.449   9.823  1.0452  0.4450  3.7849
   86MOL0     H11604   0.714   2.392   9.956 -1.5447 -0.4170 -1.4778
   86MOL0     H11605   0.810   2.282   9.855  0.0759  0.8709 -1.3313
   86MOL0     H11606   1.030   2.264  10.217  0.2898  4.0070  0.6971
   86MOL0     H11607   0.961   2.982   9.640 -0.3512  0.3188 -0.3926
   86MOL0     H11608   1.214   3.070   9.448 -3.2491  0.3331 -0.5916
   86MOL0     H11609   1.097   3.148   9.548 -0.0867  1.0848 -0.7729
   86MOL0     H11610   1.273   3.171   9.580 -0.6792  0.5361 -0.2174
   87MOL0     O11611   1.381   9.712   9.204 -0.0833 -1.1206 -0.4611
   87MOL0     C11612   1.401   9.763   9.318  0.3811 -0.6657 -0.1972
   87MOL0     O11613   1.510   9.815   9.360  0.3526  0.4446 -0.7287
   87MOL0     C11614   1.618   9.836   9.283 -0.4301 -0.4595  0.4178
   87MOL0     C11615   1.742   9.790   9.316 -0.2615 -0.1631  0.5082
   87MOL0     C11616   1.859   9.821   9.244  0.5309 -0.0980  0.0249
   87MOL0     C11617   1.850   9.895   9.129 -0.6830 -0.3892  0.1663
   87MOL0     O11618   1.974   9.915   9.062 -0.5339 -0.2270 -1.1597
   87MOL0     C11619   1.980   9.957   8.919 -0.5245 -0.0118 -0.2128
   87MOL0     C11620   2.115   9.925   8.857 -0.8549 -0.5070  0.0613
   87MOL0     C11621   2.231  10.016   8.905 -0.6025  0.0740  0.0278
   87MOL0     C11622   2.340  10.027   8.800  0.0262  0.2427 -0.3378
   87MOL0     C11623   2.475  10.087   8.846  0.5361  0.0678 -0.3923
   87MOL0     C11624   2.576  10.071   8.737 -0.5087 -0.0819  0.0863
   87MOL0     C11625   2.715  10.113   8.793 -1.0558  0.1668  0.6970
   87MOL0     C11626   2.823  10.071   8.690 -0.4511 -0.6469  0.6674
   87MOL0     N11627   2.954  10.132   8.723  0.5774  0.6221  0.0629
   87MOL0     C11628   3.058  10.116   8.643 -0.2560  0.5411  0.9511
   87MOL0     C11629   3.159  10.187   8.705 -0.2851 -0.5612  1.3678
   87MOL0     C11630   3.295  10.216   8.648  0.6652  0.0183 -0.0983
   87MOL0     C11631   3.417  10.218   8.746 -0.2656 -0.0803 -0.5325
   87MOL0     C11632   3.537  10.126   8.702 -0.1389  0.9567 -0.1295
   87MOL0     C11633   3.648  10.127   8.797 -0.1124 -0.0631 -0.9154
   87MOL0     O11634   3.740  10.024   8.769  0.2297 -0.3984  0.3855
   87MOL0     C11635   3.871  10.044   8.810 -0.9827 -0.6901 -0.2483
   87MOL0     C11636   3.945   9.934   8.840 -0.4183 -0.4363 -0.3573
   87MOL0     C11637   4.081   9.947   8.872  0.2964  0.9917 -0.3678
   87MOL0     C11638   4.146  10.064   8.863  0.1980  1.7346 -0.1811
   87MOL0     C11639   4.290  10.074   8.891 -0.3334 -0.3247  0.4762
   87MOL0     O11640   4.364   9.951   8.910  0.3428 -0.7524 -0.0544
   87MOL0     C11641   4.505   9.960   8.907  0.4381  0.1718  0.7928
   87MOL0     C11642   4.572   9.860   8.843  0.4268  0.9964 -0.2315
   87MOL0     C11643   4.707   9.837   8.855 -0.0211 -0.0070  0.3664
   87MOL0     C11644   4.792   9.921   8.933 -0.8264 -0.1431 -0.6309
   87MOL0     O11645   4.926   9.899   8.970  0.0290 -0.4873 -0.1152
   87MOL0     C11646   4.992   9.794   8.894  0.8210  0.0784  0.4286
   87MOL0     C11647   5.125   9.790   8.952  0.0211 -0.3170 -0.0709
   87MOL0     C11648   5.206   9.678   8.891 -0.5259 -0.5820 -0.2643
   87MOL0     C11649   5.353   9.716   8.877  0.3660  0.0025 -1.1989
   87MOL0     C11650   5.379   9.807   8.758 -0.0436 -0.1194  0.6593
   87MOL0     C11651   5.414   9.724   8.631 -0.6871  0.8941  0.0481
   87MOL0     C11652   5.547   9.652   8.638  0.7602  0.2998 -0.6901
   87MOL0     C11653   5.587   9.619   8.496 -0.0339 -0.0345 -0.5342
   87MOL0    Cl11654   5.721   9.507   8.491 -0.0917  0.0532 -0.5944
   87MOL0     C11655   4.723  10.019   9.000 -0.5204 -0.6877 -0.1818
   87MOL0     C11656   4.587  10.042   8.985  1.1905  0.5286  0.3282
   87MOL0     O11657   4.344  10.184   8.892 -0.9877 -0.1325 -0.3540
   87MOL0     C11658   4.071  10.172   8.827  1.2663 -0.5811 -0.7417
   87MOL0     C11659   3.935  10.168   8.799 -0.0271  0.9162 -0.0476
   87MOL0     N11660   3.114  10.244   8.821  0.1289  0.2826  0.9086
   87MOL0     N11661   2.989  10.203   8.831 -0.0974  0.3305  0.0830
   87MOL0     C11662   1.741   9.946   9.089  0.7234 -0.0431 -0.3436
   87MOL0     C11663   1.623   9.922   9.163  0.9819 -0.2904  0.0368
   87MOL0     C11664   1.295   9.777   9.425 -0.5393  0.4214 -0.4401
   87MOL0     C11665   1.328   9.840   9.544  0.0593  0.5280 -0.4558
   87MOL0     C11666   1.235   9.848   9.656 -0.7085 -0.4728  0.3129
   87MOL0     C11667   1.107   9.808   9.633 -0.2314  0.2091 -0.1736
   87MOL0     O11668   1.006   9.824   9.726  0.6571  0.8858 -0.3085
   87MOL0     C11669   0.960   9.704   9.795  0.6700 -0.3275 -0.2088
   87MOL0     C11670   1.037   9.667   9.924 -0.0732 -0.2894  0.4222
   87MOL0     C11671   1.144   9.567   9.893  0.2149  0.9031  0.8064
   87MOL0     C11672   1.265   9.583   9.991  0.6712  0.3565 -0.0504
   87MOL0     C11673   1.347   9.703   9.976  1.7519  0.4666 -0.6898
   87MOL0     C11674   1.422   9.794   9.975 -0.0953  0.3238 -0.0110
   87MOL0     C11675   1.069   9.763   9.504 -0.8643 -0.2399 -0.2714
   87MOL0     C11676   1.159   9.746   9.404  0.1639  0.5461 -0.1242
   87MOL0     C11677   1.100   9.698   9.272  0.1630  0.2601 -0.8108
   87MOL0     H11678   1.748   9.723   9.402  1.0458  0.9832  1.3503
   87MOL0     H11679   1.956   9.787   9.280  1.1622 -0.4274 -1.8756
   87MOL0     H11680   1.910   9.893   8.864 -0.3211 -1.1207  0.7620
   87MOL0     H11681   1.940  10.058   8.909 -1.7796 -0.5865 -1.2751
   87MOL0     H11682   2.122   9.935   8.748  1.9584  1.7205  0.3146
   87MOL0     H11683   2.144   9.821   8.876 -0.5114 -0.8977 -2.3177
   87MOL0     H11684   2.279   9.972   8.993  1.6030 -1.5837 -1.8604
   87MOL0     H11685   2.189  10.115   8.924  2.8736  1.9145 -0.9142
   87MOL0     H11686   2.359   9.925   8.768  0.6639  0.1060  0.4374
   87MOL0     H11687   2.291  10.083   8.720 -3.0756 -4.1774 -1.8495
   87MOL0     H11688   2.459  10.193   8.869 -0.8241  0.1150 -1.4348
   87MOL0     H11689   2.510  10.025   8.929  2.8480 -0.0298 -1.3617
   87MOL0     H11690   2.575   9.971   8.693 -2.0268  0.2943 -0.7998
   87MOL0     H11691   2.548  10.142   8.658  1.1166  1.2337  0.6394
   87MOL0     H11692   2.737  10.069   8.891  0.1726 -0.0106  0.3634
   87MOL0     H11693   2.714  10.222   8.803  0.6542  0.1252  1.6368
   87MOL0     H11694   2.833   9.962   8.685  0.9919 -0.5351  0.9303
   87MOL0     H11695   2.793  10.100   8.588  1.8479  0.7220  0.3351
   87MOL0     H11696   3.067  10.056   8.553 -0.9519  1.3942  0.2972
   87MOL0     H11697   3.317  10.138   8.575  1.2435  0.7507 -0.7289
   87MOL0     H11698   3.299  10.303   8.582 -1.3686 -1.7621 -2.7796
   87MOL0     H11699   3.453  10.321   8.748 -2.5281  0.7756  1.1783
   87MOL0     H11700   3.389  10.189   8.848  0.6081 -0.6992 -0.4595
   87MOL0     H11701   3.573  10.163   8.606 -1.9013  2.8376 -0.1262
   87MOL0     H11702   3.491  10.026   8.697  3.3999 -0.8284 -0.0802
   87MOL0     H11703   3.616  10.109   8.900  0.7613 -0.9665 -0.7809
   87MOL0     H11704   3.703  10.221   8.786 -1.2507  0.7293 -0.1376
   87MOL0     H11705   3.895   9.838   8.838  0.6624 -1.0088 -1.5923
   87MOL0     H11706   4.139   9.860   8.900  0.5866  0.6963 -1.8460
   87MOL0     H11707   4.513   9.782   8.796  1.4277 -1.0918  1.7947
   87MOL0     H11708   4.748   9.755   8.798 -0.5198 -0.3076  0.4358
   87MOL0     H11709   4.942   9.698   8.906  1.4210 -0.7088 -2.6018
   87MOL0     H11710   5.009   9.821   8.789 -1.3568  0.3139  0.0844
   87MOL0     H11711   5.175   9.887   8.948  3.6264 -1.7150  3.5666
   87MOL0     H11712   5.119   9.776   9.060  1.5798 -1.8344 -0.1397
   87MOL0     H11713   5.196   9.585   8.948  1.2577 -1.2224 -0.9269
   87MOL0     H11714   5.168   9.654   8.791 -0.3154  1.0142 -0.7528
   87MOL0     H11715   5.411   9.624   8.876 -1.5721 -1.3565  1.0253
   87MOL0     H11716   5.386   9.768   8.967 -1.5075  1.0380 -1.0567
   87MOL0     H11717   5.468   9.869   8.772  2.4505 -2.7401 -2.0196
   87MOL0     H11718   5.288   9.866   8.743  0.4121  0.3585 -0.3270
   87MOL0     H11719   5.330   9.655   8.618  0.3056 -0.5709  1.1138
   87MOL0     H11720   5.416   9.789   8.543  3.7738 -0.7674 -1.3535
   87MOL0     H11721   5.530   9.559   8.694  0.5086  1.3126  0.9742
   87MOL0     H11722   5.625   9.712   8.685 -0.2238  1.3549 -0.3660
   87MOL0     H11723   5.499   9.582   8.442 -2.3736  0.7376  2.4633
   87MOL0     H11724   5.612   9.709   8.439 -2.3018 -0.2146 -1.9436
   87MOL0     H11725   4.786  10.094   9.047 -1.4830  0.4578 -0.6490
   87MOL0     H11726   4.537  10.127   9.031 -1.3642 -0.3524 -0.6190
   87MOL0     H11727   4.119  10.269   8.820 -0.3991  0.3374 -0.0246
   87MOL0     H11728   3.894  10.257   8.752 -0.7254 -1.0793 -3.5506
   87MOL0     H11729   1.727  10.025   9.016  0.6349  1.7475  1.5116
   87MOL0     H11730   1.532   9.972   9.130  0.5980 -1.6359 -1.0008
   87MOL0     H11731   1.425   9.876   9.576 -0.3955  2.2908 -0.9240
   87MOL0     H11732   1.274   9.896   9.745  1.9861 -2.6056  0.4110
   87MOL0     H11733   0.972   9.617   9.729  1.9692  0.0116 -0.4560
   87MOL0     H11734   0.855   9.715   9.822  0.2138  0.0584 -2.0167
   87MOL0     H11735   0.974   9.619  10.000 -0.6709  1.3406  1.0040
   87MOL0     H11736   1.080   9.756   9.971 -2.6124  1.4052 -0.2939
   87MOL0     H11737   1.177   9.580   9.790  0.5772 -0.4150  0.7432
   87MOL0     H11738   1.103   9.467   9.904 -0.8175  0.8502 -2.5434
   87MOL0     H11739   1.237   9.590  10.097  0.8767 -0.1584  0.0408
   87MOL0     H11740   1.328   9.493   9.994  1.0926  0.6583  1.8531
   87MOL0     H11741   1.498   9.870   9.970  0.7737 -0.5775 -1.6109
   87MOL0     H11742   0.964   9.745   9.485 -0.3019 -3.3788 -0.8936
   87MOL0     H11743   1.127   9.594   9.250  2.7054  0.3255  1.5715
   87MOL0     H11744   0.991   9.709   9.271  0.2952  2.6794  1.4404
   87MOL0     H11745   1.134   9.769   9.195  1.5174 -0.7091 -1.1399
   88MOL0     O11746   6.244   2.011   7.281 -0.4797 -0.6647 -0.3555
   88MOL0     C11747   6.220   2.105   7.201  0.0018 -0.2103 -0.2004
   88MOL0     O11748   6.307   2.204   7.156 -0.5522 -0.1842  0.8432
   88MOL0     C11749   6.435   2.227   7.204  0.4908 -0.1486  0.6320
   88MOL0     C11750   6.518   2.117   7.233 -1.0704 -0.2439 -0.1155
   88MOL0     C11751   6.648   2.149   7.280  0.7804 -0.6868 -0.3812
   88MOL0     C11752   6.691   2.281   7.297 -0.3697  0.8235  0.7697
   88MOL0     O11753   6.816   2.308   7.354  0.4165 -0.4154  0.0976
   88MOL0     C11754   6.925   2.261   7.285  0.5831  0.2463  0.1116
   88MOL0     C11755   7.049   2.301   7.366  0.3526 -0.5393 -0.3529
   88MOL0     C11756   7.114   2.446   7.349  0.3955  0.8260  0.5593
   88MOL0     C11757   7.255   2.445   7.419 -0.4676 -0.6866  0.2663
   88MOL0     C11758   7.343   2.571   7.386 -0.0967  0.3213  0.4580
   88MOL0     C11759   7.476   2.582   7.459  0.4940  0.3903  0.4417
   88MOL0     C11760   7.556   2.703   7.414  0.1818  0.3414  0.0010
   88MOL0     C11761   7.628   2.674   7.283  0.3788 -0.9613 -0.7013
   88MOL0     N11762   7.743   2.583   7.301 -0.1227  0.6195  0.2390
   88MOL0     C11763   7.867   2.605   7.258 -0.4103  0.5433  0.0174
   88MOL0     C11764   7.924   2.481   7.246 -1.5601 -0.9214  0.4734
   88MOL0     C11765   8.061   2.444   7.195  0.4334  0.1518 -0.4334
   88MOL0     C11766   8.158   2.408   7.312  0.8007  0.3884  0.3078
   88MOL0     C11767   8.304   2.411   7.267 -0.4091 -0.2353 -0.5004
   88MOL0     C11768   8.364   2.276   7.224 -0.7840 -0.4221 -0.0478
   88MOL0     O11769   8.386   2.191   7.343 -0.1464 -0.4011 -0.6000
   88MOL0     C11770   8.486   2.097   7.328  0.4564 -0.8572 -0.2975
   88MOL0     C11771   8.562   2.082   7.438 -0.6274 -0.2533 -0.4608
   88MOL0     C11772   8.651   1.973   7.445  0.3336  0.7487  0.0161
   88MOL0     C11773   8.670   1.875   7.334 -0.2811  0.4309 -2.0881
   88MOL0     C11774   8.749   1.747   7.346 -0.5693  0.8807 -0.8182
   88MOL0     O11775   8.823   1.727   7.461 -0.4195  0.1602 -0.2411
   88MOL0     C11776   8.878   1.605   7.486  0.3203  0.9095 -0.4119
   88MOL0     C11777   9.002   1.621   7.547  0.0938 -0.6852  0.3614
   88MOL0     C11778   9.079   1.515   7.576 -0.1948 -0.5431 -0.1110
   88MOL0     C11779   9.034   1.383   7.556  0.7619  0.3361 -0.4370
   88MOL0     O11780   9.112   1.270   7.577  0.1851  0.3360  0.4946
   88MOL0     C11781   9.247   1.274   7.632  0.2687  0.2177 -0.0447
   88MOL0     C11782   9.243   1.232   7.782  0.3056 -0.3080 -0.5353
   88MOL0     C11783   9.175   1.095   7.798 -0.0286  0.9412 -0.1012
   88MOL0     C11784   9.146   1.051   7.937 -0.5016  0.7160  0.4603
   88MOL0     C11785   9.025   0.957   7.961 -0.1403 -0.3020  0.0309
   88MOL0     C11786   9.059   0.814   7.939  0.0464  0.5210  0.1980
   88MOL0     C11787   8.964   0.716   8.016  0.9317  0.2743 -0.3773
   88MOL0     C11788   8.935   0.581   7.941 -0.1618 -0.3813  0.6951
   88MOL0    Cl11789   8.775   0.506   7.975 -0.0122  0.1151 -0.2612
   88MOL0     C11790   8.911   1.360   7.500  1.4328 -0.2384 -0.5727
   88MOL0     C11791   8.831   1.467   7.472 -0.9990  0.3452  0.1919
   88MOL0     O11792   8.717   1.664   7.263  0.4876 -0.2079 -0.5019
   88MOL0     C11793   8.600   1.907   7.217 -1.0465  0.1495  0.3304
   88MOL0     C11794   8.507   2.014   7.215  0.0645 -0.2618 -1.1795
   88MOL0     N11795   7.828   2.388   7.293  0.1422  0.6248 -0.9121
   88MOL0     N11796   7.717   2.452   7.324 -0.6000  0.3415 -0.1258
   88MOL0     C11797   6.609   2.390   7.264 -0.0986 -0.1332 -0.3268
   88MOL0     C11798   6.484   2.359   7.215  0.3012  1.4493 -0.0007
   88MOL0     C11799   6.078   2.116   7.163 -0.7540  0.3707 -0.9481
   88MOL0     C11800   6.057   2.093   7.027 -0.4919  1.0109  0.9828
   88MOL0     C11801   5.921   2.098   6.985  0.1631 -0.9160 -0.4243
   88MOL0     C11802   5.808   2.116   7.072 -0.3559  0.2904 -0.7713
   88MOL0     O11803   5.675   2.128   7.037  0.1180  0.9904  0.0527
   88MOL0     C11804   5.647   2.111   6.892 -0.3945 -0.0942  0.3520
   88MOL0     C11805   5.599   1.964   6.877  0.0180 -0.1990 -0.0691
   88MOL0     C11806   5.483   1.921   6.969 -0.8928  0.3006 -0.3763
   88MOL0     C11807   5.414   1.784   6.948  0.5031 -0.9008  0.7535
   88MOL0     C11808   5.320   1.786   6.832 -0.5533  0.3023  0.0789
   88MOL0     C11809   5.248   1.821   6.746 -0.2880 -0.4152  0.8597
   88MOL0     C11810   5.844   2.137   7.204  0.4314 -0.7667  0.5055
   88MOL0     C11811   5.976   2.137   7.248  0.5086  0.0513  0.2289
   88MOL0     C11812   5.998   2.166   7.399 -0.1806  0.5663 -0.0133
   88MOL0     H11813   6.483   2.015   7.222 -2.0118  0.2790 -2.9742
   88MOL0     H11814   6.717   2.069   7.306  1.2473 -0.2870 -0.3854
   88MOL0     H11815   6.921   2.152   7.294 -0.6791  0.4247  2.3065
   88MOL0     H11816   6.928   2.292   7.180  2.0473 -1.3331 -0.3554
   88MOL0     H11817   7.122   2.225   7.335 -0.2139 -0.9379 -0.7539
   88MOL0     H11818   7.018   2.299   7.471 -3.0606  0.7211 -1.2061
   88MOL0     H11819   7.051   2.520   7.398 -2.0285 -0.2025 -0.8478
   88MOL0     H11820   7.129   2.462   7.241  2.2197 -2.0458  0.2517
   88MOL0     H11821   7.258   2.433   7.527 -0.6907 -4.6603 -0.0360
   88MOL0     H11822   7.318   2.357   7.400 -0.0065 -1.0535  3.1041
   88MOL0     H11823   7.362   2.579   7.279 -0.7589  0.8614  0.3721
   88MOL0     H11824   7.278   2.656   7.408 -1.1055 -0.2692 -0.1528
   88MOL0     H11825   7.466   2.574   7.567  1.2097 -1.7278  0.3956
   88MOL0     H11826   7.531   2.490   7.435 -0.0062  0.7232 -2.3618
   88MOL0     H11827   7.630   2.732   7.490 -0.2398 -0.4619  0.7380
   88MOL0     H11828   7.480   2.782   7.406  2.0130  2.1860 -0.0633
   88MOL0     H11829   7.568   2.630   7.203  2.0404 -0.8865 -2.0463
   88MOL0     H11830   7.670   2.769   7.248  1.2016 -0.2619  1.9359
   88MOL0     H11831   7.906   2.705   7.238 -1.2061  0.8085 -0.2596
   88MOL0     H11832   8.055   2.353   7.135  0.3585 -0.7815  0.9293
   88MOL0     H11833   8.105   2.525   7.137  1.8975  1.3181  2.1305
   88MOL0     H11834   8.144   2.479   7.394 -3.1950  1.3086 -0.9447
   88MOL0     H11835   8.134   2.304   7.338 -0.1571 -0.2581 -2.7378
   88MOL0     H11836   8.360   2.470   7.340  0.0600 -0.6267 -0.5457
   88MOL0     H11837   8.310   2.477   7.179 -0.4627  2.7229  1.5594
   88MOL0     H11838   8.452   2.306   7.166  1.4584 -1.2917  2.6904
   88MOL0     H11839   8.295   2.220   7.160 -2.4325 -0.8562  2.0271
   88MOL0     H11840   8.553   2.151   7.521 -0.4619 -0.9880  0.1831
   88MOL0     H11841   8.716   1.965   7.531 -2.0424  0.0641  1.8854
   88MOL0     H11842   9.046   1.718   7.568  3.3703 -2.5725  3.0103
   88MOL0     H11843   9.154   1.528   7.653 -0.3286 -2.0968  0.3345
   88MOL0     H11844   9.304   1.196   7.581  0.7616  0.9194 -0.5805
   88MOL0     H11845   9.292   1.372   7.613 -3.2087  1.3721 -3.5133
   88MOL0     H11846   9.346   1.225   7.819 -0.2175 -0.8938  0.8415
   88MOL0     H11847   9.190   1.300   7.849 -0.1545 -2.1958  1.1118
   88MOL0     H11848   9.074   1.100   7.757  0.8010 -0.7658 -2.5857
   88MOL0     H11849   9.224   1.008   7.754 -1.3883 -2.1131  3.8254
   88MOL0     H11850   9.122   1.146   7.985 -0.0658  1.1736 -0.2051
   88MOL0     H11851   9.241   1.022   7.982 -0.5317  0.7052  0.5173
   88MOL0     H11852   8.938   0.978   7.898 -0.9964 -2.1183  0.5269
   88MOL0     H11853   9.001   0.971   8.067 -2.7881 -0.8308 -0.4329
   88MOL0     H11854   9.045   0.783   7.835  1.0551 -0.9295  0.4454
   88MOL0     H11855   9.165   0.794   7.960  0.4343  0.2959 -1.7886
   88MOL0     H11856   8.870   0.769   8.030 -0.1803 -1.6758 -0.1629
   88MOL0     H11857   9.003   0.693   8.116 -1.1970  1.4609  0.8017
   88MOL0     H11858   8.932   0.592   7.832  0.2192 -2.2747  0.4608
   88MOL0     H11859   9.027   0.531   7.973  1.2518  2.3990  1.3435
   88MOL0     H11860   8.877   1.261   7.470 -1.1352  0.6586 -0.8695
   88MOL0     H11861   8.737   1.452   7.419 -0.2165  2.4065 -1.9581
   88MOL0     H11862   8.626   1.841   7.134  0.5017 -0.7625  1.4889
   88MOL0     H11863   8.444   2.036   7.129 -2.6339 -0.0886  0.6954
   88MOL0     H11864   6.647   2.490   7.281  1.4255 -0.4209 -1.8078
   88MOL0     H11865   6.424   2.440   7.175 -0.7735  0.4958 -0.3740
   88MOL0     H11866   6.133   2.073   6.952 -0.9992 -1.6974  1.1153
   88MOL0     H11867   5.911   2.086   6.878 -3.0169 -0.2511 -0.3131
   88MOL0     H11868   5.715   2.139   6.812 -1.1136 -2.7953 -1.3477
   88MOL0     H11869   5.557   2.167   6.865  0.4506  1.7610  1.2287
   88MOL0     H11870   5.686   1.901   6.898  1.3210  2.0878  1.7773
   88MOL0     H11871   5.566   1.944   6.774 -1.7332 -0.2032  0.4499
   88MOL0     H11872   5.408   2.000   6.959  2.0564  3.1796 -1.4897
   88MOL0     H11873   5.512   1.926   7.074 -0.0537  1.2072 -0.6399
   88MOL0     H11874   5.487   1.704   6.929  0.8778 -0.5124  0.5247
   88MOL0     H11875   5.355   1.764   7.038 -1.1420 -0.7669 -0.2764
   88MOL0     H11876   5.192   1.855   6.661  2.2466  0.4506 -0.5774
   88MOL0     H11877   5.779   2.172   7.284  2.4016 -0.0992  1.9032
   88MOL0     H11878   6.092   2.221   7.409 -0.2664  0.5283  1.0848
   88MOL0     H11879   5.922   2.229   7.445  0.8926  1.3475  0.7173
   88MOL0     H11880   6.003   2.071   7.453  2.5873  1.1745  0.9254
   89MOL0     O11881   3.947   2.792   2.466 -0.1713  0.0238 -0.6044
   89MOL0     C11882   4.003   2.847   2.371 -0.1113  0.2574 -0.5008
   89MOL0     O11883   3.954   2.872   2.248 -0.4922 -0.0144 -0.0401
   89MOL0     C11884   3.817   2.839   2.222 -0.5945  0.4509 -0.5193
   89MOL0     C11885   3.784   2.724   2.154 -0.5844  1.1207 -0.2193
   89MOL0     C11886   3.649   2.685   2.131 -0.4054  0.1334 -0.3394
   89MOL0     C11887   3.547   2.764   2.178  0.0001  0.4374 -0.4944
   89MOL0     O11888   3.417   2.732   2.166 -0.7950  0.2792 -0.3403
   89MOL0     C11889   3.350   2.615   2.116 -0.1081  0.1086 -0.9299
   89MOL0     C11890   3.213   2.666   2.067  0.9002 -0.4138 -0.2677
   89MOL0     C11891   3.122   2.539   2.052 -0.0672 -0.1773  0.1634
   89MOL0     C11892   3.007   2.563   1.951  0.0726 -0.0083 -0.3016
   89MOL0     C11893   2.923   2.435   1.930 -0.2874  0.3038  0.1407
   89MOL0     C11894   2.808   2.446   1.826  0.1602 -0.1036 -0.8855
   89MOL0     C11895   2.729   2.325   1.798  0.3726  0.3798  0.6491
   89MOL0     C11896   2.631   2.327   1.681 -0.4568  0.0506 -0.0025
   89MOL0     N11897   2.541   2.441   1.696 -0.1954  0.5537  0.4118
   89MOL0     C11898   2.446   2.466   1.788  0.0389  0.0386 -0.4500
   89MOL0     C11899   2.393   2.584   1.755 -0.6771 -0.1430 -0.1446
   89MOL0     C11900   2.280   2.650   1.839 -0.6233  0.8549  0.1342
   89MOL0     C11901   2.153   2.660   1.760  0.2447  0.0799  0.3174
   89MOL0     C11902   2.124   2.786   1.667 -0.0252  0.2976  0.0758
   89MOL0     C11903   2.037   2.887   1.746  0.1482 -0.1108 -0.4677
   89MOL0     O11904   2.045   3.021   1.695  0.1420  0.2304 -0.3592
   89MOL0     C11905   2.153   3.092   1.738  0.6071 -0.0470 -0.1826
   89MOL0     C11906   2.167   3.156   1.862  1.1327 -1.0250  0.1026
   89MOL0     C11907   2.281   3.230   1.896  0.0673  0.6133 -1.0170
   89MOL0     C11908   2.395   3.218   1.820  0.9883 -0.5253  0.4287
   89MOL0     C11909   2.519   3.300   1.855  0.4471 -0.1322 -0.4490
   89MOL0     O11910   2.629   3.307   1.775 -0.5372 -0.2611  0.9703
   89MOL0     C11911   2.713   3.417   1.774 -0.9777  1.0276  0.4253
   89MOL0     C11912   2.798   3.443   1.880  0.3353 -0.2956 -0.2880
   89MOL0     C11913   2.883   3.553   1.857  0.1325  0.7156 -0.7802
   89MOL0     C11914   2.908   3.612   1.733 -0.2374 -0.4596  0.1761
   89MOL0     O11915   3.005   3.704   1.719  0.2277  0.3887 -0.3198
   89MOL0     C11916   3.130   3.691   1.780 -0.1283  0.3493  0.4641
   89MOL0     C11917   3.163   3.789   1.887 -0.5848 -1.1032 -0.4511
   89MOL0     C11918   3.186   3.932   1.830 -0.6563  0.2848 -0.6084
   89MOL0     C11919   3.143   4.039   1.935 -0.0887 -0.1052 -0.0710
   89MOL0     C11920   3.189   4.175   1.889 -0.5431 -0.9635  0.6193
   89MOL0     C11921   3.334   4.201   1.945  0.3951  0.0576  0.7132
   89MOL0     C11922   3.374   4.342   1.894 -0.0828  0.2495 -0.3866
   89MOL0     C11923   3.520   4.374   1.918  0.4786 -0.1906 -0.2595
   89MOL0    Cl11924   3.647   4.375   1.791  0.4505 -0.3312 -0.3563
   89MOL0     C11925   2.814   3.585   1.635  0.0323  0.2092 -0.2717
   89MOL0     C11926   2.711   3.495   1.653 -0.5478 -0.4692 -0.2968
   89MOL0     O11927   2.517   3.352   1.968  0.8171 -0.4868  0.1019
   89MOL0     C11928   2.392   3.148   1.701 -0.1662  0.1708 -0.7537
   89MOL0     C11929   2.272   3.088   1.664 -0.1448 -0.3133 -0.3420
   89MOL0     N11930   2.468   2.636   1.654 -0.3118 -0.3153  0.5586
   89MOL0     N11931   2.557   2.546   1.616 -0.0860  0.7734  0.1019
   89MOL0     C11932   3.582   2.888   2.238  0.4287  0.2102 -0.5919
   89MOL0     C11933   3.718   2.921   2.259  0.0582 -0.2676  0.6771
   89MOL0     C11934   4.145   2.875   2.393  0.0094 -0.0226  0.4873
   89MOL0     C11935   4.189   2.957   2.499 -0.7571 -0.0269 -0.0141
   89MOL0     C11936   4.325   3.001   2.506  0.4531  0.5885 -0.6904
   89MOL0     C11937   4.408   2.975   2.400  0.0898  0.5372 -0.0793
   89MOL0     O11938   4.540   3.012   2.416 -0.3413  0.1874  0.1842
   89MOL0     C11939   4.618   2.996   2.539 -0.2592  0.0467  0.6891
   89MOL0     C11940   4.769   3.017   2.500  0.4315 -0.1211  1.2068
   89MOL0     C11941   4.868   3.031   2.617 -0.5817 -0.0615  0.1959
   89MOL0     C11942   5.002   3.107   2.578 -0.0228 -0.0172  0.4320
   89MOL0     C11943   4.996   3.250   2.555  0.7959 -0.2818 -1.0197
   89MOL0     C11944   5.002   3.373   2.552  0.8378  0.4634  0.6233
   89MOL0     C11945   4.367   2.890   2.299  0.0274 -0.3865  0.0396
   89MOL0     C11946   4.239   2.837   2.295 -0.8541 -0.4824 -0.0404
   89MOL0     C11947   4.211   2.739   2.179  0.6256 -0.6620  0.5153
   89MOL0     H11948   3.863   2.659   2.119  1.5387  2.9427  0.9581
   89MOL0     H11949   3.631   2.595   2.073 -0.6335 -0.5192  0.6961
   89MOL0     H11950   3.395   2.580   2.022 -1.6211  0.1044 -1.6751
   89MOL0     H11951   3.355   2.537   2.192 -2.1835  0.5999 -0.2255
   89MOL0     H11952   3.208   2.723   1.973 -0.3118  1.2276  0.7343
   89MOL0     H11953   3.167   2.731   2.142  0.4062 -0.8150 -0.2152
   89MOL0     H11954   3.076   2.517   2.148  0.5809 -3.3499 -0.1534
   89MOL0     H11955   3.194   2.460   2.026  3.4519  2.7871 -0.0083
   89MOL0     H11956   2.938   2.645   1.976  1.0213  0.4596  0.9074
   89MOL0     H11957   3.057   2.605   1.863  1.3347 -0.6996  0.0738
   89MOL0     H11958   2.991   2.352   1.907 -1.6071 -0.7148 -0.2583
   89MOL0     H11959   2.877   2.410   2.026  1.3740  3.0343  1.7910
   89MOL0     H11960   2.741   2.530   1.845 -0.4704 -1.1538  2.1381
   89MOL0     H11961   2.866   2.460   1.734  1.5073  0.0980 -0.0330
   89MOL0     H11962   2.687   2.295   1.895 -0.3404  0.1123  0.2622
   89MOL0     H11963   2.799   2.242   1.784  1.3440  1.4016 -0.7893
   89MOL0     H11964   2.699   2.336   1.596  2.2962 -0.1604  2.0315
   89MOL0     H11965   2.570   2.237   1.684 -3.3138  1.8524  0.1372
   89MOL0     H11966   2.435   2.410   1.880 -1.3838  1.4913  0.3134
   89MOL0     H11967   2.254   2.592   1.928 -2.4895  1.2372 -0.1093
   89MOL0     H11968   2.307   2.750   1.873 -0.6289  1.2749 -1.0652
   89MOL0     H11969   2.153   2.569   1.699 -2.2639 -0.8903  1.6275
   89MOL0     H11970   2.077   2.655   1.838  1.0820  1.2113  1.2415
   89MOL0     H11971   2.055   2.767   1.584 -0.6434  2.6139 -0.0030
   89MOL0     H11972   2.211   2.830   1.618  0.7757 -1.0150  0.2543
   89MOL0     H11973   2.079   2.882   1.847 -0.1785  2.7733 -0.1272
   89MOL0     H11974   1.932   2.857   1.746 -0.3148  1.4185 -0.4082
   89MOL0     H11975   2.081   3.172   1.927  0.7127  3.1841 -1.1682
   89MOL0     H11976   2.295   3.278   1.992 -0.5876 -1.1815  0.0352
   89MOL0     H11977   2.802   3.378   1.967 -2.4628 -1.4858 -0.9594
   89MOL0     H11978   2.940   3.582   1.945  1.7693 -1.0635 -1.1801
   89MOL0     H11979   3.142   3.587   1.814  2.0174  0.7837  1.1706
   89MOL0     H11980   3.203   3.708   1.700 -1.2040  1.3372 -0.3401
   89MOL0     H11981   3.080   3.790   1.959  1.2092  0.2620  1.7333
   89MOL0     H11982   3.248   3.749   1.942 -0.6768 -0.4878  0.1528
   89MOL0     H11983   3.292   3.942   1.805 -0.5107 -1.6013 -0.9058
   89MOL0     H11984   3.136   3.945   1.734 -1.0173 -0.7075 -0.5720
   89MOL0     H11985   3.163   4.024   2.041  0.2347 -0.0704 -0.1271
   89MOL0     H11986   3.034   4.045   1.929 -0.0492 -0.4386 -1.7907
   89MOL0     H11987   3.128   4.254   1.935  0.4165  0.2103 -0.0727
   89MOL0     H11988   3.187   4.183   1.780  3.2575 -1.4237  0.3769
   89MOL0     H11989   3.335   4.194   2.054 -2.2243 -1.3798  0.7358
   89MOL0     H11990   3.394   4.121   1.899 -0.2965  0.6459 -1.3176
   89MOL0     H11991   3.313   4.415   1.948  0.6459 -0.1842  1.0700
   89MOL0     H11992   3.356   4.348   1.786  0.2145 -0.7826 -0.4955
   89MOL0     H11993   3.521   4.471   1.967  0.9188 -0.7006  0.7740
   89MOL0     H11994   3.565   4.312   1.997  1.4009 -1.0773 -1.4278
   89MOL0     H11995   2.810   3.636   1.539  0.9469  2.1451  0.6758
   89MOL0     H11996   2.643   3.460   1.576 -0.1820  0.6305 -1.1512
   89MOL0     H11997   2.482   3.130   1.644  1.3075 -1.1795  1.8181
   89MOL0     H11998   2.261   3.038   1.569 -0.9204 -3.0371  1.0492
   89MOL0     H11999   3.511   2.964   2.267  0.2718 -0.4409  0.8371
   89MOL0     H12000   3.735   3.022   2.293  1.4671  0.4068 -1.7944
   89MOL0     H12001   4.120   2.969   2.581  0.5784 -0.4412  1.2034
   89MOL0     H12002   4.356   3.053   2.597 -0.9070 -0.1416  0.2249
   89MOL0     H12003   4.600   2.900   2.588 -0.3582 -1.2706 -1.8189
   89MOL0     H12004   4.591   3.079   2.606  1.1960  1.5246 -0.4515
   89MOL0     H12005   4.765   3.107   2.438  1.6037  0.0946  1.4393
   89MOL0     H12006   4.802   2.933   2.438  0.3756  1.6825 -1.4337
   89MOL0     H12007   4.895   2.928   2.644 -1.5596 -0.7167 -1.1983
   89MOL0     H12008   4.827   3.082   2.704  1.1499 -1.9353  2.2287
   89MOL0     H12009   5.080   3.089   2.652 -1.2384 -1.3821  1.4424
   89MOL0     H12010   5.032   3.066   2.481  2.6703  0.4909  0.9745
   89MOL0     H12011   4.998   3.478   2.533 -2.6868  0.3600  0.1408
   89MOL0     H12012   4.435   2.863   2.218  1.3906 -2.0458  1.6556
   89MOL0     H12013   4.166   2.789   2.093  0.9080  0.4090  0.9798
   89MOL0     H12014   4.303   2.685   2.154 -0.0739 -2.0952  0.9230
   89MOL0     H12015   4.139   2.666   2.217 -0.0144  1.4355  3.7813
   90MOL0     O12016   3.457   6.777   6.869 -0.2450  1.0530  0.2587
   90MOL0     C12017   3.501   6.777   6.756 -0.3076  0.2316 -0.1185
   90MOL0     O12018   3.624   6.751   6.727  0.3025  0.5333 -0.2994
   90MOL0     C12019   3.712   6.685   6.811  0.1630  0.2688  0.0292
   90MOL0     C12020   3.674   6.600   6.915 -0.7055 -0.2580  0.2099
   90MOL0     C12021   3.780   6.552   7.000 -0.3028 -0.3642 -0.0076
   90MOL0     C12022   3.913   6.576   6.970  0.4768  0.0618  0.7081
   90MOL0     O12023   4.015   6.534   7.049 -0.0748 -0.5270 -0.2153
   90MOL0     C12024   3.982   6.479   7.172 -0.3763 -0.2568 -0.7936
   90MOL0     C12025   4.099   6.469   7.266  1.2508 -0.4815  0.2570
   90MOL0     C12026   4.181   6.600   7.283  0.1272 -0.4288  0.2918
   90MOL0     C12027   4.288   6.567   7.388  0.5372 -0.3337 -0.5004
   90MOL0     C12028   4.394   6.684   7.389 -0.2199 -0.4180 -0.5633
   90MOL0     C12029   4.340   6.827   7.402 -0.3197  0.5968  0.0854
   90MOL0     C12030   4.245   6.842   7.518  0.4596 -0.6728 -0.7095
   90MOL0     C12031   4.189   6.985   7.512 -0.1472  0.0590 -0.3584
   90MOL0     N12032   4.281   7.080   7.572  0.2330  0.2451 -0.4977
   90MOL0     C12033   4.350   7.054   7.690 -0.0721 -0.1558  0.9411
   90MOL0     C12034   4.444   7.152   7.692 -0.1422  0.0151  0.3583
   90MOL0     C12035   4.550   7.157   7.801  0.1036  0.4811  0.1454
   90MOL0     C12036   4.688   7.196   7.743 -0.2397  0.8390  0.2837
   90MOL0     C12037   4.775   7.276   7.842  0.5250  0.7240  0.0313
   90MOL0     C12038   4.911   7.290   7.789 -0.1401 -0.6633 -0.1537
   90MOL0     O12039   4.899   7.396   7.695  0.0100 -0.2866  0.0593
   90MOL0     C12040   5.014   7.433   7.640 -0.6761  0.0418 -0.5614
   90MOL0     C12041   5.052   7.570   7.648  0.1952 -0.4090 -0.3068
   90MOL0     C12042   5.165   7.627   7.589  0.0749  0.2581 -0.1009
   90MOL0     C12043   5.251   7.543   7.522  0.1720 -1.0167  0.2330
   90MOL0     C12044   5.355   7.601   7.451  0.9209 -0.2232  0.5900
   90MOL0     O12045   5.449   7.514   7.401 -0.2506 -0.6431  0.4515
   90MOL0     C12046   5.566   7.563   7.340 -0.2708 -0.0493  0.4515
   90MOL0     C12047   5.678   7.481   7.355  0.6905  0.4502 -0.3914
   90MOL0     C12048   5.802   7.522   7.301  0.1152 -0.4967  0.0935
   90MOL0     C12049   5.807   7.631   7.212 -1.0707  0.2311  0.1246
   90MOL0     O12050   5.928   7.660   7.150  0.0703  0.0626 -0.1362
   90MOL0     C12051   6.046   7.630   7.218 -0.1986  0.2427 -0.0466
   90MOL0     C12052   6.166   7.717   7.162  0.3112  0.4038 -0.0914
   90MOL0     C12053   6.295   7.694   7.229  0.4187 -1.2357 -0.7142
   90MOL0     C12054   6.397   7.801   7.187 -0.3649 -0.6177  0.4619
   90MOL0     C12055   6.520   7.810   7.277 -0.1501 -0.4175  0.6911
   90MOL0     C12056   6.596   7.938   7.228 -0.3174  0.1782  0.1498
   90MOL0     C12057   6.736   7.966   7.288 -0.3838  0.7794  0.8863
   90MOL0     C12058   6.806   8.073   7.196  0.4290 -0.0979  0.4579
   90MOL0    Cl12059   6.984   8.061   7.220 -0.4621  0.4200 -0.0753
   90MOL0     C12060   5.695   7.704   7.188  0.4961 -0.1370 -0.4922
   90MOL0     C12061   5.570   7.671   7.251 -0.4028  0.3937  0.4072
   90MOL0     O12062   5.363   7.724   7.450 -0.2235 -0.5935 -0.0103
   90MOL0     C12063   5.228   7.404   7.531  0.1427  0.1594  0.0924
   90MOL0     C12064   5.113   7.348   7.583 -0.0696 -0.4509  0.7040
   90MOL0     N12065   4.430   7.241   7.592  0.1333 -0.8817  0.6175
   90MOL0     N12066   4.331   7.192   7.516 -0.2610  0.7562  0.9187
   90MOL0     C12067   3.946   6.656   6.866  0.3282  0.1714 -0.0054
   90MOL0     C12068   3.848   6.716   6.791 -0.4961  0.0847  0.5232
   90MOL0     C12069   3.408   6.805   6.649  0.8538 -0.6450 -0.1111
   90MOL0     C12070   3.456   6.868   6.533  0.2315  1.2803  0.5628
   90MOL0     C12071   3.378   6.879   6.424 -0.3059  0.9385 -0.7836
   90MOL0     C12072   3.247   6.838   6.423  0.2745  0.6387  0.3047
   90MOL0     O12073   3.177   6.859   6.305 -0.2038 -0.2039 -0.0951
   90MOL0     C12074   3.064   6.780   6.272  0.4490 -0.0421  1.0408
   90MOL0     C12075   3.105   6.642   6.212  0.6696 -0.3973  0.2631
   90MOL0     C12076   2.986   6.552   6.171  0.4096  0.0912 -0.0272
   90MOL0     C12077   2.888   6.526   6.281  0.0256  0.2104 -1.1927
   90MOL0     C12078   2.949   6.478   6.404  0.7682 -0.5342 -0.0627
   90MOL0     C12079   2.987   6.462   6.510  0.1471  0.5184 -0.4468
   90MOL0     C12080   3.198   6.772   6.537 -0.0172  0.1353 -0.3438
   90MOL0     C12081   3.276   6.752   6.651 -0.5563 -0.2810 -0.3452
   90MOL0     C12082   3.213   6.673   6.764  0.8571 -0.3770 -0.2807
   90MOL0     H12083   3.568   6.579   6.930 -0.4151 -1.3132  0.8669
   90MOL0     H12084   3.748   6.485   7.079 -0.4881 -3.2970 -2.3770
   90MOL0     H12085   3.916   6.552   7.218  0.2799  1.2366 -2.1271
   90MOL0     H12086   3.935   6.381   7.154 -0.6820 -0.5355  1.3307
   90MOL0     H12087   4.161   6.391   7.223 -2.0295 -3.2242  0.0360
   90MOL0     H12088   4.050   6.435   7.357 -3.2175  2.0030 -0.8808
   90MOL0     H12089   4.125   6.685   7.322  3.3217  1.8181  0.3602
   90MOL0     H12090   4.217   6.634   7.186 -1.1501  2.4800  0.7251
   90MOL0     H12091   4.237   6.569   7.484  0.6699 -4.1921 -0.2144
   90MOL0     H12092   4.343   6.476   7.361  1.7285  0.4195 -0.7239
   90MOL0     H12093   4.468   6.662   7.467 -2.4223 -2.8855  0.9994
   90MOL0     H12094   4.448   6.686   7.295  1.1650  0.2100  0.2131
   90MOL0     H12095   4.424   6.896   7.406  0.0064  0.1564  2.6419
   90MOL0     H12096   4.286   6.846   7.309 -2.7395 -0.2495  1.2417
   90MOL0     H12097   4.303   6.820   7.608 -1.3396 -2.1260  0.1518
   90MOL0     H12098   4.159   6.775   7.517 -1.5080  1.3458  3.8957
   90MOL0     H12099   4.156   7.012   7.411  3.2503 -0.9328 -1.9097
   90MOL0     H12100   4.103   6.989   7.579  0.2635 -1.1722  0.2850
   90MOL0     H12101   4.332   6.970   7.757 -0.0522 -0.6218  0.3717
   90MOL0     H12102   4.524   7.235   7.873  0.8953  3.2763 -2.3817
   90MOL0     H12103   4.546   7.060   7.850  0.4568 -0.1709 -1.0696
   90MOL0     H12104   4.740   7.107   7.705 -0.5824 -0.0449  1.7940
   90MOL0     H12105   4.681   7.265   7.658 -0.5603  0.6623  0.1633
   90MOL0     H12106   4.775   7.223   7.938 -0.8894 -1.6565 -1.1948
   90MOL0     H12107   4.733   7.375   7.861 -2.6221 -0.2409 -1.3229
   90MOL0     H12108   4.933   7.198   7.733 -0.0938  0.0737 -1.3757
   90MOL0     H12109   4.983   7.299   7.871  1.6053 -1.5572 -1.5037
   90MOL0     H12110   4.979   7.630   7.700  0.7117 -0.4830  0.5087
   90MOL0     H12111   5.187   7.733   7.602  0.9130 -0.0110  0.7853
   90MOL0     H12112   5.674   7.390   7.413  1.3461  0.1553 -0.7945
   90MOL0     H12113   5.883   7.450   7.308  0.8173  0.3763  1.3365
   90MOL0     H12114   6.025   7.652   7.323  1.9023 -1.5975  0.8627
   90MOL0     H12115   6.063   7.522   7.212 -1.7628 -0.0186 -0.1908
   90MOL0     H12116   6.178   7.684   7.058 -4.0420 -1.4532 -0.2190
   90MOL0     H12117   6.140   7.822   7.177 -0.3205  0.1405  0.6993
   90MOL0     H12118   6.278   7.701   7.337 -1.4002 -0.3992 -1.0100
   90MOL0     H12119   6.327   7.592   7.210 -1.4581 -2.0802  0.3893
   90MOL0     H12120   6.354   7.901   7.190 -0.5028 -0.6939  1.1216
   90MOL0     H12121   6.431   7.785   7.084  2.6334  2.5460  0.7817
   90MOL0     H12122   6.576   7.716   7.268  0.3768 -0.0046 -0.4838
   90MOL0     H12123   6.493   7.830   7.381 -2.0923  2.5939 -0.2667
   90MOL0     H12124   6.607   7.925   7.120 -1.3160 -1.9648  0.2638
   90MOL0     H12125   6.522   8.019   7.233 -2.0078 -1.3179  0.3573
   90MOL0     H12126   6.796   7.876   7.300  0.5720  1.4612  1.3749
   90MOL0     H12127   6.724   8.013   7.386 -1.6982  0.0894  1.0718
   90MOL0     H12128   6.789   8.046   7.091  0.8973  0.7996  0.1405
   90MOL0     H12129   6.765   8.173   7.213  0.7468 -0.2396  2.2214
   90MOL0     H12130   5.701   7.783   7.113  0.9419 -1.2462 -1.6727
   90MOL0     H12131   5.478   7.728   7.241 -1.7813 -1.5544  1.4789
   90MOL0     H12132   5.300   7.329   7.502 -1.7113 -1.6368 -0.1205
   90MOL0     H12133   5.102   7.240   7.583 -1.1988 -0.3502  0.4447
   90MOL0     H12134   4.050   6.687   6.858 -0.1662  2.8859  2.3151
   90MOL0     H12135   3.878   6.784   6.713  3.6454 -0.2948  1.5602
   90MOL0     H12136   3.562   6.891   6.525  0.7675 -1.0287  0.0805
   90MOL0     H12137   3.423   6.910   6.330  1.4920 -0.0223 -0.2855
   90MOL0     H12138   3.017   6.833   6.188 -0.7397 -1.5687  0.6939
   90MOL0     H12139   2.996   6.771   6.357 -2.5941  1.3632 -1.0312
   90MOL0     H12140   3.168   6.593   6.286  0.7134  2.6445  2.4107
   90MOL0     H12141   3.170   6.652   6.124  1.2274 -2.3516  0.3979
   90MOL0     H12142   3.027   6.455   6.142  3.5434  1.8588 -2.0064
   90MOL0     H12143   2.927   6.603   6.094 -1.2476 -0.2142  0.9690
   90MOL0     H12144   2.818   6.607   6.303 -2.1756 -2.0973  0.9558
   90MOL0     H12145   2.813   6.453   6.251 -1.6357 -0.3724  3.4651
   90MOL0     H12146   3.002   6.451   6.616  3.8800  0.6649 -0.8224
   90MOL0     H12147   3.101   6.724   6.537  1.7056 -3.6806  0.6827
   90MOL0     H12148   3.259   6.574   6.771 -0.9893 -1.3362 -1.0164
   90MOL0     H12149   3.227   6.723   6.860 -1.5172  0.2625 -0.2141
   90MOL0     H12150   3.104   6.664   6.754  0.9318 -1.0616 -0.5284
   91MOL0     O12151   8.962  11.152   1.724  0.1536  0.2363 -0.1217
   91MOL0     C12152   8.911  11.168   1.615 -0.7877 -0.0056  0.5727
   91MOL0     O12153   8.982  11.168   1.495  0.2301 -0.4440  0.5311
   91MOL0     C12154   9.121  11.169   1.503 -0.2331 -0.6614  0.4723
   91MOL0     C12155   9.201  11.068   1.443  0.5739 -1.0985  0.1348
   91MOL0     C12156   9.339  11.060   1.456  0.1099  0.0361 -0.2327
   91MOL0     C12157   9.401  11.172   1.502 -0.0225  0.3995 -0.4954
   91MOL0     O12158   9.537  11.178   1.509  0.2020 -0.8969 -0.0822
   91MOL0     C12159   9.595  11.164   1.381  0.1323 -0.0452  0.3165
   91MOL0     C12160   9.744  11.137   1.400  0.4595 -0.0303  0.1468
   91MOL0     C12161   9.826  11.202   1.291 -0.0580 -0.1583 -0.3972
   91MOL0     C12162   9.972  11.169   1.318  0.7033  0.0907  0.4609
   91MOL0     C12163  10.059  11.181   1.188 -0.3511 -0.1035 -0.2526
   91MOL0     C12164  10.029  11.069   1.080  1.2312 -0.9869 -0.4998
   91MOL0     C12165  10.143  11.042   0.985 -0.6704  0.3774 -0.1059
   91MOL0     C12166  10.176  11.167   0.901  0.3040  0.0373  0.3706
   91MOL0     N12167  10.308  11.164   0.850 -1.6441 -0.2399 -0.0186
   91MOL0     C12168  10.394  11.268   0.858 -0.8802 -0.3407 -0.0846
   91MOL0     C12169  10.511  11.227   0.817 -0.6169 -0.2030  0.1596
   91MOL0     C12170  10.638  11.313   0.828  0.3342 -1.2084  0.0673
   91MOL0     C12171  10.737  11.274   0.932  0.5847 -0.5755  0.4684
   91MOL0     C12172  10.829  11.382   0.983  0.6855 -0.3037  0.5935
   91MOL0     C12173  10.974  11.344   1.023  0.0384 -0.5850  0.3855
   91MOL0     O12174  11.041  11.462   1.071  0.3573 -0.2006  0.4572
   91MOL0     C12175  11.176  11.455   1.093 -0.2498 -1.1398  0.3239
   91MOL0     C12176  11.252  11.342   1.081 -0.1076 -0.3008  0.4243
   91MOL0     C12177  11.384  11.341   1.112 -0.9713 -0.2065 -0.1803
   91MOL0     C12178  11.454  11.461   1.145 -0.4937 -0.4499 -0.7415
   91MOL0     C12179  11.599  11.467   1.154  0.3560  0.3229  0.8549
   91MOL0     O12180  11.644  11.571   1.231  0.0380  0.5416 -0.4466
   91MOL0     C12181  11.782  11.591   1.245 -0.4846  0.4761 -0.0554
   91MOL0     C12182  11.833  11.612   1.371 -0.1348 -0.6673 -0.2940
   91MOL0     C12183  11.969  11.637   1.399  0.4177 -0.1043 -0.4601
   91MOL0     C12184  12.063  11.657   1.302  0.5510 -0.3305  0.2271
   91MOL0     O12185  12.198  11.683   1.324 -0.3610 -0.5570 -1.0596
   91MOL0     C12186  12.252  11.690   1.462 -0.3856 -0.3640  1.0253
   91MOL0     C12187  12.405  11.716   1.447  0.1008  0.0876 -0.2320
   91MOL0     C12188  12.480  11.749   1.573  0.1290 -0.3448 -0.5437
   91MOL0     C12189  12.598  11.840   1.557 -0.2648 -0.1573  0.0892
   91MOL0     C12190  12.689  11.829   1.680 -0.0604  1.0568  1.1644
   91MOL0     C12191  12.627  11.902   1.797 -0.2355  0.4136  0.3147
   91MOL0     C12192  12.732  11.911   1.914  0.4768 -0.9790 -0.5097
   91MOL0     C12193  12.851  12.003   1.889 -0.0189 -0.2020  0.2373
   91MOL0    Cl12194  12.985  11.969   1.998 -0.0907  0.3487 -0.1766
   91MOL0     C12195  12.019  11.640   1.171 -0.8524 -0.0272 -0.3780
   91MOL0     C12196  11.880  11.599   1.142 -0.2427 -0.2714 -0.1263
   91MOL0     O12197  11.668  11.373   1.111 -0.0269  0.1374  0.5580
   91MOL0     C12198  11.378  11.569   1.166  0.6681  0.3562  0.3662
   91MOL0     C12199  11.242  11.567   1.150  0.2021 -0.5689 -0.0935
   91MOL0     N12200  10.497  11.099   0.778 -0.3360  0.5285 -0.0894
   91MOL0     N12201  10.371  11.065   0.781 -0.8220 -0.6303  0.6657
   91MOL0     C12202   9.326  11.276   1.553 -0.4684 -0.3821  0.2066
   91MOL0     C12203   9.183  11.280   1.561 -0.3524 -0.3567 -0.1987
   91MOL0     C12204   8.760  11.168   1.619  0.4667 -0.1751  0.4801
   91MOL0     C12205   8.697  11.178   1.740  0.3439 -0.4557  0.2019
   91MOL0     C12206   8.561  11.190   1.747 -0.4128 -0.3045  0.1587
   91MOL0     C12207   8.479  11.184   1.629 -0.3958  0.5408  0.3446
   91MOL0     O12208   8.352  11.224   1.645  0.1372 -0.2030  0.1346
   91MOL0     C12209   8.259  11.185   1.541 -0.3581 -0.5365  0.8794
   91MOL0     C12210   8.127  11.194   1.599 -0.3604  0.4184  0.5665
   91MOL0     C12211   8.103  11.333   1.659  0.0022 -0.1109  0.2354
   91MOL0     C12212   7.962  11.352   1.711 -0.5623 -0.1323  0.2670
   91MOL0     C12213   7.857  11.349   1.605 -0.4609 -0.1981  0.1459
   91MOL0     C12214   7.767  11.366   1.523  0.7632  1.2516  0.4540
   91MOL0     C12215   8.536  11.170   1.498 -0.7892 -0.4697 -0.2666
   91MOL0     C12216   8.679  11.172   1.498  0.6057  0.0120 -0.3863
   91MOL0     C12217   8.733  11.196   1.357  0.1384 -0.6431 -0.1313
   91MOL0     H12218   9.135  11.003   1.386 -1.8628  2.3342 -1.2565
   91MOL0     H12219   9.395  10.972   1.428  0.8736  0.1382  0.9295
   91MOL0     H12220   9.549  11.087   1.318  1.6744  0.2972 -1.2923
   91MOL0     H12221   9.581  11.259   1.329 -1.3297 -0.5490 -0.2607
   91MOL0     H12222   9.754  11.029   1.415 -1.1443 -0.8497 -3.4318
   91MOL0     H12223   9.784  11.182   1.490  2.7846  1.0318 -1.3403
   91MOL0     H12224   9.814  11.310   1.277  2.6006  0.3842  0.9216
   91MOL0     H12225   9.785  11.164   1.197 -1.1497  0.7365 -0.2955
   91MOL0     H12226  10.013  11.244   1.386 -0.6069  2.1495 -0.9053
   91MOL0     H12227   9.982  11.068   1.359 -0.5029 -0.8600 -1.4232
   91MOL0     H12228  10.068  11.284   1.152 -2.2113 -0.9775 -3.6720
   91MOL0     H12229  10.156  11.152   1.230 -0.5851  0.6107  0.8436
   91MOL0     H12230  10.014  10.985   1.148  0.2884  1.4433  2.5687
   91MOL0     H12231   9.943  11.095   1.018  0.4481 -0.3385  0.8113
   91MOL0     H12232  10.135  10.954   0.921 -0.6880  0.5125 -0.2897
   91MOL0     H12233  10.227  11.014   1.050 -0.3240 -0.9588 -1.0990
   91MOL0     H12234  10.098  11.185   0.826  0.8701 -0.7074 -0.4245
   91MOL0     H12235  10.175  11.250   0.972  0.2745 -1.7243  2.5004
   91MOL0     H12236  10.365  11.364   0.901  0.8307  0.2931 -0.2937
   91MOL0     H12237  10.677  11.304   0.727  0.9799 -1.2944  0.3241
   91MOL0     H12238  10.605  11.415   0.851  1.1794 -0.9224  0.0226
   91MOL0     H12239  10.683  11.238   1.020  1.2866 -0.4280  0.9645
   91MOL0     H12240  10.801  11.197   0.888  0.0498 -0.9907  0.4110
   91MOL0     H12241  10.786  11.416   1.078 -0.1557  0.0253  0.1066
   91MOL0     H12242  10.833  11.462   0.909 -1.3131  0.0842  0.8483
   91MOL0     H12243  11.026  11.296   0.940  1.3024 -0.5914  1.1648
   91MOL0     H12244  10.970  11.277   1.110 -0.6110 -0.7694  0.2217
   91MOL0     H12245  11.203  11.247   1.060 -1.6803  0.0696  2.1650
   91MOL0     H12246  11.443  11.250   1.106 -2.9120 -1.4813 -1.2310
   91MOL0     H12247  11.762  11.600   1.452 -0.2116 -1.7414 -0.5021
   91MOL0     H12248  11.996  11.647   1.504  1.7793 -1.3517 -0.6520
   91MOL0     H12249  12.200  11.775   1.508  0.8989  1.7607 -1.1754
   91MOL0     H12250  12.232  11.602   1.523 -1.0064 -0.7186  0.3344
   91MOL0     H12251  12.453  11.626   1.408  2.1368  0.8518  0.3555
   91MOL0     H12252  12.419  11.803   1.383  3.1172  0.9376  1.3929
   91MOL0     H12253  12.410  11.805   1.635  0.6435  0.2556 -0.4905
   91MOL0     H12254  12.510  11.659   1.627 -2.5223  0.6564  2.9574
   91MOL0     H12255  12.581  11.947   1.543  1.9992  0.3555  0.8738
   91MOL0     H12256  12.662  11.801   1.477 -0.5706 -1.0707  0.2720
   91MOL0     H12257  12.784  11.872   1.647 -0.5332  1.3989  0.2170
   91MOL0     H12258  12.705  11.724   1.708 -2.7092  0.4332  0.6048
   91MOL0     H12259  12.591  11.996   1.753  2.2497 -0.7083 -4.9573
   91MOL0     H12260  12.541  11.848   1.835 -1.9004 -0.4883 -4.1846
   91MOL0     H12261  12.774  11.811   1.927  4.1029  0.2018 -1.8915
   91MOL0     H12262  12.683  11.943   2.006 -0.2825 -0.0057 -1.2365
   91MOL0     H12263  12.881  12.000   1.783  0.9199 -1.6312  0.5046
   91MOL0     H12264  12.813  12.103   1.908 -2.3231 -0.3142 -2.9135
   91MOL0     H12265  12.099  11.666   1.102 -0.3640  1.8862  0.8305
   91MOL0     H12266  11.854  11.592   1.037 -0.4297  2.8700 -0.4007
   91MOL0     H12267  11.426  11.661   1.195  0.0452  1.3035 -1.4697
   91MOL0     H12268  11.186  11.659   1.160  1.8604  0.4500  0.0658
   91MOL0     H12269   9.385  11.364   1.577  2.0058 -1.8168 -0.3214
   91MOL0     H12270   9.132  11.354   1.621 -1.1838 -3.0657  2.6806
   91MOL0     H12271   8.758  11.174   1.830  1.5456 -1.0777 -0.6176
   91MOL0     H12272   8.513  11.196   1.845 -0.8495  1.9631 -0.1355
   91MOL0     H12273   8.277  11.085   1.501  1.6108  0.4732 -0.9974
   91MOL0     H12274   8.263  11.251   1.453 -1.6646  0.1012  1.2759
   91MOL0     H12275   8.123  11.117   1.678  1.9622 -0.4941 -0.1063
   91MOL0     H12276   8.054  11.163   1.524  1.6886 -1.4917 -0.7641
   91MOL0     H12277   8.124  11.419   1.595  2.2924  2.0051  3.4910
   91MOL0     H12278   8.167  11.347   1.747 -1.1831  2.8272  0.7651
   91MOL0     H12279   7.943  11.276   1.787  1.3635 -0.0328  0.8983
   91MOL0     H12280   7.963  11.449   1.762  3.4884  1.8347 -2.9948
   91MOL0     H12281   7.683  11.367   1.457 -0.8629 -1.3011  2.3283
   91MOL0     H12282   8.476  11.179   1.407  1.3125 -1.3693 -1.8278
   91MOL0     H12283   8.797  11.118   1.316 -1.1512 -0.8569 -1.8854
   91MOL0     H12284   8.653  11.226   1.287  0.3817  1.2359  0.3441
   91MOL0     H12285   8.796  11.285   1.364  0.0052 -0.4184 -1.3894
   92MOL0     O12286   9.516   4.419   4.246 -0.4595  0.0684 -0.1879
   92MOL0     C12287   9.594   4.453   4.333 -0.4368  0.1550 -0.1965
   92MOL0     O12288   9.624   4.583   4.373 -0.3777 -0.3736 -0.0317
   92MOL0     C12289   9.523   4.675   4.365 -0.1786  0.5690 -0.7031
   92MOL0     C12290   9.433   4.670   4.474  0.2478 -0.8720 -0.4923
   92MOL0     C12291   9.334   4.761   4.498  1.2131 -0.1989 -0.0089
   92MOL0     C12292   9.313   4.863   4.398  0.0358 -0.3751  0.6358
   92MOL0     O12293   9.207   4.957   4.417  0.7019 -0.3501 -0.1746
   92MOL0     C12294   9.189   5.056   4.316  0.6525  0.1742 -0.9063
   92MOL0     C12295   9.060   5.140   4.345 -0.1498 -0.7113 -0.6271
   92MOL0     C12296   9.064   5.222   4.474 -0.0502 -0.6429  0.1402
   92MOL0     C12297   8.933   5.306   4.501 -0.3704 -0.1564  0.4836
   92MOL0     C12298   8.936   5.390   4.622  0.0257 -0.3416 -1.1923
   92MOL0     C12299   9.056   5.484   4.623  0.7973 -1.0663  0.2870
   92MOL0     C12300   9.059   5.590   4.518  0.2492 -0.1247  0.1805
   92MOL0     C12301   9.179   5.681   4.535 -0.3440 -0.0517 -0.4319
   92MOL0     N12302   9.302   5.610   4.556 -0.0245  0.3229  0.9513
   92MOL0     C12303   9.350   5.524   4.459 -0.7734  0.5276  0.2621
   92MOL0     C12304   9.476   5.484   4.497 -0.3460 -0.5211  0.3517
   92MOL0     C12305   9.567   5.386   4.418  0.3389 -0.5250 -0.0382
   92MOL0     C12306   9.708   5.446   4.398 -1.1302  0.6362  0.7771
   92MOL0     C12307   9.800   5.351   4.313 -0.8859  0.4185 -0.1053
   92MOL0     C12308   9.863   5.231   4.385 -0.5702  0.4387 -0.0926
   92MOL0     O12309   9.900   5.126   4.296  0.0755 -0.4015 -0.0230
   92MOL0     C12310   9.941   5.010   4.358 -0.2083  0.4229 -0.4062
   92MOL0     C12311  10.027   5.012   4.472 -0.0435 -1.2377 -0.2719
   92MOL0     C12312  10.072   4.891   4.534  0.6625 -0.2476 -0.0966
   92MOL0     C12313  10.025   4.771   4.482  0.1788  0.5578  0.0849
   92MOL0     C12314  10.057   4.640   4.550  0.1070  0.4458  0.1946
   92MOL0     O12315  10.145   4.654   4.656  0.0687 -0.1584 -0.5852
   92MOL0     C12316  10.164   4.543   4.728 -0.5143 -0.3394 -0.6852
   92MOL0     C12317  10.295   4.486   4.730 -0.0670 -0.2762 -0.7431
   92MOL0     C12318  10.320   4.374   4.813  0.0838 -0.2126  1.4651
   92MOL0     C12319  10.223   4.313   4.893  0.7512 -0.5638  0.3367
   92MOL0     O12320  10.234   4.205   4.978  0.2228  0.0158 -0.4159
   92MOL0     C12321  10.338   4.116   4.970  0.7426  0.0053  0.1310
   92MOL0     C12322  10.371   4.036   5.100  0.6201  0.4757 -0.6785
   92MOL0     C12323  10.257   3.947   5.140  0.2024  0.2420  0.0255
   92MOL0     C12324  10.312   3.859   5.253 -0.6289  0.4526 -0.5997
   92MOL0     C12325  10.225   3.733   5.284 -0.0949 -0.4646  0.0095
   92MOL0     C12326  10.211   3.631   5.173 -0.0046  0.5026 -0.7220
   92MOL0     C12327  10.339   3.549   5.142 -0.7253  0.5413  0.4947
   92MOL0     C12328  10.309   3.443   5.037  0.3990 -0.6567  0.3081
   92MOL0    Cl12329  10.442   3.322   5.032  0.4261  0.0386 -0.1516
   92MOL0     C12330  10.092   4.368   4.888  0.2484 -0.3787  1.3103
   92MOL0     C12331  10.067   4.483   4.817 -0.0993  0.0154 -0.3763
   92MOL0     O12332  10.009   4.534   4.511 -0.2615  0.8123  0.3720
   92MOL0     C12333   9.941   4.768   4.372  0.5820 -0.2025 -0.0071
   92MOL0     C12334   9.898   4.886   4.314  0.1208  0.1469 -0.2543
   92MOL0     N12335   9.507   5.553   4.608  0.9503 -0.4348  0.8589
   92MOL0     N12336   9.402   5.623   4.649 -0.4735 -0.3814 -0.3080
   92MOL0     C12337   9.411   4.864   4.288  0.3989  0.7573 -0.1814
   92MOL0     C12338   9.519   4.783   4.274  0.2423  0.3028  0.8282
   92MOL0     C12339   9.657   4.341   4.416  0.2000 -0.1781 -0.3684
   92MOL0     C12340   9.716   4.373   4.540 -0.2798 -0.1662  0.2949
   92MOL0     C12341   9.771   4.278   4.614 -0.2459  0.2711  0.0581
   92MOL0     C12342   9.767   4.147   4.574 -0.0909  0.0747  0.1708
   92MOL0     O12343   9.836   4.051   4.644 -0.6006  0.2361 -0.5380
   92MOL0     C12344   9.944   4.079   4.729 -0.2120 -0.8961  0.7738
   92MOL0     C12345  10.027   3.963   4.784 -0.2452  0.0132  0.3312
   92MOL0     C12346  10.051   3.845   4.694 -0.4715  0.5955 -0.3170
   92MOL0     C12347  10.115   3.730   4.768  0.4924 -0.1042  0.5058
   92MOL0     C12348  10.262   3.742   4.789  0.1626 -0.8417 -0.1143
   92MOL0     C12349  10.382   3.747   4.821  0.4574 -0.0482 -0.6381
   92MOL0     C12350   9.690   4.108   4.466 -1.1328  1.3589 -0.4271
   92MOL0     C12351   9.641   4.205   4.376  0.4128 -0.6794 -0.3789
   92MOL0     C12352   9.582   4.147   4.251 -0.1092  0.3557 -0.9199
   92MOL0     H12353   9.430   4.587   4.544 -1.7621 -2.1705 -2.0300
   92MOL0     H12354   9.283   4.746   4.593  0.5938 -2.3868 -0.6251
   92MOL0     H12355   9.269   5.130   4.317 -0.0174  0.9894  2.1536
   92MOL0     H12356   9.181   5.014   4.215 -0.0221  0.6869 -1.0732
   92MOL0     H12357   8.973   5.076   4.363 -0.3598  0.1437  1.7303
   92MOL0     H12358   9.044   5.213   4.265 -0.2553  0.5275  0.5025
   92MOL0     H12359   9.139   5.301   4.464 -2.6730  2.5926  3.0128
   92MOL0     H12360   9.085   5.169   4.568  0.8195 -0.0909  0.2655
   92MOL0     H12361   8.909   5.366   4.413  2.1548  2.2203  1.2656
   92MOL0     H12362   8.852   5.235   4.519 -0.8736  0.2923 -0.0130
   92MOL0     H12363   8.837   5.436   4.630 -1.0092 -2.5766 -0.2497
   92MOL0     H12364   8.939   5.325   4.710 -0.3053  1.4165  0.1720
   92MOL0     H12365   9.063   5.533   4.721  0.4768 -1.7577  0.6574
   92MOL0     H12366   9.149   5.427   4.619  2.0530  0.9301 -1.4810
   92MOL0     H12367   8.972   5.657   4.522 -1.0861 -1.7708  0.1478
   92MOL0     H12368   9.048   5.545   4.418 -0.8087  2.8285 -1.1554
   92MOL0     H12369   9.184   5.748   4.449 -1.7177  0.7987  0.1294
   92MOL0     H12370   9.157   5.738   4.625  0.2445 -3.5977  2.1839
   92MOL0     H12371   9.293   5.491   4.373  0.2334 -1.1151  0.1920
   92MOL0     H12372   9.576   5.284   4.457  1.0234 -1.1081 -1.6120
   92MOL0     H12373   9.521   5.368   4.320 -0.4567  0.7137  0.0897
   92MOL0     H12374   9.695   5.544   4.352  1.3769  0.2006 -1.0399
   92MOL0     H12375   9.754   5.461   4.496 -1.6362  0.5743  1.0290
   92MOL0     H12376   9.879   5.412   4.268 -0.0959 -0.4872  0.0108
   92MOL0     H12377   9.732   5.319   4.234  0.2333 -1.1830 -0.4810
   92MOL0     H12378   9.796   5.190   4.461 -0.3504  0.2466  0.0014
   92MOL0     H12379   9.958   5.264   4.429  0.1052  1.2100 -2.0307
   92MOL0     H12380  10.065   5.107   4.508  0.2375 -1.5223  0.1905
   92MOL0     H12381  10.147   4.891   4.613  0.1631  1.2827  0.4195
   92MOL0     H12382  10.373   4.536   4.674  0.1391 -0.7100 -0.8459
   92MOL0     H12383  10.421   4.347   4.841 -0.1323 -0.4292  2.0437
   92MOL0     H12384  10.308   4.047   4.891 -1.5110  1.3743 -0.3141
   92MOL0     H12385  10.434   4.163   4.952  2.3588 -3.2322 -0.5214
   92MOL0     H12386  10.456   3.972   5.076  1.2204  1.3812 -1.0102
   92MOL0     H12387  10.397   4.109   5.178  1.5060 -1.2806  0.7282
   92MOL0     H12388  10.166   4.000   5.169 -1.2370 -2.2811  0.4249
   92MOL0     H12389  10.218   3.893   5.053 -1.8900  0.2174  0.9110
   92MOL0     H12390  10.316   3.923   5.342 -1.3523  3.5711 -2.6391
   92MOL0     H12391  10.413   3.834   5.221 -1.3033 -1.9598 -1.0301
   92MOL0     H12392  10.125   3.762   5.320 -2.6570 -3.1689 -4.0909
   92MOL0     H12393  10.264   3.676   5.369  0.0460  0.1122  0.3399
   92MOL0     H12394  10.130   3.570   5.212  1.0852  1.2335  3.1549
   92MOL0     H12395  10.172   3.676   5.081 -0.4689  3.5970  0.8296
   92MOL0     H12396  10.390   3.507   5.229 -1.6870  0.4598  1.0281
   92MOL0     H12397  10.405   3.619   5.091 -2.5089 -0.4904 -3.7027
   92MOL0     H12398  10.214   3.398   5.067  0.8522 -1.1433  1.0443
   92MOL0     H12399  10.302   3.487   4.937  2.1633 -1.9774 -0.4526
   92MOL0     H12400  10.007   4.332   4.945 -0.5773  1.0484  1.0444
   92MOL0     H12401   9.972   4.532   4.833  1.0705  2.9277 -1.4502
   92MOL0     H12402   9.910   4.669   4.340 -0.9820 -0.2012  1.3869
   92MOL0     H12403   9.822   4.886   4.237  0.6072  0.8174 -0.7504
   92MOL0     H12404   9.383   4.935   4.210 -2.6179 -0.0913  0.0054
   92MOL0     H12405   9.587   4.807   4.193  0.7942 -1.7558  0.6306
   92MOL0     H12406   9.717   4.476   4.574  0.2402 -0.8704  2.5586
   92MOL0     H12407   9.822   4.319   4.701  2.0854  0.0360 -1.1181
   92MOL0     H12408   9.898   4.136   4.810 -1.8618 -0.3443 -0.5087
   92MOL0     H12409  10.016   4.146   4.682 -0.0218 -0.1061  2.1312
   92MOL0     H12410   9.970   3.921   4.868 -1.6954  2.7778  0.8467
   92MOL0     H12411  10.124   4.002   4.816  0.3099 -0.6929 -0.4322
   92MOL0     H12412  10.106   3.872   4.603  0.4035 -1.3589 -0.4217
   92MOL0     H12413   9.954   3.810   4.658 -0.8195  4.5153 -4.0244
   92MOL0     H12414  10.068   3.722   4.866 -2.6003 -2.6867 -0.9853
   92MOL0     H12415  10.085   3.639   4.714 -1.6322  1.9650 -2.0806
   92MOL0     H12416  10.478   3.749   4.867  0.1840  1.1599 -0.0781
   92MOL0     H12417   9.687   4.003   4.442 -1.3029  0.6362  2.4458
   92MOL0     H12418   9.615   4.044   4.236  2.1951  0.2652  3.4134
   92MOL0     H12419   9.474   4.142   4.264  0.1502 -3.7947  1.1692
   92MOL0     H12420   9.618   4.188   4.156 -0.5566 -0.2601 -1.3603
   93MOL0     O12421   1.642   7.591   3.866 -0.8049  0.0417  0.3551
   93MOL0     C12422   1.714   7.678   3.813  0.1651  0.9278  0.1788
   93MOL0     O12423   1.841   7.708   3.849 -0.2857 -0.1669  0.2407
   93MOL0     C12424   1.936   7.625   3.911  0.2738 -0.2889 -0.1150
   93MOL0     C12425   1.916   7.496   3.961  0.3333 -1.0512 -0.3850
   93MOL0     C12426   2.019   7.425   4.037  0.2859  0.1673 -0.5416
   93MOL0     C12427   2.144   7.487   4.044  0.1804  0.4312  0.1885
   93MOL0     O12428   2.240   7.422   4.112 -0.0030 -0.4453 -0.6859
   93MOL0     C12429   2.294   7.487   4.232 -0.1985  0.0503  0.3960
   93MOL0     C12430   2.207   7.459   4.360 -0.3926  0.1905 -0.1610
   93MOL0     C12431   2.201   7.316   4.404  0.3394  0.2169  0.0228
   93MOL0     C12432   2.329   7.267   4.469  0.0079 -0.4738 -0.3779
   93MOL0     C12433   2.335   7.115   4.491 -0.3247  0.4984  0.6074
   93MOL0     C12434   2.455   7.068   4.581 -0.0331 -0.0877  0.5470
   93MOL0     C12435   2.433   6.919   4.627  0.5112  0.9034 -0.3829
   93MOL0     C12436   2.505   6.812   4.529  0.7711 -0.0557 -0.0205
   93MOL0     N12437   2.537   6.689   4.594 -0.6996 -0.6529 -0.1756
   93MOL0     C12438   2.609   6.676   4.715  0.4237 -0.6905  0.9418
   93MOL0     C12439   2.586   6.551   4.752  0.3973 -0.4509  0.4014
   93MOL0     C12440   2.637   6.493   4.886 -0.0723  0.6469  0.6217
   93MOL0     C12441   2.777   6.431   4.851 -0.3222 -0.0058  0.6922
   93MOL0     C12442   2.813   6.316   4.941  0.0234 -0.1384  0.5012
   93MOL0     C12443   2.947   6.244   4.896  0.0607  0.1317  0.2884
   93MOL0     O12444   3.068   6.318   4.922 -0.0635 -0.4625 -0.0972
   93MOL0     C12445   3.192   6.249   4.907 -0.4922 -0.5649 -0.1823
   93MOL0     C12446   3.219   6.151   4.811  0.0214 -0.6208  0.2318
   93MOL0     C12447   3.347   6.093   4.801 -0.4393  0.0123 -0.0040
   93MOL0     C12448   3.452   6.142   4.890 -0.6160  0.2697 -0.5972
   93MOL0     C12449   3.595   6.102   4.874 -0.2754 -0.0410 -0.4818
   93MOL0     O12450   3.628   6.068   4.745 -0.8088 -0.5221  0.2547
   93MOL0     C12451   3.760   6.024   4.719  0.2179  0.1400 -0.5676
   93MOL0     C12452   3.870   6.091   4.760 -0.2335  0.2332  0.5724
   93MOL0     C12453   3.998   6.046   4.719 -0.1208 -0.1365 -0.1286
   93MOL0     C12454   4.013   5.930   4.638 -0.6016 -0.0948  0.5754
   93MOL0     O12455   4.133   5.880   4.597 -0.3576  0.5626 -0.3246
   93MOL0     C12456   4.266   5.935   4.631  0.1884 -0.3421 -0.2479
   93MOL0     C12457   4.374   5.839   4.592 -0.9062 -0.0531 -1.4695
   93MOL0     C12458   4.511   5.884   4.644 -0.7099  0.4667  0.0741
   93MOL0     C12459   4.582   5.761   4.710 -0.0952 -0.9618  0.3962
   93MOL0     C12460   4.721   5.796   4.780 -0.0770 -0.2018 -0.0641
   93MOL0     C12461   4.838   5.804   4.681  0.1490 -0.6665 -0.2193
   93MOL0     C12462   4.861   5.670   4.611 -0.0774 -0.1628  0.1842
   93MOL0     C12463   5.006   5.649   4.574  0.2483 -0.4162 -0.9429
   93MOL0    Cl12464   5.085   5.575   4.706  0.0939  0.2751 -0.2373
   93MOL0     C12465   3.901   5.865   4.593 -0.6326  0.1479 -0.5158
   93MOL0     C12466   3.774   5.914   4.636 -0.4768  0.1796  0.9182
   93MOL0     O12467   3.668   6.082   4.975  0.1818 -0.3190 -0.0644
   93MOL0     C12468   3.421   6.240   4.988  0.0628  0.3424 -0.1169
   93MOL0     C12469   3.297   6.291   4.986  0.6673 -1.2309  0.8469
   93MOL0     N12470   2.508   6.484   4.661 -0.2668 -0.5819  0.0472
   93MOL0     N12471   2.491   6.567   4.563 -0.0064  0.0064  0.5541
   93MOL0     C12472   2.165   7.610   3.988 -0.3366 -0.9681  0.0620
   93MOL0     C12473   2.062   7.682   3.925 -0.4100  0.1060  0.0122
   93MOL0     C12474   1.643   7.782   3.722 -0.9788 -0.4038 -0.4772
   93MOL0     C12475   1.723   7.895   3.673  0.3897  0.1077  0.0201
   93MOL0     C12476   1.657   7.995   3.587  0.6875 -0.9547 -0.2015
   93MOL0     C12477   1.520   7.991   3.559  0.1405  0.3338  0.1251
   93MOL0     O12478   1.441   8.082   3.488  0.0051  0.2592 -0.2000
   93MOL0     C12479   1.500   8.129   3.369 -0.1808 -0.3350  0.0203
   93MOL0     C12480   1.409   8.187   3.262  0.3122 -0.1228 -0.4173
   93MOL0     C12481   1.316   8.297   3.319  0.5449 -0.2056 -0.0972
   93MOL0     C12482   1.202   8.332   3.218  0.0158  0.0676 -0.7803
   93MOL0     C12483   1.246   8.399   3.096  0.2901  0.2036 -0.8111
   93MOL0     C12484   1.280   8.448   2.991 -0.6565 -0.4562 -0.0716
   93MOL0     C12485   1.445   7.884   3.615 -0.5830  0.2411  0.3692
   93MOL0     C12486   1.498   7.778   3.693 -0.1963  0.3442 -0.7726
   93MOL0     C12487   1.399   7.673   3.735 -0.0148  0.5687  0.1539
   93MOL0     H12488   1.826   7.438   3.943  1.5076 -2.9000 -0.5511
   93MOL0     H12489   2.002   7.334   4.092 -0.2292  2.3951  3.3641
   93MOL0     H12490   2.400   7.464   4.245  0.5491  2.7613 -0.1666
   93MOL0     H12491   2.297   7.596   4.226 -3.7945  0.1734 -1.7351
   93MOL0     H12492   2.104   7.487   4.334  0.2788  0.2995 -3.0546
   93MOL0     H12493   2.245   7.517   4.444 -2.1264  2.2028 -0.6742
   93MOL0     H12494   2.186   7.253   4.316 -0.5234  0.3153  0.0926
   93MOL0     H12495   2.118   7.299   4.473 -0.1041 -1.6215 -0.9146
   93MOL0     H12496   2.411   7.303   4.405  0.2605 -2.8367 -1.4928
   93MOL0     H12497   2.336   7.313   4.568 -0.2023  0.9918 -1.0240
   93MOL0     H12498   2.248   7.079   4.548 -0.1959  0.5151  0.8146
   93MOL0     H12499   2.327   7.066   4.394  0.6150  0.3055  0.6240
   93MOL0     H12500   2.547   7.070   4.522 -1.0510 -1.0445 -1.1502
   93MOL0     H12501   2.471   7.133   4.668 -0.6071  0.1819  0.4622
   93MOL0     H12502   2.327   6.897   4.639 -0.2242  3.9853 -0.5011
   93MOL0     H12503   2.485   6.910   4.723  2.4092  2.0528 -1.2515
   93MOL0     H12504   2.440   6.789   4.443  0.7755  1.5700 -0.4889
   93MOL0     H12505   2.595   6.858   4.488  0.7695 -1.9119 -2.3115
   93MOL0     H12506   2.674   6.744   4.769  0.9738  0.0851 -0.6115
   93MOL0     H12507   2.646   6.568   4.965  1.0075  0.4474  0.7075
   93MOL0     H12508   2.579   6.408   4.923 -0.7874 -0.0197 -1.8660
   93MOL0     H12509   2.777   6.389   4.750 -0.5808 -3.3393  1.9539
   93MOL0     H12510   2.850   6.510   4.871 -0.2206 -0.4122  2.0349
   93MOL0     H12511   2.735   6.240   4.951  1.3454 -1.4166  1.6138
   93MOL0     H12512   2.827   6.362   5.040 -0.9478 -2.3437  1.7510
   93MOL0     H12513   2.944   6.234   4.787 -0.7349  1.0866  0.2160
   93MOL0     H12514   2.958   6.141   4.934 -3.1563 -1.2871 -2.1777
   93MOL0     H12515   3.150   6.114   4.737  1.5932 -1.6261 -0.7998
   93MOL0     H12516   3.354   6.017   4.723  0.0355 -0.7601  0.7763
   93MOL0     H12517   3.866   6.190   4.806 -1.5950  0.3712  0.2195
   93MOL0     H12518   4.086   6.099   4.753  1.2096 -1.6823 -1.0317
   93MOL0     H12519   4.265   6.024   4.567 -0.2872  2.3001  3.1186
   93MOL0     H12520   4.270   5.959   4.738 -1.6843 -0.0944 -0.1972
   93MOL0     H12521   4.338   5.743   4.631  0.3428  0.1914  0.3945
   93MOL0     H12522   4.377   5.840   4.483  0.0490 -0.3750 -1.4543
   93MOL0     H12523   4.580   5.915   4.565 -0.9179 -0.5639 -0.5351
   93MOL0     H12524   4.511   5.968   4.713 -2.3541  1.5530 -1.1802
   93MOL0     H12525   4.599   5.685   4.633  0.4491 -0.5643  0.1150
   93MOL0     H12526   4.516   5.728   4.790  0.3482  1.5822  1.9240
   93MOL0     H12527   4.737   5.726   4.863  1.0682  2.3047  1.9279
   93MOL0     H12528   4.715   5.893   4.830 -1.6584  0.7808 -2.0110
   93MOL0     H12529   4.825   5.888   4.613  0.0761 -0.0819  0.5014
   93MOL0     H12530   4.927   5.826   4.741 -0.6363  4.2692 -0.4402
   93MOL0     H12531   4.802   5.671   4.519 -0.3867  0.4946  0.3834
   93MOL0     H12532   4.823   5.587   4.671  1.5930 -1.2519 -0.1910
   93MOL0     H12533   5.022   5.578   4.493 -1.3249 -0.4925 -1.2343
   93MOL0     H12534   5.056   5.743   4.552 -0.2297  0.1461  0.2358
   93MOL0     H12535   3.921   5.787   4.519  0.4233 -0.1724  0.0885
   93MOL0     H12536   3.683   5.865   4.602 -2.4387  1.5815  3.7895
   93MOL0     H12537   3.497   6.277   5.056  0.8085  1.2532 -1.3982
   93MOL0     H12538   3.277   6.371   5.056 -0.3435 -2.0176  1.4881
   93MOL0     H12539   2.263   7.654   3.971 -1.1724  0.2353 -2.0843
   93MOL0     H12540   2.076   7.776   3.871 -1.4229 -1.4004 -3.1098
   93MOL0     H12541   1.831   7.905   3.681  0.1761  2.8573  0.6689
   93MOL0     H12542   1.709   8.076   3.538  1.2357 -1.4812 -0.5175
   93MOL0     H12543   1.562   8.051   3.324  1.3317  0.2723  0.9677
   93MOL0     H12544   1.571   8.202   3.408 -0.2549  0.6665 -1.6306
   93MOL0     H12545   1.349   8.100   3.233  0.8617 -0.9463  0.8468
   93MOL0     H12546   1.460   8.232   3.176  0.5510  0.0070 -0.2090
   93MOL0     H12547   1.363   8.396   3.315  0.5374 -0.2458 -1.8123
   93MOL0     H12548   1.288   8.263   3.419  0.3642 -0.5331 -0.2577
   93MOL0     H12549   1.137   8.246   3.197 -1.8297  1.3217 -0.4228
   93MOL0     H12550   1.152   8.415   3.268  2.1435  0.2941  1.0933
   93MOL0     H12551   1.303   8.490   2.896  0.6961 -0.4607  0.2291
   93MOL0     H12552   1.337   7.895   3.609 -0.9499 -1.9807  1.8887
   93MOL0     H12553   1.434   7.572   3.713  2.8249  1.3409  0.6629
   93MOL0     H12554   1.390   7.680   3.844 -0.1820  3.1831  0.0219
   93MOL0     H12555   1.301   7.689   3.690  0.3369 -0.8729 -1.2359
   94MOL0     O12556  10.041   2.207   3.961 -0.1693 -0.3640 -0.0037
   94MOL0     C12557  10.031   2.172   3.846  0.1754  0.0483  0.6086
   94MOL0     O12558  10.129   2.150   3.757 -0.0698  0.3346 -0.6336
   94MOL0     C12559  10.252   2.147   3.807 -0.8400  0.8822  0.3314
   94MOL0     C12560  10.298   2.064   3.914  0.3367  0.0541 -0.1226
   94MOL0     C12561  10.427   2.059   3.963 -0.1081 -0.5846 -0.4259
   94MOL0     C12562  10.530   2.136   3.901  0.1489  0.2729  0.4695
   94MOL0     O12563  10.662   2.119   3.939 -0.2984  0.6434  0.7177
   94MOL0     C12564  10.752   2.078   3.827  0.3131  0.2411 -0.4036
   94MOL0     C12565  10.897   2.095   3.856 -0.4441  0.2034  0.0001
   94MOL0     C12566  10.946   2.052   3.996 -0.1308 -0.1980  0.3316
   94MOL0     C12567  11.097   2.053   4.004 -0.0175 -0.2533 -0.2631
   94MOL0     C12568  11.154   2.030   4.146 -0.3677 -0.0768  0.9781
   94MOL0     C12569  11.307   2.038   4.143  0.0274  0.4402 -0.4322
   94MOL0     C12570  11.370   2.124   4.248 -1.7736  0.4221 -0.2755
   94MOL0     C12571  11.520   2.107   4.248  0.5697  0.0981  0.0268
   94MOL0     N12572  11.591   2.158   4.362 -0.7256  0.1056 -0.6146
   94MOL0     C12573  11.702   2.239   4.358 -0.1049 -0.4576  0.0079
   94MOL0     C12574  11.747   2.256   4.484  0.3671  0.0161 -0.4667
   94MOL0     C12575  11.867   2.337   4.531 -0.6491 -0.3281 -0.5676
   94MOL0     C12576  11.967   2.272   4.628 -0.0408  0.2483  0.4577
   94MOL0     C12577  12.099   2.347   4.621  0.0378  0.6598  0.1285
   94MOL0     C12578  12.174   2.301   4.755 -0.3712  0.7282  0.6955
   94MOL0     O12579  12.284   2.379   4.793  0.2121  0.1421 -0.1252
   94MOL0     C12580  12.405   2.351   4.753  0.2433  1.1196  0.1160
   94MOL0     C12581  12.444   2.265   4.645 -0.9363  0.7668  0.5713
   94MOL0     C12582  12.575   2.247   4.608 -0.1971 -0.3456  0.0689
   94MOL0     C12583  12.676   2.321   4.676  0.2613  0.3775  1.1746
   94MOL0     C12584  12.815   2.310   4.623 -0.4182  0.5286 -0.1904
   94MOL0     O12585  12.838   2.202   4.548  0.2717  0.6420  0.4523
   94MOL0     C12586  12.958   2.195   4.482  0.1178 -0.1844 -0.4727
   94MOL0     C12587  12.968   2.204   4.351 -0.4690  0.2446  0.4912
   94MOL0     C12588  13.091   2.209   4.287 -0.6412  0.4084 -1.2869
   94MOL0     C12589  13.214   2.175   4.362 -0.0707  0.1009  0.6515
   94MOL0     O12590  13.342   2.159   4.313  0.1152 -0.3161  0.1667
   94MOL0     C12591  13.375   2.197   4.176 -0.1371 -0.5541 -0.0746
   94MOL0     C12592  13.471   2.320   4.181  0.2493 -0.1106  0.1284
   94MOL0     C12593  13.613   2.287   4.185  0.2664 -0.2223  0.0696
   94MOL0     C12594  13.712   2.402   4.158 -0.3421  0.5784 -0.0566
   94MOL0     C12595  13.850   2.346   4.145 -0.4786  0.0232 -1.1557
   94MOL0     C12596  13.934   2.472   4.120 -0.4342  0.5180 -0.7356
   94MOL0     C12597  14.082   2.444   4.119 -0.2665  0.4118 -0.4986
   94MOL0     C12598  14.175   2.565   4.070 -0.0546  1.2026  0.5820
   94MOL0    Cl12599  14.177   2.695   4.192 -0.0676 -0.4956  0.0083
   94MOL0     C12600  13.196   2.152   4.499 -0.2775  0.1083 -0.0703
   94MOL0     C12601  13.071   2.157   4.558  0.6522  0.2834 -1.5038
   94MOL0     O12602  12.891   2.407   4.639 -0.5214 -0.1851  0.9997
   94MOL0     C12603  12.644   2.411   4.774  0.3470  0.5367  0.7260
   94MOL0     C12604  12.513   2.425   4.810  0.8359 -0.4456  0.2684
   94MOL0     N12605  11.662   2.178   4.565 -1.1634 -0.0405 -0.8307
   94MOL0     N12606  11.573   2.121   4.492  0.0038  0.3796 -0.1643
   94MOL0     C12607  10.483   2.218   3.790  0.3621  1.6904  0.0742
   94MOL0     C12608  10.345   2.227   3.750  0.2697 -0.4469  0.3439
   94MOL0     C12609   9.898   2.155   3.787  0.5444 -0.4831 -0.2950
   94MOL0     C12610   9.881   2.047   3.696 -0.4275 -0.1341  0.1764
   94MOL0     C12611   9.753   2.019   3.636 -0.3100  1.0926  0.3403
   94MOL0     C12612   9.646   2.105   3.663  0.1985 -0.1202  0.0931
   94MOL0     O12613   9.520   2.096   3.603  0.3371  0.8141 -0.2769
   94MOL0     C12614   9.512   2.066   3.459 -0.7808 -0.1267 -0.0656
   94MOL0     C12615   9.395   1.970   3.430 -1.1388 -0.1773 -0.1771
   94MOL0     C12616   9.353   1.953   3.292  0.5050  0.6122  0.4309
   94MOL0     C12617   9.290   2.069   3.220  0.3187  0.1151  0.3875
   94MOL0     C12618   9.231   2.026   3.097 -0.2027 -0.1526  0.7509
   94MOL0     C12619   9.170   1.991   2.994 -0.0014 -0.9019  0.3226
   94MOL0     C12620   9.661   2.202   3.763  0.6354  0.2938 -0.1487
   94MOL0     C12621   9.784   2.227   3.826  1.1246 -0.0185 -0.2261
   94MOL0     C12622   9.803   2.348   3.917 -0.0755 -0.0262 -0.4153
   94MOL0     H12623  10.224   2.000   3.960  0.6535 -1.1389 -1.1942
   94MOL0     H12624  10.440   1.990   4.046 -2.7603 -0.5335  0.1328
   94MOL0     H12625  10.737   1.975   3.794  1.2344 -0.1333  0.3109
   94MOL0     H12626  10.730   2.112   3.725  1.7202 -2.2049 -1.6116
   94MOL0     H12627  10.914   2.202   3.842  0.6928  0.3164  1.9256
   94MOL0     H12628  10.946   2.040   3.775  2.2698  0.9930  0.9959
   94MOL0     H12629  10.912   1.952   4.025 -0.1949  0.1133  1.3937
   94MOL0     H12630  10.914   2.124   4.072  1.3278 -0.3623  1.1478
   94MOL0     H12631  11.127   1.974   3.934 -1.6040  0.0865 -1.3881
   94MOL0     H12632  11.130   2.152   3.971  0.4162 -0.5971 -0.8608
   94MOL0     H12633  11.126   2.106   4.221 -0.7817 -0.9103  1.6827
   94MOL0     H12634  11.104   1.940   4.182 -1.5173 -0.6533 -1.8643
   94MOL0     H12635  11.334   1.933   4.161 -0.2482 -0.2898 -3.5506
   94MOL0     H12636  11.342   2.063   4.042 -0.7810  0.9179 -0.6055
   94MOL0     H12637  11.334   2.114   4.351 -0.9919  0.1376 -0.0258
   94MOL0     H12638  11.355   2.230   4.226 -2.2363  0.2186 -0.9866
   94MOL0     H12639  11.546   2.002   4.234  0.8874  0.2247 -0.3536
   94MOL0     H12640  11.553   2.158   4.157  0.8743 -0.9010 -0.4367
   94MOL0     H12641  11.744   2.285   4.270 -0.0882 -0.2797  0.1075
   94MOL0     H12642  11.928   2.372   4.447 -0.0805  1.0357  0.3782
   94MOL0     H12643  11.836   2.428   4.584  2.0017  0.5572 -0.3738
   94MOL0     H12644  11.934   2.259   4.731  1.6122 -0.6215  0.9198
   94MOL0     H12645  11.993   2.169   4.601  1.0498  0.1265  1.8409
   94MOL0     H12646  12.083   2.454   4.639 -0.3601  1.0606 -2.2900
   94MOL0     H12647  12.149   2.338   4.525  0.7788 -1.2671  0.6512
   94MOL0     H12648  12.198   2.195   4.747  3.4266  1.5431 -0.6530
   94MOL0     H12649  12.100   2.325   4.832 -0.9179  2.6761 -0.3624
   94MOL0     H12650  12.370   2.213   4.584  0.0756  1.1745 -1.0683
   94MOL0     H12651  12.588   2.177   4.526  0.5036 -0.7746  0.5293
   94MOL0     H12652  12.881   2.217   4.287 -0.8576 -0.6019  0.8287
   94MOL0     H12653  13.082   2.228   4.181 -2.0016  4.0296 -0.6812
   94MOL0     H12654  13.437   2.118   4.132  1.0569 -0.5692  1.5612
   94MOL0     H12655  13.286   2.226   4.118 -1.0540  1.1009  2.0268
   94MOL0     H12656  13.455   2.378   4.090  0.5049  1.5070  1.0802
   94MOL0     H12657  13.436   2.386   4.261 -0.7739 -1.1720  0.6090
   94MOL0     H12658  13.637   2.244   4.283  2.5818  1.1433  0.1844
   94MOL0     H12659  13.624   2.215   4.104 -0.1052  0.4835 -0.6224
   94MOL0     H12660  13.702   2.473   4.241 -0.9633  1.4030 -0.8259
   94MOL0     H12661  13.693   2.456   4.065 -1.4977  2.1309  1.0356
   94MOL0     H12662  13.852   2.278   4.058 -1.9276  1.4630 -2.3756
   94MOL0     H12663  13.901   2.296   4.228  2.9698  1.2676 -2.3405
   94MOL0     H12664  13.903   2.510   4.023  1.0417 -1.5159 -2.0945
   94MOL0     H12665  13.914   2.543   4.200  1.5467 -0.2048  0.4878
   94MOL0     H12666  14.096   2.355   4.057  0.6452  2.2049 -3.0406
   94MOL0     H12667  14.109   2.422   4.223  0.4919 -1.7499 -1.1074
   94MOL0     H12668  14.275   2.519   4.075 -0.9456 -0.7002  2.4261
   94MOL0     H12669  14.158   2.600   3.969  0.6802 -1.1682 -0.4437
   94MOL0     H12670  13.273   2.121   4.569 -0.0753 -0.5157 -0.5563
   94MOL0     H12671  13.058   2.149   4.665  1.1619 -2.6505 -1.5642
   94MOL0     H12672  12.721   2.480   4.806 -0.5721  1.9620 -0.0125
   94MOL0     H12673  12.479   2.500   4.880 -1.6184  0.6092 -1.8997
   94MOL0     H12674  10.562   2.279   3.746  0.4773  0.4850 -1.5205
   94MOL0     H12675  10.306   2.304   3.684 -0.0905  0.5293  1.6515
   94MOL0     H12676   9.961   1.976   3.678 -0.5302 -0.5419  1.2285
   94MOL0     H12677   9.753   1.933   3.570  1.0546  0.1592  1.5074
   94MOL0     H12678   9.600   2.009   3.427 -1.5357 -1.5608  0.3333
   94MOL0     H12679   9.494   2.156   3.400  1.0466 -0.1279 -0.7055
   94MOL0     H12680   9.308   1.998   3.490 -3.1818 -0.1528 -2.9037
   94MOL0     H12681   9.427   1.870   3.462 -2.5848 -0.5007  0.3455
   94MOL0     H12682   9.285   1.867   3.296  0.8152  0.1478 -2.4752
   94MOL0     H12683   9.448   1.933   3.242  1.3324 -3.4224  3.0663
   94MOL0     H12684   9.217   2.120   3.285 -0.2169  1.6317 -1.3316
   94MOL0     H12685   9.368   2.141   3.195  0.6241 -0.3110  0.1249
   94MOL0     H12686   9.117   1.971   2.903 -0.0391 -2.0975  0.5997
   94MOL0     H12687   9.567   2.247   3.794 -0.4562 -1.5044 -0.6653
   94MOL0     H12688   9.880   2.410   3.871 -0.4698 -0.1091 -1.2037
   94MOL0     H12689   9.716   2.414   3.908  1.3907  1.7000 -3.0614
   94MOL0     H12690   9.815   2.324   4.023 -0.8100  2.3817  0.2741
   95MOL0     O12691   2.814  10.088   9.780 -0.4332  0.2895  0.6583
   95MOL0     C12692   2.751  10.155   9.700 -0.5018 -0.1922 -1.0692
   95MOL0     O12693   2.808  10.248   9.627  0.0504  0.2092 -0.1593
   95MOL0     C12694   2.936  10.291   9.670 -0.1950 -0.1075 -0.2982
   95MOL0     C12695   2.951  10.422   9.716  0.2618 -0.1579 -0.5311
   95MOL0     C12696   3.073  10.469   9.756 -0.4841 -0.6232 -0.5701
   95MOL0     C12697   3.191  10.397   9.742 -0.8765 -0.0612 -0.0297
   95MOL0     O12698   3.311  10.440   9.792 -0.8302  0.3920 -0.5525
   95MOL0     C12699   3.326  10.543   9.887 -0.6676 -0.2631  0.3470
   95MOL0     C12700   3.473  10.543   9.945  0.8471 -0.5122 -0.4547
   95MOL0     C12701   3.539  10.638   9.837  0.4435  0.5708 -0.4399
   95MOL0     C12702   3.683  10.688   9.878 -0.2537 -0.3205 -0.3006
   95MOL0     C12703   3.749  10.777   9.769  1.4330  0.7945  0.8784
   95MOL0     C12704   3.898  10.792   9.800 -0.2931  0.2636 -0.1272
   95MOL0     C12705   3.971  10.871   9.686  0.2416  0.8761  0.5494
   95MOL0     C12706   4.121  10.854   9.692  0.4248  0.6324  0.1184
   95MOL0     N12707   4.185  10.929   9.575  0.1051  0.0040 -0.2090
   95MOL0     C12708   4.242  11.052   9.560  0.1176 -0.9699  0.0864
   95MOL0     C12709   4.269  11.064   9.427  0.2912  0.6767 -0.5679
   95MOL0     C12710   4.320  11.187   9.357  0.1744 -0.1420  0.0636
   95MOL0     C12711   4.463  11.217   9.393  0.1153  0.1081 -0.4281
   95MOL0     C12712   4.574  11.155   9.304 -0.2855 -0.4674 -0.2051
   95MOL0     C12713   4.716  11.207   9.327  0.5398 -0.3385  1.0211
   95MOL0     O12714   4.751  11.230   9.467 -0.9040 -0.1986  0.4876
   95MOL0     C12715   4.878  11.278   9.500  0.3267  0.2172  0.5219
   95MOL0     C12716   4.904  11.292   9.632 -0.5943  0.2930 -0.0843
   95MOL0     C12717   5.036  11.319   9.665 -0.0799 -0.3546 -0.0002
   95MOL0     C12718   5.139  11.333   9.570  0.5559 -0.2083 -0.0714
   95MOL0     C12719   5.275  11.369   9.608 -0.1076 -0.3628 -0.0883
   95MOL0     O12720   5.311  11.359   9.743 -0.1503 -0.2683  0.8061
   95MOL0     C12721   5.444  11.379   9.792  0.3141 -0.0940  0.0327
   95MOL0     C12722   5.561  11.407   9.715 -1.3508 -0.2586  0.3760
   95MOL0     C12723   5.682  11.443   9.774 -0.2340  0.8894  0.1349
   95MOL0     C12724   5.689  11.447   9.914  0.6369  0.2008 -0.3600
   95MOL0     O12725   5.807  11.480   9.963  0.2990 -0.1903 -0.3693
   95MOL0     C12726   5.800  11.610  10.037  0.3591 -0.1482  0.7581
   95MOL0     C12727   5.942  11.632  10.092  1.0651 -0.3344 -0.0299
   95MOL0     C12728   5.968  11.782  10.118  0.6996  0.4397 -0.6330
   95MOL0     C12729   6.031  11.836   9.994  0.0805 -0.4670 -1.7863
   95MOL0     C12730   6.184  11.816  10.000  0.1783 -0.6196  0.1034
   95MOL0     C12731   6.235  11.838   9.858 -0.0806 -0.3168 -0.2383
   95MOL0     C12732   6.384  11.879   9.857 -0.2915  0.0716 -0.3411
   95MOL0     C12733   6.427  11.902   9.716 -0.1859  0.8348 -0.2045
   95MOL0    Cl12734   6.604  11.954   9.728 -0.0971  0.0131 -0.6623
   95MOL0     C12735   5.577  11.419   9.992 -0.2043  0.2303 -0.1671
   95MOL0     C12736   5.458  11.380   9.926 -0.5074  0.1837 -0.7624
   95MOL0     O12737   5.348  11.418   9.521  1.0471 -0.0882  1.0612
   95MOL0     C12738   5.102  11.322   9.439  0.0122  0.1718  0.9219
   95MOL0     C12739   4.973  11.294   9.398 -0.8462  0.0115  0.9463
   95MOL0     N12740   4.241  10.944   9.364 -0.1659 -0.2663  0.4361
   95MOL0     N12741   4.200  10.863   9.457 -0.0801 -0.7242 -0.4898
   95MOL0     C12742   3.183  10.268   9.688 -1.0714 -0.1285 -0.0216
   95MOL0     C12743   3.054  10.220   9.643  0.6332 -0.4757 -0.6557
   95MOL0     C12744   2.609  10.114   9.681 -0.4491  0.7678 -0.6762
   95MOL0     C12745   2.569   9.987   9.733 -1.0303  1.1036  0.2549
   95MOL0     C12746   2.438   9.935   9.715 -0.6622 -0.4111 -0.2690
   95MOL0     C12747   2.344  10.013   9.639 -0.2984 -0.0156 -0.2600
   95MOL0     O12748   2.228   9.950   9.611 -0.3306  0.2136 -0.6037
   95MOL0     C12749   2.121  10.028   9.553 -0.1024 -0.5398  0.1100
   95MOL0     C12750   1.988   9.969   9.574 -0.3290 -0.0583  0.3039
   95MOL0     C12751   1.935   9.969   9.717  0.8037 -0.4579 -0.3710
   95MOL0     C12752   1.779   9.982   9.713  0.5943 -0.3423  0.7451
   95MOL0     C12753   1.708   9.857   9.692  0.4374  0.3560 -0.3659
   95MOL0     C12754   1.646   9.756   9.706 -0.0017  0.7622 -0.1839
   95MOL0     C12755   2.393  10.131   9.577  0.3088 -0.2303 -0.1294
   95MOL0     C12756   2.514  10.185   9.608  0.0177 -0.6132 -0.4336
   95MOL0     C12757   2.553  10.316   9.544  0.9722  0.3152 -0.0041
   95MOL0     H12758   2.859  10.476   9.733 -1.5861 -3.3172  0.2753
   95MOL0     H12759   3.068  10.568   9.802 -0.2418 -0.8036 -0.1416
   95MOL0     H12760   3.301  10.635   9.833 -1.5823 -1.3925 -1.2402
   95MOL0     H12761   3.255  10.527   9.969 -0.1651 -1.4429  0.5745
   95MOL0     H12762   3.525  10.450   9.969  2.6697  0.7789  0.8430
   95MOL0     H12763   3.451  10.592  10.041 -0.6425  0.2466 -1.1453
   95MOL0     H12764   3.481  10.731   9.835 -0.4889  0.0554  1.1005
   95MOL0     H12765   3.533  10.595   9.737 -1.1055  1.3708 -0.7218
   95MOL0     H12766   3.686  10.734   9.977 -0.9404  0.0367 -0.4398
   95MOL0     H12767   3.743  10.597   9.884  2.6158  1.4511 -0.4709
   95MOL0     H12768   3.741  10.732   9.669  0.6317 -3.2039  2.5646
   95MOL0     H12769   3.701  10.874   9.754  2.1593  1.0693  0.2609
   95MOL0     H12770   3.917  10.853   9.888 -0.5967  1.4144 -0.8344
   95MOL0     H12771   3.938  10.691   9.814 -0.9550 -0.4517 -2.8708
   95MOL0     H12772   3.934  10.974   9.688 -2.4379  0.0218  0.1225
   95MOL0     H12773   3.944  10.825   9.591 -2.8450 -1.0795  2.1785
   95MOL0     H12774   4.148  10.889   9.792  1.2553 -4.0730  1.8103
   95MOL0     H12775   4.141  10.746   9.687 -3.0184 -0.2762  2.1100
   95MOL0     H12776   4.254  11.136   9.627  0.8322  3.1829 -4.6042
   95MOL0     H12777   4.322  11.180   9.248  0.3448  1.2778 -0.0400
   95MOL0     H12778   4.247  11.264   9.385 -0.9158  0.8388 -4.5750
   95MOL0     H12779   4.467  11.326   9.401 -0.7927  0.0627  1.0079
   95MOL0     H12780   4.484  11.187   9.497 -1.4863  0.0159 -0.1051
   95MOL0     H12781   4.548  11.185   9.202 -1.0280  0.2691  0.1942
   95MOL0     H12782   4.562  11.047   9.320 -1.0945 -0.3042  0.3346
   95MOL0     H12783   4.726  11.302   9.273  2.2562 -0.3308  1.2710
   95MOL0     H12784   4.776  11.134   9.272 -0.7017 -1.2680  0.8828
   95MOL0     H12785   4.815  11.278   9.691 -1.7374  4.0465 -0.6589
   95MOL0     H12786   5.050  11.335   9.771  1.0503  0.6268 -0.2711
   95MOL0     H12787   5.552  11.412   9.607 -1.8946  2.2518  0.4722
   95MOL0     H12788   5.774  11.447   9.717  0.4909 -0.2289  1.1951
   95MOL0     H12789   5.776  11.690   9.966 -0.3932 -0.0850  1.0799
   95MOL0     H12790   5.726  11.608  10.117 -3.2794 -4.2625 -2.2397
   95MOL0     H12791   5.943  11.588  10.192  0.1386  1.1352  0.6663
   95MOL0     H12792   6.022  11.589  10.032  1.9044  2.2119 -0.8675
   95MOL0     H12793   5.872  11.834  10.130 -1.0448 -2.4908 -0.8220
   95MOL0     H12794   6.029  11.792  10.208 -2.2268  0.2061  1.5345
   95MOL0     H12795   6.012  11.944   9.988 -2.2627 -0.4193  2.5476
   95MOL0     H12796   5.985  11.791   9.906 -0.2394  0.3539 -2.0443
   95MOL0     H12797   6.207  11.712  10.024 -2.1738 -0.9076  1.3916
   95MOL0     H12798   6.230  11.882  10.074 -1.9521  1.0463  0.0344
   95MOL0     H12799   6.228  11.752   9.791 -2.1306  1.9641 -3.2362
   95MOL0     H12800   6.171  11.919   9.821 -0.4663 -0.1874  0.7017
   95MOL0     H12801   6.456  11.810   9.902  0.2609  1.0975  0.4020
   95MOL0     H12802   6.376  11.977   9.906 -1.4567  0.2152 -0.7964
   95MOL0     H12803   6.412  11.812   9.655 -0.7517  1.2130 -0.6245
   95MOL0     H12804   6.370  11.980   9.665  1.3481  1.3454 -1.1985
   95MOL0     H12805   5.595  11.427  10.099  3.5240  0.4299 -0.6861
   95MOL0     H12806   5.374  11.365   9.993  0.9883 -0.2162  1.0743
   95MOL0     H12807   5.173  11.342   9.359  0.3692 -1.4114  0.8075
   95MOL0     H12808   4.943  11.293   9.294 -1.2209  0.0158  1.0520
   95MOL0     H12809   3.280  10.219   9.689 -0.0500  1.7981  1.6142
   95MOL0     H12810   3.055  10.121   9.598  1.3840 -0.5035 -0.5977
   95MOL0     H12811   2.636   9.928   9.795  0.3916  0.7396 -1.5473
   95MOL0     H12812   2.416   9.837   9.755  1.7077 -1.6461 -1.7814
   95MOL0     H12813   2.139  10.048   9.446  1.1956  1.1820  0.6006
   95MOL0     H12814   2.119  10.124   9.606  2.0181  0.6857 -1.8505
   95MOL0     H12815   1.994   9.870   9.528  1.6885  0.2158 -0.1482
   95MOL0     H12816   1.915  10.024   9.513 -0.0510 -2.4614 -2.3977
   95MOL0     H12817   1.972  10.059   9.769 -0.1675 -0.9869  1.3246
   95MOL0     H12818   1.964   9.878   9.769  0.3164 -0.2987  0.1966
   95MOL0     H12819   1.733  10.013   9.807 -3.7002  0.0333 -1.2001
   95MOL0     H12820   1.752  10.056   9.636  3.0127 -1.2215 -1.0665
   95MOL0     H12821   1.591   9.665   9.722 -0.1105  1.1775  2.1563
   95MOL0     H12822   2.330  10.188   9.510 -0.8505  0.6073  1.6200
   95MOL0     H12823   2.590  10.391   9.615 -0.6928  0.9162  0.2632
   95MOL0     H12824   2.633  10.291   9.474 -1.1076 -0.2589 -2.3100
   95MOL0     H12825   2.476  10.367   9.485 -0.5156  1.1179  2.4855
   96MOL0     O12826   1.694   4.377   2.068 -0.1828  0.5168 -0.5561
   96MOL0     C12827   1.687   4.425   1.959 -0.3258  0.1217  0.6950
   96MOL0     O12828   1.767   4.527   1.919 -0.3339  0.3206  0.6948
   96MOL0     C12829   1.867   4.577   1.995 -0.2008  0.0990  1.0434
   96MOL0     C12830   1.988   4.505   2.009 -0.8575  0.1827  0.6776
   96MOL0     C12831   2.089   4.553   2.096  0.8346 -0.5652 -0.3174
   96MOL0     C12832   2.067   4.679   2.155  0.8588 -0.1782  0.3599
   96MOL0     O12833   2.177   4.722   2.226 -0.1004 -0.6786  0.1293
   96MOL0     C12834   2.199   4.862   2.235 -0.5523  0.9074 -0.1345
   96MOL0     C12835   2.348   4.906   2.201  1.2400 -0.4111 -0.6131
   96MOL0     C12836   2.449   4.838   2.293 -0.0611 -0.7326  0.4331
   96MOL0     C12837   2.585   4.918   2.300  0.2159  0.7481 -0.2574
   96MOL0     C12838   2.693   4.865   2.402  0.1302 -0.5820 -0.2279
   96MOL0     C12839   2.728   4.721   2.366 -0.2282 -0.3226 -0.5364
   96MOL0     C12840   2.858   4.690   2.433  0.0077  0.2112  0.2542
   96MOL0     C12841   2.887   4.537   2.426 -0.6272  0.0840  0.0946
   96MOL0     N12842   3.030   4.513   2.437  0.4127 -1.0098 -0.6499
   96MOL0     C12843   3.116   4.544   2.342  0.1084 -0.1764  0.3014
   96MOL0     C12844   3.236   4.489   2.387  0.5104  0.3296  0.1322
   96MOL0     C12845   3.365   4.487   2.307 -0.4799 -0.8647 -0.4514
   96MOL0     C12846   3.457   4.612   2.336  0.3232 -0.4050 -0.2539
   96MOL0     C12847   3.601   4.591   2.287  0.2979  0.2026 -0.4601
   96MOL0     C12848   3.692   4.506   2.374  0.0359 -0.0498  0.8481
   96MOL0     O12849   3.829   4.511   2.330  0.1777  0.6130 -0.1987
   96MOL0     C12850   3.906   4.628   2.357  0.8164 -0.0053  0.4659
   96MOL0     C12851   4.021   4.652   2.278  0.7309  0.8820  0.3262
   96MOL0     C12852   4.100   4.762   2.293 -0.6301  0.3520 -0.4674
   96MOL0     C12853   4.082   4.848   2.397  0.4678 -0.2203 -0.0815
   96MOL0     C12854   4.178   4.964   2.426  0.6541  0.6111 -0.1441
   96MOL0     O12855   4.298   4.941   2.378 -0.0515 -0.5603 -0.0152
   96MOL0     C12856   4.396   5.030   2.395  0.1882  0.2565 -0.1670
   96MOL0     C12857   4.510   4.996   2.459 -0.7492  0.0361 -0.5350
   96MOL0     C12858   4.623   5.082   2.463  0.2422 -0.2513 -0.0201
   96MOL0     C12859   4.617   5.201   2.396  0.1347  0.0708 -0.0196
   96MOL0     O12860   4.729   5.278   2.409  0.1723  0.8952  0.3629
   96MOL0     C12861   4.767   5.349   2.290  0.0952  0.0629 -0.2950
   96MOL0     C12862   4.922   5.353   2.287  0.3794 -0.1839 -1.1626
   96MOL0     C12863   4.960   5.438   2.170  0.7218  0.1320  0.8029
   96MOL0     C12864   5.110   5.477   2.177  0.3615  0.0539 -0.3401
   96MOL0     C12865   5.134   5.586   2.063 -0.3594  0.3928 -0.0738
   96MOL0     C12866   5.273   5.634   2.101  0.2853  0.8690 -0.4918
   96MOL0     C12867   5.374   5.664   1.984 -0.0307 -0.6230  0.1464
   96MOL0     C12868   5.319   5.788   1.903 -0.0063 -0.1403 -0.4473
   96MOL0    Cl12869   5.458   5.879   1.832  0.1287 -0.2485 -0.0503
   96MOL0     C12870   4.497   5.244   2.346  0.2977 -0.1728  0.5690
   96MOL0     C12871   4.384   5.161   2.349 -0.6908  0.1165 -0.1748
   96MOL0     O12872   4.139   5.062   2.489 -0.0276 -0.0825 -0.2620
   96MOL0     C12873   3.967   4.834   2.472  0.2351 -1.0488  0.4861
   96MOL0     C12874   3.885   4.726   2.456  0.1859 -1.0165  0.9364
   96MOL0     N12875   3.224   4.446   2.519 -0.2967 -0.8838  0.2775
   96MOL0     N12876   3.094   4.460   2.544  0.0416  0.5370 -0.7818
   96MOL0     C12877   1.947   4.745   2.140  0.2858  1.0213 -1.0290
   96MOL0     C12878   1.852   4.690   2.059  0.4260 -0.6410  0.2996
   96MOL0     C12879   1.585   4.366   1.864 -0.0728 -1.3569 -0.1941
   96MOL0     C12880   1.540   4.446   1.768 -0.1966  0.2635  0.2637
   96MOL0     C12881   1.434   4.408   1.684 -0.5739  0.7994  0.7267
   96MOL0     C12882   1.377   4.284   1.693 -0.6367  0.1553  0.8229
   96MOL0     O12883   1.275   4.225   1.618  0.0689 -0.3529 -0.0594
   96MOL0     C12884   1.271   4.274   1.478  0.3133 -0.0369 -0.5171
   96MOL0     C12885   1.152   4.194   1.425 -0.1071 -0.3115  0.2650
   96MOL0     C12886   1.096   4.232   1.289  0.1912 -0.4397  0.0654
   96MOL0     C12887   0.980   4.155   1.226  0.8718 -0.2791  0.2975
   96MOL0     C12888   0.866   4.162   1.312  0.2526 -0.7027  1.2875
   96MOL0     C12889   0.766   4.181   1.368  1.1016 -0.1247 -0.2780
   96MOL0     C12890   1.424   4.200   1.792  0.5412  0.1054  1.0597
   96MOL0     C12891   1.529   4.237   1.877  1.0922  0.8184 -0.3525
   96MOL0     C12892   1.557   4.134   1.990 -0.1108 -0.3429  0.7088
   96MOL0     H12893   2.004   4.413   1.955  0.7939  0.6941  0.2444
   96MOL0     H12894   2.193   4.522   2.104  1.2747  0.0400 -2.8010
   96MOL0     H12895   2.130   4.918   2.171 -0.3953 -2.0613 -3.1963
   96MOL0     H12896   2.178   4.895   2.337  0.5665  2.3102 -0.3291
   96MOL0     H12897   2.348   5.013   2.221  1.9331 -0.5036 -0.0793
   96MOL0     H12898   2.375   4.899   2.096  0.2635  0.7422 -0.9615
   96MOL0     H12899   2.463   4.734   2.262  1.8100 -0.4044  0.0240
   96MOL0     H12900   2.405   4.832   2.393  1.6920 -0.4627  1.2674
   96MOL0     H12901   2.628   4.913   2.199  4.0503  1.5486  1.1604
   96MOL0     H12902   2.569   5.026   2.308 -3.1368  0.3437 -0.2698
   96MOL0     H12903   2.781   4.930   2.395 -1.0538  1.0971 -0.0498
   96MOL0     H12904   2.651   4.867   2.503  1.9220  0.0191  0.5386
   96MOL0     H12905   2.650   4.648   2.391  0.0064 -0.5092 -0.3415
   96MOL0     H12906   2.736   4.717   2.257 -0.3633 -2.3817 -0.5140
   96MOL0     H12907   2.862   4.714   2.539  1.3421 -1.4124  0.6240
   96MOL0     H12908   2.947   4.740   2.393  1.0413  0.8418  3.0791
   96MOL0     H12909   2.836   4.488   2.509 -0.8960  0.3179  0.0691
   96MOL0     H12910   2.846   4.499   2.332 -2.6609  0.0672  0.9165
   96MOL0     H12911   3.091   4.586   2.245  1.6720  1.5304  0.5930
   96MOL0     H12912   3.427   4.398   2.323  3.2066  1.2156 -1.8627
   96MOL0     H12913   3.351   4.479   2.199  0.9450 -1.4318 -0.6251
   96MOL0     H12914   3.414   4.701   2.288  0.4834  0.3156  0.8939
   96MOL0     H12915   3.445   4.634   2.442  2.0481 -0.0467 -0.0960
   96MOL0     H12916   3.648   4.690   2.282  1.8829 -0.5652 -1.2726
   96MOL0     H12917   3.599   4.571   2.179  1.4098 -0.0838 -0.4370
   96MOL0     H12918   3.657   4.403   2.361 -0.9437  0.3870 -0.1724
   96MOL0     H12919   3.675   4.540   2.476 -1.8628 -1.0342  0.9110
   96MOL0     H12920   4.046   4.592   2.191  0.1634 -1.8555  1.9260
   96MOL0     H12921   4.184   4.777   2.226 -0.7809  1.5042 -0.4206
   96MOL0     H12922   4.518   4.893   2.493  0.8993  0.3991  0.2553
   96MOL0     H12923   4.722   5.056   2.497  0.4220 -2.6288 -2.0839
   96MOL0     H12924   4.728   5.302   2.199 -3.3867  1.8459  0.1139
   96MOL0     H12925   4.721   5.448   2.289 -0.2464 -0.0916 -0.2608
   96MOL0     H12926   4.953   5.394   2.383 -0.6844 -0.6096 -0.6188
   96MOL0     H12927   4.960   5.251   2.276 -3.4446 -1.9574  0.2593
   96MOL0     H12928   4.933   5.390   2.075 -0.4489 -0.6724  1.5126
   96MOL0     H12929   4.908   5.533   2.183 -1.1265 -0.7419  0.1914
   96MOL0     H12930   5.168   5.386   2.157 -1.5080 -0.9923 -1.2099
   96MOL0     H12931   5.131   5.519   2.276 -1.3282 -1.8510  0.8956
   96MOL0     H12932   5.070   5.675   2.062 -0.5055  0.2845 -0.4271
   96MOL0     H12933   5.122   5.548   1.961 -4.2319  0.2071  0.3143
   96MOL0     H12934   5.275   5.726   2.159 -3.7241 -0.3755  2.0998
   96MOL0     H12935   5.320   5.555   2.161 -0.4540  3.2675  3.5919
   96MOL0     H12936   5.400   5.577   1.923  2.3061  0.6844 -0.8415
   96MOL0     H12937   5.468   5.689   2.033  0.4599 -2.7792  0.3978
   96MOL0     H12938   5.252   5.745   1.828 -1.0182 -1.4627  1.1287
   96MOL0     H12939   5.259   5.850   1.970  2.1227 -1.7240  3.2761
   96MOL0     H12940   4.488   5.344   2.304 -0.6899 -0.4206  0.1787
   96MOL0     H12941   4.289   5.205   2.320 -1.5573  0.0460  2.3088
   96MOL0     H12942   3.962   4.899   2.559  3.5263  0.8334 -0.5236
   96MOL0     H12943   3.805   4.717   2.529 -0.4295  1.3809  0.6354
   96MOL0     H12944   1.920   4.836   2.193  2.3021 -0.6775  3.3671
   96MOL0     H12945   1.754   4.736   2.066 -1.2122 -3.8134  0.1404
   96MOL0     H12946   1.581   4.545   1.754  2.0840 -0.4311  1.4417
   96MOL0     H12947   1.412   4.468   1.596  1.3461  0.0077 -0.3622
   96MOL0     H12948   1.368   4.252   1.431  1.8586 -2.1015  3.2044
   96MOL0     H12949   1.256   4.382   1.471  0.7034 -0.0439 -1.8227
   96MOL0     H12950   1.069   4.216   1.492 -0.3383 -1.6382  0.4506
   96MOL0     H12951   1.180   4.088   1.423  2.1257  0.2509 -0.7093
   96MOL0     H12952   1.180   4.229   1.220  0.0130 -1.3438 -0.1174
   96MOL0     H12953   1.065   4.336   1.306  0.3372 -0.5702  1.2801
   96MOL0     H12954   0.945   4.195   1.131  1.3049  2.3578  1.1600
   96MOL0     H12955   1.006   4.049   1.214 -2.9427 -1.3988  0.6943
   96MOL0     H12956   0.675   4.194   1.423  1.7967 -0.5555  1.0281
   96MOL0     H12957   1.381   4.100   1.801 -3.5823  1.8191  2.8564
   96MOL0     H12958   1.488   4.049   1.988 -0.5962  0.0519 -0.7110
   96MOL0     H12959   1.656   4.087   1.989  0.1032  0.0791 -1.0947
   96MOL0     H12960   1.554   4.184   2.087  0.2765  1.2059 -0.0374
   97MOL0     O12961   1.059   6.917   6.670  0.0935  0.1747 -0.2023
   97MOL0     C12962   1.154   6.954   6.732 -0.9216 -0.5801 -0.3537
   97MOL0     O12963   1.216   6.884   6.836 -0.2908 -0.4424  0.5495
   97MOL0     C12964   1.338   6.927   6.886 -0.0234 -0.3898 -0.0704
   97MOL0     C12965   1.338   7.031   6.983  0.0193  0.5969  0.2212
   97MOL0     C12966   1.454   7.092   7.034 -0.2054  0.1689  0.2605
   97MOL0     C12967   1.580   7.040   6.994 -0.0452  0.1967  0.5054
   97MOL0     O12968   1.702   7.068   7.048 -0.4962 -0.2118  0.7574
   97MOL0     C12969   1.703   7.156   7.162 -0.5988 -0.6474  0.1061
   97MOL0     C12970   1.850   7.186   7.209  0.5980 -0.3133  0.7231
   97MOL0     C12971   1.928   7.060   7.257 -0.2811 -0.5356 -0.2079
   97MOL0     C12972   2.003   7.000   7.148  0.4496  0.2908 -0.0321
   97MOL0     C12973   2.080   6.871   7.190 -0.0070  0.0889 -0.3082
   97MOL0     C12974   2.214   6.924   7.245  0.7924 -0.4980  1.4093
   97MOL0     C12975   2.285   6.810   7.325 -0.5130  0.3109  0.2434
   97MOL0     C12976   2.439   6.807   7.296 -0.0024  0.0290 -0.3887
   97MOL0     N12977   2.497   6.690   7.357 -0.0410 -0.5177 -2.0154
   97MOL0     C12978   2.558   6.594   7.289  0.1207 -0.4126 -0.8314
   97MOL0     C12979   2.594   6.507   7.387 -0.1826 -0.3566 -0.3193
   97MOL0     C12980   2.661   6.375   7.363 -0.0948  0.8575  0.2329
   97MOL0     C12981   2.809   6.376   7.322  0.3267 -0.4099  1.0650
   97MOL0     C12982   2.877   6.244   7.352 -0.5627 -0.3956 -0.8515
   97MOL0     C12983   3.002   6.214   7.268  0.9885  0.7780  0.5043
   97MOL0     O12984   3.094   6.327   7.292 -0.3274  0.7619  0.1475
   97MOL0     C12985   3.228   6.288   7.299 -0.1246 -0.0381  0.0238
   97MOL0     C12986   3.311   6.384   7.363  0.1346 -0.2096 -0.5458
   97MOL0     C12987   3.450   6.357   7.383 -0.0625  0.6044 -0.1969
   97MOL0     C12988   3.504   6.230   7.341  0.2529 -0.1193  0.1019
   97MOL0     C12989   3.648   6.203   7.355 -0.3716  0.5532 -0.7299
   97MOL0     O12990   3.691   6.077   7.327  1.3066 -0.1199  0.2595
   97MOL0     C12991   3.825   6.052   7.326 -0.7212 -1.4187  0.1548
   97MOL0     C12992   3.906   6.102   7.218  0.2217  0.1028 -0.4761
   97MOL0     C12993   4.030   6.078   7.220 -1.2294  0.1541 -0.4012
   97MOL0     C12994   4.098   6.001   7.319 -0.4408  0.2355  0.6033
   97MOL0     O12995   4.228   5.970   7.319  0.3248  0.1129 -0.1556
   97MOL0     C12996   4.308   6.057   7.236 -0.2812 -0.1656 -0.1766
   97MOL0     C12997   4.446   6.016   7.268 -0.1323  0.0182 -0.1072
   97MOL0     C12998   4.492   6.064   7.404 -0.4444  0.5291  0.1448
   97MOL0     C12999   4.631   6.021   7.443 -0.4038  0.2047 -0.1734
   97MOL0     C13000   4.734   6.108   7.381 -1.0401  0.5475 -1.4118
   97MOL0     C13001   4.870   6.072   7.444  0.1343 -0.2250  0.1368
   97MOL0     C13002   4.983   6.135   7.364 -0.5134  0.0221  0.3441
   97MOL0     C13003   5.016   6.280   7.407  0.3989 -0.6697 -0.7071
   97MOL0    Cl13004   5.171   6.324   7.343  0.0187  0.0500 -0.6782
   97MOL0     C13005   4.016   5.941   7.417  0.4873 -0.4285 -0.5753
   97MOL0     C13006   3.877   5.975   7.425 -0.5047 -0.0237 -0.7367
   97MOL0     O13007   3.721   6.291   7.402 -0.0575  0.7967 -0.2086
   97MOL0     C13008   3.421   6.141   7.275 -0.4136  0.0275  0.3788
   97MOL0     C13009   3.284   6.169   7.252  0.2912 -0.0402 -1.0083
   97MOL0     N13010   2.568   6.559   7.517 -0.6043  0.6101  0.3249
   97MOL0     N13011   2.496   6.667   7.491  0.9756 -0.2277  0.0694
   97MOL0     C13012   1.582   6.937   6.899 -0.0194  0.6840  0.3062
   97MOL0     C13013   1.461   6.882   6.840  0.0472  1.0968 -0.2585
   97MOL0     C13014   1.214   7.075   6.666  0.2886  0.4182  0.4042
   97MOL0     C13015   1.320   7.056   6.580  0.2085  0.7607 -0.4851
   97MOL0     C13016   1.377   7.167   6.513  0.7530  1.0866  0.6322
   97MOL0     C13017   1.338   7.292   6.537 -0.0692 -0.4262  0.4861
   97MOL0     O13018   1.415   7.386   6.480 -0.1314 -0.8454 -0.2875
   97MOL0     C13019   1.390   7.522   6.515  0.2671 -0.2765 -0.1932
   97MOL0     C13020   1.490   7.613   6.446 -1.5898 -0.5528 -0.9665
   97MOL0     C13021   1.466   7.757   6.507  0.4835  0.9270 -0.3762
   97MOL0     C13022   1.580   7.853   6.485 -0.6083  0.1234 -0.2642
   97MOL0     C13023   1.682   7.803   6.571 -0.2890  0.3814 -0.3516
   97MOL0     C13024   1.782   7.771   6.635 -0.3150  0.0393  0.6930
   97MOL0     C13025   1.225   7.312   6.615  0.4020  0.0976 -0.1704
   97MOL0     C13026   1.158   7.204   6.681 -0.3806 -0.2094 -0.8657
   97MOL0     C13027   1.039   7.217   6.774  0.1792 -0.5628 -0.4347
   97MOL0     H13028   1.246   7.071   7.026 -0.1036  1.3036 -0.6720
   97MOL0     H13029   1.441   7.165   7.113  0.8895 -0.0939  0.6948
   97MOL0     H13030   1.653   7.251   7.145  1.5352  0.4266 -0.5722
   97MOL0     H13031   1.657   7.097   7.242 -2.6682 -0.8719 -1.1910
   97MOL0     H13032   1.833   7.238   7.303  0.8109 -0.2843  0.7457
   97MOL0     H13033   1.902   7.248   7.136  1.4266  0.6401  2.0793
   97MOL0     H13034   1.862   6.993   7.312 -1.1773  1.2701  1.0200
   97MOL0     H13035   1.997   7.090   7.336  2.9776 -0.8023 -2.7461
   97MOL0     H13036   1.926   6.972   7.075  0.2894  2.0804 -0.6039
   97MOL0     H13037   2.068   7.070   7.095 -0.0013  0.2039 -0.7099
   97MOL0     H13038   2.022   6.821   7.268  1.0336  0.3799  0.6782
   97MOL0     H13039   2.108   6.800   7.112  4.4255  0.6434  0.4821
   97MOL0     H13040   2.280   6.946   7.160  0.8492 -1.5898  1.1539
   97MOL0     H13041   2.205   7.019   7.298  0.2145  0.0019  0.4427
   97MOL0     H13042   2.253   6.710   7.295 -0.0567  0.4869 -0.9077
   97MOL0     H13043   2.250   6.823   7.428 -1.3717  1.3450 -0.1578
   97MOL0     H13044   2.437   6.800   7.187 -0.8157  0.6078 -0.4211
   97MOL0     H13045   2.491   6.900   7.324 -0.5027 -0.5364  2.7704
   97MOL0     H13046   2.568   6.591   7.181  0.9714 -0.6911 -0.7511
   97MOL0     H13047   2.661   6.314   7.454  2.8627 -2.5671 -1.7783
   97MOL0     H13048   2.605   6.316   7.290  1.9555  0.6949 -1.2811
   97MOL0     H13049   2.822   6.411   7.219  0.3953  0.6032  1.4065
   97MOL0     H13050   2.857   6.452   7.384 -2.4040  0.9796  1.6237
   97MOL0     H13051   2.805   6.162   7.344 -2.4916  0.9706  1.2747
   97MOL0     H13052   2.907   6.253   7.457 -0.3749 -2.0982 -0.7304
   97MOL0     H13053   2.978   6.201   7.162 -0.4140 -2.0535  1.0446
   97MOL0     H13054   3.037   6.115   7.301  1.8159  1.4940  1.8433
   97MOL0     H13055   3.263   6.470   7.408 -0.7545 -1.3045  0.6769
   97MOL0     H13056   3.511   6.428   7.439  1.6956  0.4317 -1.8147
   97MOL0     H13057   3.867   6.146   7.127 -0.7024 -0.7712 -0.5125
   97MOL0     H13058   4.072   6.128   7.133  2.5687 -1.8283  0.0980
   97MOL0     H13059   4.292   6.025   7.132  0.7363 -0.0013 -0.3954
   97MOL0     H13060   4.293   6.164   7.251  1.0601  0.1706 -1.0590
   97MOL0     H13061   4.472   5.911   7.256  0.5021  0.3061 -1.4691
   97MOL0     H13062   4.511   6.062   7.193 -0.4470  3.8218  1.7283
   97MOL0     H13063   4.480   6.173   7.407  1.8385  0.9272 -2.1291
   97MOL0     H13064   4.430   6.015   7.480  0.9482  1.4278  1.9497
   97MOL0     H13065   4.641   5.915   7.422 -1.0953  0.0948  0.0266
   97MOL0     H13066   4.644   6.023   7.552  0.5663  2.9925 -0.2432
   97MOL0     H13067   4.733   6.217   7.397  2.4939  0.6571 -1.2230
   97MOL0     H13068   4.731   6.091   7.273 -1.3448 -0.4029 -1.2613
   97MOL0     H13069   4.875   6.105   7.548 -0.4814  0.6111 -0.0921
   97MOL0     H13070   4.885   5.964   7.443 -0.9467 -0.4409  2.0598
   97MOL0     H13071   4.956   6.119   7.259 -0.5283 -1.7920  0.5838
   97MOL0     H13072   5.070   6.070   7.379 -0.9705 -0.7961 -0.4579
   97MOL0     H13073   4.933   6.344   7.379  0.7669 -0.3053 -0.9787
   97MOL0     H13074   5.019   6.286   7.516 -3.8933 -1.5001 -0.3673
   97MOL0     H13075   4.063   5.889   7.500  1.3536 -1.7775 -1.8557
   97MOL0     H13076   3.810   5.926   7.495 -2.2251 -0.9137 -2.8927
   97MOL0     H13077   3.466   6.049   7.239  1.1269  1.4975 -1.6777
   97MOL0     H13078   3.227   6.097   7.193  0.6913  0.4644 -2.0500
   97MOL0     H13079   1.681   6.901   6.876 -0.8068 -1.1314 -0.4279
   97MOL0     H13080   1.462   6.802   6.766  0.2683  0.1643  0.7250
   97MOL0     H13081   1.335   6.954   6.547 -2.9936  0.4580 -1.3190
   97MOL0     H13082   1.458   7.159   6.440  0.1699  0.9180 -0.0122
   97MOL0     H13083   1.390   7.524   6.624  0.7847  0.6993 -0.2012
   97MOL0     H13084   1.292   7.553   6.477  0.5902 -1.6260 -2.2727
   97MOL0     H13085   1.482   7.619   6.337  0.9991  0.6734 -1.1496
   97MOL0     H13086   1.589   7.572   6.466 -1.6016 -0.2570 -0.2888
   97MOL0     H13087   1.444   7.736   6.612 -1.2738  0.6748 -0.7686
   97MOL0     H13088   1.391   7.808   6.446  0.3090  0.4971 -0.5299
   97MOL0     H13089   1.620   7.856   6.383 -2.7470  0.2303 -1.1412
   97MOL0     H13090   1.549   7.956   6.506  0.4977 -0.3558  5.2695
   97MOL0     H13091   1.858   7.749   6.708  1.5209  1.3656 -0.6932
   97MOL0     H13092   1.179   7.408   6.635 -2.1503 -1.1106  0.2143
   97MOL0     H13093   1.018   7.317   6.811 -1.5444 -1.3388  0.8403
   97MOL0     H13094   0.947   7.195   6.719  0.2462 -0.4464 -0.5950
   97MOL0     H13095   1.052   7.155   6.863  0.9971 -2.9121 -2.0611
   98MOL0     O13096   8.954   1.692   2.968 -0.0857 -0.5986  0.2952
   98MOL0     C13097   8.895   1.582   2.985  0.0696 -0.0123  0.9740
   98MOL0     O13098   8.939   1.492   3.064 -0.7988  1.1333  0.2904
   98MOL0     C13099   9.058   1.500   3.121  0.3471  0.3288  0.2794
   98MOL0     C13100   9.076   1.563   3.245  0.0131  0.7469  0.4963
   98MOL0     C13101   9.197   1.612   3.287 -0.8850  0.5785 -0.5741
   98MOL0     C13102   9.310   1.581   3.215  0.0451  0.2208 -0.4142
   98MOL0     O13103   9.435   1.618   3.261  0.3711 -0.2068  0.1298
   98MOL0     C13104   9.536   1.654   3.164 -0.3413 -0.0333  0.5580
   98MOL0     C13105   9.666   1.707   3.227 -0.4276 -0.8255 -0.7079
   98MOL0     C13106   9.780   1.733   3.123  0.1085  0.0083 -0.5591
   98MOL0     C13107   9.917   1.722   3.193 -0.4798  0.0515  0.2601
   98MOL0     C13108  10.031   1.764   3.101  0.3167  0.2316  1.0749
   98MOL0     C13109  10.161   1.688   3.138  0.7493  0.2809 -0.5786
   98MOL0     C13110  10.285   1.727   3.055  0.6949 -0.6065  0.1685
   98MOL0     C13111  10.409   1.661   3.106  0.1417  0.2023  0.8212
   98MOL0     N13112  10.523   1.709   3.038  0.3962 -0.4420  1.2839
   98MOL0     C13113  10.593   1.650   2.934 -0.1950 -0.3021  1.0520
   98MOL0     C13114  10.710   1.728   2.924  0.0121  0.0760 -0.5294
   98MOL0     C13115  10.830   1.697   2.834  0.9936  0.3219 -0.6529
   98MOL0     C13116  10.971   1.748   2.876  1.1004  0.4949 -0.7328
   98MOL0     C13117  11.029   1.639   2.978 -0.0358 -0.9254  0.2356
   98MOL0     C13118  11.128   1.724   3.060  0.8610  0.1520 -0.4069
   98MOL0     O13119  11.176   1.650   3.175 -0.3984 -0.3795  0.2445
   98MOL0     C13120  11.310   1.673   3.202 -0.2568  0.2373 -0.1111
   98MOL0     C13121  11.341   1.688   3.340  0.1379 -0.2469  0.3470
   98MOL0     C13122  11.475   1.723   3.379  0.0604 -0.5221 -0.2130
   98MOL0     C13123  11.575   1.736   3.278 -0.5338  0.6057  0.1919
   98MOL0     C13124  11.712   1.792   3.314  0.3809 -0.4487  0.2222
   98MOL0     O13125  11.825   1.762   3.241 -0.0128 -0.0930 -0.4798
   98MOL0     C13126  11.942   1.827   3.260 -0.3647  0.6369 -0.1099
   98MOL0     C13127  12.054   1.745   3.271  0.0105  0.8445  0.2331
   98MOL0     C13128  12.177   1.798   3.297 -0.2528 -1.0976  0.5077
   98MOL0     C13129  12.185   1.935   3.312  0.0245 -1.1247 -0.8243
   98MOL0     O13130  12.308   1.991   3.320  0.1531 -0.0353 -0.2141
   98MOL0     C13131  12.327   2.133   3.367  0.0800  0.2125  0.0354
   98MOL0     C13132  12.467   2.146   3.423  0.0997 -0.4037 -0.5041
   98MOL0     C13133  12.571   2.150   3.308  0.4146  0.7571 -0.1438
   98MOL0     C13134  12.710   2.181   3.370  0.1268  0.5434  0.7438
   98MOL0     C13135  12.720   2.326   3.410  0.4836 -0.1975 -0.8377
   98MOL0     C13136  12.853   2.390   3.456 -0.4762  0.3603  0.2247
   98MOL0     C13137  12.953   2.376   3.348 -0.1457  0.3769 -0.0609
   98MOL0     C13138  13.079   2.450   3.394 -0.6654  0.0414 -0.3659
   98MOL0    Cl13139  13.226   2.416   3.285 -0.1788  0.3094 -0.2940
   98MOL0     C13140  12.071   2.015   3.310 -0.4809  0.6438 -0.2748
   98MOL0     C13141  11.947   1.963   3.286 -0.4114 -0.3013 -0.3160
   98MOL0     O13142  11.716   1.858   3.414  0.0181  0.1075  0.1584
   98MOL0     C13143  11.549   1.679   3.151 -0.8269 -0.5519  0.0536
   98MOL0     C13144  11.414   1.656   3.112 -0.6186 -0.1101  0.0672
   98MOL0     N13145  10.689   1.844   3.002  0.2229 -1.2256 -0.1065
   98MOL0     N13146  10.590   1.827   3.076  1.3940 -0.3283  0.0390
   98MOL0     C13147   9.301   1.525   3.089 -0.2211 -0.1537  0.0893
   98MOL0     C13148   9.175   1.486   3.039 -0.0940 -0.4452 -0.2155
   98MOL0     C13149   8.770   1.559   2.906  1.0551 -0.1886 -0.2380
   98MOL0     C13150   8.740   1.621   2.789  0.3601  0.4281  1.2519
   98MOL0     C13151   8.640   1.576   2.704  0.4294  0.1194 -0.6959
   98MOL0     C13152   8.548   1.481   2.748 -0.5720 -0.2989  1.0445
   98MOL0     O13153   8.446   1.445   2.660  0.1670  0.1506 -0.1446
   98MOL0     C13154   8.359   1.336   2.681  0.6549 -0.3948  0.0355
   98MOL0     C13155   8.262   1.315   2.557 -0.4883 -0.2372 -0.1799
   98MOL0     C13156   8.198   1.443   2.498  0.5878  0.1832 -0.7050
   98MOL0     C13157   8.079   1.400   2.411  0.1393  0.4302  0.2689
   98MOL0     C13158   8.010   1.513   2.348  0.3031  0.0502  0.5829
   98MOL0     C13159   7.953   1.610   2.305 -0.8110  0.5292  0.1369
   98MOL0     C13160   8.565   1.431   2.875  0.7233  0.6651 -0.2704
   98MOL0     C13161   8.671   1.468   2.958  0.8997 -0.4862  0.3577
   98MOL0     C13162   8.677   1.414   3.101  0.0341 -0.7074 -0.6924
   98MOL0     H13163   8.986   1.589   3.298  0.2750  2.1935  0.2931
   98MOL0     H13164   9.209   1.672   3.377 -3.8077  0.2530  0.1308
   98MOL0     H13165   9.549   1.562   3.105 -0.8008  1.9029 -2.8235
   98MOL0     H13166   9.491   1.730   3.099 -1.2185 -1.0916 -0.1269
   98MOL0     H13167   9.697   1.624   3.292 -1.2478 -1.7339 -1.4307
   98MOL0     H13168   9.642   1.794   3.289  1.6357 -0.3579 -0.4875
   98MOL0     H13169   9.768   1.830   3.074  0.5695 -0.8584 -2.5038
   98MOL0     H13170   9.766   1.653   3.050  1.0482  1.1426 -2.0401
   98MOL0     H13171   9.927   1.772   3.290  2.7686 -0.4737  0.2924
   98MOL0     H13172   9.915   1.617   3.224 -2.0141  0.1262  0.5142
   98MOL0     H13173  10.012   1.759   2.994 -0.3093  3.2716  0.9541
   98MOL0     H13174  10.043   1.872   3.119 -3.5609  0.4734  3.2271
   98MOL0     H13175  10.184   1.711   3.242 -0.2472  3.7254 -0.9839
   98MOL0     H13176  10.151   1.582   3.115 -2.1803  0.6596 -1.5383
   98MOL0     H13177  10.280   1.833   3.079 -1.7158 -0.4516 -0.7551
   98MOL0     H13178  10.267   1.712   2.948 -0.5414 -2.2843  0.5704
   98MOL0     H13179  10.429   1.678   3.212  3.7777 -2.1957  0.6926
   98MOL0     H13180  10.423   1.554   3.089  5.1386  0.8478 -0.7879
   98MOL0     H13181  10.571   1.564   2.871 -1.4112  1.8517 -1.6909
   98MOL0     H13182  10.830   1.588   2.838 -3.1553  0.1498  3.1324
   98MOL0     H13183  10.821   1.722   2.727  0.6695  0.3298 -0.6253
   98MOL0     H13184  11.027   1.746   2.782  0.8635  0.4177 -0.8727
   98MOL0     H13185  10.954   1.848   2.916 -0.7244 -0.4123  0.9296
   98MOL0     H13186  11.065   1.552   2.924 -4.4442 -3.3292  0.7263
   98MOL0     H13187  10.952   1.609   3.050 -2.1733  1.4847 -0.8874
   98MOL0     H13188  11.063   1.798   3.107 -1.4933 -1.7577 -0.4080
   98MOL0     H13189  11.202   1.772   2.996  1.6761  0.5896  0.8236
   98MOL0     H13190  11.261   1.702   3.411  1.7373  0.7437  2.0601
   98MOL0     H13191  11.495   1.744   3.484 -0.0137 -0.7591 -0.1503
   98MOL0     H13192  12.032   1.639   3.273  0.7282  0.7052  1.4805
   98MOL0     H13193  12.261   1.728   3.295  0.0186 -0.8019 -2.0123
   98MOL0     H13194  12.312   2.196   3.279 -0.6627 -0.0369 -0.0245
   98MOL0     H13195  12.246   2.156   3.437 -2.5609 -0.9029 -2.4321
   98MOL0     H13196  12.473   2.235   3.485  1.2560 -0.2566 -0.8037
   98MOL0     H13197  12.488   2.059   3.486 -1.5309 -2.5830 -2.7573
   98MOL0     H13198  12.579   2.050   3.264  4.0379  1.3396 -1.1129
   98MOL0     H13199  12.536   2.213   3.225  1.7356  0.0238 -1.3014
   98MOL0     H13200  12.781   2.170   3.288 -0.3986 -1.7043  0.5033
   98MOL0     H13201  12.727   2.103   3.446 -0.7318 -1.2496 -0.8145
   98MOL0     H13202  12.650   2.360   3.487  0.1205  2.4161 -2.1650
   98MOL0     H13203  12.684   2.373   3.318  0.8962 -1.9510 -1.9323
   98MOL0     H13204  12.843   2.495   3.481 -0.0581  0.6026 -0.5883
   98MOL0     H13205  12.878   2.336   3.548  1.2705 -0.3987 -0.6566
   98MOL0     H13206  12.913   2.424   3.258 -1.2136  2.8164  1.5900
   98MOL0     H13207  12.985   2.272   3.336 -0.9438  0.2143 -0.9533
   98MOL0     H13208  13.069   2.559   3.400  0.1290  0.1160 -0.2940
   98MOL0     H13209  13.103   2.422   3.498  0.1172  1.6038 -0.0967
   98MOL0     H13210  12.082   2.121   3.330  2.0281  0.2778  0.6478
   98MOL0     H13211  11.862   2.030   3.290 -1.4205 -1.5707 -0.0290
   98MOL0     H13212  11.625   1.675   3.074 -0.7100 -1.6138  0.2150
   98MOL0     H13213  11.387   1.637   3.009  0.6311  0.6938 -0.4395
   98MOL0     H13214   9.382   1.508   3.018 -1.0790  1.9370 -1.4759
   98MOL0     H13215   9.170   1.443   2.940 -0.5296 -1.3458  0.1847
   98MOL0     H13216   8.813   1.697   2.762 -1.4252  2.6870  2.4803
   98MOL0     H13217   8.634   1.620   2.605  1.0610  1.7673 -0.0306
   98MOL0     H13218   8.310   1.354   2.777 -0.6566  1.3955 -0.9022
   98MOL0     H13219   8.413   1.242   2.694 -1.5937 -1.6168  1.1149
   98MOL0     H13220   8.172   1.261   2.589 -1.7338  0.9205 -1.6016
   98MOL0     H13221   8.316   1.262   2.478  0.2030  0.1265  0.0374
   98MOL0     H13222   8.268   1.518   2.457  0.2762  1.6505  1.2923
   98MOL0     H13223   8.154   1.491   2.586 -3.2730 -4.2827  0.1525
   98MOL0     H13224   8.105   1.321   2.340  1.0416  1.5441 -0.6858
   98MOL0     H13225   8.008   1.353   2.479 -0.9014  3.6196  1.5857
   98MOL0     H13226   7.896   1.690   2.263  0.0525  0.5900 -0.9626
   98MOL0     H13227   8.497   1.355   2.913  1.0570  1.6918  2.6400
   98MOL0     H13228   8.582   1.372   3.133  0.6370 -0.2576  1.9628
   98MOL0     H13229   8.746   1.330   3.112  1.4632  0.5542  0.6419
   98MOL0     H13230   8.701   1.491   3.176 -1.5209 -1.8724  1.0761
   99MOL0     O13231   7.329   2.994   9.042  0.2905 -0.3192  0.4590
   99MOL0     C13232   7.284   3.084   9.117  0.2788  0.0146 -0.2068
   99MOL0     O13233   7.356   3.130   9.226 -0.3134 -0.4413  0.0238
   99MOL0     C13234   7.475   3.064   9.261  1.2298  0.1316 -0.2999
   99MOL0     C13235   7.588   3.143   9.280 -0.6271 -0.6403  0.2105
   99MOL0     C13236   7.714   3.087   9.321 -0.4774  0.0258  0.5368
   99MOL0     C13237   7.714   2.947   9.361 -0.5691  0.4071  0.4164
   99MOL0     O13238   7.832   2.887   9.388 -0.2402 -0.2806  0.1675
   99MOL0     C13239   7.954   2.967   9.401 -0.3751  0.3114  0.7845
   99MOL0     C13240   8.077   2.892   9.441  0.0250  0.9198 -0.1074
   99MOL0     C13241   8.087   2.879   9.595  1.2623 -0.3571  0.4066
   99MOL0     C13242   8.204   2.784   9.620 -0.4424 -0.1918 -0.6541
   99MOL0     C13243   8.235   2.780   9.773  1.2149  0.8298  0.1805
   99MOL0     C13244   8.337   2.673   9.796  1.1877 -0.1112  0.2952
   99MOL0     C13245   8.470   2.721   9.864 -1.6022 -0.8894 -0.3543
   99MOL0     C13246   8.580   2.614   9.885  0.1299 -0.9047 -0.3326
   99MOL0     N13247   8.694   2.671   9.954  0.0720  0.2507  0.0640
   99MOL0     C13248   8.790   2.596  10.017  0.9650  0.1628  0.8349
   99MOL0     C13249   8.881   2.684  10.060 -0.1429 -0.2950  0.6331
   99MOL0     C13250   9.003   2.634  10.129  0.0047 -0.4236 -0.2635
   99MOL0     C13251   9.135   2.692  10.054 -0.9245  0.3326  0.0083
   99MOL0     C13252   9.271   2.666  10.142 -0.1224 -0.6764  0.0857
   99MOL0     C13253   9.391   2.716  10.064 -0.1280  0.2218 -0.6035
   99MOL0     O13254   9.510   2.674  10.128  0.1960 -0.1859  0.0823
   99MOL0     C13255   9.632   2.686  10.063  0.0119 -0.8277 -0.2859
   99MOL0     C13256   9.635   2.758   9.941 -0.1104  0.5554 -0.3332
   99MOL0     C13257   9.758   2.771   9.883 -0.6995  0.5280 -0.1356
   99MOL0     C13258   9.880   2.724   9.933 -0.1128 -0.2648 -0.7180
   99MOL0     C13259  10.011   2.729   9.863  0.1831 -0.0402  0.9416
   99MOL0     O13260  10.025   2.827   9.763  0.2025  0.0236  0.4465
   99MOL0     C13261  10.154   2.856   9.718  0.3530 -1.0575 -0.2092
   99MOL0     C13262  10.205   2.797   9.597  0.4197 -0.0259 -0.0169
   99MOL0     C13263  10.344   2.811   9.564  0.3333  0.2106  0.4332
   99MOL0     C13264  10.428   2.878   9.653  0.7298 -0.1848  0.5404
   99MOL0     O13265  10.562   2.891   9.646 -0.2240 -1.0289  0.5010
   99MOL0     C13266  10.651   2.810   9.555  1.3624 -0.6330 -0.6751
   99MOL0     C13267  10.752   2.914   9.508 -0.0726  0.1286 -0.1489
   99MOL0     C13268  10.838   2.845   9.407 -0.2464 -0.1047 -0.6573
   99MOL0     C13269  10.960   2.772   9.474 -0.3102 -0.5189 -0.2907
   99MOL0     C13270  11.078   2.876   9.482  0.6148 -0.0368 -0.4538
   99MOL0     C13271  11.186   2.847   9.587 -0.2216  0.8598 -0.5860
   99MOL0     C13272  11.309   2.933   9.566 -0.1335  0.3091  0.2211
   99MOL0     C13273  11.309   3.070   9.644 -0.0576  1.1367  1.1656
   99MOL0    Cl13274  11.306   3.035   9.815 -0.0915  0.3286 -0.0437
   99MOL0     C13275  10.371   2.941   9.768  0.1671 -0.0695 -0.2083
   99MOL0     C13276  10.234   2.936   9.798  0.4640 -0.1794 -0.9157
   99MOL0     O13277  10.097   2.652   9.907  1.0179 -0.6273 -0.0433
   99MOL0     C13278   9.870   2.645  10.049 -0.0685 -0.7981  0.1784
   99MOL0     C13279   9.753   2.639  10.115  0.2295 -0.3793 -0.3069
   99MOL0     N13280   8.831   2.813  10.041  0.1586  0.4876  0.0038
   99MOL0     N13281   8.722   2.801   9.966  0.2588  0.1465  0.0107
   99MOL0     C13282   7.603   2.867   9.352  0.5141 -0.4461  0.0498
   99MOL0     C13283   7.476   2.930   9.310  0.0413 -0.4443 -0.5767
   99MOL0     C13284   7.162   3.167   9.088  0.0492  0.0628 -0.5346
   99MOL0     C13285   7.105   3.262   9.184 -0.8475  0.2465  0.2367
   99MOL0     C13286   6.988   3.334   9.165 -0.0621  0.5345 -0.0756
   99MOL0     C13287   6.916   3.300   9.050  0.1441 -0.3557 -0.5287
   99MOL0     O13288   6.799   3.363   9.042 -0.0831 -0.3853 -0.6113
   99MOL0     C13289   6.767   3.418   8.920 -0.4622  0.2080 -0.4809
   99MOL0     C13290   6.648   3.336   8.884 -0.0319  0.6237 -0.0927
   99MOL0     C13291   6.546   3.407   8.809 -0.2168 -0.1085  0.1694
   99MOL0     C13292   6.433   3.308   8.762  0.1529  0.0918 -0.1196
   99MOL0     C13293   6.332   3.377   8.682 -0.4000  0.2601 -0.7233
   99MOL0     C13294   6.250   3.438   8.620 -0.4782  0.2200 -0.1772
   99MOL0     C13295   6.963   3.199   8.954 -1.0297 -0.6677  0.4438
   99MOL0     C13296   7.089   3.141   8.976  0.5601  0.4221  0.2253
   99MOL0     C13297   7.126   3.045   8.865  0.3213  0.6300 -0.1581
   99MOL0     H13298   7.582   3.248   9.253 -0.7044 -1.0422 -1.4142
   99MOL0     H13299   7.806   3.144   9.325  0.5033 -1.4379 -0.3764
   99MOL0     H13300   7.982   3.009   9.304  0.3291  0.7842  1.1842
   99MOL0     H13301   7.950   3.048   9.474  2.8493  1.0294  0.3191
   99MOL0     H13302   8.167   2.939   9.401  0.6261  1.2678  1.5490
   99MOL0     H13303   8.064   2.786   9.419  0.3181  0.2377  2.6565
   99MOL0     H13304   7.994   2.831   9.628  1.8169 -3.2261 -1.7425
   99MOL0     H13305   8.097   2.978   9.640 -3.2378  0.3734  0.3063
   99MOL0     H13306   8.193   2.683   9.582  1.2734 -1.3346  1.6187
   99MOL0     H13307   8.294   2.825   9.573  0.1148 -0.2160  0.3662
   99MOL0     H13308   8.277   2.873   9.811  1.0066  0.9674  0.0795
   99MOL0     H13309   8.141   2.758   9.824  0.8718 -1.7274 -1.3720
   99MOL0     H13310   8.295   2.596   9.862  0.7980  0.5032  0.7800
   99MOL0     H13311   8.368   2.633   9.699 -1.0446 -0.4054 -0.3670
   99MOL0     H13312   8.447   2.769   9.960 -0.7076  1.7345 -1.3778
   99MOL0     H13313   8.508   2.801   9.801 -3.5472  2.0630  1.9216
   99MOL0     H13314   8.526   2.537   9.940 -1.9441  0.4404 -0.3696
   99MOL0     H13315   8.616   2.573   9.790  2.1999 -0.1987  0.0977
   99MOL0     H13316   8.796   2.489  10.031  0.7199 -0.1828 -1.4402
   99MOL0     H13317   9.004   2.664  10.234 -1.0937  4.1134 -1.3417
   99MOL0     H13318   9.003   2.525  10.126  0.6434 -0.4343 -0.0514
   99MOL0     H13319   9.144   2.652   9.953  3.4082 -0.0844  0.3578
   99MOL0     H13320   9.118   2.800  10.053  2.2736  0.9297  0.3992
   99MOL0     H13321   9.272   2.559  10.160  2.7663 -0.8279 -0.4470
   99MOL0     H13322   9.260   2.721  10.236 -2.7202 -0.5776 -0.1985
   99MOL0     H13323   9.388   2.825  10.051 -1.1003  0.5021  1.4990
   99MOL0     H13324   9.394   2.656   9.973  1.1956 -0.4720 -0.1234
   99MOL0     H13325   9.547   2.811   9.905 -1.8622 -2.3527 -0.6072
   99MOL0     H13326   9.763   2.835   9.796  0.0053  2.1226  1.0372
   99MOL0     H13327  10.136   2.760   9.522  0.9631  0.1903 -0.6263
   99MOL0     H13328  10.377   2.773   9.468  0.4297 -0.8303  0.8576
   99MOL0     H13329  10.697   2.723   9.602 -1.1115 -0.5225  2.2837
   99MOL0     H13330  10.598   2.763   9.471  0.0262 -0.7538  0.2068
   99MOL0     H13331  10.710   3.006   9.466 -0.3983  1.0198  2.0270
   99MOL0     H13332  10.808   2.950   9.594  0.5509  2.3413 -1.4010
   99MOL0     H13333  10.781   2.771   9.349  2.3557 -2.9580  0.1841
   99MOL0     H13334  10.869   2.926   9.341 -0.8606  0.3890 -0.3495
   99MOL0     H13335  11.004   2.695   9.409 -1.6482 -0.1735 -1.6680
   99MOL0     H13336  10.948   2.732   9.575  0.4454  4.1884  1.9496
   99MOL0     H13337  11.033   2.970   9.517 -0.8639 -0.9255  0.1095
   99MOL0     H13338  11.115   2.894   9.381  0.2844 -0.7081 -0.6998
   99MOL0     H13339  11.141   2.862   9.686 -1.3360  1.7367 -1.2011
   99MOL0     H13340  11.204   2.739   9.580 -0.6989  0.5910  1.6406
   99MOL0     H13341  11.324   2.949   9.459 -0.7980  1.8515  0.3363
   99MOL0     H13342  11.388   2.872   9.610  0.0607  0.2503 -0.1996
   99MOL0     H13343  11.399   3.124   9.610 -0.0184 -0.3800 -1.3132
   99MOL0     H13344  11.217   3.124   9.621  0.4683  0.9797 -1.7247
   99MOL0     H13345  10.439   2.985   9.841  1.0622 -3.1575  0.9715
   99MOL0     H13346  10.202   2.981   9.892 -0.6380 -1.4067 -0.6771
   99MOL0     H13347   9.953   2.592  10.094  0.7957 -2.1964 -2.8034
   99MOL0     H13348   9.747   2.588  10.211 -0.3386 -0.5770 -0.4384
   99MOL0     H13349   7.606   2.761   9.373 -2.3174 -0.2517  2.1018
   99MOL0     H13350   7.380   2.880   9.319 -0.7893  1.3390  1.1443
   99MOL0     H13351   7.156   3.286   9.277 -0.3243 -0.9892  0.2935
   99MOL0     H13352   6.948   3.412   9.229 -3.7653 -2.3112  1.4946
   99MOL0     H13353   6.851   3.408   8.850  1.1733  1.1269  1.2571
   99MOL0     H13354   6.750   3.524   8.940  0.3566  0.3391 -0.4485
   99MOL0     H13355   6.595   3.299   8.972 -2.0161 -2.0281 -2.1926
   99MOL0     H13356   6.690   3.253   8.826  0.8296 -1.1567  2.8838
   99MOL0     H13357   6.587   3.462   8.723  0.5827  1.4638  1.5125
   99MOL0     H13358   6.494   3.478   8.874  0.5715 -0.0780  0.7831
   99MOL0     H13359   6.472   3.230   8.696  0.0017  0.0748 -0.1895
   99MOL0     H13360   6.389   3.262   8.852  1.0503 -0.3876  0.0833
   99MOL0     H13361   6.183   3.497   8.561 -0.4455 -1.5074 -2.0191
   99MOL0     H13362   6.904   3.166   8.870  1.1915 -0.1901 -1.3842
   99MOL0     H13363   7.105   2.947   8.909  3.5099 -0.7541 -1.3871
   99MOL0     H13364   7.069   3.070   8.776  1.9189  0.2855 -1.3296
   99MOL0     H13365   7.232   3.058   8.838  1.7417 -1.7471  3.4164
  100MOL0     O13366   2.087   9.084   7.477  0.1472  0.7491  0.1335
  100MOL0     C13367   2.159   8.999   7.422  1.3130 -0.2020  0.1524
  100MOL0     O13368   2.293   9.001   7.417 -0.3109  0.6090  0.0955
  100MOL0     C13369   2.374   9.059   7.522 -0.1540  0.3162  0.2305
  100MOL0     C13370   2.333   9.070   7.659 -0.4144 -0.4609  0.0053
  100MOL0     C13371   2.422   9.119   7.760  0.1573  0.2824 -0.4987
  100MOL0     C13372   2.550   9.153   7.713 -0.5559  0.2141 -0.3093
  100MOL0     O13373   2.647   9.221   7.791 -0.5171 -0.3017  0.5667
  100MOL0     C13374   2.620   9.259   7.929 -0.1357  0.5774 -0.4588
  100MOL0     C13375   2.564   9.395   7.931 -1.2768 -0.7137  1.0826
  100MOL0     C13376   2.661   9.497   7.866 -0.3703 -0.4885  0.1102
  100MOL0     C13377   2.614   9.642   7.880  0.8455  0.4856 -0.6904
  100MOL0     C13378   2.728   9.738   7.917 -0.8854 -0.6242 -0.4588
  100MOL0     C13379   2.785   9.722   8.063  0.4387 -1.0038  0.7557
  100MOL0     C13380   2.883   9.832   8.096 -0.7799  0.2103 -0.0858
  100MOL0     C13381   2.943   9.819   8.232  0.1473 -0.2655 -0.1900
  100MOL0     N13382   3.028   9.933   8.261 -0.1862 -0.6624 -0.6800
  100MOL0     C13383   3.157   9.930   8.218  0.9511 -0.1613  0.6406
  100MOL0     C13384   3.214  10.048   8.264  0.1277 -0.5338  0.2598
  100MOL0     C13385   3.358  10.087   8.262  0.2350 -0.3199  0.3154
  100MOL0     C13386   3.440   9.975   8.323 -0.3434 -0.0930 -0.3502
  100MOL0     C13387   3.595  10.000   8.307  0.5459  0.0188  1.2337
  100MOL0     C13388   3.656   9.891   8.399 -0.5972 -0.1714  0.5366
  100MOL0     O13389   3.794   9.898   8.382 -0.1016  0.4333  0.2607
  100MOL0     C13390   3.875   9.818   8.462 -0.3002  0.3850  0.1707
  100MOL0     C13391   3.834   9.736   8.566 -0.3469 -0.0178 -0.6699
  100MOL0     C13392   3.927   9.650   8.631  0.4790 -0.2243 -0.0028
  100MOL0     C13393   4.061   9.659   8.603  0.4531  0.9667 -0.1491
  100MOL0     C13394   4.160   9.570   8.666 -0.1337 -0.0858 -0.2026
  100MOL0     O13395   4.137   9.549   8.802 -0.1701  0.4378 -0.2105
  100MOL0     C13396   4.244   9.495   8.879  0.3141 -0.8180 -0.7705
  100MOL0     C13397   4.200   9.403   8.978 -0.5561 -0.1322 -0.5963
  100MOL0     C13398   4.297   9.332   9.057  0.3642  0.8246  0.0249
  100MOL0     C13399   4.434   9.362   9.057 -0.0572 -0.9904  0.0180
  100MOL0     O13400   4.516   9.284   9.138  0.3254 -0.1685 -0.0460
  100MOL0     C13401   4.654   9.292   9.113 -0.1609  0.7447 -0.6028
  100MOL0     C13402   4.731   9.159   9.163 -0.4224 -0.3102  0.3697
  100MOL0     C13403   4.883   9.178   9.133 -0.3994 -0.2308 -0.7156
  100MOL0     C13404   4.962   9.196   9.264 -0.1321 -0.2143 -0.8886
  100MOL0     C13405   5.096   9.262   9.222 -0.4887 -0.0721 -0.0354
  100MOL0     C13406   5.187   9.285   9.343  0.6529  0.2577  0.1369
  100MOL0     C13407   5.318   9.361   9.312  0.5291 -0.2430  0.3357
  100MOL0     C13408   5.303   9.515   9.283 -0.3294  0.4670  0.3432
  100MOL0    Cl13409   5.464   9.588   9.313 -0.0092 -0.0065 -0.0429
  100MOL0     C13410   4.472   9.471   8.968 -0.2571  0.3157 -0.8924
  100MOL0     C13411   4.386   9.521   8.870  0.2956 -0.7586 -0.1328
  100MOL0     O13412   4.256   9.533   8.598 -0.2614 -0.4994  0.8424
  100MOL0     C13413   4.105   9.741   8.499  0.2503 -0.8879  0.5840
  100MOL0     C13414   4.013   9.817   8.424  0.3440 -0.1712 -0.1243
  100MOL0     N13415   3.112  10.118   8.339  0.9132  0.5422 -0.0800
  100MOL0     N13416   3.001  10.051   8.326  0.2551  0.2174  0.1830
  100MOL0     C13417   2.587   9.137   7.587  0.6490  0.6967 -0.2182
  100MOL0     C13418   2.496   9.099   7.487 -0.0294 -0.3867 -0.4537
  100MOL0     C13419   2.077   8.897   7.352 -0.0912  0.4643 -0.0526
  100MOL0     C13420   2.131   8.770   7.356 -0.8640  0.2027 -0.6022
  100MOL0     C13421   2.066   8.655   7.301  1.1296 -0.2844  0.4783
  100MOL0     C13422   1.946   8.676   7.221 -0.4998 -0.1502  0.2663
  100MOL0     O13423   1.873   8.567   7.173  0.2630  0.7695  0.6088
  100MOL0     C13424   1.775   8.587   7.072  0.1453 -0.1905 -0.5238
  100MOL0     C13425   1.836   8.590   6.931 -0.3721  0.3378  0.0420
  100MOL0     C13426   1.878   8.449   6.882  0.4917  0.2857 -0.3266
  100MOL0     C13427   1.784   8.405   6.759 -0.1928  0.1359  0.1091
  100MOL0     C13428   1.638   8.415   6.779 -0.8343 -0.4138  0.5495
  100MOL0     C13429   1.527   8.437   6.807 -0.2036 -0.8096 -0.3497
  100MOL0     C13430   1.907   8.808   7.201 -0.1814 -0.2409 -0.3891
  100MOL0     C13431   1.971   8.922   7.267  0.2972 -0.6934  0.0923
  100MOL0     C13432   1.932   9.063   7.223  0.4804 -0.8529  0.5896
  100MOL0     H13433   2.237   9.026   7.684  0.5804 -2.4325  0.6087
  100MOL0     H13434   2.390   9.115   7.863  0.7270 -2.6901 -0.3515
  100MOL0     H13435   2.563   9.187   7.989  0.5249  1.0617  0.8018
  100MOL0     H13436   2.717   9.256   7.980 -0.8194  1.1270  0.9279
  100MOL0     H13437   2.548   9.418   8.036  5.8379  0.6111  2.3902
  100MOL0     H13438   2.471   9.410   7.875  0.1221  1.1094 -0.9293
  100MOL0     H13439   2.688   9.467   7.765  0.4791 -0.2253  0.2514
  100MOL0     H13440   2.756   9.490   7.919  1.5135  2.6534 -2.5047
  100MOL0     H13441   2.568   9.679   7.787  1.4881 -0.7378 -1.5192
  100MOL0     H13442   2.531   9.660   7.948  2.5526 -0.4035  1.7585
  100MOL0     H13443   2.814   9.724   7.851 -1.1907 -3.3276 -0.3829
  100MOL0     H13444   2.688   9.839   7.905 -1.0043 -0.5341  0.6405
  100MOL0     H13445   2.699   9.732   8.130  0.2041 -2.8018  0.7724
  100MOL0     H13446   2.824   9.622   8.080 -1.7919 -2.3452 -1.4024
  100MOL0     H13447   2.836   9.930   8.087  0.8390  1.0262  0.0085
  100MOL0     H13448   2.965   9.825   8.024  0.0817 -1.5358  0.9928
  100MOL0     H13449   2.864   9.805   8.306  0.8752 -0.2678  0.6047
  100MOL0     H13450   3.006   9.729   8.233 -2.3645 -2.1376  0.0112
  100MOL0     H13451   3.215   9.849   8.175  3.0597  1.1847  0.7641
  100MOL0     H13452   3.387  10.087   8.156 -0.8790  0.7839 -0.0081
  100MOL0     H13453   3.370  10.187   8.304 -1.2385  0.4431 -0.9518
  100MOL0     H13454   3.423   9.970   8.431 -0.5980  1.7739 -0.2816
  100MOL0     H13455   3.424   9.876   8.279  0.4317 -0.5925  0.4459
  100MOL0     H13456   3.619  10.099   8.346  3.4968  0.4442 -1.2958
  100MOL0     H13457   3.629  10.001   8.203  2.6649  0.5274  1.8700
  100MOL0     H13458   3.628   9.792   8.363  2.5611 -0.8375 -0.3969
  100MOL0     H13459   3.631   9.909   8.504 -0.4800  0.1999  0.5005
  100MOL0     H13460   3.734   9.730   8.608 -0.5047 -1.4499 -1.1918
  100MOL0     H13461   3.894   9.584   8.711  0.4943 -0.0141  0.1773
  100MOL0     H13462   4.093   9.388   8.987 -0.5663  1.0426  2.7748
  100MOL0     H13463   4.258   9.250   9.116  0.7797  1.2846  0.9520
  100MOL0     H13464   4.669   9.307   9.006  0.2025  0.6223 -0.5707
  100MOL0     H13465   4.696   9.374   9.173  1.2630  0.2832 -0.9137
  100MOL0     H13466   4.718   9.145   9.270  3.3783 -0.8955  0.9011
  100MOL0     H13467   4.685   9.074   9.111 -1.0012  0.5249 -0.5261
  100MOL0     H13468   4.916   9.090   9.078  0.2053  0.4299 -1.4367
  100MOL0     H13469   4.895   9.264   9.067  0.2846  1.2819  1.2670
  100MOL0     H13470   4.979   9.098   9.311  0.2922  0.3931  0.2503
  100MOL0     H13471   4.904   9.265   9.325 -0.1620  0.3481 -1.5497
  100MOL0     H13472   5.074   9.357   9.173 -2.1298  0.5273  1.7536
  100MOL0     H13473   5.150   9.207   9.144 -0.5969 -1.6681  0.9610
  100MOL0     H13474   5.141   9.336   9.428 -1.0932  0.6183 -0.9764
  100MOL0     H13475   5.218   9.185   9.374  1.8926  0.7944  0.7006
  100MOL0     H13476   5.362   9.303   9.230  1.2300  0.2341  0.3691
  100MOL0     H13477   5.376   9.355   9.404 -2.8420  0.4316  2.6959
  100MOL0     H13478   5.277   9.529   9.177  1.4098 -0.4275 -0.2435
  100MOL0     H13479   5.221   9.551   9.346 -1.3054 -1.8854  0.5273
  100MOL0     H13480   4.571   9.513   8.954 -1.3411  2.8046 -1.7108
  100MOL0     H13481   4.422   9.589   8.792  0.2598 -1.7838 -1.0681
  100MOL0     H13482   4.209   9.744   8.468 -0.6531 -1.3618 -2.8471
  100MOL0     H13483   4.054   9.878   8.344 -0.0774  1.1182  0.6235
  100MOL0     H13484   2.687   9.167   7.558  0.6387  2.9606  1.7725
  100MOL0     H13485   2.520   9.086   7.381 -1.6480  1.4189 -1.0877
  100MOL0     H13486   2.217   8.735   7.412 -0.1107 -1.0447 -2.4117
  100MOL0     H13487   2.087   8.549   7.309  1.8681 -0.1950 -0.1452
  100MOL0     H13488   1.713   8.672   7.102  1.9766  0.7689  0.7614
  100MOL0     H13489   1.703   8.506   7.083 -3.8649  2.9641 -1.1578
  100MOL0     H13490   1.922   8.656   6.946 -1.7052  1.9769  0.7731
  100MOL0     H13491   1.775   8.650   6.863  3.7225  4.3458 -0.5845
  100MOL0     H13492   1.871   8.379   6.966 -0.2698 -0.7639 -1.2448
  100MOL0     H13493   1.986   8.452   6.867  1.2175 -1.0816  3.4063
  100MOL0     H13494   1.795   8.469   6.671 -0.8250 -0.8456 -0.7042
  100MOL0     H13495   1.813   8.305   6.724 -1.6592 -0.0288 -0.6882
  100MOL0     H13496   1.430   8.465   6.843 -0.0517 -1.5081  0.6414
  100MOL0     H13497   1.846   8.841   7.118  0.3612  0.6841 -0.4394
  100MOL0     H13498   1.898   9.066   7.119 -2.0223 -1.4001  1.3387
  100MOL0     H13499   1.849   9.109   7.277 -2.4150 -1.9782 -2.5736
  100MOL0     H13500   2.019   9.128   7.241 -0.4958  0.1969  1.6797
  101MOL0     O13501   7.523   3.867   7.609 -0.1286  0.7176 -0.1167
  101MOL0     C13502   7.437   3.878   7.699  0.6705  0.4604  0.1935
  101MOL0     O13503   7.463   3.922   7.820 -0.2201 -0.3616  0.2759
  101MOL0     C13504   7.596   3.915   7.854 -0.1636 -0.6354 -0.0868
  101MOL0     C13505   7.644   3.812   7.938  0.3092  0.2138  0.1553
  101MOL0     C13506   7.779   3.800   7.973  0.7668 -0.4870 -0.0152
  101MOL0     C13507   7.875   3.889   7.918  0.8483  0.4729  0.2793
  101MOL0     O13508   8.011   3.883   7.942 -0.5637 -0.8216  0.5390
  101MOL0     C13509   8.065   3.756   7.980 -0.1848 -0.3745  0.2138
  101MOL0     C13510   8.213   3.761   7.980 -0.9164 -0.6778  0.1569
  101MOL0     C13511   8.275   3.641   8.045  1.0769  1.0018 -0.1196
  101MOL0     C13512   8.424   3.652   8.054 -0.6018 -0.0133 -0.4663
  101MOL0     C13513   8.497   3.532   8.120  0.6266  0.2227 -0.0584
  101MOL0     C13514   8.631   3.570   8.171  0.2361 -0.3404 -0.2776
  101MOL0     C13515   8.706   3.442   8.224  0.1913  0.2759 -0.2924
  101MOL0     C13516   8.859   3.464   8.230  0.0202 -0.5374 -0.0685
  101MOL0     N13517   8.901   3.597   8.280 -0.3004 -0.0841  0.3657
  101MOL0     C13518   8.852   3.649   8.396 -0.1738  0.1165 -0.1312
  101MOL0     C13519   8.922   3.766   8.413 -0.8490 -0.3641 -0.5478
  101MOL0     C13520   8.921   3.865   8.525  0.2590  0.5309  0.4700
  101MOL0     C13521   8.810   3.970   8.487 -0.3187  0.2537  0.1178
  101MOL0     C13522   8.827   4.103   8.551  0.1127  1.1396  1.2177
  101MOL0     C13523   8.713   4.191   8.509  0.4122  0.1380  0.3551
  101MOL0     O13524   8.732   4.319   8.581  0.0018 -0.6659  0.0005
  101MOL0     C13525   8.827   4.396   8.520 -0.5750  0.7797  0.6437
  101MOL0     C13526   8.787   4.472   8.407 -0.9851 -0.5177 -0.1798
  101MOL0     C13527   8.878   4.562   8.356  0.4489 -0.0854 -0.2212
  101MOL0     C13528   9.015   4.563   8.394 -0.0063  0.4965  0.5692
  101MOL0     C13529   9.120   4.634   8.321 -0.2946 -0.8057  0.9347
  101MOL0     O13530   9.076   4.730   8.237  0.3348 -0.0448  0.5613
  101MOL0     C13531   9.144   4.816   8.152 -0.0149 -0.9262  0.7204
  101MOL0     C13532   9.064   4.873   8.052 -0.2796 -0.6424  1.1241
  101MOL0     C13533   9.124   4.979   7.977 -0.0224 -0.0373 -0.6906
  101MOL0     C13534   9.258   5.015   7.985  0.4560  0.5823 -0.1332
  101MOL0     O13535   9.323   5.117   7.917 -0.2216 -0.3159 -0.1422
  101MOL0     C13536   9.238   5.206   7.836 -0.0252 -0.1849 -0.3962
  101MOL0     C13537   9.329   5.325   7.783 -0.4639  1.4083  0.0176
  101MOL0     C13538   9.250   5.441   7.734  0.4843  0.1422  0.8205
  101MOL0     C13539   9.329   5.571   7.719 -0.6508  0.3666  0.4886
  101MOL0     C13540   9.423   5.563   7.595 -0.1411  0.5650  0.4652
  101MOL0     C13541   9.456   5.695   7.525 -0.3835 -1.2417  0.1913
  101MOL0     C13542   9.325   5.763   7.477 -0.1276 -0.4940  0.2293
  101MOL0     C13543   9.346   5.790   7.324  0.6142 -0.4614  0.7789
  101MOL0    Cl13544   9.308   5.650   7.221  0.0014  0.1770 -0.0389
  101MOL0     C13545   9.336   4.945   8.069  0.7419 -0.5636 -0.6172
  101MOL0     C13546   9.282   4.856   8.159 -0.0224  0.5872  0.0899
  101MOL0     O13547   9.238   4.623   8.358  0.1312 -0.6005 -0.3397
  101MOL0     C13548   9.049   4.483   8.508 -0.4376  0.4396  0.6574
  101MOL0     C13549   8.957   4.408   8.572 -0.2679  0.2639  0.2985
  101MOL0     N13550   8.994   3.788   8.297 -0.4903 -0.5094  0.9853
  101MOL0     N13551   8.982   3.686   8.220  0.0189  0.3055  0.0289
  101MOL0     C13552   7.824   3.994   7.842  0.0453 -0.0664 -0.4071
  101MOL0     C13553   7.692   4.008   7.808 -0.2510 -0.6294  0.4945
  101MOL0     C13554   7.294   3.867   7.658 -0.8753 -0.4647 -0.3063
  101MOL0     C13555   7.258   3.795   7.541  0.5559  0.1657  0.3669
  101MOL0     C13556   7.127   3.767   7.509  0.0530 -0.0042 -0.6594
  101MOL0     C13557   7.027   3.811   7.592  0.3241  0.0438  0.5543
  101MOL0     O13558   6.892   3.785   7.575 -0.0019 -0.4343 -0.0899
  101MOL0     C13559   6.836   3.730   7.458  0.1857  0.0955 -0.4556
  101MOL0     C13560   6.730   3.621   7.512 -0.6351 -0.3383  0.4081
  101MOL0     C13561   6.652   3.570   7.391 -0.4717  0.0647  0.0909
  101MOL0     C13562   6.541   3.465   7.418 -0.4177 -0.5235  0.1429
  101MOL0     C13563   6.429   3.532   7.483  0.0607 -0.7655 -0.3302
  101MOL0     C13564   6.330   3.569   7.537 -0.0960 -1.0533  0.2085
  101MOL0     C13565   7.059   3.890   7.701  0.0689  0.9103  0.0180
  101MOL0     C13566   7.188   3.913   7.742 -0.1496 -0.7521  0.0840
  101MOL0     C13567   7.202   3.993   7.864  0.0185 -0.2414 -1.3725
  101MOL0     H13568   7.578   3.729   7.962 -2.0092  1.6358 -0.9661
  101MOL0     H13569   7.814   3.722   8.039 -1.6889 -2.5065 -0.9556
  101MOL0     H13570   8.032   3.724   8.080  1.1798 -0.4297  0.6716
  101MOL0     H13571   8.018   3.684   7.913  0.7516 -3.4831  2.6696
  101MOL0     H13572   8.246   3.840   8.048  2.7740 -1.2305 -0.7771
  101MOL0     H13573   8.245   3.784   7.878  0.2127 -2.1562  0.1498
  101MOL0     H13574   8.238   3.554   7.991 -0.7890  2.1686 -0.8349
  101MOL0     H13575   8.235   3.637   8.146  0.6056 -0.6857 -0.3479
  101MOL0     H13576   8.465   3.664   7.953 -3.1198 -0.0760 -1.5688
  101MOL0     H13577   8.446   3.738   8.117 -2.4032 -0.5227  0.9104
  101MOL0     H13578   8.436   3.503   8.206  0.7854  0.4410  0.1279
  101MOL0     H13579   8.507   3.448   8.051 -0.8760 -0.2877  0.3021
  101MOL0     H13580   8.688   3.610   8.087  0.3943  0.8930  0.3930
  101MOL0     H13581   8.633   3.651   8.244 -1.9811 -2.2833  2.1135
  101MOL0     H13582   8.697   3.346   8.173  0.5374  0.0685  0.0274
  101MOL0     H13583   8.663   3.422   8.322 -0.0929  2.2100  0.0058
  101MOL0     H13584   8.901   3.390   8.300  0.0130 -0.9823 -0.5272
  101MOL0     H13585   8.901   3.444   8.131 -1.2534  1.3573 -1.0488
  101MOL0     H13586   8.776   3.606   8.461  1.2220 -0.5040  1.1382
  101MOL0     H13587   8.906   3.820   8.623  1.3563  0.3270  0.5511
  101MOL0     H13588   9.014   3.921   8.536  0.6211 -0.3973  2.5671
  101MOL0     H13589   8.826   3.984   8.380  1.2138  1.1158  0.4327
  101MOL0     H13590   8.712   3.926   8.510  0.8023 -1.7025  1.4987
  101MOL0     H13591   8.925   4.136   8.513 -0.4643  0.9761 -0.4863
  101MOL0     H13592   8.824   4.106   8.661 -0.5084  2.0077  1.1855
  101MOL0     H13593   8.617   4.140   8.526 -0.6058  1.2570 -1.6852
  101MOL0     H13594   8.722   4.214   8.403  5.8727  0.3308  0.5958
  101MOL0     H13595   8.682   4.475   8.382 -0.8427  2.0014 -0.7272
  101MOL0     H13596   8.846   4.640   8.287 -2.4038 -2.3478 -1.6409
  101MOL0     H13597   8.959   4.845   8.043 -0.2247 -0.2865 -0.8687
  101MOL0     H13598   9.051   5.032   7.917 -0.6354 -0.9478 -0.7723
  101MOL0     H13599   9.184   5.158   7.755 -1.9396  2.6665 -0.9824
  101MOL0     H13600   9.169   5.256   7.905  1.3208 -0.1850  1.0217
  101MOL0     H13601   9.389   5.346   7.872  0.4282 -0.4607 -0.1087
  101MOL0     H13602   9.404   5.295   7.709 -0.4361  1.2125  0.1249
  101MOL0     H13603   9.191   5.427   7.643 -1.1053 -0.9707  1.9572
  101MOL0     H13604   9.174   5.461   7.811 -0.5038  1.8349 -0.5106
  101MOL0     H13605   9.388   5.604   7.805 -0.2504  0.8912  0.0239
  101MOL0     H13606   9.254   5.651   7.707 -1.5098 -0.5739 -0.6391
  101MOL0     H13607   9.376   5.498   7.521  0.1820 -0.4028  1.0773
  101MOL0     H13608   9.519   5.517   7.622 -0.5258 -0.1701  0.6188
  101MOL0     H13609   9.504   5.768   7.591  1.4769 -0.3373 -2.0511
  101MOL0     H13610   9.527   5.667   7.447  0.7419 -0.7341  0.9960
  101MOL0     H13611   9.316   5.857   7.533  0.0747  0.3185 -1.0551
  101MOL0     H13612   9.236   5.700   7.482 -1.5006  1.2150 -1.3721
  101MOL0     H13613   9.275   5.868   7.297  0.9406 -0.6393 -0.6895
  101MOL0     H13614   9.447   5.826   7.301  1.0117 -1.1195  1.4402
  101MOL0     H13615   9.441   4.971   8.076  0.9878 -1.8681  1.3839
  101MOL0     H13616   9.338   4.825   8.247  1.1808 -0.7192 -1.0941
  101MOL0     H13617   9.152   4.474   8.540  0.1745 -1.3164 -1.5569
  101MOL0     H13618   8.981   4.350   8.661 -2.0400  0.7954  1.1730
  101MOL0     H13619   7.893   4.068   7.803 -1.4093  3.5700  3.2554
  101MOL0     H13620   7.658   4.084   7.739 -1.3425 -2.2680 -0.8303
  101MOL0     H13621   7.343   3.749   7.491 -0.0466 -0.2991 -0.2580
  101MOL0     H13622   7.108   3.707   7.420  1.7086  0.5015 -1.3907
  101MOL0     H13623   6.901   3.681   7.385 -0.6247 -2.0376  0.1481
  101MOL0     H13624   6.787   3.810   7.402  0.2442 -0.6160 -1.5740
  101MOL0     H13625   6.658   3.655   7.587 -1.4497 -0.6931 -0.2070
  101MOL0     H13626   6.788   3.534   7.544 -0.6756 -1.4617 -2.2920
  101MOL0     H13627   6.732   3.530   7.328 -1.4226 -2.5663  0.3907
  101MOL0     H13628   6.610   3.657   7.341  0.4806 -0.7726 -2.3600
  101MOL0     H13629   6.511   3.413   7.327 -1.2942 -3.0124  1.7616
  101MOL0     H13630   6.579   3.384   7.481 -0.3669  0.2938  1.1962
  101MOL0     H13631   6.242   3.591   7.594  0.0863 -2.2422  0.9906
  101MOL0     H13632   6.969   3.921   7.754 -0.2824  0.7550 -0.4818
  101MOL0     H13633   7.103   4.031   7.892  0.3815  0.1064 -0.5267
  101MOL0     H13634   7.261   3.943   7.941 -0.5435  2.6135  1.1268
  101MOL0     H13635   7.259   4.083   7.843 -0.3959  0.9977  2.0825
  102MOL0     O13636  10.851   8.296   9.342 -0.2572 -0.2135 -0.5669
  102MOL0     C13637  10.862   8.380   9.434  0.2607  0.6744 -0.2118
  102MOL0     O13638  10.968   8.457   9.456 -0.1319 -0.8761 -0.2765
  102MOL0     C13639  11.082   8.437   9.388 -0.0306  0.4043 -0.0826
  102MOL0     C13640  11.168   8.339   9.429  0.2176  0.3535 -0.6492
  102MOL0     C13641  11.288   8.318   9.374 -0.5569  0.0527  0.0148
  102MOL0     C13642  11.336   8.390   9.266 -0.4878  0.4116  0.2898
  102MOL0     O13643  11.457   8.353   9.206 -0.2355 -0.7035 -0.3036
  102MOL0     C13644  11.574   8.438   9.222  0.3167 -0.4834  0.3371
  102MOL0     C13645  11.671   8.361   9.302 -0.3610 -0.7914 -0.1701
  102MOL0     C13646  11.806   8.421   9.307  0.5184 -0.2569  0.3000
  102MOL0     C13647  11.903   8.336   9.393 -0.0899 -0.2821 -0.0497
  102MOL0     C13648  12.035   8.417   9.399  0.1585 -0.4480  0.1614
  102MOL0     C13649  12.149   8.316   9.387  0.3800  0.4823 -0.8141
  102MOL0     C13650  12.292   8.381   9.383  0.1644  0.5232  0.1894
  102MOL0     C13651  12.397   8.265   9.400 -0.1591  0.5003 -0.0695
  102MOL0     N13652  12.530   8.316   9.398  0.3558  0.0841  0.6134
  102MOL0     C13653  12.622   8.289   9.302  1.0023 -0.6160  0.3889
  102MOL0     C13654  12.743   8.323   9.354 -0.0368 -0.4505  0.2522
  102MOL0     C13655  12.876   8.314   9.281  0.2471  0.0197  0.0168
  102MOL0     C13656  12.947   8.192   9.338 -0.2308  0.0286 -0.6514
  102MOL0     C13657  13.078   8.168   9.274 -0.2633 -0.7366 -0.6267
  102MOL0     C13658  13.142   8.036   9.318 -0.3880  0.2128  0.0139
  102MOL0     O13659  13.188   8.043   9.454 -0.3367  0.0453 -0.3161
  102MOL0     C13660  13.306   8.108   9.486 -0.0232 -0.2678  0.2317
  102MOL0     C13661  13.405   8.166   9.401 -0.6367 -0.1783  0.2041
  102MOL0     C13662  13.514   8.235   9.455 -0.1842  0.3689  0.3865
  102MOL0     C13663  13.535   8.243   9.592 -0.3282  0.9186  0.2903
  102MOL0     C13664  13.657   8.303   9.652 -0.8500 -1.7182  0.4916
  102MOL0     O13665  13.678   8.284   9.780 -0.1152  0.2268 -0.7687
  102MOL0     C13666  13.779   8.344   9.850 -0.3893 -0.4058 -0.2974
  102MOL0     C13667  13.908   8.375   9.798 -0.0568  0.7207 -0.9125
  102MOL0     C13668  14.002   8.445   9.864  0.2491 -0.3548 -0.1608
  102MOL0     C13669  13.975   8.479   9.996 -0.9168  0.2189  0.0175
  102MOL0     O13670  14.083   8.548  10.061 -0.2180 -0.7239  0.2125
  102MOL0     C13671  14.069   8.580  10.202 -0.0243  0.1445  0.7587
  102MOL0     C13672  14.118   8.468  10.274  0.7072 -0.3821  0.4045
  102MOL0     C13673  14.262   8.447  10.244  0.2653 -0.8688 -0.0322
  102MOL0     C13674  14.311   8.333  10.326  0.1939 -0.8124  0.3968
  102MOL0     C13675  14.459   8.321  10.296 -0.9355 -0.2823 -0.4479
  102MOL0     C13676  14.545   8.434  10.345  0.7568  0.7660  0.2089
  102MOL0     C13677  14.696   8.400  10.334  0.2992  0.4201 -0.4270
  102MOL0     C13678  14.744   8.343  10.469 -0.8197  0.3827  0.4143
  102MOL0    Cl13679  14.892   8.257  10.429 -0.3315 -0.3369  0.0835
  102MOL0     C13680  13.851   8.449  10.054  0.0772  0.2929  0.9983
  102MOL0     C13681  13.753   8.390   9.981  0.0902  0.4231  0.2193
  102MOL0     O13682  13.725   8.375   9.578 -0.5063  0.1931 -0.7113
  102MOL0     C13683  13.441   8.178   9.676  0.2206  0.6081  0.1678
  102MOL0     C13684  13.330   8.101   9.625  0.4634  0.0693 -0.2433
  102MOL0     N13685  12.727   8.378   9.476  0.0291  0.3290 -0.1548
  102MOL0     N13686  12.599   8.366   9.503  0.5837  0.5466  0.1825
  102MOL0     C13687  11.260   8.497   9.222 -0.3938  0.0280 -0.6418
  102MOL0     C13688  11.133   8.518   9.279 -0.1130  0.3432 -0.9580
  102MOL0     C13689  10.737   8.406   9.515  0.2999 -0.7232 -0.5195
  102MOL0     C13690  10.745   8.493   9.632  0.9650  0.3831 -0.2416
  102MOL0     C13691  10.635   8.527   9.704 -0.0397  0.0625  0.6572
  102MOL0     C13692  10.511   8.484   9.666  0.6636 -0.0671 -0.0292
  102MOL0     O13693  10.411   8.513   9.757  0.3494  0.6823  0.4454
  102MOL0     C13694  10.274   8.516   9.705  0.1561  0.7452 -0.0916
  102MOL0     C13695  10.196   8.567   9.830  1.0009  0.0442 -0.0562
  102MOL0     C13696  10.046   8.555   9.803 -0.2290 -0.0635  0.6673
  102MOL0     C13697   9.967   8.610   9.922  0.0856 -0.0214 -0.0504
  102MOL0     C13698   9.825   8.587   9.882  0.1944 -0.3895 -0.1805
  102MOL0     C13699   9.717   8.565   9.844  0.9001 -0.5959 -0.4237
  102MOL0     C13700  10.493   8.393   9.561 -0.0148  0.6514  0.0718
  102MOL0     C13701  10.605   8.348   9.485 -0.0030  0.0253 -0.6217
  102MOL0     C13702  10.571   8.240   9.386 -0.2013  0.1914 -0.1364
  102MOL0     H13703  11.119   8.284   9.508  1.2702  1.3295  0.7349
  102MOL0     H13704  11.333   8.229   9.415 -1.7542 -0.2396  0.7292
  102MOL0     H13705  11.613   8.467   9.124  0.1114  0.8141  0.6139
  102MOL0     H13706  11.551   8.533   9.272 -2.8321  0.7305 -2.8887
  102MOL0     H13707  11.690   8.261   9.262  2.9753  0.2862 -1.5922
  102MOL0     H13708  11.627   8.348   9.401 -0.3584 -0.1833 -0.0857
  102MOL0     H13709  11.801   8.521   9.350  0.5976 -0.6360  1.2195
  102MOL0     H13710  11.847   8.435   9.207 -2.9367  0.0444 -1.2140
  102MOL0     H13711  11.860   8.329   9.493  0.3501 -0.2259  0.1425
  102MOL0     H13712  11.910   8.239   9.343 -0.7090 -0.3550  0.0005
  102MOL0     H13713  12.031   8.476   9.307 -0.5085  0.5743  0.8292
  102MOL0     H13714  12.040   8.479   9.490 -0.6719 -0.3923  0.1745
  102MOL0     H13715  12.139   8.244   9.469  0.2523  1.8839  0.4594
  102MOL0     H13716  12.119   8.272   9.292  3.9483 -0.8875 -1.4646
  102MOL0     H13717  12.309   8.452   9.465  1.4683 -0.7480  1.0768
  102MOL0     H13718  12.301   8.425   9.284 -1.2522 -0.4735 -0.4155
  102MOL0     H13719  12.378   8.210   9.492  0.9751 -1.2133 -0.7995
  102MOL0     H13720  12.399   8.200   9.311  1.4126  0.3939  0.0106
  102MOL0     H13721  12.613   8.244   9.203  0.9877  2.5882 -1.1867
  102MOL0     H13722  12.868   8.318   9.172  0.1568 -0.2857  0.0121
  102MOL0     H13723  12.929   8.405   9.314  0.2522 -1.1776  3.8344
  102MOL0     H13724  12.944   8.203   9.447 -2.6159 -1.0285 -0.5489
  102MOL0     H13725  12.883   8.108   9.312  1.9099 -1.6659 -0.7814
  102MOL0     H13726  13.144   8.253   9.296  0.0350 -1.6113  2.3598
  102MOL0     H13727  13.065   8.158   9.166 -0.2132 -2.6941 -0.4820
  102MOL0     H13728  13.231   8.022   9.256 -0.7318 -0.6938 -0.2796
  102MOL0     H13729  13.081   7.947   9.303  0.1435 -0.1642  0.0311
  102MOL0     H13730  13.396   8.186   9.294  4.0568 -2.1314 -0.8063
  102MOL0     H13731  13.584   8.279   9.384 -0.9511 -0.1708 -0.7147
  102MOL0     H13732  13.927   8.328   9.702  1.0681 -0.0159 -0.3505
  102MOL0     H13733  14.104   8.454   9.828  0.3220 -0.9276 -0.1036
  102MOL0     H13734  14.128   8.670  10.220  0.0365  0.9529 -2.8245
  102MOL0     H13735  13.964   8.603  10.224 -0.8347 -1.2361 -1.3771
  102MOL0     H13736  14.104   8.486  10.381 -4.0654 -2.0636  0.2708
  102MOL0     H13737  14.051   8.383  10.262  0.8966 -1.5576  5.3174
  102MOL0     H13738  14.288   8.435  10.138  0.1504 -0.0873 -0.1592
  102MOL0     H13739  14.307   8.544  10.267  1.6082 -2.1267  3.1033
  102MOL0     H13740  14.261   8.245  10.285  0.8722 -1.2932  0.5784
  102MOL0     H13741  14.276   8.333  10.429 -1.2625 -0.0917 -0.0628
  102MOL0     H13742  14.480   8.323  10.188 -1.0309 -0.0449 -0.4639
  102MOL0     H13743  14.501   8.227  10.332 -0.6767  0.9600  2.8252
  102MOL0     H13744  14.507   8.518  10.286 -0.1393 -0.9497 -1.7835
  102MOL0     H13745  14.516   8.453  10.449  4.0263  1.9794  1.0601
  102MOL0     H13746  14.746   8.492  10.305  0.6674  0.9344  1.6476
  102MOL0     H13747  14.707   8.338  10.245  2.3104  1.6610 -1.1261
  102MOL0     H13748  14.771   8.423  10.539  0.3853  0.9222 -0.6309
  102MOL0     H13749  14.678   8.268  10.514  2.4624 -3.3446 -0.3642
  102MOL0     H13750  13.828   8.488  10.153  2.2832  4.1599  0.2201
  102MOL0     H13751  13.656   8.380  10.029  0.5880 -0.3436  1.0946
  102MOL0     H13752  13.452   8.168   9.784 -0.2176 -0.6855  0.1091
  102MOL0     H13753  13.260   8.055   9.694 -0.3123 -0.4807 -1.3546
  102MOL0     H13754  11.307   8.571   9.158 -2.5878  1.4385 -0.7335
  102MOL0     H13755  11.075   8.602   9.243 -1.5869 -0.1511  0.1842
  102MOL0     H13756  10.838   8.545   9.648  1.2704 -0.1716 -0.2104
  102MOL0     H13757  10.630   8.596   9.788  1.8573  2.5511 -1.1369
  102MOL0     H13758  10.238   8.416   9.679 -1.5395  0.4535  2.8501
  102MOL0     H13759  10.265   8.585   9.621 -0.0198 -0.0159 -0.7190
  102MOL0     H13760  10.207   8.675   9.844  0.4589  0.5829 -3.0717
  102MOL0     H13761  10.194   8.512   9.925 -1.9164 -0.4444 -0.3216
  102MOL0     H13762  10.019   8.451   9.785 -2.1741  0.2303  1.6493
  102MOL0     H13763  10.021   8.616   9.716 -1.2685 -3.4112 -1.5864
  102MOL0     H13764   9.993   8.561  10.017  1.7854  2.9668  1.1668
  102MOL0     H13765   9.974   8.716   9.950  1.7194  0.3630 -1.7484
  102MOL0     H13766   9.618   8.550   9.807  0.0819 -1.5224  1.9574
  102MOL0     H13767  10.402   8.340   9.536 -0.2916  1.2339 -0.1867
  102MOL0     H13768  10.577   8.282   9.285  1.4653  2.7038  0.8839
  102MOL0     H13769  10.643   8.159   9.401  0.6456  0.8726 -0.4615
  102MOL0     H13770  10.468   8.204   9.389 -0.6379  1.3304 -0.8984
  103MOL0     O13771   9.052   4.077   0.943 -0.2686  0.6037  0.8022
  103MOL0     C13772   8.974   4.029   0.858 -0.0871 -0.1180 -0.1838
  103MOL0     O13773   9.018   3.951   0.747 -0.6316  0.0959 -0.0875
  103MOL0     C13774   9.155   3.945   0.745 -0.0376 -0.3798 -0.3533
  103MOL0     C13775   9.210   3.824   0.788 -0.4820  0.2339  0.2702
  103MOL0     C13776   9.349   3.803   0.776  0.4554 -0.1098  0.0186
  103MOL0     C13777   9.427   3.910   0.732  0.0222 -0.0110 -0.1541
  103MOL0     O13778   9.566   3.885   0.720 -0.0727 -0.1952 -0.0968
  103MOL0     C13779   9.650   3.981   0.644 -0.0512  0.1265  0.2008
  103MOL0     C13780   9.792   3.932   0.671 -1.2520  0.3558 -0.0145
  103MOL0     C13781   9.901   4.011   0.597  0.8659  0.3380 -0.1551
  103MOL0     C13782  10.030   3.924   0.606  1.1787 -0.2028  0.8765
  103MOL0     C13783  10.135   3.974   0.500  0.1835 -0.4688 -0.5847
  103MOL0     C13784  10.282   3.928   0.532  1.6103 -0.1109  0.6053
  103MOL0     C13785  10.322   3.990   0.669  0.4696 -0.3723  0.0032
  103MOL0     C13786  10.475   3.973   0.695 -0.8040 -0.1840 -0.0152
  103MOL0     N13787  10.567   4.031   0.593  0.0964  0.4537 -0.6138
  103MOL0     C13788  10.568   4.160   0.541 -0.8355 -0.1082 -0.7527
  103MOL0     C13789  10.638   4.138   0.424  0.2775 -0.4929  0.2187
  103MOL0     C13790  10.681   4.252   0.330  0.0874 -0.0049 -0.7369
  103MOL0     C13791  10.821   4.300   0.377 -0.1354  0.0015 -0.3480
  103MOL0     C13792  10.885   4.397   0.276 -0.5689 -0.1489  0.0649
  103MOL0     C13793  11.028   4.444   0.324  0.5983 -0.2989  0.1279
  103MOL0     O13794  11.069   4.558   0.249  0.6262 -0.3774 -0.3388
  103MOL0     C13795  11.084   4.528   0.119 -0.0948 -0.0864  0.4368
  103MOL0     C13796  10.997   4.589   0.026  0.3024  0.0503 -0.5398
  103MOL0     C13797  11.015   4.589  -0.105 -0.2561  0.0553  0.0583
  103MOL0     C13798  11.127   4.527  -0.160  0.0257  0.6349 -0.2249
  103MOL0     C13799  11.137   4.512  -0.301  0.0915  0.1207  0.8693
  103MOL0     O13800  11.272   4.473  -0.356 -0.8183  0.0287  0.0465
  103MOL0     C13801  11.293   4.449  -0.494  0.0653  0.9652 -0.9198
  103MOL0     C13802  11.190   4.434  -0.596  0.1269  0.1010  0.0552
  103MOL0     C13803  11.228   4.411  -0.726 -0.0018  0.2089  0.7599
  103MOL0     C13804  11.362   4.413  -0.768  0.8634  0.8122 -1.2921
  103MOL0     O13805  11.382   4.382  -0.894 -0.1277  0.9825  0.0310
  103MOL0     C13806  11.518   4.372  -0.925 -0.0378  0.4045  0.1208
  103MOL0     C13807  11.537   4.319  -1.067  0.2820 -0.6319  0.6111
  103MOL0     C13808  11.470   4.182  -1.097  0.2569  0.0106 -0.1047
  103MOL0     C13809  11.547   4.057  -1.038  0.5338  0.4259 -0.3933
  103MOL0     C13810  11.464   3.923  -1.046 -0.0171 -0.3368 -0.5775
  103MOL0     C13811  11.478   3.838  -1.171 -0.0436 -0.0338  0.3305
  103MOL0     C13812  11.612   3.769  -1.179  0.6477  0.0849  0.0262
  103MOL0     C13813  11.619   3.661  -1.287 -0.2819  0.3534 -0.0086
  103MOL0    Cl13814  11.779   3.560  -1.263  0.4431 -1.0405  0.2313
  103MOL0     C13815  11.462   4.423  -0.659 -0.1736 -0.5514  0.0369
  103MOL0     C13816  11.429   4.437  -0.527 -0.5792  0.5067 -0.3340
  103MOL0     O13817  11.039   4.517  -0.371  0.3207 -0.1441 -0.3570
  103MOL0     C13818  11.223   4.461  -0.079  0.4745 -0.4013  0.1942
  103MOL0     C13819  11.198   4.462   0.065  0.1865  0.0801  0.3740
  103MOL0     N13820  10.674   4.010   0.409  0.0859 -0.0284  0.5772
  103MOL0     N13821  10.637   3.944   0.518 -0.0100  1.1770  0.8325
  103MOL0     C13822   9.372   4.032   0.694  0.4750  1.0072  0.6560
  103MOL0     C13823   9.235   4.058   0.700 -1.1073  0.9190 -0.7100
  103MOL0     C13824   8.831   4.038   0.878 -0.2746  0.2456  0.7047
  103MOL0     C13825   8.754   4.022   0.761  0.2903 -0.1538  0.6245
  103MOL0     C13826   8.614   4.040   0.764 -0.5043  0.5941  0.5735
  103MOL0     C13827   8.556   4.070   0.890 -0.5661  0.4363 -0.0033
  103MOL0     O13828   8.417   4.095   0.914 -0.1813 -0.6861 -0.4815
  103MOL0     C13829   8.331   4.073   0.807  0.3747 -0.9920  0.4272
  103MOL0     C13830   8.193   4.136   0.829 -0.1282 -0.1453 -0.0939
  103MOL0     C13831   8.125   4.110   0.960 -0.0430 -0.0137 -0.3781
  103MOL0     C13832   8.021   3.993   0.964 -0.3836  0.2059  0.3705
  103MOL0     C13833   7.919   4.008   1.070  0.3070  0.8643 -0.7583
  103MOL0     C13834   7.835   4.037   1.147 -0.4807 -0.4429 -0.1226
  103MOL0     C13835   8.643   4.078   1.001 -0.5658 -0.1773  0.5726
  103MOL0     C13836   8.780   4.067   1.001 -0.3973 -0.0178  0.5338
  103MOL0     C13837   8.857   4.071   1.135 -0.0608 -0.4324 -0.4745
  103MOL0     H13838   9.145   3.742   0.817 -0.8176  0.0157 -1.0054
  103MOL0     H13839   9.399   3.713   0.808  0.6064 -0.7193 -1.8111
  103MOL0     H13840   9.631   3.971   0.536  0.5205  1.8089 -0.0817
  103MOL0     H13841   9.637   4.087   0.663  1.6879  0.7215 -1.5684
  103MOL0     H13842   9.787   3.828   0.636 -2.1056  0.2900  0.2767
  103MOL0     H13843   9.801   3.941   0.780 -2.2254  0.6796  0.0455
  103MOL0     H13844   9.929   4.107   0.641  0.8813 -0.8008  2.5055
  103MOL0     H13845   9.856   4.025   0.498 -0.3048  1.9451  0.5568
  103MOL0     H13846  10.061   3.924   0.710  0.9092  1.2825  0.9772
  103MOL0     H13847   9.999   3.823   0.577 -1.6515  1.1429 -1.3963
  103MOL0     H13848  10.101   3.928   0.407 -0.6156 -0.0786 -0.4913
  103MOL0     H13849  10.129   4.083   0.490 -2.6627 -0.6058 -1.1952
  103MOL0     H13850  10.298   3.820   0.538 -1.4015 -0.6952  0.0297
  103MOL0     H13851  10.349   3.965   0.454  1.6292 -2.7735 -0.7831
  103MOL0     H13852  10.273   3.929   0.746  1.2259 -2.0648 -0.7886
  103MOL0     H13853  10.297   4.096   0.678 -1.7941 -0.7437 -1.2685
  103MOL0     H13854  10.497   4.005   0.797  1.2106 -3.2854  0.6456
  103MOL0     H13855  10.499   3.867   0.702 -0.1804 -0.1172 -0.8881
  103MOL0     H13856  10.527   4.251   0.583  1.1635 -0.1255  1.4414
  103MOL0     H13857  10.685   4.220   0.226 -1.2748  0.3164 -0.9093
  103MOL0     H13858  10.607   4.332   0.322  0.6793  0.3760 -3.5278
  103MOL0     H13859  10.827   4.360   0.468 -1.3541  2.0011 -1.5058
  103MOL0     H13860  10.881   4.209   0.392  1.0922  0.9747  0.8743
  103MOL0     H13861  10.818   4.481   0.256 -1.6377 -1.5306 -2.7443
  103MOL0     H13862  10.897   4.348   0.179 -2.9198 -2.2335  0.7133
  103MOL0     H13863  11.101   4.362   0.327  1.9860  0.9248  0.7413
  103MOL0     H13864  11.025   4.469   0.431  1.8862 -1.1531  0.3923
  103MOL0     H13865  10.920   4.662   0.052 -2.3291 -2.8497  0.5305
  103MOL0     H13866  10.940   4.634  -0.169 -2.5236 -0.9420  1.8674
  103MOL0     H13867  11.086   4.442  -0.567 -0.0104  1.0236 -0.6579
  103MOL0     H13868  11.159   4.368  -0.798 -0.3484 -2.2588  2.4391
  103MOL0     H13869  11.567   4.470  -0.913  1.2623 -0.0097 -1.4361
  103MOL0     H13870  11.569   4.303  -0.858  1.1441  1.1957  0.0693
  103MOL0     H13871  11.505   4.398  -1.136 -1.4056 -1.3564  0.5403
  103MOL0     H13872  11.645   4.307  -1.080  0.2544 -1.1771  0.8962
  103MOL0     H13873  11.366   4.191  -1.067  0.5130 -0.8868  1.1352
  103MOL0     H13874  11.452   4.169  -1.204 -2.1315  1.8540  0.0038
  103MOL0     H13875  11.570   4.075  -0.932 -0.2699 -2.6053  0.4093
  103MOL0     H13876  11.636   4.025  -1.092 -0.2120 -4.5556  0.8173
  103MOL0     H13877  11.361   3.958  -1.032  0.0127 -0.1593 -0.8046
  103MOL0     H13878  11.486   3.861  -0.958 -1.5247 -0.2649 -0.1245
  103MOL0     H13879  11.397   3.764  -1.164  0.3775 -0.4187  1.4817
  103MOL0     H13880  11.473   3.909  -1.253  0.3425 -0.7091 -0.2902
  103MOL0     H13881  11.626   3.716  -1.084 -1.7614 -3.4722 -1.4001
  103MOL0     H13882  11.688   3.846  -1.191  0.2978  0.1820 -1.8311
  103MOL0     H13883  11.530   3.598  -1.281  1.5039 -2.6940 -2.3007
  103MOL0     H13884  11.629   3.695  -1.391  0.7889 -4.0433 -1.5764
  103MOL0     H13885  11.568   4.424  -0.682  0.0056 -0.1675  0.8513
  103MOL0     H13886  11.506   4.465  -0.455 -0.1142  1.0123 -1.0151
  103MOL0     H13887  11.317   4.429  -0.122  0.2124  1.0195 -1.5434
  103MOL0     H13888  11.276   4.432   0.135 -1.3469  2.3146  3.2634
  103MOL0     H13889   9.438   4.108   0.655  1.3749 -0.2534 -0.3719
  103MOL0     H13890   9.194   4.155   0.674 -2.7870  0.8267  1.3181
  103MOL0     H13891   8.802   3.998   0.667 -0.0584 -0.5923  0.5502
  103MOL0     H13892   8.554   4.034   0.674  0.3335 -1.6175  0.1027
  103MOL0     H13893   8.330   3.965   0.792  0.0417 -0.5316 -4.6630
  103MOL0     H13894   8.373   4.109   0.713  0.8629  1.9930  1.6501
  103MOL0     H13895   8.131   4.106   0.744 -2.7157  1.5025  1.0819
  103MOL0     H13896   8.196   4.246   0.833  0.0607 -0.1866  1.7894
  103MOL0     H13897   8.075   4.205   0.981  1.1678  0.7352 -0.7755
  103MOL0     H13898   8.201   4.095   1.038  2.1289 -0.3916 -2.4466
  103MOL0     H13899   7.957   3.992   0.875 -0.7631 -2.2042  0.5955
  103MOL0     H13900   8.053   3.889   0.962  0.1763  0.1905  3.9108
  103MOL0     H13901   7.755   4.072   1.209  1.0710  0.3246  1.5451
  103MOL0     H13902   8.589   4.088   1.095 -1.3899  0.6171  0.0273
  103MOL0     H13903   8.920   3.983   1.149 -1.2271 -1.5106 -1.7138
  103MOL0     H13904   8.916   4.163   1.140  0.2574 -0.3978 -3.1576
  103MOL0     H13905   8.786   4.085   1.217  0.1704 -0.0152 -0.3419
  104MOL0     O13906  11.072   4.041   8.070  0.5920  0.3244 -0.0197
  104MOL0     C13907  11.042   4.150   8.023  0.8523 -0.4595 -1.2880
  104MOL0     O13908  11.115   4.271   8.032  0.0419 -0.7638  0.1469
  104MOL0     C13909  11.249   4.248   8.065 -0.1950 -0.1777  0.5616
  104MOL0     C13910  11.348   4.231   7.970  0.4301 -0.1814  0.4348
  104MOL0     C13911  11.482   4.195   7.996  0.0896 -0.8351  0.0969
  104MOL0     C13912  11.526   4.186   8.126 -0.3974 -0.4289  0.4619
  104MOL0     O13913  11.661   4.146   8.142  0.2174 -0.4827  0.9354
  104MOL0     C13914  11.698   4.115   8.277 -0.1087 -0.5581  0.1252
  104MOL0     C13915  11.850   4.088   8.284  0.4083  0.5709  0.1689
  104MOL0     C13916  11.879   4.095   8.437 -0.3373 -0.4749  0.0370
  104MOL0     C13917  11.999   4.012   8.479  0.0939  0.6125 -0.7670
  104MOL0     C13918  12.052   4.043   8.623  0.4213 -0.9451 -0.4878
  104MOL0     C13919  12.169   3.952   8.664 -0.1976  0.5809 -0.0905
  104MOL0     C13920  12.307   4.006   8.598  0.1100 -0.8101  0.1493
  104MOL0     C13921  12.420   3.957   8.683  0.0131 -0.2181  0.7557
  104MOL0     N13922  12.543   3.974   8.610  0.2575 -0.1228 -0.4654
  104MOL0     C13923  12.594   3.904   8.496 -0.3854  0.6118 -0.4481
  104MOL0     C13924  12.710   3.968   8.456  1.0320 -0.0312  0.6092
  104MOL0     C13925  12.800   3.914   8.344 -0.2578 -0.6527  0.3904
  104MOL0     C13926  12.936   3.895   8.399 -0.1526  0.6160  0.5018
  104MOL0     C13927  13.014   3.830   8.291  0.5607 -0.3053  0.9875
  104MOL0     C13928  13.166   3.834   8.325 -0.4700  0.4761  0.4741
  104MOL0     O13929  13.251   3.809   8.212  0.5002  0.0038 -0.2042
  104MOL0     C13930  13.372   3.868   8.210  0.5686  0.5698  0.4049
  104MOL0     C13931  13.420   3.916   8.085 -1.0841  0.4941 -0.4497
  104MOL0     C13932  13.550   3.974   8.077 -0.1402  0.3779 -0.4522
  104MOL0     C13933  13.634   3.970   8.195 -0.6576 -0.0452  0.2363
  104MOL0     C13934  13.772   4.039   8.189  0.6839 -0.4929 -0.6129
  104MOL0     O13935  13.802   4.120   8.291  0.1432 -0.9659  0.2578
  104MOL0     C13936  13.922   4.187   8.285  0.1523  1.2745  0.8518
  104MOL0     C13937  13.951   4.305   8.212  0.0804 -0.3580 -0.1502
  104MOL0     C13938  14.072   4.377   8.221 -0.1893  0.6512  0.6275
  104MOL0     C13939  14.168   4.332   8.305  0.4262 -0.1649 -1.3606
  104MOL0     O13940  14.291   4.386   8.335 -0.3438 -0.0316  0.2281
  104MOL0     C13941  14.316   4.516   8.285 -0.1165 -1.1610 -0.2741
  104MOL0     C13942  14.436   4.592   8.338 -0.0150 -0.4421 -0.6747
  104MOL0     C13943  14.564   4.503   8.338  0.2773  0.0724 -1.1932
  104MOL0     C13944  14.677   4.574   8.414  0.2028 -0.2127 -0.3985
  104MOL0     C13945  14.800   4.485   8.412 -0.2347 -0.0095 -0.7716
  104MOL0     C13946  14.917   4.560   8.474 -0.6488 -0.4458 -0.5012
  104MOL0     C13947  15.043   4.467   8.487 -0.1121  0.0125 -0.9739
  104MOL0     C13948  15.173   4.554   8.506  0.0272  0.4582 -0.0289
  104MOL0    Cl13949  15.307   4.467   8.578 -0.1609 -0.2161 -0.1555
  104MOL0     C13950  14.146   4.214   8.377 -0.9035  0.3310 -0.3030
  104MOL0     C13951  14.028   4.138   8.367 -0.2260  0.0859  0.1050
  104MOL0     O13952  13.837   4.026   8.092  0.1322 -0.6674  0.5757
  104MOL0     C13953  13.579   3.921   8.314  0.1969 -0.1773  0.3094
  104MOL0     C13954  13.450   3.860   8.315 -1.0210  0.0611 -1.3434
  104MOL0     N13955  12.720   4.088   8.540  0.5713 -0.2028 -0.1169
  104MOL0     N13956  12.625   4.084   8.632 -0.0160  0.8339  0.6679
  104MOL0     C13957  11.433   4.223   8.226 -0.1860  0.0976 -0.8402
  104MOL0     C13958  11.295   4.248   8.201  0.4296 -0.0834  0.5903
  104MOL0     C13959  10.895   4.165   8.008  0.3688 -0.7139 -0.0634
  104MOL0     C13960  10.822   4.269   8.075  0.4919 -0.1440 -0.4128
  104MOL0     C13961  10.688   4.289   8.050 -1.2396 -0.1188 -0.1396
  104MOL0     C13962  10.617   4.223   7.949 -0.6826 -0.4817 -0.8189
  104MOL0     O13963  10.481   4.244   7.921 -0.3669 -1.0651 -0.2346
  104MOL0     C13964  10.424   4.367   7.972 -0.9026 -0.1732  0.5359
  104MOL0     C13965  10.308   4.398   7.882  0.9354 -0.0804  0.5944
  104MOL0     C13966  10.179   4.315   7.923 -0.1695 -0.5069  0.0862
  104MOL0     C13967  10.081   4.338   7.810 -0.2559  0.5970  0.5727
  104MOL0     C13968  10.118   4.261   7.692 -0.2100  0.1391  0.1539
  104MOL0     C13969  10.143   4.217   7.583 -0.5551  0.2742 -0.0722
  104MOL0     C13970  10.686   4.113   7.889 -0.7261 -0.2795 -0.5791
  104MOL0     C13971  10.822   4.081   7.916  0.4106 -0.3359 -0.4747
  104MOL0     C13972  10.891   3.961   7.859  1.2350  0.5897 -0.3758
  104MOL0     H13973  11.327   4.224   7.864  1.9851 -3.9024  0.2275
  104MOL0     H13974  11.547   4.180   7.910  0.3495  1.3691 -0.1532
  104MOL0     H13975  11.670   4.196   8.345 -2.4086 -1.8219  0.7772
  104MOL0     H13976  11.639   4.026   8.300  0.3155 -1.5008 -2.1346
  104MOL0     H13977  11.904   4.167   8.231  0.0651  1.1721  0.7031
  104MOL0     H13978  11.880   3.990   8.244  0.5750 -0.3644  2.4345
  104MOL0     H13979  11.798   4.055   8.499 -0.6856  0.9262  0.5309
  104MOL0     H13980  11.891   4.199   8.469  0.5461 -1.1369  2.0193
  104MOL0     H13981  11.971   3.907   8.470  2.0650 -0.2583  1.9458
  104MOL0     H13982  12.070   4.022   8.397 -1.6102 -0.0866 -2.4028
  104MOL0     H13983  12.077   4.149   8.624  1.9177 -1.2697 -0.9685
  104MOL0     H13984  11.970   4.030   8.694 -0.9961  0.6128 -1.7494
  104MOL0     H13985  12.169   3.955   8.773 -1.5491  2.2226 -0.0912
  104MOL0     H13986  12.146   3.851   8.628 -0.5017  0.8213 -0.5896
  104MOL0     H13987  12.303   4.115   8.606 -4.9448 -0.6977 -1.0204
  104MOL0     H13988  12.319   3.978   8.493 -0.4056  1.9138 -0.7325
  104MOL0     H13989  12.410   4.012   8.777 -0.9571  0.4635  0.2624
  104MOL0     H13990  12.419   3.853   8.718  0.5657  0.4429  2.8682
  104MOL0     H13991  12.545   3.821   8.445  1.4159 -1.9430  1.6715
  104MOL0     H13992  12.762   3.814   8.320 -0.2836 -0.3195 -1.0051
  104MOL0     H13993  12.794   3.986   8.263 -2.5192 -1.3031 -0.0850
  104MOL0     H13994  12.973   3.995   8.424  2.3572  0.3432 -1.7131
  104MOL0     H13995  12.943   3.835   8.490 -0.5894 -1.1625 -0.5861
  104MOL0     H13996  13.002   3.880   8.194 -1.5488 -1.8623  0.3851
  104MOL0     H13997  12.980   3.727   8.276 -0.2561  0.4329 -3.9690
  104MOL0     H13998  13.185   3.763   8.406 -2.5147 -1.8293 -0.9354
  104MOL0     H13999  13.191   3.927   8.377 -1.7007  0.1963  1.6174
  104MOL0     H14000  13.352   3.908   8.001 -3.3509  1.0297  1.2231
  104MOL0     H14001  13.593   4.009   7.984 -0.8275  3.0026  0.1472
  104MOL0     H14002  13.873   4.344   8.148 -0.2113 -2.2599 -1.0008
  104MOL0     H14003  14.090   4.466   8.162 -1.3839  0.4356 -0.1049
  104MOL0     H14004  14.323   4.497   8.177 -0.4294 -2.8192 -0.0294
  104MOL0     H14005  14.228   4.577   8.304  0.0877 -0.3260 -1.8379
  104MOL0     H14006  14.454   4.675   8.269 -4.3942 -1.5279 -3.5030
  104MOL0     H14007  14.407   4.621   8.439  1.6539  1.9362 -0.7802
  104MOL0     H14008  14.535   4.411   8.389 -2.5784  2.2758  1.5453
  104MOL0     H14009  14.598   4.487   8.235  0.0562  1.0600 -1.4260
  104MOL0     H14010  14.643   4.582   8.518 -0.3486 -0.3520 -0.5640
  104MOL0     H14011  14.707   4.665   8.361 -0.6188  0.3599  0.0887
  104MOL0     H14012  14.820   4.471   8.305  0.9275  0.2778 -0.5959
  104MOL0     H14013  14.778   4.391   8.464  1.9561  0.0382  0.3274
  104MOL0     H14014  14.944   4.645   8.411  0.9578 -0.9537 -0.5360
  104MOL0     H14015  14.889   4.602   8.571  1.5937  0.3459 -0.1228
  104MOL0     H14016  15.056   4.405   8.398 -1.2295  0.8581 -1.7645
  104MOL0     H14017  15.013   4.412   8.577 -0.1676  0.6067 -0.6281
  104MOL0     H14018  15.207   4.594   8.410  1.7977 -1.1269 -0.1061
  104MOL0     H14019  15.140   4.640   8.565  0.7183  1.9602 -1.7025
  104MOL0     H14020  14.224   4.182   8.446  0.1579  1.5699 -0.8840
  104MOL0     H14021  14.011   4.045   8.419  0.9585  0.5212  1.3334
  104MOL0     H14022  13.641   3.923   8.402  1.0074 -1.4702 -0.2118
  104MOL0     H14023  13.418   3.808   8.405  0.6327 -0.1296 -0.8302
  104MOL0     H14024  11.464   4.225   8.330  1.0666 -0.6608 -1.1822
  104MOL0     H14025  11.221   4.260   8.279  0.1823  0.8651  0.2211
  104MOL0     H14026  10.875   4.336   8.142 -1.3803  3.6687 -2.4478
  104MOL0     H14027  10.638   4.376   8.090 -0.7902  0.9443 -1.7678
  104MOL0     H14028  10.494   4.450   7.957  0.8655 -1.4554  1.3765
  104MOL0     H14029  10.407   4.357   8.079  0.2743  0.2100  0.7774
  104MOL0     H14030  10.338   4.380   7.778  0.8561 -2.6330  0.9567
  104MOL0     H14031  10.277   4.502   7.896 -0.0556 -0.2131 -0.5202
  104MOL0     H14032  10.144   4.356   8.018  1.8801  1.5080  0.0712
  104MOL0     H14033  10.211   4.212   7.942  1.4993  0.0311  0.3865
  104MOL0     H14034   9.978   4.316   7.842 -0.6022 -3.6226 -2.5337
  104MOL0     H14035  10.082   4.443   7.781 -0.9852  0.3479 -0.4151
  104MOL0     H14036  10.162   4.169   7.489  1.0150 -1.1612  0.8993
  104MOL0     H14037  10.644   4.055   7.807  0.4617 -0.3083 -1.1791
  104MOL0     H14038  10.985   3.994   7.812  0.7586 -0.0916 -1.8652
  104MOL0     H14039  10.920   3.893   7.940  2.1129  1.9831  0.5377
  104MOL0     H14040  10.833   3.902   7.788  0.5619 -0.1273  0.7364
  105MOL0     O14041   7.085   3.550   1.828 -0.4649  0.1553  0.0908
  105MOL0     C14042   7.049   3.660   1.806 -0.2436 -0.3380 -0.0690
  105MOL0     O14043   7.140   3.761   1.778  0.4042  0.5031 -0.2940
  105MOL0     C14044   7.274   3.734   1.794 -0.4809  0.7125 -0.2216
  105MOL0     C14045   7.332   3.747   1.916  0.0850 -0.0097  0.0697
  105MOL0     C14046   7.474   3.741   1.920  0.2561  1.0433  0.4036
  105MOL0     C14047   7.558   3.697   1.812 -0.4031  1.1398  0.1028
  105MOL0     O14048   7.690   3.672   1.838  0.4931 -0.4962  0.1663
  105MOL0     C14049   7.787   3.702   1.732  0.0307  0.4624 -0.2270
  105MOL0     C14050   7.880   3.576   1.710 -0.4729  0.1738 -0.2152
  105MOL0     C14051   7.805   3.456   1.659  1.0196 -0.2970  0.5189
  105MOL0     C14052   7.895   3.351   1.586 -0.2751  0.5175 -0.1402
  105MOL0     C14053   7.818   3.228   1.556  0.0970 -0.1035  0.5153
  105MOL0     C14054   7.903   3.109   1.482 -0.4319  0.1751 -0.3986
  105MOL0     C14055   7.923   3.114   1.327  0.5781  0.3704  0.1542
  105MOL0     C14056   8.022   3.003   1.273 -0.4408  0.3560 -0.8287
  105MOL0     N14057   8.091   3.023   1.154 -0.8770 -0.1418  0.4591
  105MOL0     C14058   8.050   3.038   1.021 -0.2671  0.1632 -0.1710
  105MOL0     C14059   8.162   3.047   0.948 -0.8588 -0.7712 -0.3171
  105MOL0     C14060   8.143   3.087   0.798  0.9799  0.2319 -0.1027
  105MOL0     C14061   8.263   3.037   0.717 -0.1102  0.0435  0.0739
  105MOL0     C14062   8.247   3.086   0.567  0.0851  0.4116  0.2566
  105MOL0     C14063   8.373   3.045   0.492 -0.6626 -0.9346  0.0513
  105MOL0     O14064   8.484   3.127   0.542  0.0766  0.4890  0.5450
  105MOL0     C14065   8.600   3.066   0.573  0.3383  0.4138  0.2623
  105MOL0     C14066   8.689   3.140   0.640 -0.4654 -0.9616 -0.8466
  105MOL0     C14067   8.808   3.090   0.685 -0.1584  0.0704 -0.4372
  105MOL0     C14068   8.842   2.958   0.663  0.3842 -0.1983  0.1475
  105MOL0     C14069   8.975   2.906   0.706  0.2655  0.1780 -0.1813
  105MOL0     O14070   9.025   2.956   0.825 -0.7260  0.2697  0.0411
  105MOL0     C14071   9.144   2.897   0.867  0.0015  0.1334 -0.4511
  105MOL0     C14072   9.267   2.932   0.820 -1.3109  0.7639  0.0486
  105MOL0     C14073   9.389   2.884   0.876  0.0602  0.1665  0.4597
  105MOL0     C14074   9.382   2.800   0.988 -0.2412 -0.3517 -0.3788
  105MOL0     O14075   9.501   2.752   1.034 -0.5828 -0.1229 -0.6416
  105MOL0     C14076   9.512   2.636   1.126 -1.1000  1.0138 -0.2207
  105MOL0     C14077   9.660   2.595   1.130 -0.1839  0.3982  0.2203
  105MOL0     C14078   9.690   2.463   1.205  0.0247  0.3333  0.4693
  105MOL0     C14079   9.845   2.434   1.184  0.1876 -0.0569 -0.0352
  105MOL0     C14080   9.901   2.329   1.285 -0.6654 -0.6192 -0.1800
  105MOL0     C14081  10.053   2.310   1.298 -0.2613 -0.1546  0.7873
  105MOL0     C14082  10.126   2.443   1.279 -0.5164  0.3158  0.1416
  105MOL0     C14083  10.271   2.432   1.310 -0.4984 -0.0246  0.1487
  105MOL0    Cl14084  10.366   2.384   1.171 -0.1166  0.0374 -0.0569
  105MOL0     C14085   9.257   2.765   1.045  0.1002  0.8119  1.1252
  105MOL0     C14086   9.138   2.812   0.981  0.4699 -0.4636 -0.3358
  105MOL0     O14087   9.029   2.814   0.643  0.2509  0.3775  0.8864
  105MOL0     C14088   8.762   2.880   0.582 -0.3634 -0.6166 -0.5078
  105MOL0     C14089   8.636   2.927   0.542  0.2465 -1.4945  0.0923
  105MOL0     N14090   8.273   3.035   1.026 -0.3305 -0.0768  0.7071
  105MOL0     N14091   8.231   3.030   1.146 -0.3099  0.0637 -0.4797
  105MOL0     C14092   7.481   3.663   1.701  0.6987  0.0390  0.3236
  105MOL0     C14093   7.346   3.692   1.687  0.5791 -0.0295  0.1952
  105MOL0     C14094   6.903   3.693   1.816  0.0013 -0.4639  0.0489
  105MOL0     C14095   6.863   3.824   1.814 -0.5004 -0.4759 -0.1031
  105MOL0     C14096   6.723   3.859   1.814 -0.6757  0.3378 -0.4265
  105MOL0     C14097   6.621   3.768   1.816  0.1444 -0.1565  1.0769
  105MOL0     O14098   6.492   3.813   1.816  0.4472  0.7828 -0.0662
  105MOL0     C14099   6.389   3.719   1.843  0.5379 -0.0116 -0.0570
  105MOL0     C14100   6.261   3.803   1.834  0.3880  1.0800  0.2300
  105MOL0     C14101   6.238   3.916   1.940  0.7298 -0.0766  0.7088
  105MOL0     C14102   6.110   3.993   1.904 -0.8117 -0.7157 -0.6994
  105MOL0     C14103   5.985   3.927   1.945  0.3078  0.2331 -0.1067
  105MOL0     C14104   5.883   3.871   1.978 -0.1734  0.0262 -0.5235
  105MOL0     C14105   6.659   3.629   1.825  0.9488 -0.6185  0.1960
  105MOL0     C14106   6.793   3.591   1.817 -0.5143  0.1027  0.4773
  105MOL0     C14107   6.815   3.439   1.815  0.4286 -0.3931  0.1923
  105MOL0     H14108   7.271   3.799   1.989 -0.9855 -0.5844 -0.3926
  105MOL0     H14109   7.509   3.765   2.019 -0.9886 -0.3072  1.2127
  105MOL0     H14110   7.739   3.726   1.637 -1.3939  0.0961  0.3715
  105MOL0     H14111   7.852   3.787   1.758 -0.1829  0.3351  0.7616
  105MOL0     H14112   7.924   3.545   1.805  0.5950  0.9643 -0.4346
  105MOL0     H14113   7.968   3.590   1.647  1.2872 -2.0710  1.6154
  105MOL0     H14114   7.743   3.495   1.577 -0.4683 -1.1079  1.2170
  105MOL0     H14115   7.746   3.411   1.739 -0.4756  0.9943  0.1937
  105MOL0     H14116   7.934   3.393   1.493 -2.0662 -2.6951 -2.5705
  105MOL0     H14117   7.981   3.331   1.651  2.3538  1.7736 -2.9772
  105MOL0     H14118   7.787   3.199   1.657  1.7729  2.4379  1.8535
  105MOL0     H14119   7.732   3.266   1.500  1.6269  1.3964 -0.9362
  105MOL0     H14120   8.000   3.099   1.532  0.1618 -1.1832 -1.7364
  105MOL0     H14121   7.847   3.021   1.513 -0.5991  0.6555  0.7160
  105MOL0     H14122   7.951   3.216   1.297 -1.3033  1.0623  0.5693
  105MOL0     H14123   7.827   3.093   1.278  1.9011 -4.2668 -0.8505
  105MOL0     H14124   8.098   2.989   1.351 -0.8756  4.3627  0.5409
  105MOL0     H14125   7.961   2.912   1.265 -3.9220  2.1439  2.2036
  105MOL0     H14126   7.949   3.042   0.982 -0.5781  3.2312  0.7161
  105MOL0     H14127   8.056   3.027   0.768  0.6681  1.1961 -1.1717
  105MOL0     H14128   8.116   3.192   0.784  0.7194  0.0304 -1.1611
  105MOL0     H14129   8.358   3.057   0.768  0.4788  2.2792 -1.7607
  105MOL0     H14130   8.251   2.928   0.714  1.0676 -0.0928 -0.5321
  105MOL0     H14131   8.238   3.194   0.559 -0.0199  0.2989 -1.4185
  105MOL0     H14132   8.163   3.035   0.520  1.0399 -0.7719 -0.2176
  105MOL0     H14133   8.359   3.066   0.386 -0.2697  0.0367  0.1789
  105MOL0     H14134   8.393   2.937   0.499  2.3705 -0.4013  1.7791
  105MOL0     H14135   8.659   3.242   0.665  0.0152 -1.1290  0.4951
  105MOL0     H14136   8.875   3.152   0.744  1.7024 -1.6096 -0.6944
  105MOL0     H14137   9.263   3.004   0.739 -0.3753 -0.6921 -1.3709
  105MOL0     H14138   9.486   2.908   0.834 -0.0989 -1.8262 -1.2005
  105MOL0     H14139   9.474   2.661   1.225 -0.7569 -2.2329  0.8353
  105MOL0     H14140   9.453   2.556   1.080  0.1433  1.4153 -2.7129
  105MOL0     H14141   9.702   2.581   1.030 -0.0976 -1.6586  0.4877
  105MOL0     H14142   9.719   2.679   1.166  2.2730 -0.9637 -0.3689
  105MOL0     H14143   9.664   2.465   1.311  1.3239  2.2962  0.8251
  105MOL0     H14144   9.631   2.380   1.167  0.5225  0.0609  0.2819
  105MOL0     H14145   9.902   2.526   1.198  1.0168 -0.9754  3.3325
  105MOL0     H14146   9.858   2.407   1.079 -3.1318 -0.4759 -0.4711
  105MOL0     H14147   9.851   2.237   1.253 -2.3597  1.3166 -3.7067
  105MOL0     H14148   9.871   2.350   1.388  2.6298 -1.9133  1.1758
  105MOL0     H14149  10.065   2.262   1.395 -0.4660 -3.1136 -0.5373
  105MOL0     H14150  10.085   2.238   1.221 -0.9430  0.3436  0.0270
  105MOL0     H14151  10.091   2.518   1.351 -1.9569  0.3039 -0.5062
  105MOL0     H14152  10.108   2.484   1.179  0.5993  0.6329  0.0612
  105MOL0     H14153  10.306   2.532   1.338  0.7939 -1.0440  2.4798
  105MOL0     H14154  10.298   2.366   1.393 -0.6197  0.2006  0.3716
  105MOL0     H14155   9.245   2.709   1.137 -0.0175  3.0720  2.5628
  105MOL0     H14156   9.042   2.777   1.017  0.2919 -0.3957 -0.7294
  105MOL0     H14157   8.790   2.779   0.553  1.9635  0.0055 -0.6822
  105MOL0     H14158   8.586   2.859   0.473  4.3185 -4.1869 -0.5653
  105MOL0     H14159   7.537   3.633   1.613  3.5827  2.4676  1.1734
  105MOL0     H14160   7.294   3.664   1.596  1.3718  1.4506 -0.7624
  105MOL0     H14161   6.940   3.899   1.824  0.4033 -1.6878  3.5802
  105MOL0     H14162   6.704   3.966   1.819 -1.1189  0.2423 -0.0297
  105MOL0     H14163   6.401   3.673   1.942  0.4238 -1.3855 -0.6575
  105MOL0     H14164   6.386   3.628   1.782  0.6270 -0.8465  1.1408
  105MOL0     H14165   6.180   3.731   1.842  0.2924  1.3828  5.9941
  105MOL0     H14166   6.259   3.838   1.730 -0.0777 -0.1458 -0.1924
  105MOL0     H14167   6.323   3.985   1.945  0.5818  0.0403  3.1172
  105MOL0     H14168   6.230   3.868   2.038 -0.4248  0.7491  1.0320
  105MOL0     H14169   6.113   4.086   1.962  0.0616 -1.3181  0.2409
  105MOL0     H14170   6.114   4.020   1.798  0.6834  1.2918 -0.1932
  105MOL0     H14171   5.793   3.818   2.004 -0.1218  0.1537 -0.0817
  105MOL0     H14172   6.581   3.554   1.829  1.5322 -1.1819  2.3730
  105MOL0     H14173   6.868   3.404   1.727 -2.5532  1.7476 -2.6906
  105MOL0     H14174   6.875   3.411   1.903  1.3250 -0.2310 -0.3592
  105MOL0     H14175   6.727   3.374   1.824 -0.2134  0.4393  0.1085
  106MOL0     O14176   0.035   0.675   0.258  0.0092  0.5238 -0.4368
  106MOL0     C14177  -0.001   0.617   0.364 -0.6628 -0.3147  0.0705
  106MOL0     O14178   0.084   0.552   0.438 -0.6459  0.3819 -0.6502
  106MOL0     C14179   0.219   0.547   0.415 -0.0694 -0.2333 -0.7399
  106MOL0     C14180   0.296   0.596   0.521  1.2058 -0.3351  0.4287
  106MOL0     C14181   0.435   0.598   0.517 -0.8031 -0.8493  0.1679
  106MOL0     C14182   0.496   0.543   0.399  0.5856  0.3886 -0.7064
  106MOL0     O14183   0.635   0.538   0.403 -0.3810 -0.3221 -0.3716
  106MOL0     C14184   0.711   0.616   0.317  0.4291  0.5427  0.2008
  106MOL0     C14185   0.851   0.582   0.344 -0.5754  0.3649 -0.1960
  106MOL0     C14186   0.914   0.695   0.416  0.1403 -0.5683 -0.5628
  106MOL0     C14187   1.064   0.677   0.401  0.4143  0.1838 -0.2880
  106MOL0     C14188   1.133   0.788   0.476  0.5960  0.4250  0.7777
  106MOL0     C14189   1.288   0.798   0.450 -0.0413  0.0646 -0.4277
  106MOL0     C14190   1.335   0.909   0.544 -0.8252 -0.0388 -0.3908
  106MOL0     C14191   1.341   0.864   0.692 -0.1826  0.0945  0.1996
  106MOL0     N14192   1.430   0.950   0.774 -0.4357  0.4643 -0.1057
  106MOL0     C14193   1.529   0.891   0.852  0.2478 -0.7111  0.6100
  106MOL0     C14194   1.606   0.998   0.885  0.2149 -0.3727  0.3549
  106MOL0     C14195   1.735   0.995   0.970 -0.3808  0.8438  0.4157
  106MOL0     C14196   1.864   1.010   0.891  0.0969 -0.0104 -0.1089
  106MOL0     C14197   1.879   1.141   0.803 -0.0729 -0.3459  0.2708
  106MOL0     C14198   2.010   1.150   0.716  0.0594 -0.1006 -0.0592
  106MOL0     O14199   2.122   1.136   0.798  0.7203 -0.3025 -0.3236
  106MOL0     C14200   2.247   1.149   0.747 -0.4083 -0.4086 -0.1964
  106MOL0     C14201   2.357   1.153   0.841  1.4555  0.8425 -0.8763
  106MOL0     C14202   2.488   1.182   0.800  0.1571  0.0544 -0.0348
  106MOL0     C14203   2.522   1.186   0.663  0.1586  0.2004  0.2154
  106MOL0     C14204   2.662   1.215   0.618  0.1475  0.2230 -0.5206
  106MOL0     O14205   2.758   1.202   0.717  0.3630 -0.4783  0.0345
  106MOL0     C14206   2.884   1.242   0.692  1.0153  0.3645  0.2138
  106MOL0     C14207   2.955   1.289   0.808  0.6598  0.2705  0.1960
  106MOL0     C14208   3.088   1.332   0.799 -0.1475  0.2835 -0.6364
  106MOL0     C14209   3.150   1.329   0.678  0.0559  0.2347 -0.5604
  106MOL0     O14210   3.280   1.352   0.671  0.2148  0.4491  0.5361
  106MOL0     C14211   3.365   1.239   0.701 -0.4613 -0.4065 -1.0035
  106MOL0     C14212   3.510   1.276   0.691  0.4319 -0.6652 -0.1126
  106MOL0     C14213   3.547   1.312   0.545  0.0341  0.0019  0.4175
  106MOL0     C14214   3.697   1.343   0.551  0.3237  0.7069  1.4772
  106MOL0     C14215   3.767   1.335   0.409 -0.8100  0.3171 -0.1769
  106MOL0     C14216   3.917   1.366   0.412  0.6388  0.0632  0.4533
  106MOL0     C14217   3.937   1.519   0.448 -0.6141 -0.1750 -0.7782
  106MOL0     C14218   4.065   1.584   0.394 -0.3246 -0.2121 -0.4898
  106MOL0    Cl14219   4.080   1.751   0.465  0.0600  0.1899  0.3144
  106MOL0     C14220   3.082   1.290   0.562  0.1079 -0.0165 -0.0941
  106MOL0     C14221   2.948   1.247   0.564  0.6382  0.1589 -0.0562
  106MOL0     O14222   2.676   1.274   0.512  0.2166  0.7175 -0.2634
  106MOL0     C14223   2.413   1.161   0.575 -0.4532  0.9920 -0.8537
  106MOL0     C14224   2.279   1.151   0.610  0.2010  1.1125  0.0481
  106MOL0     N14225   1.553   1.116   0.835  0.2851  0.1031  0.0915
  106MOL0     N14226   1.442   1.078   0.765 -0.4332 -0.3334  0.3678
  106MOL0     C14227   0.420   0.480   0.298 -0.5451 -0.1340 -0.2200
  106MOL0     C14228   0.281   0.482   0.309 -0.1760  0.0414  0.9167
  106MOL0     C14229  -0.145   0.624   0.407  0.0630  0.2748 -0.4122
  106MOL0     C14230  -0.228   0.685   0.310 -0.0055 -0.7199 -0.4947
  106MOL0     C14231  -0.362   0.695   0.328  0.2018 -0.5282  0.2617
  106MOL0     C14232  -0.416   0.645   0.443  0.5154 -0.2189 -1.2214
  106MOL0     O14233  -0.548   0.657   0.484 -0.3867  0.4800 -0.5705
  106MOL0     C14234  -0.644   0.701   0.392  0.6201  0.1121 -0.0402
  106MOL0     C14235  -0.767   0.725   0.476 -0.2288 -0.6530 -0.1858
  106MOL0     C14236  -0.745   0.821   0.593 -0.3067  0.0141 -0.6742
  106MOL0     C14237  -0.865   0.906   0.639 -0.5204 -0.1302  0.8230
  106MOL0     C14238  -0.991   0.842   0.650  0.1728  0.7421 -0.7337
  106MOL0     C14239  -1.103   0.786   0.650 -0.8716  0.1178  0.0076
  106MOL0     C14240  -0.330   0.597   0.542 -0.2012 -0.4459 -0.4575
  106MOL0     C14241  -0.193   0.575   0.523 -0.3869  0.3233 -0.6368
  106MOL0     C14242  -0.114   0.517   0.636 -0.5850  0.5762 -0.2764
  106MOL0     H14243   0.249   0.648   0.604  0.8769  0.3539 -0.1823
  106MOL0     H14244   0.484   0.653   0.596 -2.3877  2.9641 -1.2400
  106MOL0     H14245   0.700   0.589   0.211  1.7476  1.0850 -0.1015
  106MOL0     H14246   0.691   0.721   0.339  1.6646  0.4909  1.6818
  106MOL0     H14247   0.906   0.574   0.250  0.2989 -0.2751  0.3424
  106MOL0     H14248   0.874   0.491   0.402  1.2706  0.2655 -1.0075
  106MOL0     H14249   0.878   0.691   0.520 -0.4202  0.3615 -0.7146
  106MOL0     H14250   0.885   0.782   0.358 -0.3591  1.5276  2.5663
  106MOL0     H14251   1.090   0.579   0.444 -0.6715 -0.9309 -2.0208
  106MOL0     H14252   1.100   0.674   0.297  0.3169 -0.8372 -0.3083
  106MOL0     H14253   1.094   0.885   0.443 -0.4478 -0.1608  0.2478
  106MOL0     H14254   1.103   0.781   0.581  1.1190 -3.6730  0.7976
  106MOL0     H14255   1.344   0.709   0.481  2.2771  1.9607  1.1274
  106MOL0     H14256   1.311   0.814   0.344 -1.3551 -0.1975 -0.7657
  106MOL0     H14257   1.283   1.005   0.534 -0.6054  0.1363  0.1320
  106MOL0     H14258   1.439   0.924   0.516 -0.9662  1.7553 -0.0233
  106MOL0     H14259   1.243   0.862   0.740  0.4634 -1.2023  1.5412
  106MOL0     H14260   1.377   0.761   0.691 -1.7655 -0.5526 -2.5666
  106MOL0     H14261   1.542   0.787   0.878  1.9643 -0.6004  0.2650
  106MOL0     H14262   1.731   1.082   1.036  1.7992  0.8167  0.6594
  106MOL0     H14263   1.729   0.904   1.031 -0.9868  0.4959 -0.1532
  106MOL0     H14264   1.951   0.988   0.954  1.0504  3.9168  0.1648
  106MOL0     H14265   1.851   0.930   0.817 -0.6932  0.3775 -0.3985
  106MOL0     H14266   1.890   1.221   0.877  2.0685  2.2592 -2.5884
  106MOL0     H14267   1.795   1.161   0.736  0.7031 -0.8236 -0.8876
  106MOL0     H14268   2.013   1.248   0.666  1.5269 -1.0342 -1.9512
  106MOL0     H14269   2.000   1.072   0.639 -0.5252  1.3139 -1.4743
  106MOL0     H14270   2.326   1.149   0.945 -0.7352 -1.3701 -1.5315
  106MOL0     H14271   2.553   1.190   0.886 -2.0913  0.2219  1.7568
  106MOL0     H14272   2.911   1.288   0.907  2.1381 -0.7490  0.8920
  106MOL0     H14273   3.135   1.372   0.887  0.0644  0.9732 -1.0558
  106MOL0     H14274   3.340   1.201   0.800 -2.1579  0.2919 -1.1440
  106MOL0     H14275   3.346   1.166   0.622  2.1950 -1.4026 -0.8364
  106MOL0     H14276   3.528   1.364   0.755 -1.3943 -1.5429  1.7303
  106MOL0     H14277   3.574   1.197   0.732  0.6797 -1.0788 -1.2800
  106MOL0     H14278   3.517   1.239   0.469 -0.3698 -1.3383  1.8089
  106MOL0     H14279   3.506   1.408   0.515  0.5349 -0.6276 -2.5248
  106MOL0     H14280   3.745   1.263   0.609 -0.9953 -0.5888  0.8436
  106MOL0     H14281   3.713   1.441   0.596  1.2043  3.4292 -3.9693
  106MOL0     H14282   3.716   1.399   0.337 -2.5286  0.5429  1.1836
  106MOL0     H14283   3.757   1.236   0.363 -1.0373  0.0837  0.3695
  106MOL0     H14284   3.973   1.311   0.489  2.1687  0.1537 -0.5626
  106MOL0     H14285   3.970   1.350   0.318  1.4988  3.4051  0.2243
  106MOL0     H14286   3.932   1.532   0.557  1.1440  1.7526 -0.8638
  106MOL0     H14287   3.853   1.577   0.409 -1.1794  1.9442  3.0748
  106MOL0     H14288   4.145   1.512   0.413 -0.8756 -0.8350 -0.5003
  106MOL0     H14289   4.064   1.586   0.285 -1.0177 -0.6763 -0.4985
  106MOL0     H14290   3.132   1.288   0.466  0.5349 -1.8357  0.1336
  106MOL0     H14291   2.898   1.210   0.476  1.1896  0.4091 -0.4777
  106MOL0     H14292   2.438   1.163   0.469 -0.0888  5.1634 -0.8330
  106MOL0     H14293   2.198   1.140   0.539 -0.5128  3.1499  0.4601
  106MOL0     H14294   0.467   0.437   0.210 -2.3301  1.1404 -1.8760
  106MOL0     H14295   0.226   0.432   0.230  0.3720 -1.8506  1.6889
  106MOL0     H14296  -0.183   0.721   0.218  1.6059 -1.3293  0.0234
  106MOL0     H14297  -0.428   0.720   0.245  0.0910 -2.2994 -0.2419
  106MOL0     H14298  -0.661   0.629   0.311 -0.6279  1.2880 -0.8568
  106MOL0     H14299  -0.617   0.795   0.343 -0.0386  0.7352  0.7713
  106MOL0     H14300  -0.798   0.629   0.518 -0.9105  0.5042  2.1342
  106MOL0     H14301  -0.852   0.760   0.417 -0.7551  2.2848  2.1055
  106MOL0     H14302  -0.672   0.897   0.563  1.1548 -0.4097  1.5434
  106MOL0     H14303  -0.705   0.764   0.677  0.3610  1.0220 -0.2928
  106MOL0     H14304  -0.841   0.954   0.734  1.6241  1.3698 -0.3876
  106MOL0     H14305  -0.875   0.984   0.562  1.7650 -1.9066 -1.4460
  106MOL0     H14306  -1.199   0.748   0.625 -1.0755  1.6401 -1.6858
  106MOL0     H14307  -0.378   0.565   0.634  1.2476 -0.8669  0.1827
  106MOL0     H14308  -0.033   0.585   0.663 -0.5736  1.0366 -1.4051
  106MOL0     H14309  -0.178   0.508   0.724 -1.6539  1.9534 -0.8741
  106MOL0     H14310  -0.066   0.424   0.605 -1.0888  0.5393 -0.9852
  107MOL0     O14311   5.286   1.355   0.912  0.0915  0.4485  0.3290
  107MOL0     C14312   5.238   1.247   0.956  0.0010 -0.1262  0.4812
  107MOL0     O14313   5.316   1.157   1.019 -0.0223 -0.5164 -0.0595
  107MOL0     C14314   5.447   1.183   1.027  0.5095  0.3858 -0.9207
  107MOL0     C14315   5.505   1.268   1.119  0.4163 -0.2933  0.1224
  107MOL0     C14316   5.641   1.277   1.133  0.0293  0.1235  0.0255
  107MOL0     C14317   5.728   1.200   1.047 -0.0176 -0.5079  0.0691
  107MOL0     O14318   5.867   1.215   1.052  0.2772 -0.6399  0.7101
  107MOL0     C14319   5.921   1.083   1.068 -0.7273  0.3204 -0.2268
  107MOL0     C14320   6.075   1.088   1.092 -0.5926  0.1278  0.1021
  107MOL0     C14321   6.149   0.948   1.080 -0.7959  0.1934 -0.0404
  107MOL0     C14322   6.172   0.897   0.932  0.3511  0.0735 -0.6215
  107MOL0     C14323   6.285   0.797   0.922  0.1945 -0.4098 -0.0840
  107MOL0     C14324   6.294   0.733   0.785 -0.2387 -0.3106  0.4536
  107MOL0     C14325   6.423   0.650   0.748  0.6027 -0.0342 -0.5854
  107MOL0     C14326   6.424   0.512   0.813  0.4606 -0.0681  0.7106
  107MOL0     N14327   6.551   0.448   0.806 -0.7206 -0.3658  0.2060
  107MOL0     C14328   6.597   0.354   0.716  0.0385  0.4586  0.6414
  107MOL0     C14329   6.726   0.330   0.746  0.0192  0.2079  0.3424
  107MOL0     C14330   6.811   0.225   0.676 -0.4831 -0.1403  0.2358
  107MOL0     C14331   6.823   0.096   0.761 -0.2985  0.2035  0.3822
  107MOL0     C14332   6.691   0.044   0.814 -0.0749 -0.6094  0.3312
  107MOL0     C14333   6.603  -0.037   0.718  0.6628 -0.1904 -0.6083
  107MOL0     O14334   6.529   0.052   0.632 -0.5360 -0.1448 -1.1595
  107MOL0     C14335   6.405   0.004   0.592 -0.4707 -0.7419 -0.4892
  107MOL0     C14336   6.394  -0.122   0.538 -0.4061  1.1496 -0.5223
  107MOL0     C14337   6.270  -0.174   0.509 -0.1181  0.0035  0.8651
  107MOL0     C14338   6.146  -0.108   0.544 -0.2090  0.6040 -0.3459
  107MOL0     C14339   6.013  -0.163   0.519  0.3338  0.7255 -0.1145
  107MOL0     O14340   6.017  -0.274   0.443 -0.3784 -0.2049  0.1730
  107MOL0     C14341   5.904  -0.353   0.420 -0.8837  0.1445 -0.2676
  107MOL0     C14342   5.847  -0.415   0.527  0.5591  0.6524  0.2913
  107MOL0     C14343   5.734  -0.495   0.503 -0.0891  0.3948  0.3891
  107MOL0     C14344   5.694  -0.529   0.367 -0.6083  0.5602 -0.1405
  107MOL0     O14345   5.594  -0.623   0.365 -0.1629  0.1121 -0.0001
  107MOL0     C14346   5.522  -0.641   0.238  0.3505  1.1255 -0.5667
  107MOL0     C14347   5.412  -0.745   0.263  0.8685 -0.7342  0.6083
  107MOL0     C14348   5.308  -0.751   0.144  0.6758 -0.3484 -0.6244
  107MOL0     C14349   5.211  -0.874   0.142  0.0408 -0.4089  0.0447
  107MOL0     C14350   5.136  -0.853   0.012 -0.4206  0.6586  0.0892
  107MOL0     C14351   5.029  -0.966   0.009  0.2812 -0.4418 -0.2960
  107MOL0     C14352   4.976  -0.964  -0.125 -0.1281  0.2251 -0.6332
  107MOL0     C14353   4.865  -1.066  -0.150  0.1062  0.0545  0.5156
  107MOL0    Cl14354   4.730  -1.022  -0.029 -0.1121  0.1484  0.3397
  107MOL0     C14355   5.753  -0.461   0.261 -0.2075  0.4196  0.9609
  107MOL0     C14356   5.858  -0.364   0.291  0.3981  0.5538 -0.1447
  107MOL0     O14357   5.911  -0.108   0.554  0.7971 -0.2727  0.4468
  107MOL0     C14358   6.164   0.016   0.598 -0.3334 -0.9027 -0.6559
  107MOL0     C14359   6.287   0.079   0.618  0.4089  0.0022  0.0767
  107MOL0     N14360   6.759   0.401   0.864 -0.3128 -0.0298 -0.2653
  107MOL0     N14361   6.655   0.476   0.896 -0.1793  0.6134 -0.6408
  107MOL0     C14362   5.666   1.111   0.953  0.2017 -0.3619 -0.7892
  107MOL0     C14363   5.533   1.103   0.944 -0.0502 -0.3380 -0.2752
  107MOL0     C14364   5.094   1.212   0.936 -0.2679  0.5456  0.6385
  107MOL0     C14365   5.008   1.283   0.848 -0.0014 -0.8354  0.3740
  107MOL0     C14366   4.870   1.258   0.832  0.1788  0.4813  0.1415
  107MOL0     C14367   4.807   1.147   0.899  0.1391  1.3654 -0.1318
  107MOL0     O14368   4.676   1.095   0.879 -0.7182 -0.0278  0.1644
  107MOL0     C14369   4.582   1.167   0.803  0.3400  0.0050  0.0012
  107MOL0     C14370   4.495   1.070   0.730 -0.3099 -0.2730 -0.2274
  107MOL0     C14371   4.362   1.123   0.682  0.4458  0.3356 -0.2950
  107MOL0     C14372   4.276   1.017   0.612  0.1321 -0.0783  0.0596
  107MOL0     C14373   4.246   0.911   0.710  0.6091  0.5942  0.2372
  107MOL0     C14374   4.204   0.825   0.790 -1.5162  1.1215  0.0476
  107MOL0     C14375   4.889   1.076   0.989 -0.2955  0.6239 -0.3587
  107MOL0     C14376   5.023   1.107   1.010 -0.1634  0.5111 -0.5783
  107MOL0     C14377   5.087   1.018   1.116  0.2918 -0.3366  1.2342
  107MOL0     H14378   5.432   1.333   1.166  0.0164  0.4981 -1.5189
  107MOL0     H14379   5.685   1.342   1.208 -0.4156  2.1880 -1.3823
  107MOL0     H14380   5.881   1.034   1.157 -0.1762 -0.4130 -0.3777
  107MOL0     H14381   5.910   1.021   0.979  0.9536  0.7561 -0.7670
  107MOL0     H14382   6.090   1.118   1.197  4.1164 -0.0149 -0.3039
  107MOL0     H14383   6.123   1.153   1.018 -0.1962 -2.4459 -2.0347
  107MOL0     H14384   6.086   0.878   1.134 -2.4716  2.0539  0.5201
  107MOL0     H14385   6.245   0.965   1.131 -0.5232  3.2991 -1.3750
  107MOL0     H14386   6.082   0.846   0.895  0.4181 -1.0271  0.6714
  107MOL0     H14387   6.186   0.976   0.857 -1.5882  0.0156 -1.1122
  107MOL0     H14388   6.371   0.863   0.936 -0.4179  0.5402 -0.6257
  107MOL0     H14389   6.282   0.713   0.992  0.7278 -2.5254 -2.4611
  107MOL0     H14390   6.203   0.674   0.777 -1.4145  1.0748  2.5376
  107MOL0     H14391   6.282   0.811   0.709  2.4028  2.2823  2.4699
  107MOL0     H14392   6.507   0.706   0.791 -2.2982  2.8505  1.7921
  107MOL0     H14393   6.442   0.641   0.641  0.9963  1.0065 -0.6122
  107MOL0     H14394   6.403   0.517   0.920  0.5529  2.8570  0.6812
  107MOL0     H14395   6.345   0.447   0.775 -0.2764  1.2582 -0.1278
  107MOL0     H14396   6.545   0.297   0.640 -0.6497  0.3821  1.1551
  107MOL0     H14397   6.771   0.205   0.576  0.4516  1.7930 -0.5735
  107MOL0     H14398   6.911   0.264   0.656 -0.6662 -0.7932 -2.3950
  107MOL0     H14399   6.865   0.017   0.699 -4.6120 -1.4621 -0.8126
  107MOL0     H14400   6.894   0.108   0.843  0.3262 -2.0955  0.2443
  107MOL0     H14401   6.637   0.123   0.866  2.0195  0.4932  0.9363
  107MOL0     H14402   6.728  -0.028   0.888 -1.3676 -0.2866  1.3225
  107MOL0     H14403   6.529  -0.086   0.782  0.2425 -0.0169 -0.9586
  107MOL0     H14404   6.661  -0.116   0.668  0.2969  0.6035 -2.3491
  107MOL0     H14405   6.483  -0.180   0.516 -0.2475 -0.0925  2.8515
  107MOL0     H14406   6.270  -0.276   0.471  0.8166 -0.6870  2.6117
  107MOL0     H14407   5.873  -0.393   0.630  0.8763  1.5820  0.0176
  107MOL0     H14408   5.676  -0.522   0.590 -0.6834  0.3980 -0.0043
  107MOL0     H14409   5.471  -0.548   0.209 -1.5868  0.8917  1.7830
  107MOL0     H14410   5.586  -0.669   0.153  0.0043  2.4099 -1.2752
  107MOL0     H14411   5.450  -0.848   0.270  0.4453 -0.8789  0.8395
  107MOL0     H14412   5.368  -0.719   0.360 -0.9732  0.7638 -0.5681
  107MOL0     H14413   5.258  -0.653   0.145  1.7362  0.2849 -3.0660
  107MOL0     H14414   5.365  -0.751   0.050 -0.4661 -2.4430 -1.3691
  107MOL0     H14415   5.144  -0.878   0.229  0.2559 -0.4308  0.2093
  107MOL0     H14416   5.271  -0.965   0.137  1.6256  0.5577  0.8213
  107MOL0     H14417   5.212  -0.856  -0.067  0.5168  1.0134  0.9653
  107MOL0     H14418   5.080  -0.759   0.013 -0.8497  0.4043  0.1148
  107MOL0     H14419   5.088  -1.057   0.027  1.2444 -0.4152 -2.9175
  107MOL0     H14420   4.953  -0.948   0.085  1.1749  4.4246 -0.1893
  107MOL0     H14421   5.056  -0.996  -0.192 -0.2119  0.4261 -0.8320
  107MOL0     H14422   4.939  -0.866  -0.156 -0.8396  0.4625  0.8526
  107MOL0     H14423   4.832  -1.045  -0.252  1.0269 -2.1998 -0.2916
  107MOL0     H14424   4.896  -1.171  -0.149  0.3129  0.1151  0.9762
  107MOL0     H14425   5.730  -0.473   0.156 -0.1722 -0.2374  1.0267
  107MOL0     H14426   5.898  -0.304   0.210  1.5650 -0.3211 -0.2457
  107MOL0     H14427   6.074   0.076   0.615  0.6270  1.4531 -3.0617
  107MOL0     H14428   6.289   0.174   0.670 -2.5179 -0.0845  0.4973
  107MOL0     H14429   5.729   1.054   0.884  0.2673 -1.1534 -0.0818
  107MOL0     H14430   5.500   1.036   0.866 -0.7659 -0.5733  0.2216
  107MOL0     H14431   5.043   1.371   0.795 -0.8565  0.4037  1.7783
  107MOL0     H14432   4.817   1.319   0.760 -0.8697  1.9232  2.0565
  107MOL0     H14433   4.625   1.235   0.729 -0.7811  0.4721 -0.2420
  107MOL0     H14434   4.519   1.227   0.870  1.8688  1.5104  0.1561
  107MOL0     H14435   4.493   0.979   0.791  4.9577 -2.0543 -2.0762
  107MOL0     H14436   4.551   1.053   0.637  0.3018  0.4188  0.0030
  107MOL0     H14437   4.379   1.202   0.608 -2.1664  0.7899 -0.5333
  107MOL0     H14438   4.308   1.176   0.761 -0.1060  1.4375 -1.3698
  107MOL0     H14439   4.179   1.057   0.582  0.7290  1.2517 -0.1402
  107MOL0     H14440   4.335   0.982   0.526  0.5080 -0.4357  0.4563
  107MOL0     H14441   4.173   0.750   0.861 -3.0365  0.7779 -0.9315
  107MOL0     H14442   4.837   0.992   1.033 -0.4738  0.6247 -0.5705
  107MOL0     H14443   5.014   0.952   1.163 -0.9942 -0.0376 -0.2698
  107MOL0     H14444   5.171   0.962   1.074 -0.7577 -0.3371 -0.9714
  107MOL0     H14445   5.128   1.081   1.196  1.3506 -0.2329  0.6292
  108MOL0     O14446  10.196   5.892  11.230  0.3751 -0.2614 -0.1269
  108MOL0     C14447  10.197   5.802  11.152 -1.1825  0.0650  0.5533
  108MOL0     O14448  10.294   5.774  11.066 -0.4745 -0.3052 -0.1288
  108MOL0     C14449  10.393   5.873  11.049 -0.1522 -0.4885  1.0790
  108MOL0     C14450  10.370   5.988  10.968  0.0006  0.3634  0.2758
  108MOL0     C14451  10.470   6.085  10.946 -0.2531  0.7365 -0.0576
  108MOL0     C14452  10.595   6.063  11.009 -0.7878  0.3589  0.1647
  108MOL0     O14453  10.694   6.153  11.005  0.3730  0.5411  0.1365
  108MOL0     C14454  10.700   6.258  10.908  0.6686  0.2449  0.2460
  108MOL0     C14455  10.832   6.324  10.919 -0.3503 -0.4749  1.1563
  108MOL0     C14456  10.846   6.410  11.039 -0.3236  0.6638  0.3340
  108MOL0     C14457  10.950   6.515  11.029  0.5155  0.0867 -0.0021
  108MOL0     C14458  11.092   6.455  11.034 -0.6161 -0.1829  0.4470
  108MOL0     C14459  11.198   6.567  11.023 -0.1630 -0.1576  0.2969
  108MOL0     C14460  11.340   6.545  11.072  0.2816  0.0205 -0.2552
  108MOL0     C14461  11.427   6.662  11.016 -0.2086  0.7286 -0.2745
  108MOL0     N14462  11.561   6.672  11.075  0.0332 -0.3164  0.8194
  108MOL0     C14463  11.683   6.623  11.029 -1.0168 -0.2835 -0.3192
  108MOL0     C14464  11.767   6.668  11.125  0.4808  0.7414 -0.0323
  108MOL0     C14465  11.912   6.635  11.115 -0.2265  0.0620  0.4960
  108MOL0     C14466  11.993   6.694  11.232  0.3023  0.1296 -0.6717
  108MOL0     C14467  12.119   6.616  11.244 -0.4093  0.1670 -0.3471
  108MOL0     C14468  12.222   6.696  11.323 -0.0931  1.7160 -0.2473
  108MOL0     O14469  12.345   6.637  11.339  0.1921 -0.0944 -0.1250
  108MOL0     C14470  12.443   6.713  11.393  0.0707 -0.3968 -0.1802
  108MOL0     C14471  12.571   6.670  11.372  0.0559  0.1850  1.0203
  108MOL0     C14472  12.688   6.736  11.425 -0.6359  0.7060 -0.4186
  108MOL0     C14473  12.671   6.859  11.499  0.1170 -0.5545  0.0401
  108MOL0     C14474  12.780   6.928  11.563 -0.3543 -0.1966 -0.0629
  108MOL0     O14475  12.903   6.886  11.524  0.1919  0.2816 -0.1775
  108MOL0     C14476  13.018   6.943  11.579 -0.4400  0.0435  0.1047
  108MOL0     C14477  13.113   6.853  11.638 -0.2068 -0.4425  0.3869
  108MOL0     C14478  13.231   6.900  11.695  0.5863 -0.2639  0.1258
  108MOL0     C14479  13.260   7.033  11.695  0.4088 -0.3480  0.1224
  108MOL0     O14480  13.382   7.062  11.744 -0.4513 -0.7570 -0.6393
  108MOL0     C14481  13.447   7.188  11.706 -0.3024  0.4775  0.1992
  108MOL0     C14482  13.580   7.204  11.772  0.2567 -0.0385  0.2617
  108MOL0     C14483  13.612   7.357  11.763 -0.1089 -0.3550 -0.5512
  108MOL0     C14484  13.559   7.427  11.893 -0.6361 -0.7351 -0.5026
  108MOL0     C14485  13.616   7.568  11.887 -0.3645  0.2079 -0.8721
  108MOL0     C14486  13.554   7.663  11.999 -0.3429 -0.5157  0.1108
  108MOL0     C14487  13.608   7.621  12.135  0.2215  0.1038 -0.7716
  108MOL0     C14488  13.580   7.727  12.235 -0.2253 -0.4717 -0.2236
  108MOL0    Cl14489  13.407   7.721  12.277  0.4832 -0.5463 -0.7135
  108MOL0     C14490  13.172   7.121  11.626  0.1662  0.1365 -0.6011
  108MOL0     C14491  13.050   7.074  11.581  0.0753 -0.0109 -0.3748
  108MOL0     O14492  12.760   7.019  11.648 -0.0960 -0.1216  0.0419
  108MOL0     C14493  12.541   6.896  11.522  0.9008  0.0846  0.0811
  108MOL0     C14494  12.425   6.829  11.475 -0.0468  0.1750 -0.7224
  108MOL0     N14495  11.700   6.743  11.222 -0.8172 -0.5085 -0.3310
  108MOL0     N14496  11.574   6.736  11.192 -0.2993 -0.1216  0.0887
  108MOL0     C14497  10.618   5.941  11.075 -0.0395  0.4149 -0.9402
  108MOL0     C14498  10.520   5.850  11.090  0.1131  1.0361 -0.8823
  108MOL0     C14499  10.076   5.707  11.144  1.6037 -0.2094 -0.0262
  108MOL0     C14500  10.056   5.632  11.027 -0.4550  1.3089  0.0809
  108MOL0     C14501   9.950   5.540  11.015  0.4987 -0.9385 -1.0620
  108MOL0     C14502   9.853   5.528  11.120 -0.5871  0.2708  0.8297
  108MOL0     O14503   9.748   5.445  11.101 -0.0558  0.2369  0.9485
  108MOL0     C14504   9.650   5.428  11.203 -0.1153 -0.3564  0.2048
  108MOL0     C14505   9.691   5.343  11.325  0.3642  0.3952  0.0272
  108MOL0     C14506   9.694   5.185  11.299 -0.7683 -0.5610  0.6910
  108MOL0     C14507   9.555   5.129  11.285  0.2754  0.0116 -0.0897
  108MOL0     C14508   9.473   5.153  11.399  0.2389  0.2163 -0.5430
  108MOL0     C14509   9.390   5.181  11.486  0.9594  0.0651 -0.2945
  108MOL0     C14510   9.871   5.609  11.236  0.4898  0.0736  0.7587
  108MOL0     C14511   9.979   5.694  11.256 -0.1542  0.3111 -0.0131
  108MOL0     C14512  10.001   5.763  11.388 -0.1000 -0.3535 -0.3336
  108MOL0     H14513  10.275   6.004  10.918 -0.4114 -0.2857  0.8402
  108MOL0     H14514  10.458   6.173  10.883 -0.4411 -0.4005 -1.6659
  108MOL0     H14515  10.676   6.227  10.806  1.1586 -1.7056  0.6880
  108MOL0     H14516  10.617   6.323  10.937  0.3063 -0.3623  0.5956
  108MOL0     H14517  10.842   6.380  10.826  2.1429 -2.4262  0.1291
  108MOL0     H14518  10.900   6.238  10.914 -1.2944 -1.3066  2.1275
  108MOL0     H14519  10.860   6.353  11.131  1.1154  0.9297  0.2947
  108MOL0     H14520  10.751   6.462  11.055 -1.3469 -1.1164  0.2882
  108MOL0     H14521  10.924   6.583  10.948 -0.8713  0.4511  0.7195
  108MOL0     H14522  10.946   6.566  11.126  0.7755  1.2737 -0.6058
  108MOL0     H14523  11.132   6.398  11.119  2.4948 -0.5504 -1.1249
  108MOL0     H14524  11.104   6.386  10.951 -1.5846 -0.0902  0.2237
  108MOL0     H14525  11.195   6.580  10.914 -0.2018  0.6721  0.3883
  108MOL0     H14526  11.158   6.659  11.066 -0.9681  0.3096 -1.3658
  108MOL0     H14527  11.370   6.448  11.031  3.5042  1.6167 -2.0250
  108MOL0     H14528  11.341   6.541  11.181 -0.7045  1.6624 -0.1500
  108MOL0     H14529  11.441   6.645  10.909  2.4672  2.2466 -0.2544
  108MOL0     H14530  11.375   6.757  11.031 -2.2417 -0.5458  1.3930
  108MOL0     H14531  11.710   6.583  10.932  0.7480  3.7395 -1.7256
  108MOL0     H14532  11.925   6.528  11.095  1.1416  0.2076  0.5084
  108MOL0     H14533  11.954   6.674  11.022  1.0906  0.1646  1.1103
  108MOL0     H14534  12.020   6.798  11.212  1.2625 -0.1180 -0.7418
  108MOL0     H14535  11.935   6.695  11.325 -2.4189  1.1408 -2.2715
  108MOL0     H14536  12.154   6.597  11.142  0.9739 -2.5111  0.5407
  108MOL0     H14537  12.098   6.519  11.288 -2.7759 -0.9181 -3.5216
  108MOL0     H14538  12.186   6.722  11.423 -0.5044 -4.9997  1.8453
  108MOL0     H14539  12.234   6.793  11.274 -2.5501  2.1195 -0.2043
  108MOL0     H14540  12.577   6.583  11.306  0.2734  0.6407  0.4284
  108MOL0     H14541  12.788   6.698  11.404 -0.3114  1.1282  0.3255
  108MOL0     H14542  13.083   6.749  11.646 -0.3016 -0.6713 -2.0871
  108MOL0     H14543  13.287   6.827  11.752  1.4509 -1.9829 -2.6931
  108MOL0     H14544  13.460   7.197  11.598 -2.5980  4.4555  0.0349
  108MOL0     H14545  13.382   7.272  11.733 -0.5469  0.9552 -1.7366
  108MOL0     H14546  13.567   7.158  11.870  1.0311 -0.8415 -0.0054
  108MOL0     H14547  13.652   7.146  11.713  0.2242  1.0953 -0.9404
  108MOL0     H14548  13.718   7.376  11.749 -0.3311  0.5719 -1.0468
  108MOL0     H14549  13.567   7.404  11.675  5.4225  5.3451 -0.9729
  108MOL0     H14550  13.596   7.374  11.981 -1.4460 -0.7767 -0.1774
  108MOL0     H14551  13.450   7.425  11.887 -0.8384 -0.0768  2.0897
  108MOL0     H14552  13.591   7.616  11.792  0.7636  0.3812 -1.0996
  108MOL0     H14553  13.725   7.560  11.895 -0.5091 -2.8727 -0.9028
  108MOL0     H14554  13.591   7.765  11.984  0.2833 -0.9964 -1.9025
  108MOL0     H14555  13.445   7.663  11.992 -0.3511  3.1423 -2.2234
  108MOL0     H14556  13.715   7.598  12.130  0.7537  2.0172  0.4561
  108MOL0     H14557  13.557   7.529  12.165 -0.6469  0.9185  0.3386
  108MOL0     H14558  13.639   7.722  12.327 -0.3199  3.1696  0.1661
  108MOL0     H14559  13.621   7.817  12.190  2.5003 -1.7136 -0.3894
  108MOL0     H14560  13.206   7.221  11.602  0.3845  0.3616  0.5564
  108MOL0     H14561  12.978   7.140  11.533  0.8773  0.7350 -0.5972
  108MOL0     H14562  12.517   6.974  11.593  2.5316  1.6192 -0.9860
  108MOL0     H14563  12.332   6.882  11.496  1.1195  2.3814 -0.8203
  108MOL0     H14564  10.718   5.914  11.109 -2.1668 -1.7522  4.6307
  108MOL0     H14565  10.553   5.751  11.121  2.0288  2.5032  2.2972
  108MOL0     H14566  10.127   5.635  10.946 -2.0637 -1.2453 -1.5877
  108MOL0     H14567   9.922   5.473  10.935  1.0656 -1.0380 -1.1827
  108MOL0     H14568   9.557   5.378  11.171 -0.5899 -0.7944  2.1689
  108MOL0     H14569   9.617   5.526  11.237  2.2060  1.2126 -1.7297
  108MOL0     H14570   9.620   5.378  11.400 -0.9989  3.2825 -2.3949
  108MOL0     H14571   9.792   5.377  11.352  0.5745 -2.1669  2.9783
  108MOL0     H14572   9.738   5.137  11.387  2.0359  1.0732  0.3010
  108MOL0     H14573   9.752   5.155  11.211  0.6111  0.4592  1.2094
  108MOL0     H14574   9.510   5.167  11.193  1.4813 -3.0267 -2.1156
  108MOL0     H14575   9.562   5.020  11.280 -0.3642 -0.0309 -0.1352
  108MOL0     H14576   9.317   5.202  11.561  1.8944 -1.1702  1.0242
  108MOL0     H14577   9.801   5.594  11.317  0.9660  2.1378  1.6304
  108MOL0     H14578   9.977   5.869  11.377 -0.3211 -0.3350  0.2416
  108MOL0     H14579   9.931   5.725  11.464  0.1259  0.9489  0.5486
  108MOL0     H14580  10.105   5.765  11.421  0.7466 -3.7304 -2.3413
  109MOL0     O14581   2.583  10.463   9.888  0.3380 -0.0933  0.5272
  109MOL0     C14582   2.531  10.492   9.996 -0.2915  1.5608 -0.1050
  109MOL0     O14583   2.605  10.561  10.093 -0.2549  0.6555  0.7241
  109MOL0     C14584   2.738  10.599  10.081 -0.5676  0.3171  0.0225
  109MOL0     C14585   2.775  10.707   9.987 -0.8659 -0.2686 -0.8075
  109MOL0     C14586   2.911  10.754   9.988 -0.4346  0.1796  0.0131
  109MOL0     C14587   3.010  10.693  10.070 -0.3027 -0.4148  0.9077
  109MOL0     O14588   3.141  10.734  10.086 -0.6165  0.2330  0.0263
  109MOL0     C14589   3.180  10.853  10.008  0.1628  0.5743 -0.4029
  109MOL0     C14590   3.309  10.899  10.075  0.1929  0.7806 -0.4200
  109MOL0     C14591   3.383  11.020  10.010  0.3193  0.0895  0.4990
  109MOL0     C14592   3.422  11.013   9.856 -0.0005  0.8627 -0.2892
  109MOL0     C14593   3.479  11.147   9.809  0.2532 -0.2339  0.7571
  109MOL0     C14594   3.611  11.189   9.872 -0.3496  0.1484 -0.3195
  109MOL0     C14595   3.654  11.326   9.820 -0.5368 -0.6358  0.1721
  109MOL0     C14596   3.772  11.380   9.909 -0.2167  0.2650 -0.5988
  109MOL0     N14597   3.884  11.285   9.932 -0.0245 -0.4763 -0.6524
  109MOL0     C14598   3.925  11.226  10.046  0.2878  0.1780  0.2296
  109MOL0     C14599   4.047  11.166  10.014 -0.6512  0.7850 -0.4536
  109MOL0     C14600   4.133  11.074  10.112  0.8837  1.1235 -0.0942
  109MOL0     C14601   4.232  11.156  10.200 -0.3762 -0.4612  0.6553
  109MOL0     C14602   4.342  11.229  10.109 -0.4050  0.6234  0.0405
  109MOL0     C14603   4.443  11.124  10.050 -0.5073 -0.3214  0.6868
  109MOL0     O14604   4.501  11.050  10.160  0.5163  0.0298  0.5822
  109MOL0     C14605   4.627  11.092  10.203  0.0595  0.0005  0.2091
  109MOL0     C14606   4.739  11.026  10.157  0.3652  0.4260 -0.9622
  109MOL0     C14607   4.867  11.059  10.196 -0.0651  0.7946 -0.2723
  109MOL0     C14608   4.890  11.170  10.278 -0.1880  0.4322  0.0237
  109MOL0     C14609   5.026  11.216  10.318  0.1465 -0.7624  0.1710
  109MOL0     O14610   5.127  11.238  10.219  0.8260  0.7646 -0.5749
  109MOL0     C14611   5.254  11.245  10.254  0.0257 -0.5007  0.3241
  109MOL0     C14612   5.299  11.338  10.355  0.0487  0.3365 -0.6077
  109MOL0     C14613   5.430  11.341  10.395  0.5098 -0.1281 -0.3048
  109MOL0     C14614   5.526  11.261  10.316 -0.9955 -0.3669 -0.4669
  109MOL0     O14615   5.664  11.285  10.348 -0.0375  0.3621 -0.6122
  109MOL0     C14616   5.759  11.228  10.263  0.1305  0.1486  0.0920
  109MOL0     C14617   5.901  11.278  10.303  0.2638 -0.1005  1.0015
  109MOL0     C14618   5.990  11.284  10.183  0.3703  0.7060 -0.0817
  109MOL0     C14619   6.127  11.331  10.233 -0.2432  0.2461 -0.9460
  109MOL0     C14620   6.228  11.334  10.131 -0.9622  0.1863  0.0142
  109MOL0     C14621   6.372  11.343  10.186  0.6769  0.0110 -0.2563
  109MOL0     C14622   6.472  11.353  10.078  0.3205  0.0873  0.0530
  109MOL0     C14623   6.474  11.480   9.980 -0.4171  0.3174 -0.2236
  109MOL0    Cl14624   6.634  11.510   9.897  0.7160 -0.3978 -0.0189
  109MOL0     C14625   5.477  11.179  10.218 -0.2675  0.6870  0.1146
  109MOL0     C14626   5.337  11.165  10.190 -0.0229 -0.4204 -0.9386
  109MOL0     O14627   5.042  11.216  10.438  0.1784  0.5336 -0.0566
  109MOL0     C14628   4.774  11.244  10.323  1.1360 -0.0558  0.0483
  109MOL0     C14629   4.646  11.206  10.279  0.1227  0.1649  0.6836
  109MOL0     N14630   4.067  11.180   9.875 -0.5454 -0.1727 -0.3277
  109MOL0     N14631   3.970  11.256   9.833  0.2388  0.3768 -0.0779
  109MOL0     C14632   2.975  10.589  10.143 -0.5780  0.7668  0.2556
  109MOL0     C14633   2.845  10.543  10.159  0.0813 -0.3872  0.6762
  109MOL0     C14634   2.397  10.451  10.022  0.5924  0.5755 -0.6047
  109MOL0     C14635   2.379  10.314  10.010 -0.1063  0.2228 -0.8615
  109MOL0     C14636   2.246  10.266  10.024  0.1304 -0.2670 -0.7836
  109MOL0     C14637   2.142  10.358  10.047 -0.0605 -0.2183  0.8984
  109MOL0     O14638   2.030  10.307  10.089  0.7729  0.4714 -0.1514
  109MOL0     C14639   1.908  10.368  10.037  0.5467 -1.1338 -0.4388
  109MOL0     C14640   1.890  10.337   9.893  0.1722  0.8557  0.6071
  109MOL0     C14641   1.781  10.409   9.814  1.3646  0.5483 -0.0612
  109MOL0     C14642   1.798  10.568   9.798 -0.3767  0.5137 -0.2419
  109MOL0     C14643   1.673  10.611   9.736  0.3047 -0.6651 -0.5584
  109MOL0     C14644   1.560  10.622   9.694 -0.1260  0.0871  0.2978
  109MOL0     C14645   2.170  10.494  10.069 -0.4089  0.6866  1.1840
  109MOL0     C14646   2.297  10.542  10.050  0.3529  0.1214  0.3834
  109MOL0     C14647   2.325  10.687  10.063  0.4523  0.3080  1.2030
  109MOL0     H14648   2.702  10.752   9.921 -0.8379  3.1676  1.3079
  109MOL0     H14649   2.933  10.846   9.935 -0.0659  0.7032  1.0503
  109MOL0     H14650   3.204  10.824   9.905  1.5754  2.2604 -0.6001
  109MOL0     H14651   3.107  10.934  10.012  0.6677  0.9892  0.8177
  109MOL0     H14652   3.373  10.811  10.065  0.8867  1.4681 -2.5702
  109MOL0     H14653   3.294  10.919  10.181 -3.0943 -0.7849 -0.4301
  109MOL0     H14654   3.475  11.026  10.069  0.7261 -1.0725  0.0134
  109MOL0     H14655   3.320  11.109  10.019  1.3225  0.8054  0.6090
  109MOL0     H14656   3.496  10.934   9.843 -2.1648 -1.2855 -0.2759
  109MOL0     H14657   3.333  10.989   9.797  1.7704 -3.7110 -1.5063
  109MOL0     H14658   3.491  11.149   9.700  0.7152 -0.2623  0.8025
  109MOL0     H14659   3.401  11.220   9.834  0.0332 -0.0319 -0.4313
  109MOL0     H14660   3.594  11.194   9.980 -1.6914  2.9365 -0.5695
  109MOL0     H14661   3.686  11.114   9.846  0.1308  0.5540 -0.1119
  109MOL0     H14662   3.564  11.389   9.823 -0.2124 -0.0629 -1.3126
  109MOL0     H14663   3.692  11.324   9.718 -1.5868  0.6004 -0.2648
  109MOL0     H14664   3.810  11.472   9.863 -1.0965  0.3781 -1.1278
  109MOL0     H14665   3.734  11.397  10.010  0.1110  1.6225 -0.6837
  109MOL0     H14666   3.873  11.235  10.140  2.0457  2.7400  1.0531
  109MOL0     H14667   4.062  11.022  10.177  0.7986  1.8663  0.4217
  109MOL0     H14668   4.202  11.000  10.069 -0.9374  1.4798 -4.0723
  109MOL0     H14669   4.174  11.231  10.255 -0.2825 -0.5622  0.8909
  109MOL0     H14670   4.272  11.086  10.274  1.0849 -2.5953 -1.9729
  109MOL0     H14671   4.396  11.303  10.168 -0.6641  1.4765 -0.7644
  109MOL0     H14672   4.297  11.286  10.027  0.1703  0.1592 -0.6004
  109MOL0     H14673   4.522  11.179   9.999 -1.4500  0.9413  0.5620
  109MOL0     H14674   4.384  11.063   9.981  1.3839 -1.1735 -0.2756
  109MOL0     H14675   4.736  10.950  10.079 -1.0763 -0.6771  0.1031
  109MOL0     H14676   4.945  10.994  10.158 -0.2093 -1.0370  2.2898
  109MOL0     H14677   5.231  11.404  10.407  2.5079  1.4418  1.3974
  109MOL0     H14678   5.449  11.409  10.478 -1.1585  1.0975 -0.8894
  109MOL0     H14679   5.754  11.119  10.265 -0.9765  0.1542 -1.1396
  109MOL0     H14680   5.743  11.274  10.165 -2.1931  0.7713  0.7168
  109MOL0     H14681   5.892  11.378  10.348 -1.7469  0.1491  0.1609
  109MOL0     H14682   5.937  11.209  10.379 -1.0816  0.9849  2.7185
  109MOL0     H14683   6.005  11.186  10.136 -2.0173 -0.1288  0.7166
  109MOL0     H14684   5.942  11.357  10.118 -3.0995 -1.8551 -0.6758
  109MOL0     H14685   6.168  11.269  10.313  2.8221  1.2578 -1.5810
  109MOL0     H14686   6.126  11.427  10.286 -3.2232 -0.3711  0.3025
  109MOL0     H14687   6.212  11.419  10.064 -1.3757  0.5638  0.5886
  109MOL0     H14688   6.223  11.249  10.062  1.4909  1.2255 -1.6028
  109MOL0     H14689   6.373  11.429  10.253 -1.0815 -0.8966  1.0056
  109MOL0     H14690   6.393  11.249  10.238 -2.1115 -1.0909 -0.9398
  109MOL0     H14691   6.455  11.263  10.018  1.4581  0.6133 -1.1031
  109MOL0     H14692   6.564  11.338  10.136 -0.2104 -1.9814  0.4462
  109MOL0     H14693   6.398  11.484   9.902 -0.4347  1.8061 -0.1657
  109MOL0     H14694   6.453  11.569  10.040 -0.4610  0.3828 -0.3355
  109MOL0     H14695   5.543  11.116  10.160 -0.4636  2.2835 -1.9956
  109MOL0     H14696   5.307  11.093  10.115 -0.2157 -1.6489  0.2681
  109MOL0     H14697   4.771  11.340  10.373  0.6472  0.8465 -1.6414
  109MOL0     H14698   4.566  11.273  10.308  1.8610  3.3998 -1.3591
  109MOL0     H14699   3.063  10.542  10.184 -1.2896 -2.3640 -1.4279
  109MOL0     H14700   2.818  10.456  10.218 -1.4033 -2.0199 -2.2187
  109MOL0     H14701   2.464  10.251   9.988  0.5864  0.6224  0.5411
  109MOL0     H14702   2.224  10.160  10.021 -0.9605 -0.0735 -0.1280
  109MOL0     H14703   1.909  10.477  10.039 -1.1741 -0.9643 -3.1562
  109MOL0     H14704   1.821  10.336  10.095  1.0869  1.0588  1.7349
  109MOL0     H14705   1.869  10.230   9.891  1.7423  0.4855  1.7357
  109MOL0     H14706   1.984  10.356   9.839  0.9239 -0.6077  1.3434
  109MOL0     H14707   1.690  10.368   9.859  1.9580 -1.9999 -1.0388
  109MOL0     H14708   1.776  10.361   9.716  1.4635 -0.1803  0.2845
  109MOL0     H14709   1.824  10.616   9.893 -0.0533  1.3951 -0.7546
  109MOL0     H14710   1.878  10.600   9.730 -2.0497  0.9543 -2.0843
  109MOL0     H14711   1.457  10.631   9.666 -0.3506  0.2303  1.1618
  109MOL0     H14712   2.089  10.566  10.073  0.2616  2.0436 -3.3278
  109MOL0     H14713   2.372  10.728   9.974  3.2042  0.3453  2.5707
  109MOL0     H14714   2.224  10.727  10.077 -0.3270 -1.8876  2.3516
  109MOL0     H14715   2.387  10.703  10.152  2.6424  0.1737 -0.2336
  110MOL0     O14716   7.582  11.272   3.135 -0.3653 -0.1021  0.1577
  110MOL0     C14717   7.576  11.384   3.177  0.3778 -0.0840 -0.7784
  110MOL0     O14718   7.680  11.471   3.167  0.6629 -0.1534  0.3672
  110MOL0     C14719   7.808  11.431   3.135 -0.2659  0.6811  0.5267
  110MOL0     C14720   7.879  11.516   3.054  0.0656 -0.0199  0.0072
  110MOL0     C14721   8.018  11.499   3.050  0.4137  0.1829  0.3422
  110MOL0     C14722   8.083  11.389   3.096  1.0776 -0.8861 -0.3692
  110MOL0     O14723   8.217  11.385   3.102  0.9713  0.6969  0.6893
  110MOL0     C14724   8.282  11.258   3.087 -0.2884 -0.4902 -0.1046
  110MOL0     C14725   8.428  11.278   3.045 -0.1647  0.2246  0.4760
  110MOL0     C14726   8.517  11.152   3.044 -0.9448 -0.9276  0.4752
  110MOL0     C14727   8.631  11.166   2.936  0.5620  0.3229  0.4640
  110MOL0     C14728   8.700  11.035   2.924 -0.5367  0.8534  0.5072
  110MOL0     C14729   8.820  11.050   2.817 -0.0991 -0.2046  0.5964
  110MOL0     C14730   8.834  10.920   2.732  0.5182  0.1729  0.6484
  110MOL0     C14731   8.877  10.808   2.817  0.4735 -0.0994  0.1913
  110MOL0     N14732   8.908  10.689   2.734  0.0260 -0.1948 -0.3294
  110MOL0     C14733   9.035  10.650   2.683 -0.2522 -0.2164 -0.3209
  110MOL0     C14734   9.011  10.534   2.623 -0.8340  0.8586  0.3547
  110MOL0     C14735   9.109  10.444   2.559 -0.8026 -0.3526 -0.1264
  110MOL0     C14736   9.210  10.381   2.655 -1.0754 -0.1124 -0.9115
  110MOL0     C14737   9.336  10.468   2.666 -0.3151  0.3087  0.1626
  110MOL0     C14738   9.454  10.402   2.733 -0.1719 -0.1309  0.3080
  110MOL0     O14739   9.577  10.405   2.656 -0.1715 -0.6150  0.2090
  110MOL0     C14740   9.698  10.408   2.722 -0.0652  0.2864  0.0521
  110MOL0     C14741   9.805  10.426   2.637  0.2985  0.6596  0.1912
  110MOL0     C14742   9.937  10.426   2.689 -0.6277 -0.1744  0.5336
  110MOL0     C14743   9.962  10.404   2.830 -0.3604 -0.3681  0.1071
  110MOL0     C14744  10.103  10.407   2.885  0.3490  0.1539 -1.2736
  110MOL0     O14745  10.207  10.427   2.796  0.1070 -0.3314 -0.6581
  110MOL0     C14746  10.332  10.411   2.859  0.8851 -0.2485  0.2709
  110MOL0     C14747  10.369  10.304   2.946 -0.0890  0.1251  0.1259
  110MOL0     C14748  10.500  10.282   2.989 -0.2098 -0.4186  0.2559
  110MOL0     C14749  10.596  10.386   2.962  0.0319  0.4294  0.2107
  110MOL0     O14750  10.720  10.360   3.007 -0.3135  0.3065  0.2331
  110MOL0     C14751  10.755  10.450   3.120 -0.3028  0.4985  0.3960
  110MOL0     C14752  10.869  10.387   3.198 -0.0317  0.0854 -0.5858
  110MOL0     C14753  10.902  10.466   3.330  0.0734  0.4342 -0.2164
  110MOL0     C14754  11.003  10.389   3.419  0.3523  0.0293  0.0698
  110MOL0     C14755  11.049  10.459   3.550  0.4378  0.1254  0.6231
  110MOL0     C14756  11.122  10.588   3.538  0.4925  0.7848  0.5807
  110MOL0     C14757  11.255  10.579   3.463 -0.0490 -0.4587 -0.6705
  110MOL0     C14758  11.347  10.484   3.534 -0.2303  0.3233 -0.5706
  110MOL0    Cl14759  11.513  10.509   3.469 -0.0702  0.1166 -0.2958
  110MOL0     C14760  10.567  10.493   2.875  0.1629 -0.2843 -0.7525
  110MOL0     C14761  10.435  10.505   2.832  0.0176 -0.0032  0.2740
  110MOL0     O14762  10.115  10.382   3.011  0.0505  0.1460  0.1064
  110MOL0     C14763   9.848  10.387   2.913  0.7865 -0.3503  0.1177
  110MOL0     C14764   9.717  10.390   2.858 -0.2076 -0.1087  0.3659
  110MOL0     N14765   8.882  10.492   2.644 -0.1405  0.3253 -0.2249
  110MOL0     N14766   8.821  10.587   2.704  0.6408  0.3730  0.3847
  110MOL0     C14767   8.008  11.297   3.169  0.5375  0.1269  0.3486
  110MOL0     C14768   7.865  11.314   3.184  0.9415  0.6106 -0.0954
  110MOL0     C14769   7.445  11.437   3.216 -0.2907 -0.1000 -0.7948
  110MOL0     C14770   7.434  11.580   3.211 -0.5487 -0.4334 -0.8704
  110MOL0     C14771   7.316  11.633   3.248 -0.0309 -0.3389 -0.0479
  110MOL0     C14772   7.208  11.559   3.293  0.1134 -0.6016  0.0986
  110MOL0     O14773   7.093  11.626   3.317 -0.4108 -0.0066  0.0300
  110MOL0     C14774   6.964  11.570   3.288 -0.4656 -0.2342 -0.3061
  110MOL0     C14775   6.865  11.688   3.276  0.6078 -0.5365 -1.5151
  110MOL0     C14776   6.723  11.634   3.248  0.1091  0.8718  0.3706
  110MOL0     C14777   6.618  11.747   3.259  0.0471  0.0424 -0.6091
  110MOL0     C14778   6.652  11.850   3.156  0.6644 -0.1447 -0.5773
  110MOL0     C14779   6.686  11.935   3.076 -0.8908 -0.4464  0.7743
  110MOL0     C14780   7.220  11.423   3.301 -0.5863  0.0483  0.5086
  110MOL0     C14781   7.336  11.359   3.262 -0.1419 -0.4942 -0.6643
  110MOL0     C14782   7.332  11.206   3.279 -0.2055 -0.5515  0.6515
  110MOL0     H14783   7.828  11.603   3.014 -0.4862 -0.8825 -1.2096
  110MOL0     H14784   8.068  11.573   2.989 -1.6561  1.5564  0.2219
  110MOL0     H14785   8.276  11.205   3.182 -1.4639  1.2007  0.8119
  110MOL0     H14786   8.231  11.208   3.004 -0.5609  2.8259 -2.1266
  110MOL0     H14787   8.479  11.352   3.107 -1.1933  2.5889 -1.3387
  110MOL0     H14788   8.414  11.324   2.947 -1.7059  1.1769  1.0962
  110MOL0     H14789   8.452  11.073   3.006 -0.9094 -0.0474 -1.5377
  110MOL0     H14790   8.552  11.136   3.147 -0.0441  0.0055  0.3244
  110MOL0     H14791   8.585  11.195   2.841 -1.3783  0.7410  1.4858
  110MOL0     H14792   8.703  11.242   2.969  0.7055 -0.2826  1.5876
  110MOL0     H14793   8.735  10.996   3.020 -0.4921  0.3154  0.2790
  110MOL0     H14794   8.641  10.951   2.888  3.5486 -0.0319 -5.6912
  110MOL0     H14795   8.807  11.132   2.745  0.6860 -2.3996 -2.2357
  110MOL0     H14796   8.916  11.068   2.865  0.4719 -3.4818  0.9190
  110MOL0     H14797   8.912  10.937   2.657  0.3137 -2.1839 -0.1788
  110MOL0     H14798   8.737  10.891   2.690 -0.0323 -0.2567  2.1476
  110MOL0     H14799   8.958  10.850   2.877 -0.7861  1.3231  0.9851
  110MOL0     H14800   8.798  10.782   2.888  0.3138 -1.2475 -0.3915
  110MOL0     H14801   9.125  10.709   2.697 -1.2989  1.0352  1.6909
  110MOL0     H14802   9.053  10.356   2.525  3.5857 -2.9964 -1.3116
  110MOL0     H14803   9.151  10.494   2.472  0.1658  1.1063  1.1218
  110MOL0     H14804   9.171  10.381   2.757 -1.2035 -0.1754 -0.9613
  110MOL0     H14805   9.233  10.280   2.620  2.7863  0.3518 -0.1835
  110MOL0     H14806   9.298  10.547   2.732  0.0797 -0.0537  0.8342
  110MOL0     H14807   9.374  10.504   2.570  2.0321 -3.2259 -0.3976
  110MOL0     H14808   9.449  10.293   2.745  0.8015 -0.0613  1.6039
  110MOL0     H14809   9.468  10.450   2.831  0.0218 -0.9091  0.6688
  110MOL0     H14810   9.790  10.411   2.531 -2.5450 -2.5321  0.8755
  110MOL0     H14811  10.018  10.437   2.618 -1.4928  0.3492 -0.3923
  110MOL0     H14812  10.308  10.222   2.982 -0.8076  0.7420  0.3453
  110MOL0     H14813  10.528  10.195   3.048  0.3713  0.3904  1.2068
  110MOL0     H14814  10.792  10.549   3.092  1.2320  0.2533  1.4618
  110MOL0     H14815  10.658  10.465   3.168 -0.6706 -0.0817 -0.1444
  110MOL0     H14816  10.843  10.285   3.230  0.2316  0.2085  0.0422
  110MOL0     H14817  10.953  10.387   3.127 -1.0670  1.8184 -1.8774
  110MOL0     H14818  10.944  10.564   3.305  0.7287  0.5602  1.2878
  110MOL0     H14819  10.808  10.493   3.379 -0.8470  0.7263 -2.0315
  110MOL0     H14820  11.098  10.380   3.366  1.5844  0.7818  2.0327
  110MOL0     H14821  10.958  10.290   3.432 -0.2429 -0.0435 -2.0980
  110MOL0     H14822  11.103  10.382   3.605 -0.1728 -0.8792 -0.1460
  110MOL0     H14823  10.961  10.488   3.609  0.2070  0.6046  0.0501
  110MOL0     H14824  11.071  10.666   3.482 -0.0513 -0.7680 -1.1887
  110MOL0     H14825  11.140  10.618   3.642  2.5290 -0.4977  0.6610
  110MOL0     H14826  11.307  10.674   3.475  0.1839 -1.0054  5.1164
  110MOL0     H14827  11.238  10.551   3.358  0.0147 -3.2938  0.0035
  110MOL0     H14828  11.355  10.498   3.643 -0.1011 -1.5643 -0.3007
  110MOL0     H14829  11.309  10.382   3.520  2.1403 -0.3451 -2.8882
  110MOL0     H14830  10.644  10.566   2.851  1.3360 -1.0200  0.6618
  110MOL0     H14831  10.413  10.590   2.767  0.5583  0.1649  0.3031
  110MOL0     H14832   9.865  10.361   3.017 -1.4077 -0.1162  0.5865
  110MOL0     H14833   9.633  10.380   2.926  0.0187  0.9888  0.8457
  110MOL0     H14834   8.060  11.210   3.208 -1.6562 -1.0537  0.8283
  110MOL0     H14835   7.808  11.248   3.247  0.7092  1.3596  0.4943
  110MOL0     H14836   7.516  11.633   3.163 -0.8233 -1.2384 -2.2735
  110MOL0     H14837   7.304  11.741   3.250 -0.3000 -0.3637  2.9788
  110MOL0     H14838   6.935  11.512   3.376  0.5228  2.8995  2.2651
  110MOL0     H14839   6.966  11.504   3.201  0.3509  0.4153 -0.7970
  110MOL0     H14840   6.910  11.743   3.193 -1.1996  1.4922 -1.2613
  110MOL0     H14841   6.871  11.737   3.374  0.2475 -2.6526 -0.3714
  110MOL0     H14842   6.709  11.553   3.319  1.3572  0.5277  0.2542
  110MOL0     H14843   6.728  11.593   3.146 -1.9960  1.2972  0.0535
  110MOL0     H14844   6.522  11.700   3.237 -1.0697 -0.4839  4.1817
  110MOL0     H14845   6.598  11.789   3.358  1.2118 -1.1967  0.1880
  110MOL0     H14846   6.705  11.996   2.991  2.2669 -2.0512  0.1612
  110MOL0     H14847   7.139  11.360   3.337 -1.2761 -0.4467 -1.7779
  110MOL0     H14848   7.371  11.185   3.379 -4.0909  3.0795  3.3149
  110MOL0     H14849   7.235  11.157   3.270 -0.2935 -0.5064  1.3563
  110MOL0     H14850   7.383  11.163   3.192  0.7417  1.2976  0.2353
  111MOL0     O14851   5.473   0.671  11.274  0.4803 -0.2940  0.6652
  111MOL0     C14852   5.511   0.731  11.379 -0.0511 -0.3954 -0.3506
  111MOL0     O14853   5.435   0.822  11.452 -0.0477 -0.7173 -0.5402
  111MOL0     C14854   5.297   0.830  11.434 -0.3526 -0.0885  0.1049
  111MOL0     C14855   5.241   0.923  11.348  0.6083 -0.0782 -0.0457
  111MOL0     C14856   5.103   0.918  11.322  0.1964 -0.8610 -0.1434
  111MOL0     C14857   5.021   0.817  11.370 -0.1512  0.5605  0.0105
  111MOL0     O14858   4.888   0.803  11.337 -0.0616 -0.2915 -0.1390
  111MOL0     C14859   4.818   0.935  11.328 -0.0782  0.3271  0.2625
  111MOL0     C14860   4.665   0.917  11.331  0.0183  0.7865  0.8817
  111MOL0     C14861   4.588   0.974  11.207  0.0631  0.0287 -0.6865
  111MOL0     C14862   4.580   0.881  11.086 -0.2699  0.5780  0.0686
  111MOL0     C14863   4.495   0.945  10.973 -0.2658 -0.1963 -0.1329
  111MOL0     C14864   4.343   0.978  10.995  0.0311  0.0814  0.1320
  111MOL0     C14865   4.269   1.013  10.870 -0.1055 -0.4337  0.8781
  111MOL0     C14866   4.327   1.136  10.791  0.1312  0.4286  0.7273
  111MOL0     N14867   4.351   1.258  10.859 -0.1776  1.5576 -0.1495
  111MOL0     C14868   4.471   1.306  10.916  0.1328  0.3892  0.5390
  111MOL0     C14869   4.430   1.417  10.977  0.3688 -0.0744 -0.4159
  111MOL0     C14870   4.527   1.519  11.032 -0.0421  0.5303  0.8804
  111MOL0     C14871   4.667   1.455  11.062 -0.0203  0.0020 -0.0960
  111MOL0     C14872   4.752   1.543  11.157  0.8517  0.3927 -0.2954
  111MOL0     C14873   4.863   1.477  11.235 -0.4856  0.1047  0.4765
  111MOL0     O14874   4.985   1.482  11.156  0.4467 -0.7136  0.6094
  111MOL0     C14875   5.106   1.428  11.204  0.3854  0.5500  0.9272
  111MOL0     C14876   5.116   1.349  11.320  0.4851  0.4349  0.4879
  111MOL0     C14877   5.246   1.298  11.358  0.3846  0.0720  0.4456
  111MOL0     C14878   5.364   1.324  11.287  0.0589 -0.0354  1.3437
  111MOL0     C14879   5.502   1.267  11.317  0.1961  0.3925  0.1560
  111MOL0     O14880   5.618   1.292  11.240  0.5300  0.1787  0.9776
  111MOL0     C14881   5.743   1.280  11.286  0.3492 -0.0740  0.5428
  111MOL0     C14882   5.846   1.249  11.196 -0.2388 -0.7178 -0.5842
  111MOL0     C14883   5.976   1.242  11.253  0.3554 -0.7812  0.5964
  111MOL0     C14884   6.009   1.270  11.383  0.1009  0.3582 -0.4741
  111MOL0     O14885   6.136   1.250  11.434 -0.7999 -0.2706 -0.6748
  111MOL0     C14886   6.207   1.141  11.380  0.3481  0.6428  0.1323
  111MOL0     C14887   6.316   1.072  11.467 -0.2684 -0.1814 -0.0277
  111MOL0     C14888   6.264   1.044  11.606 -0.1113  0.7810 -0.0405
  111MOL0     C14889   6.375   1.005  11.706 -0.2645 -0.3360 -0.3690
  111MOL0     C14890   6.467   0.896  11.660 -0.7140 -0.3812  0.3626
  111MOL0     C14891   6.595   0.879  11.740  0.8510  0.2369  0.5474
  111MOL0     C14892   6.689   0.771  11.667  0.0979 -0.0821 -0.5114
  111MOL0     C14893   6.824   0.752  11.736  0.6402  0.3211 -0.1301
  111MOL0    Cl14894   6.817   0.630  11.874 -0.1925 -0.3315  0.2616
  111MOL0     C14895   5.904   1.317  11.468 -0.5724 -0.1339 -0.7286
  111MOL0     C14896   5.775   1.321  11.415  0.6529 -0.0413  0.0521
  111MOL0     O14897   5.501   1.207  11.426  0.2969 -0.2847 -0.0925
  111MOL0     C14898   5.353   1.416  11.178  0.8362  0.0509 -0.3816
  111MOL0     C14899   5.227   1.455  11.134 -0.0956  0.5706 -0.3049
  111MOL0     N14900   4.287   1.427  10.974 -0.2010  0.3926  0.3217
  111MOL0     N14901   4.241   1.321  10.906 -0.8969 -0.1130  0.3004
  111MOL0     C14902   5.081   0.716  11.451  0.4750 -0.2430  0.3662
  111MOL0     C14903   5.213   0.729  11.490 -0.4431 -0.3085  0.8475
  111MOL0     C14904   5.645   0.703  11.431 -1.2019  0.0967 -0.1621
  111MOL0     C14905   5.690   0.571  11.438 -0.2203 -0.2858  0.1450
  111MOL0     C14906   5.818   0.533  11.495  1.2574  0.0647 -0.2498
  111MOL0     C14907   5.898   0.631  11.545 -0.0008 -0.7569 -0.8097
  111MOL0     O14908   6.016   0.585  11.604  0.7923  0.2925  0.2986
  111MOL0     C14909   6.103   0.670  11.672  0.0024  0.4916  0.5362
  111MOL0     C14910   6.224   0.576  11.707  0.6159  0.1302  0.2443
  111MOL0     C14911   6.299   0.503  11.597 -0.0005  0.4026  0.6967
  111MOL0     C14912   6.257   0.355  11.576 -0.5004 -0.2679  0.3394
  111MOL0     C14913   6.361   0.272  11.512  0.4691 -0.3440  0.5926
  111MOL0     C14914   6.455   0.209  11.473 -0.3085  0.2609 -0.8374
  111MOL0     C14915   5.864   0.763  11.528  0.4075  0.2197 -0.1669
  111MOL0     C14916   5.740   0.804  11.468  0.2471  0.0897 -0.1719
  111MOL0     C14917   5.704   0.952  11.460 -0.5038  0.6252 -0.0188
  111MOL0     H14918   5.305   1.000  11.305 -2.1001  1.1467 -2.2389
  111MOL0     H14919   5.056   0.989  11.255  0.3324 -1.8295 -1.3064
  111MOL0     H14920   4.841   0.985  11.423 -0.9367  1.2222  0.0100
  111MOL0     H14921   4.857   1.000  11.249  1.8758 -1.4643 -0.3484
  111MOL0     H14922   4.631   0.977  11.415  0.0018 -0.6023  1.9064
  111MOL0     H14923   4.634   0.813  11.349 -2.1794  1.3772  0.8386
  111MOL0     H14924   4.642   1.058  11.162  1.4322 -0.0080  0.7781
  111MOL0     H14925   4.490   1.013  11.233 -0.1355  0.2033 -1.6658
  111MOL0     H14926   4.684   0.866  11.056  0.2808  3.4389  0.2164
  111MOL0     H14927   4.544   0.781  11.113 -0.6127  0.8834  0.7706
  111MOL0     H14928   4.542   1.038  10.941 -0.6496 -0.6015 -1.9528
  111MOL0     H14929   4.510   0.874  10.891  1.6590  0.7757 -0.6604
  111MOL0     H14930   4.288   0.893  11.035 -0.2777  0.3704  0.3201
  111MOL0     H14931   4.328   1.051  11.075 -2.0279  0.9449 -0.9766
  111MOL0     H14932   4.165   1.030  10.897 -0.9783 -0.5857 -2.0441
  111MOL0     H14933   4.272   0.934  10.795  0.3801  1.3876 -1.1209
  111MOL0     H14934   4.427   1.107  10.757 -0.2814 -0.5183  0.3060
  111MOL0     H14935   4.264   1.158  10.705  2.3094 -0.4518 -1.1762
  111MOL0     H14936   4.575   1.277  10.917  0.1664  0.5227  1.6491
  111MOL0     H14937   4.545   1.594  10.955 -2.0904 -2.5150 -2.9307
  111MOL0     H14938   4.490   1.572  11.120 -1.4571 -0.3185  0.8313
  111MOL0     H14939   4.643   1.366  11.120  0.7601  0.2462  0.6140
  111MOL0     H14940   4.723   1.434  10.971 -0.0115 -0.4592  0.0156
  111MOL0     H14941   4.681   1.578  11.234  0.3830 -1.4281  0.1479
  111MOL0     H14942   4.791   1.631  11.105 -0.3602  1.4191  0.4626
  111MOL0     H14943   4.838   1.374  11.263  1.1998  0.1234  2.3403
  111MOL0     H14944   4.885   1.527  11.330  1.6787 -1.4076  0.8590
  111MOL0     H14945   5.022   1.339  11.375  0.4412 -0.8732  0.2036
  111MOL0     H14946   5.259   1.231  11.443 -1.0151  0.5690  1.0773
  111MOL0     H14947   5.830   1.217  11.093  0.3110 -1.6724 -0.3892
  111MOL0     H14948   6.054   1.220  11.180  1.8868 -0.0232  1.9501
  111MOL0     H14949   6.138   1.061  11.351 -0.1244  0.2379  2.1565
  111MOL0     H14950   6.264   1.177  11.295  1.3298 -2.8903 -0.8905
  111MOL0     H14951   6.361   0.984  11.422  1.6841  1.2518 -1.0268
  111MOL0     H14952   6.400   1.141  11.476 -0.5451  0.1909 -0.2306
  111MOL0     H14953   6.205   1.131  11.636  1.1489  2.0866 -1.1740
  111MOL0     H14954   6.198   0.957  11.603  0.2008  0.2681  3.6259
  111MOL0     H14955   6.337   0.981  11.806  0.4405 -0.0388 -0.0263
  111MOL0     H14956   6.448   1.082  11.729  0.9666 -1.5616 -0.0013
  111MOL0     H14957   6.492   0.913  11.555  1.5100  2.8317  1.2681
  111MOL0     H14958   6.411   0.802  11.657 -1.6417  0.1854 -0.9865
  111MOL0     H14959   6.647   0.976  11.746  4.0928 -1.3629  0.7862
  111MOL0     H14960   6.563   0.847  11.839 -3.4814 -0.9389 -1.0424
  111MOL0     H14961   6.700   0.802  11.563  0.0792 -0.1142 -0.5229
  111MOL0     H14962   6.643   0.672  11.660 -0.3531  0.0048  0.8741
  111MOL0     H14963   6.898   0.719  11.663 -2.3658 -1.9342 -2.4430
  111MOL0     H14964   6.860   0.847  11.776 -0.3230  0.0354  1.5107
  111MOL0     H14965   5.936   1.351  11.566  1.9112 -0.0022 -1.5247
  111MOL0     H14966   5.698   1.372  11.472  1.7958  0.6463  1.0238
  111MOL0     H14967   5.441   1.456  11.128 -0.4970  1.8719 -1.3849
  111MOL0     H14968   5.216   1.519  11.047 -1.7711  0.7078 -0.0299
  111MOL0     H14969   5.031   0.625  11.480  1.3008 -0.7884  0.1151
  111MOL0     H14970   5.265   0.660  11.556 -1.4708 -0.0281  1.9747
  111MOL0     H14971   5.622   0.496  11.399 -0.9809 -0.1377  1.1651
  111MOL0     H14972   5.825   0.428  11.517  1.9339  0.2013  0.1976
  111MOL0     H14973   6.046   0.713  11.755 -0.8092  0.2922  0.0904
  111MOL0     H14974   6.150   0.750  11.615 -1.4031  1.1984  0.3319
  111MOL0     H14975   6.187   0.498  11.774  2.2043 -1.6766 -0.8727
  111MOL0     H14976   6.302   0.636  11.754  2.1373  0.4596 -2.4852
  111MOL0     H14977   6.406   0.509  11.622  0.6769  2.3752 -2.1833
  111MOL0     H14978   6.279   0.559  11.506 -1.1381  1.7240  1.7164
  111MOL0     H14979   6.246   0.309  11.674  0.7524 -1.2713  0.0326
  111MOL0     H14980   6.161   0.351  11.525  0.4821 -0.0299 -1.6363
  111MOL0     H14981   6.544   0.152  11.457  0.4078  1.3173 -0.7551
  111MOL0     H14982   5.929   0.842  11.564  1.2362 -0.3733 -0.3397
  111MOL0     H14983   5.675   0.980  11.358  0.9477 -1.5221 -1.0888
  111MOL0     H14984   5.623   0.984  11.526  1.8400  2.2468  2.2361
  111MOL0     H14985   5.787   1.016  11.491  0.9786 -1.1368 -0.2345
  112MOL0     O14986   3.467   8.240   1.311  0.5696 -0.2382 -0.1746
  112MOL0     C14987   3.390   8.334   1.319  0.8653 -0.0358  0.0018
  112MOL0     O14988   3.401   8.454   1.251  0.5294  0.7792 -0.3186
  112MOL0     C14989   3.533   8.477   1.211  0.7386 -0.4470  0.2528
  112MOL0     C14990   3.567   8.457   1.079  0.5004  0.2826  0.6903
  112MOL0     C14991   3.700   8.469   1.035 -0.2278  0.0781 -0.4006
  112MOL0     C14992   3.790   8.517   1.132  0.5015 -0.4260  0.5561
  112MOL0     O14993   3.906   8.556   1.071 -0.3635  0.4635 -0.3906
  112MOL0     C14994   4.015   8.581   1.158  0.4079  0.3878 -0.2378
  112MOL0     C14995   4.136   8.612   1.077 -0.9803  0.3446 -0.3088
  112MOL0     C14996   4.259   8.601   1.172  0.6816 -0.5564  0.8688
  112MOL0     C14997   4.395   8.627   1.096  0.1594 -0.0207 -0.0733
  112MOL0     C14998   4.507   8.613   1.195 -0.7081 -0.2203  0.5426
  112MOL0     C14999   4.634   8.639   1.120  0.7007 -0.0965 -0.0522
  112MOL0     C15000   4.750   8.642   1.214 -0.3846 -0.6281  0.8991
  112MOL0     C15001   4.774   8.772   1.298  0.0559 -0.0524 -1.2698
  112MOL0     N15002   4.883   8.747   1.389 -0.1870 -0.1065 -0.5813
  112MOL0     C15003   4.862   8.678   1.500 -1.2573  0.5513 -0.1354
  112MOL0     C15004   4.990   8.694   1.563 -0.1007  0.5582 -0.2581
  112MOL0     C15005   5.013   8.624   1.691  0.7101  0.4441  0.4078
  112MOL0     C15006   5.082   8.716   1.798 -0.9035 -0.7214 -0.5970
  112MOL0     C15007   5.069   8.670   1.944 -0.3585  0.8453 -0.7371
  112MOL0     C15008   4.929   8.687   1.999  1.0163 -0.4653  0.0332
  112MOL0     O15009   4.898   8.827   2.012 -0.3862 -0.2303 -0.4445
  112MOL0     C15010   4.764   8.854   2.031  0.4057 -0.8178  0.0620
  112MOL0     C15011   4.663   8.774   2.088  0.7617 -0.0465 -0.0762
  112MOL0     C15012   4.526   8.812   2.088  0.9685 -0.0788 -0.3257
  112MOL0     C15013   4.489   8.938   2.045  0.2190  0.0376 -0.5530
  112MOL0     C15014   4.350   8.990   2.054 -0.9193  0.7672  0.3835
  112MOL0     O15015   4.258   8.895   2.092  0.6399 -0.7012  0.2796
  112MOL0     C15016   4.128   8.910   2.076 -0.3842 -0.9288  0.1246
  112MOL0     C15017   4.075   8.956   1.958 -0.8937  0.1409  0.4643
  112MOL0     C15018   3.936   8.972   1.956 -0.5370 -0.1290  0.4934
  112MOL0     C15019   3.852   8.964   2.071  0.4451  0.5198  0.6364
  112MOL0     O15020   3.720   8.996   2.090  0.0009  0.7230  0.6498
  112MOL0     C15021   3.641   9.008   1.973 -0.8644  0.4163 -0.6416
  112MOL0     C15022   3.503   8.980   2.024 -0.2075  1.2241  0.3675
  112MOL0     C15023   3.378   9.018   1.932 -0.1162  0.3409 -0.5798
  112MOL0     C15024   3.248   8.956   1.984  0.5494 -0.0982  0.4323
  112MOL0     C15025   3.138   8.948   1.876 -0.8979 -0.4848  0.2073
  112MOL0     C15026   2.996   8.914   1.936  0.7654 -0.1824  0.5031
  112MOL0     C15027   2.892   8.937   1.832  0.5115 -0.8854  0.3798
  112MOL0     C15028   2.753   8.887   1.880  0.2775 -0.4052  0.0766
  112MOL0    Cl15029   2.632   8.961   1.767 -0.0455 -0.4252 -0.0762
  112MOL0     C15030   3.917   8.918   2.188  0.0853  0.4656 -0.6206
  112MOL0     C15031   4.054   8.891   2.190 -0.1648 -0.0464 -0.5315
  112MOL0     O15032   4.328   9.108   2.012 -0.1549  0.3599  0.5529
  112MOL0     C15033   4.591   9.020   2.000 -0.1865  0.0028  0.0391
  112MOL0     C15034   4.729   8.985   1.990 -0.2781 -0.2629  0.5827
  112MOL0     N15035   5.082   8.762   1.482 -0.3543  0.2239  0.1213
  112MOL0     N15036   5.017   8.792   1.373  0.1899  0.6760  0.2292
  112MOL0     C15037   3.757   8.549   1.271 -0.4555  0.5796  0.1473
  112MOL0     C15038   3.628   8.523   1.313 -0.2609  0.8561 -0.5722
  112MOL0     C15039   3.274   8.314   1.405  0.5191 -0.1310 -0.4973
  112MOL0     C15040   3.280   8.217   1.505 -0.0636 -0.0208 -0.9434
  112MOL0     C15041   3.166   8.188   1.580  1.0238 -0.0662  0.4941
  112MOL0     C15042   3.040   8.260   1.570 -0.6140  0.1042  0.3815
  112MOL0     O15043   2.929   8.230   1.631  0.2214  0.0427 -0.6158
  112MOL0     C15044   2.927   8.130   1.737  0.5284 -0.2665 -1.1240
  112MOL0     C15045   2.995   8.186   1.870 -1.3877  0.1803  0.3703
  112MOL0     C15046   2.968   8.096   1.990  0.4793  0.0136  0.4492
  112MOL0     C15047   3.011   8.160   2.127  0.7059  0.1350 -0.9018
  112MOL0     C15048   3.162   8.186   2.140  0.1634  0.7784  0.2938
  112MOL0     C15049   3.283   8.199   2.146 -0.0305 -0.0867  0.1489
  112MOL0     C15050   3.044   8.357   1.470 -0.3694  0.3310  0.7544
  112MOL0     C15051   3.153   8.395   1.391 -0.8736 -0.3134  0.0931
  112MOL0     C15052   3.128   8.512   1.291 -0.6149  0.3576 -0.1706
  112MOL0     H15053   3.496   8.424   1.004  2.5584 -0.9503 -0.8352
  112MOL0     H15054   3.728   8.458   0.931 -0.0791  1.1793 -0.4843
  112MOL0     H15055   3.999   8.668   1.222 -0.0012 -0.7916  1.3549
  112MOL0     H15056   4.023   8.493   1.224  1.9197  0.5312 -0.1890
  112MOL0     H15057   4.120   8.706   1.024 -2.1408 -0.2477 -1.0474
  112MOL0     H15058   4.143   8.535   1.000 -1.3237 -0.8066  0.7807
  112MOL0     H15059   4.248   8.501   1.215  0.4708 -1.0310 -0.2638
  112MOL0     H15060   4.241   8.672   1.253  0.8819 -2.7877  2.9882
  112MOL0     H15061   4.397   8.546   1.022 -0.4574  0.0232 -0.1416
  112MOL0     H15062   4.391   8.721   1.039  4.7257  0.0567 -0.6897
  112MOL0     H15063   4.509   8.691   1.271 -0.4353 -0.6538  0.9811
  112MOL0     H15064   4.514   8.516   1.244  0.3932 -0.4749 -0.0722
  112MOL0     H15065   4.655   8.570   1.038  1.8251 -0.3548  0.4396
  112MOL0     H15066   4.629   8.739   1.074  2.4589 -0.1142 -0.3530
  112MOL0     H15067   4.836   8.628   1.149 -0.9235  2.0266 -0.5308
  112MOL0     H15068   4.754   8.556   1.281 -1.6473 -1.5039 -0.0839
  112MOL0     H15069   4.800   8.861   1.240  3.2944 -0.9420 -1.3951
  112MOL0     H15070   4.684   8.789   1.357  1.2248 -0.3079  0.6868
  112MOL0     H15071   4.774   8.627   1.538  0.0938 -3.1412 -1.4728
  112MOL0     H15072   4.912   8.598   1.724  0.2484  1.7476  0.0791
  112MOL0     H15073   5.074   8.533   1.683 -0.2580 -0.2644  0.8899
  112MOL0     H15074   5.190   8.720   1.780 -0.8464  0.0233 -0.0923
  112MOL0     H15075   5.042   8.817   1.798 -0.8760 -0.7062  0.4466
  112MOL0     H15076   5.141   8.716   2.013  3.6108 -1.7704 -2.7311
  112MOL0     H15077   5.080   8.563   1.925 -2.2757  0.6973 -1.2203
  112MOL0     H15078   4.914   8.638   2.096 -2.7013 -0.6535 -0.4778
  112MOL0     H15079   4.858   8.646   1.927 -0.2636 -0.8397  1.4480
  112MOL0     H15080   4.691   8.674   2.117 -2.4193 -1.2966 -0.8710
  112MOL0     H15081   4.450   8.756   2.142  0.7877  0.7426  0.2919
  112MOL0     H15082   4.136   8.989   1.875  0.6891  2.1377  2.3240
  112MOL0     H15083   3.889   9.006   1.864 -0.4584  1.5888  1.0522
  112MOL0     H15084   3.624   9.108   1.932  1.0817  1.1104  0.1361
  112MOL0     H15085   3.669   8.947   1.886 -0.1280  0.9154 -0.7654
  112MOL0     H15086   3.500   8.873   2.045 -1.9742  0.6243 -2.3039
  112MOL0     H15087   3.488   9.028   2.121  0.3827  0.6425  0.7587
  112MOL0     H15088   3.386   9.127   1.922 -0.0601  0.4513  0.5367
  112MOL0     H15089   3.398   8.972   1.835  0.8561 -2.3846  0.8219
  112MOL0     H15090   3.218   9.017   2.069  0.9897 -1.5306  1.6516
  112MOL0     H15091   3.270   8.858   2.027  0.8819 -1.5747 -2.8030
  112MOL0     H15092   3.160   8.887   1.788 -1.8125  1.3845 -1.4013
  112MOL0     H15093   3.139   9.053   1.845  0.4385 -0.9325 -1.4355
  112MOL0     H15094   3.003   8.810   1.968 -2.7253  0.2102  3.1757
  112MOL0     H15095   2.975   8.971   2.027  1.7589  1.2276 -0.0977
  112MOL0     H15096   2.929   8.891   1.740 -2.5793 -0.2264 -1.3514
  112MOL0     H15097   2.897   9.040   1.797  1.4882 -0.8442  0.6212
  112MOL0     H15098   2.732   8.783   1.903 -1.1933  0.3194  2.3597
  112MOL0     H15099   2.733   8.932   1.978 -1.5380 -0.3131 -0.2988
  112MOL0     H15100   3.848   8.897   2.269  1.7823 -2.4457  0.2007
  112MOL0     H15101   4.107   8.862   2.279  0.9588  2.4827 -0.2940
  112MOL0     H15102   4.566   9.120   1.965  0.3752 -0.1760 -0.9126
  112MOL0     H15103   4.783   9.058   1.932  0.2850 -1.0048  0.1524
  112MOL0     H15104   3.826   8.589   1.345  1.4073  0.4265 -1.4354
  112MOL0     H15105   3.603   8.536   1.418  0.0483  0.0658 -0.3874
  112MOL0     H15106   3.369   8.158   1.525  1.0166  2.0672  0.8633
  112MOL0     H15107   3.172   8.103   1.646  1.8093 -0.4674 -0.0713
  112MOL0     H15108   2.969   8.033   1.708 -0.5362 -0.4078 -2.2896
  112MOL0     H15109   2.821   8.113   1.756  0.1294 -0.2299 -3.0845
  112MOL0     H15110   2.950   8.284   1.890  2.5558  2.2659 -0.0719
  112MOL0     H15111   3.101   8.202   1.850 -1.3320  0.9859  1.2167
  112MOL0     H15112   3.013   7.997   1.983 -1.4023 -0.8627  0.1761
  112MOL0     H15113   2.859   8.088   1.995  0.2758  0.0863 -2.3283
  112MOL0     H15114   2.961   8.254   2.151 -0.0643 -0.2735 -0.8767
  112MOL0     H15115   2.983   8.087   2.203 -2.7486  0.0804 -2.0319
  112MOL0     H15116   3.387   8.225   2.152  0.6286 -2.7291  2.3495
  112MOL0     H15117   2.946   8.402   1.456 -0.7975 -1.4335 -3.0177
  112MOL0     H15118   3.168   8.476   1.196  1.9959 -1.8683  1.5796
  112MOL0     H15119   3.024   8.528   1.264 -1.1756 -2.1490  0.2457
  112MOL0     H15120   3.179   8.603   1.324  1.3687  0.4512 -3.1478
  113MOL0     O15121   5.824   9.525   8.122 -0.0043 -0.0068 -0.0210
  113MOL0     C15122   5.771   9.627   8.160  0.1285 -0.0843  0.6985
  113MOL0     O15123   5.834   9.745   8.172  0.4232  0.6333  0.1023
  113MOL0     C15124   5.973   9.740   8.161 -0.7992 -0.0989 -0.1721
  113MOL0     C15125   6.055   9.714   8.274  0.7760  1.4060 -0.3085
  113MOL0     C15126   6.193   9.727   8.268  0.1044  0.3641  1.1611
  113MOL0     C15127   6.245   9.780   8.153 -0.2838  0.8541 -0.7772
  113MOL0     O15128   6.383   9.774   8.159 -0.6438  0.8126  0.2443
  113MOL0     C15129   6.452   9.821   8.045  0.1715 -0.3474 -1.1779
  113MOL0     C15130   6.594   9.765   8.048  0.2618  0.1009  0.0691
  113MOL0     C15131   6.695   9.833   8.152  0.1728  0.1555  0.3536
  113MOL0     C15132   6.691   9.988   8.135 -0.4119  0.7817  0.1580
  113MOL0     C15133   6.827  10.055   8.173 -0.0983 -0.1445 -0.7612
  113MOL0     C15134   6.935  10.020   8.072  0.5545 -0.1534  0.5393
  113MOL0     C15135   7.059  10.100   8.071 -0.0331  0.8004  0.5364
  113MOL0     C15136   7.148  10.077   8.200 -0.3820 -0.1870 -0.3787
  113MOL0     N15137   7.272  10.157   8.184  0.0863 -0.0986 -0.5053
  113MOL0     C15138   7.352  10.141   8.071 -0.2415 -0.1677  0.1113
  113MOL0     C15139   7.445  10.231   8.086  0.0108  0.7706  0.1101
  113MOL0     C15140   7.564  10.261   8.001 -0.4490 -0.3996 -1.3427
  113MOL0     C15141   7.545  10.392   7.925  0.1785 -0.0554  0.3858
  113MOL0     C15142   7.662  10.428   7.821 -0.6942  0.6826 -0.5493
  113MOL0     C15143   7.665  10.342   7.694  0.1072 -0.6293  0.5834
  113MOL0     O15144   7.758  10.391   7.596 -0.5485 -0.3873  0.1983
  113MOL0     C15145   7.748  10.341   7.469  0.2756 -0.3535 -0.6017
  113MOL0     C15146   7.753  10.203   7.438  1.0269  0.1429  0.6477
  113MOL0     C15147   7.717  10.147   7.309 -0.1432 -0.1614 -0.3115
  113MOL0     C15148   7.681  10.234   7.208  0.2726 -0.3762 -0.5528
  113MOL0     C15149   7.625  10.178   7.079  0.0600 -0.7985 -0.4268
  113MOL0     O15150   7.568  10.263   6.994  0.0784 -0.2485 -0.1904
  113MOL0     C15151   7.490  10.222   6.891  0.4408  0.4468 -0.8739
  113MOL0     C15152   7.352  10.214   6.927 -0.6163 -1.1245  0.1733
  113MOL0     C15153   7.260  10.162   6.839  0.2489 -0.0170  0.0748
  113MOL0     C15154   7.296  10.118   6.709 -0.0304  0.2941  0.5590
  113MOL0     O15155   7.210  10.055   6.629  0.2243 -0.3725 -0.3670
  113MOL0     C15156   7.228  10.052   6.490 -0.1023 -1.0220  0.0178
  113MOL0     C15157   7.171   9.931   6.426  0.4824  0.1570 -0.1105
  113MOL0     C15158   7.019   9.920   6.456 -0.2044  0.6665  0.1935
  113MOL0     C15159   6.948   9.799   6.397  1.3083  0.4243  0.0275
  113MOL0     C15160   6.801   9.820   6.401  1.2536 -0.7288 -0.2215
  113MOL0     C15161   6.706   9.719   6.337 -1.1064 -0.0626 -0.6191
  113MOL0     C15162   6.716   9.578   6.392  0.0354  0.2417 -0.4937
  113MOL0     C15163   6.605   9.493   6.339  0.7549  0.2077  0.5223
  113MOL0    Cl15164   6.451   9.527   6.433  0.1420  0.1688  0.2679
  113MOL0     C15165   7.433  10.130   6.674  0.8046  0.6269  0.1570
  113MOL0     C15166   7.526  10.184   6.765  0.0075  0.3536 -0.5249
  113MOL0     O15167   7.629  10.059   7.067  0.7691  0.2035 -0.3560
  113MOL0     C15168   7.694  10.371   7.231  0.2464 -0.1400  0.1440
  113MOL0     C15169   7.721  10.419   7.361 -0.6038 -0.5424  0.1214
  113MOL0     N15170   7.423  10.296   8.208  0.7244  0.9857  0.2072
  113MOL0     N15171   7.313  10.258   8.256  0.7873  0.1012 -0.0224
  113MOL0     C15172   6.164   9.827   8.052 -0.3934  0.4944 -0.1565
  113MOL0     C15173   6.021   9.807   8.057  0.0511 -0.2240 -0.6183
  113MOL0     C15174   5.619   9.632   8.163 -0.5357 -0.0750 -0.0979
  113MOL0     C15175   5.560   9.754   8.154  0.0801  0.5156 -0.4529
  113MOL0     C15176   5.421   9.772   8.186  0.0584 -0.1381 -0.3826
  113MOL0     C15177   5.345   9.664   8.219  0.5700 -0.2341 -0.4259
  113MOL0     O15178   5.212   9.670   8.248  0.4991 -0.6308 -0.0001
  113MOL0     C15179   5.146   9.794   8.265 -0.6155  0.1135  0.1244
  113MOL0     C15180   5.009   9.753   8.324 -0.7248 -0.0359 -0.2342
  113MOL0     C15181   5.022   9.706   8.470 -0.3664 -0.5229 -0.5424
  113MOL0     C15182   4.930   9.586   8.494 -0.2543 -0.2685  0.0167
  113MOL0     C15183   4.791   9.609   8.474 -0.3028 -0.1707  0.5968
  113MOL0     C15184   4.671   9.615   8.448 -1.2132 -0.2148  0.0354
  113MOL0     C15185   5.400   9.537   8.216  0.5336  0.9585 -0.3564
  113MOL0     C15186   5.537   9.517   8.198  0.6060  0.0886 -0.0796
  113MOL0     C15187   5.582   9.381   8.213 -1.2820 -0.2320  0.2392
  113MOL0     H15188   6.013   9.664   8.360  2.5340 -2.1050 -1.2906
  113MOL0     H15189   6.263   9.697   8.345 -0.8453 -2.3397  1.1050
  113MOL0     H15190   6.399   9.792   7.953 -1.7549  1.0058 -0.5537
  113MOL0     H15191   6.452   9.930   8.052 -3.6454 -0.2925 -0.0518
  113MOL0     H15192   6.635   9.798   7.952 -0.2445  0.3656 -0.0633
  113MOL0     H15193   6.598   9.656   8.058 -1.1517 -0.1693 -1.7434
  113MOL0     H15194   6.792   9.794   8.119  0.6724  1.4347  0.2195
  113MOL0     H15195   6.675   9.798   8.254 -1.2833 -1.5110 -0.4610
  113MOL0     H15196   6.682  10.013   8.029  0.4492 -0.7770 -0.3136
  113MOL0     H15197   6.607  10.040   8.179  1.6631  3.6917  0.9636
  113MOL0     H15198   6.809  10.162   8.187 -3.5836 -0.7143  0.2846
  113MOL0     H15199   6.858  10.021   8.273 -0.6179  1.2285 -0.1005
  113MOL0     H15200   6.960   9.914   8.067  0.2129 -0.1981 -0.2276
  113MOL0     H15201   6.889  10.047   7.977  1.5793  1.2351  0.3965
  113MOL0     H15202   7.045  10.207   8.058  0.1203  1.1031  2.5487
  113MOL0     H15203   7.117  10.058   7.988  0.5198 -1.7680  2.0944
  113MOL0     H15204   7.093  10.114   8.287 -2.2539 -2.7741 -0.3283
  113MOL0     H15205   7.178   9.973   8.216  1.7836  0.1455 -1.8461
  113MOL0     H15206   7.348  10.066   7.993 -0.5371 -2.0992  1.9071
  113MOL0     H15207   7.644  10.269   8.075 -3.1247  0.5146  1.6961
  113MOL0     H15208   7.590  10.173   7.941  0.6849 -1.2017  0.2469
  113MOL0     H15209   7.451  10.398   7.869  0.0368 -0.4901  0.5729
  113MOL0     H15210   7.547  10.465   8.006  0.6243 -0.4448  0.7322
  113MOL0     H15211   7.755  10.402   7.872 -0.8231 -1.7912 -1.4509
  113MOL0     H15212   7.663  10.534   7.796  1.1979  0.5074 -1.3715
  113MOL0     H15213   7.565  10.366   7.657  0.5261  1.4237  0.6451
  113MOL0     H15214   7.672  10.237   7.725  0.9709 -0.3563  1.3668
  113MOL0     H15215   7.782  10.141   7.522 -0.1122 -1.7469 -0.2844
  113MOL0     H15216   7.727  10.040   7.293 -0.1861  0.0520 -1.9376
  113MOL0     H15217   7.321  10.264   7.018 -0.8558 -1.9555  0.5535
  113MOL0     H15218   7.156  10.157   6.870  0.3990  1.6309  0.9562
  113MOL0     H15219   7.187  10.145   6.451  4.4450  2.2246  2.0741
  113MOL0     H15220   7.331  10.056   6.454 -0.5439  0.0575 -1.1728
  113MOL0     H15221   7.179   9.935   6.317 -2.6259  2.1098 -0.3683
  113MOL0     H15222   7.217   9.843   6.472 -1.6267 -0.3893  1.0343
  113MOL0     H15223   7.006   9.919   6.565 -0.9817 -0.1239  0.1011
  113MOL0     H15224   6.964  10.006   6.416 -1.5565 -0.7219 -1.0699
  113MOL0     H15225   6.982   9.718   6.462  0.5335 -0.9862 -1.2388
  113MOL0     H15226   6.975   9.772   6.294  1.3809  1.7004 -0.3046
  113MOL0     H15227   6.777   9.915   6.351 -2.4859 -0.9494  0.8383
  113MOL0     H15228   6.777   9.842   6.506  1.4267 -0.4104 -0.2466
  113MOL0     H15229   6.613   9.775   6.347  0.4001  3.0523 -2.4916
  113MOL0     H15230   6.719   9.710   6.229  1.0901 -1.0881 -0.3295
  113MOL0     H15231   6.706   9.584   6.501  1.9884 -2.1257 -0.0820
  113MOL0     H15232   6.810   9.527   6.370 -0.3730 -0.3019 -1.0328
  113MOL0     H15233   6.604   9.507   6.231  1.4022 -0.3343  0.4448
  113MOL0     H15234   6.628   9.387   6.343  2.0632  0.1944 -3.4241
  113MOL0     H15235   7.477  10.111   6.577 -1.2578  1.0412 -0.9090
  113MOL0     H15236   7.628  10.182   6.730  0.3560  0.2148  0.4762
  113MOL0     H15237   7.663  10.441   7.154 -0.2900  1.9821  2.1695
  113MOL0     H15238   7.720  10.527   7.375 -1.9157 -0.3361 -1.3675
  113MOL0     H15239   6.200   9.885   7.968  2.1738 -1.0648 -0.1947
  113MOL0     H15240   5.966   9.861   7.980 -0.3655  0.5291  0.1883
  113MOL0     H15241   5.622   9.838   8.125 -0.2741 -0.1074 -3.3798
  113MOL0     H15242   5.371   9.868   8.191 -1.9579 -1.1666  0.0325
  113MOL0     H15243   5.129   9.844   8.169 -0.1442 -1.2009 -0.6724
  113MOL0     H15244   5.205   9.866   8.322  0.6618  1.1558 -2.3289
  113MOL0     H15245   4.961   9.682   8.256  1.9584 -3.2642  0.9862
  113MOL0     H15246   4.944   9.841   8.333 -0.6436 -0.1017  1.1827
  113MOL0     H15247   4.995   9.784   8.542 -1.5090 -2.0063  0.7129
  113MOL0     H15248   5.127   9.680   8.488  0.0894  0.2622 -1.9259
  113MOL0     H15249   4.962   9.498   8.436 -1.4872 -2.3088  2.2319
  113MOL0     H15250   4.951   9.567   8.600  2.3109  1.1276 -0.1663
  113MOL0     H15251   4.570   9.619   8.412  0.4259 -1.7491 -5.7216
  113MOL0     H15252   5.323   9.461   8.228 -1.0033  2.5160 -0.0166
  113MOL0     H15253   5.502   9.311   8.238 -0.6005 -1.5794 -1.1468
  113MOL0     H15254   5.631   9.358   8.118 -2.1138 -0.7361 -0.0797
  113MOL0     H15255   5.652   9.363   8.295 -0.0617  3.4750  0.2067
  114MOL0     O15256   4.366   6.414   4.046  0.3525  0.1268 -0.2896
  114MOL0     C15257   4.314   6.427   3.939 -0.0250 -0.4336 -0.2438
  114MOL0     O15258   4.373   6.464   3.818 -0.3903 -0.7181  0.1423
  114MOL0     C15259   4.506   6.490   3.820  0.0021  0.0919  0.9759
  114MOL0     C15260   4.578   6.435   3.714  0.1761  0.0067  0.6270
  114MOL0     C15261   4.717   6.450   3.705 -0.3746  0.6685  0.3451
  114MOL0     C15262   4.776   6.555   3.780  0.1890 -0.4752 -0.1214
  114MOL0     O15263   4.903   6.585   3.769 -0.1584  0.9682  0.4659
  114MOL0     C15264   4.931   6.720   3.741 -0.7649 -0.2566  1.1745
  114MOL0     C15265   5.014   6.748   3.608 -0.8265  0.7341  0.4516
  114MOL0     C15266   5.048   6.902   3.613 -0.2033  0.0365  0.9851
  114MOL0     C15267   5.156   6.942   3.719  0.5139  0.4380 -0.6216
  114MOL0     C15268   5.198   7.082   3.703  0.5272 -0.3328  0.9620
  114MOL0     C15269   5.305   7.124   3.807  0.3748 -0.3913 -0.0002
  114MOL0     C15270   5.440   7.088   3.762 -0.4574  0.5772  0.1277
  114MOL0     C15271   5.552   7.127   3.860 -0.4767  0.4502 -0.0711
  114MOL0     N15272   5.546   7.266   3.877  0.5562 -0.8268 -0.0062
  114MOL0     C15273   5.531   7.325   3.999 -0.4214 -0.1326  0.0257
  114MOL0     C15274   5.529   7.459   3.980  0.1217  0.0769 -0.6050
  114MOL0     C15275   5.528   7.576   4.078  0.6643  0.2771 -0.4763
  114MOL0     C15276   5.521   7.538   4.231 -0.2039  0.0155  0.2825
  114MOL0     C15277   5.597   7.635   4.320 -0.0163 -0.2255  0.2113
  114MOL0     C15278   5.588   7.614   4.468 -0.0897  0.8856 -0.4205
  114MOL0     O15279   5.667   7.498   4.511 -0.3432 -0.7177 -0.1116
  114MOL0     C15280   5.807   7.512   4.520 -0.5972 -0.0113 -0.5608
  114MOL0     C15281   5.879   7.636   4.535  0.0829 -0.1335  0.6089
  114MOL0     C15282   6.019   7.645   4.513 -0.4704 -0.0131  0.1442
  114MOL0     C15283   6.090   7.528   4.490 -0.9097 -1.1787  0.2283
  114MOL0     C15284   6.233   7.528   4.469  0.6585 -0.0678  0.1756
  114MOL0     O15285   6.285   7.405   4.462  0.3016  0.6541  0.0471
  114MOL0     C15286   6.378   7.378   4.371 -0.5616  0.0041  0.0772
  114MOL0     C15287   6.472   7.285   4.410 -0.2753  1.1731 -0.5028
  114MOL0     C15288   6.577   7.257   4.322  0.2864 -0.3970 -0.0337
  114MOL0     C15289   6.602   7.323   4.199 -0.9195 -0.3547 -0.3974
  114MOL0     O15290   6.704   7.274   4.114 -0.6513  0.2679 -0.5080
  114MOL0     C15291   6.819   7.353   4.092  0.5450  0.6718  0.4497
  114MOL0     C15292   6.924   7.246   4.062  0.6963  0.1894  0.1820
  114MOL0     C15293   7.053   7.314   4.053 -0.8171 -0.6864 -0.0798
  114MOL0     C15294   7.176   7.224   4.018 -0.3292  0.3063 -0.3029
  114MOL0     C15295   7.276   7.307   3.929  0.1700 -0.1875  0.2331
  114MOL0     C15296   7.396   7.223   3.879 -0.0426 -0.3639  0.1151
  114MOL0     C15297   7.514   7.295   3.814 -0.3100 -0.6397  0.5796
  114MOL0     C15298   7.588   7.223   3.699  0.1500  0.7132  0.3081
  114MOL0    Cl15299   7.487   7.226   3.553  0.2717  0.3307 -0.4031
  114MOL0     C15300   6.500   7.397   4.154 -0.2256  0.2159 -0.0768
  114MOL0     C15301   6.394   7.434   4.237  0.9329  0.1215 -0.1468
  114MOL0     O15302   6.289   7.627   4.431 -0.2810 -0.0990 -0.1259
  114MOL0     C15303   6.029   7.406   4.501  0.3165 -0.5992  0.4227
  114MOL0     C15304   5.886   7.401   4.510 -0.3566  0.5775  0.0732
  114MOL0     N15305   5.521   7.477   3.840 -0.0868  0.1199  0.2228
  114MOL0     N15306   5.545   7.369   3.783  0.1011 -0.0139 -0.0636
  114MOL0     C15307   4.705   6.617   3.878 -0.1841 -0.2070  0.6200
  114MOL0     C15308   4.566   6.581   3.904 -0.6073  0.8883 -0.0627
  114MOL0     C15309   4.164   6.428   3.936 -1.1419 -0.1410  0.0771
  114MOL0     C15310   4.109   6.422   3.803 -0.2971 -0.0663 -1.0542
  114MOL0     C15311   3.977   6.398   3.785  0.5656 -0.7022 -0.3651
  114MOL0     C15312   3.890   6.392   3.890  0.6403  0.5026 -0.4611
  114MOL0     O15313   3.751   6.376   3.884 -0.1818  0.1384  0.1877
  114MOL0     C15314   3.684   6.388   3.755 -0.3264  0.3453  0.2549
  114MOL0     C15315   3.558   6.323   3.778 -0.2570 -0.0474 -0.3650
  114MOL0     C15316   3.464   6.417   3.858  0.2033  0.0598 -0.0805
  114MOL0     C15317   3.329   6.359   3.892 -0.1666 -1.2163 -0.5535
  114MOL0     C15318   3.263   6.458   3.982 -0.4581 -0.5075  0.8702
  114MOL0     C15319   3.213   6.546   4.047  0.5353  0.7281 -1.2739
  114MOL0     C15320   3.942   6.378   4.020 -0.2830 -0.3205  0.3531
  114MOL0     C15321   4.073   6.402   4.050 -0.6071  0.9018  1.0327
  114MOL0     C15322   4.099   6.393   4.198 -0.0432  0.1722 -0.2712
  114MOL0     H15323   4.525   6.375   3.641 -1.6050 -0.3181  2.1148
  114MOL0     H15324   4.784   6.387   3.647  1.4093  0.3709  2.5744
  114MOL0     H15325   4.844   6.785   3.740 -0.6699 -0.0986 -0.4045
  114MOL0     H15326   4.998   6.751   3.822 -2.0202 -0.4520  2.3073
  114MOL0     H15327   4.965   6.714   3.516 -0.3450  2.8553 -0.6578
  114MOL0     H15328   5.110   6.696   3.615 -0.8958  0.3474 -1.1532
  114MOL0     H15329   4.955   6.953   3.636  1.3194  1.9431  3.3517
  114MOL0     H15330   5.081   6.917   3.509 -0.7926  0.3973  0.8488
  114MOL0     H15331   5.118   6.930   3.820 -0.5312  1.1871 -0.9119
  114MOL0     H15332   5.239   6.873   3.699 -0.1098  0.1606 -2.4031
  114MOL0     H15333   5.251   7.089   3.608  1.0663 -0.9161  1.2135
  114MOL0     H15334   5.121   7.159   3.719 -1.5701 -1.9923 -0.5340
  114MOL0     H15335   5.295   7.232   3.819 -2.1595 -0.4909 -0.7613
  114MOL0     H15336   5.287   7.083   3.907 -0.9969  1.2500  0.4712
  114MOL0     H15337   5.445   7.135   3.663  0.2344 -0.8281 -0.5412
  114MOL0     H15338   5.458   6.982   3.743 -0.0385  1.0707 -2.6424
  114MOL0     H15339   5.552   7.082   3.960 -2.4679  0.9154  0.1713
  114MOL0     H15340   5.646   7.112   3.806  0.1022  2.9678  0.0971
  114MOL0     H15341   5.513   7.284   4.098 -1.9050  1.6793  0.5727
  114MOL0     H15342   5.619   7.633   4.057  1.7750 -1.4335 -0.5416
  114MOL0     H15343   5.442   7.635   4.046  1.4987  0.3766 -2.6894
  114MOL0     H15344   5.416   7.549   4.259 -0.8467 -5.3576  1.0452
  114MOL0     H15345   5.552   7.437   4.256 -1.2796  0.2066  2.6338
  114MOL0     H15346   5.563   7.737   4.304  1.4546  0.2346 -0.0732
  114MOL0     H15347   5.704   7.632   4.300  0.3189  3.8308  0.6421
  114MOL0     H15348   5.482   7.615   4.494  0.0332  1.8082  0.0740
  114MOL0     H15349   5.619   7.701   4.527  0.3332  0.7150 -0.3908
  114MOL0     H15350   5.826   7.730   4.551 -2.2120 -1.0503 -1.1542
  114MOL0     H15351   6.079   7.734   4.527 -1.6631  0.6784  1.1645
  114MOL0     H15352   6.457   7.242   4.508  0.2519  0.5329 -0.7000
  114MOL0     H15353   6.660   7.193   4.350  1.9015  1.0890 -1.1993
  114MOL0     H15354   6.798   7.429   4.016  1.2288 -0.3160 -0.7751
  114MOL0     H15355   6.850   7.414   4.177  1.0294  0.5623  0.3573
  114MOL0     H15356   6.924   7.166   4.137  2.0191 -1.4263 -1.4513
  114MOL0     H15357   6.898   7.199   3.967  0.2971  0.0369  0.3636
  114MOL0     H15358   7.049   7.372   3.960 -3.9163  1.2503  1.1163
  114MOL0     H15359   7.075   7.373   4.142 -2.3274 -0.4849  0.1720
  114MOL0     H15360   7.155   7.131   3.964  1.1099 -0.6534  0.7070
  114MOL0     H15361   7.236   7.192   4.104  2.9320 -1.1562 -2.8634
  114MOL0     H15362   7.314   7.396   3.980  0.9124  0.5161 -1.4881
  114MOL0     H15363   7.225   7.346   3.840 -0.4454 -1.1375  0.1515
  114MOL0     H15364   7.436   7.170   3.966  0.4393  0.3010  0.3069
  114MOL0     H15365   7.356   7.147   3.811  1.7922 -0.8705 -0.4559
  114MOL0     H15366   7.588   7.312   3.892 -0.3034 -0.5053  0.5435
  114MOL0     H15367   7.491   7.394   3.774  3.8645  0.3193  0.0688
  114MOL0     H15368   7.678   7.281   3.676 -2.0921  3.8114 -1.3288
  114MOL0     H15369   7.610   7.119   3.727  0.2200  0.0372 -2.0898
  114MOL0     H15370   6.481   7.422   4.050  1.2099 -0.7630 -0.6049
  114MOL0     H15371   6.332   7.522   4.223 -2.1931 -1.6256  1.4175
  114MOL0     H15372   6.076   7.312   4.474 -2.7370 -2.2264  0.4158
  114MOL0     H15373   5.844   7.301   4.505  2.0413 -0.5271  0.4162
  114MOL0     H15374   4.743   6.687   3.952 -2.0618  1.4864  0.0806
  114MOL0     H15375   4.513   6.628   3.986 -0.3502  2.3562 -0.6934
  114MOL0     H15376   4.172   6.437   3.716  2.0257  2.0341  0.8224
  114MOL0     H15377   3.947   6.391   3.681 -0.0104 -1.0743 -0.1767
  114MOL0     H15378   3.737   6.343   3.671 -0.8923  1.9977 -1.0732
  114MOL0     H15379   3.671   6.496   3.741 -0.6677  0.7947  3.4102
  114MOL0     H15380   3.575   6.223   3.820 -0.8320  0.2505  0.5925
  114MOL0     H15381   3.526   6.304   3.675  1.1185 -1.1055 -0.6354
  114MOL0     H15382   3.444   6.505   3.796  2.1930  0.6956  0.0958
  114MOL0     H15383   3.519   6.439   3.950  0.2328 -1.3039  0.2397
  114MOL0     H15384   3.271   6.340   3.801  2.3966  0.1251 -2.6104
  114MOL0     H15385   3.350   6.272   3.955 -0.6837  1.4106  3.6366
  114MOL0     H15386   3.153   6.615   4.101 -2.6262 -1.2212 -2.0370
  114MOL0     H15387   3.873   6.337   4.093 -3.3533 -0.7265 -2.5336
  114MOL0     H15388   4.014   6.370   4.262  1.0627 -3.6078  0.0825
  114MOL0     H15389   4.174   6.319   4.227  0.3920  0.0591 -1.6145
  114MOL0     H15390   4.143   6.490   4.225 -2.0999  1.2481 -0.5930
  115MOL0     O15391   3.167   2.813   9.155 -0.7349 -0.0528 -0.1467
  115MOL0     C15392   3.190   2.711   9.220  0.4797  0.4923 -0.2884
  115MOL0     O15393   3.283   2.705   9.319 -0.5671  0.2332  0.8672
  115MOL0     C15394   3.351   2.824   9.350  0.2638 -0.0228  0.1652
  115MOL0     C15395   3.479   2.860   9.302  0.2897 -0.0252 -0.9800
  115MOL0     C15396   3.538   2.966   9.365  0.5799 -0.0066 -0.6184
  115MOL0     C15397   3.469   3.048   9.460  0.6599  0.1258  0.2384
  115MOL0     O15398   3.532   3.161   9.505  0.0247 -0.3538  0.4404
  115MOL0     C15399   3.458   3.264   9.561 -0.0520  0.2052 -0.7692
  115MOL0     C15400   3.557   3.370   9.623  0.4892  0.2561  0.1067
  115MOL0     C15401   3.644   3.315   9.742 -0.0877 -0.3384  0.5718
  115MOL0     C15402   3.757   3.410   9.792  0.6482  0.0736 -0.5845
  115MOL0     C15403   3.842   3.349   9.895 -0.4730  0.3139 -0.6084
  115MOL0     C15404   3.970   3.433   9.909 -0.2163  0.3121  0.6149
  115MOL0     C15405   4.080   3.362   9.982 -0.1273  1.1882  0.2710
  115MOL0     C15406   4.072   3.382  10.128  0.0172 -0.0144 -0.3214
  115MOL0     N15407   4.196   3.349  10.193 -0.5007  0.4988 -0.4847
  115MOL0     C15408   4.230   3.220  10.220  0.3271 -0.0246  0.7445
  115MOL0     C15409   4.365   3.228  10.250 -1.0011 -0.6263 -0.0830
  115MOL0     C15410   4.458   3.107  10.281  0.3213 -0.2001  0.6960
  115MOL0     C15411   4.490   3.019  10.160  0.0339 -0.1558  0.8192
  115MOL0     C15412   4.532   3.100  10.041 -0.2324 -0.0012 -0.6552
  115MOL0     C15413   4.657   3.181  10.065 -0.0220 -0.0191  0.0756
  115MOL0     O15414   4.765   3.101  10.105 -0.6662  0.5130  0.7751
  115MOL0     C15415   4.890   3.148  10.075 -0.7866 -1.0161 -0.7347
  115MOL0     C15416   4.990   3.066  10.129  0.2950 -0.2548  0.8763
  115MOL0     C15417   5.126   3.094  10.098 -0.9183 -0.4979 -0.6390
  115MOL0     C15418   5.168   3.210  10.022 -0.0423  0.6995 -1.3271
  115MOL0     C15419   5.313   3.242  10.010 -0.7115  0.3503 -0.3356
  115MOL0     O15420   5.401   3.148  10.074 -0.0526 -0.0304  0.2932
  115MOL0     C15421   5.535   3.156  10.044  0.6190  0.6887  0.0934
  115MOL0     C15422   5.590   3.194   9.919 -0.4633  0.1359  0.6271
  115MOL0     C15423   5.718   3.169   9.874 -0.6435  0.4184 -0.4618
  115MOL0     C15424   5.803   3.116   9.966 -0.1991  0.0645  1.1252
  115MOL0     O15425   5.926   3.086   9.911  0.7140  0.3325 -0.1748
  115MOL0     C15426   6.018   3.004   9.986 -0.1736 -0.4275  0.3545
  115MOL0     C15427   6.129   2.974   9.893 -0.3103  0.3629  0.1302
  115MOL0     C15428   6.250   2.953   9.975 -0.2389 -0.4410 -0.3613
  115MOL0     C15429   6.370   2.901   9.892  0.3187  0.4841 -0.1730
  115MOL0     C15430   6.502   2.888   9.982  0.8632  0.2215 -0.0225
  115MOL0     C15431   6.629   2.844   9.915 -0.4357 -0.0128 -0.1964
  115MOL0     C15432   6.631   2.696   9.880  0.7032 -0.6204  0.2612
  115MOL0     C15433   6.750   2.669   9.791  0.0583  0.7553  0.3288
  115MOL0    Cl15434   6.716   2.751   9.622  0.6554 -0.1033  0.0978
  115MOL0     C15435   5.760   3.092  10.095 -0.0932 -0.2739 -0.3642
  115MOL0     C15436   5.626   3.101  10.125  0.6707 -0.3270  0.0235
  115MOL0     O15437   5.340   3.341   9.943  0.6555  1.0647  0.0296
  115MOL0     C15438   5.069   3.290   9.969  0.2700 -0.0977 -0.7378
  115MOL0     C15439   4.930   3.258   9.996 -0.0029  0.5399 -0.7341
  115MOL0     N15440   4.405   3.357  10.258 -0.2394  0.2826  0.3490
  115MOL0     N15441   4.298   3.431  10.221  0.4670 -0.5483 -0.3996
  115MOL0     C15442   3.338   3.011   9.497 -1.1533 -0.2057 -0.7097
  115MOL0     C15443   3.284   2.895   9.446  0.9877  0.2187  1.3197
  115MOL0     C15444   3.118   2.583   9.179  0.6347  0.1213  0.2829
  115MOL0     C15445   3.149   2.460   9.251  0.1051  0.3869 -0.8430
  115MOL0     C15446   3.087   2.345   9.227  1.0002  0.3600  0.9357
  115MOL0     C15447   2.986   2.342   9.130  0.3934 -0.4138  0.3433
  115MOL0     O15448   2.906   2.230   9.119  0.9736  0.2025  0.2512
  115MOL0     C15449   2.889   2.178   8.978 -0.7442  0.0168 -0.4608
  115MOL0     C15450   2.892   2.027   8.960  0.1889 -0.3884 -0.4297
  115MOL0     C15451   3.038   1.983   8.957  0.8462  0.0604  0.5907
  115MOL0     C15452   3.052   1.831   8.923  0.8251 -0.9341  0.1268
  115MOL0     C15453   3.004   1.739   9.032  0.1536 -0.2106 -0.0373
  115MOL0     C15454   2.941   1.668   9.109  0.2263  0.2980  0.3170
  115MOL0     C15455   2.969   2.449   9.039  0.0180 -0.6392 -0.4837
  115MOL0     C15456   3.031   2.578   9.064 -0.2292  0.0440  0.6390
  115MOL0     C15457   3.003   2.698   8.969 -0.8089  0.7294  0.4989
  115MOL0     H15458   3.514   2.796   9.222  1.3033 -0.7025 -0.0235
  115MOL0     H15459   3.636   2.993   9.328  1.1427  0.4937  1.1353
  115MOL0     H15460   3.383   3.309   9.495 -1.6537  0.5486  1.1594
  115MOL0     H15461   3.407   3.222   9.648  0.4366 -1.4868 -1.2617
  115MOL0     H15462   3.495   3.455   9.654 -1.1215 -1.0140  0.5172
  115MOL0     H15463   3.623   3.413   9.548  3.4363 -0.5542  2.0575
  115MOL0     H15464   3.684   3.219   9.707 -3.2813 -2.1640  1.5970
  115MOL0     H15465   3.578   3.286   9.824 -1.3570 -2.0992 -0.9808
  115MOL0     H15466   3.812   3.439   9.702  1.9947 -0.1397  0.1488
  115MOL0     H15467   3.725   3.507   9.832 -0.1727 -0.6503  0.5965
  115MOL0     H15468   3.796   3.344   9.994  0.3533  1.4862 -0.1421
  115MOL0     H15469   3.852   3.244   9.867 -1.5344 -1.1991  3.9346
  115MOL0     H15470   4.001   3.449   9.806  2.0187 -0.4763  1.1234
  115MOL0     H15471   3.935   3.526   9.955 -1.5545  0.7444 -1.1593
  115MOL0     H15472   4.179   3.386   9.941  0.1073 -0.4507 -0.1597
  115MOL0     H15473   4.078   3.254   9.967 -4.6157  1.1127  0.0106
  115MOL0     H15474   4.041   3.481  10.161  1.0024  0.1249  0.2186
  115MOL0     H15475   3.995   3.321  10.177  1.7322 -1.0937  1.1358
  115MOL0     H15476   4.168   3.132  10.203 -0.5622  0.8194 -0.6185
  115MOL0     H15477   4.550   3.156  10.314  1.2777 -1.4087 -0.1015
  115MOL0     H15478   4.418   3.052  10.367 -2.7314  1.9898  0.8106
  115MOL0     H15479   4.570   2.953  10.195  0.7560  1.0752  1.5795
  115MOL0     H15480   4.402   2.957  10.142  0.6445 -0.6599 -0.6196
  115MOL0     H15481   4.450   3.162  10.003 -0.6010 -0.2391 -0.2602
  115MOL0     H15482   4.553   3.028   9.962  1.5990 -0.8065  0.4882
  115MOL0     H15483   4.632   3.254  10.142 -2.4401 -1.9082  1.2346
  115MOL0     H15484   4.670   3.236   9.972  1.1149  0.6405  0.6056
  115MOL0     H15485   4.966   2.981  10.193 -0.9833 -0.8607 -0.3631
  115MOL0     H15486   5.202   3.036  10.149 -1.5741  0.5459  1.6586
  115MOL0     H15487   5.526   3.224   9.836 -1.2959 -1.6257  0.5803
  115MOL0     H15488   5.754   3.183   9.773  1.0217  0.6212  0.1276
  115MOL0     H15489   6.054   3.062  10.071 -2.1772  2.8235 -0.8565
  115MOL0     H15490   5.973   2.907  10.009 -1.1197 -0.2534 -0.6943
  115MOL0     H15491   6.104   2.884   9.837  2.0084 -0.5025  0.3767
  115MOL0     H15492   6.138   3.056   9.820 -2.3459 -0.1953 -0.8077
  115MOL0     H15493   6.273   3.044  10.032  1.1454  1.0384 -3.0312
  115MOL0     H15494   6.226   2.875  10.047 -0.9571  0.8910  0.9049
  115MOL0     H15495   6.384   2.968   9.807 -1.3156 -0.7172 -1.4564
  115MOL0     H15496   6.340   2.802   9.857 -0.6111  1.0689 -1.0933
  115MOL0     H15497   6.485   2.831  10.074  0.7750  0.7122  0.2680
  115MOL0     H15498   6.524   2.991  10.011 -0.6752  0.6692 -0.3117
  115MOL0     H15499   6.642   2.903   9.824  1.9035 -1.0160 -0.5882
  115MOL0     H15500   6.705   2.882   9.985  0.1350  1.4714 -1.5620
  115MOL0     H15501   6.533   2.666   9.843  0.6677 -1.5325  1.0478
  115MOL0     H15502   6.633   2.636   9.971 -0.9614 -1.6037 -0.3112
  115MOL0     H15503   6.835   2.707   9.847  0.8355 -2.4035  1.4650
  115MOL0     H15504   6.760   2.561   9.776 -0.9726  0.5581  0.9099
  115MOL0     H15505   5.829   3.052  10.169 -0.7911  0.0903  0.4978
  115MOL0     H15506   5.581   3.061  10.215  0.7292 -2.0642 -0.6707
  115MOL0     H15507   5.104   3.371   9.905  1.9756  0.1423  0.4466
  115MOL0     H15508   4.850   3.318   9.952 -1.7597 -1.1401  0.0051
  115MOL0     H15509   3.288   3.063   9.579  1.4030 -2.9432  2.9592
  115MOL0     H15510   3.188   2.858   9.481 -0.0322  2.0256  0.5588
  115MOL0     H15511   3.220   2.464   9.333  0.7758 -0.2307 -1.3816
  115MOL0     H15512   3.096   2.263   9.298  1.5406 -0.3977  0.0176
  115MOL0     H15513   2.965   2.213   8.908  0.5528 -0.2228  0.7615
  115MOL0     H15514   2.794   2.220   8.945  0.5601  3.0578 -0.6979
  115MOL0     H15515   2.845   1.990   8.868  1.7243 -1.1079 -0.9601
  115MOL0     H15516   2.840   1.985   9.046 -1.4832  1.4901 -0.4658
  115MOL0     H15517   3.097   2.002   9.046  2.1858 -0.9872 -0.0210
  115MOL0     H15518   3.084   2.036   8.873 -0.6318  0.3985 -0.0466
  115MOL0     H15519   3.000   1.811   8.829  0.9282 -1.4566  0.1722
  115MOL0     H15520   3.157   1.803   8.910  0.6595 -0.7195 -2.0330
  115MOL0     H15521   2.877   1.598   9.158  2.5432 -1.7441  0.6177
  115MOL0     H15522   2.904   2.430   8.954  1.0293 -0.1105 -1.3979
  115MOL0     H15523   3.091   2.759   8.950 -1.4135  2.3139  2.5080
  115MOL0     H15524   2.954   2.670   8.875  1.4356  1.0634 -0.8359
  115MOL0     H15525   2.931   2.761   9.022  0.4799  0.2539  2.9011
  116MOL0     O15526  10.611   0.290   5.816 -0.3485  0.7347  0.7826
  116MOL0     C15527  10.522   0.374   5.796  0.4612  0.4815 -0.3553
  116MOL0     O15528  10.546   0.506   5.777 -0.3504 -0.2381 -0.7872
  116MOL0     C15529  10.681   0.547   5.785  0.8456  0.5393 -0.7181
  116MOL0     C15530  10.749   0.568   5.909 -0.2086  0.9635 -0.2269
  116MOL0     C15531  10.884   0.609   5.904  0.3294  0.0820 -0.2695
  116MOL0     C15532  10.949   0.635   5.780 -0.6542 -0.2604  0.2991
  116MOL0     O15533  11.084   0.672   5.793 -0.1258 -0.0244 -0.2943
  116MOL0     C15534  11.146   0.737   5.676 -0.1334 -0.0841 -0.4886
  116MOL0     C15535  11.212   0.620   5.600  0.0378  0.0467  0.5774
  116MOL0     C15536  11.291   0.656   5.474  0.4638  0.1336 -0.0327
  116MOL0     C15537  11.342   0.537   5.399  0.3876  0.6196  0.1669
  116MOL0     C15538  11.425   0.576   5.280  0.2948  0.5420 -0.6218
  116MOL0     C15539  11.497   0.462   5.206  0.8354 -0.1426  0.1616
  116MOL0     C15540  11.562   0.502   5.072 -0.0422  0.2254  0.2457
  116MOL0     C15541  11.669   0.398   5.036  0.4050  0.3063 -0.1899
  116MOL0     N15542  11.778   0.399   5.129 -0.1335 -0.4199 -0.0292
  116MOL0     C15543  11.851   0.506   5.162 -0.3532  0.2049  0.5568
  116MOL0     C15544  11.946   0.469   5.247 -0.5290 -0.1008  0.1525
  116MOL0     C15545  12.057   0.540   5.308  0.0388  0.9779  0.5548
  116MOL0     C15546  12.183   0.544   5.212 -0.1285 -0.2516 -0.3731
  116MOL0     C15547  12.297   0.612   5.291 -0.1187 -0.6866  0.0629
  116MOL0     C15548  12.426   0.617   5.197  0.4173  0.1424 -0.4732
  116MOL0     O15549  12.523   0.699   5.265  0.5038  0.1467 -0.0801
  116MOL0     C15550  12.654   0.696   5.211  0.8966 -0.2349  0.0988
  116MOL0     C15551  12.753   0.737   5.296 -0.0643 -0.5018 -0.4283
  116MOL0     C15552  12.885   0.731   5.263  0.4728 -0.3977  0.0999
  116MOL0     C15553  12.927   0.676   5.139 -0.2647 -0.2855  0.1691
  116MOL0     C15554  13.072   0.655   5.107  1.3973  0.1355  0.4975
  116MOL0     O15555  13.149   0.637   5.218  0.0248  0.4018 -0.1994
  116MOL0     C15556  13.281   0.611   5.193 -0.1099 -0.7776  0.1653
  116MOL0     C15557  13.362   0.706   5.121  0.0841 -0.6157 -0.4259
  116MOL0     C15558  13.492   0.672   5.097  0.8888  0.4767  0.4381
  116MOL0     C15559  13.553   0.553   5.140  0.5279  0.0977 -0.4444
  116MOL0     O15560  13.692   0.524   5.114 -0.4627  0.1286  0.0135
  116MOL0     C15561  13.749   0.409   5.174  0.5770 -0.2574 -0.5875
  116MOL0     C15562  13.894   0.422   5.147  0.4495  0.0396  0.8982
  116MOL0     C15563  13.982   0.300   5.176 -0.0538 -0.0471 -0.2040
  116MOL0     C15564  14.101   0.320   5.083 -0.2233 -0.7805  0.1350
  116MOL0     C15565  14.214   0.208   5.109  0.4044 -0.7659  0.4281
  116MOL0     C15566  14.352   0.241   5.055  0.3735 -0.0055 -0.0283
  116MOL0     C15567  14.459   0.139   5.074 -0.1478  0.4356 -0.1199
  116MOL0     C15568  14.605   0.184   5.050  0.4510 -0.3805  0.0217
  116MOL0    Cl15569  14.621   0.189   4.876 -0.0341 -0.0966  0.0466
  116MOL0     C15570  13.472   0.464   5.210 -0.0116 -0.7181  0.0726
  116MOL0     C15571  13.337   0.494   5.236  0.1752  0.4374 -0.7211
  116MOL0     O15572  13.103   0.656   4.994  0.0009  0.0926  0.8128
  116MOL0     C15573  12.833   0.643   5.047 -0.1979 -0.1226  0.2714
  116MOL0     C15574  12.699   0.666   5.079  0.7932  0.2557 -0.0906
  116MOL0     N15575  11.933   0.333   5.254  0.1951 -0.1700  0.3354
  116MOL0     N15576  11.832   0.288   5.186 -0.8437 -0.7614 -0.5990
  116MOL0     C15577  10.874   0.622   5.661 -0.5121  0.8187  0.4942
  116MOL0     C15578  10.743   0.576   5.662  0.2299 -0.1595 -0.2372
  116MOL0     C15579  10.383   0.334   5.815  0.5000 -0.0531 -0.1886
  116MOL0     C15580  10.273   0.431   5.805 -0.4542  0.4197  0.1606
  116MOL0     C15581  10.140   0.404   5.818  0.2288  0.6898 -0.9098
  116MOL0     C15582  10.103   0.274   5.841  1.8045 -0.2965 -0.3826
  116MOL0     O15583   9.967   0.239   5.863 -0.0711  0.8323  0.0831
  116MOL0     C15584   9.858   0.341   5.853  0.1665  0.5614 -0.0124
  116MOL0     C15585   9.723   0.262   5.872  0.3406 -0.4646  0.3139
  116MOL0     C15586   9.603   0.336   5.824  1.1798 -0.2826  0.0408
  116MOL0     C15587   9.493   0.228   5.806 -0.2658  0.2071  0.2883
  116MOL0     C15588   9.499   0.156   5.677 -0.0143  0.1496  0.0806
  116MOL0     C15589   9.484   0.078   5.590  0.9141 -0.6488  0.1959
  116MOL0     C15590  10.204   0.178   5.851  0.1147 -0.5924  0.0545
  116MOL0     C15591  10.341   0.202   5.836 -0.7329  0.2971  0.1916
  116MOL0     C15592  10.440   0.081   5.834 -0.2329 -0.7401 -1.3557
  116MOL0     H15593  10.697   0.548   6.002 -1.7357 -0.0885 -1.2535
  116MOL0     H15594  10.932   0.639   5.997 -1.3253 -2.9759  1.7451
  116MOL0     H15595  11.069   0.793   5.622  0.4013  1.3709  0.2059
  116MOL0     H15596  11.228   0.805   5.701  0.8746 -0.8756 -1.5361
  116MOL0     H15597  11.125   0.562   5.567  0.5303  0.6462 -2.0393
  116MOL0     H15598  11.282   0.558   5.656  1.5516  0.7827 -0.4384
  116MOL0     H15599  11.375   0.723   5.494 -0.2624  1.6084 -1.6533
  116MOL0     H15600  11.216   0.707   5.412  0.6965  1.8012  0.9855
  116MOL0     H15601  11.402   0.473   5.465  0.6647  0.8986  0.1853
  116MOL0     H15602  11.263   0.476   5.353  0.1338  1.6724 -0.8218
  116MOL0     H15603  11.358   0.625   5.209 -0.4023  0.1273 -0.2644
  116MOL0     H15604  11.494   0.654   5.312  0.7591  0.4828 -1.4319
  116MOL0     H15605  11.576   0.429   5.274  0.6022 -0.5080  0.2605
  116MOL0     H15606  11.431   0.378   5.181 -0.3739  1.7006 -3.6417
  116MOL0     H15607  11.594   0.606   5.067  1.9904 -0.3485  0.3836
  116MOL0     H15608  11.482   0.488   4.999  1.3298  0.5853 -1.3875
  116MOL0     H15609  11.627   0.298   5.033 -0.1287  0.5403 -1.2117
  116MOL0     H15610  11.707   0.412   4.934  2.7844 -1.2005  0.4188
  116MOL0     H15611  11.835   0.608   5.128 -0.5797 -0.6043 -2.0283
  116MOL0     H15612  12.022   0.643   5.322 -0.3263  0.9376  0.0158
  116MOL0     H15613  12.082   0.502   5.407  0.8426  2.2396  0.8515
  116MOL0     H15614  12.216   0.442   5.187  0.8195  0.8503 -4.1443
  116MOL0     H15615  12.153   0.585   5.116 -2.5361 -4.2766 -1.5915
  116MOL0     H15616  12.321   0.541   5.371  2.0154 -2.3958 -1.9401
  116MOL0     H15617  12.254   0.708   5.319  1.0971  0.1497 -0.8651
  116MOL0     H15618  12.402   0.665   5.102 -1.0903  1.6052  0.5975
  116MOL0     H15619  12.458   0.515   5.174 -3.8907 -1.3236 -0.8546
  116MOL0     H15620  12.729   0.762   5.398 -2.1630 -3.7292  0.0155
  116MOL0     H15621  12.960   0.769   5.331  3.6084 -1.5134 -2.4829
  116MOL0     H15622  13.320   0.801   5.092 -0.9444 -0.9564 -0.1096
  116MOL0     H15623  13.546   0.750   5.043 -0.7679  2.3602  1.3750
  116MOL0     H15624  13.721   0.410   5.280  0.6452  0.5929 -0.5730
  116MOL0     H15625  13.715   0.318   5.124  2.6734  0.4101 -3.5306
  116MOL0     H15626  13.900   0.450   5.041 -1.0297  0.8391  1.0005
  116MOL0     H15627  13.932   0.503   5.210  1.4671  0.2016  0.1055
  116MOL0     H15628  14.011   0.303   5.281  2.0935 -1.0024 -0.7111
  116MOL0     H15629  13.933   0.203   5.168 -1.7087  0.7461 -0.0589
  116MOL0     H15630  14.155   0.415   5.089 -0.2028 -0.8069  0.3690
  116MOL0     H15631  14.060   0.307   4.983 -0.3652 -1.3197  0.2630
  116MOL0     H15632  14.173   0.125   5.051 -1.3477  0.7660 -0.6600
  116MOL0     H15633  14.217   0.181   5.214  1.2322  1.0926  0.9216
  116MOL0     H15634  14.351   0.289   4.956 -1.4652  3.2649  1.4241
  116MOL0     H15635  14.391   0.329   5.107 -0.1667 -0.8844  1.9223
  116MOL0     H15636  14.435   0.043   5.026  1.3931  1.1966 -2.6029
  116MOL0     H15637  14.470   0.118   5.181  1.7824 -2.1093 -0.7315
  116MOL0     H15638  14.618   0.284   5.092  2.8936 -0.6163 -0.0328
  116MOL0     H15639  14.675   0.119   5.102 -1.1022 -0.1482  2.6169
  116MOL0     H15640  13.514   0.369   5.239  0.5570 -0.7294 -0.7793
  116MOL0     H15641  13.273   0.419   5.282  1.1572  0.2804  0.4460
  116MOL0     H15642  12.865   0.617   4.947 -0.4773  0.1210  0.1177
  116MOL0     H15643  12.625   0.649   5.002  0.1398 -1.8659  0.9261
  116MOL0     H15644  10.919   0.645   5.565 -2.2428  1.1881 -0.2724
  116MOL0     H15645  10.699   0.564   5.564  1.1487  0.6712 -0.7695
  116MOL0     H15646  10.295   0.537   5.793  2.2030  0.3597  2.9998
  116MOL0     H15647  10.067   0.484   5.823 -0.8498 -0.3315  0.6261
  116MOL0     H15648   9.878   0.385   5.755 -0.2048  0.2188 -0.2472
  116MOL0     H15649   9.863   0.420   5.929 -0.0019  1.8345 -1.2919
  116MOL0     H15650   9.707   0.246   5.979 -2.9795  3.3054  0.6396
  116MOL0     H15651   9.732   0.168   5.816  0.8301 -0.3858  0.2505
  116MOL0     H15652   9.611   0.402   5.738 -1.9368  0.4886  0.2495
  116MOL0     H15653   9.562   0.396   5.906 -0.3364 -0.4019 -0.6098
  116MOL0     H15654   9.496   0.155   5.888 -0.2401 -1.4775 -1.1582
  116MOL0     H15655   9.400   0.287   5.806 -0.6851 -0.3756 -1.6708
  116MOL0     H15656   9.475   0.020   5.500  0.3993 -0.4098  0.0900
  116MOL0     H15657  10.173   0.083   5.892 -2.8801  0.8451  1.3920
  116MOL0     H15658  10.509   0.083   5.749  0.2037 -2.0732 -1.0426
  116MOL0     H15659  10.500   0.076   5.925  1.4784  1.0281 -2.3120
  116MOL0     H15660  10.377  -0.008   5.833  0.9926 -1.6238 -1.1823
  117MOL0     O15661  10.402   0.171   7.228 -0.4525  0.7149  0.1422
  117MOL0     C15662  10.494   0.142   7.306  0.0809 -1.4920 -0.5357
  117MOL0     O15663  10.578   0.042   7.302  0.0407 -0.3763  0.3288
  117MOL0     C15664  10.602  -0.041   7.190  0.2235 -0.4565 -0.2039
  117MOL0     C15665  10.730  -0.096   7.195 -0.3632  0.4921 -0.1120
  117MOL0     C15666  10.770  -0.197   7.104 -0.2502  0.1165  0.4538
  117MOL0     C15667  10.690  -0.226   6.997 -0.6421  0.8798  0.3318
  117MOL0     O15668  10.730  -0.327   6.909 -0.1299  0.4994 -0.3609
  117MOL0     C15669  10.871  -0.330   6.873  1.4244  0.2455 -0.4922
  117MOL0     C15670  10.882  -0.463   6.795  0.8738  0.6341 -0.5561
  117MOL0     C15671  11.026  -0.499   6.752  0.9738 -0.0428  0.1305
  117MOL0     C15672  11.087  -0.401   6.649  0.1557  0.3067  0.3592
  117MOL0     C15673  11.222  -0.434   6.598 -0.0384 -0.5234  0.4354
  117MOL0     C15674  11.288  -0.313   6.528  0.0939 -0.7276 -0.0790
  117MOL0     C15675  11.436  -0.351   6.488  0.0382  0.5705 -0.1870
  117MOL0     C15676  11.487  -0.262   6.383 -0.5833 -0.4212  1.2253
  117MOL0     N15677  11.487  -0.118   6.417  0.2044  0.4755  0.1720
  117MOL0     C15678  11.519  -0.073   6.533 -0.5173  0.1691  0.1688
  117MOL0     C15679  11.502   0.062   6.534 -0.0549 -0.2644  0.2273
  117MOL0     C15680  11.504   0.161   6.651 -0.3608  0.5572  0.8309
  117MOL0     C15681  11.655   0.215   6.675  0.0752  0.3619  0.3538
  117MOL0     C15682  11.737   0.116   6.762  0.0747  0.1449  0.2036
  117MOL0     C15683  11.871   0.179   6.780  0.4684 -0.0802 -0.6049
  117MOL0     O15684  11.946   0.105   6.869 -0.3456  0.0148 -0.5584
  117MOL0     C15685  12.072   0.144   6.892  0.0082 -0.2976  0.2551
  117MOL0     C15686  12.142   0.256   6.835 -0.2901  0.6560  0.1745
  117MOL0     C15687  12.279   0.283   6.857 -0.0858 -0.5225 -0.4438
  117MOL0     C15688  12.341   0.212   6.960 -0.2797 -0.9400 -0.0199
  117MOL0     C15689  12.483   0.244   6.998 -0.4801 -0.7678  1.1896
  117MOL0     O15690  12.517   0.194   7.111 -0.2563 -0.6688  0.1082
  117MOL0     C15691  12.652   0.188   7.158  0.7983 -0.1500  0.4884
  117MOL0     C15692  12.763   0.179   7.077  0.0914  0.9919 -0.1108
  117MOL0     C15693  12.891   0.150   7.140 -0.2727  0.0799  0.0669
  117MOL0     C15694  12.901   0.155   7.279 -0.0211  0.7312  0.4426
  117MOL0     O15695  13.027   0.156   7.336  0.7184  0.3371 -0.0215
  117MOL0     C15696  13.047   0.140   7.476 -0.2082 -0.2126  0.0271
  117MOL0     C15697  13.199   0.141   7.488  0.7018 -0.7586 -0.1588
  117MOL0     C15698  13.251   0.133   7.634 -0.0714 -0.1870 -0.1512
  117MOL0     C15699  13.378   0.213   7.651 -0.1554  0.2505  0.0726
  117MOL0     C15700  13.457   0.146   7.767  0.2823  0.0315  0.5121
  117MOL0     C15701  13.587   0.217   7.801 -1.1622 -0.0618 -0.0167
  117MOL0     C15702  13.698   0.188   7.704  0.9041 -0.6744  0.3635
  117MOL0     C15703  13.765   0.320   7.658  0.1398 -0.1011  0.0529
  117MOL0    Cl15704  13.787   0.448   7.791 -0.2039  0.2003 -0.1239
  117MOL0     C15705  12.782   0.172   7.357 -0.2560  0.4724 -0.2145
  117MOL0     C15706  12.658   0.186   7.296 -0.5391  0.4109  0.2962
  117MOL0     O15707  12.546   0.321   6.927 -0.1858 -0.1578  0.3618
  117MOL0     C15708  12.271   0.107   7.020  0.1657  0.1405 -0.2158
  117MOL0     C15709  12.137   0.069   6.982  0.7753  0.2203 -0.8815
  117MOL0     N15710  11.467   0.096   6.408 -0.4420  0.1816  0.3662
  117MOL0     N15711  11.446  -0.015   6.340  0.6870 -0.0425  0.5170
  117MOL0     C15712  10.564  -0.172   6.987  0.6996  0.9527 -0.5638
  117MOL0     C15713  10.517  -0.072   7.081 -0.3456  0.4843 -0.8663
  117MOL0     C15714  10.489   0.214   7.432 -0.2314  0.4010  0.3262
  117MOL0     C15715  10.617   0.262   7.475 -0.2754  0.2483  0.1066
  117MOL0     C15716  10.639   0.330   7.592 -0.7799 -0.2792 -0.4431
  117MOL0     C15717  10.529   0.344   7.672  0.2142  0.2508 -0.2121
  117MOL0     O15718  10.545   0.415   7.793  0.0776 -0.4859 -0.2741
  117MOL0     C15719  10.632   0.527   7.801  0.7081 -0.1087 -0.8179
  117MOL0     C15720  10.625   0.580   7.943  0.1112 -0.1122 -0.2915
  117MOL0     C15721  10.502   0.666   7.970  0.2974  0.3098  0.1044
  117MOL0     C15722  10.472   0.679   8.118  0.0539 -0.2429  0.7128
  117MOL0     C15723  10.580   0.750   8.187 -0.0244  0.7759  0.3545
  117MOL0     C15724  10.679   0.797   8.248  0.2174  0.1881  0.6856
  117MOL0     C15725  10.403   0.302   7.636  0.9547 -0.3588 -0.2267
  117MOL0     C15726  10.382   0.232   7.521  0.0217  1.1513  0.7262
  117MOL0     C15727  10.250   0.176   7.478 -0.3022  0.1439  0.8691
  117MOL0     H15728  10.795  -0.067   7.277 -0.9526  0.6048  0.3157
  117MOL0     H15729  10.867  -0.244   7.120 -0.0930 -1.3179 -3.6934
  117MOL0     H15730  10.889  -0.237   6.817 -1.1007  0.0419 -1.7862
  117MOL0     H15731  10.938  -0.337   6.959 -0.2822 -1.3388  0.7897
  117MOL0     H15732  10.821  -0.466   6.705 -0.6811 -0.0419  0.4745
  117MOL0     H15733  10.851  -0.548   6.858  0.1711  1.3238  0.0463
  117MOL0     H15734  11.029  -0.603   6.716  1.8139  0.2072 -0.5521
  117MOL0     H15735  11.085  -0.494   6.844  0.2382  1.3749  0.5373
  117MOL0     H15736  11.016  -0.397   6.566 -0.0766  1.7986  0.5956
  117MOL0     H15737  11.091  -0.304   6.699 -0.9518  0.4879  0.1344
  117MOL0     H15738  11.283  -0.456   6.686  0.6439 -1.8196 -0.3255
  117MOL0     H15739  11.219  -0.525   6.537 -0.2997  0.4555 -1.0909
  117MOL0     H15740  11.232  -0.293   6.435  0.7736 -0.0401 -0.3497
  117MOL0     H15741  11.293  -0.236   6.605 -3.1220 -0.7520  0.3172
  117MOL0     H15742  11.436  -0.450   6.441 -3.0260  1.3225 -2.0723
  117MOL0     H15743  11.505  -0.356   6.572 -0.0645  0.9679 -0.0762
  117MOL0     H15744  11.593  -0.274   6.362 -0.9437 -1.5573 -0.0984
  117MOL0     H15745  11.443  -0.286   6.286  1.2402  0.2365  0.1796
  117MOL0     H15746  11.547  -0.132   6.620 -0.6654  1.0088  0.8072
  117MOL0     H15747  11.450   0.252   6.622  0.5863  0.5871 -1.0182
  117MOL0     H15748  11.462   0.125   6.745 -3.0297  1.1367 -0.0566
  117MOL0     H15749  11.702   0.220   6.576  0.8259 -1.9061  0.5353
  117MOL0     H15750  11.650   0.313   6.723 -1.7168  0.6830 -0.4308
  117MOL0     H15751  11.750   0.022   6.708 -0.7561 -0.2134  0.6160
  117MOL0     H15752  11.700   0.094   6.862  3.1756 -0.5853  1.3011
  117MOL0     H15753  11.863   0.281   6.816  0.3736 -0.3467  0.1428
  117MOL0     H15754  11.933   0.189   6.690  0.1277  1.5609 -0.6884
  117MOL0     H15755  12.092   0.314   6.757  0.1240  1.6455  0.6253
  117MOL0     H15756  12.342   0.353   6.804  4.5544 -3.1065  1.0464
  117MOL0     H15757  12.750   0.175   6.969 -1.4519 -1.5726  0.0873
  117MOL0     H15758  12.987   0.146   7.090 -1.5082 -0.1147 -2.4166
  117MOL0     H15759  13.015   0.232   7.526 -1.7083 -0.7801  0.1642
  117MOL0     H15760  12.997   0.054   7.521 -0.0269  1.3846  3.6084
  117MOL0     H15761  13.235   0.048   7.443  1.9494  0.2025 -1.2232
  117MOL0     H15762  13.242   0.232   7.446 -0.1830  1.4183  3.2249
  117MOL0     H15763  13.173   0.177   7.698 -0.4908 -0.8140 -0.2272
  117MOL0     H15764  13.260   0.029   7.666 -0.6020  0.6878  3.2788
  117MOL0     H15765  13.346   0.315   7.673 -3.4883 -1.0495  2.0253
  117MOL0     H15766  13.443   0.219   7.563  1.1508  5.4894  1.0601
  117MOL0     H15767  13.471   0.038   7.754 -0.7833  0.0689 -1.3329
  117MOL0     H15768  13.404   0.144   7.863 -0.5893  2.4031  0.1486
  117MOL0     H15769  13.571   0.325   7.799  3.6095  0.8648 -2.5916
  117MOL0     H15770  13.619   0.188   7.902 -1.6665  0.9059  0.4370
  117MOL0     H15771  13.658   0.143   7.613  1.8447 -0.4332 -0.1762
  117MOL0     H15772  13.758   0.109   7.751 -1.0532 -1.4649  1.7263
  117MOL0     H15773  13.863   0.288   7.621 -0.1091  0.4873 -1.1511
  117MOL0     H15774  13.718   0.367   7.572 -0.3612 -1.1547 -0.2666
  117MOL0     H15775  12.788   0.186   7.465  0.1282 -0.3347 -0.1246
  117MOL0     H15776  12.572   0.189   7.361  0.0422 -1.8714  1.2607
  117MOL0     H15777  12.314   0.047   7.100 -0.0829 -0.8340 -0.7854
  117MOL0     H15778  12.079  -0.006   7.033 -0.2941 -0.5646 -3.1345
  117MOL0     H15779  10.503  -0.195   6.900  0.4565 -2.0130  0.2798
  117MOL0     H15780  10.425  -0.018   7.060 -1.3937 -0.0395  1.8765
  117MOL0     H15781  10.700   0.258   7.405  0.2992  3.0007  0.5111
  117MOL0     H15782  10.742   0.348   7.620 -1.5610  2.2626  1.1059
  117MOL0     H15783  10.604   0.605   7.729 -4.4394  1.3655  2.2986
  117MOL0     H15784  10.731   0.497   7.764  1.3446  1.1888 -0.2391
  117MOL0     H15785  10.712   0.641   7.969  1.8018 -2.6537  0.3419
  117MOL0     H15786  10.627   0.497   8.014  0.5745  2.8782  3.5419
  117MOL0     H15787  10.417   0.614   7.925 -1.1494  2.7532 -0.1693
  117MOL0     H15788  10.514   0.766   7.928 -0.4189  0.5394  0.4233
  117MOL0     H15789  10.382   0.741   8.125  0.5872  0.5467  0.7867
  117MOL0     H15790  10.463   0.576   8.153  0.4631 -0.9822 -1.2124
  117MOL0     H15791  10.767   0.830   8.299  0.2213  1.0200  0.1629
  117MOL0     H15792  10.319   0.320   7.703  0.9181 -0.4828 -0.2392
  117MOL0     H15793  10.165   0.208   7.538  0.7762 -0.0847  2.5947
  117MOL0     H15794  10.218   0.199   7.376 -0.3921  0.3101  0.9349
  117MOL0     H15795  10.242   0.067   7.482 -0.9755  0.2201  1.9073
  118MOL0     O15796   6.839   3.441  10.738 -0.3318  0.4036 -0.0013
  118MOL0     C15797   6.814   3.560  10.727  0.0575 -0.5994 -0.0242
  118MOL0     O15798   6.884   3.654  10.653  0.9124 -0.1242  0.0136
  118MOL0     C15799   7.012   3.638  10.615 -0.0101 -0.0252  0.4807
  118MOL0     C15800   7.112   3.558  10.676 -0.4447 -0.1360  0.1456
  118MOL0     C15801   7.245   3.565  10.626  0.3704 -0.5646 -0.3416
  118MOL0     C15802   7.287   3.640  10.515 -0.9303 -0.1305 -0.2346
  118MOL0     O15803   7.419   3.645  10.468 -0.0447  0.0981  0.0471
  118MOL0     C15804   7.446   3.627  10.333 -0.2315  0.7292  0.5370
  118MOL0     C15805   7.589   3.589  10.299  0.0596  0.3166 -0.2404
  118MOL0     C15806   7.600   3.553  10.156 -0.3112 -0.3482  0.2998
  118MOL0     C15807   7.745   3.517  10.141  0.8107 -0.5650 -0.7270
  118MOL0     C15808   7.762   3.439  10.007 -0.3236  0.2771 -0.1555
  118MOL0     C15809   7.786   3.539   9.893 -0.5368 -0.2867  0.4080
  118MOL0     C15810   7.824   3.472   9.754  0.4021 -0.2336 -0.2424
  118MOL0     C15811   7.902   3.555   9.656 -0.1170  0.2753 -0.3565
  118MOL0     N15812   8.025   3.485   9.591  0.2443  0.0956 -0.1341
  118MOL0     C15813   8.130   3.417   9.653 -0.0287  0.1230 -0.3689
  118MOL0     C15814   8.173   3.322   9.565  0.2248 -0.0776  0.8855
  118MOL0     C15815   8.279   3.216   9.571  0.2237 -0.3806  0.0900
  118MOL0     C15816   8.412   3.285   9.624  0.3650 -0.5327  0.8509
  118MOL0     C15817   8.528   3.184   9.642 -0.2288 -0.2378  0.1106
  118MOL0     C15818   8.675   3.238   9.633  0.6454  0.1535  0.3677
  118MOL0     O15819   8.747   3.153   9.729 -0.4745  0.6132  0.0656
  118MOL0     C15820   8.866   3.197   9.772 -0.2155 -1.1032  0.3167
  118MOL0     C15821   8.960   3.280   9.704  0.3262  0.5687 -0.2557
  118MOL0     C15822   9.094   3.283   9.730 -0.1332  0.1879  0.0398
  118MOL0     C15823   9.149   3.190   9.824  0.6980  0.0983 -0.8379
  118MOL0     C15824   9.297   3.168   9.839  0.3575 -0.1521 -0.0052
  118MOL0     O15825   9.366   3.275   9.804  0.0557 -0.5934  0.6187
  118MOL0     C15826   9.502   3.284   9.810  0.4810  0.4531  0.3684
  118MOL0     C15827   9.571   3.222   9.916  0.3927  0.2421  0.5027
  118MOL0     C15828   9.715   3.225   9.926 -0.2203  0.0807 -0.2986
  118MOL0     C15829   9.782   3.293   9.834 -0.1022  0.6412  0.8339
  118MOL0     O15830   9.917   3.303   9.865  0.3427 -0.7232  0.8864
  118MOL0     C15831  10.003   3.374   9.776 -0.0058 -0.1116 -0.3362
  118MOL0     C15832  10.149   3.355   9.824  1.3577 -0.8032  0.6281
  118MOL0     C15833  10.249   3.410   9.727 -0.2366  0.5157 -0.4088
  118MOL0     C15834  10.377   3.329   9.729 -0.0853 -0.2797  0.5673
  118MOL0     C15835  10.480   3.385   9.636  0.0013  0.3048 -0.2082
  118MOL0     C15836  10.609   3.294   9.646  0.5229 -0.3735  0.9646
  118MOL0     C15837  10.718   3.351   9.553 -0.1793 -0.1603  0.8564
  118MOL0     C15838  10.860   3.328   9.613  0.3310 -1.2189  0.5244
  118MOL0    Cl15839  10.969   3.437   9.528 -0.2409 -0.5656 -0.3126
  118MOL0     C15840   9.711   3.343   9.723 -0.1673  0.0262 -0.3811
  118MOL0     C15841   9.576   3.341   9.708  0.1994 -0.4435 -0.7700
  118MOL0     O15842   9.340   3.052   9.842  1.1617 -0.4991  0.2972
  118MOL0     C15843   9.066   3.106   9.894 -0.2323 -1.0081 -0.0534
  118MOL0     C15844   8.930   3.111   9.867  0.2967 -0.6116  0.4171
  118MOL0     N15845   8.092   3.343   9.452 -0.2703  0.3721 -1.0979
  118MOL0     N15846   8.003   3.428   9.469  0.3622 -0.9431  0.7897
  118MOL0     C15847   7.188   3.715  10.448 -0.3847 -0.6346 -0.1964
  118MOL0     C15848   7.049   3.720  10.501 -0.0827  0.3744 -0.3268
  118MOL0     C15849   6.698   3.612  10.795  0.0036  0.0699 -0.2664
  118MOL0     C15850   6.580   3.529  10.796  0.2955  0.9987 -0.5763
  118MOL0     C15851   6.455   3.580  10.843 -1.4909 -0.5209  0.5433
  118MOL0     C15852   6.442   3.709  10.882 -0.6917 -0.4502 -0.0993
  118MOL0     O15853   6.324   3.781  10.914 -0.1286  0.6377 -0.1735
  118MOL0     C15854   6.196   3.711  10.905  0.2986 -0.3436 -0.7437
  118MOL0     C15855   6.096   3.747  11.022 -0.0912  0.7617  0.0930
  118MOL0     C15856   5.997   3.637  11.049 -0.4996  0.1062 -0.2402
  118MOL0     C15857   5.884   3.683  11.143  0.4526 -0.6664  0.1575
  118MOL0     C15858   5.868   3.598  11.264 -0.0282 -0.4112 -0.3120
  118MOL0     C15859   5.844   3.509  11.348 -0.3131  0.0890  0.4906
  118MOL0     C15860   6.561   3.789  10.889  0.0898 -0.0765  0.0785
  118MOL0     C15861   6.686   3.744  10.850  0.4814  0.3193 -0.6753
  118MOL0     C15862   6.810   3.833  10.867 -0.1595 -0.0511 -0.0994
  118MOL0     H15863   7.079   3.518  10.772 -2.5280 -1.3154 -0.9927
  118MOL0     H15864   7.324   3.508  10.674 -1.8094 -3.7739 -0.2340
  118MOL0     H15865   7.384   3.550  10.288  1.6160  0.9101 -2.6341
  118MOL0     H15866   7.421   3.720  10.281  1.2771  0.7211 -0.2667
  118MOL0     H15867   7.603   3.508  10.372  0.9620  0.1915 -0.5417
  118MOL0     H15868   7.654   3.672  10.329 -1.2360  0.4705  2.4654
  118MOL0     H15869   7.570   3.640  10.097 -0.6921  1.1238  2.5086
  118MOL0     H15870   7.541   3.465  10.130  1.5926 -1.2805 -1.1091
  118MOL0     H15871   7.813   3.602  10.150 -1.0435  0.7930  1.8821
  118MOL0     H15872   7.757   3.446  10.224 -3.9511 -0.9917 -0.1064
  118MOL0     H15873   7.842   3.365  10.004  0.7972  1.4682  0.0211
  118MOL0     H15874   7.665   3.389   9.991 -1.5175  1.3724  2.8916
  118MOL0     H15875   7.699   3.602   9.876  0.2947  0.6735 -0.4429
  118MOL0     H15876   7.869   3.601   9.927  0.2218 -1.5212  0.8665
  118MOL0     H15877   7.743   3.430   9.693  2.0595 -1.5668 -1.6184
  118MOL0     H15878   7.886   3.383   9.771 -1.7014 -1.6531  0.4716
  118MOL0     H15879   7.848   3.592   9.568  2.8258  4.1042 -0.8521
  118MOL0     H15880   7.937   3.643   9.711 -0.6798  1.0342 -1.1756
  118MOL0     H15881   8.174   3.435   9.751 -0.4951  1.9738 -0.4513
  118MOL0     H15882   8.255   3.127   9.630  0.5942  0.8276  2.1329
  118MOL0     H15883   8.296   3.177   9.470 -0.3996 -1.6923  0.4615
  118MOL0     H15884   8.443   3.365   9.556  1.6038 -1.0518  0.7742
  118MOL0     H15885   8.407   3.336   9.721  4.0844 -2.4163  2.2490
  118MOL0     H15886   8.527   3.113   9.559  1.8002 -0.4781  0.2422
  118MOL0     H15887   8.512   3.132   9.737  2.6121  0.1211  0.8954
  118MOL0     H15888   8.681   3.343   9.662 -0.2597  0.0858  0.8140
  118MOL0     H15889   8.711   3.231   9.529 -3.0495 -1.6170 -1.0056
  118MOL0     H15890   8.941   3.355   9.628  0.8361  2.0852  1.0469
  118MOL0     H15891   9.167   3.348   9.683 -1.5476  1.8212  0.0159
  118MOL0     H15892   9.512   3.174   9.994  0.9348 -0.8927  0.2461
  118MOL0     H15893   9.772   3.186  10.010  0.1233  3.8644  1.4302
  118MOL0     H15894   9.997   3.335   9.674  0.9190 -2.0111  0.2982
  118MOL0     H15895   9.980   3.480   9.759  0.9993 -0.3913 -4.4198
  118MOL0     H15896  10.162   3.404   9.920  0.8193 -0.8438  0.7278
  118MOL0     H15897  10.166   3.249   9.843  2.4454 -0.8079 -0.2655
  118MOL0     H15898  10.205   3.416   9.627  1.2645 -4.1051 -1.5621
  118MOL0     H15899  10.277   3.511   9.759 -0.2056 -0.3763  2.7291
  118MOL0     H15900  10.361   3.230   9.686  0.0608  0.9739 -2.7317
  118MOL0     H15901  10.413   3.322   9.832  0.6425  0.2931  0.3674
  118MOL0     H15902  10.494   3.489   9.667  3.0393 -0.7194  2.3912
  118MOL0     H15903  10.445   3.389   9.533 -2.4945 -4.3888  0.1778
  118MOL0     H15904  10.641   3.304   9.750 -0.2710  0.7713  1.1126
  118MOL0     H15905  10.604   3.189   9.616  4.9462 -1.0177  1.8053
  118MOL0     H15906  10.714   3.460   9.546  1.9651 -0.1241 -1.0421
  118MOL0     H15907  10.714   3.304   9.455  1.9256 -0.0710  0.6810
  118MOL0     H15908  10.865   3.343   9.721  0.9029 -0.8185  0.4470
  118MOL0     H15909  10.886   3.222   9.600  1.6244 -0.7802 -0.8010
  118MOL0     H15910   9.766   3.388   9.641 -1.6910  5.2956  1.0370
  118MOL0     H15911   9.535   3.375   9.614  1.8293  0.6873 -1.1308
  118MOL0     H15912   9.103   3.028   9.960  1.1846  0.1926  0.6259
  118MOL0     H15913   8.871   3.041   9.926 -0.9363  0.6031  0.6819
  118MOL0     H15914   7.227   3.783  10.373  3.4581  0.4396  2.4670
  118MOL0     H15915   6.974   3.784  10.456  0.9628  1.1657 -0.9982
  118MOL0     H15916   6.583   3.424  10.767  0.2393  0.2741  1.8221
  118MOL0     H15917   6.363   3.525  10.832 -1.6665 -0.2422  0.6090
  118MOL0     H15918   6.204   3.603  10.893 -0.9306 -0.4770 -0.4930
  118MOL0     H15919   6.150   3.752  10.814  0.5433  0.7960 -0.3730
  118MOL0     H15920   6.045   3.831  10.973  2.2358 -0.3262 -4.7913
  118MOL0     H15921   6.155   3.777  11.110  0.8040 -0.0242 -0.2165
  118MOL0     H15922   6.050   3.554  11.098  0.9565  0.5906 -0.9386
  118MOL0     H15923   5.966   3.582  10.960  2.5733 -4.0003  0.9107
  118MOL0     H15924   5.905   3.788  11.166 -0.5799 -0.1237 -1.1968
  118MOL0     H15925   5.797   3.690  11.077  2.1811 -0.7852 -2.2674
  118MOL0     H15926   5.824   3.433  11.420  0.1398 -0.4970  0.0149
  118MOL0     H15927   6.533   3.891  10.913 -2.8054 -0.6793 -0.2786
  118MOL0     H15928   6.831   3.890  10.776  0.1804 -0.8786 -0.5485
  118MOL0     H15929   6.786   3.905  10.946 -1.9629 -3.7529  3.0222
  118MOL0     H15930   6.900   3.780  10.898 -0.4243  0.8482  2.4533
  119MOL0     O15931   8.979   0.101   3.486  0.5645 -0.6124  0.2407
  119MOL0     C15932   9.036  -0.009   3.494  0.6014  0.5084  0.1462
  119MOL0     O15933   9.163  -0.024   3.542  0.6607 -0.1536  0.7351
  119MOL0     C15934   9.215   0.080   3.617 -0.2460 -0.1890  0.6279
  119MOL0     C15935   9.157   0.104   3.740  0.0429 -1.4018 -0.4307
  119MOL0     C15936   9.199   0.213   3.814  0.1075  0.0303 -0.2344
  119MOL0     C15937   9.311   0.283   3.771 -0.8283 -0.1164  0.2825
  119MOL0     O15938   9.341   0.386   3.849  0.1837 -0.9817 -0.3620
  119MOL0     C15939   9.469   0.454   3.834 -0.2303  0.6351  0.2268
  119MOL0     C15940   9.529   0.474   3.974  0.8590 -0.4795  1.9150
  119MOL0     C15941   9.621   0.365   4.019 -0.4177 -0.0797  0.4633
  119MOL0     C15942   9.670   0.388   4.159 -0.1753  0.4704 -0.4888
  119MOL0     C15943   9.762   0.267   4.203  0.1817  0.1478 -0.4447
  119MOL0     C15944   9.873   0.233   4.112  0.4020 -0.1114  0.1432
  119MOL0     C15945   9.992   0.168   4.185 -0.2831  0.1539 -0.1241
  119MOL0     C15946   9.969   0.023   4.218 -0.1339  0.1641 -0.1863
  119MOL0     N15947  10.094  -0.047   4.264  0.1815  0.1638  0.1801
  119MOL0     C15948  10.163  -0.035   4.377 -0.8297 -0.5524  0.3210
  119MOL0     C15949  10.279  -0.101   4.359 -0.4589 -0.2691  0.0263
  119MOL0     C15950  10.394  -0.095   4.454  0.4345 -0.4077  0.4605
  119MOL0     C15951  10.515  -0.019   4.406  0.0113 -0.3556 -0.4121
  119MOL0     C15952  10.637  -0.111   4.349 -0.0350 -0.1972 -0.8231
  119MOL0     C15953  10.764  -0.024   4.328 -0.4181 -0.8409 -0.0543
  119MOL0     O15954  10.845  -0.076   4.222 -0.2801 -0.3537 -0.6032
  119MOL0     C15955  10.980  -0.035   4.222 -0.1977  0.8599  0.3460
  119MOL0     C15956  11.046  -0.071   4.098 -0.5511 -0.4396 -0.2261
  119MOL0     C15957  11.179  -0.036   4.074 -0.4021 -0.2794 -0.2454
  119MOL0     C15958  11.251   0.035   4.171  0.4790  0.2169  0.3497
  119MOL0     C15959  11.381   0.091   4.136 -0.0248  0.5541 -0.9297
  119MOL0     O15960  11.445   0.026   4.036  0.2989 -0.1910  0.5167
  119MOL0     C15961  11.575   0.040   3.995 -0.1401  0.8201  0.5734
  119MOL0     C15962  11.616  -0.042   3.890  0.2086 -0.1058  0.2336
  119MOL0     C15963  11.745  -0.034   3.838  0.9335  0.9294  0.3722
  119MOL0     C15964  11.836   0.050   3.894 -1.1007  0.0745  1.1289
  119MOL0     O15965  11.959   0.034   3.842 -0.7729 -0.2420 -0.6535
  119MOL0     C15966  12.074   0.072   3.927  0.7692  0.8845  0.2814
  119MOL0     C15967  12.120   0.218   3.890  0.0079 -0.0786  0.0981
  119MOL0     C15968  12.250   0.256   3.967 -0.3093 -0.2134  0.2927
  119MOL0     C15969  12.369   0.178   3.906  0.2280 -0.1937 -0.0159
  119MOL0     C15970  12.503   0.203   3.986 -0.8886  0.2944 -0.3180
  119MOL0     C15971  12.625   0.141   3.914 -0.0429 -0.1740 -0.6832
  119MOL0     C15972  12.755   0.168   3.988  0.4895  0.9184 -0.5051
  119MOL0     C15973  12.878   0.099   3.933 -0.6232  0.8223 -0.3446
  119MOL0    Cl15974  13.037   0.172   3.977 -0.6229  0.0846 -0.3523
  119MOL0     C15975  11.796   0.146   3.987 -0.1967 -0.4557 -0.2650
  119MOL0     C15976  11.674   0.134   4.045  0.5593 -0.5380 -0.0292
  119MOL0     O15977  11.416   0.196   4.188  0.2932  0.0224 -0.5118
  119MOL0     C15978  11.188   0.075   4.283 -0.2924 -0.0721  0.4566
  119MOL0     C15979  11.053   0.042   4.310 -0.3055 -0.8252 -0.3975
  119MOL0     N15980  10.265  -0.157   4.234 -0.2792 -0.4547  0.3493
  119MOL0     N15981  10.153  -0.134   4.184  0.0703  0.2490 -0.0807
  119MOL0     C15982   9.372   0.253   3.649 -0.7162 -0.4925 -0.3493
  119MOL0     C15983   9.326   0.154   3.568  0.4383  0.4044  0.0780
  119MOL0     C15984   8.971  -0.139   3.455 -0.6046  0.6815  0.4996
  119MOL0     C15985   9.045  -0.257   3.492  0.3549  0.6193  0.4400
  119MOL0     C15986   9.007  -0.384   3.439  0.1637 -0.6223  0.3069
  119MOL0     C15987   8.879  -0.388   3.380 -0.7208 -0.1385  0.3883
  119MOL0     O15988   8.805  -0.505   3.353  0.3391 -0.2313 -0.2443
  119MOL0     C15989   8.827  -0.548   3.218 -0.6974  0.5225 -0.1876
  119MOL0     C15990   8.765  -0.695   3.204 -0.0488  0.5167  0.9213
  119MOL0     C15991   8.606  -0.704   3.221 -0.4762  0.6182 -0.3669
  119MOL0     C15992   8.529  -0.604   3.136 -0.3949 -0.0742 -0.0112
  119MOL0     C15993   8.535  -0.636   2.992  0.9722  0.3347  0.4943
  119MOL0     C15994   8.545  -0.645   2.874 -0.5268 -0.4579  0.6431
  119MOL0     C15995   8.801  -0.274   3.363  0.2054 -0.1829 -0.2006
  119MOL0     C15996   8.847  -0.148   3.393 -0.4579  0.2508  0.5664
  119MOL0     C15997   8.759  -0.030   3.362  0.1401 -0.4119  0.3944
  119MOL0     H15998   9.072   0.043   3.767 -0.8913  0.1988  0.3734
  119MOL0     H15999   9.160   0.231   3.914  1.8646  0.5991  0.3715
  119MOL0     H16000   9.536   0.388   3.778 -1.4874  1.4953 -2.4382
  119MOL0     H16001   9.466   0.548   3.779  0.7280  0.4778 -0.1197
  119MOL0     H16002   9.451   0.489   4.050  0.2881 -0.9414  1.4324
  119MOL0     H16003   9.575   0.573   3.970 -0.1277  0.1228  3.8557
  119MOL0     H16004   9.700   0.375   3.945 -1.3962 -0.3627 -0.6523
  119MOL0     H16005   9.574   0.267   4.012 -0.8064  0.2443 -2.4883
  119MOL0     H16006   9.721   0.484   4.154  0.3127  0.3438  1.3592
  119MOL0     H16007   9.583   0.390   4.226  0.7267  0.7405  0.7084
  119MOL0     H16008   9.808   0.309   4.293 -1.3979 -2.8013  1.9351
  119MOL0     H16009   9.716   0.174   4.239  2.0203 -1.0518 -1.0824
  119MOL0     H16010   9.834   0.172   4.031 -1.3155 -0.7261  1.3579
  119MOL0     H16011   9.913   0.323   4.065 -3.3471  0.0246 -3.3431
  119MOL0     H16012  10.008   0.207   4.286 -0.2039 -1.7609  0.6600
  119MOL0     H16013  10.088   0.186   4.135  1.6786 -1.7142  2.6627
  119MOL0     H16014   9.899   0.011   4.301 -1.5605 -2.0666 -1.6207
  119MOL0     H16015   9.936  -0.038   4.134 -1.2192  0.8073 -0.2425
  119MOL0     H16016  10.124   0.015   4.466 -0.5823  0.4720 -0.1269
  119MOL0     H16017  10.366  -0.054   4.551 -1.2677  0.0189 -0.1782
  119MOL0     H16018  10.426  -0.200   4.458  2.8210  0.2461  0.0774
  119MOL0     H16019  10.492   0.052   4.326  1.8517 -0.5485 -1.1804
  119MOL0     H16020  10.554   0.037   4.492 -1.1825  1.0850 -0.7599
  119MOL0     H16021  10.614  -0.158   4.252  1.3871  0.1991 -1.3818
  119MOL0     H16022  10.664  -0.197   4.412  0.8747 -0.3931 -1.4544
  119MOL0     H16023  10.814   0.006   4.420  0.4664 -2.1749 -0.0766
  119MOL0     H16024  10.727   0.075   4.299  0.2468 -0.6136 -0.1396
  119MOL0     H16025  10.988  -0.112   4.016 -0.9763 -0.6126  0.1585
  119MOL0     H16026  11.228  -0.059   3.980  2.0645  1.9031  0.3780
  119MOL0     H16027  11.544  -0.112   3.850  0.3147 -0.8165  1.2387
  119MOL0     H16028  11.771  -0.099   3.755  1.3511 -0.7639  1.7637
  119MOL0     H16029  12.045   0.068   4.032 -1.1898  0.8283 -0.2256
  119MOL0     H16030  12.149  -0.005   3.908 -0.2293  0.0911 -0.5833
  119MOL0     H16031  12.130   0.221   3.781  1.1327 -2.7970  0.0420
  119MOL0     H16032  12.050   0.298   3.916  1.0819  0.8531  0.2295
  119MOL0     H16033  12.275   0.362   3.956 -2.5552  0.2252 -1.3925
  119MOL0     H16034  12.247   0.239   4.075 -0.4793  1.6066  0.5964
  119MOL0     H16035  12.382   0.205   3.801 -0.8369 -0.3589 -0.1962
  119MOL0     H16036  12.347   0.070   3.908  0.3430 -0.2009  1.3559
  119MOL0     H16037  12.496   0.164   4.088  1.3611  0.7966  0.0674
  119MOL0     H16038  12.522   0.311   3.993 -1.7171  0.3701  1.1282
  119MOL0     H16039  12.614   0.033   3.896 -1.0314 -0.2898  0.4795
  119MOL0     H16040  12.625   0.197   3.821 -1.5998 -1.9733 -1.8384
  119MOL0     H16041  12.740   0.121   4.085  1.7970  0.9795 -0.2555
  119MOL0     H16042  12.767   0.275   4.008 -0.3823  0.9189  0.0395
  119MOL0     H16043  12.880  -0.009   3.955  1.7627  0.8419 -0.1703
  119MOL0     H16044  12.874   0.108   3.824 -3.1883 -1.8683 -0.6070
  119MOL0     H16045  11.859   0.225   4.026  1.9367 -2.2806  0.2136
  119MOL0     H16046  11.648   0.210   4.118 -0.9997  1.2190 -2.2387
  119MOL0     H16047  11.236   0.144   4.352 -0.5430 -0.1917  0.7532
  119MOL0     H16048  11.013   0.084   4.402  0.7312 -1.4300  0.3555
  119MOL0     H16049   9.456   0.310   3.610 -1.6574  2.8487  2.0524
  119MOL0     H16050   9.362   0.126   3.470 -0.5730 -2.0935  0.3506
  119MOL0     H16051   9.138  -0.248   3.547 -0.1752  1.5064  1.2305
  119MOL0     H16052   9.050  -0.481   3.464  0.9367 -0.7124 -1.2760
  119MOL0     H16053   8.935  -0.547   3.204 -0.2052  2.0905  3.0014
  119MOL0     H16054   8.785  -0.484   3.139  1.1641 -1.3432 -2.8823
  119MOL0     H16055   8.826  -0.759   3.268  2.2129  1.4685 -0.1672
  119MOL0     H16056   8.784  -0.726   3.100  1.1023 -0.0973  1.3008
  119MOL0     H16057   8.582  -0.678   3.324 -1.0771 -0.2969 -0.2661
  119MOL0     H16058   8.570  -0.805   3.199  0.1563 -0.1566  1.9436
  119MOL0     H16059   8.422  -0.609   3.158 -0.1653  2.1192  2.0890
  119MOL0     H16060   8.552  -0.499   3.153  0.4458 -0.2157 -0.2485
  119MOL0     H16061   8.556  -0.655   2.768 -0.2899  0.4369  0.5686
  119MOL0     H16062   8.702  -0.281   3.318 -0.8683  2.4741  1.5078
  119MOL0     H16063   8.747   0.043   3.443  0.5636  0.6729 -0.4974
  119MOL0     H16064   8.796   0.027   3.276  1.2093 -0.0488  1.0751
  119MOL0     H16065   8.658  -0.062   3.336  0.0152  0.1363  0.1951
  120MOL0     O16066   1.594   1.531   7.650  0.2653  0.5917 -0.2505
  120MOL0     C16067   1.568   1.606   7.739  0.2627  1.4085 -0.8178
  120MOL0     O16068   1.664   1.662   7.824 -0.0151 -0.0679 -0.3850
  120MOL0     C16069   1.793   1.664   7.794  0.7470  1.0315 -0.3154
  120MOL0     C16070   1.835   1.724   7.674  0.3552 -0.0852 -0.1253
  120MOL0     C16071   1.967   1.717   7.639  0.3853 -0.2003 -0.5604
  120MOL0     C16072   2.062   1.659   7.716 -0.3352 -0.7577 -0.1954
  120MOL0     O16073   2.187   1.665   7.659 -0.4855 -0.4288 -0.4156
  120MOL0     C16074   2.308   1.641   7.749  0.0183  0.2064 -0.3571
  120MOL0     C16075   2.440   1.670   7.678 -0.3486 -0.3611 -0.3572
  120MOL0     C16076   2.567   1.639   7.754 -0.4452  0.6238  0.3531
  120MOL0     C16077   2.684   1.717   7.696 -0.2358  0.0755 -0.1246
  120MOL0     C16078   2.834   1.680   7.731 -0.3207  0.4918  0.3527
  120MOL0     C16079   2.882   1.720   7.866  0.2142 -0.8740  0.1330
  120MOL0     C16080   3.028   1.676   7.887 -0.1805  0.3590 -0.2887
  120MOL0     C16081   3.098   1.717   8.021  0.3688  0.0389  0.5905
  120MOL0     N16082   3.142   1.855   8.028  0.3598 -0.3471 -0.4105
  120MOL0     C16083   3.248   1.910   7.960  0.0789  0.2114  0.0256
  120MOL0     C16084   3.269   2.038   8.014  0.6272  0.3898  1.3671
  120MOL0     C16085   3.382   2.128   7.976 -0.2435 -0.3447 -0.2536
  120MOL0     C16086   3.484   2.162   8.082 -1.4641  0.1900 -0.6540
  120MOL0     C16087   3.549   2.038   8.142 -0.5036 -0.5592  0.4753
  120MOL0     C16088   3.654   2.071   8.245  0.1718  0.0483  0.0409
  120MOL0     O16089   3.770   2.125   8.173 -0.4838  0.0074 -0.1983
  120MOL0     C16090   3.888   2.142   8.229 -0.9646  0.2667 -0.3607
  120MOL0     C16091   3.910   2.154   8.361 -1.0782  0.6777 -0.8117
  120MOL0     C16092   4.041   2.188   8.415  0.3074  0.0136 -0.2949
  120MOL0     C16093   4.151   2.193   8.323  0.1202  0.4872 -0.3086
  120MOL0     C16094   4.280   2.232   8.361 -0.1720 -1.1199  0.0567
  120MOL0     O16095   4.371   2.185   8.270 -0.8137 -0.1055  0.1194
  120MOL0     C16096   4.503   2.192   8.303  0.0976 -0.6748  0.2172
  120MOL0     C16097   4.578   2.313   8.298  0.4360  0.6548 -0.4102
  120MOL0     C16098   4.707   2.314   8.360 -0.1378 -0.0298 -0.0230
  120MOL0     C16099   4.762   2.207   8.422 -0.1244  0.1982 -0.5341
  120MOL0     O16100   4.892   2.194   8.470 -0.0450  0.3595  0.5757
  120MOL0     C16101   4.992   2.280   8.426 -1.0551 -0.4349 -0.0955
  120MOL0     C16102   5.113   2.251   8.505  0.2808  0.5191  0.5269
  120MOL0     C16103   5.231   2.340   8.478 -0.8890 -0.8146 -0.7691
  120MOL0     C16104   5.367   2.285   8.530 -0.0873 -0.3761  0.0157
  120MOL0     C16105   5.483   2.386   8.493 -0.1808  0.0673 -0.1235
  120MOL0     C16106   5.618   2.365   8.567  0.8663 -0.2213  0.1129
  120MOL0     C16107   5.615   2.386   8.715 -0.3566  0.4758 -0.5749
  120MOL0     C16108   5.741   2.320   8.771 -0.3208 -0.8022  0.2725
  120MOL0    Cl16109   5.888   2.421   8.714  0.1090 -0.1270 -0.0752
  120MOL0     C16110   4.682   2.089   8.430  0.9462 -0.5007 -0.1031
  120MOL0     C16111   4.567   2.081   8.344 -0.7642  0.6429 -0.0624
  120MOL0     O16112   4.304   2.290   8.468 -0.2822  0.5385  1.0330
  120MOL0     C16113   4.124   2.187   8.188 -0.2380 -0.1606  0.6899
  120MOL0     C16114   3.994   2.162   8.137  0.8700  0.8381 -0.7695
  120MOL0     N16115   3.172   2.051   8.111 -0.5145  0.3333 -0.5070
  120MOL0     N16116   3.102   1.943   8.126  0.1535  0.1944  0.1752
  120MOL0     C16117   2.024   1.595   7.835  0.2283 -0.3465 -0.0445
  120MOL0     C16118   1.887   1.605   7.876 -0.8530  0.3915  1.1070
  120MOL0     C16119   1.425   1.631   7.781 -0.1921  0.4320  0.3180
  120MOL0     C16120   1.405   1.674   7.912  0.1323  0.6034  0.6682
  120MOL0     C16121   1.274   1.707   7.959 -0.8336  0.1449  1.0281
  120MOL0     C16122   1.160   1.689   7.878  0.0034  0.0855  0.3929
  120MOL0     O16123   1.036   1.728   7.918 -0.1769 -0.7494 -0.2863
  120MOL0     C16124   1.025   1.774   8.061 -0.5264  0.1828 -0.5878
  120MOL0     C16125   0.883   1.800   8.104  0.1984  1.1041 -0.7625
  120MOL0     C16126   0.794   1.673   8.086 -0.5735 -0.5838  1.1664
  120MOL0     C16127   0.675   1.704   7.998  0.9280 -0.3002 -0.2270
  120MOL0     C16128   0.708   1.696   7.856 -1.1693  0.3360 -0.3968
  120MOL0     C16129   0.750   1.684   7.741  0.3631 -0.0289  0.6288
  120MOL0     C16130   1.175   1.648   7.750 -0.4408  0.5955  0.3385
  120MOL0     C16131   1.301   1.604   7.703  0.5622 -0.3397 -0.7946
  120MOL0     C16132   1.303   1.532   7.577  0.0320  0.4674 -0.1791
  120MOL0     H16133   1.767   1.772   7.604 -1.0850  0.0643  1.3174
  120MOL0     H16134   2.003   1.768   7.550  0.2749 -0.8544 -0.9892
  120MOL0     H16135   2.295   1.694   7.844 -0.2723 -1.7320  0.7268
  120MOL0     H16136   2.313   1.533   7.763  1.7708  0.6240  3.8508
  120MOL0     H16137   2.433   1.775   7.645 -2.0944 -0.2581  0.1996
  120MOL0     H16138   2.460   1.604   7.593  1.0449 -0.7227  0.2369
  120MOL0     H16139   2.591   1.534   7.732  1.0477  0.8201  0.9080
  120MOL0     H16140   2.567   1.661   7.861 -0.8071 -1.5130  0.8425
  120MOL0     H16141   2.678   1.698   7.588  2.0350  1.7970 -0.6212
  120MOL0     H16142   2.661   1.822   7.716 -0.2695 -0.2299  1.5648
  120MOL0     H16143   2.837   1.571   7.732 -3.4235  0.3228  1.1375
  120MOL0     H16144   2.893   1.726   7.651  1.2762 -1.7647  0.1438
  120MOL0     H16145   2.874   1.829   7.870 -0.6878 -0.8295 -1.6762
  120MOL0     H16146   2.819   1.689   7.950  2.5613 -0.1423  2.2994
  120MOL0     H16147   3.086   1.698   7.798  0.5477 -1.1225 -0.2173
  120MOL0     H16148   3.020   1.567   7.876  0.5132  0.0631  1.6500
  120MOL0     H16149   3.012   1.708   8.088 -0.2446  1.2471  0.0059
  120MOL0     H16150   3.175   1.646   8.050 -0.2775 -0.7624  0.3943
  120MOL0     H16151   3.293   1.857   7.876  1.8280  2.3960 -0.5133
  120MOL0     H16152   3.444   2.092   7.894 -0.4218  1.7767 -1.3980
  120MOL0     H16153   3.345   2.225   7.941 -0.8216 -0.4197  0.1322
  120MOL0     H16154   3.562   2.232   8.049 -0.1764 -0.0574  1.6190
  120MOL0     H16155   3.426   2.212   8.160  0.2599  0.9446  0.1977
  120MOL0     H16156   3.596   1.968   8.072 -1.3913  1.1402 -1.9740
  120MOL0     H16157   3.470   1.971   8.176  0.9160 -2.6333 -0.1004
  120MOL0     H16158   3.690   1.984   8.300 -0.1720  0.2961  0.6589
  120MOL0     H16159   3.612   2.147   8.311  0.7039 -1.0671  1.7303
  120MOL0     H16160   3.823   2.142   8.424 -1.5821  1.2367 -1.3809
  120MOL0     H16161   4.057   2.193   8.523 -1.2975 -0.4485 -0.0062
  120MOL0     H16162   4.527   2.395   8.247 -0.2864 -1.5083 -3.4382
  120MOL0     H16163   4.756   2.411   8.359 -0.2232  0.2504  4.1904
  120MOL0     H16164   5.006   2.278   8.318 -1.4815 -0.3554 -0.1546
  120MOL0     H16165   4.970   2.385   8.451  1.7574  0.3825 -0.7059
  120MOL0     H16166   5.073   2.253   8.607  0.2522 -0.1722  0.5294
  120MOL0     H16167   5.147   2.150   8.481  0.8336  0.5652  1.0881
  120MOL0     H16168   5.241   2.362   8.372 -1.5260  1.1823 -0.4670
  120MOL0     H16169   5.200   2.435   8.524 -0.1755 -0.0083 -1.9174
  120MOL0     H16170   5.397   2.194   8.477  1.3157  0.0547  0.0320
  120MOL0     H16171   5.368   2.281   8.639  1.9961  0.6384  0.0836
  120MOL0     H16172   5.454   2.489   8.513  1.3373  0.8610 -1.7370
  120MOL0     H16173   5.497   2.370   8.385  0.7833  1.2067 -0.1769
  120MOL0     H16174   5.654   2.263   8.553  0.7291 -0.5608  1.9432
  120MOL0     H16175   5.692   2.434   8.525 -0.0075  2.1719  2.1678
  120MOL0     H16176   5.531   2.333   8.760 -0.1242  1.3126  0.9180
  120MOL0     H16177   5.611   2.490   8.750 -2.1942  0.2652 -0.0698
  120MOL0     H16178   5.743   2.325   8.880  2.2564 -1.1530  0.2856
  120MOL0     H16179   5.738   2.215   8.739 -0.0559 -0.3138 -1.4496
  120MOL0     H16180   4.713   1.995   8.476 -1.8120  0.3842  4.2022
  120MOL0     H16181   4.507   1.991   8.334  1.0947 -0.4273 -2.7009
  120MOL0     H16182   4.201   2.213   8.116  1.7140 -2.0982  1.9658
  120MOL0     H16183   3.978   2.165   8.029 -3.1648  1.4046 -0.3100
  120MOL0     H16184   2.092   1.539   7.897  2.2685  1.5317 -0.4662
  120MOL0     H16185   1.857   1.548   7.963 -0.0064 -2.6027 -0.4276
  120MOL0     H16186   1.478   1.699   7.989 -1.3906  1.3359  1.9229
  120MOL0     H16187   1.275   1.751   8.059 -0.3452 -0.0606  1.1180
  120MOL0     H16188   1.074   1.871   8.071 -0.1013 -0.0481 -0.4573
  120MOL0     H16189   1.072   1.696   8.121 -1.9355  0.0168  0.3413
  120MOL0     H16190   0.852   1.874   8.030  1.4927  1.4594 -0.9688
  120MOL0     H16191   0.875   1.833   8.208  1.7583 -0.6717 -0.0216
  120MOL0     H16192   0.750   1.648   8.183 -3.5187  1.2421  0.4549
  120MOL0     H16193   0.846   1.589   8.039 -2.8772 -1.0532 -0.7387
  120MOL0     H16194   0.597   1.635   8.031  2.1389 -0.8515  1.5939
  120MOL0     H16195   0.637   1.805   8.014  2.5252  0.4495 -0.9925
  120MOL0     H16196   0.783   1.667   7.640  2.5441  2.0390  0.8979
  120MOL0     H16197   1.087   1.632   7.688 -2.0018  0.4823  2.4547
  120MOL0     H16198   1.338   1.430   7.595  0.8123  1.3184  4.6901
  120MOL0     H16199   1.204   1.530   7.530  0.2635 -1.8930 -0.7111
  120MOL0     H16200   1.368   1.581   7.504 -1.4866  2.7543 -0.1086
  121MOL0     O16201   2.676   3.294   2.956  0.1018  0.1911 -0.1761
  121MOL0     C16202   2.603   3.368   2.888  0.7274 -0.6787 -0.3494
  121MOL0     O16203   2.648   3.470   2.808  0.5237 -0.3252 -0.2141
  121MOL0     C16204   2.784   3.496   2.782 -0.0949 -0.0994  0.1215
  121MOL0     C16205   2.801   3.593   2.689  0.2636 -0.2731  0.2382
  121MOL0     C16206   2.932   3.630   2.650 -0.0835  0.0324 -0.1175
  121MOL0     C16207   3.037   3.580   2.719 -0.8261  0.0428 -0.3530
  121MOL0     O16208   3.149   3.644   2.675  0.7519 -0.0949 -0.6177
  121MOL0     C16209   3.278   3.612   2.729  1.0278 -0.3996 -0.7236
  121MOL0     C16210   3.372   3.733   2.700  0.9521  1.0540  0.3121
  121MOL0     C16211   3.520   3.732   2.737 -0.6912 -0.7362 -0.5775
  121MOL0     C16212   3.578   3.869   2.704  0.9637  0.5003 -0.8866
  121MOL0     C16213   3.741   3.858   2.692 -0.2682  0.0269  0.3199
  121MOL0     C16214   3.821   3.826   2.823  0.6658 -0.9463  0.2217
  121MOL0     C16215   3.975   3.822   2.794  0.4086 -0.4248  0.0309
  121MOL0     C16216   4.036   3.954   2.749  0.0352  0.0688 -0.0089
  121MOL0     N16217   4.183   3.944   2.749 -0.4758  0.4133 -1.1541
  121MOL0     C16218   4.256   3.864   2.666 -0.1016  0.4448 -0.0957
  121MOL0     C16219   4.385   3.911   2.681  0.5315 -0.6050 -0.6363
  121MOL0     C16220   4.501   3.869   2.601 -0.1829 -0.3213  0.5532
  121MOL0     C16221   4.519   3.978   2.481  0.0252  1.1211 -1.1819
  121MOL0     C16222   4.662   3.957   2.417 -0.4225 -0.4465 -0.1407
  121MOL0     C16223   4.679   3.820   2.347  0.2498  0.1543  0.4584
  121MOL0     O16224   4.792   3.828   2.262  0.5339  0.1762 -0.5393
  121MOL0     C16225   4.857   3.707   2.238  0.6748  0.3881 -0.3873
  121MOL0     C16226   4.831   3.583   2.289 -0.3589  0.6877  0.3206
  121MOL0     C16227   4.900   3.466   2.240 -0.2404  0.0181 -0.7998
  121MOL0     C16228   5.017   3.483   2.165  0.0507 -0.7392  0.3161
  121MOL0     C16229   5.100   3.369   2.126  0.8007  0.8037  0.0534
  121MOL0     O16230   5.091   3.250   2.192 -0.3430  0.1498 -0.5324
  121MOL0     C16231   5.197   3.166   2.167  0.2611 -0.0143  0.0183
  121MOL0     C16232   5.291   3.150   2.266  1.1631 -0.2751  0.3677
  121MOL0     C16233   5.405   3.068   2.240 -0.0604 -0.0483  0.4664
  121MOL0     C16234   5.408   2.992   2.122 -0.4668  0.1958 -0.5600
  121MOL0     O16235   5.520   2.910   2.102  0.1863  0.2102 -0.1418
  121MOL0     C16236   5.519   2.784   2.026 -0.0535  0.7898  0.3002
  121MOL0     C16237   5.618   2.682   2.091 -0.2588 -0.9842 -0.7598
  121MOL0     C16238   5.613   2.547   2.025  0.3929  0.9429  0.0523
  121MOL0     C16239   5.747   2.472   2.032  0.1460  0.2566 -0.3182
  121MOL0     C16240   5.781   2.418   2.172 -0.4626 -0.8199  0.0478
  121MOL0     C16241   5.912   2.346   2.179  0.2770  0.1827  0.6053
  121MOL0     C16242   5.971   2.311   2.308 -0.0190  0.3469  0.4649
  121MOL0     C16243   6.110   2.263   2.300 -0.7091 -0.3978 -0.1639
  121MOL0    Cl16244   6.126   2.117   2.211  0.2384 -0.3246  0.3616
  121MOL0     C16245   5.311   3.000   2.027 -0.1631 -0.8150  0.5438
  121MOL0     C16246   5.208   3.095   2.046  0.3853  0.1335  0.2501
  121MOL0     O16247   5.178   3.388   2.027  0.2219 -0.4976 -0.5023
  121MOL0     C16248   5.040   3.609   2.116 -0.7631  0.9443 -0.4797
  121MOL0     C16249   4.964   3.718   2.153 -1.1195  0.0696 -0.8144
  121MOL0     N16250   4.386   3.991   2.792 -0.5129  0.4828 -0.1169
  121MOL0     N16251   4.262   4.012   2.827  0.4055 -0.4563  0.1379
  121MOL0     C16252   3.020   3.492   2.827 -0.6891  0.1782 -0.3192
  121MOL0     C16253   2.891   3.449   2.850  0.4907  0.6000  0.5824
  121MOL0     C16254   2.452   3.343   2.887 -0.6064 -0.5039 -0.2451
  121MOL0     C16255   2.382   3.422   2.794 -0.0329 -0.4445 -1.2495
  121MOL0     C16256   2.239   3.424   2.803  0.3238 -0.4697 -0.5404
  121MOL0     C16257   2.165   3.343   2.887  0.9239  0.0301  0.3782
  121MOL0     O16258   2.028   3.343   2.906 -0.0204 -0.3276 -0.0017
  121MOL0     C16259   1.948   3.430   2.827  0.0684 -0.6930 -0.1076
  121MOL0     C16260   1.807   3.412   2.863  0.0632  0.3962 -0.7189
  121MOL0     C16261   1.756   3.267   2.853 -0.5201  0.1361 -0.0561
  121MOL0     C16262   1.600   3.284   2.872 -0.7853 -0.4684  0.1236
  121MOL0     C16263   1.517   3.165   2.871 -0.3722  0.9614  0.4434
  121MOL0     C16264   1.440   3.071   2.866 -0.7579  0.5533  0.1951
  121MOL0     C16265   2.239   3.253   2.965  0.0068 -0.4469  0.0470
  121MOL0     C16266   2.380   3.244   2.972 -0.1200  0.7108  0.5987
  121MOL0     C16267   2.441   3.139   3.060 -0.3028 -1.1617 -0.4014
  121MOL0     H16268   2.715   3.637   2.638  0.3797  1.7623  1.6678
  121MOL0     H16269   2.954   3.700   2.571  0.0579  0.2639  0.1278
  121MOL0     H16270   3.263   3.596   2.837  0.7572 -0.8919 -0.8297
  121MOL0     H16271   3.327   3.522   2.691  1.8240 -1.3356  2.2301
  121MOL0     H16272   3.337   3.830   2.737  3.9647  2.2299  0.4010
  121MOL0     H16273   3.360   3.745   2.592 -0.5450  0.4046  0.3809
  121MOL0     H16274   3.573   3.660   2.674  1.3479 -2.0222  2.4223
  121MOL0     H16275   3.547   3.714   2.841  1.9671  3.0809 -0.4261
  121MOL0     H16276   3.545   3.892   2.603  1.3977 -0.9888 -1.3847
  121MOL0     H16277   3.542   3.943   2.777 -2.6894 -2.8863  1.1125
  121MOL0     H16278   3.760   3.775   2.624 -1.5119  2.0711 -2.7553
  121MOL0     H16279   3.777   3.953   2.652 -0.7668  0.9135  1.8761
  121MOL0     H16280   3.799   3.895   2.905  1.1441 -0.3676 -0.1346
  121MOL0     H16281   3.771   3.737   2.863 -1.6674 -0.2979 -1.0426
  121MOL0     H16282   4.000   3.749   2.716 -1.6248 -1.1650  0.0141
  121MOL0     H16283   4.023   3.808   2.891  5.4411  2.4929 -1.6857
  121MOL0     H16284   4.012   3.964   2.643 -1.1839 -0.4466  0.2092
  121MOL0     H16285   4.000   4.041   2.805  0.6618 -0.4464  1.2384
  121MOL0     H16286   4.222   3.790   2.594  0.0834 -0.3100  0.5706
  121MOL0     H16287   4.594   3.857   2.658  1.1133  0.7551 -1.2372
  121MOL0     H16288   4.488   3.773   2.551  1.3964 -1.3016  1.9185
  121MOL0     H16289   4.445   3.974   2.401 -0.6016 -1.0154 -0.5749
  121MOL0     H16290   4.510   4.078   2.523  1.2026  0.8150 -0.1116
  121MOL0     H16291   4.734   3.957   2.499  0.3432  1.2039 -0.7759
  121MOL0     H16292   4.672   4.038   2.344 -0.2731  0.3821  0.7789
  121MOL0     H16293   4.589   3.800   2.288  1.8446  0.3146 -2.1502
  121MOL0     H16294   4.692   3.745   2.427  1.3744 -0.3393 -0.1688
  121MOL0     H16295   4.752   3.565   2.360  1.3014 -1.6744  1.6907
  121MOL0     H16296   4.873   3.365   2.271  0.0640  0.3896  0.7677
  121MOL0     H16297   5.281   3.204   2.359  0.1965 -0.4602  0.3849
  121MOL0     H16298   5.480   3.059   2.318 -1.9654  0.8458  2.5398
  121MOL0     H16299   5.423   2.733   2.023  0.5477 -0.4076  0.8650
  121MOL0     H16300   5.548   2.805   1.923 -0.6795  2.2884  0.4032
  121MOL0     H16301   5.718   2.720   2.066 -1.7765  4.2431 -0.1794
  121MOL0     H16302   5.595   2.688   2.198  0.9551 -0.5960 -0.5109
  121MOL0     H16303   5.542   2.494   2.089 -0.2610  1.8078  0.0547
  121MOL0     H16304   5.588   2.552   1.919  0.1788  2.6636  0.1613
  121MOL0     H16305   5.819   2.547   1.998 -1.0479  1.2730 -0.6771
  121MOL0     H16306   5.742   2.385   1.965 -0.9861 -0.9702  1.2814
  121MOL0     H16307   5.699   2.349   2.193 -0.2812 -0.7599  0.9879
  121MOL0     H16308   5.774   2.501   2.243 -2.0371 -2.0521  1.4386
  121MOL0     H16309   5.915   2.264   2.106 -0.6046  0.3406  0.3722
  121MOL0     H16310   5.984   2.420   2.142  2.8363 -2.3729  0.1237
  121MOL0     H16311   5.907   2.239   2.360  0.0241 -1.1398 -1.4215
  121MOL0     H16312   5.975   2.404   2.365  0.9082  0.1089  0.8042
  121MOL0     H16313   6.173   2.347   2.270 -0.3403 -0.3721  0.6797
  121MOL0     H16314   6.139   2.243   2.403 -2.5014  1.9367  0.8995
  121MOL0     H16315   5.314   2.938   1.938  1.7046 -2.6017  1.7761
  121MOL0     H16316   5.136   3.112   1.966 -0.4980  1.1381  1.2250
  121MOL0     H16317   5.121   3.628   2.046  0.7129  2.7561  1.5570
  121MOL0     H16318   5.008   3.813   2.127  1.4570 -0.3875  1.3958
  121MOL0     H16319   3.101   3.450   2.885  0.2849  2.8418  0.4277
  121MOL0     H16320   2.882   3.371   2.926 -0.9886 -1.5745 -1.6695
  121MOL0     H16321   2.438   3.482   2.723  1.2392  1.3685  1.1407
  121MOL0     H16322   2.184   3.486   2.734 -0.1282 -0.2161  0.0439
  121MOL0     H16323   1.969   3.395   2.725  1.1550 -1.5982  0.4000
  121MOL0     H16324   1.979   3.534   2.843  0.8799 -1.2115  2.0702
  121MOL0     H16325   1.748   3.480   2.801  2.1586  1.6506 -1.4276
  121MOL0     H16326   1.791   3.435   2.969  0.8648  2.0922 -0.9364
  121MOL0     H16327   1.797   3.213   2.940  0.4361  0.4476 -0.3060
  121MOL0     H16328   1.779   3.232   2.752  0.2047  0.0504  0.1357
  121MOL0     H16329   1.558   3.341   2.956 -2.0027 -0.9196 -0.1597
  121MOL0     H16330   1.570   3.340   2.783 -1.7203 -0.3424  0.4996
  121MOL0     H16331   1.366   2.993   2.864 -0.7580  0.4875 -2.7943
  121MOL0     H16332   2.180   3.188   3.030  0.8395 -0.3611  0.9236
  121MOL0     H16333   2.366   3.089   3.122  0.2700 -0.2318  1.0850
  121MOL0     H16334   2.491   3.060   3.002 -0.4542  0.0741 -2.3268
  121MOL0     H16335   2.516   3.183   3.126 -1.4443 -0.1977  0.2903
  122MOL0     O16336   9.603   0.596  10.338  0.5518 -0.0616  0.0707
  122MOL0     C16337   9.567   0.485  10.359 -0.2391  0.4178 -1.0541
  122MOL0     O16338   9.650   0.370  10.344 -0.5638  0.3624 -0.0168
  122MOL0     C16339   9.783   0.401  10.328 -0.3601  0.7309  0.3257
  122MOL0     C16340   9.852   0.432  10.444  1.1579  0.0679 -1.1486
  122MOL0     C16341   9.984   0.463  10.439  0.3513 -0.1887 -0.6451
  122MOL0     C16342  10.055   0.460  10.322  0.0373 -0.6253  0.5869
  122MOL0     O16343  10.182   0.499  10.319 -0.2439  1.0244  0.4460
  122MOL0     C16344  10.221   0.593  10.221  0.3067 -0.0526  0.2062
  122MOL0     C16345  10.361   0.643  10.247 -0.1617  0.1246  0.1113
  122MOL0     C16346  10.472   0.534  10.256  0.3368 -0.1584  0.0317
  122MOL0     C16347  10.609   0.599  10.283 -0.1096  0.4599 -1.1334
  122MOL0     C16348  10.728   0.501  10.297  0.3921 -0.2057 -0.1615
  122MOL0     C16349  10.855   0.569  10.331 -0.2035 -0.6273  0.2902
  122MOL0     C16350  10.977   0.473  10.313 -0.0291 -0.0123  0.4793
  122MOL0     C16351  11.109   0.548  10.313  0.4707  0.5894 -0.4928
  122MOL0     N16352  11.135   0.609  10.176 -0.1733  0.8969 -0.3985
  122MOL0     C16353  11.179   0.541  10.064  0.0674  0.1720 -0.2674
  122MOL0     C16354  11.188   0.641   9.971  0.2394 -0.3914  0.1662
  122MOL0     C16355  11.251   0.612   9.837 -0.6640  0.5936  1.2144
  122MOL0     C16356  11.404   0.591   9.869 -0.6244  0.4085  0.3964
  122MOL0     C16357  11.480   0.596   9.730 -0.4445  0.2305 -1.1619
  122MOL0     C16358  11.630   0.597   9.744 -0.2825 -0.4852 -0.8072
  122MOL0     O16359  11.693   0.587   9.616  0.3327 -0.9050 -0.2891
  122MOL0     C16360  11.801   0.667   9.588  1.0147  0.0171  0.3443
  122MOL0     C16361  11.894   0.713   9.680  0.1928  0.1568 -0.3497
  122MOL0     C16362  12.008   0.790   9.638 -0.4838  0.7723 -0.1272
  122MOL0     C16363  12.029   0.827   9.500 -0.2677 -0.3859 -1.1532
  122MOL0     C16364  12.154   0.910   9.467  0.3264 -0.1659 -0.4539
  122MOL0     O16365  12.190   0.937   9.339  0.0069 -0.0819 -0.0664
  122MOL0     C16366  12.310   0.999   9.317  0.4124 -0.1957 -0.5845
  122MOL0     C16367  12.433   0.948   9.362  0.4424 -0.4002  0.3518
  122MOL0     C16368  12.550   1.032   9.337  0.4253  0.2881 -0.4947
  122MOL0     C16369  12.542   1.164   9.304  0.6575  0.2288  0.2621
  122MOL0     O16370  12.659   1.227   9.284 -0.3838  0.0683  0.3621
  122MOL0     C16371  12.664   1.335   9.185  0.1607  0.6589  0.0709
  122MOL0     C16372  12.794   1.419   9.189 -0.3882 -0.1370  0.0553
  122MOL0     C16373  12.920   1.334   9.165  0.5896 -0.1578  0.9895
  122MOL0     C16374  13.051   1.404   9.196  0.5867  0.1506  0.6585
  122MOL0     C16375  13.170   1.315   9.162 -0.0917  0.0365  0.0484
  122MOL0     C16376  13.167   1.188   9.257 -0.3872  0.1203  0.4985
  122MOL0     C16377  13.284   1.099   9.219 -0.2913 -0.4523 -0.1744
  122MOL0     C16378  13.292   0.983   9.317 -0.2384 -0.3460  0.8647
  122MOL0    Cl16379  13.407   0.862   9.255 -0.2359 -0.2402 -0.0691
  122MOL0     C16380  12.411   1.215   9.286 -0.5823 -0.1940  0.5622
  122MOL0     C16381  12.298   1.133   9.269  0.2920 -0.2604 -0.7828
  122MOL0     O16382  12.221   0.946   9.560 -0.2295 -0.3165 -0.3322
  122MOL0     C16383  11.940   0.767   9.410  0.2178 -0.1734  0.0765
  122MOL0     C16384  11.830   0.692   9.456  0.0337  0.2593 -0.0283
  122MOL0     N16385  11.161   0.758  10.027  0.2468  0.0191  0.0709
  122MOL0     N16386  11.136   0.744  10.155 -0.1476  0.2717 -0.3254
  122MOL0     C16387   9.987   0.432  10.204  0.4056  0.8989 -1.2393
  122MOL0     C16388   9.855   0.401  10.206  0.1757  0.5073  0.3556
  122MOL0     C16389   9.429   0.470  10.397  0.0927 -0.7999  0.2568
  122MOL0     C16390   9.373   0.553  10.494  0.0043 -1.0884 -0.3117
  122MOL0     C16391   9.244   0.537  10.537 -0.2275  0.2275 -0.1820
  122MOL0     C16392   9.167   0.431  10.496  0.8469  0.0014  0.4163
  122MOL0     O16393   9.039   0.420  10.552  0.4526 -0.2607  0.7120
  122MOL0     C16394   8.952   0.332  10.477  0.5383  0.0954 -1.2397
  122MOL0     C16395   8.818   0.334  10.539  0.4250  0.6593  0.0701
  122MOL0     C16396   8.715   0.281  10.442  0.1844  0.4589 -0.8240
  122MOL0     C16397   8.574   0.307  10.490  0.2613 -1.4201  0.2781
  122MOL0     C16398   8.544   0.455  10.487  0.0665  0.0557 -0.1062
  122MOL0     C16399   8.512   0.574  10.496 -0.1545  0.2510 -0.6757
  122MOL0     C16400   9.209   0.353  10.387 -0.7069 -0.2597 -0.2720
  122MOL0     C16401   9.337   0.371  10.338  0.1652 -0.3667 -0.4007
  122MOL0     C16402   9.386   0.288  10.231 -0.5265 -0.6773  0.2681
  122MOL0     H16403   9.802   0.423  10.540  0.8224 -0.0511 -1.3334
  122MOL0     H16404  10.030   0.489  10.534  0.9351 -0.3976 -0.8658
  122MOL0     H16405  10.223   0.550  10.121  0.2697 -2.6136  1.2471
  122MOL0     H16406  10.161   0.684  10.209  1.3995  0.6357 -0.3499
  122MOL0     H16407  10.358   0.692  10.345 -2.5436  1.3148 -0.4958
  122MOL0     H16408  10.386   0.719  10.172 -0.2092  0.6989  0.6678
  122MOL0     H16409  10.479   0.480  10.161  2.4430 -1.9522  1.1144
  122MOL0     H16410  10.441   0.460  10.331 -0.7846 -0.5461 -0.7874
  122MOL0     H16411  10.620   0.669  10.200 -2.3049 -0.5343 -2.3378
  122MOL0     H16412  10.601   0.656  10.376 -0.4160  0.4639 -1.1614
  122MOL0     H16413  10.706   0.434  10.380 -1.2087 -0.3610 -0.6689
  122MOL0     H16414  10.746   0.448  10.203  0.5216  0.4253 -0.5006
  122MOL0     H16415  10.870   0.652  10.261  3.4959 -0.2073  1.3475
  122MOL0     H16416  10.843   0.607  10.433  0.9684 -0.0612  0.2360
  122MOL0     H16417  10.974   0.435  10.211  2.7851  3.2145 -1.0324
  122MOL0     H16418  10.980   0.389  10.383  0.5612 -0.6241 -0.2670
  122MOL0     H16419  11.100   0.633  10.381 -1.7340  1.3899 -1.6792
  122MOL0     H16420  11.200   0.496  10.345  0.9722  1.6703 -0.1267
  122MOL0     H16421  11.210   0.437  10.062  1.9146  0.5937  2.4592
  122MOL0     H16422  11.192   0.534   9.788 -0.5238  1.1284  0.1749
  122MOL0     H16423  11.246   0.699   9.771  0.6451  0.7854  1.3285
  122MOL0     H16424  11.434   0.677   9.930 -3.4164  2.3573 -0.7790
  122MOL0     H16425  11.419   0.496   9.922 -1.7709  0.0947  0.1773
  122MOL0     H16426  11.458   0.686   9.670 -0.6834 -0.5947 -2.3488
  122MOL0     H16427  11.456   0.508   9.669 -1.0181  0.2267 -0.9333
  122MOL0     H16428  11.653   0.522   9.820 -2.1573  2.1352  2.6153
  122MOL0     H16429  11.661   0.693   9.785 -1.0018 -1.3602  2.0139
  122MOL0     H16430  11.884   0.693   9.786 -1.1639 -1.5397 -0.7505
  122MOL0     H16431  12.084   0.817   9.710 -0.3224  1.6875 -0.6284
  122MOL0     H16432  12.435   0.843   9.390 -1.6894 -0.7449 -0.5604
  122MOL0     H16433  12.648   0.991   9.362 -0.2193 -1.3789 -0.5839
  122MOL0     H16434  12.648   1.295   9.084  0.0627 -2.9257  1.3536
  122MOL0     H16435  12.584   1.407   9.206 -0.9757 -0.8588  1.2024
  122MOL0     H16436  12.784   1.489   9.106  0.0421 -0.8025 -0.5664
  122MOL0     H16437  12.801   1.484   9.277 -0.3865 -0.5085  0.3360
  122MOL0     H16438  12.910   1.248   9.232  1.7520 -1.3782 -0.3541
  122MOL0     H16439  12.933   1.290   9.066 -0.7483 -1.5314  1.3793
  122MOL0     H16440  13.044   1.437   9.299  2.1381 -1.6694  1.4197
  122MOL0     H16441  13.053   1.497   9.138 -1.1639  0.9198  1.7736
  122MOL0     H16442  13.266   1.366   9.176  0.6671 -0.9973 -1.1209
  122MOL0     H16443  13.167   1.281   9.058  1.2454  0.6125 -0.2037
  122MOL0     H16444  13.181   1.207   9.363  4.0048 -2.3032  0.5898
  122MOL0     H16445  13.076   1.135   9.229 -1.0591  2.1075 -1.3702
  122MOL0     H16446  13.372   1.164   9.230  0.7172 -2.0079  1.5700
  122MOL0     H16447  13.274   1.070   9.114 -1.2493  1.3781 -0.6247
  122MOL0     H16448  13.334   1.027   9.408 -0.6534 -0.7423  1.2542
  122MOL0     H16449  13.189   0.954   9.338 -0.5264 -0.1004 -0.1840
  122MOL0     H16450  12.394   1.318   9.255  3.2976  0.1985 -0.8873
  122MOL0     H16451  12.201   1.172   9.237 -0.3268 -1.0091  0.1559
  122MOL0     H16452  11.960   0.781   9.304  0.5660 -0.2385  0.1307
  122MOL0     H16453  11.767   0.650   9.379  0.8168 -1.4154  0.1966
  122MOL0     H16454  10.042   0.440  10.111  1.3679  0.2849 -0.7446
  122MOL0     H16455   9.797   0.370  10.120  0.1686  0.0449  0.5249
  122MOL0     H16456   9.441   0.628  10.534  2.2156 -1.6921 -2.6402
  122MOL0     H16457   9.207   0.594  10.622  0.4800 -2.5463  2.1534
  122MOL0     H16458   8.987   0.228  10.476  1.8678  0.4458  1.3117
  122MOL0     H16459   8.944   0.373  10.376 -0.4815 -0.8532 -1.5680
  122MOL0     H16460   8.783   0.436  10.559 -0.6342  0.6325 -1.4080
  122MOL0     H16461   8.822   0.267  10.625 -0.1368 -0.4888 -0.7665
  122MOL0     H16462   8.739   0.174  10.438 -0.8000  0.1910  0.0705
  122MOL0     H16463   8.733   0.315  10.339  1.9282  0.1267 -0.6710
  122MOL0     H16464   8.503   0.259  10.422 -1.5252 -1.7714  2.2742
  122MOL0     H16465   8.548   0.271  10.590  0.0886  0.1436  0.8243
  122MOL0     H16466   8.480   0.676  10.504  0.1639  0.1998  2.6167
  122MOL0     H16467   9.151   0.269  10.350 -1.4457  0.1362 -0.0319
  122MOL0     H16468   9.321   0.229  10.166  1.1565  1.7498 -4.0446
  122MOL0     H16469   9.435   0.350  10.155  2.5164 -1.7022  1.2621
  122MOL0     H16470   9.456   0.220  10.280 -0.2084 -0.3232  0.3005
  123MOL0     O16471   3.375   8.447   9.974 -0.2400 -0.0273 -0.2477
  123MOL0     C16472   3.302   8.359   9.922  0.2010 -0.6472  0.2801
  123MOL0     O16473   3.308   8.229   9.947  0.1679 -0.3898  0.1208
  123MOL0     C16474   3.426   8.174   9.999  0.1262  0.1939  0.0028
  123MOL0     C16475   3.534   8.167   9.917  0.0404 -0.3995  0.9640
  123MOL0     C16476   3.651   8.097   9.946  0.1367 -0.0816  0.0526
  123MOL0     C16477   3.656   8.031  10.068  0.4755  0.9146 -0.3904
  123MOL0     O16478   3.763   7.960  10.110  0.8869 -0.4010  0.4612
  123MOL0     C16479   3.883   8.039  10.134  0.3338  0.3167 -0.2877
  123MOL0     C16480   3.991   7.942  10.187  0.0817 -0.2082  0.3859
  123MOL0     C16481   4.115   8.030  10.233 -0.0288 -0.5156  0.5383
  123MOL0     C16482   4.216   7.940  10.299  0.5551  0.2469 -0.0776
  123MOL0     C16483   4.355   8.006  10.307 -0.0438  0.1557 -0.8402
  123MOL0     C16484   4.430   8.007  10.179 -0.3454  0.8665 -0.3451
  123MOL0     C16485   4.578   8.038  10.199 -0.1825  0.5690 -0.4022
  123MOL0     C16486   4.677   7.984  10.088 -0.1019  0.5851 -0.1752
  123MOL0     N16487   4.647   8.035   9.953 -0.4252  0.1390  0.0553
  123MOL0     C16488   4.649   8.160   9.912  0.0215 -0.3776  0.4696
  123MOL0     C16489   4.646   8.166   9.781  0.3008 -0.0541  0.2632
  123MOL0     C16490   4.657   8.294   9.707  0.8378 -0.6241  0.0009
  123MOL0     C16491   4.788   8.372   9.741 -0.3033 -0.3414  0.6340
  123MOL0     C16492   4.778   8.508   9.661  0.0444  0.4352 -0.0720
  123MOL0     C16493   4.910   8.589   9.663 -0.0413  0.8263 -0.2368
  123MOL0     O16494   5.025   8.508   9.655 -0.6489 -0.2376 -0.3751
  123MOL0     C16495   5.156   8.558   9.645  0.5575  0.3141  0.1210
  123MOL0     C16496   5.254   8.477   9.596 -0.6621  0.4030 -0.5331
  123MOL0     C16497   5.380   8.526   9.560 -0.1438 -0.0924 -0.0375
  123MOL0     C16498   5.420   8.650   9.600 -0.2250 -0.2922  0.4694
  123MOL0     C16499   5.555   8.694   9.578  0.2532  0.1933  0.2487
  123MOL0     O16500   5.602   8.650   9.460 -0.6859 -0.6738 -1.1498
  123MOL0     C16501   5.740   8.674   9.444 -0.2836  0.6370  0.5196
  123MOL0     C16502   5.842   8.680   9.538  0.6809  0.2052  0.1225
  123MOL0     C16503   5.978   8.694   9.496 -0.0058  0.1149  0.1313
  123MOL0     C16504   6.017   8.710   9.362  0.0642 -0.0784  0.4733
  123MOL0     O16505   6.149   8.730   9.321  0.1904  0.2302  0.0331
  123MOL0     C16506   6.248   8.717   9.423 -1.0807  0.4188 -0.5365
  123MOL0     C16507   6.399   8.730   9.370  0.6297 -0.1784  0.2893
  123MOL0     C16508   6.490   8.687   9.479  0.6420  0.5142  0.3280
  123MOL0     C16509   6.636   8.686   9.440  0.2975  0.3053 -0.3639
  123MOL0     C16510   6.733   8.676   9.561  0.1393  0.5577 -0.2071
  123MOL0     C16511   6.868   8.748   9.556 -0.4586  0.2529  0.7873
  123MOL0     C16512   6.948   8.706   9.674  0.3327  0.9289 -0.2210
  123MOL0     C16513   7.081   8.765   9.691 -0.1751  0.6479 -0.8229
  123MOL0    Cl16514   7.076   8.951   9.702  0.0032 -0.4284  0.2434
  123MOL0     C16515   5.909   8.709   9.271  0.0473  1.1921  0.0906
  123MOL0     C16516   5.776   8.690   9.312  0.1338 -0.0791 -0.2454
  123MOL0     O16517   5.593   8.793   9.646  0.2685 -0.0600 -0.6297
  123MOL0     C16518   5.322   8.730   9.660  0.0733 -0.3956  0.0160
  123MOL0     C16519   5.193   8.685   9.684  1.0238 -0.2568 -0.3026
  123MOL0     N16520   4.638   8.034   9.727  0.6093  0.0615 -0.4994
  123MOL0     N16521   4.632   7.960   9.836  1.0285 -0.3832 -0.1446
  123MOL0     C16522   3.544   8.041  10.157 -0.2485  0.3671  0.4687
  123MOL0     C16523   3.428   8.111  10.121 -0.9872  1.7377  0.6524
  123MOL0     C16524   3.198   8.402   9.821  0.0455 -0.1860  0.2266
  123MOL0     C16525   3.187   8.331   9.710 -0.0778  0.7539  0.6676
  123MOL0     C16526   3.099   8.366   9.611  0.7916 -0.1124 -0.2255
  123MOL0     C16527   3.027   8.483   9.614 -0.1722 -0.2091 -0.7201
  123MOL0     O16528   2.942   8.515   9.508 -0.0386 -0.5682  0.0108
  123MOL0     C16529   2.868   8.638   9.493 -0.4412 -0.6894  0.1297
  123MOL0     C16530   2.761   8.653   9.392 -0.1716 -0.8624 -0.1989
  123MOL0     C16531   2.737   8.801   9.365  0.2740 -0.1026  0.0650
  123MOL0     C16532   2.676   8.827   9.224  0.1508  0.2910  0.6170
  123MOL0     C16533   2.761   8.848   9.105  0.1179  0.0907  0.0735
  123MOL0     C16534   2.841   8.863   9.019 -0.9524 -0.1018 -0.1943
  123MOL0     C16535   3.048   8.562   9.724 -0.3221 -0.1505  0.3420
  123MOL0     C16536   3.128   8.521   9.831  0.5984  0.0057 -0.6122
  123MOL0     C16537   3.137   8.616   9.951 -0.1829 -0.7107 -0.0352
  123MOL0     H16538   3.525   8.216   9.821  0.7694  1.9240  2.0125
  123MOL0     H16539   3.739   8.101   9.883  2.0675  0.7811  2.6231
  123MOL0     H16540   3.919   8.079  10.038  1.9702 -4.0508 -1.7070
  123MOL0     H16541   3.873   8.118  10.208  1.0956  1.3241 -1.2156
  123MOL0     H16542   4.022   7.872  10.109  1.5812  1.1354 -0.2647
  123MOL0     H16543   3.956   7.887  10.275 -0.2314  1.4362  1.3394
  123MOL0     H16544   4.088   8.111  10.301  0.9517  1.5698 -1.4141
  123MOL0     H16545   4.159   8.086  10.149  0.7808  1.3777  2.1547
  123MOL0     H16546   4.182   7.911  10.398 -0.9409  0.5817 -0.4647
  123MOL0     H16547   4.224   7.846  10.243 -2.1788 -0.5169  0.6753
  123MOL0     H16548   4.355   8.110  10.339 -0.4959  0.1724 -0.8860
  123MOL0     H16549   4.411   7.942  10.376 -1.1516  0.7673  0.6730
  123MOL0     H16550   4.414   7.910  10.131 -3.5229  0.3632  1.4799
  123MOL0     H16551   4.379   8.081  10.117 -2.4568  0.3422  0.7040
  123MOL0     H16552   4.606   7.995  10.296  0.6877 -2.3408 -1.8231
  123MOL0     H16553   4.594   8.146  10.204  0.7793  0.3913  0.4945
  123MOL0     H16554   4.779   8.012  10.116 -0.7830  1.7815  1.2994
  123MOL0     H16555   4.676   7.875  10.083  0.1321  0.6339 -1.8877
  123MOL0     H16556   4.638   8.242   9.981  0.6726 -0.7025  0.9682
  123MOL0     H16557   4.654   8.280   9.598  1.4971 -3.6058  0.2757
  123MOL0     H16558   4.560   8.338   9.731  0.6364 -0.9118 -0.2735
  123MOL0     H16559   4.805   8.392   9.847  0.0754 -4.9641  1.6549
  123MOL0     H16560   4.877   8.314   9.717  0.1702  0.9452 -0.8851
  123MOL0     H16561   4.695   8.564   9.705  1.9099  2.5470  0.9050
  123MOL0     H16562   4.769   8.478   9.556 -0.1339 -1.8924  0.5399
  123MOL0     H16563   4.914   8.656   9.750 -2.5849 -0.9940  1.4360
  123MOL0     H16564   4.907   8.653   9.575  1.3685  0.8748 -0.2700
  123MOL0     H16565   5.239   8.376   9.558  0.2599  0.8434 -2.1548
  123MOL0     H16566   5.439   8.461   9.497 -0.2132  2.1068 -2.5227
  123MOL0     H16567   5.809   8.673   9.641  0.3735 -0.7320 -0.0314
  123MOL0     H16568   6.056   8.700   9.571  0.2555 -1.6606  0.0380
  123MOL0     H16569   6.243   8.797   9.497  5.5440  0.2534  0.6965
  123MOL0     H16570   6.242   8.623   9.477  2.7198 -0.1352 -0.8002
  123MOL0     H16571   6.413   8.663   9.284  2.4370  1.0468 -0.4152
  123MOL0     H16572   6.422   8.831   9.338 -1.4401  0.0256 -0.7525
  123MOL0     H16573   6.478   8.761   9.559 -3.7809  0.6846 -0.2964
  123MOL0     H16574   6.461   8.587   9.514 -0.6124 -0.2191 -2.5390
  123MOL0     H16575   6.658   8.778   9.385  0.2384  0.1103 -0.7160
  123MOL0     H16576   6.652   8.596   9.380  0.6722 -1.8713  2.7410
  123MOL0     H16577   6.751   8.571   9.588 -3.3679  0.2706  1.7191
  123MOL0     H16578   6.683   8.723   9.647 -1.4584  0.0172 -0.8042
  123MOL0     H16579   6.917   8.714   9.465 -2.6795  1.8277 -1.1370
  123MOL0     H16580   6.858   8.857   9.547  0.5292  0.5867  2.9941
  123MOL0     H16581   6.942   8.596   9.674 -0.6229  0.9574 -1.7512
  123MOL0     H16582   6.891   8.745   9.759  2.6063  0.4631  1.6259
  123MOL0     H16583   7.110   8.727   9.789  0.7051  0.2745 -1.2159
  123MOL0     H16584   7.151   8.742   9.610 -1.4342  0.4083 -1.8842
  123MOL0     H16585   5.935   8.730   9.168  3.3527 -3.5257 -0.3641
  123MOL0     H16586   5.689   8.694   9.246 -0.3402  0.6289  0.4114
  123MOL0     H16587   5.340   8.830   9.700  0.7344 -0.0819 -1.0310
  123MOL0     H16588   5.119   8.749   9.733  1.2298  0.9013 -1.4531
  123MOL0     H16589   3.557   7.992  10.252  0.2832 -0.4975 -0.0365
  123MOL0     H16590   3.348   8.118  10.194 -1.4448  2.2656  0.1092
  123MOL0     H16591   3.230   8.233   9.696  0.0382  0.9165 -0.1918
  123MOL0     H16592   3.090   8.306   9.521  0.2033 -0.7064  0.2160
  123MOL0     H16593   2.948   8.713   9.485 -0.9604 -0.2957 -2.7044
  123MOL0     H16594   2.815   8.652   9.587  0.8111  2.2069  0.5244
  123MOL0     H16595   2.666   8.606   9.421  0.3379 -2.9621 -1.6687
  123MOL0     H16596   2.795   8.594   9.306 -1.2117  0.5555 -1.6542
  123MOL0     H16597   2.825   8.863   9.381 -0.1056  0.5100 -0.1634
  123MOL0     H16598   2.663   8.825   9.442 -1.1026  2.8952 -1.9968
  123MOL0     H16599   2.613   8.743   9.193  0.2198  0.7794 -0.9411
  123MOL0     H16600   2.606   8.910   9.236 -1.9831 -1.5205  1.3926
  123MOL0     H16601   2.915   8.863   8.942  0.2622 -2.5358  0.8507
  123MOL0     H16602   3.006   8.662   9.730  1.8837  0.8558  0.1614
  123MOL0     H16603   3.046   8.674   9.966  0.0917 -0.1514 -0.5010
  123MOL0     H16604   3.163   8.569  10.047 -1.9987 -0.8433  0.4326
  123MOL0     H16605   3.210   8.686   9.912 -2.2549  0.8811 -1.2119
  124MOL0     O16606   4.486  10.198   5.975  0.4340  0.2833 -0.1550
  124MOL0     C16607   4.403  10.184   5.884 -0.6194  0.3778  0.1714
  124MOL0     O16608   4.433  10.195   5.744 -0.1001  0.8282  0.5729
  124MOL0     C16609   4.565  10.209   5.717  1.1522 -0.9929 -0.6734
  124MOL0     C16610   4.653  10.102   5.738  0.3931  0.7076  0.3319
  124MOL0     C16611   4.792  10.123   5.706  0.5838  0.0521  0.2227
  124MOL0     C16612   4.836  10.242   5.653 -0.3990 -0.5041 -0.4527
  124MOL0     O16613   4.963  10.248   5.601 -0.3013  0.2400  0.0977
  124MOL0     C16614   5.048  10.129   5.598  0.4466 -0.0929 -0.7082
  124MOL0     C16615   5.202  10.161   5.566  0.1012 -0.8188 -0.6625
  124MOL0     C16616   5.259  10.258   5.666 -0.1595 -0.3942  0.0441
  124MOL0     C16617   5.390  10.200   5.720 -0.5014  0.3475  0.2277
  124MOL0     C16618   5.469  10.320   5.774 -0.4767 -0.2926  0.1662
  124MOL0     C16619   5.610  10.279   5.806 -0.1018  0.8879  0.1545
  124MOL0     C16620   5.704  10.400   5.840  0.7421  0.8143  0.6758
  124MOL0     C16621   5.680  10.483   5.970  0.3278 -0.3682 -0.5527
  124MOL0     N16622   5.777  10.592   5.987 -0.1143 -0.7862 -0.5353
  124MOL0     C16623   5.755  10.729   5.946 -0.2146  0.3012  0.0765
  124MOL0     C16624   5.882  10.790   5.960 -0.7583 -0.4805 -0.1649
  124MOL0     C16625   5.918  10.935   5.944 -0.1795 -0.6454  0.3290
  124MOL0     C16626   6.067  10.945   5.898  0.3202  0.3132 -0.0510
  124MOL0     C16627   6.100  11.094   5.898  0.3212 -0.6004 -0.0383
  124MOL0     C16628   6.245  11.122   5.876 -0.1230 -0.0223 -0.4189
  124MOL0     O16629   6.283  11.031   5.770 -0.0225 -0.4665  0.1887
  124MOL0     C16630   6.396  11.064   5.705 -0.0297 -0.1091 -0.0492
  124MOL0     C16631   6.428  10.990   5.596 -0.0490 -0.9551 -0.5458
  124MOL0     C16632   6.562  11.004   5.534 -0.5234  0.3764  0.0285
  124MOL0     C16633   6.649  11.105   5.577 -0.5300 -0.1906 -0.0094
  124MOL0     C16634   6.769  11.134   5.504  0.1730  0.1399 -0.2662
  124MOL0     O16635   6.820  11.257   5.530  0.5115 -0.0605 -0.3984
  124MOL0     C16636   6.954  11.291   5.508 -0.7716  0.7457 -0.2666
  124MOL0     C16637   7.035  11.256   5.400 -0.2989 -0.1526  0.0982
  124MOL0     C16638   7.170  11.298   5.388  0.0119  0.5312  0.2203
  124MOL0     C16639   7.223  11.375   5.493  1.0025 -0.6934 -0.1859
  124MOL0     O16640   7.352  11.424   5.488  0.2544  0.1226 -0.8278
  124MOL0     C16641   7.441  11.368   5.389  0.5188 -0.0649 -0.9979
  124MOL0     C16642   7.586  11.377   5.445  0.4714  0.6245  0.6684
  124MOL0     C16643   7.673  11.326   5.335 -0.4827  0.3273 -0.2230
  124MOL0     C16644   7.802  11.284   5.406  0.0725  0.6352 -0.1093
  124MOL0     C16645   7.912  11.248   5.319  0.6849  0.2452  0.2527
  124MOL0     C16646   8.009  11.369   5.273  0.9338  0.0881 -0.2659
  124MOL0     C16647   8.120  11.325   5.185 -0.2662  0.8109  0.4060
  124MOL0     C16648   8.198  11.199   5.239  0.1639 -0.3158 -0.2595
  124MOL0    Cl16649   8.266  11.238   5.404 -0.2710  0.1527  0.0406
  124MOL0     C16650   7.143  11.425   5.595  0.2043  0.6316 -0.2595
  124MOL0     C16651   7.012  11.377   5.604  0.2719 -0.3443  0.1257
  124MOL0     O16652   6.816  11.061   5.419  0.0348  0.1921  0.0003
  124MOL0     C16653   6.611  11.186   5.685 -0.7265  0.6204  0.6369
  124MOL0     C16654   6.493  11.155   5.753 -0.0885 -0.0583 -0.0942
  124MOL0     N16655   5.966  10.701   6.019  0.3467  0.7515  0.1918
  124MOL0     N16656   5.899  10.593   6.046 -0.1257  0.5717  0.0912
  124MOL0     C16657   4.741  10.342   5.619  0.0677 -0.6586  1.2308
  124MOL0     C16658   4.608  10.332   5.665  0.9607  0.0413 -0.0138
  124MOL0     C16659   4.267  10.144   5.923  0.4412  0.0954  0.1555
  124MOL0     C16660   4.207  10.196   6.050 -0.8498 -0.1368 -0.1827
  124MOL0     C16661   4.073  10.187   6.081  0.0752  0.2599  0.1108
  124MOL0     C16662   3.982  10.118   5.992  0.2199 -0.8825 -0.3970
  124MOL0     O16663   3.852  10.103   6.034  0.2062  0.7230  0.5093
  124MOL0     C16664   3.789   9.981   5.994 -0.2218 -0.5848 -0.3293
  124MOL0     C16665   3.648   9.985   6.055  0.3820 -0.0087 -0.9851
  124MOL0     C16666   3.564   9.856   6.012 -0.2391  0.2490 -0.4473
  124MOL0     C16667   3.420   9.852   6.074 -0.6783  1.1532  0.3777
  124MOL0     C16668   3.347   9.744   6.017 -0.0721  0.3963 -0.3139
  124MOL0     C16669   3.286   9.651   5.962 -0.0543  0.5824 -0.4720
  124MOL0     C16670   4.044  10.066   5.877  0.5133 -0.3375  0.1116
  124MOL0     C16671   4.182  10.071   5.844 -0.6367  0.5502  0.2155
  124MOL0     C16672   4.219   9.990   5.724 -0.2145 -0.2913 -0.7405
  124MOL0     H16673   4.613  10.005   5.766  2.9442 -1.1653 -1.9601
  124MOL0     H16674   4.858  10.043   5.739 -1.1256 -0.6378  2.2175
  124MOL0     H16675   5.042  10.091   5.701 -0.2536  3.3783  0.6550
  124MOL0     H16676   5.008  10.053   5.530  2.1395 -3.0189  1.3383
  124MOL0     H16677   5.218  10.200   5.465  2.0198  3.3498  1.0451
  124MOL0     H16678   5.259  10.068   5.570  2.9157  0.8396  1.5500
  124MOL0     H16679   5.186  10.279   5.745 -1.1816 -0.8635 -0.7469
  124MOL0     H16680   5.273  10.348   5.606  3.1191 -1.0980 -0.4575
  124MOL0     H16681   5.374  10.127   5.800 -0.2845 -1.0417 -0.9607
  124MOL0     H16682   5.450  10.155   5.640 -0.1646 -1.1697  1.2783
  124MOL0     H16683   5.450  10.402   5.705 -1.1637 -0.8395 -0.3196
  124MOL0     H16684   5.419  10.348   5.867 -0.7012 -1.3067  0.3644
  124MOL0     H16685   5.621  10.219   5.896 -1.1868  2.3117  1.2871
  124MOL0     H16686   5.647  10.219   5.722 -0.7048  1.2096 -0.3498
  124MOL0     H16687   5.706  10.464   5.751 -3.5724 -0.3805 -0.5275
  124MOL0     H16688   5.802  10.357   5.858  1.1604  1.9573  1.2491
  124MOL0     H16689   5.576  10.515   5.962  0.8364  1.2459 -0.9447
  124MOL0     H16690   5.695  10.422   6.060  2.3221  0.0133 -0.5646
  124MOL0     H16691   5.655  10.768   5.928 -0.3069  1.1268  2.1334
  124MOL0     H16692   5.857  10.980   5.865  1.3342 -0.7650 -0.9729
  124MOL0     H16693   5.909  11.001   6.031  1.7801  1.0836 -0.6567
  124MOL0     H16694   6.128  10.878   5.960 -0.4308  0.8618  1.3228
  124MOL0     H16695   6.077  10.913   5.794  0.5244  1.1367 -0.2875
  124MOL0     H16696   6.075  11.145   5.991  0.7007  3.2903 -1.8699
  124MOL0     H16697   6.031  11.144   5.829 -2.2631  1.3794  3.6134
  124MOL0     H16698   6.296  11.103   5.971 -0.0213  0.0316 -0.4625
  124MOL0     H16699   6.259  11.224   5.839 -0.6096 -0.4865 -1.9971
  124MOL0     H16700   6.360  10.931   5.536 -1.4844  1.0058 -0.9300
  124MOL0     H16701   6.567  10.937   5.450 -1.4054  3.3960 -2.6334
  124MOL0     H16702   6.992  11.203   5.316 -2.2933  1.3948  0.0465
  124MOL0     H16703   7.224  11.262   5.301 -0.5456 -1.2292  0.5589
  124MOL0     H16704   7.430  11.261   5.374 -0.0622  0.0536 -1.4300
  124MOL0     H16705   7.436  11.425   5.296  0.8274  0.4810 -0.6932
  124MOL0     H16706   7.596  11.483   5.468 -2.8008  1.3842 -0.8170
  124MOL0     H16707   7.594  11.318   5.537  0.8253 -2.0993 -0.9751
  124MOL0     H16708   7.623  11.240   5.290 -2.6825  1.2325  0.3823
  124MOL0     H16709   7.688  11.398   5.254  0.4483 -0.3441 -0.6686
  124MOL0     H16710   7.779  11.202   5.473 -2.5125  2.0543  0.8610
  124MOL0     H16711   7.836  11.359   5.479 -0.9733  1.6293 -0.6253
  124MOL0     H16712   7.871  11.193   5.234 -0.1630 -1.9285  1.9885
  124MOL0     H16713   7.967  11.174   5.377 -0.1407  0.5204  1.4098
  124MOL0     H16714   7.952  11.444   5.217  0.0567 -1.4003 -1.4417
  124MOL0     H16715   8.060  11.412   5.360  0.3591  0.3431 -0.0439
  124MOL0     H16716   8.187  11.404   5.150 -0.1440  0.0897 -1.0796
  124MOL0     H16717   8.076  11.286   5.092  3.6449  1.7183 -2.0414
  124MOL0     H16718   8.136  11.110   5.243  3.0864 -2.4560  2.0322
  124MOL0     H16719   8.274  11.170   5.165 -0.3433 -4.7206  0.6785
  124MOL0     H16720   7.172  11.487   5.679 -0.9332  0.2197  0.4661
  124MOL0     H16721   6.955  11.400   5.693 -1.1491 -2.6288 -0.0905
  124MOL0     H16722   6.679  11.261   5.725  0.9819  0.0479 -1.0495
  124MOL0     H16723   6.474  11.207   5.846  0.6489  0.1318 -0.0443
  124MOL0     H16724   4.769  10.439   5.581  0.1034  0.3921  3.7526
  124MOL0     H16725   4.548  10.417   5.635 -1.1561 -1.8775 -1.6313
  124MOL0     H16726   4.263  10.258   6.120  0.0726  0.4632 -1.4146
  124MOL0     H16727   4.018  10.226   6.166 -1.2716  2.8536 -1.7874
  124MOL0     H16728   3.831   9.888   6.033 -2.0571 -0.9842  0.8000
  124MOL0     H16729   3.780   9.969   5.886  0.5582 -2.0073 -0.2593
  124MOL0     H16730   3.599  10.079   6.031  1.2693  1.5478  2.6911
  124MOL0     H16731   3.651   9.981   6.164  0.8856 -1.3275 -1.0273
  124MOL0     H16732   3.615   9.765   6.045  0.8073  0.3420 -1.7400
  124MOL0     H16733   3.562   9.854   5.903  2.0538  3.1128 -0.6424
  124MOL0     H16734   3.429   9.841   6.183 -1.2234  0.9352  0.4003
  124MOL0     H16735   3.369   9.947   6.055 -1.9626  0.5587  0.7397
  124MOL0     H16736   3.236   9.569   5.914  1.4469 -0.3569 -0.4836
  124MOL0     H16737   3.980  10.025   5.800 -1.6009  2.2004  0.3579
  124MOL0     H16738   4.299   9.919   5.745  0.2012  0.2919 -0.3329
  124MOL0     H16739   4.125   9.950   5.683 -1.1874  2.1837 -1.0908
  124MOL0     H16740   4.254  10.047   5.638 -2.3119  2.3242  0.0273
  125MOL0     O16741   1.418   6.908   2.616  0.2732 -0.3146  0.3111
  125MOL0     C16742   1.381   6.795   2.654 -0.4991 -0.1245 -0.1309
  125MOL0     O16743   1.454   6.701   2.730 -0.0853 -0.1030 -0.6439
  125MOL0     C16744   1.589   6.721   2.764 -0.5237  0.3141  0.4000
  125MOL0     C16745   1.617   6.778   2.891  0.3816 -0.3250 -0.1012
  125MOL0     C16746   1.751   6.808   2.928  0.7370  0.2738  0.0889
  125MOL0     C16747   1.861   6.773   2.846  1.8424  0.0267  0.4461
  125MOL0     O16748   1.989   6.790   2.879 -0.2106  0.2742 -0.0329
  125MOL0     C16749   2.036   6.767   3.009  0.3275 -0.3235 -1.1811
  125MOL0     C16750   2.176   6.822   3.031  0.0455 -0.7298  1.1766
  125MOL0     C16751   2.234   6.786   3.164  0.4356  0.3770  0.1411
  125MOL0     C16752   2.378   6.802   3.170  0.9221  0.1614  0.0476
  125MOL0     C16753   2.439   6.736   3.296 -0.3221 -0.5995  1.1764
  125MOL0     C16754   2.586   6.690   3.278 -0.2389  1.2683 -0.1500
  125MOL0     C16755   2.661   6.651   3.405 -0.7337  0.3231 -0.4697
  125MOL0     C16756   2.771   6.535   3.379  0.5813 -0.3298  0.1686
  125MOL0     N16757   2.899   6.593   3.316  1.1831  0.2905 -0.2004
  125MOL0     C16758   3.011   6.514   3.283  0.1280  0.8511 -0.6378
  125MOL0     C16759   3.086   6.596   3.210 -0.0746  0.3916 -0.7958
  125MOL0     C16760   3.212   6.545   3.135  0.5002 -0.4045  0.0359
  125MOL0     C16761   3.327   6.651   3.153 -0.3616  0.2365 -0.2361
  125MOL0     C16762   3.443   6.587   3.078  0.6995 -0.0205  0.0716
  125MOL0     C16763   3.554   6.690   3.084 -0.1045  0.2176  0.2712
  125MOL0     O16764   3.672   6.623   3.039 -0.1597 -0.5062 -0.0877
  125MOL0     C16765   3.790   6.687   3.052 -0.5650 -0.1338  0.0107
  125MOL0     C16766   3.814   6.808   3.119  0.2138 -0.2835  0.1372
  125MOL0     C16767   3.939   6.861   3.102 -0.2281 -0.9318  0.4309
  125MOL0     C16768   4.050   6.799   3.042 -0.0572 -0.3912 -0.4030
  125MOL0     C16769   4.193   6.857   3.037 -0.0640  0.5362  0.3640
  125MOL0     O16770   4.290   6.807   2.951 -0.3587  0.3999 -0.0556
  125MOL0     C16771   4.419   6.858   2.945  0.3517 -1.0428 -0.6247
  125MOL0     C16772   4.453   6.998   2.957 -0.4045  0.4938 -0.9098
  125MOL0     C16773   4.589   7.046   2.960 -0.5182 -0.6160 -0.3801
  125MOL0     C16774   4.697   6.950   2.937  0.0829  0.2791  0.3043
  125MOL0     O16775   4.830   6.970   2.948 -0.7045  0.9038  0.0537
  125MOL0     C16776   4.878   7.104   2.976  0.4391  0.6402  0.4355
  125MOL0     C16777   5.025   7.107   2.996 -1.6710 -0.1330 -0.1592
  125MOL0     C16778   5.105   7.076   2.871  0.1942 -0.1233 -0.3733
  125MOL0     C16779   5.224   6.995   2.887 -0.2384 -0.3949 -0.1560
  125MOL0     C16780   5.321   6.999   2.766  0.2201 -0.4101 -0.4706
  125MOL0     C16781   5.268   6.942   2.635  1.1845  0.0664 -0.0062
  125MOL0     C16782   5.373   6.912   2.541  0.0421 -0.1323  0.3467
  125MOL0     C16783   5.427   6.772   2.537  0.2645  0.3565  0.0879
  125MOL0    Cl16784   5.541   6.743   2.671  0.1334 -0.0340 -0.8345
  125MOL0     C16785   4.660   6.814   2.913  0.2501 -0.0013 -1.4544
  125MOL0     C16786   4.526   6.769   2.925  0.2740 -0.2254  0.0057
  125MOL0     O16787   4.203   6.948   3.121  0.9967  0.2256  0.3547
  125MOL0     C16788   4.024   6.680   2.985 -0.0114  0.4802  0.3295
  125MOL0     C16789   3.897   6.615   2.997 -0.2754 -0.2673 -0.4356
  125MOL0     N16790   3.026   6.720   3.190  0.3215  1.0374  1.0574
  125MOL0     N16791   2.917   6.718   3.264 -0.3676  0.6865  0.4337
  125MOL0     C16792   1.837   6.712   2.719  0.1262  0.4433  0.4559
  125MOL0     C16793   1.701   6.689   2.679  0.2231 -1.1453 -0.7751
  125MOL0     C16794   1.246   6.745   2.622  0.2197 -0.0748  0.2074
  125MOL0     C16795   1.188   6.646   2.713  0.8344  0.0361  0.5887
  125MOL0     C16796   1.063   6.585   2.682 -0.1204 -0.2748 -0.4303
  125MOL0     C16797   1.000   6.617   2.564 -0.1834  0.1746  0.3039
  125MOL0     O16798   0.887   6.563   2.515 -0.2204  0.6779  0.4247
  125MOL0     C16799   0.814   6.472   2.597  0.0483  0.0583 -0.5258
  125MOL0     C16800   0.715   6.387   2.514  0.3786 -0.1688 -0.2316
  125MOL0     C16801   0.661   6.271   2.607 -0.4807 -0.1840 -0.4602
  125MOL0     C16802   0.523   6.229   2.559  0.1567  0.3126 -0.3369
  125MOL0     C16803   0.419   6.333   2.574 -0.8402  0.0325 -0.4286
  125MOL0     C16804   0.340   6.419   2.579 -0.1872 -0.5991  0.1266
  125MOL0     C16805   1.067   6.698   2.465 -0.3470 -0.0596  0.1817
  125MOL0     C16806   1.189   6.769   2.494 -0.5153  0.2586 -0.2375
  125MOL0     C16807   1.256   6.869   2.398  0.6486  0.0854 -0.0070
  125MOL0     H16808   1.541   6.793   2.967  0.7981 -2.2814  0.7758
  125MOL0     H16809   1.757   6.853   3.026 -0.1509  0.4050  0.0925
  125MOL0     H16810   1.979   6.815   3.090  3.2559  0.8547  0.3149
  125MOL0     H16811   2.013   6.661   3.021 -1.6398  0.2961  1.7429
  125MOL0     H16812   2.198   6.928   3.012  2.2821 -1.1227  1.3194
  125MOL0     H16813   2.233   6.762   2.960  0.5654  0.8329  0.2349
  125MOL0     H16814   2.210   6.679   3.174  0.1978  0.5008  0.9086
  125MOL0     H16815   2.186   6.842   3.245  0.7697 -0.3186  0.8322
  125MOL0     H16816   2.416   6.766   3.074 -2.8519 -2.4231 -0.6696
  125MOL0     H16817   2.386   6.911   3.169  0.5169  0.1916 -0.9006
  125MOL0     H16818   2.441   6.815   3.371 -3.1852  0.3161  0.4140
  125MOL0     H16819   2.373   6.658   3.336 -1.8274  1.2071  2.3664
  125MOL0     H16820   2.584   6.612   3.202 -2.3149  1.8609 -0.7572
  125MOL0     H16821   2.640   6.778   3.240 -1.1046  1.6668 -0.4737
  125MOL0     H16822   2.586   6.606   3.471 -2.5295  0.9412 -2.0021
  125MOL0     H16823   2.698   6.743   3.451  0.6722 -0.9794  1.1502
  125MOL0     H16824   2.801   6.503   3.479  1.4437 -1.0200 -0.2930
  125MOL0     H16825   2.738   6.449   3.321  2.5595 -1.2810  0.3879
  125MOL0     H16826   3.030   6.408   3.300  0.1718  0.3141 -3.5111
  125MOL0     H16827   3.246   6.444   3.156  0.8000 -0.6004 -1.3024
  125MOL0     H16828   3.183   6.538   3.030 -0.7414  0.7275  0.2701
  125MOL0     H16829   3.300   6.749   3.113 -0.6498  0.1947 -0.1445
  125MOL0     H16830   3.350   6.651   3.260 -1.7507 -2.4954  0.1371
  125MOL0     H16831   3.402   6.568   2.978 -0.8617 -2.8149  1.1185
  125MOL0     H16832   3.472   6.490   3.120 -3.5253 -1.4674  0.1430
  125MOL0     H16833   3.561   6.733   3.185  0.2478 -3.2857  1.9002
  125MOL0     H16834   3.530   6.767   3.011 -1.6253  1.0160  1.5489
  125MOL0     H16835   3.737   6.872   3.162  0.2026 -1.0113  1.2384
  125MOL0     H16836   3.937   6.959   3.147 -1.6368 -0.9515  0.4513
  125MOL0     H16837   4.376   7.073   2.970  0.1603  0.6016  2.7676
  125MOL0     H16838   4.608   7.152   2.973  0.4333 -0.7089 -0.9205
  125MOL0     H16839   4.857   7.171   2.893  2.7117  1.3617  0.3703
  125MOL0     H16840   4.832   7.138   3.069  1.3897 -0.3624  1.3225
  125MOL0     H16841   5.052   7.203   3.041  0.6638 -1.6394  1.9384
  125MOL0     H16842   5.047   7.038   3.078 -3.2252 -0.3349  0.1187
  125MOL0     H16843   5.041   7.040   2.790 -1.4881  1.3196  0.2260
  125MOL0     H16844   5.123   7.177   2.832  0.9566  1.0086  2.6158
  125MOL0     H16845   5.195   6.892   2.912  0.2771 -0.9037 -1.5627
  125MOL0     H16846   5.279   7.046   2.966 -1.7220  2.0702 -0.6136
  125MOL0     H16847   5.404   6.936   2.800  2.0508  1.5755 -1.0441
  125MOL0     H16848   5.350   7.103   2.750  2.1149 -0.6366  1.1135
  125MOL0     H16849   5.211   6.850   2.650  2.0651 -0.2852  1.3861
  125MOL0     H16850   5.214   7.026   2.590 -0.6972 -1.5069 -0.8202
  125MOL0     H16851   5.463   6.969   2.566  0.8402 -0.5830 -1.3194
  125MOL0     H16852   5.354   6.953   2.441  0.2947  0.9876  0.7513
  125MOL0     H16853   5.343   6.703   2.551  1.5212 -0.8884  1.8523
  125MOL0     H16854   5.474   6.751   2.440 -0.8232 -2.0257  0.0027
  125MOL0     H16855   4.744   6.748   2.897 -0.4907 -1.8524  1.4764
  125MOL0     H16856   4.499   6.667   2.898 -2.1690 -0.0146  1.2867
  125MOL0     H16857   4.113   6.632   2.944  1.3834  1.1829  2.3745
  125MOL0     H16858   3.894   6.520   2.946  0.6773 -0.0924 -0.8392
  125MOL0     H16859   1.914   6.699   2.644  0.2628 -2.6231  1.0022
  125MOL0     H16860   1.683   6.654   2.578  1.0307 -1.5038 -0.7986
  125MOL0     H16861   1.242   6.621   2.804  3.6961  0.0960 -0.9716
  125MOL0     H16862   1.027   6.516   2.758 -3.9151  0.5519 -1.3104
  125MOL0     H16863   0.749   6.527   2.666 -0.3521 -0.1432 -0.7410
  125MOL0     H16864   0.880   6.403   2.650 -2.2591  0.2192  2.8865
  125MOL0     H16865   0.768   6.347   2.427 -0.8818 -0.5545 -0.8491
  125MOL0     H16866   0.634   6.446   2.468  2.6021  2.8644 -0.5595
  125MOL0     H16867   0.662   6.296   2.713  0.0044 -0.2894 -0.4397
  125MOL0     H16868   0.723   6.181   2.613 -0.7079 -0.3829 -1.0367
  125MOL0     H16869   0.513   6.187   2.459  1.2590  0.4797 -0.5352
  125MOL0     H16870   0.498   6.149   2.629  0.5720  0.7314  0.3054
  125MOL0     H16871   0.271   6.500   2.591  1.5546  1.0007 -0.1393
  125MOL0     H16872   1.030   6.711   2.364  1.3677  0.2054 -0.4384
  125MOL0     H16873   1.202   6.867   2.303 -1.7602 -0.3478  1.2815
  125MOL0     H16874   1.242   6.971   2.436 -3.5991 -1.1176  2.4228
  125MOL0     H16875   1.361   6.847   2.379  0.9999  0.4867  1.3461
  126MOL0     O16876   5.993   5.725   5.331  0.2446 -0.3501 -0.5050
  126MOL0     C16877   5.910   5.789   5.273  0.2292 -0.8107 -0.0494
  126MOL0     O16878   5.909   5.802   5.140  0.3338  0.4422  0.4911
  126MOL0     C16879   6.017   5.750   5.063  1.2346 -0.2762 -0.9206
  126MOL0     C16880   6.024   5.609   5.052 -0.3896  0.0232  0.4448
  126MOL0     C16881   6.123   5.540   4.979  0.9138 -1.3321  0.4072
  126MOL0     C16882   6.225   5.622   4.913 -0.4995 -0.1510  0.9334
  126MOL0     O16883   6.331   5.548   4.855 -0.4593 -0.1784  0.0988
  126MOL0     C16884   6.411   5.621   4.761 -0.3015  0.0900 -0.0721
  126MOL0     C16885   6.519   5.536   4.688 -0.3576 -0.3928 -0.4746
  126MOL0     C16886   6.651   5.553   4.770  0.7518  0.7770  0.5664
  126MOL0     C16887   6.763   5.460   4.730  1.0451 -0.5402  1.0407
  126MOL0     C16888   6.902   5.517   4.745  0.3439 -0.7147  0.6326
  126MOL0     C16889   7.005   5.423   4.688 -0.2249 -0.4002  0.1383
  126MOL0     C16890   7.128   5.503   4.668  0.2138  0.3647 -0.2579
  126MOL0     C16891   7.234   5.401   4.616  1.1324  0.4377  0.2018
  126MOL0     N16892   7.358   5.469   4.601 -0.5072  0.5547 -0.0054
  126MOL0     C16893   7.381   5.568   4.520 -0.0939 -0.3866  0.5020
  126MOL0     C16894   7.514   5.573   4.497  0.0342 -0.7093 -0.3338
  126MOL0     C16895   7.584   5.665   4.386  0.1204  0.3972 -0.5706
  126MOL0     C16896   7.613   5.793   4.449  0.2741  0.2675 -0.3476
  126MOL0     C16897   7.747   5.798   4.512  0.2794 -0.6559 -0.0750
  126MOL0     C16898   7.860   5.774   4.407  0.5170  0.2491  0.1431
  126MOL0     O16899   7.987   5.780   4.474  0.3458 -0.7483  0.3875
  126MOL0     C16900   8.086   5.695   4.429  0.6372 -0.1947 -0.4218
  126MOL0     C16901   8.087   5.560   4.483 -0.2344 -0.0327  0.4187
  126MOL0     C16902   8.191   5.473   4.445 -0.2346 -0.0673  0.7412
  126MOL0     C16903   8.290   5.512   4.353  0.0405  0.5342 -0.1292
  126MOL0     C16904   8.401   5.408   4.305  0.2919 -0.0594  0.5867
  126MOL0     O16905   8.415   5.292   4.383  1.0460 -0.6698 -0.3422
  126MOL0     C16906   8.473   5.180   4.346  0.5927  0.0350  0.9240
  126MOL0     C16907   8.490   5.086   4.451  0.2915 -0.3574 -0.0704
  126MOL0     C16908   8.560   4.967   4.422  0.5310 -0.2653  0.0994
  126MOL0     C16909   8.625   4.949   4.292 -0.3838 -0.4117 -0.0422
  126MOL0     O16910   8.695   4.837   4.248  0.0125 -0.3470  0.3980
  126MOL0     C16911   8.739   4.746   4.344  0.2623  0.1192  0.1828
  126MOL0     C16912   8.848   4.651   4.282  0.2364 -0.1194 -0.1330
  126MOL0     C16913   8.963   4.719   4.215  0.6301 -0.3026  0.4707
  126MOL0     C16914   8.945   4.752   4.067 -0.2162 -0.1659  1.1451
  126MOL0     C16915   9.005   4.891   4.040  0.0872 -1.4514 -0.1484
  126MOL0     C16916   8.966   4.941   3.907 -0.1386 -0.5169 -0.0178
  126MOL0     C16917   9.019   5.083   3.879  0.3083  0.8774  0.6127
  126MOL0     C16918   8.940   5.180   3.958  0.5171  1.1029  0.8623
  126MOL0    Cl16919   8.765   5.202   3.885 -0.3914  0.0889 -0.4990
  126MOL0     C16920   8.595   5.041   4.190 -0.8671 -0.0916 -0.1939
  126MOL0     C16921   8.529   5.159   4.218 -0.1237  0.4060 -0.2987
  126MOL0     O16922   8.470   5.442   4.213 -0.6823 -0.1739 -0.6028
  126MOL0     C16923   8.277   5.642   4.294  0.1682 -0.6182 -0.2249
  126MOL0     C16924   8.182   5.733   4.331  0.9636 -0.5253 -1.1957
  126MOL0     N16925   7.571   5.479   4.578 -0.6776  0.2607  0.2550
  126MOL0     N16926   7.477   5.422   4.644 -0.5570  0.5465 -0.1743
  126MOL0     C16927   6.211   5.765   4.918 -0.7632  0.3392  0.2518
  126MOL0     C16928   6.116   5.821   4.993  0.6836  0.1437 -0.1131
  126MOL0     C16929   5.785   5.850   5.338 -0.2718 -0.1988  0.3444
  126MOL0     C16930   5.672   5.862   5.253 -0.1875 -0.0084 -0.3969
  126MOL0     C16931   5.545   5.903   5.304 -0.1090 -0.4469  0.1237
  126MOL0     C16932   5.520   5.913   5.443  0.6877  1.0572  0.1961
  126MOL0     O16933   5.408   5.967   5.502  0.2940  0.3077  0.3793
  126MOL0     C16934   5.294   6.006   5.424 -0.0303 -0.3929  0.0937
  126MOL0     C16935   5.192   6.076   5.507 -0.9819  0.9675  0.1024
  126MOL0     C16936   5.104   5.975   5.579  0.1828 -0.7110  0.6324
  126MOL0     C16937   4.996   6.049   5.649 -0.9091 -0.1223 -0.0904
  126MOL0     C16938   4.893   5.955   5.702 -0.2305 -0.3828 -0.1918
  126MOL0     C16939   4.795   5.888   5.742  0.4708  0.1448 -0.7082
  126MOL0     C16940   5.629   5.882   5.523 -0.5384 -0.6700 -0.8595
  126MOL0     C16941   5.762   5.864   5.475  0.1698  0.3084 -0.6150
  126MOL0     C16942   5.877   5.848   5.569  0.4304  0.7155 -0.3869
  126MOL0     H16943   5.940   5.560   5.099  0.3564 -0.8788  0.8719
  126MOL0     H16944   6.110   5.434   4.963 -2.3342 -1.1629  1.1155
  126MOL0     H16945   6.352   5.665   4.680 -0.2435  0.9675  0.3583
  126MOL0     H16946   6.453   5.709   4.810  0.3928  0.4972 -1.3488
  126MOL0     H16947   6.529   5.570   4.585 -1.6418 -0.6980 -0.7193
  126MOL0     H16948   6.479   5.434   4.683  0.4069 -0.6948 -0.5931
  126MOL0     H16949   6.622   5.537   4.874  1.9283  0.1871  0.8262
  126MOL0     H16950   6.677   5.659   4.767 -0.2227  1.0065  0.0363
  126MOL0     H16951   6.742   5.378   4.800 -1.5723  0.5538  1.6574
  126MOL0     H16952   6.738   5.429   4.628 -1.9414 -0.5672  1.6986
  126MOL0     H16953   6.895   5.608   4.685  0.3274  1.1151  3.2124
  126MOL0     H16954   6.914   5.556   4.847 -2.0635  2.0133  0.0192
  126MOL0     H16955   7.031   5.340   4.754  0.1234 -1.5980 -1.4761
  126MOL0     H16956   6.966   5.386   4.593 -0.2014 -1.1536  0.4183
  126MOL0     H16957   7.151   5.555   4.761 -1.0730 -0.8878  0.8048
  126MOL0     H16958   7.107   5.588   4.602 -4.1927  1.2420  1.8602
  126MOL0     H16959   7.249   5.326   4.694 -0.1406  0.5739  0.6088
  126MOL0     H16960   7.207   5.354   4.521  1.4982 -0.7127  0.6511
  126MOL0     H16961   7.310   5.634   4.473 -1.1966 -2.0892 -0.3260
  126MOL0     H16962   7.667   5.621   4.331 -0.0317 -1.9624  0.9503
  126MOL0     H16963   7.509   5.668   4.307 -0.6362  1.8377  0.1583
  126MOL0     H16964   7.596   5.875   4.379  1.7873 -0.5636 -1.7721
  126MOL0     H16965   7.542   5.811   4.530 -0.4325  0.7665 -1.0556
  126MOL0     H16966   7.760   5.725   4.593  0.4798  0.2259  0.7014
  126MOL0     H16967   7.753   5.890   4.570  0.5685 -1.5566  1.3890
  126MOL0     H16968   7.850   5.853   4.332 -1.2560  0.9825  1.0864
  126MOL0     H16969   7.845   5.683   4.349 -3.5749 -0.5398  2.0732
  126MOL0     H16970   8.010   5.531   4.554 -0.1620  0.7081  0.8159
  126MOL0     H16971   8.192   5.372   4.484 -1.7571  0.3625  2.0225
  126MOL0     H16972   8.443   5.088   4.548  0.2658 -0.8488 -0.0666
  126MOL0     H16973   8.566   4.884   4.491 -1.2791 -0.1951  0.3925
  126MOL0     H16974   8.791   4.799   4.425  3.0434 -0.4951 -1.0974
  126MOL0     H16975   8.659   4.684   4.388 -0.1776 -0.2285 -1.0636
  126MOL0     H16976   8.895   4.600   4.366  0.0925  0.2210  0.1557
  126MOL0     H16977   8.804   4.576   4.216  1.1217 -0.4781 -0.3221
  126MOL0     H16978   8.964   4.816   4.265 -5.6474  0.9506 -0.9333
  126MOL0     H16979   9.048   4.654   4.237  1.6250 -0.4909 -3.2968
  126MOL0     H16980   8.842   4.743   4.031  0.0804 -1.9151  0.6458
  126MOL0     H16981   8.995   4.670   4.014  0.7481 -0.7036  2.8065
  126MOL0     H16982   9.113   4.894   4.056  0.1518  4.1579  0.1903
  126MOL0     H16983   8.960   4.956   4.116  1.5998 -0.4610 -0.0597
  126MOL0     H16984   9.006   4.871   3.833  0.4889 -2.5131  2.1385
  126MOL0     H16985   8.857   4.933   3.895  0.2232 -3.0588 -2.5353
  126MOL0     H16986   8.988   5.105   3.777 -0.3103 -2.3082  0.0081
  126MOL0     H16987   9.128   5.089   3.890  0.4018 -2.2894  2.6018
  126MOL0     H16988   8.933   5.157   4.064  1.5319  1.1434  0.9421
  126MOL0     H16989   8.994   5.276   3.953  1.4337  0.5444 -1.2717
  126MOL0     H16990   8.627   5.031   4.087 -2.5562 -1.0705 -0.6619
  126MOL0     H16991   8.522   5.234   4.140 -1.5125  1.8816  1.1704
  126MOL0     H16992   8.351   5.668   4.220  0.6407  0.9295  0.7523
  126MOL0     H16993   8.171   5.831   4.286  0.9622  2.0786  3.8142
  126MOL0     H16994   6.288   5.831   4.880  0.7114 -1.0854  0.6644
  126MOL0     H16995   6.110   5.929   5.002  3.6251  0.4125 -0.5841
  126MOL0     H16996   5.688   5.852   5.146  0.7180  3.3069 -0.6640
  126MOL0     H16997   5.471   5.914   5.225  1.1571  0.1947 -1.0216
  126MOL0     H16998   5.266   5.909   5.379 -0.5160  0.8694 -2.5485
  126MOL0     H16999   5.327   6.072   5.343 -0.5026  1.5512  1.4266
  126MOL0     H17000   5.129   6.133   5.438  0.5634  3.2501  0.4785
  126MOL0     H17001   5.245   6.140   5.577  0.0463 -0.6255  0.8236
  126MOL0     H17002   5.165   5.915   5.647 -0.5347 -2.3615 -0.1486
  126MOL0     H17003   5.061   5.910   5.503 -2.2687  1.8824 -0.3988
  126MOL0     H17004   5.046   6.092   5.736 -0.3485  0.5395 -0.7278
  126MOL0     H17005   4.954   6.130   5.588 -0.0473  1.0597  0.8501
  126MOL0     H17006   4.713   5.843   5.793  3.0527 -0.0955  3.7313
  126MOL0     H17007   5.608   5.889   5.629  3.8179  1.0958  0.0825
  126MOL0     H17008   5.957   5.921   5.562  2.4447 -1.2766  0.6134
  126MOL0     H17009   5.836   5.848   5.671  0.1448 -0.2064 -0.4873
  126MOL0     H17010   5.932   5.754   5.555 -1.0389  0.1287 -2.6962
  127MOL0     O17011   4.851   2.506   0.454  0.5580  0.0312  1.4928
  127MOL0     C17012   4.815   2.446   0.351  0.4217  0.1085 -0.4841
  127MOL0     O17013   4.763   2.509   0.235 -0.1473 -0.8243 -0.0890
  127MOL0     C17014   4.779   2.650   0.218 -0.5158  0.2735 -1.0978
  127MOL0     C17015   4.900   2.712   0.245  1.3956 -0.0548  0.3980
  127MOL0     C17016   4.912   2.846   0.219  0.1233  0.3944  0.0555
  127MOL0     C17017   4.803   2.920   0.162  0.1628 -0.1017  0.5251
  127MOL0     O17018   4.821   3.053   0.150  0.1481  0.8801  0.0280
  127MOL0     C17019   4.751   3.119   0.041 -1.0999  0.2058 -0.0458
  127MOL0     C17020   4.771   3.273   0.038  0.0199  0.4742  0.6548
  127MOL0     C17021   4.918   3.314   0.034  0.2317 -1.0303  0.0439
  127MOL0     C17022   4.929   3.465   0.057  0.1359 -0.2379  0.4371
  127MOL0     C17023   5.059   3.518   0.119  0.0240  0.1629  0.5162
  127MOL0     C17024   5.180   3.482   0.032 -0.0464 -0.8435  0.1288
  127MOL0     C17025   5.306   3.550   0.086  0.8140  1.1193 -0.9327
  127MOL0     C17026   5.344   3.498   0.230  0.8414 -0.8725  0.0708
  127MOL0     N17027   5.472   3.561   0.269  0.2056  0.9207  0.3835
  127MOL0     C17028   5.472   3.677   0.336 -0.7586 -0.5054  0.6844
  127MOL0     C17029   5.605   3.683   0.366  0.2410 -0.1196 -0.6047
  127MOL0     C17030   5.670   3.788   0.460  0.2498 -0.5715  0.1130
  127MOL0     C17031   5.824   3.808   0.428 -0.4764  0.1352  0.4940
  127MOL0     C17032   5.851   3.832   0.277 -0.1369 -0.2954 -0.5373
  127MOL0     C17033   5.990   3.892   0.251 -0.0790 -0.5337  0.1321
  127MOL0     O17034   5.991   3.950   0.116  0.4581  0.3902  0.1884
  127MOL0     C17035   6.112   3.979   0.065  0.3834 -0.7320 -0.5275
  127MOL0     C17036   6.238   3.918   0.105  0.3435 -0.7554  0.3514
  127MOL0     C17037   6.357   3.957   0.039  0.9595  0.1561  0.0951
  127MOL0     C17038   6.357   4.060  -0.059  0.1422 -0.8761 -0.1248
  127MOL0     C17039   6.487   4.106  -0.110 -0.4531 -0.4937  0.1651
  127MOL0     O17040   6.472   4.214  -0.194  0.4769  0.0893 -0.2280
  127MOL0     C17041   6.592   4.258  -0.236  0.1401  0.2628 -0.1060
  127MOL0     C17042   6.642   4.380  -0.188 -0.4928  0.6206 -0.1266
  127MOL0     C17043   6.757   4.443  -0.229 -0.2114 -0.5484  0.6081
  127MOL0     C17044   6.827   4.390  -0.338 -0.0637 -0.2902  0.7864
  127MOL0     O17045   6.951   4.439  -0.372 -0.3626  0.3190 -0.7637
  127MOL0     C17046   6.986   4.440  -0.511 -0.3845 -0.2187 -0.3199
  127MOL0     C17047   7.118   4.364  -0.534  0.3684 -0.4848  0.1395
  127MOL0     C17048   7.154   4.368  -0.676 -0.4801 -0.0309  0.1322
  127MOL0     C17049   7.297   4.296  -0.696  0.4923 -0.3026 -0.4501
  127MOL0     C17050   7.359   4.304  -0.836  0.1754  0.3909 -0.0492
  127MOL0     C17051   7.495   4.239  -0.853  0.0867 -0.0243 -0.2516
  127MOL0     C17052   7.484   4.095  -0.813 -0.3248 -0.3607 -0.1051
  127MOL0     C17053   7.587   4.001  -0.882 -0.1598  0.2955 -0.0022
  127MOL0    Cl17054   7.558   3.977  -1.059  0.3375  0.1472  0.0842
  127MOL0     C17055   6.766   4.272  -0.397 -0.2452  0.4804  0.1028
  127MOL0     C17056   6.659   4.200  -0.342 -1.0503 -0.2250 -0.3561
  127MOL0     O17057   6.589   4.049  -0.086 -0.0305  0.4322 -0.3642
  127MOL0     C17058   6.232   4.120  -0.099  0.1896 -0.6534 -0.1467
  127MOL0     C17059   6.113   4.077  -0.039 -0.5855 -0.2967  0.5582
  127MOL0     N17060   5.671   3.563   0.338  0.2678  0.3741  0.3182
  127MOL0     N17061   5.586   3.501   0.268 -0.4937  0.5439  0.1998
  127MOL0     C17062   4.688   2.852   0.136  0.7194  0.0658  0.3069
  127MOL0     C17063   4.670   2.714   0.168  0.0508  0.0614  0.7312
  127MOL0     C17064   4.815   2.303   0.345  0.5233  1.4342 -0.2980
  127MOL0     C17065   4.740   2.239   0.243  0.1195 -0.3721  0.3370
  127MOL0     C17066   4.722   2.103   0.238 -0.5289  0.8624 -0.1818
  127MOL0     C17067   4.783   2.019   0.333  0.3120  0.5213  0.5176
  127MOL0     O17068   4.763   1.883   0.334  0.4336 -0.1455 -0.1277
  127MOL0     C17069   4.719   1.804   0.222  0.3047  0.4683 -0.3280
  127MOL0     C17070   4.580   1.749   0.235 -0.0108  0.2045  0.1065
  127MOL0     C17071   4.464   1.859   0.240  0.5709  0.5387 -0.0449
  127MOL0     C17072   4.332   1.785   0.239 -0.4541  0.0737 -0.7467
  127MOL0     C17073   4.295   1.707   0.120 -0.8646  0.1117 -0.1932
  127MOL0     C17074   4.257   1.626   0.036  0.5034  0.2949 -0.0623
  127MOL0     C17075   4.868   2.078   0.420 -0.6205 -0.6645 -0.0566
  127MOL0     C17076   4.879   2.217   0.435 -0.0435 -0.3183  0.5127
  127MOL0     C17077   4.981   2.264   0.539  0.9156  0.5720 -0.5819
  127MOL0     H17078   4.988   2.655   0.272  1.3790 -0.3186 -0.1007
  127MOL0     H17079   5.011   2.885   0.239  0.9240 -1.4847 -0.0639
  127MOL0     H17080   4.771   3.073  -0.056  1.0898 -1.8970  1.2965
  127MOL0     H17081   4.645   3.116   0.068 -0.7580 -0.5223  1.3274
  127MOL0     H17082   4.723   3.312   0.128 -4.2145 -1.4697 -0.5005
  127MOL0     H17083   4.720   3.310  -0.052  0.0585 -1.5143 -0.2417
  127MOL0     H17084   4.956   3.299  -0.067 -0.7828  3.8336 -1.3120
  127MOL0     H17085   4.976   3.262   0.111  0.7885  0.4403  0.6637
  127MOL0     H17086   4.909   3.520  -0.036 -1.6195 -2.6438 -0.7231
  127MOL0     H17087   4.861   3.504   0.133  0.7293  0.8855  0.4184
  127MOL0     H17088   5.053   3.627   0.124 -2.6466  0.0308  1.5280
  127MOL0     H17089   5.067   3.480   0.221  0.1223 -0.9861  0.0928
  127MOL0     H17090   5.202   3.375   0.030  0.1066 -0.9246  2.5976
  127MOL0     H17091   5.160   3.520  -0.068 -0.0152 -1.1889 -0.0067
  127MOL0     H17092   5.290   3.658   0.096  2.8363  1.3035  1.1639
  127MOL0     H17093   5.390   3.548   0.016  2.3891  1.2018  0.8563
  127MOL0     H17094   5.268   3.524   0.303 -1.0236  0.6512 -2.2657
  127MOL0     H17095   5.359   3.389   0.226  0.1181 -0.9363 -1.2737
  127MOL0     H17096   5.389   3.747   0.346 -0.8001 -0.0346 -2.1188
  127MOL0     H17097   5.620   3.883   0.437  1.2975 -0.5683 -2.5280
  127MOL0     H17098   5.654   3.769   0.566 -1.7377 -1.2178 -0.2491
  127MOL0     H17099   5.860   3.894   0.486 -2.4816 -0.2211  2.4140
  127MOL0     H17100   5.879   3.720   0.461 -0.2471 -1.3099 -3.2725
  127MOL0     H17101   5.775   3.895   0.230 -0.0933  0.3615  0.2661
  127MOL0     H17102   5.847   3.736   0.223 -1.9480 -0.2337 -0.5669
  127MOL0     H17103   6.061   3.809   0.261 -0.5462 -1.3681 -2.5303
  127MOL0     H17104   6.008   3.962   0.333  0.4440  1.1351 -1.3570
  127MOL0     H17105   6.254   3.847   0.185 -0.2557  0.1019  1.2613
  127MOL0     H17106   6.448   3.902   0.058  0.3463 -0.6675  0.7024
  127MOL0     H17107   6.584   4.442  -0.120 -0.8373 -2.5396  2.7389
  127MOL0     H17108   6.783   4.534  -0.175 -0.3685 -1.2644  1.9256
  127MOL0     H17109   6.909   4.418  -0.586 -0.0479  2.6576 -1.6308
  127MOL0     H17110   7.006   4.541  -0.548  2.1374 -1.0839 -1.5486
  127MOL0     H17111   7.193   4.408  -0.467 -0.4980 -0.2964  1.0187
  127MOL0     H17112   7.091   4.264  -0.497  1.7642 -0.0836  2.4486
  127MOL0     H17113   7.072   4.317  -0.729 -2.3986  1.4973  1.4740
  127MOL0     H17114   7.156   4.470  -0.714 -3.3068  0.1941  0.3688
  127MOL0     H17115   7.286   4.192  -0.664  0.6999 -1.2952 -3.3078
  127MOL0     H17116   7.367   4.340  -0.623 -0.6088 -3.0289  2.5025
  127MOL0     H17117   7.381   4.409  -0.860 -0.5105  0.6282  0.3158
  127MOL0     H17118   7.301   4.255  -0.914  1.2439  1.6043 -1.6703
  127MOL0     H17119   7.522   4.250  -0.958 -0.2234 -1.5647 -0.5146
  127MOL0     H17120   7.565   4.299  -0.793 -2.6185 -0.4280  3.6263
  127MOL0     H17121   7.381   4.057  -0.813 -0.5551  0.2474  1.0519
  127MOL0     H17122   7.508   4.097  -0.707  3.9755 -0.2541 -0.9057
  127MOL0     H17123   7.688   4.036  -0.858  1.0400 -2.1485 -1.1926
  127MOL0     H17124   7.578   3.909  -0.824 -0.5889  0.1986 -0.2235
  127MOL0     H17125   6.823   4.224  -0.476 -1.0486 -1.3200  0.5593
  127MOL0     H17126   6.638   4.102  -0.385  0.8820 -2.3147  3.0024
  127MOL0     H17127   6.232   4.199  -0.174 -1.2992  0.9245  1.4073
  127MOL0     H17128   6.015   4.103  -0.078 -0.7252  1.5293  1.9743
  127MOL0     H17129   4.601   2.904   0.097  0.9146  0.3093  0.1987
  127MOL0     H17130   4.571   2.677   0.142 -1.1344  3.1599  0.3612
  127MOL0     H17131   4.690   2.304   0.173  0.7368  2.3251  2.2749
  127MOL0     H17132   4.656   2.051   0.169 -1.0680  2.6146 -1.0477
  127MOL0     H17133   4.792   1.723   0.213  0.0789  0.1865  0.3468
  127MOL0     H17134   4.724   1.849   0.122 -2.8143  0.8014 -0.4399
  127MOL0     H17135   4.592   1.690   0.326  1.2788  1.9553  1.1321
  127MOL0     H17136   4.561   1.684   0.149 -3.7211 -1.3142  1.8495
  127MOL0     H17137   4.468   1.922   0.150  0.7331 -0.2875 -0.6295
  127MOL0     H17138   4.467   1.927   0.325 -1.8257 -0.9071  1.2960
  127MOL0     H17139   4.326   1.728   0.333 -2.6200  2.9607  1.0350
  127MOL0     H17140   4.249   1.855   0.239 -0.3220  0.2693 -2.8262
  127MOL0     H17141   4.196   1.557  -0.019 -0.0494  0.1564  0.7137
  127MOL0     H17142   4.928   2.017   0.487  1.4364 -0.0856 -1.2851
  127MOL0     H17143   5.075   2.309   0.507  0.2909  1.9077 -0.5998
  127MOL0     H17144   4.934   2.327   0.615  0.3871 -1.0122  0.4529
  127MOL0     H17145   5.005   2.174   0.598 -0.7103 -0.2206 -1.0868
  128MOL0     O17146  11.226  11.072   3.772 -0.4832 -0.0729 -0.2324
  128MOL0     C17147  11.148  11.062   3.685 -0.6688 -1.1677  0.6465
  128MOL0     O17148  11.157  11.144   3.571 -0.7682  0.6640  0.5720
  128MOL0     C17149  11.268  11.222   3.553 -0.8348  0.4611 -0.0306
  128MOL0     C17150  11.257  11.360   3.574  0.3088 -0.0443 -0.1404
  128MOL0     C17151  11.370  11.442   3.549  0.9606  0.1908  0.0480
  128MOL0     C17152  11.490  11.391   3.508 -0.0595 -0.3895 -0.5778
  128MOL0     O17153  11.592  11.477   3.477  0.4444  0.1957  0.9603
  128MOL0     C17154  11.730  11.424   3.484  0.0286 -0.9592  0.7586
  128MOL0     C17155  11.824  11.536   3.471  0.1234 -0.2441  0.4009
  128MOL0     C17156  11.967  11.514   3.542  0.1068  0.1199  0.4740
  128MOL0     C17157  12.081  11.600   3.477  0.0670  0.3768 -0.8402
  128MOL0     C17158  12.090  11.747   3.535 -0.0876 -0.2746 -0.1532
  128MOL0     C17159  12.212  11.809   3.472 -0.2359 -0.0450  0.2926
  128MOL0     C17160  12.255  11.948   3.512 -0.7343 -0.0998 -0.2210
  128MOL0     C17161  12.381  11.986   3.432  0.3467 -0.2603  0.9185
  128MOL0     N17162  12.417  12.123   3.456  0.0505 -0.6020  0.2482
  128MOL0     C17163  12.493  12.159   3.559  0.4749 -0.0426  0.6039
  128MOL0     C17164  12.540  12.279   3.526 -0.0509 -0.9946 -0.4890
  128MOL0     C17165  12.628  12.363   3.616 -0.5373 -1.2431 -1.3673
  128MOL0     C17166  12.761  12.286   3.664 -1.2496  0.2091  0.5365
  128MOL0     C17167  12.864  12.263   3.549 -0.1330  0.4059 -0.8849
  128MOL0     C17168  12.925  12.389   3.500 -0.5733  0.0099 -0.3146
  128MOL0     O17169  13.039  12.362   3.418  0.2802 -0.2917 -0.1119
  128MOL0     C17170  13.161  12.335   3.473  0.4307  0.6982 -0.0668
  128MOL0     C17171  13.195  12.367   3.609  0.5412  0.4951 -0.3089
  128MOL0     C17172  13.325  12.339   3.655  0.4858 -0.2832  0.2044
  128MOL0     C17173  13.421  12.281   3.570 -0.0167 -0.2194 -0.2964
  128MOL0     C17174  13.554  12.247   3.625  0.5587  0.8349 -0.4188
  128MOL0     O17175  13.555  12.208   3.754  0.2808 -0.5915 -0.0441
  128MOL0     C17176  13.677  12.195   3.819  0.0119 -0.8186 -0.0627
  128MOL0     C17177  13.727  12.066   3.830 -0.6926  0.2092  0.1972
  128MOL0     C17178  13.848  12.047   3.910  0.1314 -0.4373  0.3596
  128MOL0     C17179  13.905  12.151   3.982  0.4076 -0.2165 -0.1508
  128MOL0     O17180  14.003  12.127   4.072 -0.4304  0.0550 -0.3731
  128MOL0     C17181  14.113  12.218   4.055 -0.5166 -0.4744  0.6590
  128MOL0     C17182  14.220  12.172   4.148 -0.3204 -0.5447 -0.2750
  128MOL0     C17183  14.285  12.031   4.106 -0.1814 -0.0725 -0.1018
  128MOL0     C17184  14.431  12.002   4.162 -0.0390  0.1791 -0.1563
  128MOL0     C17185  14.451  11.849   4.168  0.0824  0.1157 -0.8595
  128MOL0     C17186  14.474  11.777   4.037  0.7613 -0.4392  0.2321
  128MOL0     C17187  14.520  11.639   4.026  0.3265 -0.7180 -0.1319
  128MOL0     C17188  14.671  11.630   4.018 -0.7573  0.2974  0.4685
  128MOL0    Cl17189  14.754  11.486   3.946  0.3039 -0.0636 -0.5247
  128MOL0     C17190  13.847  12.282   3.972 -1.2003 -0.0733  0.1155
  128MOL0     C17191  13.737  12.301   3.888 -0.5219  0.0653 -1.5634
  128MOL0     O17192  13.654  12.258   3.562 -0.3867 -0.1101 -0.0789
  128MOL0     C17193  13.386  12.243   3.444  0.2426  0.4651  0.3876
  128MOL0     C17194  13.257  12.275   3.391  0.2360  0.5565  1.0274
  128MOL0     N17195  12.489  12.319   3.403  0.7250  0.2927  0.5535
  128MOL0     N17196  12.412  12.222   3.358 -0.4038 -0.4261 -0.6162
  128MOL0     C17197  11.498  11.249   3.504 -0.1679 -0.8804  0.2607
  128MOL0     C17198  11.387  11.171   3.525  0.4598  0.7277 -0.3282
  128MOL0     C17199  11.027  10.976   3.696 -0.9511 -0.1366 -0.7610
  128MOL0     C17200  10.946  10.966   3.589  0.1881  0.1979  0.8169
  128MOL0     C17201  10.849  10.861   3.585 -0.6645 -0.2330 -0.4812
  128MOL0     C17202  10.824  10.773   3.691 -0.2855 -0.0673  0.0850
  128MOL0     O17203  10.738  10.676   3.663  0.4426 -0.1887 -0.7141
  128MOL0     C17204  10.689  10.602   3.776 -0.7954  0.4058 -0.4541
  128MOL0     C17205  10.584  10.502   3.726  0.2446 -0.1471 -0.1103
  128MOL0     C17206  10.632  10.414   3.603  0.3018 -0.0498 -0.0505
  128MOL0     C17207  10.549  10.293   3.583 -0.1518 -0.5408 -0.1923
  128MOL0     C17208  10.586  10.223   3.455  0.3565  0.2177 -0.2312
  128MOL0     C17209  10.619  10.151   3.359 -0.4075 -0.4295 -0.3932
  128MOL0     C17210  10.897  10.794   3.805  0.1358  0.3775  0.4971
  128MOL0     C17211  11.000  10.896   3.813  0.0237  0.2487  0.0878
  128MOL0     C17212  11.070  10.901   3.936 -0.3098 -0.6240 -0.4416
  128MOL0     H17213  11.167  11.408   3.610  1.6406  2.5792 -0.0646
  128MOL0     H17214  11.369  11.551   3.550  4.3797  0.3309  1.0833
  128MOL0     H17215  11.733  11.388   3.587 -3.0006 -0.2668  1.1959
  128MOL0     H17216  11.739  11.344   3.410  0.8491  0.0539 -0.2846
  128MOL0     H17217  11.775  11.626   3.510 -2.5175 -1.5010  0.2215
  128MOL0     H17218  11.829  11.545   3.362 -1.2863 -1.0776  0.2416
  128MOL0     H17219  12.000  11.411   3.528  1.7866  0.8612 -1.7021
  128MOL0     H17220  11.958  11.528   3.651  0.9439  0.8829  0.4636
  128MOL0     H17221  12.180  11.560   3.499  0.5794  1.6169 -0.8588
  128MOL0     H17222  12.069  11.598   3.368  0.3024  0.0375 -0.8625
  128MOL0     H17223  11.998  11.804   3.524  0.8545  1.1720 -0.8455
  128MOL0     H17224  12.103  11.749   3.643 -1.8004  0.4975  0.0615
  128MOL0     H17225  12.292  11.736   3.489  1.4674  1.6159 -0.3830
  128MOL0     H17226  12.192  11.812   3.364 -2.1111 -1.7368  0.5239
  128MOL0     H17227  12.282  11.946   3.618  0.1468  0.8188 -0.4017
  128MOL0     H17228  12.170  12.013   3.490 -0.6766 -0.2333 -0.8532
  128MOL0     H17229  12.464  11.922   3.463  0.0049 -1.4011 -0.4483
  128MOL0     H17230  12.364  11.979   3.324  0.5492  0.6271  0.8213
  128MOL0     H17231  12.515  12.098   3.645  1.9170  2.2004  1.9200
  128MOL0     H17232  12.645  12.460   3.567 -1.0316 -0.1633  0.5165
  128MOL0     H17233  12.559  12.390   3.696 -0.4962  0.9306 -1.9840
  128MOL0     H17234  12.803  12.352   3.740 -0.8248  0.1391  0.3649
  128MOL0     H17235  12.741  12.193   3.717  0.5113  0.1281  1.1036
  128MOL0     H17236  12.820  12.207   3.466  3.2572 -1.5743 -1.5205
  128MOL0     H17237  12.941  12.200   3.594 -0.5581  0.3186 -0.2637
  128MOL0     H17238  12.943  12.447   3.590 -0.9891  0.4612 -0.5186
  128MOL0     H17239  12.856  12.450   3.441  1.7825  2.1108 -1.0815
  128MOL0     H17240  13.134  12.412   3.686  2.0380  4.1996 -1.0896
  128MOL0     H17241  13.355  12.357   3.758  0.6909  2.2844 -0.2328
  128MOL0     H17242  13.677  11.993   3.766 -0.9400 -0.4612  1.1449
  128MOL0     H17243  13.890  11.947   3.916  0.6647 -0.1167  4.2143
  128MOL0     H17244  14.158  12.225   3.956  2.4674 -0.6196  1.9030
  128MOL0     H17245  14.088  12.322   4.081 -0.3627 -0.8326  2.3697
  128MOL0     H17246  14.302  12.243   4.163  1.9981 -3.2237  0.5108
  128MOL0     H17247  14.184  12.151   4.249 -0.6325 -0.5922 -0.3939
  128MOL0     H17248  14.221  11.950   4.140  0.9493 -1.3254 -0.8592
  128MOL0     H17249  14.287  12.032   3.996  1.7993  2.4748 -0.1319
  128MOL0     H17250  14.450  12.047   4.260 -0.3364  0.3075 -0.1582
  128MOL0     H17251  14.499  12.056   4.095  2.8395 -2.0239  0.7628
  128MOL0     H17252  14.368  11.803   4.223  0.9332 -0.3295  0.0980
  128MOL0     H17253  14.537  11.842   4.236  1.5837  3.3736 -2.1966
  128MOL0     H17254  14.372  11.773   3.997  0.1296 -1.7614  1.8704
  128MOL0     H17255  14.533  11.840   3.970 -1.3343 -0.0617 -1.3823
  128MOL0     H17256  14.473  11.591   3.940 -0.8447  0.4416 -0.1743
  128MOL0     H17257  14.480  11.597   4.119 -1.3128 -0.6467 -0.7687
  128MOL0     H17258  14.698  11.717   3.956 -0.1924  0.0328  0.3338
  128MOL0     H17259  14.719  11.641   4.116 -1.4044  0.0188  0.8248
  128MOL0     H17260  13.882  12.366   4.032 -1.6308 -0.4693  0.9386
  128MOL0     H17261  13.694  12.401   3.884 -3.0132 -0.9289 -1.2312
  128MOL0     H17262  13.461  12.199   3.379  1.0981 -0.3178  1.8417
  128MOL0     H17263  13.231  12.263   3.287 -1.1759 -0.9263  1.5043
  128MOL0     H17264  11.598  11.213   3.480  0.1738 -0.5108  1.0936
  128MOL0     H17265  11.379  11.064   3.505 -3.7940  0.4123  2.0360
  128MOL0     H17266  10.964  11.026   3.501 -1.8719 -3.5384 -2.5301
  128MOL0     H17267  10.793  10.839   3.495  0.8381  0.5863 -1.6795
  128MOL0     H17268  10.645  10.666   3.853 -0.5465  0.5410 -0.4235
  128MOL0     H17269  10.770  10.540   3.816 -0.5331 -0.5360 -2.3313
  128MOL0     H17270  10.497  10.560   3.695  0.8227  0.6955 -0.1701
  128MOL0     H17271  10.554  10.426   3.799 -0.1993  1.2145  1.1562
  128MOL0     H17272  10.736  10.381   3.611  0.6650  1.0339 -0.1083
  128MOL0     H17273  10.632  10.490   3.524 -0.4883 -0.9312 -0.9170
  128MOL0     H17274  10.566  10.213   3.657 -2.2618 -2.6616 -1.8467
  128MOL0     H17275  10.444  10.322   3.588 -0.1933 -0.7778  0.6236
  128MOL0     H17276  10.630  10.099   3.266  1.3551 -2.7257  0.9908
  128MOL0     H17277  10.877  10.719   3.881 -3.3500  2.6635  2.1143
  128MOL0     H17278  11.163  10.847   3.918  0.4492  0.8366 -1.0672
  128MOL0     H17279  11.087  11.005   3.964 -1.6530 -0.0172 -1.7402
  128MOL0     H17280  11.000  10.856   4.008 -0.6447 -0.8015 -0.8733
  129MOL0     O17281   9.118   0.864   8.324 -0.1554  0.3547  0.2790
  129MOL0     C17282   9.145   0.978   8.370  0.6921  0.2822 -0.2835
  129MOL0     O17283   9.089   1.040   8.476  0.0066 -0.6110 -0.3103
  129MOL0     C17284   8.969   0.999   8.531  0.4240 -0.9618 -0.4465
  129MOL0     C17285   8.958   0.879   8.593  0.2690  0.4425 -0.3742
  129MOL0     C17286   8.834   0.840   8.654 -0.0394 -0.2711 -0.3688
  129MOL0     C17287   8.718   0.927   8.653 -1.2411 -0.9190  0.1518
  129MOL0     O17288   8.592   0.907   8.702 -0.5809  0.2135  0.1424
  129MOL0     C17289   8.592   0.831   8.827 -0.4974  0.5202 -0.2406
  129MOL0     C17290   8.441   0.831   8.865 -0.1947 -0.2431  0.5199
  129MOL0     C17291   8.367   0.730   8.770  0.7965 -0.3687 -0.0739
  129MOL0     C17292   8.236   0.696   8.836 -0.4683  0.0711 -0.3356
  129MOL0     C17293   8.157   0.597   8.751  0.8773 -0.3325 -0.4712
  129MOL0     C17294   8.020   0.567   8.822 -0.1868  0.4095 -0.1405
  129MOL0     C17295   7.914   0.510   8.722  0.4738 -0.4718 -0.0476
  129MOL0     C17296   7.927   0.359   8.686  0.0282 -0.5079  0.3202
  129MOL0     N17297   7.859   0.269   8.776  0.2278 -0.0369  0.3983
  129MOL0     C17298   7.917   0.213   8.876 -0.7175 -0.7706 -0.0056
  129MOL0     C17299   7.831   0.127   8.939  0.3880 -0.1032  0.2636
  129MOL0     C17300   7.862   0.039   9.058 -0.3296  0.6807  0.1106
  129MOL0     C17301   8.000  -0.031   9.047 -0.6878 -0.5164 -0.9426
  129MOL0     C17302   8.003  -0.152   8.941  0.3333  0.0657  0.4825
  129MOL0     C17303   8.122  -0.251   8.934  0.0469 -0.0595  0.5619
  129MOL0     O17304   8.253  -0.186   8.916 -0.0157 -0.0054  0.1425
  129MOL0     C17305   8.360  -0.257   8.901 -1.2026 -0.0431  0.4593
  129MOL0     C17306   8.490  -0.195   8.897  0.0686 -0.6500 -0.7207
  129MOL0     C17307   8.613  -0.266   8.881 -0.2278 -0.4257  0.0833
  129MOL0     C17308   8.608  -0.399   8.849  0.4183  0.7120  0.6892
  129MOL0     C17309   8.731  -0.476   8.828 -0.0402  0.2972  0.1281
  129MOL0     O17310   8.850  -0.403   8.841 -0.8371 -0.2445  0.5849
  129MOL0     C17311   8.969  -0.449   8.792 -0.6833 -0.0709 -0.0303
  129MOL0     C17312   9.077  -0.453   8.881 -0.6620 -0.1653  0.2167
  129MOL0     C17313   9.202  -0.511   8.837  0.4435  0.2112  0.2271
  129MOL0     C17314   9.211  -0.567   8.716 -0.1039 -0.1243  0.8923
  129MOL0     O17315   9.323  -0.621   8.660  0.7202  0.3238  0.4265
  129MOL0     C17316   9.440  -0.541   8.675 -0.1744 -0.2839 -0.5739
  129MOL0     C17317   9.559  -0.567   8.578  1.1965 -0.6545  0.7784
  129MOL0     C17318   9.680  -0.473   8.616  0.4017  0.0867 -0.4687
  129MOL0     C17319   9.789  -0.538   8.534 -0.6388 -0.3374 -0.9008
  129MOL0     C17320   9.916  -0.464   8.581 -0.0542 -0.1978  0.8669
  129MOL0     C17321  10.045  -0.548   8.559 -0.8858  0.3700  1.0607
  129MOL0     C17322  10.172  -0.477   8.611  0.2416  0.2322 -0.9005
  129MOL0     C17323  10.288  -0.569   8.576 -0.2817 -0.1664 -0.5702
  129MOL0    Cl17324  10.446  -0.493   8.617  0.0631  0.1173 -0.0018
  129MOL0     C17325   9.103  -0.558   8.632  0.7729 -0.0236  0.7581
  129MOL0     C17326   8.985  -0.497   8.663 -0.6366  0.7351  0.4456
  129MOL0     O17327   8.731  -0.590   8.788 -0.1293  0.2254  0.3759
  129MOL0     C17328   8.485  -0.461   8.838  0.3611 -0.6804 -0.7016
  129MOL0     C17329   8.368  -0.393   8.872  1.4910 -0.2165  0.5191
  129MOL0     N17330   7.718   0.137   8.862  0.0706  0.1946 -0.6754
  129MOL0     N17331   7.732   0.228   8.769  0.6131 -0.4756  0.2218
  129MOL0     C17332   8.737   1.046   8.579 -0.2555 -0.3579 -0.0764
  129MOL0     C17333   8.854   1.081   8.519  0.1291 -0.6183  0.3079
  129MOL0     C17334   9.275   1.041   8.334 -0.0314 -0.9022 -0.3704
  129MOL0     C17335   9.397   0.966   8.333  0.4711 -0.1297  0.3966
  129MOL0     C17336   9.519   1.020   8.289 -0.0891 -0.0441 -0.0937
  129MOL0     C17337   9.531   1.158   8.258 -0.4786 -0.4630  0.1903
  129MOL0     O17338   9.636   1.229   8.210 -0.0579  0.1201  0.4604
  129MOL0     C17339   9.764   1.170   8.188 -0.8560 -0.0454  0.2047
  129MOL0     C17340   9.773   1.064   8.069  0.2743 -1.1832  0.3927
  129MOL0     C17341   9.698   1.113   7.943 -0.2778  0.6573 -0.2810
  129MOL0     C17342   9.577   1.026   7.903  0.1749 -0.0545 -0.6013
  129MOL0     C17343   9.602   0.877   7.896  0.5527 -0.3874  0.3507
  129MOL0     C17344   9.620   0.758   7.894  0.2525 -0.2811 -0.0701
  129MOL0     C17345   9.418   1.235   8.266 -0.2937  0.5578  0.4175
  129MOL0     C17346   9.296   1.176   8.300 -0.7456 -0.0033  0.4138
  129MOL0     C17347   9.179   1.270   8.288  0.2326  0.0965  0.1231
  129MOL0     H17348   9.041   0.808   8.595  0.1388  0.3099  1.6899
  129MOL0     H17349   8.818   0.741   8.695  0.2740  0.3283  1.3007
  129MOL0     H17350   8.627   0.728   8.812 -0.1627  0.8924 -2.4283
  129MOL0     H17351   8.637   0.881   8.913 -1.1862 -1.5987  1.4433
  129MOL0     H17352   8.405   0.932   8.850  0.9473  0.3203  1.3505
  129MOL0     H17353   8.420   0.800   8.968  1.3493  0.9388  1.2284
  129MOL0     H17354   8.420   0.638   8.743 -1.7416 -1.6220 -1.1472
  129MOL0     H17355   8.360   0.780   8.673  1.7378  0.3046  0.1836
  129MOL0     H17356   8.258   0.644   8.930 -0.2457  1.0188  0.1485
  129MOL0     H17357   8.172   0.781   8.863  0.7555  0.4388  1.6180
  129MOL0     H17358   8.145   0.648   8.655 -0.0765 -0.8710 -0.6515
  129MOL0     H17359   8.216   0.505   8.740  0.5517 -0.4956 -0.8713
  129MOL0     H17360   8.040   0.502   8.907 -3.2967 -1.6371 -0.7996
  129MOL0     H17361   7.971   0.657   8.861 -3.7967 -0.7434 -1.5164
  129MOL0     H17362   7.898   0.559   8.625  1.9395 -1.4270 -0.8151
  129MOL0     H17363   7.814   0.519   8.765  0.8232 -1.1160  0.9225
  129MOL0     H17364   7.897   0.340   8.582  2.0904  0.7022 -0.5758
  129MOL0     H17365   8.035   0.339   8.683  0.4904  1.6163  0.5522
  129MOL0     H17366   8.015   0.240   8.913 -0.1051  1.1453 -2.7267
  129MOL0     H17367   7.863   0.097   9.151  1.5979 -0.4883  0.8691
  129MOL0     H17368   7.793  -0.045   9.052 -1.3843  1.6311 -3.4463
  129MOL0     H17369   8.076   0.044   9.025  0.6353 -1.8188 -1.0141
  129MOL0     H17370   8.039  -0.076   9.139 -0.1014 -0.9796 -1.4006
  129MOL0     H17371   7.993  -0.116   8.838 -4.2630 -1.7347  0.0335
  129MOL0     H17372   7.918  -0.219   8.961 -2.7871  3.4742 -0.2124
  129MOL0     H17373   8.102  -0.320   8.851 -1.0194  0.5301  0.3091
  129MOL0     H17374   8.119  -0.302   9.030 -0.0730 -0.1659  0.5011
  129MOL0     H17375   8.493  -0.088   8.912 -0.9967 -0.6492 -0.4872
  129MOL0     H17376   8.708  -0.215   8.891 -1.2915  1.5272  0.7011
  129MOL0     H17377   9.076  -0.399   8.975  0.4622 -3.4931  2.3327
  129MOL0     H17378   9.291  -0.518   8.899  0.1582 -1.4269  0.5081
  129MOL0     H17379   9.424  -0.434   8.661  1.3368  0.1368  0.6901
  129MOL0     H17380   9.483  -0.570   8.772 -2.8285 -0.5008  0.6450
  129MOL0     H17381   9.589  -0.671   8.595 -1.2317 -1.2424  1.8548
  129MOL0     H17382   9.525  -0.552   8.475 -0.6896 -4.2007  0.7492
  129MOL0     H17383   9.663  -0.369   8.586 -2.0219  0.0014  0.4014
  129MOL0     H17384   9.693  -0.483   8.724  0.1855 -1.1004 -0.5382
  129MOL0     H17385   9.787  -0.544   8.425  2.8335 -0.1431 -1.0923
  129MOL0     H17386   9.794  -0.638   8.578  0.9740 -0.3167 -0.9535
  129MOL0     H17387   9.911  -0.453   8.690  0.4088 -1.9005  1.0891
  129MOL0     H17388   9.916  -0.364   8.537  0.8453 -1.1126 -1.3549
  129MOL0     H17389  10.036  -0.648   8.604 -2.0139  0.0035  0.0780
  129MOL0     H17390  10.075  -0.546   8.454  1.9132 -0.8513  1.7554
  129MOL0     H17391  10.170  -0.451   8.717  0.0257 -0.0313 -0.8375
  129MOL0     H17392  10.188  -0.389   8.549  0.2609  0.3834 -0.6797
  129MOL0     H17393  10.287  -0.663   8.631  1.4736 -1.6160 -2.8053
  129MOL0     H17394  10.289  -0.597   8.470  0.9931  1.0641 -0.9096
  129MOL0     H17395   9.110  -0.606   8.535 -2.5530 -0.7047  0.7356
  129MOL0     H17396   8.902  -0.484   8.594 -0.6712  0.2985  0.4001
  129MOL0     H17397   8.486  -0.568   8.819  2.3331 -0.9578  0.6669
  129MOL0     H17398   8.276  -0.451   8.873  0.1015  1.6371 -2.8411
  129MOL0     H17399   8.659   1.120   8.561  2.3436  2.1162 -1.9448
  129MOL0     H17400   8.856   1.182   8.478 -0.9834 -0.0569  1.5579
  129MOL0     H17401   9.394   0.862   8.366 -0.0005 -0.1576  0.2672
  129MOL0     H17402   9.615   0.968   8.282 -0.6911 -1.5246  1.6942
  129MOL0     H17403   9.806   1.115   8.273 -0.5324  0.2661  0.2457
  129MOL0     H17404   9.838   1.248   8.168 -1.0160  0.0490 -0.0185
  129MOL0     H17405   9.735   0.968   8.104 -1.9096 -0.7819 -0.6814
  129MOL0     H17406   9.878   1.052   8.043 -0.0663 -0.2171 -1.6653
  129MOL0     H17407   9.764   1.139   7.860 -1.6280 -0.2828 -1.7143
  129MOL0     H17408   9.655   1.211   7.961 -0.2435  0.4074  1.2992
  129MOL0     H17409   9.488   1.045   7.963  1.1864  1.3821  0.5270
  129MOL0     H17410   9.539   1.053   7.804 -0.1840  2.2619  0.0973
  129MOL0     H17411   9.628   0.652   7.883  2.9873 -0.3678  1.7567
  129MOL0     H17412   9.432   1.340   8.242  2.7516  0.2532  0.4679
  129MOL0     H17413   9.142   1.258   8.391  1.6737  1.0696  0.7900
  129MOL0     H17414   9.214   1.371   8.268 -1.5357  0.7144  0.0309
  129MOL0     H17415   9.099   1.238   8.220 -3.7902  0.2781  4.2498
  130MOL0     O17416   7.896   1.379   9.466 -0.3529  0.4158 -0.2436
  130MOL0     C17417   7.842   1.333   9.364  0.8039  0.4486 -0.6772
  130MOL0     O17418   7.868   1.374   9.240 -0.4015 -0.6278  0.9637
  130MOL0     C17419   7.922   1.502   9.234 -0.1825 -0.5784  0.5365
  130MOL0     C17420   7.849   1.613   9.237  0.6975 -1.1686  1.1150
  130MOL0     C17421   7.913   1.741   9.229  0.3980  0.0853  1.0801
  130MOL0     C17422   8.047   1.757   9.211 -0.4684 -0.4502 -0.5046
  130MOL0     O17423   8.088   1.889   9.209 -0.0367  0.2007 -0.2670
  130MOL0     C17424   8.210   1.933   9.261 -1.0870 -0.0138 -0.0718
  130MOL0     C17425   8.290   1.997   9.141  0.6497 -0.9543 -0.4421
  130MOL0     C17426   8.429   2.035   9.162  0.3659 -0.3085 -0.2782
  130MOL0     C17427   8.436   2.122   9.286 -0.2569 -0.4553 -1.2333
  130MOL0     C17428   8.577   2.200   9.299  0.1167 -0.5544 -0.5359
  130MOL0     C17429   8.587   2.319   9.198  0.6113 -0.7338 -0.2950
  130MOL0     C17430   8.715   2.398   9.201  0.4302  0.3615  0.9549
  130MOL0     C17431   8.844   2.311   9.187  0.0071  0.3585 -0.1306
  130MOL0     N17432   8.957   2.400   9.209  0.0062 -0.2694 -0.4998
  130MOL0     C17433   9.040   2.404   9.319 -0.0453  0.1245  0.4248
  130MOL0     C17434   9.129   2.501   9.283 -0.2926 -0.2800  0.4593
  130MOL0     C17435   9.249   2.566   9.348 -0.4152  0.1216 -0.1455
  130MOL0     C17436   9.378   2.507   9.294  0.1420 -0.7446 -0.0295
  130MOL0     C17437   9.421   2.387   9.367  0.6835 -0.8095  0.2209
  130MOL0     C17438   9.569   2.354   9.348 -0.5870 -0.8180  0.6939
  130MOL0     O17439   9.640   2.474   9.390  0.1064 -0.1230 -0.4984
  130MOL0     C17440   9.773   2.481   9.341  0.3837 -0.7137 -0.1212
  130MOL0     C17441   9.839   2.603   9.354 -0.3219 -0.3981  0.3594
  130MOL0     C17442   9.973   2.616   9.323 -1.0021 -0.9770  0.6500
  130MOL0     C17443  10.041   2.505   9.268  0.1874  0.5193  0.0395
  130MOL0     C17444  10.182   2.519   9.222 -0.7231  0.8558 -0.1695
  130MOL0     O17445  10.237   2.645   9.217  0.3984  0.3020  0.1039
  130MOL0     C17446  10.373   2.660   9.201  0.1952 -0.4355  0.6211
  130MOL0     C17447  10.482   2.570   9.211  0.1404 -0.8364  0.9023
  130MOL0     C17448  10.608   2.607   9.185 -1.1812  0.7356  0.6673
  130MOL0     C17449  10.639   2.735   9.125 -0.5604 -0.1640 -0.5585
  130MOL0     O17450  10.764   2.775   9.093  0.1991 -0.3703  0.5371
  130MOL0     C17451  10.861   2.681   9.078 -0.0405 -0.0840  0.7941
  130MOL0     C17452  10.993   2.753   9.052  0.6545  0.1743  0.0190
  130MOL0     C17453  11.096   2.650   9.018 -1.1293 -0.1764  0.3070
  130MOL0     C17454  11.095   2.617   8.861 -0.4157  0.1595 -0.5669
  130MOL0     C17455  11.178   2.501   8.820 -0.2052  0.9609  0.4829
  130MOL0     C17456  11.331   2.529   8.845  0.4584 -0.5214  0.5748
  130MOL0     C17457  11.414   2.414   8.774  0.0507 -0.0075 -0.3019
  130MOL0     C17458  11.549   2.398   8.832 -0.5233 -0.1017  0.1643
  130MOL0    Cl17459  11.635   2.262   8.751 -0.0314 -0.3602  0.0864
  130MOL0     C17460  10.538   2.826   9.128 -0.6771  0.4293 -0.1441
  130MOL0     C17461  10.406   2.788   9.170 -0.3326 -0.1355 -0.4412
  130MOL0     O17462  10.239   2.412   9.207  0.2416  0.1524  0.4848
  130MOL0     C17463   9.975   2.380   9.259 -0.3641  0.7930  0.6550
  130MOL0     C17464   9.840   2.366   9.299 -0.2181 -0.1234  0.8911
  130MOL0     N17465   9.101   2.537   9.152  0.2583  0.1479  0.6152
  130MOL0     N17466   8.999   2.474   9.105  0.0865  0.1865  0.1988
  130MOL0     C17467   8.127   1.640   9.207  0.1451 -0.9293 -0.3290
  130MOL0     C17468   8.061   1.514   9.218 -0.4637  0.4992  0.1436
  130MOL0     C17469   7.739   1.227   9.374 -0.3813 -0.1497 -0.4983
  130MOL0     C17470   7.728   1.141   9.266  0.7020 -0.3361  0.5510
  130MOL0     C17471   7.626   1.046   9.260 -0.3886 -0.5248  0.6267
  130MOL0     C17472   7.541   1.022   9.363 -0.3032  0.6165 -0.1210
  130MOL0     O17473   7.439   0.931   9.358 -0.1878  0.3846  0.2622
  130MOL0     C17474   7.432   0.848   9.241 -0.3453  0.8082  0.0598
  130MOL0     C17475   7.318   0.748   9.268  0.0718  0.9642  0.1442
  130MOL0     C17476   7.257   0.675   9.154 -0.0554  0.6506  0.3141
  130MOL0     C17477   7.154   0.574   9.194  0.4272 -0.8082  0.4017
  130MOL0     C17478   7.086   0.507   9.076 -0.8809 -0.3547  0.9403
  130MOL0     C17479   7.033   0.445   8.989 -0.2476  0.2305  0.2628
  130MOL0     C17480   7.552   1.099   9.478  1.0354 -1.1568  0.1604
  130MOL0     C17481   7.650   1.208   9.483 -0.1917 -0.3024 -0.1697
  130MOL0     C17482   7.666   1.288   9.606 -0.4447  0.0445 -0.1785
  130MOL0     H17483   7.743   1.611   9.262  0.2674 -1.4001 -0.6079
  130MOL0     H17484   7.857   1.834   9.231  0.9126  0.4402 -0.0276
  130MOL0     H17485   8.187   2.010   9.336 -0.9184 -0.4192  0.3999
  130MOL0     H17486   8.272   1.856   9.309 -0.4247 -0.2350 -1.2384
  130MOL0     H17487   8.227   2.080   9.108  1.3920  0.6683  1.8885
  130MOL0     H17488   8.290   1.928   9.056 -0.4955 -2.7430  0.9141
  130MOL0     H17489   8.463   2.092   9.075 -3.2698  0.8605 -1.1120
  130MOL0     H17490   8.485   1.944   9.184  0.1165 -0.1775  0.9902
  130MOL0     H17491   8.356   2.196   9.298  0.6984  0.3426  0.6650
  130MOL0     H17492   8.414   2.062   9.375 -4.0199 -0.3360 -1.9204
  130MOL0     H17493   8.595   2.238   9.400  1.2383 -2.4773  0.0483
  130MOL0     H17494   8.660   2.133   9.277  1.7081  1.2584 -0.3717
  130MOL0     H17495   8.576   2.274   9.099 -0.5024 -1.7582  0.2710
  130MOL0     H17496   8.499   2.379   9.225  0.0168 -2.7412  2.6934
  130MOL0     H17497   8.733   2.463   9.287  0.7516  1.4514  0.0894
  130MOL0     H17498   8.699   2.451   9.107 -0.0501 -3.0573 -1.0777
  130MOL0     H17499   8.848   2.233   9.264 -1.0425  0.5208  0.1045
  130MOL0     H17500   8.852   2.281   9.083 -0.3850  3.3881 -1.1502
  130MOL0     H17501   9.027   2.365   9.420  0.8210  3.2725  1.8788
  130MOL0     H17502   9.242   2.671   9.321 -4.5981 -0.6249 -3.0776
  130MOL0     H17503   9.252   2.559   9.458  0.0016  1.2622 -0.0733
  130MOL0     H17504   9.377   2.490   9.186  0.4561  0.5592 -0.2536
  130MOL0     H17505   9.448   2.590   9.311 -0.8978  0.7409 -2.4434
  130MOL0     H17506   9.353   2.315   9.321 -1.2434 -0.8125  2.8341
  130MOL0     H17507   9.404   2.405   9.474 -2.0438 -1.2190 -0.0812
  130MOL0     H17508   9.597   2.322   9.248 -1.8576  0.0903  0.0106
  130MOL0     H17509   9.605   2.271   9.409  0.3533 -2.9880 -2.5664
  130MOL0     H17510   9.785   2.695   9.377 -0.5711 -0.7826  1.3775
  130MOL0     H17511  10.020   2.714   9.322 -1.1384 -0.9006 -1.3047
  130MOL0     H17512  10.479   2.467   9.248 -0.5419 -1.1713 -0.0336
  130MOL0     H17513  10.689   2.540   9.211  0.9071  3.9076  3.1374
  130MOL0     H17514  10.874   2.621   9.168 -1.1809 -2.8016 -0.7375
  130MOL0     H17515  10.830   2.616   8.995 -2.9374  1.4333  0.5523
  130MOL0     H17516  10.978   2.824   8.969 -4.1981  1.0663  1.3548
  130MOL0     H17517  11.019   2.808   9.143 -2.0525 -1.8734  2.1900
  130MOL0     H17518  11.195   2.693   9.036 -1.7075  2.3822 -1.9173
  130MOL0     H17519  11.089   2.561   9.081 -1.0582 -1.2283 -1.1145
  130MOL0     H17520  11.136   2.706   8.813  1.3202 -0.5677 -0.4912
  130MOL0     H17521  10.992   2.598   8.828 -0.2883 -1.0508 -0.3108
  130MOL0     H17522  11.167   2.478   8.714 -0.3171 -2.1337  1.0500
  130MOL0     H17523  11.156   2.409   8.876  1.1401  1.7917  2.4937
  130MOL0     H17524  11.362   2.628   8.811 -2.3437  0.4575  0.5611
  130MOL0     H17525  11.350   2.538   8.952 -0.5855 -1.4397  0.8562
  130MOL0     H17526  11.423   2.429   8.666  3.1317 -2.3839 -0.5249
  130MOL0     H17527  11.357   2.322   8.788  1.2243 -0.6057  0.7138
  130MOL0     H17528  11.606   2.491   8.819  2.1342 -1.9837 -3.5268
  130MOL0     H17529  11.541   2.372   8.937  0.7410  0.0974  0.3284
  130MOL0     H17530  10.557   2.928   9.097 -1.0653  0.3303 -0.7390
  130MOL0     H17531  10.329   2.862   9.191 -0.2491 -0.6766  2.1263
  130MOL0     H17532  10.030   2.295   9.220  0.5454  2.2494 -1.4299
  130MOL0     H17533   9.794   2.268   9.294  1.9524 -1.1545 -0.8943
  130MOL0     H17534   8.233   1.660   9.190 -0.3483  1.9846 -0.4816
  130MOL0     H17535   8.106   1.416   9.210 -1.0542 -0.2875  4.3348
  130MOL0     H17536   7.794   1.148   9.181  1.1337  1.4078  0.9861
  130MOL0     H17537   7.620   0.993   9.166  1.2262  1.1843 -0.5026
  130MOL0     H17538   7.518   0.787   9.212 -0.3052  1.0537 -0.3386
  130MOL0     H17539   7.408   0.908   9.153 -1.1960  1.4285  0.6976
  130MOL0     H17540   7.242   0.805   9.322  1.9218  5.0254 -1.1740
  130MOL0     H17541   7.349   0.669   9.337 -1.2621 -0.4487 -0.8096
  130MOL0     H17542   7.342   0.623   9.108  0.4509  0.3776  1.5213
  130MOL0     H17543   7.211   0.750   9.089 -0.2273  0.6490  0.4320
  130MOL0     H17544   7.196   0.488   9.247 -0.1524 -0.9314  0.6680
  130MOL0     H17545   7.086   0.634   9.255  0.1710  1.0280 -1.5690
  130MOL0     H17546   6.994   0.384   8.910  1.8256  0.7645 -1.2542
  130MOL0     H17547   7.492   1.078   9.566  0.1341  0.2724 -0.0802
  130MOL0     H17548   7.578   1.275   9.669 -2.6012 -2.3394 -3.3999
  130MOL0     H17549   7.759   1.248   9.648 -0.0241 -0.1284 -1.2496
  130MOL0     H17550   7.690   1.391   9.576 -0.8948  0.5466  1.1354
  131MOL0     O17551   3.100   5.496   8.243  0.2328 -1.0495 -0.0568
  131MOL0     C17552   3.075   5.456   8.130  0.4088  0.4989 -0.2652
  131MOL0     O17553   3.168   5.411   8.033  0.0174 -0.0939 -0.6686
  131MOL0     C17554   3.306   5.391   8.056 -1.2261  1.4989  0.2780
  131MOL0     C17555   3.387   5.427   8.161  0.3150 -0.3996 -0.5390
  131MOL0     C17556   3.524   5.393   8.170  0.3073 -0.3976 -0.6971
  131MOL0     C17557   3.579   5.302   8.084  0.1643 -0.1892  0.3213
  131MOL0     O17558   3.705   5.263   8.105 -0.2775  0.4862 -0.1334
  131MOL0     C17559   3.785   5.264   7.993 -0.6365  0.1898  0.2487
  131MOL0     C17560   3.934   5.247   8.037  0.7405 -0.0931  0.3894
  131MOL0     C17561   3.994   5.350   8.127  0.3655  0.3818  0.0894
  131MOL0     C17562   4.148   5.323   8.144  0.5285 -0.1233  0.2800
  131MOL0     C17563   4.212   5.447   8.212  0.0591 -0.0171 -0.3103
  131MOL0     C17564   4.361   5.454   8.176 -0.2047  0.0490 -0.7505
  131MOL0     C17565   4.438   5.553   8.269  0.6304 -0.0920  0.0803
  131MOL0     C17566   4.583   5.583   8.211  1.2174  0.9583  0.7298
  131MOL0     N17567   4.628   5.690   8.308  0.5968  0.2781  0.3419
  131MOL0     C17568   4.601   5.827   8.306 -0.6304  0.0244  0.3694
  131MOL0     C17569   4.688   5.883   8.404 -0.4637  0.2007  0.2200
  131MOL0     C17570   4.684   6.021   8.450 -0.1519 -0.1301  0.3410
  131MOL0     C17571   4.819   6.094   8.439 -0.1120  0.4175 -0.5396
  131MOL0     C17572   4.868   6.100   8.297  0.0157 -0.9651  0.0045
  131MOL0     C17573   4.997   6.172   8.270 -0.8764 -0.2849  0.2544
  131MOL0     O17574   5.020   6.306   8.317  0.2392 -0.2821  0.6252
  131MOL0     C17575   5.108   6.389   8.248  0.7082  1.3460 -0.9118
  131MOL0     C17576   5.236   6.333   8.223 -0.6948 -0.3672  0.4928
  131MOL0     C17577   5.326   6.419   8.158 -0.7979 -0.1364  0.0193
  131MOL0     C17578   5.291   6.550   8.117 -0.8477  0.4073 -0.8350
  131MOL0     C17579   5.400   6.642   8.059  0.2001 -0.8731 -0.0113
  131MOL0     O17580   5.532   6.606   8.080 -0.5265 -0.4647  0.4192
  131MOL0     C17581   5.625   6.709   8.049  0.5322  0.4841  0.6952
  131MOL0     C17582   5.612   6.843   8.071 -0.2953  0.2588  0.0267
  131MOL0     C17583   5.710   6.929   8.038  0.5438  0.4955 -0.2133
  131MOL0     C17584   5.828   6.894   7.976  0.2248 -0.2036 -0.4452
  131MOL0     O17585   5.912   6.992   7.936 -0.3040 -0.1051 -0.0867
  131MOL0     C17586   6.026   6.954   7.857  0.5183  0.8909 -0.2146
  131MOL0     C17587   6.105   7.076   7.814 -1.1942  0.3259  1.1184
  131MOL0     C17588   6.225   7.085   7.906 -0.3683 -1.1679 -0.7998
  131MOL0     C17589   6.308   7.207   7.863  0.2863 -0.1762 -0.6318
  131MOL0     C17590   6.433   7.242   7.951 -0.7173  0.9156 -0.7349
  131MOL0     C17591   6.526   7.332   7.876  0.1456  0.0568 -0.7965
  131MOL0     C17592   6.599   7.257   7.757 -0.3884 -0.4929  0.1017
  131MOL0     C17593   6.720   7.346   7.710  0.1967  0.1993  0.9877
  131MOL0    Cl17594   6.849   7.354   7.836 -0.4775  0.3083  0.6182
  131MOL0     C17595   5.839   6.751   7.960 -0.1204 -0.3414 -0.1953
  131MOL0     C17596   5.746   6.663   7.998  0.5747  1.2597 -0.1179
  131MOL0     O17597   5.357   6.728   7.981 -0.2446  0.3502 -0.4157
  131MOL0     C17598   5.167   6.600   8.146 -0.0626 -0.6084 -0.7117
  131MOL0     C17599   5.072   6.516   8.210  0.0703 -0.5370  0.4036
  131MOL0     N17600   4.765   5.781   8.460  1.4266 -0.3577 -0.0555
  131MOL0     N17601   4.730   5.674   8.397  0.8752 -0.7333  0.6132
  131MOL0     C17602   3.499   5.257   7.977  0.8114  0.9567  0.0431
  131MOL0     C17603   3.369   5.308   7.956  0.3456  0.2458  0.2427
  131MOL0     C17604   2.930   5.455   8.078 -0.5604 -0.3885 -0.7494
  131MOL0     C17605   2.897   5.357   7.977  0.0141 -0.0207  0.2855
  131MOL0     C17606   2.762   5.341   7.932  0.9548 -0.3465  0.0658
  131MOL0     C17607   2.660   5.418   7.982  0.4928 -0.2936 -0.5643
  131MOL0     O17608   2.522   5.407   7.939 -0.0846 -0.0581 -0.0128
  131MOL0     C17609   2.495   5.311   7.840  0.1774 -0.2700  0.2953
  131MOL0     C17610   2.352   5.308   7.793 -0.1332 -0.2812 -0.0343
  131MOL0     C17611   2.263   5.435   7.812 -0.7254  0.7095 -0.2841
  131MOL0     C17612   2.287   5.555   7.719  0.2576  0.0998 -0.2729
  131MOL0     C17613   2.409   5.624   7.750 -0.3882  0.2288  0.5181
  131MOL0     C17614   2.507   5.689   7.778  0.5430 -0.8827 -0.1044
  131MOL0     C17615   2.695   5.521   8.074 -0.1581 -0.1227 -0.2650
  131MOL0     C17616   2.823   5.540   8.127  0.2070 -0.4097 -0.3846
  131MOL0     C17617   2.853   5.661   8.222 -0.5447  0.2555 -0.6260
  131MOL0     H17618   3.338   5.489   8.235 -0.6064 -1.2944 -0.3617
  131MOL0     H17619   3.585   5.428   8.253  0.0689 -0.8470 -0.3287
  131MOL0     H17620   3.762   5.183   7.923  0.9800  0.5767 -0.7999
  131MOL0     H17621   3.769   5.355   7.933 -3.5339 -0.7811 -0.6377
  131MOL0     H17622   3.981   5.242   7.938  0.5795  4.7287 -0.1589
  131MOL0     H17623   3.931   5.149   8.086 -2.3932 -2.1724 -3.3546
  131MOL0     H17624   3.941   5.356   8.223 -1.5898 -0.3031 -0.9144
  131MOL0     H17625   3.979   5.443   8.072  1.6602 -1.5006 -3.7955
  131MOL0     H17626   4.167   5.236   8.206  3.5409  0.3655  0.1756
  131MOL0     H17627   4.190   5.308   8.044  0.6893  1.5698  0.0503
  131MOL0     H17628   4.169   5.536   8.165  1.0598  0.1939 -0.8413
  131MOL0     H17629   4.177   5.456   8.315 -2.6219  1.8778 -1.2603
  131MOL0     H17630   4.411   5.357   8.186 -0.1986  0.2620  2.2568
  131MOL0     H17631   4.367   5.478   8.070 -0.6096 -0.6292 -0.9378
  131MOL0     H17632   4.454   5.501   8.364  0.3590 -0.5276 -0.1079
  131MOL0     H17633   4.378   5.644   8.270 -0.1630 -0.5994 -0.2961
  131MOL0     H17634   4.655   5.502   8.224  0.9942  0.3887 -1.1782
  131MOL0     H17635   4.586   5.604   8.104 -2.6773  0.1902  0.3142
  131MOL0     H17636   4.538   5.885   8.239 -1.3268  0.4383  1.3574
  131MOL0     H17637   4.607   6.070   8.390  0.3267 -0.7197 -0.7757
  131MOL0     H17638   4.648   6.012   8.553  1.3539  0.5351  0.9559
  131MOL0     H17639   4.819   6.192   8.486  3.3241 -0.3708  1.4692
  131MOL0     H17640   4.895   6.045   8.501  1.0279  2.9069  0.1750
  131MOL0     H17641   4.797   6.153   8.232 -0.4394 -0.9785  0.4826
  131MOL0     H17642   4.870   6.000   8.254 -0.5469 -1.0657  0.2061
  131MOL0     H17643   5.001   6.170   8.161 -3.0502 -1.9668  0.1296
  131MOL0     H17644   5.085   6.117   8.306  0.5256  1.7150  0.0372
  131MOL0     H17645   5.269   6.232   8.245 -0.7038 -0.4610  0.0757
  131MOL0     H17646   5.426   6.380   8.141 -0.6208 -0.8005  2.2203
  131MOL0     H17647   5.524   6.873   8.126  0.2942  0.4708  0.8780
  131MOL0     H17648   5.693   7.032   8.068  0.2439 -0.2867  2.5834
  131MOL0     H17649   6.084   6.888   7.922 -1.5575 -1.7831 -0.8840
  131MOL0     H17650   5.993   6.902   7.766  2.3222  1.0793 -1.0446
  131MOL0     H17651   6.155   7.047   7.722  2.8157 -1.2802  3.5205
  131MOL0     H17652   6.042   7.166   7.809 -2.4368 -0.4779  1.7122
  131MOL0     H17653   6.186   7.084   8.009 -1.2715 -2.6085 -1.1337
  131MOL0     H17654   6.290   6.998   7.904 -0.1451 -0.9944 -3.2889
  131MOL0     H17655   6.246   7.297   7.868  3.2953  1.9823  0.3619
  131MOL0     H17656   6.326   7.189   7.757  3.0054  1.2453 -0.4826
  131MOL0     H17657   6.484   7.153   7.988 -3.4905 -0.3192  0.3633
  131MOL0     H17658   6.404   7.301   8.039  1.0592  0.3180  0.3027
  131MOL0     H17659   6.471   7.416   7.833 -2.0511 -0.7319  0.3322
  131MOL0     H17660   6.599   7.360   7.953 -0.0356 -3.6852  0.9704
  131MOL0     H17661   6.524   7.253   7.678 -1.7057  0.2232  1.2651
  131MOL0     H17662   6.628   7.156   7.787 -0.1720  0.0628  1.9119
  131MOL0     H17663   6.768   7.309   7.619  1.2857  3.0089  0.3063
  131MOL0     H17664   6.697   7.451   7.690  1.7734  0.7642  1.9420
  131MOL0     H17665   5.936   6.719   7.924  0.2618 -0.3332  0.7703
  131MOL0     H17666   5.751   6.555   7.991  0.4692  1.3046 -1.0812
  131MOL0     H17667   5.143   6.701   8.114  3.0562  0.0968 -1.1294
  131MOL0     H17668   4.977   6.567   8.221  0.1352 -0.0342 -1.1137
  131MOL0     H17669   3.531   5.176   7.912 -2.2884 -1.2888  1.0771
  131MOL0     H17670   3.313   5.279   7.868 -3.5199  2.2174  1.8348
  131MOL0     H17671   2.976   5.309   7.920 -0.0532 -0.0630  0.2283
  131MOL0     H17672   2.758   5.276   7.845  3.9340 -0.1892 -0.3064
  131MOL0     H17673   2.521   5.209   7.867  0.1135  0.0248  1.5343
  131MOL0     H17674   2.553   5.351   7.756 -1.3437 -0.5268 -0.9237
  131MOL0     H17675   2.290   5.235   7.845 -2.0948  0.6134 -1.0152
  131MOL0     H17676   2.349   5.284   7.686 -2.0488 -0.0085 -0.0744
  131MOL0     H17677   2.265   5.460   7.919  0.1309 -0.3180 -0.0399
  131MOL0     H17678   2.159   5.404   7.799 -1.0743  1.2940  0.9516
  131MOL0     H17679   2.288   5.520   7.616 -1.1618  1.5532 -0.8219
  131MOL0     H17680   2.218   5.640   7.723  0.4603  0.4176 -2.6217
  131MOL0     H17681   2.593   5.749   7.799 -0.2073  0.6522 -1.2867
  131MOL0     H17682   2.623   5.599   8.098  2.4710  2.2306  0.4344
  131MOL0     H17683   2.950   5.708   8.206 -0.7395  2.2101  2.8263
  131MOL0     H17684   2.783   5.741   8.197 -0.4236  0.8754  0.8787
  131MOL0     H17685   2.840   5.644   8.330  1.6501  3.9112  0.3885
  132MOL0     O17686   4.399   1.321   8.847 -0.5968 -0.5219 -0.4762
  132MOL0     C17687   4.372   1.406   8.931  0.9008 -0.1470 -0.0246
  132MOL0     O17688   4.455   1.444   9.032  0.1139 -0.3654  0.5286
  132MOL0     C17689   4.590   1.443   9.005  0.2226 -0.2671  0.2876
  132MOL0     C17690   4.651   1.486   8.886  0.4822 -0.5347  0.4384
  132MOL0     C17691   4.786   1.487   8.870 -0.0355 -0.5855  0.2257
  132MOL0     C17692   4.875   1.461   8.972  0.5048  0.1837  0.0152
  132MOL0     O17693   5.013   1.470   8.971  0.7855 -0.1486 -0.3397
  132MOL0     C17694   5.056   1.603   8.960 -0.7349 -0.3897 -0.1930
  132MOL0     C17695   5.072   1.677   9.099 -0.5871 -0.4644  0.3952
  132MOL0     C17696   5.169   1.590   9.185  0.2913  0.0308 -0.1259
  132MOL0     C17697   5.244   1.682   9.272 -0.0091 -0.5630  0.1847
  132MOL0     C17698   5.325   1.606   9.382 -0.1147 -0.1302  0.8140
  132MOL0     C17699   5.425   1.505   9.309 -0.3155  0.2251  0.6168
  132MOL0     C17700   5.538   1.452   9.401 -0.1962  0.5556  0.3532
  132MOL0     C17701   5.493   1.366   9.516  0.2737 -0.9859 -1.2130
  132MOL0     N17702   5.598   1.287   9.570 -0.6378  0.2947 -0.0816
  132MOL0     C17703   5.621   1.246   9.701  0.4608  0.3220 -0.6779
  132MOL0     C17704   5.733   1.168   9.708  0.1579 -0.1154  0.3173
  132MOL0     C17705   5.787   1.087   9.824  0.5858  0.7038  1.1145
  132MOL0     C17706   5.939   1.070   9.826 -0.5135  0.2932  0.1177
  132MOL0     C17707   5.982   0.981   9.939  0.0611 -0.3943  0.3395
  132MOL0     C17708   6.130   0.950   9.925  0.5464 -0.3940 -0.5117
  132MOL0     O17709   6.183   0.900  10.049 -0.2612  0.1100 -0.4239
  132MOL0     C17710   6.315   0.894  10.066 -0.4282  0.0339  0.2434
  132MOL0     C17711   6.360   0.825  10.182  0.2372 -1.0247 -0.3881
  132MOL0     C17712   6.497   0.806  10.212 -0.7469 -0.4330 -0.0164
  132MOL0     C17713   6.593   0.861  10.138 -0.9785 -0.9495  0.2181
  132MOL0     C17714   6.737   0.824  10.166  0.4671 -1.0674 -0.3546
  132MOL0     O17715   6.771   0.788  10.294 -0.2590 -0.9932 -0.0329
  132MOL0     C17716   6.902   0.796  10.337  0.4213 -1.1716 -0.4204
  132MOL0     C17717   6.927   0.697  10.438 -0.7385 -0.6885 -0.2044
  132MOL0     C17718   7.059   0.681  10.493  0.8573 -0.0254  0.6266
  132MOL0     C17719   7.157   0.774  10.462 -0.7069  0.7959  0.8880
  132MOL0     O17720   7.285   0.768  10.505 -0.3582  0.5952  0.0953
  132MOL0     C17721   7.340   0.635  10.520 -0.4214 -0.1873  0.0916
  132MOL0     C17722   7.362   0.570  10.387 -0.0816 -0.4939  0.0256
  132MOL0     C17723   7.466   0.657  10.307 -0.1072  0.4200 -0.3216
  132MOL0     C17724   7.467   0.625  10.157  0.0241  0.3215  0.1036
  132MOL0     C17725   7.580   0.679  10.067  1.3696 -0.4347  0.4913
  132MOL0     C17726   7.714   0.608  10.084 -0.5625  0.4760 -0.5252
  132MOL0     C17727   7.822   0.714  10.064  0.0946 -1.1568  0.3123
  132MOL0     C17728   7.865   0.769  10.207 -0.6946  0.0967  0.3438
  132MOL0    Cl17729   7.964   0.663  10.313  0.3990 -0.0497  0.1245
  132MOL0     C17730   7.127   0.880  10.369 -0.0081  0.5587  0.6651
  132MOL0     C17731   7.007   0.875  10.295  0.5361  1.3517 -0.7872
  132MOL0     O17732   6.814   0.847  10.073 -0.2064 -0.4617  0.2713
  132MOL0     C17733   6.551   0.915  10.016  0.3566 -0.4065 -0.0627
  132MOL0     C17734   6.415   0.929   9.973  0.3688  0.6071  0.1200
  132MOL0     N17735   5.787   1.162   9.584  0.0132 -0.2894  0.2716
  132MOL0     N17736   5.705   1.227   9.506 -0.1631  0.2448  0.0029
  132MOL0     C17737   4.819   1.413   9.087  0.7591 -0.8071 -0.0079
  132MOL0     C17738   4.684   1.411   9.105  0.1010 -1.0658 -0.4047
  132MOL0     C17739   4.237   1.463   8.935  0.0681 -0.1959  0.2582
  132MOL0     C17740   4.167   1.492   9.055 -0.5899 -0.3006 -0.0827
  132MOL0     C17741   4.045   1.553   9.046  0.0987 -0.4482  0.5262
  132MOL0     C17742   3.981   1.571   8.920  0.3528  0.6305 -0.8584
  132MOL0     O17743   3.851   1.614   8.911  0.0255  0.3884  0.0439
  132MOL0     C17744   3.813   1.722   9.004 -0.0650 -0.0625  0.4749
  132MOL0     C17745   3.670   1.756   8.964 -0.9893 -0.1165  0.2398
  132MOL0     C17746   3.614   1.882   9.037 -0.6342  0.0835 -0.0503
  132MOL0     C17747   3.466   1.863   9.015  0.2434 -0.3161  0.5450
  132MOL0     C17748   3.397   1.977   9.058 -0.8542 -0.7637  0.1661
  132MOL0     C17749   3.363   2.087   9.100 -0.0853 -0.9681 -0.2441
  132MOL0     C17750   4.048   1.535   8.811 -0.1380  0.2518  0.9112
  132MOL0     C17751   4.171   1.481   8.811  0.4450 -0.3210 -1.0858
  132MOL0     C17752   4.237   1.477   8.674 -0.7693 -0.6617 -0.6263
  132MOL0     H17753   4.592   1.524   8.803  2.1063 -1.3252 -1.1213
  132MOL0     H17754   4.818   1.503   8.768  0.2288  0.8798  0.5105
  132MOL0     H17755   5.159   1.603   8.921 -0.7005 -2.2231 -0.1758
  132MOL0     H17756   4.992   1.662   8.894 -0.1997 -1.3711 -1.6366
  132MOL0     H17757   4.974   1.691   9.146  0.2028  0.9242  1.6719
  132MOL0     H17758   5.107   1.779   9.085  0.1490 -0.6316  0.9778
  132MOL0     H17759   5.235   1.532   9.120  0.6255 -1.0237  1.1031
  132MOL0     H17760   5.117   1.513   9.243  0.5989 -1.5832 -1.8937
  132MOL0     H17761   5.311   1.744   9.212  0.2486 -2.5930 -1.7126
  132MOL0     H17762   5.178   1.761   9.310  1.9117  2.4991 -2.2976
  132MOL0     H17763   5.382   1.682   9.436  1.0035  0.3715 -0.9710
  132MOL0     H17764   5.248   1.553   9.439 -0.5790 -0.8589 -0.4577
  132MOL0     H17765   5.371   1.426   9.257 -0.2870  0.6767 -0.1067
  132MOL0     H17766   5.483   1.548   9.226  2.8233 -0.0818  2.4856
  132MOL0     H17767   5.600   1.533   9.441 -0.2707  0.8066 -0.0344
  132MOL0     H17768   5.598   1.389   9.335  2.2620  1.2191  1.8497
  132MOL0     H17769   5.462   1.435   9.595  2.8294 -1.5821  0.4305
  132MOL0     H17770   5.415   1.298   9.481  0.1276 -0.6322 -1.5855
  132MOL0     H17771   5.555   1.242   9.787 -2.0937 -4.5590 -2.4714
  132MOL0     H17772   5.763   1.139   9.918  5.2605  2.4573  1.6340
  132MOL0     H17773   5.747   0.988   9.805  1.7941  0.5835 -1.1831
  132MOL0     H17774   5.972   1.023   9.733 -0.5385 -0.1147  0.3116
  132MOL0     H17775   5.982   1.170   9.836 -1.1002  0.7719 -1.6886
  132MOL0     H17776   5.924   0.888   9.930 -2.0643  0.5280  3.0968
  132MOL0     H17777   5.960   1.031  10.034 -0.6029 -0.6584  0.3329
  132MOL0     H17778   6.176   1.045   9.897  1.3474 -0.5027  0.3615
  132MOL0     H17779   6.141   0.870   9.851 -2.5003 -0.5068 -0.9773
  132MOL0     H17780   6.286   0.781  10.247 -1.8882  2.7378 -0.0096
  132MOL0     H17781   6.521   0.751  10.303 -2.2408  0.0833  0.7382
  132MOL0     H17782   6.840   0.645  10.477  1.4004 -1.8196  3.6325
  132MOL0     H17783   7.074   0.594  10.556 -0.4553  1.3870  3.0256
  132MOL0     H17784   7.434   0.642  10.576 -0.5845 -0.1138  0.3611
  132MOL0     H17785   7.274   0.577  10.585 -0.1764  0.1534  0.6485
  132MOL0     H17786   7.406   0.470  10.392  2.3520  0.4363 -1.0231
  132MOL0     H17787   7.268   0.559  10.332 -0.6668 -1.3907  1.1765
  132MOL0     H17788   7.454   0.764  10.326  3.6319  1.0979 -1.0583
  132MOL0     H17789   7.565   0.632  10.345 -0.2826  1.4200  0.8493
  132MOL0     H17790   7.369   0.646  10.113  0.4169 -1.0275 -1.5035
  132MOL0     H17791   7.483   0.517  10.155  1.9803  0.4653  2.5011
  132MOL0     H17792   7.588   0.785  10.096 -2.0250 -0.2138  1.0516
  132MOL0     H17793   7.552   0.692   9.962 -0.9107  1.0751  1.1912
  132MOL0     H17794   7.726   0.560  10.181 -3.1733  1.6884  0.4975
  132MOL0     H17795   7.720   0.532  10.005 -0.5384  0.0126 -0.0898
  132MOL0     H17796   7.797   0.790   9.989  0.4172  1.6966  2.9260
  132MOL0     H17797   7.907   0.661  10.021  0.3618 -0.0745 -0.5410
  132MOL0     H17798   7.915   0.865  10.208  1.3015 -0.8860  1.8743
  132MOL0     H17799   7.766   0.791  10.249 -1.4177 -2.4473  0.1760
  132MOL0     H17800   7.208   0.948  10.345  1.5795 -1.2947  0.5989
  132MOL0     H17801   6.992   0.941  10.210  3.7688  1.3004 -1.5243
  132MOL0     H17802   6.626   0.943   9.942 -1.4176  2.9746 -0.8009
  132MOL0     H17803   6.394   0.973   9.876  0.0516  0.5326  0.1523
  132MOL0     H17804   4.886   1.386   9.167  0.7882 -3.9467 -0.9642
  132MOL0     H17805   4.645   1.405   9.206  0.1406  0.2644 -0.2987
  132MOL0     H17806   4.204   1.473   9.155  1.3648  1.8866 -0.2991
  132MOL0     H17807   3.997   1.580   9.140 -1.4605  0.6575 -0.5371
  132MOL0     H17808   3.879   1.809   9.005 -2.1633  1.6031  1.9882
  132MOL0     H17809   3.809   1.688   9.108  2.5927  2.9085  1.7154
  132MOL0     H17810   3.613   1.667   8.993  1.0620 -0.9388  1.9709
  132MOL0     H17811   3.658   1.763   8.855 -0.1334  2.7674  0.2458
  132MOL0     H17812   3.643   1.977   8.992  1.0937 -0.8111 -0.9031
  132MOL0     H17813   3.636   1.866   9.143  1.5940 -3.0669 -0.8469
  132MOL0     H17814   3.440   1.840   8.912 -1.2935  1.4733  0.4740
  132MOL0     H17815   3.421   1.785   9.078 -0.4015 -0.0153  0.4662
  132MOL0     H17816   3.328   2.179   9.143 -1.8379 -1.9163  0.4814
  132MOL0     H17817   3.988   1.546   8.721  0.0324 -0.6196  0.6772
  132MOL0     H17818   4.333   1.529   8.669 -0.1842 -1.6850 -0.3992
  132MOL0     H17819   4.255   1.372   8.651 -0.9598 -1.2525  1.6648
  132MOL0     H17820   4.170   1.524   8.601  0.5321  1.2963 -0.6335
  133MOL0     O17821   2.970   1.696   7.193  0.6662  0.0517 -0.2635
  133MOL0     C17822   2.911   1.808   7.202 -0.5992 -0.0389 -0.3344
  133MOL0     O17823   2.965   1.931   7.198 -0.4136  0.1966  0.2135
  133MOL0     C17824   3.093   1.942   7.152  0.0688  0.1801  0.0985
  133MOL0     C17825   3.181   1.985   7.249  0.0257  0.0756 -0.7271
  133MOL0     C17826   3.318   1.999   7.217  0.0320  0.3700  0.3198
  133MOL0     C17827   3.364   1.968   7.087 -1.6696 -0.1210 -0.4067
  133MOL0     O17828   3.502   1.966   7.065 -0.2149 -0.5564 -0.2330
  133MOL0     C17829   3.586   2.055   7.141  0.0954  0.4097  0.4185
  133MOL0     C17830   3.712   2.071   7.065 -0.4665 -0.6444 -0.1919
  133MOL0     C17831   3.808   2.165   7.152  0.9890  0.9881 -0.5345
  133MOL0     C17832   3.943   2.169   7.086 -0.0686 -0.4771 -0.0911
  133MOL0     C17833   4.034   2.269   7.155 -0.5906 -0.1770 -0.2677
  133MOL0     C17834   4.043   2.241   7.303 -0.2874  0.0047  0.9231
  133MOL0     C17835   4.167   2.319   7.346 -0.3472  0.3793 -0.3334
  133MOL0     C17836   4.145   2.474   7.344  0.1880  0.2684 -0.2065
  133MOL0     N17837   4.260   2.545   7.399 -0.1019 -0.0933  0.4497
  133MOL0     C17838   4.385   2.555   7.348  0.9115 -0.0573  0.5463
  133MOL0     C17839   4.459   2.620   7.443 -0.1726  0.3956  0.0854
  133MOL0     C17840   4.606   2.650   7.427  0.9063 -0.2495 -0.0958
  133MOL0     C17841   4.694   2.533   7.454  0.4395  0.0952  0.5207
  133MOL0     C17842   4.838   2.551   7.414 -0.0310 -0.9729  0.4374
  133MOL0     C17843   4.908   2.665   7.489 -0.5477 -0.7710 -0.6286
  133MOL0     O17844   5.025   2.725   7.437  0.3000  0.5792 -0.3475
  133MOL0     C17845   5.148   2.663   7.437  0.4812  0.0576 -0.5685
  133MOL0     C17846   5.179   2.534   7.487  0.1772  0.0230 -0.0071
  133MOL0     C17847   5.306   2.474   7.484  0.4224 -0.3976 -0.7700
  133MOL0     C17848   5.414   2.557   7.438  0.7336  1.3146  0.0746
  133MOL0     C17849   5.555   2.509   7.446 -0.3543 -0.4705 -0.7659
  133MOL0     O17850   5.659   2.600   7.462 -0.0075 -0.0232  0.5574
  133MOL0     C17851   5.786   2.551   7.496 -0.0161  0.8325  0.5485
  133MOL0     C17852   5.890   2.614   7.426 -0.1423  0.4974  0.0483
  133MOL0     C17853   6.028   2.591   7.454  0.4865 -0.0380  0.2888
  133MOL0     C17854   6.055   2.502   7.560 -0.3414  0.6894  0.3476
  133MOL0     O17855   6.189   2.463   7.596 -0.1026 -0.2141 -0.3276
  133MOL0     C17856   6.280   2.419   7.494 -0.1196  0.2312  0.1772
  133MOL0     C17857   6.348   2.294   7.540  0.5002  0.6153  0.3228
  133MOL0     C17858   6.425   2.324   7.670  0.9118  0.4489  0.2412
  133MOL0     C17859   6.504   2.201   7.721  0.5238 -0.4137 -0.3000
  133MOL0     C17860   6.623   2.241   7.811 -0.1335  0.2452 -0.1903
  133MOL0     C17861   6.701   2.113   7.852 -0.1406  0.2496 -0.1591
  133MOL0     C17862   6.790   2.050   7.741  0.4809  0.6636 -0.3889
  133MOL0     C17863   6.890   2.141   7.673 -0.4332 -0.0975  0.0707
  133MOL0    Cl17864   7.011   2.222   7.782  0.2188  0.0039  0.0279
  133MOL0     C17865   5.947   2.435   7.623 -0.0487 -0.2155 -0.0323
  133MOL0     C17866   5.820   2.470   7.596  1.2219  0.3089  0.1900
  133MOL0     O17867   5.571   2.390   7.432 -0.6336  0.3766  0.3434
  133MOL0     C17868   5.386   2.679   7.393  0.0306  0.5759  0.1134
  133MOL0     C17869   5.262   2.739   7.398 -0.0372 -0.4773 -0.6699
  133MOL0     N17870   4.378   2.646   7.549  0.0078  0.0083 -0.0092
  133MOL0     N17871   4.262   2.599   7.519 -0.1931 -0.6716 -1.3689
  133MOL0     C17872   3.276   1.918   6.990 -0.2769  0.1879 -0.4432
  133MOL0     C17873   3.140   1.898   7.026 -0.6427 -0.1505  0.2738
  133MOL0     C17874   2.763   1.812   7.218  0.2547  0.2574  0.2282
  133MOL0     C17875   2.690   1.923   7.162 -0.4904  0.4701  0.0033
  133MOL0     C17876   2.551   1.929   7.186 -0.7918  0.3612 -0.0743
  133MOL0     C17877   2.485   1.828   7.252  0.1138 -0.4413  0.3026
  133MOL0     O17878   2.352   1.822   7.273 -0.2807  0.1480 -1.5201
  133MOL0     C17879   2.256   1.908   7.212  0.6064 -0.1322 -0.3364
  133MOL0     C17880   2.216   1.879   7.068 -0.1126 -0.5081  0.3725
  133MOL0     C17881   2.177   1.731   7.042 -0.3005 -0.3288 -0.1196
  133MOL0     C17882   2.136   1.701   6.902 -0.7107 -0.9074 -0.1047
  133MOL0     C17883   2.021   1.773   6.859  0.6403 -0.4810 -0.2826
  133MOL0     C17884   1.921   1.823   6.823  1.2443 -0.1042  0.6407
  133MOL0     C17885   2.562   1.718   7.301  0.6083 -0.1036  0.6841
  133MOL0     C17886   2.697   1.707   7.283  0.0354 -0.0698  0.0917
  133MOL0     C17887   2.761   1.590   7.357  0.3320  0.3609 -0.4163
  133MOL0     H17888   3.142   2.016   7.345 -2.4844 -2.0197 -0.9341
  133MOL0     H17889   3.383   2.030   7.298  0.3594  2.3376 -0.6461
  133MOL0     H17890   3.544   2.154   7.161 -0.2690 -0.3192  3.8677
  133MOL0     H17891   3.601   2.014   7.241 -1.9805 -0.8886  0.2605
  133MOL0     H17892   3.687   2.120   6.971  0.6674 -0.8778 -0.6413
  133MOL0     H17893   3.766   1.977   7.049 -0.0184 -1.1486  3.4524
  133MOL0     H17894   3.826   2.109   7.245  1.9632 -1.5451 -2.1456
  133MOL0     H17895   3.767   2.265   7.172 -0.8887  0.3169 -0.8600
  133MOL0     H17896   3.979   2.067   7.082  1.8784  0.1601  0.3408
  133MOL0     H17897   3.934   2.202   6.982 -3.1955 -0.8216 -0.0267
  133MOL0     H17898   4.129   2.281   7.101 -0.5497  1.3996  0.1076
  133MOL0     H17899   3.985   2.366   7.141 -0.4179 -0.0442  0.0446
  133MOL0     H17900   3.955   2.277   7.358 -0.3056  1.0824  0.2225
  133MOL0     H17901   4.048   2.132   7.311  0.1104 -0.0930 -0.4013
  133MOL0     H17902   4.258   2.283   7.299 -1.5154 -2.5616 -0.5612
  133MOL0     H17903   4.185   2.279   7.447  1.3757  1.4383 -0.1898
  133MOL0     H17904   4.127   2.513   7.243  0.2471  0.8456  0.0054
  133MOL0     H17905   4.053   2.504   7.395 -1.6071  1.3437 -3.7320
  133MOL0     H17906   4.425   2.534   7.249  0.9336 -0.5501  0.6556
  133MOL0     H17907   4.622   2.692   7.327 -1.2216  1.9231  0.3766
  133MOL0     H17908   4.628   2.726   7.502  3.3968 -1.7509  0.8089
  133MOL0     H17909   4.683   2.529   7.563 -5.3696  0.9067  0.2736
  133MOL0     H17910   4.648   2.444   7.410 -0.5350  0.4184  0.8460
  133MOL0     H17911   4.831   2.585   7.310  0.4782  0.4658  0.8462
  133MOL0     H17912   4.891   2.456   7.425  0.4040 -0.9404 -1.0898
  133MOL0     H17913   4.935   2.638   7.592  0.6089  0.9829 -0.4283
  133MOL0     H17914   4.838   2.749   7.501  2.8576  2.2293 -0.1073
  133MOL0     H17915   5.092   2.484   7.528 -0.3440  0.8000 -0.1481
  133MOL0     H17916   5.320   2.374   7.524 -2.0818 -0.3156  0.5030
  133MOL0     H17917   5.859   2.681   7.346  0.7227 -0.0579 -0.7688
  133MOL0     H17918   6.104   2.655   7.410 -1.7135  3.8237  1.6050
  133MOL0     H17919   6.219   2.395   7.406 -0.9764  0.6074  0.6508
  133MOL0     H17920   6.349   2.499   7.468 -2.6120  1.6343 -2.8489
  133MOL0     H17921   6.273   2.215   7.553 -0.4161  1.0150 -2.0097
  133MOL0     H17922   6.430   2.261   7.477 -0.1218  0.6815 -0.5367
  133MOL0     H17923   6.481   2.418   7.657 -1.2971  1.6083 -1.4503
  133MOL0     H17924   6.361   2.344   7.756 -0.4973 -1.1599 -0.3803
  133MOL0     H17925   6.547   2.147   7.637  0.1463 -0.2626 -0.5905
  133MOL0     H17926   6.434   2.129   7.765  0.7253 -0.6104 -0.2950
  133MOL0     H17927   6.580   2.297   7.894  0.1804 -0.9817  0.8436
  133MOL0     H17928   6.686   2.317   7.765  2.2273  0.1276  2.5545
  133MOL0     H17929   6.773   2.133   7.931  0.4825 -2.6553  0.0871
  133MOL0     H17930   6.624   2.041   7.882  0.9492 -1.1076 -0.5599
  133MOL0     H17931   6.733   1.999   7.663  0.4852 -0.0665  0.0663
  133MOL0     H17932   6.846   1.971   7.793 -1.0619  0.7445  1.5122
  133MOL0     H17933   6.943   2.092   7.592  1.5795 -1.2314  1.9726
  133MOL0     H17934   6.834   2.226   7.634 -0.9121 -1.1552 -1.6413
  133MOL0     H17935   5.962   2.369   7.707  1.1406 -1.0663 -0.8884
  133MOL0     H17936   5.738   2.414   7.641 -2.1063 -0.3137 -5.6493
  133MOL0     H17937   5.466   2.742   7.355  1.3823 -0.5174  1.0573
  133MOL0     H17938   5.249   2.845   7.378 -1.8938 -0.3147  1.0885
  133MOL0     H17939   3.332   1.885   6.904  0.5254 -2.4704  1.0068
  133MOL0     H17940   3.075   1.849   6.955  3.7284 -0.5913 -3.8897
  133MOL0     H17941   2.740   2.000   7.103 -1.4365  0.8719 -0.2889
  133MOL0     H17942   2.503   2.011   7.132 -0.7699 -0.9005 -2.1272
  133MOL0     H17943   2.282   2.014   7.227  0.3101  0.0212 -0.8976
  133MOL0     H17944   2.161   1.898   7.266 -0.2318  0.5835 -1.6322
  133MOL0     H17945   2.302   1.917   7.012 -1.9753  4.0998  0.2358
  133MOL0     H17946   2.137   1.953   7.054  1.9088  1.1824 -3.4519
  133MOL0     H17947   2.097   1.711   7.115  1.8449 -0.1459  2.4499
  133MOL0     H17948   2.256   1.662   7.074 -1.1843 -2.2643 -1.8845
  133MOL0     H17949   2.215   1.725   6.830 -2.2727  4.9668 -0.3727
  133MOL0     H17950   2.112   1.594   6.898  0.0117 -1.0315 -1.7846
  133MOL0     H17951   1.834   1.873   6.785  1.0179 -2.0396 -1.6438
  133MOL0     H17952   2.503   1.639   7.348 -2.4972  0.5473 -1.7549
  133MOL0     H17953   2.821   1.518   7.300  0.1634 -0.0804 -0.0479
  133MOL0     H17954   2.838   1.638   7.418  1.2989  1.2892 -2.2896
  133MOL0     H17955   2.693   1.536   7.423 -0.5282  2.1746  0.2597
  134MOL0     O17956   2.050  10.666   8.410 -0.3067 -0.0814 -0.2737
  134MOL0     C17957   1.966  10.721   8.482  0.0161 -0.0639 -0.1330
  134MOL0     O17958   1.990  10.828   8.572 -0.4048  0.3260  0.0853
  134MOL0     C17959   2.117  10.881   8.568  0.5139  0.2030 -0.2563
  134MOL0     C17960   2.229  10.808   8.610  0.4126 -0.7137 -0.6023
  134MOL0     C17961   2.350  10.870   8.586 -0.2922  0.5486  0.4720
  134MOL0     C17962   2.369  11.001   8.556 -0.3425  0.1669 -0.3972
  134MOL0     O17963   2.494  11.054   8.563  0.0979  0.2490 -0.7458
  134MOL0     C17964   2.526  11.183   8.513 -0.4650 -0.1130 -0.3653
  134MOL0     C17965   2.678  11.213   8.524  0.4934  0.4480  0.1272
  134MOL0     C17966   2.738  11.239   8.381 -0.1812  1.1451  0.3207
  134MOL0     C17967   2.889  11.267   8.380  0.7855  0.1508 -0.7384
  134MOL0     C17968   2.918  11.298   8.238 -0.1785  0.2780  1.3698
  134MOL0     C17969   3.065  11.320   8.224  0.2744 -0.5468  0.2582
  134MOL0     C17970   3.131  11.183   8.188  0.4732 -0.1005  0.6672
  134MOL0     C17971   3.190  11.185   8.044  0.1561  0.0670  0.4842
  134MOL0     N17972   3.318  11.254   8.038 -0.3178 -0.9590  0.0031
  134MOL0     C17973   3.447  11.199   8.036 -0.0381  0.8677 -0.3197
  134MOL0     C17974   3.532  11.302   8.023  0.9391  0.5555  0.2917
  134MOL0     C17975   3.680  11.288   8.016  0.1144 -0.0189  0.6900
  134MOL0     C17976   3.713  11.348   7.873  0.5945  0.4460  0.1059
  134MOL0     C17977   3.844  11.283   7.837 -0.1905 -0.6561  0.3252
  134MOL0     C17978   3.959  11.357   7.902  0.1480 -0.1186 -0.3115
  134MOL0     O17979   4.079  11.329   7.839 -0.2938 -0.4398  0.3154
  134MOL0     C17980   4.192  11.381   7.896  0.6785  0.0270  0.4033
  134MOL0     C17981   4.205  11.474   8.001  0.3658  0.3604 -0.5643
  134MOL0     C17982   4.324  11.494   8.072  0.0947  0.4107  0.2085
  134MOL0     C17983   4.436  11.433   8.026 -0.2106  0.0243  0.4086
  134MOL0     C17984   4.573  11.466   8.079 -0.0284 -0.2519 -0.1562
  134MOL0     O17985   4.578  11.566   8.169 -0.4553 -0.5154 -0.4196
  134MOL0     C17986   4.701  11.588   8.222  0.9854 -0.2104 -0.3252
  134MOL0     C17987   4.770  11.701   8.189  0.0524  0.3110 -0.5470
  134MOL0     C17988   4.898  11.728   8.242 -0.2697  0.6941 -0.4019
  134MOL0     C17989   4.958  11.650   8.344  0.3715 -0.4607  0.4214
  134MOL0     O17990   5.067  11.674   8.416 -0.0517 -0.0905  0.1806
  134MOL0     C17991   5.161  11.768   8.362  0.1636 -0.6209 -0.8435
  134MOL0     C17992   5.273  11.763   8.462 -0.0925 -0.4462 -1.0018
  134MOL0     C17993   5.377  11.655   8.424  0.6072  0.6839 -0.4471
  134MOL0     C17994   5.494  11.649   8.520 -0.4492  0.3328  0.0879
  134MOL0     C17995   5.596  11.539   8.472  0.4050 -0.2985 -0.7170
  134MOL0     C17996   5.714  11.541   8.569  0.0574 -0.1312 -0.5662
  134MOL0     C17997   5.819  11.445   8.510  0.3539 -0.0111 -0.1263
  134MOL0     C17998   5.946  11.428   8.602  0.1832 -0.5141 -0.4905
  134MOL0    Cl17999   6.033  11.589   8.622  0.0751  0.0147 -0.1175
  134MOL0     C18000   4.879  11.537   8.380  0.1239 -0.6422 -0.2210
  134MOL0     C18001   4.751  11.507   8.323  0.4419  0.7758 -0.8341
  134MOL0     O18002   4.675  11.407   8.026 -0.0659 -0.5157 -0.0579
  134MOL0     C18003   4.428  11.345   7.919 -1.0598  0.6435 -0.0097
  134MOL0     C18004   4.308  11.326   7.856 -1.0823  0.7465 -0.2597
  134MOL0     N18005   3.457  11.417   8.017 -0.3649 -0.2628 -0.2115
  134MOL0     N18006   3.328  11.389   8.025 -0.3671 -0.0940 -0.1910
  134MOL0     C18007   2.253  11.077   8.526 -1.7879  0.3604 -0.5541
  134MOL0     C18008   2.126  11.015   8.529 -0.0152  0.4636  0.1962
  134MOL0     C18009   1.826  10.683   8.465 -0.4207 -0.7095  0.1024
  134MOL0     C18010   1.783  10.557   8.491  0.6720  0.4144 -0.9516
  134MOL0     C18011   1.649  10.530   8.514 -0.1143 -0.1686 -0.0713
  134MOL0     C18012   1.548  10.623   8.494 -0.1352 -0.0722  0.4191
  134MOL0     O18013   1.417  10.594   8.527  0.7667 -0.5128 -0.0454
  134MOL0     C18014   1.385  10.471   8.595 -0.1509  0.0462  0.1054
  134MOL0     C18015   1.250  10.467   8.659  0.4603 -0.6827 -0.4421
  134MOL0     C18016   1.125  10.464   8.566  0.1371  0.4888 -0.2435
  134MOL0     C18017   1.027  10.338   8.591  0.1621  0.0750  0.9878
  134MOL0     C18018   1.089  10.217   8.540  0.7799  0.4725  1.0766
  134MOL0     C18019   1.146  10.106   8.511 -0.2178 -0.4417  0.0433
  134MOL0     C18020   1.589  10.752   8.458 -0.4653 -0.1725 -0.1806
  134MOL0     C18021   1.721  10.785   8.441  0.6182 -0.2188  0.0853
  134MOL0     C18022   1.758  10.932   8.396 -0.2058 -0.4314  0.3005
  134MOL0     H18023   2.224  10.707   8.649 -0.5693  0.0367  1.4169
  134MOL0     H18024   2.438  10.808   8.591  0.6697  1.7406 -0.8273
  134MOL0     H18025   2.503  11.178   8.406  0.7568 -1.8237 -0.6005
  134MOL0     H18026   2.462  11.253   8.567 -1.0336 -1.6142  1.0002
  134MOL0     H18027   2.742  11.140   8.575  1.6432  3.7275  3.9657
  134MOL0     H18028   2.682  11.308   8.579 -0.2596  1.3312 -1.2889
  134MOL0     H18029   2.686  11.326   8.340 -0.8500  0.5677 -0.0891
  134MOL0     H18030   2.719  11.151   8.319  1.0064  0.7460  0.5064
  134MOL0     H18031   2.912  11.348   8.449  0.7648  0.2308 -0.8274
  134MOL0     H18032   2.945  11.179   8.414 -0.3958  0.2127  1.6047
  134MOL0     H18033   2.888  11.217   8.171  2.1156  1.5932 -1.4700
  134MOL0     H18034   2.866  11.390   8.208  0.1321  0.5698  1.7139
  134MOL0     H18035   3.081  11.396   8.148  1.2474 -0.4517  0.5394
  134MOL0     H18036   3.106  11.358   8.318  0.5949 -1.3171  0.4454
  134MOL0     H18037   3.061  11.100   8.202  1.8766 -1.2616  0.9466
  134MOL0     H18038   3.212  11.163   8.257  1.8920 -1.3698 -1.2715
  134MOL0     H18039   3.211  11.083   8.009  0.1304  0.3601 -0.4096
  134MOL0     H18040   3.114  11.232   7.980 -0.2843 -1.5844 -0.2564
  134MOL0     H18041   3.474  11.094   8.040  0.2726  0.9792  0.6901
  134MOL0     H18042   3.725  11.341   8.101 -2.6722  2.9055  0.5246
  134MOL0     H18043   3.707  11.182   8.026 -1.0258 -0.1945  2.3272
  134MOL0     H18044   3.634  11.317   7.803 -0.9919  1.2488  1.4552
  134MOL0     H18045   3.721  11.457   7.866 -1.2143  0.5115 -2.6322
  134MOL0     H18046   3.860  11.296   7.730  0.5759  0.9186  0.5970
  134MOL0     H18047   3.847  11.180   7.873 -3.0731 -0.3860  1.5754
  134MOL0     H18048   3.966  11.312   8.001  4.1154 -0.9468 -0.7982
  134MOL0     H18049   3.942  11.466   7.905 -2.1926 -0.4328  2.1152
  134MOL0     H18050   4.120  11.521   8.047  1.5635 -0.7281  3.1279
  134MOL0     H18051   4.334  11.562   8.156  0.9751 -0.0749  0.5158
  134MOL0     H18052   4.743  11.782   8.122  0.8766  0.9580 -0.1045
  134MOL0     H18053   4.939  11.826   8.218 -0.4281  0.1557 -3.2531
  134MOL0     H18054   5.190  11.752   8.257  1.4844 -1.8574 -0.3182
  134MOL0     H18055   5.121  11.870   8.364 -0.4120 -0.8512  0.6462
  134MOL0     H18056   5.324  11.861   8.466 -0.6504 -0.1451 -1.1757
  134MOL0     H18057   5.244  11.741   8.564 -0.8852 -2.6992 -1.6575
  134MOL0     H18058   5.330  11.557   8.426  0.3820  0.7213  3.1678
  134MOL0     H18059   5.408  11.682   8.323 -1.1181  0.4968 -1.0429
  134MOL0     H18060   5.462  11.624   8.622  1.0433 -0.2300  0.4361
  134MOL0     H18061   5.549  11.743   8.521 -0.4936  0.4649 -2.4093
  134MOL0     H18062   5.637  11.555   8.371  3.4475 -1.5037  0.1962
  134MOL0     H18063   5.547  11.442   8.478  1.9764 -1.0412  1.6246
  134MOL0     H18064   5.760  11.640   8.578 -0.0793 -0.1818  0.9189
  134MOL0     H18065   5.683  11.507   8.669 -1.9609 -0.6560 -1.3237
  134MOL0     H18066   5.850  11.482   8.412 -0.1152 -0.5914 -0.5061
  134MOL0     H18067   5.776  11.345   8.495 -0.1879  0.0675  0.8737
  134MOL0     H18068   5.915  11.391   8.701  0.4605  1.9046  0.5683
  134MOL0     H18069   6.010  11.356   8.551 -0.4707 -0.8084 -0.9194
  134MOL0     H18070   4.916  11.472   8.459  1.5367  1.5605  1.0401
  134MOL0     H18071   4.694  11.424   8.364  1.6128  0.5792  0.4409
  134MOL0     H18072   4.514  11.288   7.887 -1.1859 -0.5047  1.5867
  134MOL0     H18073   4.300  11.243   7.787 -1.5062  0.3776  0.2273
  134MOL0     H18074   2.257  11.185   8.516 -4.2408  0.5754  0.2110
  134MOL0     H18075   2.049  11.082   8.491  0.6699 -0.2831 -2.7649
  134MOL0     H18076   1.854  10.477   8.510  0.5756  0.6561  0.5256
  134MOL0     H18077   1.618  10.427   8.530  2.1414 -0.6620  1.6358
  134MOL0     H18078   1.466  10.439   8.662  0.3899 -0.5859 -0.8188
  134MOL0     H18079   1.381  10.390   8.521 -2.5497  1.7082 -1.7108
  134MOL0     H18080   1.234  10.563   8.710 -5.5104 -0.7287 -1.4735
  134MOL0     H18081   1.243  10.378   8.722 -2.7622  0.9966  1.8995
  134MOL0     H18082   1.157  10.468   8.462  0.3440  2.0337 -0.1494
  134MOL0     H18083   1.072  10.560   8.580  1.6069  1.0808  1.8539
  134MOL0     H18084   1.000  10.328   8.697  2.1945 -0.4389  1.5174
  134MOL0     H18085   0.937  10.359   8.534 -0.0066 -0.6395  0.9851
  134MOL0     H18086   1.183  10.011   8.479  0.3966  0.2056 -1.2443
  134MOL0     H18087   1.502  10.818   8.462  0.2733  0.7420  2.3568
  134MOL0     H18088   1.846  10.927   8.332 -0.1180 -4.6537  0.4958
  134MOL0     H18089   1.673  10.988   8.355 -1.9185 -0.7561  3.1411
  134MOL0     H18090   1.800  10.991   8.478  2.0750 -3.9209  1.8767
  135MOL0     O18091   0.778   0.366   7.918  0.3636 -0.4837 -0.2743
  135MOL0     C18092   0.710   0.467   7.908 -0.6353 -0.6573  0.4130
  135MOL0     O18093   0.763   0.593   7.884  0.0847 -0.6526 -0.1278
  135MOL0     C18094   0.901   0.599   7.904  0.7728  0.3900 -0.5481
  135MOL0     C18095   0.937   0.647   8.032 -0.1061 -0.6138 -0.1038
  135MOL0     C18096   1.072   0.633   8.070 -0.6629 -0.2843 -0.5157
  135MOL0     C18097   1.168   0.570   7.996  0.2475  0.4461 -0.4926
  135MOL0     O18098   1.296   0.555   8.039 -0.1613  0.1972 -0.5257
  135MOL0     C18099   1.380   0.449   7.995 -0.7426 -0.1125 -0.4117
  135MOL0     C18100   1.459   0.395   8.113  0.0971 -0.7091  0.1429
  135MOL0     C18101   1.556   0.491   8.177 -0.2190  0.3148  0.4509
  135MOL0     C18102   1.643   0.426   8.286 -0.3059  0.0117 -0.5736
  135MOL0     C18103   1.703   0.535   8.371 -0.3667  0.1462 -0.1333
  135MOL0     C18104   1.766   0.457   8.493 -0.3174 -0.1279  0.1884
  135MOL0     C18105   1.852   0.554   8.585 -0.3619  0.2877  0.8369
  135MOL0     C18106   1.992   0.550   8.543 -0.2427 -0.3646 -0.9055
  135MOL0     N18107   2.083   0.607   8.642 -0.0211 -0.4717  0.2095
  135MOL0     C18108   2.216   0.568   8.639  0.4880  1.4677 -0.6290
  135MOL0     C18109   2.272   0.654   8.727 -0.3183 -0.2058 -0.6287
  135MOL0     C18110   2.411   0.644   8.775  0.8949  0.1736 -0.5654
  135MOL0     C18111   2.496   0.766   8.746  0.8687 -0.0556  0.5279
  135MOL0     C18112   2.615   0.789   8.834  0.0669  0.0389 -0.7675
  135MOL0     C18113   2.729   0.692   8.813 -0.8036  0.3076  0.3420
  135MOL0     O18114   2.800   0.735   8.700  0.1573  0.1421 -0.1309
  135MOL0     C18115   2.926   0.698   8.682  0.4202 -0.4940  0.2147
  135MOL0     C18116   3.011   0.647   8.775 -0.5235  0.2365  0.1114
  135MOL0     C18117   3.151   0.634   8.760  0.6517  0.0455 -0.5465
  135MOL0     C18118   3.204   0.685   8.643 -0.4633 -0.3236 -0.2759
  135MOL0     C18119   3.351   0.689   8.640 -0.5708  0.1199 -0.5389
  135MOL0     O18120   3.423   0.656   8.757  0.3824 -0.0917  0.2408
  135MOL0     C18121   3.561   0.663   8.752 -0.2808  0.5061 -0.1303
  135MOL0     C18122   3.642   0.618   8.647 -0.8141  0.3901  0.9938
  135MOL0     C18123   3.779   0.640   8.654 -0.1166 -0.0690 -0.4998
  135MOL0     C18124   3.846   0.706   8.765  0.4247  0.0310  0.2027
  135MOL0     O18125   3.982   0.725   8.790  0.5363 -0.3731 -0.5503
  135MOL0     C18126   4.047   0.609   8.752 -1.0946 -0.4228 -0.0857
  135MOL0     C18127   4.200   0.638   8.746 -0.6031  0.1270 -0.2602
  135MOL0     C18128   4.259   0.665   8.889 -0.8452 -0.2314  0.1982
  135MOL0     C18129   4.412   0.626   8.883 -0.1102  0.0281 -0.1098
  135MOL0     C18130   4.491   0.692   8.994  0.4244 -0.2354 -0.5102
  135MOL0     C18131   4.626   0.622   8.988 -0.1003 -0.5318 -0.0333
  135MOL0     C18132   4.729   0.709   9.060  0.4413 -0.2862 -0.5452
  135MOL0     C18133   4.867   0.641   9.052  1.3242 -0.5275  0.2108
  135MOL0    Cl18134   4.989   0.718   9.154  0.5909  0.1136  0.0209
  135MOL0     C18135   3.761   0.745   8.868 -0.1479  0.6489  0.1874
  135MOL0     C18136   3.618   0.730   8.858  0.2316 -1.2204 -0.8756
  135MOL0     O18137   3.410   0.732   8.536 -0.1306  0.2806  0.1593
  135MOL0     C18138   3.120   0.727   8.539  0.7847 -0.3996 -0.0585
  135MOL0     C18139   2.984   0.727   8.555  0.5993 -0.4968 -0.2643
  135MOL0     N18140   2.179   0.746   8.781 -0.3567  0.6116  0.5289
  135MOL0     N18141   2.062   0.713   8.728  0.1415 -0.4852 -0.0246
  135MOL0     C18142   1.127   0.524   7.867  0.8880  0.5577 -0.8496
  135MOL0     C18143   0.996   0.538   7.817  0.5725 -0.0223 -0.3817
  135MOL0     C18144   0.561   0.439   7.910 -0.0144 -1.2587 -0.1561
  135MOL0     C18145   0.505   0.326   7.858  0.2450 -0.0627  0.2740
  135MOL0     C18146   0.372   0.304   7.841 -0.2108 -0.1046 -0.3278
  135MOL0     C18147   0.284   0.404   7.883 -0.5590  0.1718 -0.5323
  135MOL0     O18148   0.153   0.365   7.873  0.4697  0.3275 -0.0411
  135MOL0     C18149   0.049   0.420   7.962 -0.2608  0.4842 -0.3257
  135MOL0     C18150  -0.048   0.310   8.006  0.1037 -0.3722 -0.1746
  135MOL0     C18151  -0.156   0.282   7.887 -0.2336  0.2602 -0.1955
  135MOL0     C18152  -0.232   0.406   7.842 -0.0411 -0.8145  0.4167
  135MOL0     C18153  -0.296   0.467   7.956 -0.6152  0.4847 -0.8974
  135MOL0     C18154  -0.356   0.527   8.047 -0.1071 -0.2066  0.3695
  135MOL0     C18155   0.332   0.525   7.937  0.3939  0.2594  0.3022
  135MOL0     C18156   0.466   0.539   7.951 -0.5326 -0.5003 -0.2117
  135MOL0     C18157   0.505   0.680   7.986 -0.5100  0.3744  0.2043
  135MOL0     H18158   0.859   0.691   8.094  0.9043 -0.1292  0.8513
  135MOL0     H18159   1.100   0.678   8.166  0.7317  1.7928 -1.8034
  135MOL0     H18160   1.335   0.362   7.947  0.1530 -1.1881  0.6468
  135MOL0     H18161   1.449   0.479   7.916  0.7107 -3.1083 -0.3970
  135MOL0     H18162   1.504   0.306   8.069  0.0643 -0.3439 -0.6373
  135MOL0     H18163   1.398   0.365   8.199  1.5083  1.7354  2.1570
  135MOL0     H18164   1.511   0.583   8.215 -1.2000  1.5882 -3.3001
  135MOL0     H18165   1.625   0.522   8.097 -0.1924 -1.5065 -0.2626
  135MOL0     H18166   1.571   0.369   8.346  1.1220  0.0299  1.2482
  135MOL0     H18167   1.721   0.357   8.255  0.1544 -1.7088  3.7836
  135MOL0     H18168   1.777   0.590   8.313 -0.1970  0.6275  0.5359
  135MOL0     H18169   1.634   0.609   8.414 -1.2595 -1.3154  1.0660
  135MOL0     H18170   1.689   0.422   8.563  0.2318 -0.9816  0.3780
  135MOL0     H18171   1.809   0.365   8.453 -0.3201 -0.8880  1.8544
  135MOL0     H18172   1.832   0.547   8.692 -2.6340  2.1197  0.6183
  135MOL0     H18173   1.829   0.659   8.561  0.4149  1.2670  3.9822
  135MOL0     H18174   2.024   0.445   8.541 -2.0067 -1.1666  3.2711
  135MOL0     H18175   2.018   0.599   8.449  2.7429  3.2886  1.5194
  135MOL0     H18176   2.269   0.485   8.592  0.1142  0.0641  1.3120
  135MOL0     H18177   2.409   0.621   8.882 -3.1944 -1.2907 -0.7791
  135MOL0     H18178   2.458   0.557   8.728 -1.8564 -1.3265 -0.7760
  135MOL0     H18179   2.530   0.761   8.642 -1.0649  0.4403 -0.1692
  135MOL0     H18180   2.434   0.856   8.750  0.8448 -0.0845  0.7990
  135MOL0     H18181   2.575   0.761   8.931  0.4192  1.5134 -0.1713
  135MOL0     H18182   2.649   0.893   8.844  1.8896 -0.4478 -1.3395
  135MOL0     H18183   2.694   0.590   8.793 -2.1432  0.9570 -0.7907
  135MOL0     H18184   2.787   0.696   8.906  0.6914  2.4565 -0.5934
  135MOL0     H18185   2.974   0.634   8.876 -3.4718 -2.8568 -1.1947
  135MOL0     H18186   3.210   0.585   8.837  2.4688 -2.1620 -3.0981
  135MOL0     H18187   3.596   0.576   8.558 -1.1820 -0.5158  1.5994
  135MOL0     H18188   3.842   0.612   8.571  2.9264  2.8145  0.6010
  135MOL0     H18189   4.024   0.527   8.821 -0.9230  0.1351  0.6494
  135MOL0     H18190   4.025   0.575   8.650  2.5880 -1.2997 -0.7188
  135MOL0     H18191   4.249   0.550   8.704  0.6463  0.7465 -0.1374
  135MOL0     H18192   4.217   0.722   8.677  0.4251 -0.3415 -0.5948
  135MOL0     H18193   4.253   0.772   8.911 -3.0214  0.3983 -2.8352
  135MOL0     H18194   4.190   0.615   8.958 -1.4857 -1.8551 -1.5168
  135MOL0     H18195   4.449   0.665   8.788 -1.9239 -1.2274 -1.3944
  135MOL0     H18196   4.411   0.517   8.889  1.5120 -0.0035 -0.1124
  135MOL0     H18197   4.435   0.676   9.087 -0.0301  2.2376 -0.2974
  135MOL0     H18198   4.502   0.800   8.982  0.6071  0.1550  2.4595
  135MOL0     H18199   4.624   0.518   9.023  0.2071 -0.1204  1.2569
  135MOL0     H18200   4.660   0.613   8.884 -1.0225  0.0259 -0.3890
  135MOL0     H18201   4.703   0.716   9.166  0.6146  0.0463 -0.5217
  135MOL0     H18202   4.741   0.812   9.024  4.0835  0.0094  0.9961
  135MOL0     H18203   4.861   0.538   9.088  1.5502 -0.4757  0.4016
  135MOL0     H18204   4.906   0.627   8.951  1.6376 -0.6314  0.3460
  135MOL0     H18205   3.812   0.793   8.951  1.3862  1.0744 -0.9594
  135MOL0     H18206   3.552   0.769   8.934  0.3583  0.2286 -1.4738
  135MOL0     H18207   3.168   0.757   8.446  0.9978  2.8020  0.9637
  135MOL0     H18208   2.906   0.768   8.491  0.3475  0.1115  0.4216
  135MOL0     H18209   1.206   0.469   7.818  1.5173 -1.3781  2.0704
  135MOL0     H18210   0.968   0.493   7.722  1.2785 -1.7157  0.1876
  135MOL0     H18211   0.579   0.253   7.827 -3.2271 -4.0249  0.4211
  135MOL0     H18212   0.342   0.205   7.807  4.9183 -1.9481 -0.4016
  135MOL0     H18213  -0.006   0.508   7.928 -1.2991 -0.1359 -0.2937
  135MOL0     H18214   0.099   0.449   8.055 -0.3287 -2.7856  0.8753
  135MOL0     H18215  -0.098   0.342   8.097  0.0541 -1.2386  0.1167
  135MOL0     H18216   0.003   0.216   8.030  0.3334 -0.2018  0.0176
  135MOL0     H18217  -0.215   0.196   7.921 -1.5723  0.4418 -1.9263
  135MOL0     H18218  -0.106   0.246   7.797  0.5527  1.2003 -0.1475
  135MOL0     H18219  -0.154   0.468   7.797  3.0887 -3.8595  1.2116
  135MOL0     H18220  -0.309   0.387   7.768 -0.3586 -2.4342  1.1014
  135MOL0     H18221  -0.412   0.570   8.127  2.7638  1.6603  1.5249
  135MOL0     H18222   0.264   0.603   7.968 -0.5523 -0.2171 -0.5241
  135MOL0     H18223   0.593   0.673   8.051 -1.0931 -0.3164  0.9363
  135MOL0     H18224   0.544   0.730   7.896  1.6779  3.0235  2.4395
  135MOL0     H18225   0.430   0.744   8.034 -0.3635  0.8962 -0.2479
  136MOL0     O18226   3.586  10.943   5.323 -0.2570 -0.9119  0.1956
  136MOL0     C18227   3.585  10.825   5.323 -0.1994 -0.2960 -0.5728
  136MOL0     O18228   3.676  10.743   5.264  0.2413  0.2331  0.1214
  136MOL0     C18229   3.807  10.782   5.232 -0.0223  0.2704  0.4480
  136MOL0     C18230   3.892  10.674   5.185  0.3180 -0.2828  0.4828
  136MOL0     C18231   4.024  10.698   5.142  0.0331 -0.4577 -0.0988
  136MOL0     C18232   4.086  10.824   5.169  0.6500 -0.1613 -0.6272
  136MOL0     O18233   4.208  10.874   5.130 -0.2172  0.1279 -0.5188
  136MOL0     C18234   4.299  10.765   5.096  0.9342 -0.4796  0.1769
  136MOL0     C18235   4.357  10.693   5.225  0.1207  0.1953  0.6935
  136MOL0     C18236   4.448  10.779   5.308  0.2446  0.3933 -0.2852
  136MOL0     C18237   4.409  10.773   5.456 -0.2134 -0.7950 -0.2671
  136MOL0     C18238   4.514  10.840   5.541 -0.9828 -0.1559 -0.0037
  136MOL0     C18239   4.656  10.760   5.558 -0.5184 -0.8914 -0.2965
  136MOL0     C18240   4.748  10.842   5.642 -0.1770 -0.5732 -0.5514
  136MOL0     C18241   4.779  10.986   5.595 -0.2371 -0.0473  0.1204
  136MOL0     N18242   4.909  11.031   5.646  0.2345  0.2771 -0.8081
  136MOL0     C18243   4.919  11.098   5.771  0.2571 -0.4344 -0.4549
  136MOL0     C18244   5.050  11.123   5.779  0.0744  0.0308  0.0201
  136MOL0     C18245   5.118  11.186   5.895 -0.4276  0.3713  0.4526
  136MOL0     C18246   5.271  11.162   5.903  0.4386 -0.1348  0.7346
  136MOL0     C18247   5.325  11.230   6.035 -0.5210  0.1608  0.4170
  136MOL0     C18248   5.471  11.226   6.054 -0.0260  0.6644 -0.2942
  136MOL0     O18249   5.532  11.293   5.937 -0.7628 -0.4996 -0.1227
  136MOL0     C18250   5.662  11.325   5.957 -1.0682  0.7281  0.2392
  136MOL0     C18251   5.743  11.299   6.064  0.1950 -1.2908 -0.1114
  136MOL0     C18252   5.871  11.358   6.080 -0.1604 -0.1395  0.7729
  136MOL0     C18253   5.937  11.415   5.967  0.8880 -0.6287  0.5026
  136MOL0     C18254   6.073  11.445   5.976 -0.7144 -0.2037 -0.6991
  136MOL0     O18255   6.144  11.469   5.863  0.4714  0.1358  0.1251
  136MOL0     C18256   6.280  11.503   5.855  0.9408  0.4097 -0.2575
  136MOL0     C18257   6.383  11.525   5.950  1.0482  0.1242 -0.0217
  136MOL0     C18258   6.513  11.539   5.914 -0.4051  0.4102 -0.1324
  136MOL0     C18259   6.556  11.550   5.782  0.2455 -0.1737 -0.0127
  136MOL0     O18260   6.680  11.568   5.746 -0.3825 -0.0624  0.6776
  136MOL0     C18261   6.746  11.698   5.762 -0.0603  0.5503  0.1016
  136MOL0     C18262   6.893  11.681   5.715 -0.5165  0.1763 -0.5308
  136MOL0     C18263   6.975  11.809   5.731  0.0812 -0.3708 -0.6711
  136MOL0     C18264   7.122  11.799   5.706  0.5567  1.0073 -0.2248
  136MOL0     C18265   7.186  11.928   5.747 -0.4343  0.1145 -0.0897
  136MOL0     C18266   7.305  11.964   5.664 -0.3219  0.4125  0.5234
  136MOL0     C18267   7.336  12.111   5.673 -0.2881  0.0441  0.2901
  136MOL0     C18268   7.349  12.189   5.802 -0.6344  0.2426  0.5180
  136MOL0    Cl18269   7.466  12.095   5.903  0.1091  0.5631 -0.1071
  136MOL0     C18270   6.453  11.540   5.691 -0.0723 -1.2813 -0.5241
  136MOL0     C18271   6.317  11.511   5.723 -0.5278  0.2472  0.5359
  136MOL0     O18272   6.119  11.455   6.091 -0.2178  0.1164 -0.5353
  136MOL0     C18273   5.852  11.424   5.846 -0.2815  0.2184 -0.4381
  136MOL0     C18274   5.719  11.387   5.845  1.1440  0.1863 -0.2712
  136MOL0     N18275   5.120  11.084   5.662 -0.1718 -0.3702 -0.3233
  136MOL0     N18276   5.029  11.031   5.582 -0.5627 -0.0959 -0.4570
  136MOL0     C18277   4.003  10.924   5.232 -0.3661 -0.2584 -0.3020
  136MOL0     C18278   3.866  10.910   5.260 -0.4773  0.2872 -0.5073
  136MOL0     C18279   3.482  10.758   5.412 -0.2267 -0.1008 -0.2354
  136MOL0     C18280   3.368  10.828   5.460  0.3377 -1.5500  0.9425
  136MOL0     C18281   3.272  10.781   5.544 -1.1074  0.3518  0.6790
  136MOL0     C18282   3.280  10.651   5.590  0.5284  0.6228 -0.3168
  136MOL0     O18283   3.193  10.588   5.680  0.2796 -0.0586  0.0175
  136MOL0     C18284   3.127  10.676   5.776  0.4924 -0.5411 -0.3482
  136MOL0     C18285   2.976  10.697   5.734 -0.2743 -0.8081 -0.6115
  136MOL0     C18286   2.886  10.575   5.744 -0.4512  0.2030 -0.2010
  136MOL0     C18287   2.927  10.456   5.655 -0.4072  0.9440  0.3699
  136MOL0     C18288   2.824  10.358   5.626  0.6688  0.5595 -0.1158
  136MOL0     C18289   2.733  10.274   5.618  0.0643 -0.0792  0.7707
  136MOL0     C18290   3.386  10.570   5.543 -0.3320  0.3212  0.0595
  136MOL0     C18291   3.492  10.625   5.462  0.5661  0.1600  0.1474
  136MOL0     C18292   3.608  10.537   5.446  0.0591  0.2690  0.0271
  136MOL0     H18293   3.841  10.579   5.166 -1.9012  0.8502  0.4263
  136MOL0     H18294   4.080  10.618   5.095  1.1510  1.3004 -1.8683
  136MOL0     H18295   4.246  10.694   5.032 -1.7820 -0.1280  1.8449
  136MOL0     H18296   4.385  10.801   5.039  1.4962  0.8582  1.7865
  136MOL0     H18297   4.407  10.602   5.189  0.0225 -0.0012  1.0422
  136MOL0     H18298   4.272  10.665   5.288  1.2057 -0.3234  1.9790
  136MOL0     H18299   4.435  10.881   5.272 -0.4150  0.5113  0.2612
  136MOL0     H18300   4.554  10.758   5.294  0.1745  0.1558 -0.4742
  136MOL0     H18301   4.322  10.841   5.460  0.2888 -0.1102 -0.6775
  136MOL0     H18302   4.376  10.672   5.482  1.5160 -1.2777  0.1496
  136MOL0     H18303   4.543  10.936   5.497 -0.0570  0.2459  1.4227
  136MOL0     H18304   4.468  10.857   5.639  1.0205  0.9564  0.8089
  136MOL0     H18305   4.648  10.657   5.594 -0.0519 -1.0784 -0.7034
  136MOL0     H18306   4.696  10.754   5.456 -1.9992 -2.2799 -0.8410
  136MOL0     H18307   4.841  10.785   5.651 -0.9917 -1.9743 -0.7618
  136MOL0     H18308   4.703  10.845   5.741 -2.0794 -3.8231 -1.1610
  136MOL0     H18309   4.782  10.994   5.486  0.5519 -1.5878  0.0017
  136MOL0     H18310   4.704  11.056   5.633  0.1180  1.8775 -2.4019
  136MOL0     H18311   4.840  11.137   5.835  0.4820 -0.9555  0.1582
  136MOL0     H18312   5.095  11.293   5.897 -3.7559 -0.1577  4.5632
  136MOL0     H18313   5.084  11.161   5.996 -0.0654 -0.3835  0.3994
  136MOL0     H18314   5.294  11.055   5.903  0.7033 -0.0871 -0.3724
  136MOL0     H18315   5.324  11.212   5.821  2.3649  0.2210  2.1274
  136MOL0     H18316   5.281  11.183   6.124 -1.0114 -2.7468 -1.2222
  136MOL0     H18317   5.292  11.333   6.022 -1.1891  0.0990  1.5118
  136MOL0     H18318   5.501  11.120   6.052 -0.3598  0.5324  1.1551
  136MOL0     H18319   5.505  11.259   6.152  0.9174 -0.7935 -0.1020
  136MOL0     H18320   5.707  11.246   6.152  1.4575  0.6475  1.6789
  136MOL0     H18321   5.928  11.338   6.170  1.8741 -0.6609 -0.5554
  136MOL0     H18322   6.345  11.528   6.052 -1.1655  0.7066 -0.8005
  136MOL0     H18323   6.594  11.543   5.986  0.9196  1.4855 -1.6088
  136MOL0     H18324   6.704  11.776   5.698  2.9004  0.1831 -2.5702
  136MOL0     H18325   6.753  11.729   5.867  0.7718  1.4886 -0.2110
  136MOL0     H18326   6.942  11.601   5.772 -0.2227 -0.7198 -1.9966
  136MOL0     H18327   6.901  11.642   5.613 -3.1195 -0.0309 -0.7277
  136MOL0     H18328   6.934  11.892   5.673  1.4298  0.8217  0.0038
  136MOL0     H18329   6.967  11.836   5.836 -3.1676  1.4714 -1.2687
  136MOL0     H18330   7.143  11.788   5.599  1.7413  1.4219 -0.0498
  136MOL0     H18331   7.171  11.708   5.741  0.4417  0.5257 -1.2503
  136MOL0     H18332   7.215  11.936   5.852 -1.4738  2.5690  0.0669
  136MOL0     H18333   7.118  12.012   5.732  1.3445  1.7500  0.5767
  136MOL0     H18334   7.392  11.906   5.697 -0.6950 -0.0474  0.7059
  136MOL0     H18335   7.285  11.948   5.558 -2.2243  0.2307  0.8666
  136MOL0     H18336   7.249  12.149   5.618  0.1266  0.7619  0.1147
  136MOL0     H18337   7.431  12.124   5.622  0.5044 -0.7281  1.5304
  136MOL0     H18338   7.389  12.287   5.775  0.1811 -0.8763 -2.7577
  136MOL0     H18339   7.253  12.197   5.854 -0.7558 -0.3926  0.3925
  136MOL0     H18340   6.486  11.545   5.587  0.3025 -1.7916 -0.4354
  136MOL0     H18341   6.253  11.487   5.637  1.0529  0.1435 -0.6520
  136MOL0     H18342   5.903  11.461   5.758 -1.3714  0.0725 -1.1481
  136MOL0     H18343   5.660  11.384   5.754 -0.1966 -2.4840  0.5913
  136MOL0     H18344   4.037  11.023   5.260 -1.6763 -0.0710  0.7127
  136MOL0     H18345   3.817  10.997   5.302  0.9205  0.1293  1.5643
  136MOL0     H18346   3.356  10.927   5.418  0.6594 -2.7225 -2.1517
  136MOL0     H18347   3.192  10.842   5.584 -1.5083  0.7245 -0.6436
  136MOL0     H18348   3.180  10.769   5.794  0.1353 -0.6355  1.3786
  136MOL0     H18349   3.111  10.625   5.871 -0.8121  2.8786  1.4287
  136MOL0     H18350   2.959  10.738   5.634 -0.2919  0.2855 -0.1695
  136MOL0     H18351   2.926  10.766   5.802 -1.5793  1.3716 -3.5621
  136MOL0     H18352   2.779  10.593   5.728 -0.2693 -0.6022 -2.8490
  136MOL0     H18353   2.887  10.539   5.847  0.4805  0.0759 -0.2481
  136MOL0     H18354   2.982  10.486   5.565  2.6534 -1.8417  1.1200
  136MOL0     H18355   3.000  10.405   5.719 -0.7844 -0.5541 -0.3567
  136MOL0     H18356   2.670  10.192   5.590 -0.9426  1.1237 -0.6667
  136MOL0     H18357   3.389  10.466   5.576  0.1015 -0.1142 -1.3065
  136MOL0     H18358   3.617  10.471   5.532 -1.0948 -1.6239 -1.2175
  136MOL0     H18359   3.606  10.483   5.351  3.1066  0.5472 -0.2967
  136MOL0     H18360   3.703  10.591   5.435  0.5164 -0.8607 -2.2756
  137MOL0     O18361   6.214   2.375  10.811  0.3258 -0.4416  0.0315
  137MOL0     C18362   6.160   2.403  10.703  0.6842  0.9306 -0.0912
  137MOL0     O18363   6.213   2.485  10.614  0.1632  0.5864 -0.2343
  137MOL0     C18364   6.347   2.524  10.619  0.3268 -0.5948 -0.4417
  137MOL0     C18365   6.451   2.440  10.661  0.3347 -0.0632  1.3455
  137MOL0     C18366   6.588   2.477  10.665  0.4975 -1.0645  0.4593
  137MOL0     C18367   6.620   2.613  10.632  0.2072 -0.1320  1.3862
  137MOL0     O18368   6.751   2.662  10.635 -0.4608 -0.0605 -0.3436
  137MOL0     C18369   6.853   2.562  10.644 -0.6985 -0.1032  0.1017
  137MOL0     C18370   6.989   2.633  10.633  0.3745  0.3876 -0.8136
  137MOL0     C18371   7.105   2.546  10.574 -0.0687 -0.8229 -0.2455
  137MOL0     C18372   7.234   2.618  10.624 -0.1427  0.3203  0.1927
  137MOL0     C18373   7.358   2.532  10.578  0.1998 -0.8216  0.4970
  137MOL0     C18374   7.493   2.571  10.634 -0.1501  0.0260  0.0749
  137MOL0     C18375   7.592   2.489  10.558 -0.4052 -0.5331  0.0499
  137MOL0     C18376   7.730   2.502  10.596  0.3613 -0.3095 -0.1282
  137MOL0     N18377   7.820   2.421  10.504  0.2493 -0.7972  0.1346
  137MOL0     C18378   7.817   2.410  10.366  1.1174 -0.0313  0.2931
  137MOL0     C18379   7.934   2.342  10.333  0.3636 -0.0536 -0.4278
  137MOL0     C18380   7.959   2.290  10.195  0.0452  0.5039 -0.9747
  137MOL0     C18381   8.107   2.246  10.188 -0.3075  0.4386  0.1428
  137MOL0     C18382   8.145   2.221  10.039 -0.3529  0.1699  0.0406
  137MOL0     C18383   8.297   2.205  10.024 -0.5135  0.0296  0.6070
  137MOL0     O18384   8.323   2.199   9.888  0.7391 -0.0840  0.1446
  137MOL0     C18385   8.448   2.242   9.861 -0.1640 -0.0397 -0.9930
  137MOL0     C18386   8.473   2.304   9.741 -0.0532  0.9714 -0.6726
  137MOL0     C18387   8.604   2.332   9.702 -0.8527 -0.0479 -0.5685
  137MOL0     C18388   8.711   2.304   9.786 -0.3327 -0.8298  0.3027
  137MOL0     C18389   8.852   2.361   9.754  0.1236 -0.3019 -0.6979
  137MOL0     O18390   8.945   2.351   9.850 -0.1627  0.0256 -0.0805
  137MOL0     C18391   9.082   2.371   9.831 -0.0389  0.6312 -0.4302
  137MOL0     C18392   9.150   2.466   9.755 -0.8128  0.4489  0.5109
  137MOL0     C18393   9.293   2.460   9.752 -0.0822 -0.1610 -0.1586
  137MOL0     C18394   9.358   2.374   9.831 -0.2358  0.0104 -0.0163
  137MOL0     O18395   9.493   2.354   9.837  0.5056  0.5849 -0.2850
  137MOL0     C18396   9.579   2.400   9.732  0.3122  0.4986  1.0057
  137MOL0     C18397   9.717   2.358   9.784 -0.2166 -0.0560  0.0696
  137MOL0     C18398   9.822   2.389   9.676 -0.4540 -1.3787  0.6445
  137MOL0     C18399   9.966   2.361   9.735 -0.0900 -0.6753 -0.5255
  137MOL0     C18400  10.071   2.407   9.624  0.0911 -0.8250 -0.8032
  137MOL0     C18401  10.212   2.394   9.666 -0.2194 -0.2999  0.4528
  137MOL0     C18402  10.308   2.446   9.562  0.0716  0.3640 -0.7449
  137MOL0     C18403  10.447   2.446   9.627 -0.4543 -0.4894 -0.3635
  137MOL0    Cl18404  10.568   2.445   9.505  0.0336  0.2602  0.1413
  137MOL0     C18405   9.292   2.290   9.912  0.3292 -0.5088 -0.3404
  137MOL0     C18406   9.155   2.289   9.915  0.6815  0.5635 -0.2780
  137MOL0     O18407   8.863   2.421   9.651  0.4462  0.1884  0.0085
  137MOL0     C18408   8.684   2.243   9.905  0.6083  0.3703  0.3094
  137MOL0     C18409   8.556   2.195   9.934  1.8678 -0.6965 -0.3449
  137MOL0     N18410   7.994   2.302  10.451 -0.6432  0.7163 -0.0783
  137MOL0     N18411   7.927   2.350  10.556 -1.2485 -0.2069  0.5523
  137MOL0     C18412   6.523   2.694  10.579  0.4813 -0.8730  0.1325
  137MOL0     C18413   6.386   2.653  10.571 -0.9733 -0.5709  0.1698
  137MOL0     C18414   6.006   2.375  10.691 -0.0727 -0.2246  0.6777
  137MOL0     C18415   5.945   2.414  10.572 -0.1342 -0.0901  0.3543
  137MOL0     C18416   5.809   2.399  10.552 -1.3056  0.8166  0.6212
  137MOL0     C18417   5.724   2.351  10.645 -0.2843 -0.1726  0.2632
  137MOL0     O18418   5.595   2.359  10.609 -0.0284  0.6060 -0.6245
  137MOL0     C18419   5.499   2.292  10.701  0.9403  0.1988  0.0805
  137MOL0     C18420   5.478   2.135  10.688 -0.0366  0.2106  0.2791
  137MOL0     C18421   5.446   2.081  10.551 -0.4045 -0.2935 -0.7859
  137MOL0     C18422   5.425   1.931  10.558 -0.3848 -0.1192 -0.3891
  137MOL0     C18423   5.415   1.868  10.428  0.1562 -0.1266  1.1804
  137MOL0     C18424   5.403   1.825  10.316  0.1214 -0.4786 -0.3706
  137MOL0     C18425   5.778   2.308  10.763 -0.2195  0.2638  0.5801
  137MOL0     C18426   5.922   2.310  10.789  0.5537 -0.2330 -0.9241
  137MOL0     C18427   5.979   2.257  10.921  0.1972 -0.1189 -0.5356
  137MOL0     H18428   6.435   2.334  10.680 -1.8557 -0.0882 -0.3406
  137MOL0     H18429   6.669   2.409  10.685  0.8530 -1.0054 -0.7227
  137MOL0     H18430   6.846   2.528  10.748 -0.5077  2.4664  1.0282
  137MOL0     H18431   6.851   2.486  10.566 -0.1346 -0.0637  0.0439
  137MOL0     H18432   7.033   2.672  10.725 -1.0636 -1.6682  0.8436
  137MOL0     H18433   6.961   2.719  10.571  1.1967  0.6000 -0.9066
  137MOL0     H18434   7.096   2.548  10.465 -0.1724 -1.1737 -0.2448
  137MOL0     H18435   7.098   2.447  10.621 -0.3222 -0.9784 -0.6012
  137MOL0     H18436   7.246   2.721  10.590 -0.1555  0.4017  0.4307
  137MOL0     H18437   7.237   2.623  10.733 -1.3668  1.7605  0.1983
  137MOL0     H18438   7.320   2.431  10.593  0.1641 -0.7023  1.2169
  137MOL0     H18439   7.380   2.533  10.470  0.8562 -0.4215  0.6311
  137MOL0     H18440   7.521   2.675  10.615  0.3199 -0.0040  0.5948
  137MOL0     H18441   7.499   2.545  10.740  1.6327  2.6473  0.7189
  137MOL0     H18442   7.587   2.511  10.451  1.2580  1.5824  0.3469
  137MOL0     H18443   7.561   2.384  10.568  0.6494 -0.9855 -1.1566
  137MOL0     H18444   7.761   2.606  10.604  2.0818 -0.8892  1.3332
  137MOL0     H18445   7.752   2.461  10.695 -1.1696 -0.4388  0.1874
  137MOL0     H18446   7.746   2.457  10.299  2.7506  0.3636 -1.2315
  137MOL0     H18447   7.881   2.216  10.178 -1.3074  1.5797  0.2942
  137MOL0     H18448   7.941   2.376  10.129 -0.6801 -0.0757 -1.5350
  137MOL0     H18449   8.174   2.325  10.224  2.5600 -1.4873 -0.6084
  137MOL0     H18450   8.122   2.162  10.256  0.9317  0.1799 -0.4233
  137MOL0     H18451   8.113   2.309   9.981  1.3185  1.4397  0.9508
  137MOL0     H18452   8.098   2.132   9.996 -0.3454 -1.0937  2.4919
  137MOL0     H18453   8.332   2.112  10.068 -3.6406 -2.3828 -1.5415
  137MOL0     H18454   8.357   2.285  10.069  0.8006  0.6332 -1.9563
  137MOL0     H18455   8.396   2.332   9.670  0.2178 -2.7928 -2.6970
  137MOL0     H18456   8.624   2.376   9.605 -0.7512  1.6273  0.1779
  137MOL0     H18457   9.086   2.533   9.699 -2.0892 -1.4018 -0.3668
  137MOL0     H18458   9.354   2.525   9.690  2.4151 -0.0880  2.1669
  137MOL0     H18459   9.549   2.349   9.640 -1.2723  0.6065  1.4217
  137MOL0     H18460   9.575   2.509   9.724 -0.1460  0.4110 -0.2864
  137MOL0     H18461   9.736   2.417   9.875 -1.3609 -0.4933  0.6135
  137MOL0     H18462   9.720   2.253   9.814 -1.5933  0.2192  1.3532
  137MOL0     H18463   9.806   2.335   9.582  1.5173  1.0646 -1.2279
  137MOL0     H18464   9.812   2.496   9.652  0.1047 -1.0352  1.8818
  137MOL0     H18465   9.982   2.254   9.748  3.8350 -0.3549 -1.4990
  137MOL0     H18466   9.987   2.421   9.825  0.1541  1.1437 -1.7325
  137MOL0     H18467  10.051   2.509   9.590 -0.1242 -0.9000 -0.9050
  137MOL0     H18468  10.053   2.346   9.535 -0.4784 -1.0696 -0.5285
  137MOL0     H18469  10.230   2.457   9.754 -0.8049  0.9468 -0.2812
  137MOL0     H18470  10.237   2.292   9.696 -1.4625 -0.4167  1.1602
  137MOL0     H18471  10.295   2.553   9.541  0.8157  0.4951 -0.5714
  137MOL0     H18472  10.303   2.395   9.466 -1.5653  1.8358 -1.4971
  137MOL0     H18473  10.451   2.538   9.685 -4.0303 -1.6272  2.0180
  137MOL0     H18474  10.465   2.365   9.699 -1.9241 -0.2649  0.2817
  137MOL0     H18475   9.347   2.231   9.985  0.6989 -0.9279 -0.9461
  137MOL0     H18476   9.100   2.220   9.979 -0.1488  2.2940  0.9370
  137MOL0     H18477   8.768   2.220   9.969 -0.2074 -0.6961  1.0286
  137MOL0     H18478   8.542   2.139  10.026 -0.4528  3.1333  1.9446
  137MOL0     H18479   6.550   2.793  10.543  0.2384 -0.8171  0.1069
  137MOL0     H18480   6.319   2.723  10.521 -1.2033 -0.9234 -0.0199
  137MOL0     H18481   6.009   2.443  10.489 -1.3891 -0.4705 -0.7800
  137MOL0     H18482   5.772   2.422  10.452 -1.9847 -2.0699  0.1040
  137MOL0     H18483   5.397   2.332  10.696  0.0199 -1.8567  1.0689
  137MOL0     H18484   5.527   2.318  10.803  0.2166 -0.6227  0.5057
  137MOL0     H18485   5.389   2.099  10.741 -0.6388 -1.1948 -1.5973
  137MOL0     H18486   5.563   2.083  10.735  1.8799  2.6106 -0.3233
  137MOL0     H18487   5.533   2.105  10.490  0.2763 -1.5255 -0.3353
  137MOL0     H18488   5.350   2.119  10.513  0.2628  1.2328 -0.9906
  137MOL0     H18489   5.506   1.883  10.614 -2.7842 -1.5689  2.0892
  137MOL0     H18490   5.333   1.901  10.608 -0.2271 -0.6251 -0.3935
  137MOL0     H18491   5.385   1.790  10.217  0.0007  0.3507 -0.6516
  137MOL0     H18492   5.714   2.275  10.844 -1.2809 -2.6659 -1.2922
  137MOL0     H18493   6.054   2.181  10.898  1.5169  0.1929  2.2823
  137MOL0     H18494   6.028   2.340  10.973 -0.1117 -0.2997  0.0531
  137MOL0     H18495   5.904   2.208  10.983  0.1230 -0.7149 -1.0916
  138MOL0     O18496   7.327   2.558   5.869  0.2061 -0.0101  0.0689
  138MOL0     C18497   7.279   2.452   5.865  0.0555  0.3341 -0.0125
  138MOL0     O18498   7.341   2.334   5.859 -0.2951 -0.2541  0.2356
  138MOL0     C18499   7.478   2.316   5.860 -0.3729  0.2979 -0.9813
  138MOL0     C18500   7.539   2.264   5.751 -0.2008  1.3214 -0.3623
  138MOL0     C18501   7.667   2.229   5.744 -0.5331  0.6685 -0.3025
  138MOL0     C18502   7.744   2.229   5.859  0.1558  0.2734  0.1268
  138MOL0     O18503   7.874   2.186   5.852 -0.1648  0.6390  0.8323
  138MOL0     C18504   7.963   2.187   5.962  0.3112 -0.1323  0.1866
  138MOL0     C18505   8.099   2.133   5.921 -0.6631 -0.1461  0.6598
  138MOL0     C18506   8.119   1.981   5.952 -0.6280 -0.1884  0.3332
  138MOL0     C18507   8.246   1.913   5.903 -0.1617 -1.0381  0.2309
  138MOL0     C18508   8.240   1.761   5.931 -0.5566 -0.1238  0.0557
  138MOL0     C18509   8.345   1.694   5.842 -0.5814 -0.6809  0.3876
  138MOL0     C18510   8.335   1.535   5.871  0.3616  0.0031  0.3925
  138MOL0     C18511   8.401   1.491   6.000 -0.3042 -0.2269 -0.3329
  138MOL0     N18512   8.540   1.540   6.017  0.2295  0.0580  0.1813
  138MOL0     C18513   8.656   1.473   5.990  0.4875  0.1731 -0.5306
  138MOL0     C18514   8.759   1.555   6.024 -0.0902 -0.3742  0.2726
  138MOL0     C18515   8.906   1.524   6.009 -0.3828 -1.1016 -0.9571
  138MOL0     C18516   8.993   1.618   6.100 -0.5479  0.6333  0.1440
  138MOL0     C18517   9.150   1.590   6.108  0.4403 -0.5818 -0.4612
  138MOL0     C18518   9.191   1.447   6.134  0.9748  0.1634  0.2564
  138MOL0     O18519   9.332   1.465   6.132 -0.6963 -0.1690  0.1038
  138MOL0     C18520   9.415   1.357   6.169 -0.1228  0.0989 -1.0529
  138MOL0     C18521   9.370   1.230   6.202 -0.0960  0.6101 -0.1647
  138MOL0     C18522   9.463   1.126   6.240  0.1972  0.2247 -0.6629
  138MOL0     C18523   9.605   1.148   6.250  0.1852  0.0694  0.0733
  138MOL0     C18524   9.706   1.044   6.280 -0.9676  0.1662  0.7078
  138MOL0     O18525   9.840   1.074   6.259  0.2171 -0.8212 -0.1529
  138MOL0     C18526   9.923   0.990   6.329 -0.6493 -0.6137 -0.3262
  138MOL0     C18527   9.943   0.860   6.305 -0.4160  1.0100 -0.0751
  138MOL0     C18528  10.028   0.777   6.380  0.0539  0.3870  0.3354
  138MOL0     C18529  10.094   0.828   6.489 -0.2396 -0.1447 -0.2916
  138MOL0     O18530  10.162   0.741   6.567 -0.3005  0.2604 -0.4475
  138MOL0     C18531  10.268   0.796   6.654  0.3587 -0.5662 -0.7071
  138MOL0     C18532  10.400   0.710   6.646  0.0503  0.3739  0.8218
  138MOL0     C18533  10.457   0.715   6.496 -0.1282 -0.2473  0.8251
  138MOL0     C18534  10.487   0.857   6.444  0.1462  0.5195  0.2464
  138MOL0     C18535  10.568   0.856   6.320  0.3024 -0.4327 -0.3654
  138MOL0     C18536  10.500   0.805   6.198  0.5200  0.7580 -1.0491
  138MOL0     C18537  10.574   0.840   6.067  0.0171  0.2111 -0.2038
  138MOL0     C18538  10.495   0.793   5.954 -1.9357  0.5641 -0.4199
  138MOL0    Cl18539  10.360   0.895   5.913 -0.5588 -0.1287 -0.1319
  138MOL0     C18540  10.082   0.969   6.513 -1.0514  0.4205  0.1909
  138MOL0     C18541  10.004   1.045   6.428  0.0758  0.7487 -0.7134
  138MOL0     O18542   9.667   0.944   6.338  0.0802  0.0801 -0.2121
  138MOL0     C18543   9.644   1.281   6.217 -0.5062  0.3869 -0.8739
  138MOL0     C18544   9.555   1.379   6.178 -0.0760  0.0093  0.1181
  138MOL0     N18545   8.701   1.674   6.072 -0.3037  0.6848 -0.3429
  138MOL0     N18546   8.578   1.670   6.067  0.2473 -0.0076 -0.8663
  138MOL0     C18547   7.689   2.282   5.978 -0.1008 -0.2422 -0.8591
  138MOL0     C18548   7.558   2.333   5.977 -0.0743 -0.1837 -0.8364
  138MOL0     C18549   7.127   2.452   5.871 -0.1208  0.2953 -0.2601
  138MOL0     C18550   7.070   2.343   5.798  0.4493 -0.2532 -0.6045
  138MOL0     C18551   6.933   2.334   5.786  0.3404 -0.1065  0.3581
  138MOL0     C18552   6.846   2.441   5.831 -0.1501  0.7740 -0.4814
  138MOL0     O18553   6.710   2.412   5.824 -1.0845  1.1245  0.7192
  138MOL0     C18554   6.617   2.516   5.840 -0.2243 -0.1788  0.2960
  138MOL0     C18555   6.484   2.503   5.772 -0.0463 -0.1977  0.3747
  138MOL0     C18556   6.412   2.376   5.819 -0.7050 -0.3976 -1.4565
  138MOL0     C18557   6.272   2.364   5.771  0.1361 -0.6483 -1.2088
  138MOL0     C18558   6.174   2.449   5.843  0.6143  0.1171 -0.9219
  138MOL0     C18559   6.072   2.503   5.891  0.1628 -0.1704  0.2888
  138MOL0     C18560   6.903   2.546   5.906 -0.3102  0.4477 -1.0875
  138MOL0     C18561   7.045   2.551   5.924  0.0890 -0.4536 -0.7952
  138MOL0     C18562   7.084   2.665   6.010 -0.1854 -0.4098 -0.4658
  138MOL0     H18563   7.482   2.250   5.659  0.9380  0.2828 -0.9472
  138MOL0     H18564   7.719   2.176   5.665  0.4674 -0.4060  1.0476
  138MOL0     H18565   7.981   2.288   6.001 -1.9100  0.4171 -0.0315
  138MOL0     H18566   7.917   2.123   6.038  0.9996 -3.4246 -1.9736
  138MOL0     H18567   8.168   2.193   5.981 -1.7720  0.8277  0.9854
  138MOL0     H18568   8.118   2.149   5.814  1.7033 -1.7786  0.7486
  138MOL0     H18569   8.027   1.940   5.909  0.0139 -0.9100 -0.3959
  138MOL0     H18570   8.118   1.964   6.060 -1.9484 -0.3540  0.3106
  138MOL0     H18571   8.259   1.940   5.798  1.1762  2.9442  1.2665
  138MOL0     H18572   8.330   1.955   5.959 -0.3900  0.8716 -0.7708
  138MOL0     H18573   8.261   1.733   6.035  0.3371  2.7672  0.7297
  138MOL0     H18574   8.141   1.725   5.898  0.4180 -3.7372  0.6359
  138MOL0     H18575   8.321   1.704   5.736 -1.6127  1.2549  0.7651
  138MOL0     H18576   8.443   1.743   5.851 -0.8265  0.4896 -2.4403
  138MOL0     H18577   8.370   1.480   5.783 -0.7602  1.7672 -1.2364
  138MOL0     H18578   8.227   1.520   5.879 -0.0333  1.6663 -1.0093
  138MOL0     H18579   8.338   1.542   6.073  0.0841  0.3704 -0.4128
  138MOL0     H18580   8.400   1.382   6.010 -3.0048 -0.1773  0.7573
  138MOL0     H18581   8.654   1.371   5.953 -3.3839 -0.3671  0.6984
  138MOL0     H18582   8.934   1.422   6.039 -0.1011 -1.0120 -0.9119
  138MOL0     H18583   8.943   1.540   5.908  2.3872 -0.7593  0.0202
  138MOL0     H18584   8.960   1.721   6.082 -2.0620  0.1576  0.0548
  138MOL0     H18585   8.957   1.604   6.203  0.5488  0.3896  0.5124
  138MOL0     H18586   9.194   1.644   6.193  2.7323  0.2937 -2.0882
  138MOL0     H18587   9.203   1.628   6.020  2.4271 -0.0868  0.8553
  138MOL0     H18588   9.161   1.388   6.048 -0.8594 -2.5672  2.5903
  138MOL0     H18589   9.146   1.405   6.224  0.6618  0.9656  0.4912
  138MOL0     H18590   9.265   1.204   6.198 -0.6223  2.3365  1.0217
  138MOL0     H18591   9.430   1.026   6.263  0.0506  0.4934  0.3008
  138MOL0     H18592   9.882   0.813   6.228 -1.5395  0.3580  1.1612
  138MOL0     H18593  10.033   0.674   6.346  1.8571  1.2504 -2.2882
  138MOL0     H18594  10.300   0.900   6.644  1.5272 -0.8517 -0.0832
  138MOL0     H18595  10.233   0.785   6.757  0.7227  1.5188 -0.3139
  138MOL0     H18596  10.474   0.745   6.718 -0.7786 -0.6552  2.2199
  138MOL0     H18597  10.371   0.607   6.670 -0.0655  0.4108  0.8414
  138MOL0     H18598  10.536   0.641   6.479  1.9050  2.3133 -2.1652
  138MOL0     H18599  10.374   0.679   6.434  1.5387 -2.9030 -0.0431
  138MOL0     H18600  10.551   0.915   6.511  1.3532 -1.3915  0.8630
  138MOL0     H18601  10.389   0.905   6.442 -1.2177 -2.0962 -0.5927
  138MOL0     H18602  10.659   0.799   6.342 -1.8887 -3.3651  1.8211
  138MOL0     H18603  10.596   0.960   6.296  3.6097 -1.2728 -0.7045
  138MOL0     H18604  10.488   0.698   6.216 -1.0252  1.3140  1.9400
  138MOL0     H18605  10.397   0.842   6.189  0.3604  0.2945 -1.1630
  138MOL0     H18606  10.674   0.795   6.060  0.1384  0.1620  1.5168
  138MOL0     H18607  10.588   0.947   6.055  1.3223 -0.2283 -4.4243
  138MOL0     H18608  10.562   0.784   5.868 -0.5006 -2.0398  0.8402
  138MOL0     H18609  10.462   0.691   5.976 -1.7385  0.6725  0.4164
  138MOL0     H18610  10.141   1.020   6.589  0.1039  0.5740 -0.7759
  138MOL0     H18611   9.980   1.150   6.443 -0.0078  1.0610 -2.6755
  138MOL0     H18612   9.749   1.304   6.207 -1.0114  3.4463 -0.0841
  138MOL0     H18613   9.598   1.474   6.147 -0.2155 -0.3863 -1.3639
  138MOL0     H18614   7.752   2.293   6.066 -1.5672 -0.3940  0.2512
  138MOL0     H18615   7.513   2.374   6.068  0.1962  0.2130 -0.8804
  138MOL0     H18616   7.134   2.271   5.746  3.9735  1.7051  0.6563
  138MOL0     H18617   6.901   2.247   5.729  2.8054 -0.8755  0.0399
  138MOL0     H18618   6.661   2.615   5.824 -1.4364  0.6663  1.8077
  138MOL0     H18619   6.591   2.524   5.946  0.0448  1.0352  0.2879
  138MOL0     H18620   6.510   2.494   5.666 -1.2944  1.9943 -0.1714
  138MOL0     H18621   6.422   2.591   5.786  0.2248  0.0235  0.2091
  138MOL0     H18622   6.411   2.383   5.928 -2.4886  0.0491 -1.4633
  138MOL0     H18623   6.456   2.285   5.777 -2.0784 -1.5515 -0.5183
  138MOL0     H18624   6.259   2.408   5.671 -3.2531 -0.2658 -0.7078
  138MOL0     H18625   6.231   2.263   5.767  2.2278 -1.4950 -4.3490
  138MOL0     H18626   5.992   2.555   5.940 -1.6104 -1.0658 -1.5059
  138MOL0     H18627   6.844   2.628   5.946 -1.3299  0.3514 -2.3211
  138MOL0     H18628   7.060   2.654   6.116  1.7690 -0.1420  0.0436
  138MOL0     H18629   7.190   2.689   6.011 -0.1986 -0.3560 -0.3653
  138MOL0     H18630   7.023   2.753   5.983  0.5079  1.0332  2.3050
  139MOL0     O18631  10.707   8.301   8.887 -0.1444 -0.3394  0.2775
  139MOL0     C18632  10.706   8.225   8.985 -0.6579 -0.6117  0.0325
  139MOL0     O18633  10.822   8.175   9.044  0.3747 -0.1504  0.0248
  139MOL0     C18634  10.937   8.169   8.973 -0.6540 -0.1954  0.9814
  139MOL0     C18635  11.046   8.258   9.002 -0.1419 -0.2138 -0.4002
  139MOL0     C18636  11.172   8.256   8.935  0.5180 -0.0394  0.1565
  139MOL0     C18637  11.199   8.144   8.856  0.7712 -0.5300  0.4559
  139MOL0     O18638  11.322   8.120   8.803 -0.6572  0.3223  0.4452
  139MOL0     C18639  11.438   8.163   8.872 -0.6322 -0.0740 -0.6194
  139MOL0     C18640  11.567   8.101   8.817  0.4183  0.3164  0.1904
  139MOL0     C18641  11.686   8.173   8.885  0.6049  0.0541 -0.0943
  139MOL0     C18642  11.812   8.107   8.843  1.3135  0.6711 -0.9204
  139MOL0     C18643  11.933   8.134   8.927 -0.2717 -0.7893  0.2817
  139MOL0     C18644  11.995   8.266   8.886  0.0442 -0.4692 -0.3359
  139MOL0     C18645  12.125   8.306   8.961  0.1145  0.7134  0.3217
  139MOL0     C18646  12.244   8.206   8.951 -0.0565  0.2052 -0.1189
  139MOL0     N18647  12.367   8.282   8.917  0.5283 -0.0722 -0.7180
  139MOL0     C18648  12.411   8.308   8.793 -0.0647 -0.3674  0.1457
  139MOL0     C18649  12.527   8.380   8.813  0.4575 -0.1084  0.3312
  139MOL0     C18650  12.641   8.396   8.707 -0.1210  0.1280 -0.2367
  139MOL0     C18651  12.674   8.535   8.662  0.0741 -0.4338  0.9412
  139MOL0     C18652  12.821   8.552   8.615 -0.3156 -0.5040 -0.3051
  139MOL0     C18653  12.857   8.457   8.505  0.3400  0.3876  0.0913
  139MOL0     O18654  12.879   8.320   8.544 -0.0257  0.4042 -0.2766
  139MOL0     C18655  12.979   8.292   8.628  0.0014  0.0135  0.0846
  139MOL0     C18656  12.979   8.168   8.677 -0.6020 -0.1877  0.9868
  139MOL0     C18657  13.078   8.123   8.770  0.8058 -0.6621 -1.0614
  139MOL0     C18658  13.171   8.214   8.819 -0.1328  0.2013  0.5652
  139MOL0     C18659  13.270   8.172   8.920 -0.1580  0.0241 -0.7459
  139MOL0     O18660  13.376   8.259   8.934 -0.6748 -0.3965  0.4467
  139MOL0     C18661  13.490   8.238   9.006  0.1644  0.1785 -0.8625
  139MOL0     C18662  13.552   8.109   8.994  0.3453 -0.5216 -0.1535
  139MOL0     C18663  13.681   8.091   9.039 -0.5073  0.0388 -0.4191
  139MOL0     C18664  13.758   8.196   9.100  0.0480  0.7115 -0.7929
  139MOL0     O18665  13.889   8.174   9.146 -0.3506  0.2535  0.0462
  139MOL0     C18666  13.883   8.177   9.296 -1.1448 -0.0790 -0.1110
  139MOL0     C18667  14.023   8.132   9.334  0.3483  0.3946 -0.3751
  139MOL0     C18668  14.009   8.089   9.485  0.2749 -0.0991 -0.5054
  139MOL0     C18669  14.132   8.020   9.533 -0.6033 -0.7143  0.0876
  139MOL0     C18670  14.148   8.019   9.687  0.1708  0.0724  0.3872
  139MOL0     C18671  14.273   7.953   9.742  0.0781 -0.9630  0.4293
  139MOL0     C18672  14.275   7.953   9.895 -0.4080 -0.3772  0.2225
  139MOL0     C18673  14.425   7.935   9.946  0.1123 -0.1417  1.3685
  139MOL0    Cl18674  14.473   7.765   9.913 -0.2836  0.1125 -0.1310
  139MOL0     C18675  13.689   8.321   9.114 -0.1866  0.0966  0.1118
  139MOL0     C18676  13.561   8.346   9.061  0.1971 -0.3613 -0.6131
  139MOL0     O18677  13.262   8.060   8.978  0.3235  0.6040  1.2379
  139MOL0     C18678  13.178   8.341   8.754  0.1942 -0.0470  0.0151
  139MOL0     C18679  13.084   8.382   8.666  0.3651 -0.3652  0.4366
  139MOL0     N18680  12.543   8.392   8.953  0.1725  0.5562 -0.3034
  139MOL0     N18681  12.451   8.330   9.012 -0.1775 -0.6072 -0.0836
  139MOL0     C18682  11.093   8.053   8.830  0.6554 -0.7840  0.1882
  139MOL0     C18683  10.964   8.069   8.882 -0.4695 -0.3486  0.6624
  139MOL0     C18684  10.577   8.185   9.039 -0.0072  0.4536 -1.0245
  139MOL0     C18685  10.474   8.284   9.045 -0.7076 -0.4238 -0.6871
  139MOL0     C18686  10.349   8.244   9.090  0.3060  0.3943 -0.2359
  139MOL0     C18687  10.322   8.121   9.145 -0.9590  0.2384  0.1022
  139MOL0     O18688  10.191   8.095   9.175 -0.2445  0.2954  0.3905
  139MOL0     C18689  10.148   7.960   9.168  0.8500  0.0334  0.0805
  139MOL0     C18690   9.995   7.946   9.138  0.3743 -0.1029 -0.0639
  139MOL0     C18691   9.907   8.001   9.252  0.9086  0.2831  0.0608
  139MOL0     C18692   9.757   8.025   9.194 -0.5143 -0.1607 -0.1543
  139MOL0     C18693   9.671   8.113   9.271  0.5932 -0.3060  1.0423
  139MOL0     C18694   9.582   8.180   9.321  0.2775  0.1517 -0.0438
  139MOL0     C18695  10.427   8.027   9.145  0.1258 -0.0386 -0.1755
  139MOL0     C18696  10.552   8.060   9.099 -0.3724  0.0403  0.0343
  139MOL0     C18697  10.660   7.953   9.125  0.7688 -1.4541  0.4544
  139MOL0     H18698  11.019   8.331   9.078 -0.0223  1.2362 -1.7053
  139MOL0     H18699  11.251   8.322   8.968  1.2164 -0.2515 -1.0168
  139MOL0     H18700  11.436   8.272   8.867 -2.7538 -0.1264 -1.9391
  139MOL0     H18701  11.434   8.132   8.977  0.9594  0.6504 -0.3105
  139MOL0     H18702  11.574   8.110   8.708  0.6754 -1.0638  0.0761
  139MOL0     H18703  11.575   7.994   8.836  0.8748  0.3146 -0.0033
  139MOL0     H18704  11.667   8.172   8.993 -0.8388  0.8837 -0.3130
  139MOL0     H18705  11.693   8.278   8.855 -1.4744  0.5510  0.9795
  139MOL0     H18706  11.807   7.998   8.847 -1.0086  0.7474  2.5433
  139MOL0     H18707  11.834   8.136   8.740 -1.2447 -1.7668 -2.2915
  139MOL0     H18708  11.914   8.134   9.034  1.4432  1.4422  0.6791
  139MOL0     H18709  12.011   8.058   8.917 -0.0548 -0.3734 -1.7050
  139MOL0     H18710  12.028   8.262   8.782  0.1661  0.0323 -0.3187
  139MOL0     H18711  11.932   8.354   8.902  2.0353  0.6342  2.2360
  139MOL0     H18712  12.107   8.337   9.065 -2.6856 -1.7253  0.7017
  139MOL0     H18713  12.154   8.401   8.914  0.4943  0.5093  0.1409
  139MOL0     H18714  12.255   8.148   9.044  1.7058 -0.6815 -0.8240
  139MOL0     H18715  12.219   8.127   8.879 -0.0082 -3.1535  3.2108
  139MOL0     H18716  12.383   8.252   8.704  2.4058 -2.7169  0.7123
  139MOL0     H18717  12.731   8.348   8.745  0.0538 -0.3594 -1.2341
  139MOL0     H18718  12.617   8.332   8.622 -0.0250  0.4534 -0.5126
  139MOL0     H18719  12.605   8.561   8.580  0.1571 -1.1942  0.6213
  139MOL0     H18720  12.657   8.612   8.738 -0.0059  0.0155  0.4779
  139MOL0     H18721  12.887   8.555   8.702 -1.3409  1.2621  0.4650
  139MOL0     H18722  12.822   8.653   8.573 -3.2872 -0.0281  0.5516
  139MOL0     H18723  12.943   8.505   8.457  0.8559  0.3140  0.9291
  139MOL0     H18724  12.766   8.457   8.443 -0.5286  2.4406  1.2786
  139MOL0     H18725  12.905   8.097   8.640  0.9165 -1.2009 -0.2118
  139MOL0     H18726  13.076   8.019   8.799 -1.0750 -0.0763  1.1485
  139MOL0     H18727  13.506   8.027   8.941  3.2278 -2.5652  0.2494
  139MOL0     H18728  13.730   7.995   9.029 -2.9486 -1.4579  0.9068
  139MOL0     H18729  13.876   8.280   9.331 -0.9267  0.1618 -0.7571
  139MOL0     H18730  13.795   8.123   9.332 -2.5276  1.1973 -1.4146
  139MOL0     H18731  14.058   8.041   9.286  0.9928 -1.8479  3.8331
  139MOL0     H18732  14.095   8.214   9.333 -0.4433  1.2681  2.5771
  139MOL0     H18733  14.002   8.181   9.544 -0.5616  0.2571 -1.1250
  139MOL0     H18734  13.917   8.036   9.510 -1.8660  3.1629 -0.8056
  139MOL0     H18735  14.215   8.082   9.499  0.9447 -1.4453  2.2670
  139MOL0     H18736  14.118   7.919   9.495 -2.0371 -0.4615 -0.1128
  139MOL0     H18737  14.058   7.973   9.729  0.5442 -1.5652 -0.5472
  139MOL0     H18738  14.150   8.126   9.711 -0.8193  0.2847 -0.4056
  139MOL0     H18739  14.282   7.854   9.697 -2.6708 -0.9514 -0.3111
  139MOL0     H18740  14.358   8.014   9.708 -0.0259 -0.7479  0.5500
  139MOL0     H18741  14.214   7.879   9.947 -0.0332  0.1103  1.3945
  139MOL0     H18742  14.247   8.050   9.938 -1.0575 -2.2863  4.6126
  139MOL0     H18743  14.483   8.005   9.885 -2.7557 -0.7068 -2.3594
  139MOL0     H18744  14.436   7.953  10.053  1.5160  0.2349  1.1904
  139MOL0     H18745  13.744   8.398   9.167  0.2905 -0.6960  0.7952
  139MOL0     H18746  13.513   8.441   9.081  1.5922  0.7233 -2.1643
  139MOL0     H18747  13.269   8.400   8.766 -0.1813  0.7844 -1.0547
  139MOL0     H18748  13.081   8.480   8.620 -0.3533 -0.0632  1.1080
  139MOL0     H18749  11.108   7.965   8.769  1.0747  0.8206 -2.1554
  139MOL0     H18750  10.877   8.011   8.853  0.0222 -0.7142 -0.1312
  139MOL0     H18751  10.490   8.386   9.012 -0.1953 -0.8864 -1.9407
  139MOL0     H18752  10.264   8.311   9.081  1.0612  1.2968 -0.9095
  139MOL0     H18753  10.168   7.913   9.265 -3.3549  1.2120  1.7358
  139MOL0     H18754  10.212   7.908   9.096 -0.9018 -2.3213  0.1000
  139MOL0     H18755   9.976   7.840   9.115 -0.7041 -0.7511  3.3576
  139MOL0     H18756   9.973   7.996   9.043  0.6664  0.5597  0.2149
  139MOL0     H18757   9.948   8.096   9.289  0.1728  1.3971 -1.8316
  139MOL0     H18758   9.903   7.930   9.335 -2.3188 -0.1467 -0.3235
  139MOL0     H18759   9.764   8.067   9.093 -1.7167 -2.2641 -1.1936
  139MOL0     H18760   9.717   7.923   9.195  1.4238 -0.9570  1.2373
  139MOL0     H18761   9.503   8.236   9.366 -2.0415 -3.0998  0.2745
  139MOL0     H18762  10.404   7.930   9.189  1.1760 -0.3229 -0.2286
  139MOL0     H18763  10.615   7.857   9.152  1.0623 -2.0752 -1.1372
  139MOL0     H18764  10.713   7.929   9.032 -0.5292 -1.6385 -0.2687
  139MOL0     H18765  10.738   7.983   9.195 -0.1353  0.7399  0.5846
  140MOL0     O18766   0.606   4.558   0.906  0.5101 -0.5615 -0.8606
  140MOL0     C18767   0.650   4.453   0.946  0.0165  0.1619  0.1859
  140MOL0     O18768   0.761   4.441   1.034  0.1886 -0.0846 -0.2925
  140MOL0     C18769   0.839   4.548   1.069  0.0045  0.4057 -0.1075
  140MOL0     C18770   0.901   4.539   1.191  0.5651 -0.5708  0.3762
  140MOL0     C18771   1.001   4.628   1.241 -0.5116 -0.1108  0.4381
  140MOL0     C18772   1.052   4.727   1.155 -0.3467 -0.3051 -0.6512
  140MOL0     O18773   1.131   4.824   1.212  0.5460  0.6689 -0.3582
  140MOL0     C18774   1.173   4.935   1.134  0.0341 -0.1002  0.1886
  140MOL0     C18775   1.259   5.036   1.218  0.3647 -0.1085  0.2492
  140MOL0     C18776   1.390   4.990   1.260  1.1876 -0.8845  0.0784
  140MOL0     C18777   1.488   5.102   1.291  0.8553  0.0819  0.1052
  140MOL0     C18778   1.624   5.059   1.336 -0.0907  0.6662  0.0325
  140MOL0     C18779   1.707   5.178   1.371  0.3976 -0.1556 -0.6225
  140MOL0     C18780   1.856   5.164   1.340 -0.1036  0.6066  0.2780
  140MOL0     C18781   1.942   5.129   1.461 -0.5681  0.2887 -0.3272
  140MOL0     N18782   2.084   5.148   1.420  0.4863  0.2556 -1.0313
  140MOL0     C18783   2.164   5.252   1.458  0.0729 -0.4129  0.1052
  140MOL0     C18784   2.285   5.227   1.405 -0.4528  0.0918  0.4186
  140MOL0     C18785   2.405   5.309   1.418  0.3915 -0.6135 -0.3562
  140MOL0     C18786   2.459   5.320   1.560 -0.8457  0.1359  0.7758
  140MOL0     C18787   2.551   5.436   1.584  1.0906  0.1263  0.3122
  140MOL0     C18788   2.693   5.410   1.525 -0.1058 -0.3087  0.3845
  140MOL0     O18789   2.779   5.522   1.542 -0.1667 -0.1317  0.2134
  140MOL0     C18790   2.914   5.504   1.522  0.4057  0.6887  0.1515
  140MOL0     C18791   2.966   5.391   1.449  0.3553  0.3838 -0.4634
  140MOL0     C18792   3.103   5.386   1.435 -0.0766  0.0587 -0.0883
  140MOL0     C18793   3.195   5.486   1.486  0.1711  0.2110 -0.7908
  140MOL0     C18794   3.343   5.482   1.461  0.3878  0.0333  0.2336
  140MOL0     O18795   3.425   5.578   1.518  0.4181 -0.4332  0.3414
  140MOL0     C18796   3.559   5.579   1.499  0.2735 -0.3795 -0.4068
  140MOL0     C18797   3.645   5.471   1.466  0.2650  0.0324 -0.5208
  140MOL0     C18798   3.778   5.495   1.443  0.3511  0.4626  0.4059
  140MOL0     C18799   3.830   5.619   1.464  0.6051 -0.2063  0.0104
  140MOL0     O18800   3.968   5.634   1.456  0.4715  0.0720  0.4191
  140MOL0     C18801   4.026   5.758   1.411  0.0238  0.0538  0.0972
  140MOL0     C18802   4.139   5.735   1.307  0.1960  0.1248 -0.0696
  140MOL0     C18803   4.076   5.702   1.165 -0.3598  0.3989  0.0034
  140MOL0     C18804   4.184   5.661   1.059  0.3241 -0.4081  0.3154
  140MOL0     C18805   4.124   5.604   0.928  0.4453 -0.9606 -0.4802
  140MOL0     C18806   4.039   5.481   0.957 -0.1289  0.3344  0.4830
  140MOL0     C18807   3.995   5.418   0.829  0.4108 -0.2071 -0.4583
  140MOL0     C18808   3.910   5.305   0.860 -0.2477 -0.2994 -0.4575
  140MOL0    Cl18809   3.831   5.279   0.701 -0.2323  0.1725 -0.1799
  140MOL0     C18810   3.752   5.725   1.502  0.6365  0.2093  0.4377
  140MOL0     C18811   3.616   5.708   1.513 -0.1646 -0.0316  0.0437
  140MOL0     O18812   3.375   5.397   1.377 -0.3713  0.5295 -0.7956
  140MOL0     C18813   3.142   5.594   1.558  0.4107  0.3868 -0.5959
  140MOL0     C18814   3.003   5.598   1.579  0.4320 -0.0547  1.8419
  140MOL0     N18815   2.274   5.111   1.329 -0.9583  0.1803  0.0914
  140MOL0     N18816   2.156   5.070   1.336  0.0661  0.1382  0.3601
  140MOL0     C18817   0.996   4.733   1.025 -0.3412 -0.0486 -0.6019
  140MOL0     C18818   0.890   4.642   0.981 -0.3805  0.0007  0.6358
  140MOL0     C18819   0.557   4.339   0.934 -0.0021  0.5995 -0.4331
  140MOL0     C18820   0.583   4.221   1.024  0.4292 -0.0956 -0.3505
  140MOL0     C18821   0.512   4.101   1.006 -0.7010  0.0570 -0.2191
  140MOL0     C18822   0.418   4.093   0.904 -0.6325  0.0216 -0.2561
  140MOL0     O18823   0.364   3.969   0.879  0.5462 -0.4883  0.0656
  140MOL0     C18824   0.238   3.970   0.803  0.6379  0.8441 -0.6318
  140MOL0     C18825   0.167   3.827   0.820 -0.7051 -0.2333 -0.1426
  140MOL0     C18826   0.096   3.810   0.948 -0.4764  0.1132  0.2651
  140MOL0     C18827   0.073   3.660   0.978  0.3031  0.1100  0.1108
  140MOL0     C18828  -0.040   3.608   0.901  0.0094  0.2079  0.6361
  140MOL0     C18829  -0.140   3.561   0.837 -0.8921  0.4278  0.3059
  140MOL0     C18830   0.387   4.216   0.832 -0.0971  0.5832  0.4335
  140MOL0     C18831   0.439   4.342   0.853 -0.0204 -0.6351  0.3144
  140MOL0     C18832   0.384   4.459   0.776  0.4394  0.0881 -0.5839
  140MOL0     H18833   0.859   4.463   1.256  1.1774 -0.1492  1.2888
  140MOL0     H18834   1.046   4.611   1.338  3.2070  0.2016 -1.0702
  140MOL0     H18835   1.234   4.909   1.047  0.3378  0.2354  0.2978
  140MOL0     H18836   1.082   4.991   1.111  1.2519  4.2182  4.2643
  140MOL0     H18837   1.191   5.079   1.292 -0.9775  1.6968 -1.8593
  140MOL0     H18838   1.259   5.129   1.160 -1.8137  0.2725  0.7793
  140MOL0     H18839   1.427   4.934   1.173  0.9644  1.6619 -1.7475
  140MOL0     H18840   1.373   4.923   1.345  0.6294 -1.2828 -0.3393
  140MOL0     H18841   1.500   5.168   1.203  0.2644 -0.4571 -0.3853
  140MOL0     H18842   1.454   5.165   1.374  3.1749  1.1472  0.3563
  140MOL0     H18843   1.617   4.994   1.423  3.2437  0.8078  0.5298
  140MOL0     H18844   1.676   5.013   1.252  1.5886  0.2203  1.2617
  140MOL0     H18845   1.680   5.268   1.315  1.9756 -0.4942 -1.9900
  140MOL0     H18846   1.690   5.206   1.476  1.3063 -2.5830  0.2279
  140MOL0     H18847   1.891   5.263   1.309 -2.4812  1.3942 -0.1697
  140MOL0     H18848   1.870   5.094   1.258  0.5610 -0.5795  1.3710
  140MOL0     H18849   1.926   5.200   1.543  2.5403  1.5859 -0.6956
  140MOL0     H18850   1.933   5.024   1.492  3.5718  0.0786  0.7489
  140MOL0     H18851   2.135   5.341   1.512 -0.3882 -3.1140  4.8415
  140MOL0     H18852   2.480   5.271   1.349  1.2081  2.0349 -1.0499
  140MOL0     H18853   2.388   5.410   1.377 -1.5537 -0.4411  0.7144
  140MOL0     H18854   2.374   5.336   1.628 -0.3588 -0.1097  1.4574
  140MOL0     H18855   2.492   5.219   1.583 -3.2350 -0.4499  1.9503
  140MOL0     H18856   2.559   5.439   1.693 -0.2188 -3.6498  0.6450
  140MOL0     H18857   2.503   5.527   1.545 -0.6047 -1.0068 -0.3698
  140MOL0     H18858   2.685   5.393   1.417 -1.7426  0.1711  0.3916
  140MOL0     H18859   2.736   5.327   1.581  0.4707 -1.1752 -1.2720
  140MOL0     H18860   2.905   5.315   1.401  1.6681 -1.2447  0.3870
  140MOL0     H18861   3.136   5.294   1.389 -3.1946 -0.6965 -1.0802
  140MOL0     H18862   3.612   5.368   1.461 -0.0245  0.1504 -1.0127
  140MOL0     H18863   3.833   5.405   1.417  0.1954  0.2559  0.7765
  140MOL0     H18864   3.957   5.839   1.386 -0.2146 -0.1926 -0.0476
  140MOL0     H18865   4.076   5.802   1.497  2.3040 -1.1186 -0.5439
  140MOL0     H18866   4.192   5.830   1.301 -1.4615  1.0125 -3.7518
  140MOL0     H18867   4.209   5.656   1.335  0.0433  0.5101  1.4571
  140MOL0     H18868   4.003   5.622   1.183 -0.4818  0.0324 -1.9132
  140MOL0     H18869   4.028   5.787   1.117 -0.7785  0.2807  0.2033
  140MOL0     H18870   4.251   5.585   1.098 -0.1847 -2.4294 -2.4628
  140MOL0     H18871   4.244   5.750   1.037 -0.3824  0.3238  1.2773
  140MOL0     H18872   4.205   5.578   0.859 -0.8083  0.6374 -2.6933
  140MOL0     H18873   4.080   5.689   0.875  2.3305 -0.1940 -0.9191
  140MOL0     H18874   4.109   5.418   1.013 -1.1078  0.3143  1.7450
  140MOL0     H18875   3.955   5.505   1.023 -0.1708 -1.1109  0.9990
  140MOL0     H18876   4.084   5.393   0.771  3.2317 -0.8180  3.7071
  140MOL0     H18877   3.937   5.492   0.773 -0.2575 -1.8308 -2.0145
  140MOL0     H18878   3.962   5.218   0.900  0.9383 -0.8462 -2.9930
  140MOL0     H18879   3.828   5.326   0.930  0.2235  0.9352 -0.2518
  140MOL0     H18880   3.791   5.826   1.509 -1.3010  1.1007 -0.8088
  140MOL0     H18881   3.558   5.792   1.549 -3.2493 -1.8161 -0.4826
  140MOL0     H18882   3.205   5.674   1.595 -0.9804  0.8841  0.8003
  140MOL0     H18883   2.968   5.694   1.613  0.7391 -0.0566  2.1641
  140MOL0     H18884   1.013   4.815   0.955  0.6181  0.9066  0.6959
  140MOL0     H18885   0.839   4.641   0.885  1.3724 -1.5177 -0.3657
  140MOL0     H18886   0.654   4.216   1.106 -1.0732 -0.7085  0.9601
  140MOL0     H18887   0.547   4.014   1.061 -0.5371  1.9104  2.8178
  140MOL0     H18888   0.258   3.993   0.698  1.8125 -1.7924 -1.0551
  140MOL0     H18889   0.167   4.039   0.850 -1.0824 -2.3645  1.9396
  140MOL0     H18890   0.250   3.756   0.827 -0.8406 -0.8420 -3.3402
  140MOL0     H18891   0.098   3.809   0.737 -1.5473  0.8718  0.2908
  140MOL0     H18892   0.002   3.866   0.944 -0.6084 -0.1757 -0.8127
  140MOL0     H18893   0.162   3.857   1.022 -0.9322 -0.1652  0.8609
  140MOL0     H18894   0.165   3.602   0.969 -0.2668 -1.9760  4.7162
  140MOL0     H18895   0.039   3.660   1.082 -0.8478 -0.9419 -0.2362
  140MOL0     H18896  -0.223   3.516   0.787  0.0758 -0.0931 -0.8646
  140MOL0     H18897   0.321   4.206   0.746  1.7963 -0.2878 -0.9981
  140MOL0     H18898   0.455   4.468   0.693 -0.2128 -0.0012 -1.1620
  140MOL0     H18899   0.285   4.439   0.735 -0.4074  2.9904 -0.2005
  140MOL0     H18900   0.372   4.549   0.837  1.0268  0.6306 -1.2427
  141MOL0     O18901   9.637  10.735   4.985  0.3711 -0.6350 -0.6544
  141MOL0     C18902   9.729  10.701   4.909 -0.3251 -0.1427  0.3343
  141MOL0     O18903   9.848  10.762   4.893 -0.0662  0.2460  0.1453
  141MOL0     C18904   9.887  10.877   4.964 -0.5380  0.5087  0.2446
  141MOL0     C18905  10.027  10.892   4.970 -0.4020  0.0958  0.4524
  141MOL0     C18906  10.080  11.005   5.024 -0.5765 -0.4746 -0.6605
  141MOL0     C18907   9.990  11.102   5.081 -0.3266  0.3064 -0.2128
  141MOL0     O18908  10.046  11.212   5.153 -0.1243  0.2357 -0.2598
  141MOL0     C18909  10.133  11.176   5.262 -0.6665  0.5319  0.3102
  141MOL0     C18910  10.223  11.295   5.282 -0.3348  0.3724 -0.6747
  141MOL0     C18911  10.339  11.303   5.178  0.0052 -0.9559 -0.1201
  141MOL0     C18912  10.298  11.367   5.049  0.2180  0.1071 -0.6197
  141MOL0     C18913  10.421  11.425   4.976  0.0384  0.3919 -0.5037
  141MOL0     C18914  10.512  11.305   4.937  0.4645 -0.5897  0.4903
  141MOL0     C18915  10.645  11.363   4.878 -0.1456  0.8872 -0.1527
  141MOL0     C18916  10.628  11.461   4.762  0.1088  0.5166 -0.2588
  141MOL0     N18917  10.759  11.498   4.710 -0.3717  0.6037 -0.4783
  141MOL0     C18918  10.852  11.565   4.783  0.0166 -0.1065  0.2054
  141MOL0     C18919  10.964  11.572   4.710  0.1244  0.1381  0.8914
  141MOL0     C18920  11.087  11.621   4.776 -0.7718 -0.5034  0.6664
  141MOL0     C18921  11.210  11.547   4.707  0.2851  0.3120  0.1889
  141MOL0     C18922  11.331  11.564   4.804  0.4765 -0.2797  0.1302
  141MOL0     C18923  11.430  11.448   4.778  0.5357  0.4968  0.3242
  141MOL0     O18924  11.467  11.450   4.646  0.3472 -0.0235  0.0829
  141MOL0     C18925  11.555  11.365   4.596  0.5220  0.0317  0.0964
  141MOL0     C18926  11.610  11.260   4.673  0.4198 -0.8712  0.7447
  141MOL0     C18927  11.706  11.178   4.623  0.5830 -0.2451  0.8141
  141MOL0     C18928  11.756  11.195   4.496 -0.4362  0.3148  0.7397
  141MOL0     C18929  11.856  11.105   4.423  0.3066 -0.8201  0.0398
  141MOL0     O18930  11.870  11.130   4.288  0.1418  0.1664  0.0953
  141MOL0     C18931  11.963  11.059   4.210  0.0359  0.2767 -0.8497
  141MOL0     C18932  12.095  11.016   4.248  0.0235 -0.2473 -0.9843
  141MOL0     C18933  12.187  10.971   4.156  0.5482 -0.5347 -0.3978
  141MOL0     C18934  12.144  10.943   4.025  0.4446  0.6313 -0.0521
  141MOL0     O18935  12.240  10.898   3.937 -0.2065 -0.6013  0.0350
  141MOL0     C18936  12.202  10.856   3.797  0.5784 -0.2465 -0.3739
  141MOL0     C18937  12.336  10.835   3.729  0.8162 -0.5056  1.2872
  141MOL0     C18938  12.442  10.946   3.737 -0.8748 -0.0189  0.0425
  141MOL0     C18939  12.582  10.896   3.734  0.3325  0.2791  0.3538
  141MOL0     C18940  12.628  10.843   3.870 -0.2156 -0.0037 -0.6765
  141MOL0     C18941  12.774  10.796   3.869 -0.1162  0.5024 -0.0095
  141MOL0     C18942  12.810  10.737   4.005  0.4343 -0.7287 -0.4779
  141MOL0     C18943  12.957  10.718   4.031  0.3303 -0.3464 -0.7885
  141MOL0    Cl18944  13.053  10.609   3.925 -0.2538  0.0413  0.3517
  141MOL0     C18945  12.015  10.977   3.990 -0.2808  0.6708 -0.2158
  141MOL0     C18946  11.928  11.028   4.082  0.2113  0.1849 -1.1394
  141MOL0     O18947  11.924  11.028   4.488 -0.4771  0.3742  0.2518
  141MOL0     C18948  11.702  11.300   4.418 -0.3547 -0.2279  0.7149
  141MOL0     C18949  11.604  11.380   4.467 -0.4913 -0.5504  0.0876
  141MOL0     N18950  10.928  11.541   4.579  1.0503  0.1370  0.5681
  141MOL0     N18951  10.814  11.483   4.588 -0.0944 -0.2525 -0.0016
  141MOL0     C18952   9.854  11.075   5.089  1.2884 -0.3288  0.1739
  141MOL0     C18953   9.803  10.967   5.028  0.1767  0.2655  0.6342
  141MOL0     C18954   9.703  10.581   4.827 -1.0697  0.3167 -0.6210
  141MOL0     C18955   9.585  10.502   4.849 -0.5120 -0.1759  0.4278
  141MOL0     C18956   9.576  10.377   4.788 -0.2116  1.0024  0.3333
  141MOL0     C18957   9.666  10.326   4.696 -0.2454  0.0059 -0.5270
  141MOL0     O18958   9.636  10.209   4.628  0.2844 -0.1385 -0.6942
  141MOL0     C18959   9.596  10.100   4.716 -0.5009  0.5003  0.0425
  141MOL0     C18960   9.615   9.962   4.648  0.7098 -0.1668 -0.3351
  141MOL0     C18961   9.535   9.940   4.518 -0.0347  0.4868 -0.2732
  141MOL0     C18962   9.380   9.949   4.529 -0.5722 -0.2673 -0.5017
  141MOL0     C18963   9.316  10.055   4.450 -0.0763  0.2102  0.3513
  141MOL0     C18964   9.251  10.138   4.384 -0.1254  0.3662 -0.5084
  141MOL0     C18965   9.769  10.412   4.656  0.1392  0.9563  0.0956
  141MOL0     C18966   9.793  10.532   4.723  0.1159  0.1550 -0.2826
  141MOL0     C18967   9.907  10.617   4.668  0.3078 -0.0210  0.0591
  141MOL0     H18968  10.090  10.820   4.918  0.3693 -1.4408  3.3368
  141MOL0     H18969  10.186  11.027   5.021 -0.4157 -1.2464 -1.1984
  141MOL0     H18970  10.078  11.162   5.355 -0.2076 -0.1556  0.4851
  141MOL0     H18971  10.188  11.086   5.232 -2.1699 -0.1903 -0.3615
  141MOL0     H18972  10.263  11.296   5.383  1.0272  1.9983 -1.1781
  141MOL0     H18973  10.159  11.384   5.278 -0.7640  0.0565 -0.7973
  141MOL0     H18974  10.400  11.212   5.179  1.4733 -0.0238 -0.7504
  141MOL0     H18975  10.397  11.387   5.219 -1.2871  0.7267 -1.5700
  141MOL0     H18976  10.246  11.290   4.991 -0.6237  2.0273 -2.5990
  141MOL0     H18977  10.229  11.451   5.067 -0.0310 -0.1889 -0.1886
  141MOL0     H18978  10.381  11.474   4.886  2.1499  0.4464 -1.4895
  141MOL0     H18979  10.470  11.504   5.034 -1.1581 -0.2130  1.4014
  141MOL0     H18980  10.536  11.235   5.018 -2.7645 -2.9641 -0.3922
  141MOL0     H18981  10.459  11.244   4.864  0.0457 -0.7001  0.8839
  141MOL0     H18982  10.708  11.286   4.834 -0.4050  2.1115 -2.8770
  141MOL0     H18983  10.695  11.419   4.958  1.7557  1.0889 -1.4173
  141MOL0     H18984  10.572  11.410   4.683 -0.1073 -1.1217  0.8853
  141MOL0     H18985  10.561  11.544   4.788 -1.3434 -0.4545 -0.7451
  141MOL0     H18986  10.841  11.576   4.891 -0.1385 -0.0159  0.1794
  141MOL0     H18987  11.098  11.729   4.764 -3.7471 -0.3654 -2.0056
  141MOL0     H18988  11.083  11.597   4.883  0.4833 -2.6150  0.3115
  141MOL0     H18989  11.186  11.441   4.691 -2.4304  1.1368 -2.1449
  141MOL0     H18990  11.250  11.596   4.618  0.6457  0.0883  0.2258
  141MOL0     H18991  11.286  11.543   4.902 -0.4898  2.0956  0.2528
  141MOL0     H18992  11.386  11.657   4.792  1.6280 -0.6203  2.2663
  141MOL0     H18993  11.385  11.356   4.817  0.9022  1.3243  2.9240
  141MOL0     H18994  11.516  11.456   4.845  2.4525  0.4829 -2.0349
  141MOL0     H18995  11.592  11.253   4.779  0.8082  1.4296  1.0276
  141MOL0     H18996  11.755  11.112   4.694 -0.1709 -2.2728 -0.4536
  141MOL0     H18997  12.121  11.029   4.353  0.0607  0.9791 -1.1400
  141MOL0     H18998  12.290  10.947   4.179  0.4736 -2.3566 -1.7805
  141MOL0     H18999  12.146  10.763   3.798 -3.8976  2.1694 -1.0119
  141MOL0     H19000  12.150  10.933   3.740 -1.6787 -1.9784 -0.7693
  141MOL0     H19001  12.379  10.751   3.785  0.1118 -0.7066  1.5356
  141MOL0     H19002  12.311  10.791   3.632 -2.0580  1.7008  0.8852
  141MOL0     H19003  12.432  11.010   3.648  1.4089  0.2187 -0.1091
  141MOL0     H19004  12.432  11.011   3.824 -1.0035 -0.7995  0.6209
  141MOL0     H19005  12.646  10.979   3.702  1.0297 -0.5851 -0.5648
  141MOL0     H19006  12.601  10.823   3.655  1.0309  0.8505 -0.0141
  141MOL0     H19007  12.568  10.756   3.900  1.4073 -1.3430 -1.1599
  141MOL0     H19008  12.599  10.915   3.947 -3.5719  1.7129 -3.2475
  141MOL0     H19009  12.788  10.718   3.793 -1.5948 -0.6102  0.7968
  141MOL0     H19010  12.831  10.885   3.844  0.4956 -0.0936 -0.7944
  141MOL0     H19011  12.765  10.638   4.013 -0.1319 -0.5400 -1.2052
  141MOL0     H19012  12.775  10.799   4.088 -0.6062 -2.9325  0.8308
  141MOL0     H19013  12.998  10.820   4.028 -0.3301 -0.0658 -0.4853
  141MOL0     H19014  12.958  10.684   4.135  0.4296  1.5823 -0.1008
  141MOL0     H19015  11.971  10.941   3.897  0.9478 -1.0932 -0.1787
  141MOL0     H19016  11.825  11.048   4.053  0.6734  1.7866 -1.7597
  141MOL0     H19017  11.725  11.321   4.314  1.4625 -3.0327  0.4586
  141MOL0     H19018  11.564  11.461   4.406 -0.3501 -0.7750 -0.3053
  141MOL0     H19019   9.778  11.135   5.139  1.3818  0.0559 -0.1422
  141MOL0     H19020   9.697  10.944   5.040  0.4768 -0.2828  2.5395
  141MOL0     H19021   9.511  10.540   4.919  0.1016 -0.0079  0.9892
  141MOL0     H19022   9.492  10.309   4.802  0.2267  0.2763 -0.4656
  141MOL0     H19023   9.488  10.100   4.736 -0.6126 -3.1575  0.0361
  141MOL0     H19024   9.643  10.089   4.814  0.7136 -0.2352 -0.6045
  141MOL0     H19025   9.581   9.891   4.724 -0.2831  1.2482  0.5862
  141MOL0     H19026   9.721   9.937   4.634  1.6773  2.8041  0.9287
  141MOL0     H19027   9.558   9.840   4.481 -2.9090  0.4438 -2.3013
  141MOL0     H19028   9.570  10.008   4.440  2.1813 -0.7434 -0.4288
  141MOL0     H19029   9.338   9.854   4.497 -1.7160 -0.0038  0.1942
  141MOL0     H19030   9.340   9.967   4.629  0.6519 -0.3761  0.0348
  141MOL0     H19031   9.193  10.212   4.333  0.5131  1.2009 -0.0467
  141MOL0     H19032   9.842  10.369   4.588 -1.1065 -2.5199  0.7851
  141MOL0     H19033  10.002  10.585   4.713 -0.4199 -3.2661 -0.4262
  141MOL0     H19034   9.938  10.586   4.568  1.9992 -0.2591  0.6283
  141MOL0     H19035   9.892  10.725   4.674 -0.8765 -0.2134  0.9008
  142MOL0     O19036   6.820   9.782   9.978 -0.0565  0.7354  0.0983
  142MOL0     C19037   6.728   9.702   9.978 -0.0072 -0.2242 -0.0444
  142MOL0     O19038   6.738   9.563   9.953 -0.2117  0.5722 -0.0583
  142MOL0     C19039   6.854   9.521   9.879  0.1438 -0.0526  0.3655
  142MOL0     C19040   6.843   9.461   9.751 -0.2845  0.0459 -0.4979
  142MOL0     C19041   6.956   9.424   9.682  0.1408  0.6600  0.5827
  142MOL0     C19042   7.087   9.425   9.753  0.4412  0.0716  0.5484
  142MOL0     O19043   7.205   9.368   9.689 -0.2743 -0.0357 -0.5668
  142MOL0     C19044   7.268   9.260   9.760  0.0554 -0.0009  0.7922
  142MOL0     C19045   7.320   9.174   9.655  0.5081 -0.9620 -0.2541
  142MOL0     C19046   7.406   9.066   9.716 -0.6516 -0.2616 -0.2985
  142MOL0     C19047   7.455   8.963   9.611 -0.1802  0.6153  0.8145
  142MOL0     C19048   7.569   8.876   9.650 -0.0401  0.6273 -0.7495
  142MOL0     C19049   7.530   8.781   9.761  0.0307  0.2743 -0.1522
  142MOL0     C19050   7.647   8.688   9.813  0.8463  0.1880  0.2687
  142MOL0     C19051   7.749   8.740   9.911 -0.1663  0.6523  0.3533
  142MOL0     N19052   7.869   8.657   9.911  0.3329  0.4274  0.0297
  142MOL0     C19053   7.950   8.639   9.801  0.1450 -0.3527  0.3004
  142MOL0     C19054   8.058   8.571   9.848 -0.1620  0.8041  0.0881
  142MOL0     C19055   8.186   8.534   9.774 -0.4923  0.5050 -0.3789
  142MOL0     C19056   8.239   8.624   9.668  0.3576 -0.4581  0.2264
  142MOL0     C19057   8.339   8.548   9.578  0.1290 -0.8743  0.2528
  142MOL0     C19058   8.453   8.460   9.642 -0.2799  0.4361  0.7054
  142MOL0     O19059   8.541   8.425   9.532  0.2389 -1.0371  0.0856
  142MOL0     C19060   8.670   8.369   9.547  0.2301 -0.3296 -0.0527
  142MOL0     C19061   8.742   8.361   9.425 -0.7323  0.6683 -0.8784
  142MOL0     C19062   8.872   8.300   9.426  0.1847 -0.2019 -0.3683
  142MOL0     C19063   8.924   8.251   9.551 -0.2578 -0.2745 -0.4221
  142MOL0     C19064   9.065   8.201   9.576  0.5278  0.2390  1.0825
  142MOL0     O19065   9.093   8.134   9.682  0.3122 -0.3198 -0.0214
  142MOL0     C19066   9.213   8.154   9.732 -0.1314  0.4135  0.1102
  142MOL0     C19067   9.258   8.265   9.802  0.5831 -0.1779 -0.1549
  142MOL0     C19068   9.391   8.275   9.846 -1.1736 -0.0045  0.7146
  142MOL0     C19069   9.485   8.177   9.818  0.2486  0.1885 -0.7332
  142MOL0     O19070   9.617   8.201   9.836 -0.3837 -0.6002  0.5025
  142MOL0     C19071   9.695   8.148   9.734 -0.5405 -0.5101  1.1399
  142MOL0     C19072   9.824   8.233   9.691 -1.2311  0.2510 -0.2223
  142MOL0     C19073   9.918   8.159   9.602  0.2872  0.0768  0.1401
  142MOL0     C19074  10.040   8.106   9.675  0.2577  0.4080  0.2569
  142MOL0     C19075  10.128   8.029   9.576  0.4250 -0.1887 -0.1173
  142MOL0     C19076  10.249   7.968   9.650  0.1668  0.5689 -0.0639
  142MOL0     C19077  10.353   7.907   9.554 -0.4565 -0.4556 -0.1818
  142MOL0     C19078  10.400   7.769   9.595  1.0148 -0.4723  0.0946
  142MOL0    Cl19079  10.525   7.709   9.485  0.9611  0.3711  0.0663
  142MOL0     C19080   9.430   8.057   9.764 -0.3696 -0.1216  0.3399
  142MOL0     C19081   9.295   8.045   9.728 -0.4750 -0.2033  0.0768
  142MOL0     O19082   9.145   8.219   9.485 -1.1503 -0.0107  0.4906
  142MOL0     C19083   8.851   8.259   9.665  1.4177 -0.5218 -0.0322
  142MOL0     C19084   8.719   8.313   9.660  0.7147  1.0253 -0.8467
  142MOL0     N19085   8.042   8.549   9.983  0.3172  0.0709  0.0190
  142MOL0     N19086   7.923   8.590  10.020 -0.7582 -0.5433 -0.8061
  142MOL0     C19087   7.087   9.485   9.882  0.0102  0.1150 -0.8044
  142MOL0     C19088   6.975   9.522   9.939  1.0661 -0.5346 -1.0154
  142MOL0     C19089   6.598   9.770  10.015  0.3083  0.4911 -0.1496
  142MOL0     C19090   6.487   9.685  10.043 -0.3131 -0.3569 -0.6940
  142MOL0     C19091   6.360   9.738  10.079  0.5493 -0.2791  0.4446
  142MOL0     C19092   6.340   9.868  10.080  0.1750 -0.6830  0.2313
  142MOL0     O19093   6.219   9.922  10.107  0.3898 -0.2352  0.3244
  142MOL0     C19094   6.094   9.856  10.074 -0.0652 -0.1596 -0.3824
  142MOL0     C19095   6.080   9.795   9.934  0.6101 -0.7587  0.0165
  142MOL0     C19096   6.100   9.908   9.836 -0.3329 -0.4994  0.4113
  142MOL0     C19097   6.093   9.846   9.688 -0.0658 -0.0571 -0.2433
  142MOL0     C19098   6.168   9.923   9.590  0.0751  0.1507  0.9984
  142MOL0     C19099   6.234   9.995   9.520 -0.3970  1.1774  0.9137
  142MOL0     C19100   6.443   9.955  10.058  0.3428 -0.0407  0.9216
  142MOL0     C19101   6.571   9.914  10.027 -0.3735 -1.1770  0.1156
  142MOL0     C19102   6.677  10.028  10.019  0.2535  0.9580 -0.1446
  142MOL0     H19103   6.744   9.442   9.710 -2.1331  1.4779  2.9104
  142MOL0     H19104   6.950   9.375   9.585 -1.9062  1.3445  0.3156
  142MOL0     H19105   7.340   9.287   9.838 -0.3600  1.1477  0.8043
  142MOL0     H19106   7.187   9.203   9.807  1.4711 -1.4095  1.5918
  142MOL0     H19107   7.386   9.241   9.599  1.4082 -1.5490  0.0728
  142MOL0     H19108   7.244   9.135   9.587  2.6210  0.5566 -3.7667
  142MOL0     H19109   7.355   9.021   9.802  1.5987 -1.5474  0.4648
  142MOL0     H19110   7.502   9.107   9.752 -0.2758 -2.0315  0.8677
  142MOL0     H19111   7.364   8.906   9.587 -0.6962  0.5994  2.6213
  142MOL0     H19112   7.485   9.009   9.517 -1.9659 -1.7029 -1.0108
  142MOL0     H19113   7.607   8.819   9.564  1.6818 -0.0900  0.4359
  142MOL0     H19114   7.651   8.940   9.682  0.0164 -0.3471  1.1952
  142MOL0     H19115   7.496   8.841   9.845  0.6887 -0.5357  0.7043
  142MOL0     H19116   7.458   8.713   9.714 -0.9177  3.0559 -3.1391
  142MOL0     H19117   7.699   8.647   9.726 -0.9891  0.1138 -0.8540
  142MOL0     H19118   7.598   8.606   9.868 -2.0072  2.0676  0.7324
  142MOL0     H19119   7.777   8.843   9.887  1.8197  0.5711  2.0312
  142MOL0     H19120   7.701   8.751  10.009  0.9044 -2.8205  1.4082
  142MOL0     H19121   7.927   8.666   9.698 -1.8721  4.2540  1.7070
  142MOL0     H19122   8.263   8.519   9.851 -0.4017 -2.1789 -0.8774
  142MOL0     H19123   8.156   8.435   9.737  1.8861 -1.0159  1.4259
  142MOL0     H19124   8.159   8.674   9.612  0.7489 -0.5060 -0.3890
  142MOL0     H19125   8.300   8.705   9.708 -1.5330  1.4325 -0.4956
  142MOL0     H19126   8.389   8.618   9.511 -1.6017  0.5385  0.3610
  142MOL0     H19127   8.280   8.491   9.506 -2.7781  1.1500  0.8727
  142MOL0     H19128   8.406   8.366   9.674  0.6185 -1.1170 -2.1673
  142MOL0     H19129   8.511   8.504   9.724 -1.5905  1.0474  1.3280
  142MOL0     H19130   8.689   8.403   9.340  0.6790  0.7887 -1.7344
  142MOL0     H19131   8.927   8.289   9.333  0.6762  0.8642 -0.2144
  142MOL0     H19132   9.192   8.351   9.811  1.5337  0.5462  0.0574
  142MOL0     H19133   9.427   8.366   9.894 -0.5318 -0.3376  0.8739
  142MOL0     H19134   9.739   8.051   9.761 -2.6568 -1.4318  1.4559
  142MOL0     H19135   9.640   8.139   9.641  0.9394  1.1240  0.0412
  142MOL0     H19136   9.801   8.321   9.629  5.3283  2.5636 -0.1926
  142MOL0     H19137   9.873   8.274   9.780 -0.8140 -0.7743  0.0297
  142MOL0     H19138   9.866   8.080   9.547 -0.0260  0.2205  0.2325
  142MOL0     H19139   9.947   8.238   9.531 -0.7436  2.0577  1.8113
  142MOL0     H19140   9.999   8.034   9.746 -3.0590  0.5193 -1.3330
  142MOL0     H19141  10.087   8.180   9.739 -0.2724 -0.1217  1.2877
  142MOL0     H19142  10.152   8.108   9.505  0.3666  1.8623  2.0226
  142MOL0     H19143  10.077   7.943   9.532  0.0345 -0.1238  0.2035
  142MOL0     H19144  10.289   8.051   9.710 -2.2258  1.8299 -0.1052
  142MOL0     H19145  10.212   7.885   9.711 -0.7830 -1.4550 -3.2149
  142MOL0     H19146  10.439   7.972   9.536 -2.3793  2.1970 -0.2846
  142MOL0     H19147  10.302   7.883   9.460  1.2416 -0.4994 -1.1209
  142MOL0     H19148  10.443   7.781   9.695  3.3754  3.0469 -1.1379
  142MOL0     H19149  10.318   7.696   9.593 -1.4057  2.0226  1.5137
  142MOL0     H19150   9.493   7.972   9.741 -0.2425  0.2605 -0.8060
  142MOL0     H19151   9.260   7.958   9.674 -1.0568 -2.3964  3.6425
  142MOL0     H19152   8.879   8.217   9.761  0.8068  1.0351  0.8508
  142MOL0     H19153   8.644   8.299   9.737 -0.4285 -0.8748 -2.2277
  142MOL0     H19154   7.178   9.506   9.936 -1.0485  4.4829 -0.3458
  142MOL0     H19155   6.976   9.583  10.029 -0.5355 -3.6291  1.2973
  142MOL0     H19156   6.504   9.578  10.036 -2.3437 -0.8229  0.6002
  142MOL0     H19157   6.284   9.664  10.102 -0.5327  0.3059 -1.0306
  142MOL0     H19158   6.013   9.929  10.078 -1.7119 -1.9004 -0.6850
  142MOL0     H19159   6.063   9.781  10.148  1.4625 -0.0941  0.3663
  142MOL0     H19160   5.982   9.753   9.910  0.5263  0.7762 -2.7367
  142MOL0     H19161   6.163   9.724   9.918  0.8317 -0.3760 -0.5768
  142MOL0     H19162   6.196   9.959   9.854 -1.5331  1.3390  2.0976
  142MOL0     H19163   6.021   9.980   9.860  2.4927  3.1863 -0.2742
  142MOL0     H19164   6.145   9.749   9.690 -0.2953 -0.3337 -3.0172
  142MOL0     H19165   5.985   9.832   9.677 -0.3882  0.1598  2.0692
  142MOL0     H19166   6.281  10.057   9.446  0.7984 -2.5074 -1.6730
  142MOL0     H19167   6.406  10.056  10.050 -0.1192 -0.3745 -2.2965
  142MOL0     H19168   6.738  10.036  10.110  2.1531 -0.9260 -1.1486
  142MOL0     H19169   6.740  10.022   9.930  0.6004  0.5461  0.1193
  142MOL0     H19170   6.625  10.124  10.020  2.1543  2.0434  0.5813
  143MOL0     O19171   7.449   6.575   3.067 -0.1015 -0.5507 -0.1566
  143MOL0     C19172   7.483   6.553   3.185 -0.3062 -0.4699  0.0178
  143MOL0     O19173   7.602   6.503   3.224  0.6918  0.6191  0.7193
  143MOL0     C19174   7.708   6.537   3.143  0.0113 -0.1934 -0.2243
  143MOL0     C19175   7.810   6.447   3.123  0.0291 -0.6357 -0.7892
  143MOL0     C19176   7.919   6.478   3.039  0.1127  0.6320  0.3843
  143MOL0     C19177   7.942   6.604   2.980 -0.7627  0.2118 -0.3482
  143MOL0     O19178   8.058   6.610   2.901 -0.0352  0.4412  0.1738
  143MOL0     C19179   8.103   6.731   2.841  0.0316  0.1024 -0.3963
  143MOL0     C19180   8.220   6.706   2.747  0.0247 -0.0817 -0.5987
  143MOL0     C19181   8.339   6.652   2.818 -0.9001  0.2121 -0.6207
  143MOL0     C19182   8.474   6.670   2.745 -0.3560 -0.2153 -0.4163
  143MOL0     C19183   8.592   6.630   2.818  0.2290 -0.3707 -0.5646
  143MOL0     C19184   8.725   6.649   2.743 -0.3709 -0.1507 -0.0448
  143MOL0     C19185   8.839   6.564   2.780  0.3747  0.4466 -0.2747
  143MOL0     C19186   8.973   6.590   2.701  0.5332 -0.0232  0.4975
  143MOL0     N19187   9.060   6.708   2.714 -0.2115 -0.4022  0.2250
  143MOL0     C19188   9.153   6.746   2.624  1.1579  0.1733  0.1847
  143MOL0     C19189   9.234   6.830   2.695  0.5181  0.7444 -0.5974
  143MOL0     C19190   9.337   6.920   2.641 -0.7862 -0.0631 -0.6886
  143MOL0     C19191   9.455   6.857   2.571  0.0275 -0.2115 -0.3417
  143MOL0     C19192   9.552   6.783   2.666 -0.0552 -0.6063 -0.9082
  143MOL0     C19193   9.621   6.881   2.771 -0.4909  0.5624  0.4602
  143MOL0     O19194   9.717   6.972   2.716  0.3006  0.4467  0.3466
  143MOL0     C19195   9.853   6.951   2.725  0.3965  0.4416  0.5630
  143MOL0     C19196   9.915   6.982   2.604 -0.9143  0.8406  0.1346
  143MOL0     C19197  10.057   6.975   2.599  0.3083 -0.0155 -0.1994
  143MOL0     C19198  10.128   6.934   2.713 -0.0860 -0.0875  0.1140
  143MOL0     C19199  10.271   6.952   2.707  0.8313  0.5402  0.8872
  143MOL0     O19200  10.330   6.988   2.585  0.4222 -0.3504  0.5108
  143MOL0     C19201  10.466   7.023   2.554  0.0443  0.4177  0.2321
  143MOL0     C19202  10.486   7.066   2.424  0.4170 -0.2720  1.0950
  143MOL0     C19203  10.617   7.117   2.385  0.5052  0.9336 -0.8279
  143MOL0     C19204  10.720   7.137   2.477  0.5442 -0.0763  0.0364
  143MOL0     O19205  10.835   7.202   2.436  0.3710  0.4051  0.8529
  143MOL0     C19206  10.948   7.195   2.528 -1.2156 -0.4607 -0.3360
  143MOL0     C19207  11.072   7.255   2.460 -0.7340 -0.4265 -0.4191
  143MOL0     C19208  11.181   7.283   2.567  0.1823  0.2066  0.3781
  143MOL0     C19209  11.277   7.388   2.516  0.7468  0.0740 -0.4937
  143MOL0     C19210  11.372   7.327   2.408  0.6007 -0.6460 -0.3600
  143MOL0     C19211  11.478   7.430   2.362  0.6368 -0.3836  0.1768
  143MOL0     C19212  11.428   7.573   2.328 -0.3440 -0.7312 -0.0586
  143MOL0     C19213  11.534   7.663   2.262 -0.6154 -0.4737  0.9903
  143MOL0    Cl19214  11.571   7.605   2.098  0.4158 -0.6367 -0.3392
  143MOL0     C19215  10.692   7.098   2.609 -0.4645 -0.0159 -0.2282
  143MOL0     C19216  10.568   7.045   2.648 -0.3837  0.3334  0.4117
  143MOL0     O19217  10.331   6.939   2.813  0.2348 -0.5831 -0.3643
  143MOL0     C19218  10.056   6.892   2.830 -0.4004  0.4851  0.5314
  143MOL0     C19219   9.919   6.903   2.833  0.4875  0.6468  0.4306
  143MOL0     N19220   9.181   6.843   2.825 -0.4869 -0.0018 -0.4439
  143MOL0     N19221   9.081   6.763   2.836 -0.4749 -0.5255  0.1971
  143MOL0     C19222   7.849   6.703   3.013  0.5728 -0.5505  0.6988
  143MOL0     C19223   7.725   6.662   3.081  0.0762  0.7412 -1.0826
  143MOL0     C19224   7.382   6.558   3.285  0.6990  0.9526 -0.1628
  143MOL0     C19225   7.373   6.439   3.364 -0.0592  0.0188  0.5748
  143MOL0     C19226   7.276   6.432   3.468 -0.1294  1.3176  0.0840
  143MOL0     C19227   7.199   6.538   3.494 -0.2757 -0.3288  0.2869
  143MOL0     O19228   7.101   6.540   3.590  0.4531 -0.7582  0.3255
  143MOL0     C19229   7.142   6.579   3.723 -0.3721  1.2538 -1.0987
  143MOL0     C19230   7.031   6.571   3.832  0.1892  0.1023 -1.0647
  143MOL0     C19231   6.918   6.673   3.806 -0.5951 -0.1655  1.0003
  143MOL0     C19232   6.828   6.682   3.928 -0.3648  0.3891 -0.4044
  143MOL0     C19233   6.737   6.794   3.896  0.1793  0.3682 -0.5123
  143MOL0     C19234   6.657   6.887   3.889  0.2742  0.6974  0.2012
  143MOL0     C19235   7.218   6.654   3.427  0.5582  0.0824  1.4897
  143MOL0     C19236   7.289   6.659   3.311 -0.3698 -0.9854  0.5221
  143MOL0     C19237   7.263   6.770   3.211  0.0556  0.0268 -0.5931
  143MOL0     H19238   7.790   6.351   3.170  3.0133 -1.8055 -1.6651
  143MOL0     H19239   7.994   6.405   3.009  1.6574  2.5660 -0.7203
  143MOL0     H19240   8.024   6.781   2.784 -1.2139 -2.9815 -1.5743
  143MOL0     H19241   8.142   6.797   2.920  1.2499 -0.9173 -0.1126
  143MOL0     H19242   8.234   6.793   2.682  0.5607  0.0002 -0.3771
  143MOL0     H19243   8.192   6.625   2.679 -0.3544  0.8575 -1.5889
  143MOL0     H19244   8.328   6.546   2.842  2.4468 -0.3274 -1.0016
  143MOL0     H19245   8.348   6.700   2.916 -1.0580 -1.1817  0.0981
  143MOL0     H19246   8.456   6.611   2.654 -2.6452  1.3633 -1.0955
  143MOL0     H19247   8.491   6.772   2.707  2.9869 -1.1935 -1.9144
  143MOL0     H19248   8.583   6.675   2.918 -0.0296 -0.3246 -0.6086
  143MOL0     H19249   8.578   6.521   2.827 -3.6754 -0.0142 -0.7778
  143MOL0     H19250   8.722   6.638   2.634  4.1098  1.9658 -0.6380
  143MOL0     H19251   8.767   6.750   2.752 -0.4966 -0.1666  0.8292
  143MOL0     H19252   8.810   6.462   2.754 -3.0751  0.9482  1.0811
  143MOL0     H19253   8.853   6.566   2.888 -0.9588  0.3793 -0.0880
  143MOL0     H19254   9.035   6.505   2.731  0.0359 -0.1163  1.2932
  143MOL0     H19255   8.961   6.574   2.594  0.9715  1.2515  0.2425
  143MOL0     H19256   9.167   6.711   2.522 -0.1120 -1.3341  0.4774
  143MOL0     H19257   9.284   6.976   2.564 -1.3043 -0.2844 -0.4980
  143MOL0     H19258   9.375   6.980   2.724 -1.0393 -2.5517  1.3613
  143MOL0     H19259   9.416   6.785   2.498 -0.3361 -0.0879 -0.2693
  143MOL0     H19260   9.514   6.935   2.522 -0.3039 -0.3628 -0.9951
  143MOL0     H19261   9.632   6.732   2.612  1.1004 -0.2764  0.4265
  143MOL0     H19262   9.498   6.706   2.722 -0.5739 -0.1747 -0.8056
  143MOL0     H19263   9.679   6.812   2.834  1.5719  0.0331 -1.8437
  143MOL0     H19264   9.555   6.944   2.831  0.1085  2.0717 -0.4115
  143MOL0     H19265   9.857   7.025   2.523 -1.3770 -1.4677 -0.8470
  143MOL0     H19266  10.109   6.997   2.506 -0.2908 -0.9131 -0.7638
  143MOL0     H19267  10.408   7.068   2.349 -0.1450 -0.2767  1.6722
  143MOL0     H19268  10.634   7.162   2.288  1.1244  0.6036 -0.8779
  143MOL0     H19269  10.929   7.252   2.620 -1.1805 -0.2314 -0.4704
  143MOL0     H19270  10.975   7.091   2.549  0.1376 -0.6998 -2.8196
  143MOL0     H19271  11.095   7.172   2.392 -0.0582  0.0297 -0.7672
  143MOL0     H19272  11.057   7.345   2.400  1.8915  0.7682  0.5333
  143MOL0     H19273  11.140   7.324   2.660 -1.9419  2.2871 -1.3639
  143MOL0     H19274  11.228   7.188   2.596 -0.9242 -0.3426  0.4268
  143MOL0     H19275  11.332   7.443   2.593  1.1634  0.1730 -0.8573
  143MOL0     H19276  11.210   7.461   2.469  1.9036  0.2490 -1.9532
  143MOL0     H19277  11.298   7.305   2.331 -0.9448 -0.3771  1.0069
  143MOL0     H19278  11.413   7.241   2.461  1.0455  0.3581  0.9959
  143MOL0     H19279  11.539   7.456   2.448  1.2599 -3.5780  0.8337
  143MOL0     H19280  11.554   7.392   2.292  2.8478  0.3960  2.0340
  143MOL0     H19281  11.396   7.626   2.419  0.6775  1.9872 -1.2125
  143MOL0     H19282  11.342   7.566   2.260 -0.5073 -1.0308  0.1723
  143MOL0     H19283  11.488   7.762   2.257 -0.3792 -0.4055 -0.1770
  143MOL0     H19284  11.625   7.665   2.321  1.1963 -1.2772 -1.6118
  143MOL0     H19285  10.757   7.105   2.696 -0.2617  1.1440 -0.4585
  143MOL0     H19286  10.548   7.029   2.754 -1.0200 -0.4527  0.1877
  143MOL0     H19287  10.106   6.866   2.923 -1.1668  0.3861  0.9204
  143MOL0     H19288   9.869   6.875   2.925 -0.9523  0.6464 -0.3309
  143MOL0     H19289   7.845   6.801   2.967 -2.6216 -0.7576  0.2549
  143MOL0     H19290   7.651   6.742   3.088  0.6661  1.2419 -0.4429
  143MOL0     H19291   7.435   6.359   3.325 -3.5624 -2.5778 -0.1574
  143MOL0     H19292   7.253   6.338   3.519  0.1272  0.2277 -1.7407
  143MOL0     H19293   7.173   6.684   3.723  1.0778  0.8502 -0.2352
  143MOL0     H19294   7.222   6.510   3.752 -0.3969  1.2447 -1.0528
  143MOL0     H19295   7.076   6.582   3.931 -0.3952 -4.5670 -0.0289
  143MOL0     H19296   7.000   6.466   3.821  1.3815 -0.2808 -1.0175
  143MOL0     H19297   6.851   6.651   3.722 -0.1640 -0.5073  0.7451
  143MOL0     H19298   6.960   6.773   3.790 -0.1492  0.1184  3.4572
  143MOL0     H19299   6.771   6.595   3.960  1.9189 -1.0835 -0.1305
  143MOL0     H19300   6.898   6.700   4.011  0.9130 -2.4138 -0.7716
  143MOL0     H19301   6.590   6.970   3.897  1.6316  1.7297  1.7056
  143MOL0     H19302   7.146   6.733   3.446 -2.2140 -1.0337 -2.9789
  143MOL0     H19303   7.197   6.848   3.249  1.5564  0.6746  0.8191
  143MOL0     H19304   7.356   6.820   3.181  0.9989 -1.8068 -0.9084
  143MOL0     H19305   7.234   6.716   3.120  2.2921 -2.0525 -0.1675
  144MOL0     O19306   4.238   0.508   2.133 -0.0036 -0.3292 -0.3150
  144MOL0     C19307   4.167   0.429   2.074  0.7046  0.9003 -0.3738
  144MOL0     O19308   4.217   0.305   2.031  0.1393  0.3164 -0.2905
  144MOL0     C19309   4.347   0.274   2.044 -0.2054 -0.5729 -0.0531
  144MOL0     C19310   4.451   0.354   1.995  0.3835  0.1978  0.0250
  144MOL0     C19311   4.583   0.317   2.029  0.8002 -0.1917  0.0706
  144MOL0     C19312   4.614   0.187   2.089  0.1235 -1.1997  0.5785
  144MOL0     O19313   4.740   0.148   2.106 -0.5424 -0.5058  0.4202
  144MOL0     C19314   4.841   0.245   2.136 -0.2223  0.6365 -1.1336
  144MOL0     C19315   4.953   0.176   2.226  0.5394 -0.0984 -0.7267
  144MOL0     C19316   4.899   0.128   2.360 -0.4506  0.4453 -0.4170
  144MOL0     C19317   5.014   0.069   2.438  0.0195 -0.1074  1.1129
  144MOL0     C19318   4.967  -0.003   2.575  0.7653  0.9736 -0.3556
  144MOL0     C19319   4.959   0.087   2.695 -0.3877 -0.5101 -0.5201
  144MOL0     C19320   5.093   0.107   2.760 -1.0916 -0.0232  0.5653
  144MOL0     C19321   5.119   0.009   2.873  0.4618 -0.3642 -0.0189
  144MOL0     N19322   5.260   0.015   2.905 -0.4758  0.3228  0.9948
  144MOL0     C19323   5.345   0.126   2.934  0.3926 -0.3490 -0.2975
  144MOL0     C19324   5.457   0.068   2.978  0.3905  0.1203  0.3343
  144MOL0     C19325   5.589   0.129   3.011 -0.2556  0.2667 -0.0378
  144MOL0     C19326   5.637   0.239   2.912 -0.0357 -0.1753  0.1763
  144MOL0     C19327   5.777   0.299   2.930  0.1100 -1.7787 -0.7874
  144MOL0     C19328   5.885   0.193   2.955 -0.3225 -0.7236  0.6495
  144MOL0     O19329   6.007   0.265   2.964 -0.2756  0.1806 -1.1199
  144MOL0     C19330   6.115   0.190   2.994 -1.1669 -0.4091  0.2105
  144MOL0     C19331   6.229   0.267   2.993  0.6320 -0.9426 -0.3997
  144MOL0     C19332   6.362   0.224   3.007 -0.5119  0.7572  0.4858
  144MOL0     C19333   6.383   0.087   3.010  0.9194  0.4375  0.4685
  144MOL0     C19334   6.523   0.044   3.030 -0.2317  0.5254  0.5981
  144MOL0     O19335   6.546  -0.080   3.073  0.2310  0.5739  0.0409
  144MOL0     C19336   6.672  -0.125   3.093 -0.2280  0.0111  1.1927
  144MOL0     C19337   6.704  -0.246   3.035  0.3026 -0.1689  0.0767
  144MOL0     C19338   6.838  -0.287   3.025 -0.0236  0.6312 -0.7194
  144MOL0     C19339   6.944  -0.215   3.077 -0.1659  0.3044  0.6038
  144MOL0     O19340   7.073  -0.254   3.079 -0.8862  0.1484  0.4261
  144MOL0     C19341   7.104  -0.393   3.058 -0.6035  0.2460  0.2641
  144MOL0     C19342   7.253  -0.406   3.083 -0.1912  0.4984  0.1800
  144MOL0     C19343   7.331  -0.338   2.968  0.6494  0.2233  0.7382
  144MOL0     C19344   7.477  -0.377   2.949  0.3368  0.7544  0.1331
  144MOL0     C19345   7.551  -0.316   2.832  1.1580 -1.2259  0.2877
  144MOL0     C19346   7.600  -0.179   2.864  0.3146 -0.1268  0.1898
  144MOL0     C19347   7.678  -0.121   2.746  0.0117 -0.1950  0.6292
  144MOL0     C19348   7.761  -0.005   2.796  0.2007 -0.4013  0.8577
  144MOL0    Cl19349   7.912  -0.064   2.869 -0.1274 -0.1018 -0.2422
  144MOL0     C19350   6.915  -0.090   3.131 -0.5208 -0.2972 -0.0957
  144MOL0     C19351   6.780  -0.052   3.148  0.4885 -0.6116 -0.6103
  144MOL0     O19352   6.607   0.124   2.990  0.5308  1.0318 -0.1275
  144MOL0     C19353   6.270  -0.000   3.005 -0.3743 -0.2676 -0.7303
  144MOL0     C19354   6.136   0.053   3.010 -0.2447  0.1790  0.1569
  144MOL0     N19355   5.449  -0.069   2.979 -0.1059  0.3736 -0.0675
  144MOL0     N19356   5.333  -0.097   2.936  0.0011  0.4932 -0.2889
  144MOL0     C19357   4.509   0.109   2.138 -0.8034 -0.6355  0.5048
  144MOL0     C19358   4.380   0.160   2.119 -0.1937  0.3586  0.2749
  144MOL0     C19359   4.018   0.447   2.061 -0.4720 -0.8744 -0.0025
  144MOL0     C19360   3.956   0.411   1.943 -1.0596 -0.0076  0.3212
  144MOL0     C19361   3.824   0.435   1.913 -0.5602  0.5662  0.0681
  144MOL0     C19362   3.748   0.497   2.009 -0.0355  0.6144  0.3706
  144MOL0     O19363   3.618   0.533   1.985 -0.0943 -0.4608 -0.0655
  144MOL0     C19364   3.573   0.666   2.032  0.3550  0.0063 -0.2916
  144MOL0     C19365   3.442   0.716   1.974  0.4320  0.4299 -1.0966
  144MOL0     C19366   3.453   0.742   1.825  0.6644  0.0169  0.2048
  144MOL0     C19367   3.427   0.613   1.741 -0.4218  0.4716  0.3212
  144MOL0     C19368   3.528   0.606   1.639 -1.2909 -0.6376  0.2353
  144MOL0     C19369   3.606   0.613   1.544  0.3304 -0.8316  0.2681
  144MOL0     C19370   3.806   0.520   2.131 -0.1998  0.3855 -0.3250
  144MOL0     C19371   3.937   0.502   2.159 -0.7298 -0.1166 -0.3328
  144MOL0     C19372   3.992   0.529   2.295 -0.4992  0.1462  0.3654
  144MOL0     H19373   4.414   0.431   1.928 -0.7107  0.5742  1.0289
  144MOL0     H19374   4.660   0.390   2.004  0.6608  0.3477  1.1778
  144MOL0     H19375   4.880   0.286   2.042  0.2615  0.0387 -1.2032
  144MOL0     H19376   4.810   0.326   2.202 -1.1803 -0.5222 -0.0999
  144MOL0     H19377   5.037   0.246   2.236  0.0963  0.8144 -2.9081
  144MOL0     H19378   4.989   0.086   2.176  0.2278 -1.3404  1.1936
  144MOL0     H19379   4.820   0.053   2.350 -1.3820  1.1641  1.2302
  144MOL0     H19380   4.860   0.212   2.418  0.7206 -1.2506  3.0898
  144MOL0     H19381   5.048  -0.012   2.373  0.5663 -1.3879  2.9189
  144MOL0     H19382   5.090   0.145   2.456  0.3004 -0.4396  1.3356
  144MOL0     H19383   4.875  -0.055   2.544  0.8186  1.3283 -1.1223
  144MOL0     H19384   5.043  -0.081   2.588 -0.0029  0.4592  1.3499
  144MOL0     H19385   4.921   0.186   2.669 -1.6169 -0.2347  2.0408
  144MOL0     H19386   4.893   0.047   2.773  0.7631 -1.6244 -0.0751
  144MOL0     H19387   5.113   0.207   2.800 -1.7087 -0.6008  2.4102
  144MOL0     H19388   5.167   0.092   2.681 -0.8767  0.3832  0.6864
  144MOL0     H19389   5.072   0.047   2.964  2.1517 -0.8267  1.0767
  144MOL0     H19390   5.092  -0.096   2.861  3.4035 -1.0855 -1.1831
  144MOL0     H19391   5.340   0.231   2.905 -0.3781 -0.4589 -0.5961
  144MOL0     H19392   5.586   0.179   3.108 -0.0969  2.9150 -1.3209
  144MOL0     H19393   5.661   0.047   3.009 -2.3740 -1.6968 -0.8359
  144MOL0     H19394   5.635   0.181   2.819  1.4448  2.4478 -1.6478
  144MOL0     H19395   5.556   0.313   2.911 -0.8168 -1.0188 -0.0350
  144MOL0     H19396   5.773   0.361   3.020 -2.1337 -0.5197 -1.6819
  144MOL0     H19397   5.809   0.367   2.850 -1.8130 -1.8600 -1.6746
  144MOL0     H19398   5.888   0.121   2.873  1.7764 -1.8247  1.6180
  144MOL0     H19399   5.862   0.131   3.043  3.2884  0.2696  2.4797
  144MOL0     H19400   6.204   0.373   2.989 -0.9439 -1.0777  2.5616
  144MOL0     H19401   6.444   0.295   3.017  0.7282 -0.4505 -0.6709
  144MOL0     H19402   6.616  -0.299   3.003 -0.5223  1.7756 -1.0553
  144MOL0     H19403   6.856  -0.383   2.977  0.3806  0.3503 -0.0100
  144MOL0     H19404   7.049  -0.450   3.135 -0.0919  2.2574  2.2271
  144MOL0     H19405   7.076  -0.425   2.958  2.0568 -0.7933 -0.2224
  144MOL0     H19406   7.278  -0.355   3.177 -2.1516 -1.5160  1.9230
  144MOL0     H19407   7.276  -0.513   3.089 -0.1747  0.5700  2.8694
  144MOL0     H19408   7.282  -0.358   2.872  4.2254 -3.3079 -0.6348
  144MOL0     H19409   7.326  -0.231   2.988 -1.3080  0.7246 -1.9593
  144MOL0     H19410   7.464  -0.481   2.917 -0.4849  1.7099 -2.9496
  144MOL0     H19411   7.526  -0.378   3.046 -1.8002  1.9061  1.3009
  144MOL0     H19412   7.476  -0.310   2.753 -1.8761  1.5625  3.0333
  144MOL0     H19413   7.639  -0.379   2.816  2.1622  0.3517 -0.6621
  144MOL0     H19414   7.519  -0.113   2.899  0.3809 -0.7438  1.5777
  144MOL0     H19415   7.672  -0.179   2.946 -0.2346  1.5599  0.7114
  144MOL0     H19416   7.614  -0.083   2.666  0.9104  2.4071  1.0614
  144MOL0     H19417   7.738  -0.198   2.698 -0.6397 -0.8025  0.7788
  144MOL0     H19418   7.785   0.063   2.714  0.7411 -2.5062 -0.8261
  144MOL0     H19419   7.702   0.051   2.869  1.3734 -0.3729  1.8112
  144MOL0     H19420   6.994  -0.027   3.171  0.5587 -1.2363 -0.7011
  144MOL0     H19421   6.765   0.045   3.195  1.3541 -0.4069 -0.7415
  144MOL0     H19422   6.289  -0.107   3.006  2.1561  0.0961  1.5801
  144MOL0     H19423   6.054  -0.018   3.009 -0.5374  0.5180 -0.2989
  144MOL0     H19424   4.532   0.017   2.192 -3.4033 -1.5723  0.1482
  144MOL0     H19425   4.292   0.111   2.158 -0.7474  0.7350 -0.4785
  144MOL0     H19426   4.023   0.370   1.869  1.3506  1.4450  1.5446
  144MOL0     H19427   3.793   0.404   1.813  3.1005 -0.7480 -0.7907
  144MOL0     H19428   3.651   0.740   2.012 -0.4355  1.3711  1.4472
  144MOL0     H19429   3.565   0.670   2.141 -5.4300  3.3897 -0.4573
  144MOL0     H19430   3.409   0.806   2.026 -3.1163 -0.9768 -0.6286
  144MOL0     H19431   3.367   0.640   1.999 -0.1041  0.7161 -1.7881
  144MOL0     H19432   3.552   0.780   1.801  0.3942 -0.0355 -1.0340
  144MOL0     H19433   3.389   0.824   1.794  0.2099 -0.4224 -0.0355
  144MOL0     H19434   3.418   0.523   1.803  1.8883  0.3958  0.6429
  144MOL0     H19435   3.327   0.627   1.700 -1.5076 -1.4809  2.1046
  144MOL0     H19436   3.663   0.615   1.453 -2.2543 -0.4029 -1.4560
  144MOL0     H19437   3.751   0.582   2.202  0.9864 -0.3004  1.2726
  144MOL0     H19438   3.912   0.508   2.367 -2.8754 -0.4101 -2.2399
  144MOL0     H19439   4.069   0.455   2.316 -2.0908 -1.9283 -0.7543
  144MOL0     H19440   4.027   0.633   2.302  0.5992 -0.2868  1.4730
  145MOL0     O19441   1.990  11.103   9.367 -0.8011 -0.9074 -0.3010
  145MOL0     C19442   1.960  11.211   9.320  0.5174  0.0152  0.1556
  145MOL0     O19443   2.042  11.317   9.298 -0.0159 -0.3003  0.4012
  145MOL0     C19444   2.177  11.307   9.309  0.0171  0.2534 -0.1245
  145MOL0     C19445   2.241  11.323   9.442 -1.0703  0.4206  0.4089
  145MOL0     C19446   2.385  11.304   9.444  0.3425  0.4322  0.5325
  145MOL0     C19447   2.458  11.279   9.328 -0.2097  0.0274  0.2971
  145MOL0     O19448   2.588  11.258   9.351 -0.4459 -0.6192 -0.0396
  145MOL0     C19449   2.682  11.272   9.234  0.7671  0.6164 -0.1379
  145MOL0     C19450   2.817  11.248   9.297  0.7000 -0.3506 -0.0397
  145MOL0     C19451   2.911  11.251   9.176 -0.4802  0.3129  0.1162
  145MOL0     C19452   3.052  11.257   9.220  0.0462  0.0098 -0.1092
  145MOL0     C19453   3.157  11.253   9.107  0.3544  0.4904  0.0675
  145MOL0     C19454   3.299  11.234   9.159 -0.0078  0.3488 -0.3242
  145MOL0     C19455   3.384  11.223   9.032 -0.3300 -0.0126  0.0319
  145MOL0     C19456   3.521  11.178   9.072 -0.6011  0.4711  0.5133
  145MOL0     N19457   3.593  11.153   8.945  1.2367  0.0565  0.5147
  145MOL0     C19458   3.646  11.034   8.904  0.0544  0.5177 -0.2360
  145MOL0     C19459   3.729  11.064   8.797 -0.0740 -0.2664 -0.8677
  145MOL0     C19460   3.823  10.978   8.722 -0.7766 -0.2916  0.2311
  145MOL0     C19461   3.967  10.986   8.775  0.4143 -0.3836  0.9714
  145MOL0     C19462   4.071  10.929   8.679  0.4922  0.6280  0.9101
  145MOL0     C19463   4.212  10.972   8.709 -0.4840  0.6160  0.1484
  145MOL0     O19464   4.252  10.932   8.848 -0.6052 -0.6133 -0.6241
  145MOL0     C19465   4.380  10.962   8.884 -0.5140  0.0226 -0.0321
  145MOL0     C19466   4.477  11.043   8.812  0.7020 -0.2211  0.0908
  145MOL0     C19467   4.606  11.045   8.852  0.2029  0.6119  0.6028
  145MOL0     C19468   4.644  10.991   8.976  0.6874  0.2929 -0.4595
  145MOL0     C19469   4.781  11.010   9.025  0.1595  0.3245  0.5781
  145MOL0     O19470   4.823  10.932   9.127  0.0200 -0.5506 -0.3584
  145MOL0     C19471   4.950  10.938   9.184  0.9354 -1.0693 -0.5560
  145MOL0     C19472   5.061  10.997   9.136 -0.0162 -1.1392  0.0664
  145MOL0     C19473   5.174  11.007   9.216 -1.4415 -0.4115 -0.4708
  145MOL0     C19474   5.190  10.948   9.341  0.0568  0.6352  0.4428
  145MOL0     O19475   5.305  10.942   9.420 -0.5592  0.1321 -0.1510
  145MOL0     C19476   5.373  11.065   9.415 -0.7262 -0.0823  0.0312
  145MOL0     C19477   5.526  11.036   9.434 -0.5036 -0.4517  0.1891
  145MOL0     C19478   5.600  11.174   9.403 -0.1723  0.2871 -0.2828
  145MOL0     C19479   5.729  11.167   9.494  0.3385  0.7057  0.3216
  145MOL0     C19480   5.807  11.293   9.469 -0.3639 -0.0306  0.0614
  145MOL0     C19481   5.937  11.287   9.554  0.8378 -0.1431 -0.3281
  145MOL0     C19482   6.022  11.407   9.536 -0.0918  0.4698 -0.1345
  145MOL0     C19483   6.146  11.391   9.623  0.3660  0.5915  0.5587
  145MOL0    Cl19484   6.282  11.487   9.576 -0.6371 -0.1475  0.5077
  145MOL0     C19485   5.079  10.877   9.382 -0.5513 -0.2154 -0.9587
  145MOL0     C19486   4.961  10.879   9.310 -0.0960  1.2001 -1.0355
  145MOL0     O19487   4.849  11.095   8.978 -0.1912 -0.5816 -0.0226
  145MOL0     C19488   4.545  10.932   9.054  0.3165  0.3099 -0.1150
  145MOL0     C19489   4.414  10.909   9.009 -1.2032  0.6225 -0.1798
  145MOL0     N19490   3.718  11.198   8.770  0.1686 -0.4725 -0.6821
  145MOL0     N19491   3.646  11.250   8.870 -0.4255 -0.3082  1.5104
  145MOL0     C19492   2.390  11.269   9.204 -0.8626  0.8699 -0.3319
  145MOL0     C19493   2.249  11.279   9.195 -1.0389 -0.2031  0.1280
  145MOL0     C19494   1.823  11.230   9.269 -0.0810  0.1298  0.3818
  145MOL0     C19495   1.797  11.313   9.159 -0.0495  0.1606  0.5706
  145MOL0     C19496   1.669  11.342   9.110 -0.8692  0.6435  0.7196
  145MOL0     C19497   1.562  11.289   9.174 -0.2435 -0.7655  0.0491
  145MOL0     O19498   1.435  11.316   9.137 -0.0848 -0.4468 -0.8233
  145MOL0     C19499   1.410  11.426   9.053 -0.8731  0.6531 -0.8912
  145MOL0     C19500   1.276  11.489   9.064 -0.5542 -0.1066 -0.2122
  145MOL0     C19501   1.151  11.398   9.071 -0.2151  0.8343 -0.5404
  145MOL0     C19502   1.017  11.452   9.113  1.0865 -0.2103 -0.4562
  145MOL0     C19503   0.912  11.350   9.106 -0.9744  0.1768  0.0694
  145MOL0     C19504   0.824  11.266   9.106  0.0091 -0.0303 -0.5702
  145MOL0     C19505   1.579  11.201   9.281 -0.3343 -0.3613 -0.2854
  145MOL0     C19506   1.708  11.170   9.335  0.5024 -0.1879 -0.4838
  145MOL0     C19507   1.722  11.074   9.456  0.3041 -0.0474  0.5327
  145MOL0     H19508   2.183  11.345   9.531 -1.6511  0.7173 -0.0375
  145MOL0     H19509   2.435  11.310   9.540  1.9048 -1.7588 -0.0655
  145MOL0     H19510   2.651  11.208   9.151  0.4393  0.4515  0.1096
  145MOL0     H19511   2.668  11.376   9.203  0.0125  1.4155  2.6512
  145MOL0     H19512   2.812  11.145   9.335 -0.5354  0.1259  1.1732
  145MOL0     H19513   2.833  11.308   9.387  2.5937 -3.8289  2.1549
  145MOL0     H19514   2.890  11.349   9.132 -0.7626  0.8008  1.2796
  145MOL0     H19515   2.895  11.168   9.107 -2.7195  2.0124 -1.5386
  145MOL0     H19516   3.059  11.340   9.290 -3.3348 -1.5668  2.3368
  145MOL0     H19517   3.070  11.170   9.283 -0.0579  0.5882  0.7255
  145MOL0     H19518   3.133  11.162   9.051  0.5259 -0.0755  0.8907
  145MOL0     H19519   3.156  11.343   9.045  1.5417  0.4631 -0.0199
  145MOL0     H19520   3.329  11.315   9.226 -1.1048 -0.0785  0.7122
  145MOL0     H19521   3.307  11.147   9.224  3.3144  1.5062  1.0604
  145MOL0     H19522   3.391  11.317   8.977  1.6887 -0.1660 -0.0329
  145MOL0     H19523   3.336  11.154   8.962 -0.4926 -1.1793  1.2492
  145MOL0     H19524   3.571  11.246   9.142  2.8420 -1.2347 -0.0561
  145MOL0     H19525   3.509  11.084   9.127  0.8242  0.4200  0.7714
  145MOL0     H19526   3.644  10.934   8.947  2.7611  0.2977 -0.4364
  145MOL0     H19527   3.799  10.871   8.720  1.3345 -1.0669  4.6743
  145MOL0     H19528   3.825  11.012   8.618  2.4122 -2.2487 -0.4918
  145MOL0     H19529   3.985  11.093   8.793 -4.7664  0.6197  1.7582
  145MOL0     H19530   3.982  10.934   8.870  2.0761 -0.0658  0.9192
  145MOL0     H19531   4.046  10.961   8.577  0.1034  2.1863  1.4558
  145MOL0     H19532   4.062  10.821   8.694  1.2580  0.6257  1.3878
  145MOL0     H19533   4.224  11.079   8.691  2.7368  0.4403  0.7100
  145MOL0     H19534   4.277  10.918   8.639 -0.4462  1.0946 -0.1900
  145MOL0     H19535   4.438  11.099   8.727 -1.4665  1.0931  1.8222
  145MOL0     H19536   4.682  11.084   8.786  1.7769 -0.8704  1.4724
  145MOL0     H19537   5.069  11.054   9.044  0.5307  2.3017  2.0756
  145MOL0     H19538   5.258  11.056   9.167  1.2361 -0.7845  3.2783
  145MOL0     H19539   5.349  11.120   9.324 -1.8185  0.7707  0.7998
  145MOL0     H19540   5.329  11.128   9.494  1.3246  0.6434  0.6731
  145MOL0     H19541   5.532  10.993   9.535 -1.2699 -0.3755  0.2718
  145MOL0     H19542   5.555  10.963   9.358 -0.5068 -0.7258  0.4476
  145MOL0     H19543   5.617  11.183   9.296  1.3502  1.3339  0.0236
  145MOL0     H19544   5.543  11.265   9.424  0.1064  0.4827 -0.3862
  145MOL0     H19545   5.788  11.080   9.464 -2.9993 -1.1777 -1.3833
  145MOL0     H19546   5.700  11.159   9.599 -1.2491  0.1891 -0.1371
  145MOL0     H19547   5.755  11.383   9.504  2.4811  2.1749 -0.9545
  145MOL0     H19548   5.844  11.303   9.367 -0.2281 -3.7435 -0.3782
  145MOL0     H19549   5.907  11.267   9.657 -0.3802  1.8179 -0.2471
  145MOL0     H19550   5.994  11.200   9.520 -4.3734 -4.1568 -0.0909
  145MOL0     H19551   5.961  11.492   9.568 -2.9217 -0.3013 -3.0001
  145MOL0     H19552   6.050  11.428   9.433  1.6963  0.5229  0.3231
  145MOL0     H19553   6.123  11.395   9.730 -0.9946 -1.9570  0.4215
  145MOL0     H19554   6.177  11.287   9.607 -3.6056 -0.5136 -1.1837
  145MOL0     H19555   5.070  10.828   9.479  1.2803  0.0011 -0.6575
  145MOL0     H19556   4.870  10.836   9.352 -0.1152  0.0235 -2.2022
  145MOL0     H19557   4.565  10.899   9.156  0.8957  0.6711 -0.1045
  145MOL0     H19558   4.344  10.858   9.074  0.4955  0.8108  1.8832
  145MOL0     H19559   2.448  11.256   9.113  0.8590 -0.0056  0.8377
  145MOL0     H19560   2.190  11.276   9.104 -2.4350  0.3097  0.9933
  145MOL0     H19561   1.874  11.357   9.097 -0.5055 -1.0807 -0.9455
  145MOL0     H19562   1.651  11.410   9.028 -0.4202 -1.9303 -1.6814
  145MOL0     H19563   1.422  11.391   8.950  0.2711 -1.3749 -0.1203
  145MOL0     H19564   1.482  11.508   9.063 -0.2820  0.0750 -0.3486
  145MOL0     H19565   1.266  11.557   8.978  0.8666 -1.0956 -1.2015
  145MOL0     H19566   1.271  11.545   9.158  1.6378  1.4008 -0.9134
  145MOL0     H19567   1.179  11.317   9.139 -1.6267 -0.8604 -1.8587
  145MOL0     H19568   1.126  11.351   8.975 -0.0091  2.2266 -1.3010
  145MOL0     H19569   1.017  11.501   9.211  0.4947 -0.6390 -0.2363
  145MOL0     H19570   0.999  11.528   9.037  1.6761  1.1051  0.6741
  145MOL0     H19571   0.735  11.208   9.122 -0.3712  0.4643 -0.8695
  145MOL0     H19572   1.482  11.157   9.306 -0.5109 -0.9875 -1.9490
  145MOL0     H19573   1.740  10.970   9.428 -2.5381 -0.7372  0.9571
  145MOL0     H19574   1.798  11.112   9.524  2.2283 -1.7430 -0.5592
  145MOL0     H19575   1.626  11.073   9.510  0.8215 -0.5085  1.4687
  146MOL0     O19576  10.896  11.255   5.145 -0.2580  0.2987  0.1144
  146MOL0     C19577  10.864  11.139   5.174 -0.1107 -0.3936 -0.2754
  146MOL0     O19578  10.904  11.032   5.098  0.0923 -0.6105 -0.4898
  146MOL0     C19579  10.989  11.055   4.991 -0.2461 -0.1786 -0.0973
  146MOL0     C19580  11.132  11.070   5.011  0.6666  0.5418  0.4810
  146MOL0     C19581  11.221  11.110   4.911 -0.5736  0.1154  0.5986
  146MOL0     C19582  11.179  11.115   4.783 -0.5734 -0.2519  0.8005
  146MOL0     O19583  11.266  11.131   4.689 -0.3609 -0.0290  0.3402
  146MOL0     C19584  11.239  11.064   4.559  0.7412 -0.5653 -0.9853
  146MOL0     C19585  11.362  11.059   4.463 -0.3006 -0.7931 -0.7922
  146MOL0     C19586  11.335  10.966   4.343 -1.0309 -0.0952  0.6857
  146MOL0     C19587  11.449  10.982   4.240 -0.1352  0.6797 -0.2739
  146MOL0     C19588  11.455  10.858   4.134 -0.4336 -0.5119  0.5503
  146MOL0     C19589  11.521  10.887   4.004  0.8777 -0.5996 -0.2853
  146MOL0     C19590  11.473  10.779   3.905 -0.1691 -0.2676  0.4134
  146MOL0     C19591  11.506  10.790   3.754 -0.1736  0.7159  0.2588
  146MOL0     N19592  11.647  10.773   3.739 -0.2232  0.2326 -0.2296
  146MOL0     C19593  11.705  10.665   3.692 -0.5330  0.1893  0.4301
  146MOL0     C19594  11.836  10.702   3.665  0.1090 -0.2101 -0.2319
  146MOL0     C19595  11.943  10.609   3.615  0.7398 -0.9672 -0.5628
  146MOL0     C19596  12.033  10.668   3.508 -0.4048  0.0382 -0.6066
  146MOL0     C19597  12.147  10.566   3.513 -0.4738 -0.2838  0.1501
  146MOL0     C19598  12.260  10.588   3.413  0.4937 -0.5257  0.0808
  146MOL0     O19599  12.344  10.473   3.381  0.0030 -0.2073 -0.3284
  146MOL0     C19600  12.461  10.466   3.449 -0.7815  0.2792 -0.9724
  146MOL0     C19601  12.546  10.363   3.405 -0.6244  0.0704  0.9342
  146MOL0     C19602  12.650  10.310   3.476  0.9920  0.1739  0.8540
  146MOL0     C19603  12.688  10.371   3.597  0.1733  0.3501 -0.3087
  146MOL0     C19604  12.799  10.311   3.673 -0.1392 -0.1940  0.8877
  146MOL0     O19605  12.881  10.218   3.598  0.7966 -0.3109 -0.3623
  146MOL0     C19606  12.995  10.179   3.669 -0.4989  0.9267  0.1324
  146MOL0     C19607  13.084  10.263   3.729  0.2676 -0.2567 -0.0514
  146MOL0     C19608  13.195  10.224   3.805  0.3038 -1.0809 -0.8437
  146MOL0     C19609  13.231  10.091   3.816  0.0509 -0.0866  0.3873
  146MOL0     O19610  13.349  10.037   3.871  0.0645  0.1633 -0.6224
  146MOL0     C19611  13.430  10.129   3.935 -0.8754  0.2820 -0.9067
  146MOL0     C19612  13.543  10.041   4.003  0.5894  0.6427  0.4372
  146MOL0     C19613  13.649  10.129   4.074 -0.0647  0.0322  0.2494
  146MOL0     C19614  13.753  10.198   3.988 -1.1518  0.5565 -0.3066
  146MOL0     C19615  13.839  10.295   4.069  1.0911  0.0703 -0.1380
  146MOL0     C19616  13.936  10.379   3.972  0.1419 -0.3087  0.5784
  146MOL0     C19617  14.064  10.418   4.048 -0.2832  0.4660 -0.0573
  146MOL0     C19618  14.048  10.537   4.147 -0.1120  0.5693 -0.0979
  146MOL0    Cl19619  14.210  10.594   4.179 -0.0563 -0.0028  0.0270
  146MOL0     C19620  13.143   9.995   3.759  0.3286 -0.9767 -0.0079
  146MOL0     C19621  13.029  10.044   3.686  0.5497  0.1239  0.0515
  146MOL0     O19622  12.819  10.338   3.792  0.1669 -0.1172 -0.3840
  146MOL0     C19623  12.614  10.480   3.639  0.2241 -0.4239 -0.3364
  146MOL0     C19624  12.502  10.525   3.565  0.2680 -0.6121 -0.2952
  146MOL0     N19625  11.854  10.838   3.703  0.5396 -0.0807 -0.8840
  146MOL0     N19626  11.739  10.880   3.750  0.9317 -0.1180  0.2297
  146MOL0     C19627  11.041  11.096   4.753  0.5494 -0.5287  0.2098
  146MOL0     C19628  10.948  11.076   4.862  0.0768 -0.2551  0.6694
  146MOL0     C19629  10.776  11.113   5.291 -0.5895  0.0594 -0.1070
  146MOL0     C19630  10.702  11.230   5.339 -0.6275  0.7978 -0.0249
  146MOL0     C19631  10.596  11.214   5.424  0.9764  0.4635  0.1603
  146MOL0     C19632  10.566  11.082   5.478  0.7845 -1.1468  0.6117
  146MOL0     O19633  10.462  11.082   5.562  0.2113  0.5276  0.6616
  146MOL0     C19634  10.403  10.962   5.611 -0.7000  0.7500  0.3269
  146MOL0     C19635  10.299  10.997   5.714  1.3940  0.4839 -0.0986
  146MOL0     C19636  10.185  11.092   5.649 -0.3154  1.3604 -0.1637
  146MOL0     C19637  10.055  11.095   5.741 -0.1721 -0.6238  0.5710
  146MOL0     C19638   9.960  10.985   5.720 -0.4412  0.2481 -0.0103
  146MOL0     C19639   9.896  10.889   5.696  1.2348  0.1270  0.1345
  146MOL0     C19640  10.645  10.975   5.441 -0.2763  0.2540 -0.5417
  146MOL0     C19641  10.745  10.981   5.344  0.7320  0.2595  0.8200
  146MOL0     C19642  10.821  10.856   5.298 -0.7380 -0.1157  0.2693
  146MOL0     H19643  11.157  11.045   5.114 -1.1496 -1.5821  0.4742
  146MOL0     H19644  11.325  11.117   4.940  0.3511 -2.3508 -1.6734
  146MOL0     H19645  11.189  10.968   4.571  0.0848 -0.4237 -2.3247
  146MOL0     H19646  11.159  11.123   4.512  0.5887  1.6872  1.8471
  146MOL0     H19647  11.447  11.023   4.522 -1.7487 -2.0506  0.6469
  146MOL0     H19648  11.388  11.163   4.440  0.3933 -0.9119 -0.5712
  146MOL0     H19649  11.245  10.999   4.292 -1.1925 -0.2242  0.8871
  146MOL0     H19650  11.322  10.862   4.373 -0.4934 -0.5670 -0.6608
  146MOL0     H19651  11.421  11.071   4.183 -1.7643  0.2649 -0.1565
  146MOL0     H19652  11.544  10.989   4.293 -0.2425 -0.1915  0.0526
  146MOL0     H19653  11.518  10.779   4.175  1.5584 -0.3625 -1.9789
  146MOL0     H19654  11.356  10.818   4.110 -0.7469  0.8512 -0.5564
  146MOL0     H19655  11.491  10.989   3.975 -0.5903  0.0997  3.2079
  146MOL0     H19656  11.630  10.880   4.008  0.8633 -2.5518 -1.6702
  146MOL0     H19657  11.365  10.758   3.910  0.1434 -2.1895 -0.1516
  146MOL0     H19658  11.512  10.688   3.950 -1.3036 -0.7241  0.5088
  146MOL0     H19659  11.447  10.714   3.702  0.8786  1.1635 -1.7051
  146MOL0     H19660  11.465  10.883   3.712 -2.0285 -0.9781 -2.0358
  146MOL0     H19661  11.653  10.570   3.679  0.5648 -0.1662 -1.9063
  146MOL0     H19662  11.997  10.598   3.710 -0.9462  1.0151  0.7090
  146MOL0     H19663  11.897  10.516   3.579  0.1945  0.1520 -2.9454
  146MOL0     H19664  11.982  10.671   3.411 -2.3294  0.8861  0.3686
  146MOL0     H19665  12.070  10.767   3.535  1.1574 -0.4654 -0.8321
  146MOL0     H19666  12.103  10.471   3.480 -1.9496 -0.3856  2.2715
  146MOL0     H19667  12.182  10.556   3.616  0.2345 -0.2733 -0.0840
  146MOL0     H19668  12.321  10.675   3.438  0.7541  0.2432 -2.7903
  146MOL0     H19669  12.220  10.616   3.315  0.9005 -0.3727 -0.0457
  146MOL0     H19670  12.497  10.317   3.320 -2.1535 -0.0625  1.8403
  146MOL0     H19671  12.698  10.218   3.443 -0.5397  0.6190 -3.3141
  146MOL0     H19672  13.051  10.366   3.719 -2.1322 -0.7013  2.3234
  146MOL0     H19673  13.250  10.306   3.848 -0.0349 -0.7529 -1.0251
  146MOL0     H19674  13.469  10.211   3.873  2.0802 -0.3498 -0.0372
  146MOL0     H19675  13.373  10.176   4.016 -1.2892  0.8004 -1.4841
  146MOL0     H19676  13.506   9.966   4.073 -2.4758 -0.4844 -2.1421
  146MOL0     H19677  13.584   9.979   3.923 -0.0681 -2.0823  2.0906
  146MOL0     H19678  13.605  10.208   4.135 -2.2412  0.4383 -1.6948
  146MOL0     H19679  13.699  10.062   4.145 -0.2028  1.1348  1.4219
  146MOL0     H19680  13.694  10.249   3.911 -0.4474  1.8736 -0.0018
  146MOL0     H19681  13.816  10.125   3.936 -0.9110  1.2197 -0.9606
  146MOL0     H19682  13.899  10.237   4.140  3.5022  2.1752 -0.3127
  146MOL0     H19683  13.768  10.354   4.127  0.3136 -1.5977  0.6997
  146MOL0     H19684  13.966  10.311   3.892 -2.1349 -0.4956 -0.1721
  146MOL0     H19685  13.888  10.471   3.940 -2.9487 -1.4166  1.6697
  146MOL0     H19686  14.140  10.445   3.974  1.9463 -0.3966  1.7926
  146MOL0     H19687  14.090  10.326   4.101 -1.2073 -0.4032 -1.0519
  146MOL0     H19688  14.004  10.624   4.097  1.7196  0.3736 -2.2123
  146MOL0     H19689  13.995  10.505   4.237  1.5473 -0.6230  0.5131
  146MOL0     H19690  13.159   9.887   3.760  1.0925 -0.8804  1.5539
  146MOL0     H19691  12.967   9.962   3.653  0.6981  0.0798 -0.1209
  146MOL0     H19692  12.631  10.537   3.730 -0.7368  0.9031 -0.9478
  146MOL0     H19693  12.447  10.607   3.610  0.3529 -0.1797 -0.9678
  146MOL0     H19694  10.997  11.114   4.656  2.1712  6.2011  0.2500
  146MOL0     H19695  10.841  11.070   4.845  0.1653 -0.3157  0.1039
  146MOL0     H19696  10.716  11.327   5.292  1.1721  1.3836  1.5776
  146MOL0     H19697  10.532  11.296   5.454  1.1142  1.1914 -1.4601
  146MOL0     H19698  10.479  10.905   5.666 -1.4355 -1.2399 -0.6202
  146MOL0     H19699  10.363  10.904   5.527  3.8849 -2.1422 -0.2041
  146MOL0     H19700  10.336  11.051   5.802 -2.3136  2.8211  0.2366
  146MOL0     H19701  10.264  10.899   5.750  0.9339  0.3378 -0.9385
  146MOL0     H19702  10.161  11.064   5.546 -2.8478  2.7512 -0.0290
  146MOL0     H19703  10.233  11.190   5.638  1.4474  0.3766 -1.8735
  146MOL0     H19704  10.084  11.098   5.846 -1.3029 -1.0927  0.9050
  146MOL0     H19705   9.998  11.184   5.712 -1.1152 -1.6545 -0.8877
  146MOL0     H19706   9.841  10.804   5.661  0.6564  0.6579 -0.2640
  146MOL0     H19707  10.634  10.876   5.485 -0.3884 -0.3734 -1.9247
  146MOL0     H19708  10.819  10.837   5.190  3.6260 -0.1544 -0.0032
  146MOL0     H19709  10.928  10.875   5.313 -0.4296 -0.7787 -0.9177
  146MOL0     H19710  10.785  10.766   5.349 -0.5404 -2.1056 -2.8204
  147MOL0     O19711   0.586   1.680   9.961  0.1293 -0.4110 -0.5296
  147MOL0     C19712   0.535   1.664  10.070  0.8159  0.0116 -0.3820
  147MOL0     O19713   0.594   1.683  10.191 -0.4829  0.4990 -0.4894
  147MOL0     C19714   0.713   1.751  10.211  0.4185 -0.4950 -0.4084
  147MOL0     C19715   0.761   1.864  10.139  0.0279  0.1014 -0.0537
  147MOL0     C19716   0.882   1.933  10.164  0.3141  0.6469 -0.8244
  147MOL0     C19717   0.958   1.890  10.276  1.0656  0.2490 -0.5677
  147MOL0     O19718   1.068   1.953  10.306  0.4348  0.0770 -0.0457
  147MOL0     C19719   1.179   1.902  10.244 -0.2234 -0.0938 -0.9805
  147MOL0     C19720   1.294   2.003  10.267  0.2308  0.3792 -0.6473
  147MOL0     C19721   1.425   1.966  10.191  0.3410 -0.5211 -1.0263
  147MOL0     C19722   1.544   2.071  10.202  0.3027 -0.8932 -0.2653
  147MOL0     C19723   1.625   2.075  10.083 -0.4330  0.7157 -0.4705
  147MOL0     C19724   1.549   2.145   9.964 -0.5318  0.1276 -0.9897
  147MOL0     C19725   1.627   2.150   9.836  0.5571  0.4286  0.5429
  147MOL0     C19726   1.653   2.018   9.769  0.2331  0.0888 -0.5404
  147MOL0     N19727   1.727   2.048   9.646 -0.8233 -0.3002  0.3437
  147MOL0     C19728   1.860   2.013   9.626 -0.8433  0.1523 -0.1948
  147MOL0     C19729   1.882   2.044   9.497 -0.4594 -0.5470  0.0992
  147MOL0     C19730   2.011   2.033   9.417 -0.1154 -0.2459 -0.6502
  147MOL0     C19731   2.112   1.945   9.491 -0.1259  0.0026 -1.2077
  147MOL0     C19732   2.246   1.940   9.412  0.1999 -0.0464  0.4473
  147MOL0     C19733   2.344   2.044   9.468  0.3182  1.0823 -0.0240
  147MOL0     O19734   2.462   2.057   9.379 -0.0638  0.0226  0.2549
  147MOL0     C19735   2.587   2.072   9.428 -0.3430  0.5697 -0.6341
  147MOL0     C19736   2.614   2.100   9.565 -0.8611 -0.4646 -0.6705
  147MOL0     C19737   2.748   2.118   9.620  0.4650  0.0535  0.0377
  147MOL0     C19738   2.861   2.113   9.534  0.5545  0.5024  0.2003
  147MOL0     C19739   2.994   2.103   9.585  0.2465 -0.1666 -0.0528
  147MOL0     O19740   3.096   2.101   9.496 -0.2257 -0.0762 -0.1169
  147MOL0     C19741   3.226   2.098   9.535 -0.4257 -0.7193 -0.2226
  147MOL0     C19742   3.320   2.169   9.463 -0.0328  0.0132  0.6376
  147MOL0     C19743   3.456   2.160   9.496  0.1017 -0.0807 -0.2007
  147MOL0     C19744   3.502   2.089   9.615 -0.9448  0.0170  0.6690
  147MOL0     O19745   3.635   2.092   9.644 -0.6732  0.4702 -0.3215
  147MOL0     C19746   3.674   1.964   9.695 -0.2855 -0.0387  0.4155
  147MOL0     C19747   3.822   1.949   9.736 -0.5152 -0.3000 -0.1597
  147MOL0     C19748   3.853   1.814   9.799  0.1198  0.2857 -0.1909
  147MOL0     C19749   3.994   1.817   9.846 -0.9369 -0.2212 -0.7118
  147MOL0     C19750   4.022   1.693   9.939  0.5342 -0.3855  0.0593
  147MOL0     C19751   4.132   1.710  10.046 -0.2767 -0.6466  0.4286
  147MOL0     C19752   4.259   1.758   9.976  0.2025 -0.0150 -1.1390
  147MOL0     C19753   4.386   1.758  10.069 -0.5286  0.2192  0.1643
  147MOL0    Cl19754   4.535   1.815   9.975  0.0563 -0.5673  0.1085
  147MOL0     C19755   3.409   2.025   9.686 -0.5060 -0.1257 -0.3643
  147MOL0     C19756   3.275   2.033   9.651  0.0182 -0.5431  0.0448
  147MOL0     O19757   3.007   2.091   9.706  0.6302  0.3652  0.2748
  147MOL0     C19758   2.841   2.092   9.390  0.6876 -0.0674 -0.3073
  147MOL0     C19759   2.701   2.071   9.345 -1.1761 -0.2016 -0.7844
  147MOL0     N19760   1.770   2.088   9.434  0.5105  0.2759 -0.0328
  147MOL0     N19761   1.679   2.080   9.524 -0.2723 -0.3374 -0.2536
  147MOL0     C19762   0.919   1.778  10.344 -0.2554  0.6589  0.0209
  147MOL0     C19763   0.795   1.715  10.321 -0.4601  0.3259 -0.0201
  147MOL0     C19764   0.392   1.615  10.072  1.2693 -0.7282 -0.2807
  147MOL0     C19765   0.342   1.532  10.169  0.3330 -0.4207 -0.1964
  147MOL0     C19766   0.201   1.500  10.171 -0.6341  0.1130 -0.2076
  147MOL0     C19767   0.114   1.546  10.077  0.3670 -0.4140  0.1836
  147MOL0     O19768  -0.017   1.504  10.062 -0.1352 -0.2027  0.0104
  147MOL0     C19769  -0.075   1.415  10.159 -0.2126  0.1597  0.4859
  147MOL0     C19770  -0.229   1.408  10.156 -0.7135  0.3793  0.3491
  147MOL0     C19771  -0.273   1.374  10.014  0.1557 -0.4246  0.3394
  147MOL0     C19772  -0.428   1.367  10.012  0.8538  0.1323 -0.0795
  147MOL0     C19773  -0.493   1.493  10.015 -0.3992 -0.1621 -0.9086
  147MOL0     C19774  -0.557   1.597  10.002  0.1473  0.2766 -0.0585
  147MOL0     C19775   0.164   1.631   9.982 -0.3680  0.3100 -0.2102
  147MOL0     C19776   0.305   1.659   9.973 -0.0565 -0.8552 -0.0696
  147MOL0     C19777   0.340   1.766   9.865  0.0939  0.0349  0.1698
  147MOL0     H19778   0.706   1.893  10.050 -3.0031 -1.0004  1.3463
  147MOL0     H19779   0.919   2.021  10.112 -0.0053  0.4828 -1.3449
  147MOL0     H19780   1.205   1.800  10.276  1.5103 -0.2145 -2.6049
  147MOL0     H19781   1.154   1.903  10.138 -1.6492  1.8379 -0.6738
  147MOL0     H19782   1.308   2.015  10.375 -1.5009  2.2073 -0.5638
  147MOL0     H19783   1.267   2.105  10.240 -0.0972  0.3512 -0.4357
  147MOL0     H19784   1.412   1.935  10.088  1.8292 -2.0880 -0.7887
  147MOL0     H19785   1.455   1.878  10.249  1.0306 -2.0187 -3.5209
  147MOL0     H19786   1.491   2.164  10.225  2.4440  0.3606 -0.0803
  147MOL0     H19787   1.609   2.058  10.289 -0.5104  0.2312  0.5440
  147MOL0     H19788   1.720   2.126  10.104  0.3666  0.1176 -2.3990
  147MOL0     H19789   1.650   1.974  10.048  1.3691  0.6107  0.9717
  147MOL0     H19790   1.457   2.087   9.954 -0.8194  0.5409 -0.7188
  147MOL0     H19791   1.524   2.247   9.993  0.9643 -0.0706  1.2379
  147MOL0     H19792   1.721   2.201   9.858  0.3012  0.6833  1.0871
  147MOL0     H19793   1.567   2.220   9.778  3.2998  1.5112 -1.1577
  147MOL0     H19794   1.708   1.954   9.838  1.6561  3.7738  2.0961
  147MOL0     H19795   1.563   1.960   9.749  0.0810  0.1582 -0.0554
  147MOL0     H19796   1.921   1.989   9.713 -0.2372  1.3973 -0.2509
  147MOL0     H19797   1.980   1.985   9.324  0.0227 -0.9563 -0.3380
  147MOL0     H19798   2.044   2.136   9.404 -3.4334  0.9124 -0.9551
  147MOL0     H19799   2.117   1.977   9.595 -1.9026 -0.1120 -1.0590
  147MOL0     H19800   2.071   1.844   9.489 -0.2580  0.0639 -2.1081
  147MOL0     H19801   2.230   1.970   9.308  1.6673  1.5268  0.6260
  147MOL0     H19802   2.290   1.840   9.409 -2.1154 -1.1050 -0.2755
  147MOL0     H19803   2.356   2.033   9.576 -2.4929  2.3425  0.4932
  147MOL0     H19804   2.294   2.141   9.458  0.9050  1.5674  1.5029
  147MOL0     H19805   2.531   2.099   9.635 -1.2375  1.4409 -1.0462
  147MOL0     H19806   2.769   2.147   9.722  1.4757 -0.2988 -0.0572
  147MOL0     H19807   3.298   2.231   9.376  1.7177 -0.5428 -0.2483
  147MOL0     H19808   3.524   2.224   9.442 -2.9446  3.2648 -0.4620
  147MOL0     H19809   3.634   1.954   9.797  0.3334 -0.7535  0.5990
  147MOL0     H19810   3.642   1.882   9.631 -1.1785 -0.5415  1.4643
  147MOL0     H19811   3.884   1.963   9.646 -0.6970  3.5489  0.1562
  147MOL0     H19812   3.844   2.027   9.809  2.2132 -1.3154  0.2286
  147MOL0     H19813   3.795   1.801   9.891  1.6876  0.2508  0.8373
  147MOL0     H19814   3.828   1.734   9.729 -0.4103  1.2121 -1.0782
  147MOL0     H19815   4.006   1.910   9.903 -1.6658 -0.5498 -0.0010
  147MOL0     H19816   4.062   1.814   9.760  0.4459 -2.2328  0.3726
  147MOL0     H19817   4.031   1.610   9.869  0.6859  1.2782 -1.9960
  147MOL0     H19818   3.929   1.682   9.996 -0.4191 -0.3564 -1.4368
  147MOL0     H19819   4.121   1.774  10.134  1.9127  0.2708  0.1048
  147MOL0     H19820   4.152   1.612  10.090  0.5532 -0.4082  0.5986
  147MOL0     H19821   4.236   1.860   9.945 -1.0946 -0.6907 -2.5291
  147MOL0     H19822   4.271   1.700   9.885 -0.7451 -0.7657 -0.8056
  147MOL0     H19823   4.368   1.819  10.158 -2.8318 -0.1977  0.0598
  147MOL0     H19824   4.399   1.654  10.099 -2.4960 -0.6712 -1.7925
  147MOL0     H19825   3.428   1.961   9.771  0.7307 -1.2658 -1.4409
  147MOL0     H19826   3.203   1.979   9.712  0.2508 -1.4825 -0.4995
  147MOL0     H19827   2.921   2.085   9.318 -0.5707 -1.8789 -1.6246
  147MOL0     H19828   2.688   2.050   9.240 -2.6553  1.2267 -0.9187
  147MOL0     H19829   0.974   1.735  10.427 -0.8690 -1.1424 -0.4633
  147MOL0     H19830   0.759   1.628  10.374 -0.8524  0.2192 -0.4561
  147MOL0     H19831   0.399   1.497  10.254  1.1546 -0.6601 -0.8400
  147MOL0     H19832   0.173   1.430  10.250 -0.0260  2.9476  2.7056
  147MOL0     H19833  -0.048   1.435  10.263 -3.3670 -2.0250  1.8929
  147MOL0     H19834  -0.030   1.318  10.134  0.9680  1.4487 -2.8844
  147MOL0     H19835  -0.280   1.502  10.181  0.8888  1.9401 -1.9336
  147MOL0     H19836  -0.263   1.329  10.224 -0.0021 -1.5666 -1.4718
  147MOL0     H19837  -0.241   1.271   9.993 -0.3980 -0.3307 -1.0592
  147MOL0     H19838  -0.230   1.439   9.938 -1.8547 -1.0488 -1.4153
  147MOL0     H19839  -0.459   1.326   9.915  0.6426  3.3496 -1.5125
  147MOL0     H19840  -0.465   1.305  10.094 -0.3892  0.9352 -0.0028
  147MOL0     H19841  -0.624   1.680   9.995  0.9638  0.8596 -1.1909
  147MOL0     H19842   0.094   1.679   9.914 -0.8239  1.8657  1.2691
  147MOL0     H19843   0.250   1.787   9.807  1.7916 -1.0218 -3.0487
  147MOL0     H19844   0.366   1.861   9.914 -1.5263  2.0873 -2.6749
  147MOL0     H19845   0.419   1.738   9.795  0.8659  1.5037  0.4042
  148MOL0     O19846   8.960   4.793   7.712  0.3439 -0.2925  0.6485
  148MOL0     C19847   8.851   4.844   7.741  0.3171 -0.1989 -0.1272
  148MOL0     O19848   8.814   4.968   7.696 -1.1308  0.4146 -0.3470
  148MOL0     C19849   8.889   5.022   7.597 -0.0877 -0.2243  0.2992
  148MOL0     C19850   8.898   4.959   7.473 -0.2201 -0.4401 -0.3948
  148MOL0     C19851   8.965   5.011   7.366 -0.4428  0.2302 -0.1652
  148MOL0     C19852   9.006   5.143   7.371  0.0866  0.0371 -0.4879
  148MOL0     O19853   9.067   5.207   7.271  0.0952  0.0409 -0.3762
  148MOL0     C19854   9.204   5.160   7.263 -0.1705  0.5705 -0.2974
  148MOL0     C19855   9.295   5.235   7.362  0.9728  0.7429 -0.1200
  148MOL0     C19856   9.446   5.230   7.346 -0.0030 -0.3018 -0.4561
  148MOL0     C19857   9.485   5.304   7.217  0.1689 -0.6838 -0.0244
  148MOL0     C19858   9.638   5.307   7.215  0.5027  0.3175 -0.3233
  148MOL0     C19859   9.689   5.344   7.075  0.4693 -0.4940  0.3174
  148MOL0     C19860   9.843   5.322   7.073 -0.1532  0.6050 -0.0932
  148MOL0     C19861   9.915   5.448   7.133 -0.3381 -0.0243 -0.2535
  148MOL0     N19862  10.065   5.437   7.154  0.7317  0.2333  0.3359
  148MOL0     C19863  10.130   5.391   7.266 -0.5931  0.0730 -0.1209
  148MOL0     C19864  10.258   5.435   7.259  0.0995 -0.2069 -0.1390
  148MOL0     C19865  10.352   5.378   7.365  0.3024 -0.3769  0.0915
  148MOL0     C19866  10.489   5.433   7.354  0.0251 -1.1842 -0.1641
  148MOL0     C19867  10.582   5.387   7.467  0.3852 -0.1719 -0.2043
  148MOL0     C19868  10.729   5.409   7.449  0.1274  0.5436  0.3835
  148MOL0     O19869  10.754   5.550   7.434 -0.5989 -0.4227 -0.8086
  148MOL0     C19870  10.879   5.595   7.402  0.1612 -0.0131 -0.2163
  148MOL0     C19871  10.996   5.525   7.417  0.8181 -0.1757  0.3166
  148MOL0     C19872  11.115   5.595   7.396  0.0074 -0.6389  0.0512
  148MOL0     C19873  11.123   5.727   7.363 -0.8034 -0.5411  0.2053
  148MOL0     C19874  11.253   5.803   7.350  0.0003  0.4133  1.3706
  148MOL0     O19875  11.251   5.934   7.313  0.0206 -0.2365 -0.4134
  148MOL0     C19876  11.363   6.001   7.275  0.7726 -0.1926 -0.7492
  148MOL0     C19877  11.402   6.111   7.339 -0.2310 -0.7300 -0.8117
  148MOL0     C19878  11.523   6.183   7.297  0.4178  0.3787  0.2425
  148MOL0     C19879  11.589   6.145   7.184  1.0760 -0.1633  0.4840
  148MOL0     O19880  11.705   6.203   7.135  0.1738  0.5386 -0.0806
  148MOL0     C19881  11.811   6.230   7.230  0.3448  0.3714  0.4569
  148MOL0     C19882  11.946   6.251   7.158 -0.1892  0.5536  0.1681
  148MOL0     C19883  12.050   6.308   7.258  1.1047  0.2719  1.0395
  148MOL0     C19884  12.172   6.351   7.174 -0.6598  0.1748 -0.5162
  148MOL0     C19885  12.293   6.372   7.259 -0.4778 -0.2260 -0.3562
  148MOL0     C19886  12.432   6.410   7.196 -0.2723  0.1775 -0.0530
  148MOL0     C19887  12.422   6.546   7.126 -0.6606  0.1901  0.4858
  148MOL0     C19888  12.558   6.620   7.083 -0.4345 -0.6261 -0.2687
  148MOL0    Cl19889  12.675   6.502   7.018  0.1186  0.1381 -0.3130
  148MOL0     C19890  11.537   6.037   7.108  0.3531 -0.6924 -0.0135
  148MOL0     C19891  11.434   5.959   7.161 -0.0708 -0.4252  0.5842
  148MOL0     O19892  11.350   5.724   7.349  0.8117  0.2968  0.4959
  148MOL0     C19893  11.002   5.800   7.340 -0.2872  0.2712  0.7220
  148MOL0     C19894  10.883   5.730   7.360 -0.7357 -0.3007 -0.0470
  148MOL0     N19895  10.267   5.515   7.147  0.8142  0.1581 -0.5682
  148MOL0     N19896  10.154   5.508   7.085 -0.1168 -0.1420  0.3110
  148MOL0     C19897   8.988   5.214   7.487 -0.4744 -0.3334  0.4952
  148MOL0     C19898   8.930   5.156   7.601 -0.4200  0.5073 -0.6368
  148MOL0     C19899   8.752   4.780   7.842 -0.0998  0.0936  0.0061
  148MOL0     C19900   8.642   4.853   7.886 -0.0566 -0.6217 -0.1733
  148MOL0     C19901   8.568   4.811   7.996 -0.2046 -0.3073  0.0214
  148MOL0     C19902   8.586   4.687   8.060 -0.6784  0.4868 -0.0692
  148MOL0     O19903   8.518   4.644   8.174  0.1571 -0.4395  0.0692
  148MOL0     C19904   8.382   4.689   8.177 -1.0286 -0.5097  0.6706
  148MOL0     C19905   8.303   4.632   8.290 -0.0541  1.1064 -0.0952
  148MOL0     C19906   8.334   4.484   8.335 -0.0766 -0.1330 -0.1046
  148MOL0     C19907   8.225   4.420   8.427 -0.2282  0.2761 -0.2791
  148MOL0     C19908   8.093   4.433   8.357 -0.5969  0.3543  0.3191
  148MOL0     C19909   7.986   4.447   8.303 -0.0199 -0.4115 -0.1555
  148MOL0     C19910   8.692   4.612   8.011  0.3836 -0.0916  0.3470
  148MOL0     C19911   8.780   4.655   7.907  0.0780  0.1998 -0.3228
  148MOL0     C19912   8.905   4.568   7.897  0.0959  0.5101 -0.3473
  148MOL0     H19913   8.873   4.854   7.470 -0.3357 -0.3926 -1.3295
  148MOL0     H19914   8.959   4.961   7.270  0.5768 -1.3112  0.5339
  148MOL0     H19915   9.204   5.051   7.275 -0.2066  0.8353  3.3023
  148MOL0     H19916   9.233   5.194   7.164  1.6539  0.1807  0.0634
  148MOL0     H19917   9.273   5.196   7.462 -0.0406  0.3946 -0.4747
  148MOL0     H19918   9.263   5.338   7.351  0.2845  0.4230 -1.2820
  148MOL0     H19919   9.484   5.128   7.333  1.4298  0.2925 -1.1535
  148MOL0     H19920   9.498   5.273   7.432 -0.2394 -2.5775  0.9120
  148MOL0     H19921   9.442   5.251   7.131 -2.7672  0.1516  0.8235
  148MOL0     H19922   9.444   5.405   7.223  1.7184 -0.0106 -0.1916
  148MOL0     H19923   9.669   5.387   7.282 -0.5223  1.7178 -1.4476
  148MOL0     H19924   9.679   5.210   7.245 -1.0978 -0.6139 -0.9502
  148MOL0     H19925   9.630   5.290   7.000  0.6976  2.7114 -2.3628
  148MOL0     H19926   9.665   5.448   7.050  0.3492 -1.0219 -1.9574
  148MOL0     H19927   9.872   5.298   6.971 -4.5817 -0.2039 -1.3610
  148MOL0     H19928   9.868   5.236   7.136 -1.8430 -0.6131 -1.0418
  148MOL0     H19929   9.904   5.535   7.067  1.8814  0.0062 -0.6696
  148MOL0     H19930   9.864   5.471   7.227 -0.2706 -2.0274  0.3095
  148MOL0     H19931  10.078   5.329   7.338  0.5731 -0.5399  0.2209
  148MOL0     H19932  10.311   5.379   7.466 -3.3421  0.6915 -1.2017
  148MOL0     H19933  10.356   5.270   7.346  1.2585 -0.4712  0.8113
  148MOL0     H19934  10.526   5.408   7.254  0.6901  1.1319 -0.5505
  148MOL0     H19935  10.472   5.541   7.356  1.1793 -0.9768 -0.4558
  148MOL0     H19936  10.567   5.280   7.486  2.5370 -0.7403 -1.3857
  148MOL0     H19937  10.545   5.439   7.556  0.6468  0.3246 -0.3826
  148MOL0     H19938  10.761   5.349   7.364  0.2653  1.4695 -0.2260
  148MOL0     H19939  10.773   5.366   7.540 -0.5459  0.9774  0.9344
  148MOL0     H19940  10.997   5.422   7.450 -0.6709 -0.0609  0.7670
  148MOL0     H19941  11.204   5.535   7.410 -0.0882 -1.4267 -2.2238
  148MOL0     H19942  11.342   6.141   7.425  3.4459  0.6480  1.5321
  148MOL0     H19943  11.555   6.268   7.357  0.3996 -0.8756  2.1389
  148MOL0     H19944  11.786   6.315   7.294 -0.6820  1.8087 -1.7517
  148MOL0     H19945  11.819   6.140   7.292 -1.8184 -1.4595 -1.7090
  148MOL0     H19946  11.990   6.166   7.105  2.7823  1.4059  1.0657
  148MOL0     H19947  11.937   6.328   7.080  2.1326  0.7991  0.0677
  148MOL0     H19948  12.015   6.399   7.308  3.4454  0.2981  2.8188
  148MOL0     H19949  12.060   6.229   7.332  1.3976 -1.7591 -1.0595
  148MOL0     H19950  12.142   6.441   7.119  1.6951  2.1576  1.2298
  148MOL0     H19951  12.190   6.274   7.098 -0.0156 -0.5581  0.3566
  148MOL0     H19952  12.312   6.280   7.315  2.9094 -0.1280 -1.1149
  148MOL0     H19953  12.256   6.452   7.324  2.4745  2.0100 -1.2231
  148MOL0     H19954  12.518   6.403   7.264  0.0560 -0.4405 -0.5195
  148MOL0     H19955  12.455   6.330   7.126  0.9468 -0.6601  1.2517
  148MOL0     H19956  12.356   6.608   7.187  2.0091  1.2042  2.5397
  148MOL0     H19957  12.373   6.530   7.030 -1.5452  1.7914  0.6291
  148MOL0     H19958  12.536   6.692   7.003  1.1573 -0.7052 -0.8197
  148MOL0     H19959  12.594   6.669   7.173  1.5783 -0.0579 -1.3209
  148MOL0     H19960  11.585   6.018   7.013 -0.4697  0.4080 -0.6689
  148MOL0     H19961  11.398   5.873   7.105 -0.2008 -0.9331  1.4257
  148MOL0     H19962  10.995   5.898   7.295 -0.8738 -0.8837 -1.8672
  148MOL0     H19963  10.785   5.773   7.344 -1.3590 -1.8202 -0.5094
  148MOL0     H19964   9.034   5.312   7.496 -0.8993 -0.1376  0.5375
  148MOL0     H19965   8.923   5.196   7.702 -0.3088  3.0742 -1.5757
  148MOL0     H19966   8.611   4.946   7.839  4.7236 -0.1513 -3.0288
  148MOL0     H19967   8.494   4.881   8.030 -0.9882 -0.1091 -1.9457
  148MOL0     H19968   8.329   4.665   8.085 -0.3289 -0.0060  0.1279
  148MOL0     H19969   8.385   4.795   8.206 -0.2649 -0.2655 -0.2432
  148MOL0     H19970   8.199   4.646   8.257  0.1661  1.0337 -0.8362
  148MOL0     H19971   8.329   4.684   8.383 -0.0167 -1.1028  1.2117
  148MOL0     H19972   8.434   4.494   8.378  0.5227 -0.5763 -1.3514
  148MOL0     H19973   8.355   4.425   8.246  0.7571 -1.2434  0.7971
  148MOL0     H19974   8.245   4.316   8.451  0.7586  0.9468  2.0018
  148MOL0     H19975   8.231   4.472   8.523  2.8414 -1.7299  0.7604
  148MOL0     H19976   7.891   4.468   8.258  0.0192  0.7181  0.2720
  148MOL0     H19977   8.717   4.525   8.071 -1.3034 -0.7361  0.1707
  148MOL0     H19978   8.987   4.640   7.887 -0.4935  0.9638 -2.3376
  148MOL0     H19979   8.931   4.506   7.984 -1.5790  0.6680  0.3031
  148MOL0     H19980   8.892   4.504   7.809 -3.2781  0.4695  0.0777
  149MOL0     O19981   0.246   9.501  10.560  0.0400 -0.5283  0.3030
  149MOL0     C19982   0.285   9.388  10.580  0.3784  0.3748  0.6551
  149MOL0     O19983   0.402   9.354  10.634  0.1429 -0.2203  0.3293
  149MOL0     C19984   0.503   9.441  10.611 -0.0893 -0.6449  0.0232
  149MOL0     C19985   0.530   9.505  10.491 -0.0057 -0.0016  0.7698
  149MOL0     C19986   0.639   9.592  10.468  0.9147  0.6525 -0.0307
  149MOL0     C19987   0.726   9.601  10.569  0.3312 -0.5630  0.3580
  149MOL0     O19988   0.841   9.666  10.552 -0.3211 -0.1279 -0.2158
  149MOL0     C19989   0.848   9.783  10.631  0.0686  0.3095  0.5329
  149MOL0     C19990   0.963   9.768  10.734 -0.8326  0.1638  0.5275
  149MOL0     C19991   1.000   9.905  10.796  0.2467  0.0505 -0.7651
  149MOL0     C19992   1.103   9.873  10.906  0.1575 -0.6814  0.6977
  149MOL0     C19993   1.152  10.004  10.965 -0.2593 -0.6151  0.1233
  149MOL0     C19994   1.270  10.074  10.880  0.0732 -0.0888 -0.0444
  149MOL0     C19995   1.350  10.170  10.971 -0.5228  0.0961 -0.2340
  149MOL0     C19996   1.483  10.198  10.893  0.7029  0.6832  0.2510
  149MOL0     N19997   1.519  10.347  10.901 -0.2855  0.4620  0.2826
  149MOL0     C19998   1.594  10.415  11.000  0.7791  0.3245  0.5537
  149MOL0     C19999   1.618  10.533  10.936  1.2770  0.7611 -0.4120
  149MOL0     C20000   1.699  10.645  11.000  0.2303 -0.5266  0.7349
  149MOL0     C20001   1.832  10.602  11.055 -1.0696 -0.3909  0.5402
  149MOL0     C20002   1.927  10.560  10.942  0.2117 -0.3135  0.0693
  149MOL0     C20003   2.065  10.564  10.996 -0.1234  0.7097 -0.3260
  149MOL0     O20004   2.098  10.457  11.090  0.4688  0.2689 -0.1082
  149MOL0     C20005   2.220  10.466  11.155  0.0315  0.4464  0.0827
  149MOL0     C20006   2.326  10.547  11.119 -0.2320 -0.0619  0.8246
  149MOL0     C20007   2.449  10.544  11.179  0.5576 -0.0216  0.0329
  149MOL0     C20008   2.472  10.446  11.277 -0.2482 -0.1625  0.1015
  149MOL0     C20009   2.607  10.435  11.333 -0.6696  0.8423 -0.6693
  149MOL0     O20010   2.684  10.546  11.332  0.4024  0.4834  0.1532
  149MOL0     C20011   2.808  10.562  11.393 -0.0987 -0.4724 -0.1808
  149MOL0     C20012   2.877  10.675  11.355  0.3391 -0.0842  0.5349
  149MOL0     C20013   3.010  10.691  11.390  0.4795 -0.4675 -0.2126
  149MOL0     C20014   3.076  10.605  11.475 -0.3922 -0.7491 -0.0100
  149MOL0     O20015   3.211  10.609  11.495  0.6175 -0.6113 -0.5059
  149MOL0     C20016   3.296  10.696  11.421  0.2810 -1.2396 -0.8283
  149MOL0     C20017   3.445  10.662  11.446 -0.9058  0.8832 -0.6599
  149MOL0     C20018   3.488  10.675  11.599  0.3474 -0.2144  0.0178
  149MOL0     C20019   3.641  10.676  11.598 -0.9336 -0.6054  0.0605
  149MOL0     C20020   3.696  10.727  11.730  0.2838 -0.4464 -0.1939
  149MOL0     C20021   3.843  10.721  11.745  0.0964 -0.4790 -0.1437
  149MOL0     C20022   3.887  10.800  11.873  0.1486  0.2778  0.5058
  149MOL0     C20023   4.039  10.820  11.876  0.1154 -1.4953  0.3291
  149MOL0    Cl20024   4.109  10.662  11.887  0.3715 -0.2312  0.2992
  149MOL0     C20025   3.000  10.497  11.513 -0.4297  0.5043  0.3551
  149MOL0     C20026   2.868  10.469  11.479 -0.4311 -0.2864  0.1011
  149MOL0     O20027   2.646  10.325  11.372  0.4911 -0.6241 -0.2439
  149MOL0     C20028   2.361  10.369  11.324 -1.1660 -0.3683  0.3127
  149MOL0     C20029   2.239  10.376  11.265  0.2214 -0.4981  0.5538
  149MOL0     N20030   1.568  10.528  10.803  0.0350 -0.4514 -0.3390
  149MOL0     N20031   1.497  10.425  10.795 -0.2565 -0.1004  1.2289
  149MOL0     C20032   0.697   9.542  10.694 -0.9253 -0.6728  0.1131
  149MOL0     C20033   0.594   9.464  10.712 -0.0940 -0.3180  0.2437
  149MOL0     C20034   0.188   9.286  10.540 -0.2416 -0.4779  0.3116
  149MOL0     C20035   0.052   9.299  10.569 -0.9009 -0.1891 -0.3551
  149MOL0     C20036  -0.042   9.200  10.543 -0.3293  0.4184 -0.1923
  149MOL0     C20037   0.001   9.077  10.491 -0.1148 -0.4283  0.5744
  149MOL0     O20038  -0.091   8.984  10.465  0.6975  0.4728 -0.1095
  149MOL0     C20039  -0.037   8.852  10.439 -0.5280  0.2570 -0.3423
  149MOL0     C20040  -0.164   8.756  10.430  0.9112  0.2628 -0.0649
  149MOL0     C20041  -0.122   8.599  10.436 -0.2711 -0.4626  0.0786
  149MOL0     C20042  -0.105   8.547  10.578  0.6319 -0.6021 -0.1925
  149MOL0     C20043  -0.234   8.489  10.615  0.2948  0.0838  0.9008
  149MOL0     C20044  -0.338   8.433  10.641 -0.9447 -0.2319  0.6481
  149MOL0     C20045   0.142   9.059  10.466 -0.1172  0.1387  0.1056
  149MOL0     C20046   0.227   9.168  10.483  0.0554  0.6582 -0.2131
  149MOL0     C20047   0.365   9.164  10.421 -0.3960 -0.2794  0.0919
  149MOL0     H20048   0.471   9.476  10.404  2.5710 -0.1142 -1.0723
  149MOL0     H20049   0.667   9.643  10.376  2.0523  0.4674  0.1975
  149MOL0     H20050   0.870   9.855  10.552 -1.1971  1.0315  0.7881
  149MOL0     H20051   0.758   9.814  10.686 -0.0874  1.9426 -0.5577
  149MOL0     H20052   1.055   9.733  10.686 -0.0685  2.2702  0.3487
  149MOL0     H20053   0.936   9.704  10.819 -0.5433  1.5351  1.6847
  149MOL0     H20054   0.915   9.962  10.836 -0.4010  0.2554 -2.3693
  149MOL0     H20055   1.045   9.970  10.720  1.0369  0.2922 -0.1017
  149MOL0     H20056   1.052   9.823  10.988 -1.5772  0.8147  0.5929
  149MOL0     H20057   1.190   9.811  10.882 -0.3072 -0.4680 -1.8507
  149MOL0     H20058   1.069  10.074  10.980  0.0583 -0.0763 -0.5316
  149MOL0     H20059   1.193   9.980  11.063  0.1089  0.4243  0.2379
  149MOL0     H20060   1.348  10.004  10.848  1.8370  1.0630  1.5032
  149MOL0     H20061   1.223  10.122  10.794 -2.1500 -1.0523  0.5477
  149MOL0     H20062   1.372  10.120  11.066  0.6053  1.4617  0.2516
  149MOL0     H20063   1.288  10.256  10.997 -1.4509 -0.6898  0.2272
  149MOL0     H20064   1.557  10.133  10.940 -0.4256 -0.2940  0.7270
  149MOL0     H20065   1.485  10.179  10.785  1.0061  1.6738  0.0723
  149MOL0     H20066   1.623  10.379  11.098  0.3437 -0.6582  0.3348
  149MOL0     H20067   1.717  10.721  10.923  0.7786  0.9770  2.2782
  149MOL0     H20068   1.635  10.690  11.076  0.0165 -0.1977  0.3661
  149MOL0     H20069   1.870  10.694  11.099 -1.9706  0.1976  0.1193
  149MOL0     H20070   1.832  10.527  11.135  1.4658  1.0915  2.0881
  149MOL0     H20071   1.918  10.622  10.852 -0.5682  0.0094  0.3560
  149MOL0     H20072   1.890  10.464  10.905 -0.9268  0.9885 -2.4585
  149MOL0     H20073   2.092  10.663  11.033  1.2455  0.2434 -0.0272
  149MOL0     H20074   2.135  10.539  10.916  0.3855 -2.5273  0.9786
  149MOL0     H20075   2.317  10.628  11.048  3.7547 -1.1661 -1.2324
  149MOL0     H20076   2.527  10.617  11.157  2.9702 -2.9898 -2.0131
  149MOL0     H20077   2.831  10.750  11.292 -2.0299 -2.5540 -0.8943
  149MOL0     H20078   3.056  10.783  11.354  1.7482 -0.9171  0.2083
  149MOL0     H20079   3.273  10.680  11.316 -0.8999 -2.9875 -0.3379
  149MOL0     H20080   3.275  10.795  11.463  1.6758 -1.8812  1.5970
  149MOL0     H20081   3.464  10.561  11.407  2.4262  0.5604  1.3986
  149MOL0     H20082   3.502  10.733  11.386 -0.7692  1.2474 -0.1094
  149MOL0     H20083   3.460  10.775  11.632  1.1276  0.3911 -1.0927
  149MOL0     H20084   3.442  10.594  11.657 -1.7971  1.3554  0.6254
  149MOL0     H20085   3.683  10.745  11.524 -1.8182  0.8717  0.8691
  149MOL0     H20086   3.683  10.579  11.572  2.6575  1.4276 -2.7073
  149MOL0     H20087   3.655  10.676  11.818  1.7531  0.1590  0.8980
  149MOL0     H20088   3.659  10.829  11.741 -0.4051 -0.8955  2.1885
  149MOL0     H20089   3.871  10.616  11.750  0.2379 -0.5296 -1.5810
  149MOL0     H20090   3.896  10.774  11.664  1.9015 -1.2346  0.4969
  149MOL0     H20091   3.851  10.739  11.957  0.4182  2.3965  2.2471
  149MOL0     H20092   3.855  10.905  11.875  0.9225  0.5445  3.0353
  149MOL0     H20093   4.067  10.871  11.783  0.1083  2.3368  2.2004
  149MOL0     H20094   4.078  10.885  11.955 -0.8088 -0.5620  0.0425
  149MOL0     H20095   3.052  10.414  11.560 -0.9165 -0.6772 -1.1126
  149MOL0     H20096   2.826  10.376  11.515 -0.3145 -0.0229  0.9314
  149MOL0     H20097   2.371  10.301  11.408 -2.8374  1.8856  2.5043
  149MOL0     H20098   2.165  10.307  11.304 -1.7008  1.2226  0.1347
  149MOL0     H20099   0.770   9.544  10.775 -0.8737  1.2384  0.0669
  149MOL0     H20100   0.587   9.407  10.804  0.5384 -2.0544 -0.7362
  149MOL0     H20101   0.008   9.388  10.613 -2.6801 -1.5463  0.7373
  149MOL0     H20102  -0.148   9.217  10.557 -1.4996 -1.5626 -4.8929
  149MOL0     H20103   0.035   8.825  10.517 -0.6066 -2.2158 -1.0497
  149MOL0     H20104   0.012   8.842  10.341  0.1001  1.0066 -0.1119
  149MOL0     H20105  -0.212   8.768  10.332 -0.0909 -1.9820  0.0771
  149MOL0     H20106  -0.237   8.778  10.508  0.9374  1.5343 -0.3777
  149MOL0     H20107  -0.024   8.591  10.389  0.2821  1.2412  0.8603
  149MOL0     H20108  -0.199   8.547  10.378 -2.6250 -0.1621  2.7069
  149MOL0     H20109  -0.039   8.460  10.571 -0.8110 -1.6864 -0.7557
  149MOL0     H20110  -0.070   8.615  10.656  1.2513  0.3463 -1.2684
  149MOL0     H20111  -0.410   8.363  10.678  0.8845 -2.3717  0.4024
  149MOL0     H20112   0.192   8.979  10.413 -0.1773  0.9043 -1.1608
  149MOL0     H20113   0.437   9.147  10.501  1.8743  0.2167 -1.7378
  149MOL0     H20114   0.377   9.082  10.349 -3.1913  1.0098 -2.0299
  149MOL0     H20115   0.369   9.259  10.368 -3.4400 -0.1923 -0.1678
  150MOL0     O20116  10.787   2.682   9.952  0.5052 -0.1076 -0.0249
  150MOL0     C20117  10.789   2.707  10.075  0.5479 -0.0280  0.3428
  150MOL0     O20118  10.897   2.690  10.159  0.6052  0.0588 -0.4711
  150MOL0     C20119  11.014   2.664  10.092 -0.2586 -0.2518  0.6152
  150MOL0     C20120  11.034   2.563  10.000  0.2164 -0.0797 -0.0074
  150MOL0     C20121  11.164   2.521   9.956 -0.0018  0.6022 -0.2679
  150MOL0     C20122  11.285   2.587  10.001  1.0169 -0.2190 -0.3312
  150MOL0     O20123  11.405   2.531   9.972 -0.2086 -0.0395 -0.0966
  150MOL0     C20124  11.512   2.629   9.943 -0.1774 -0.5519 -0.5221
  150MOL0     C20125  11.523   2.656   9.791 -0.0529  0.3332  0.0822
  150MOL0     C20126  11.632   2.758   9.762 -0.2707 -0.4951  0.0234
  150MOL0     C20127  11.685   2.770   9.610 -0.7672  0.2138  0.8790
  150MOL0     C20128  11.783   2.885   9.576 -0.5189  1.5454 -0.5976
  150MOL0     C20129  11.839   2.860   9.432  0.1982  0.0357 -0.5478
  150MOL0     C20130  11.914   2.978   9.380 -0.6760 -0.8200  0.2010
  150MOL0     C20131  11.967   2.934   9.243 -1.2079  0.0246 -0.3822
  150MOL0     N20132  12.062   2.832   9.264 -0.7920 -0.0847 -0.3878
  150MOL0     C20133  12.187   2.851   9.311 -0.3522  0.4193 -0.4691
  150MOL0     C20134  12.246   2.726   9.314 -0.5662  0.4808 -0.0461
  150MOL0     C20135  12.382   2.691   9.352  0.6343  0.3136 -0.9884
  150MOL0     C20136  12.499   2.723   9.268 -0.0254  0.0817  0.1192
  150MOL0     C20137  12.497   2.653   9.130 -0.3410  0.7587 -0.1560
  150MOL0     C20138  12.632   2.615   9.077 -0.6645 -0.1697  0.4594
  150MOL0     O20139  12.716   2.735   9.074 -0.8931  0.0531  0.7269
  150MOL0     C20140  12.857   2.734   9.070 -0.6605 -0.1699  0.2414
  150MOL0     C20141  12.917   2.646   8.989  0.3865  0.2414  0.0867
  150MOL0     C20142  13.052   2.655   8.965 -0.1635 -0.3885 -0.8210
  150MOL0     C20143  13.134   2.745   9.038  0.5846  0.0793 -0.1467
  150MOL0     C20144  13.285   2.746   9.036 -0.7611  0.3906 -0.4117
  150MOL0     O20145  13.357   2.823   9.128  0.0556  0.4128 -0.4734
  150MOL0     C20146  13.492   2.839   9.136  0.3394  0.8663 -0.1404
  150MOL0     C20147  13.599   2.757   9.076 -0.0568 -0.9951  0.6739
  150MOL0     C20148  13.735   2.783   9.114  0.5225 -0.1361  0.0767
  150MOL0     C20149  13.761   2.890   9.209 -0.0648 -0.2953 -0.0848
  150MOL0     O20150  13.894   2.898   9.243  0.2318  0.2829 -0.5753
  150MOL0     C20151  13.933   2.978   9.355  0.9205  0.1939  0.1370
  150MOL0     C20152  14.082   2.990   9.361  0.1867  0.2620 -0.4795
  150MOL0     C20153  14.164   3.008   9.238  0.3078 -0.3603  0.4181
  150MOL0     C20154  14.123   3.144   9.173  0.1311 -0.0995  0.5119
  150MOL0     C20155  14.211   3.173   9.045  0.4663 -0.4438  0.8304
  150MOL0     C20156  14.363   3.192   9.054 -0.5080  0.3200 -0.2675
  150MOL0     C20157  14.406   3.264   9.178  0.3817 -0.9290 -0.9472
  150MOL0     C20158  14.551   3.310   9.177 -1.6615  0.0960  0.1141
  150MOL0    Cl20159  14.591   3.444   9.300  0.2467 -0.0554  0.2065
  150MOL0     C20160  13.660   2.965   9.263  0.1710 -0.4590  0.0664
  150MOL0     C20161  13.525   2.943   9.227  0.2297  0.7899 -0.5387
  150MOL0     O20162  13.334   2.665   8.962 -0.7953 -0.1762  0.1051
  150MOL0     C20163  13.067   2.832   9.124 -0.2502 -0.1640  0.3251
  150MOL0     C20164  12.929   2.835   9.138  0.8560 -0.5465 -0.1773
  150MOL0     N20165  12.162   2.631   9.268  0.0268  0.1327  0.2776
  150MOL0     N20166  12.054   2.698   9.237 -0.0635  0.8235 -0.5039
  150MOL0     C20167  11.260   2.691  10.090  0.7889 -0.2163  0.2921
  150MOL0     C20168  11.133   2.732  10.128  0.0373  1.4689  0.4189
  150MOL0     C20169  10.661   2.747  10.135  0.0400  0.3252 -0.3549
  150MOL0     C20170  10.671   2.825  10.255  0.1956 -1.0102 -0.0973
  150MOL0     C20171  10.555   2.846  10.330 -0.2468 -0.3295  0.1549
  150MOL0     C20172  10.428   2.809  10.294 -0.0822  0.5210 -0.0445
  150MOL0     O20173  10.335   2.832  10.386  0.9805  0.2577 -1.0622
  150MOL0     C20174  10.216   2.758  10.363  0.3748  0.5101 -0.5510
  150MOL0     C20175  10.119   2.761  10.482  0.3345 -0.2866  0.3234
  150MOL0     C20176   9.992   2.676  10.457  0.6253 -0.1795  0.2330
  150MOL0     C20177   9.877   2.706  10.556 -0.1515 -0.1262  0.2428
  150MOL0     C20178   9.765   2.608  10.538 -0.2276 -0.4362 -1.0205
  150MOL0     C20179   9.695   2.516  10.512 -0.0233 -0.4648  0.5311
  150MOL0     C20180  10.417   2.743  10.168  0.2239 -0.8225  1.2746
  150MOL0     C20181  10.529   2.706  10.092 -1.1384  0.2517  0.2494
  150MOL0     C20182  10.518   2.624   9.966 -0.0839 -0.0864  0.4044
  150MOL0     H20183  10.947   2.506   9.967 -0.2253 -0.9530  2.3996
  150MOL0     H20184  11.172   2.437   9.887 -0.4778 -1.5268  2.1485
  150MOL0     H20185  11.503   2.717  10.007  3.1663 -0.8789  0.6262
  150MOL0     H20186  11.605   2.592   9.988  0.3527 -1.4325 -2.2545
  150MOL0     H20187  11.426   2.678   9.745 -2.1474 -1.2029  3.3712
  150MOL0     H20188  11.559   2.561   9.751  1.0731  1.0914 -0.7895
  150MOL0     H20189  11.718   2.739   9.827 -0.0357 -0.3303 -0.2316
  150MOL0     H20190  11.583   2.851   9.793 -0.7407  0.1041 -2.3471
  150MOL0     H20191  11.745   2.679   9.608 -0.2516  0.3410  4.1569
  150MOL0     H20192  11.604   2.768   9.536  1.9399 -2.6638 -2.3536
  150MOL0     H20193  11.728   2.978   9.586 -0.5362  1.4134  0.7298
  150MOL0     H20194  11.858   2.866   9.654 -1.9861 -0.7021  0.3593
  150MOL0     H20195  11.905   2.772   9.433 -1.7796 -1.5525 -1.4021
  150MOL0     H20196  11.753   2.838   9.367 -0.5736  0.1894  0.3960
  150MOL0     H20197  11.988   2.997   9.458  0.2480  0.4353 -0.9440
  150MOL0     H20198  11.843   3.061   9.383  0.8726  0.5305  0.9330
  150MOL0     H20199  11.890   2.899   9.173 -0.1303 -1.1771 -1.0036
  150MOL0     H20200  12.011   3.024   9.198 -0.7604 -0.5475 -1.1246
  150MOL0     H20201  12.236   2.946   9.331  0.3235  0.1365 -0.7418
  150MOL0     H20202  12.391   2.740   9.450 -2.9754  1.7568 -1.2293
  150MOL0     H20203  12.388   2.584   9.373  2.5584  0.5952  0.1348
  150MOL0     H20204  12.491   2.830   9.246 -1.3120 -0.0331 -0.0258
  150MOL0     H20205  12.587   2.698   9.328 -0.8587  1.0852  1.8268
  150MOL0     H20206  12.432   2.716   9.069 -1.6790 -0.5378 -0.1020
  150MOL0     H20207  12.451   2.556   9.146 -0.0283  0.7854  0.9642
  150MOL0     H20208  12.626   2.584   8.972 -1.6407  3.5614 -0.7558
  150MOL0     H20209  12.671   2.536   9.142  1.9544  0.7580  0.1410
  150MOL0     H20210  12.867   2.568   8.932 -1.7501  1.0688  0.7333
  150MOL0     H20211  13.101   2.582   8.901  1.7917 -0.9228  1.1596
  150MOL0     H20212  13.570   2.681   9.004 -0.7129  0.3999 -0.6031
  150MOL0     H20213  13.818   2.731   9.066  0.4669 -0.1999  0.0496
  150MOL0     H20214  13.897   3.081   9.345  2.4509  1.0746  2.7468
  150MOL0     H20215  13.900   2.930   9.447  0.2557 -0.6985 -0.5369
  150MOL0     H20216  14.106   3.061   9.440  0.1521  1.6778 -1.6816
  150MOL0     H20217  14.115   2.892   9.396 -0.6105 -0.4054 -1.5069
  150MOL0     H20218  14.269   2.992   9.261  0.5726  1.0542  0.3029
  150MOL0     H20219  14.126   2.935   9.165 -1.4911 -1.8126  2.6673
  150MOL0     H20220  14.139   3.221   9.250 -0.3252 -1.6657  2.2426
  150MOL0     H20221  14.017   3.143   9.146  0.7632 -1.5644 -2.2097
  150MOL0     H20222  14.170   3.264   9.000 -0.2425 -1.1285  0.0898
  150MOL0     H20223  14.203   3.096   8.969  0.6853 -0.8070  1.1713
  150MOL0     H20224  14.398   3.089   9.062 -1.7585 -0.0499  1.0352
  150MOL0     H20225  14.409   3.233   8.964  0.4654 -0.8279 -0.3114
  150MOL0     H20226  14.390   3.209   9.271  1.5690 -2.2921 -1.5138
  150MOL0     H20227  14.347   3.357   9.177  2.8858  0.7602 -1.5366
  150MOL0     H20228  14.604   3.220   9.212 -2.6367 -0.6712 -0.3350
  150MOL0     H20229  14.582   3.331   9.074 -0.0328 -0.2216  0.5108
  150MOL0     H20230  13.676   3.040   9.339 -0.9615 -1.0748  0.9558
  150MOL0     H20231  13.449   2.993   9.286  1.5081  1.1190  0.8926
  150MOL0     H20232  13.115   2.897   9.197  0.4051 -1.6251  1.2329
  150MOL0     H20233  12.868   2.895   9.205 -1.3235 -0.1381 -2.3695
  150MOL0     H20234  11.340   2.748  10.137  0.0067  1.6097 -0.4967
  150MOL0     H20235  11.127   2.816  10.197  0.7196  1.0604  0.9870
  150MOL0     H20236  10.766   2.854  10.299 -0.2550  1.2730 -0.5138
  150MOL0     H20237  10.580   2.887  10.427  1.0917 -1.9940  0.5479
  150MOL0     H20238  10.238   2.653  10.341 -0.8617  0.3585 -1.1187
  150MOL0     H20239  10.156   2.795  10.279 -0.8345 -2.0862 -0.9312
  150MOL0     H20240  10.100   2.867  10.504  3.2131  0.2924  0.3289
  150MOL0     H20241  10.175   2.724  10.568  3.5270  1.3224 -0.9221
  150MOL0     H20242  10.018   2.570  10.456 -0.9505 -0.6210 -2.1159
  150MOL0     H20243   9.956   2.695  10.355  0.2249 -1.3218  0.1518
  150MOL0     H20244   9.905   2.692  10.661  0.1706  4.0334  0.8808
  150MOL0     H20245   9.844   2.811  10.551 -0.2540 -0.0458  2.1269
  150MOL0     H20246   9.626   2.438  10.490  0.5399 -0.1717 -2.8524
  150MOL0     H20247  10.323   2.703  10.130  0.1312  0.1241  0.4657
  150MOL0     H20248  10.584   2.537   9.966 -1.5036 -1.2239 -0.6262
  150MOL0     H20249  10.419   2.583   9.945 -0.8179  0.3447  2.6861
  150MOL0     H20250  10.546   2.693   9.886  0.9864 -1.8899 -0.8325
  151MOL0     O20251   1.035  10.855   2.127  0.1517 -0.1339  0.3110
  151MOL0     C20252   1.006  10.972   2.141  0.1066 -0.0193 -0.2937
  151MOL0     O20253   1.102  11.078   2.164  0.8819  0.3821 -0.9128
  151MOL0     C20254   1.237  11.056   2.169 -0.4241 -1.0518 -0.0544
  151MOL0     C20255   1.322  11.160   2.128 -0.6356  0.0578 -0.6989
  151MOL0     C20256   1.463  11.148   2.123  1.6353 -0.0822  0.2277
  151MOL0     C20257   1.530  11.034   2.163 -0.0106  0.8700  0.3612
  151MOL0     O20258   1.666  11.017   2.148  0.0777  0.3782 -0.3205
  151MOL0     C20259   1.737  11.112   2.068 -1.1976  0.4151  0.0112
  151MOL0     C20260   1.884  11.088   2.052  0.8103  0.1550  0.1244
  151MOL0     C20261   1.969  11.094   2.173 -0.5642 -0.0219  0.4874
  151MOL0     C20262   1.993  11.234   2.231  0.2255  0.2533  0.1282
  151MOL0     C20263   2.082  11.221   2.358  0.4723 -0.9592  0.6085
  151MOL0     C20264   2.086  11.346   2.438 -0.3575  0.1626 -0.0718
  151MOL0     C20265   2.178  11.449   2.384  0.7143 -0.7724  0.4774
  151MOL0     C20266   2.208  11.566   2.476 -0.5305 -0.4497 -0.8116
  151MOL0     N20267   2.309  11.669   2.428  0.1353 -0.3738  0.2056
  151MOL0     C20268   2.418  11.643   2.353  0.1697 -0.4022  0.1988
  151MOL0     C20269   2.457  11.760   2.293 -1.1676 -0.0694  0.0447
  151MOL0     C20270   2.553  11.790   2.178  0.6689  0.3877 -1.3625
  151MOL0     C20271   2.656  11.893   2.212  0.4314  0.1121  0.5636
  151MOL0     C20272   2.747  11.935   2.098 -0.8441 -0.2453  0.6654
  151MOL0     C20273   2.879  11.995   2.158  0.6770 -0.1698 -0.6771
  151MOL0     O20274   2.975  11.907   2.212 -0.7779 -0.1227 -0.3663
  151MOL0     C20275   3.074  11.969   2.284 -0.5386  0.0670 -0.1259
  151MOL0     C20276   3.113  12.107   2.273 -0.1236 -0.0468 -0.9264
  151MOL0     C20277   3.234  12.152   2.327  0.7639 -0.5886  0.7423
  151MOL0     C20278   3.322  12.069   2.395 -0.1950 -0.2454  0.5143
  151MOL0     C20279   3.455  12.125   2.454 -0.7488  0.7006  0.1127
  151MOL0     O20280   3.560  12.051   2.426 -0.3117  0.2813  0.4355
  151MOL0     C20281   3.681  12.121   2.442  0.4414  0.7432  0.1047
  151MOL0     C20282   3.727  12.215   2.358 -0.3874 -0.6215 -0.4127
  151MOL0     C20283   3.868  12.268   2.372 -0.6021  0.1243 -0.2157
  151MOL0     C20284   3.955  12.208   2.464 -0.5039 -0.3516 -0.7003
  151MOL0     O20285   4.089  12.224   2.482  0.4813 -0.8036  0.3790
  151MOL0     C20286   4.168  12.258   2.366 -0.5280 -0.3823 -0.6156
  151MOL0     C20287   4.322  12.271   2.401 -0.4886  0.0376 -0.1415
  151MOL0     C20288   4.390  12.148   2.464  0.0196  0.2486 -0.6607
  151MOL0     C20289   4.391  12.018   2.380  0.7757  0.0739  0.0281
  151MOL0     C20290   4.480  11.919   2.442 -0.5635 -0.0240  0.5761
  151MOL0     C20291   4.444  11.771   2.402  0.6619 -0.4786  0.3012
  151MOL0     C20292   4.526  11.675   2.489  0.6891  0.4484 -0.4039
  151MOL0     C20293   4.492  11.529   2.457  0.0774 -0.1421 -0.2574
  151MOL0    Cl20294   4.527  11.446   2.604 -0.2163  0.0018 -0.2067
  151MOL0     C20295   3.902  12.121   2.551 -0.2203  0.0176 -0.3456
  151MOL0     C20296   3.767  12.074   2.542 -0.0754  0.6563  1.0422
  151MOL0     O20297   3.463  12.240   2.492 -0.0485 -0.1967 -0.4216
  151MOL0     C20298   3.280  11.933   2.413  0.2177  0.4113  0.3029
  151MOL0     C20299   3.163  11.885   2.353  0.3554 -0.1035  0.1095
  151MOL0     N20300   2.371  11.850   2.347  0.6429  0.1670 -0.7425
  151MOL0     N20301   2.282  11.800   2.428  0.5372 -0.0841  0.1213
  151MOL0     C20302   1.449  10.930   2.211  0.8743  0.2864  0.1574
  151MOL0     C20303   1.305  10.940   2.221  0.3978 -0.6257  0.9005
  151MOL0     C20304   0.862  11.011   2.125 -0.5567  0.0516 -1.0655
  151MOL0     C20305   0.766  10.911   2.137 -0.2447  0.1102 -0.4474
  151MOL0     C20306   0.627  10.945   2.122 -0.8443 -0.5263  0.1481
  151MOL0     C20307   0.589  11.077   2.078 -0.5402 -0.0004  0.1666
  151MOL0     O20308   0.451  11.097   2.056 -0.1691 -0.2836 -0.1604
  151MOL0     C20309   0.404  11.235   2.024  0.3430  1.1156 -0.2365
  151MOL0     C20310   0.252  11.237   2.040 -0.4330 -0.1155 -0.5108
  151MOL0     C20311   0.186  11.123   1.957  0.6521 -0.9160 -0.0668
  151MOL0     C20312   0.041  11.100   1.988 -0.0421 -0.7074  0.3633
  151MOL0     C20313  -0.034  11.228   1.961  0.5839  0.5473  0.6814
  151MOL0     C20314  -0.110  11.327   1.947 -0.8567  0.3601 -0.4750
  151MOL0     C20315   0.687  11.171   2.072 -0.0740 -0.2179 -0.6517
  151MOL0     C20316   0.815  11.148   2.089  0.0026  0.1051  0.1780
  151MOL0     C20317   0.901  11.270   2.068 -0.6602  0.0423 -0.2438
  151MOL0     H20318   1.272  11.246   2.087  0.2297  1.2074  0.5670
  151MOL0     H20319   1.506  11.241   2.088 -0.2602  1.9763  2.9308
  151MOL0     H20320   1.684  11.114   1.972  0.1069  0.3616 -0.7299
  151MOL0     H20321   1.727  11.206   2.124  1.6060  2.5844 -2.7779
  151MOL0     H20322   1.929  11.159   1.982 -0.3386  2.8814  1.9526
  151MOL0     H20323   1.899  10.989   2.009 -1.2255 -2.4301  4.6444
  151MOL0     H20324   2.067  11.058   2.140 -1.3198 -1.1422 -0.6538
  151MOL0     H20325   1.936  11.015   2.240 -1.7195 -0.0960 -0.1459
  151MOL0     H20326   2.035  11.305   2.160 -0.8691  1.7928  0.9642
  151MOL0     H20327   1.897  11.274   2.266  1.6188  3.7729  0.3140
  151MOL0     H20328   2.040  11.137   2.415 -2.2387 -1.3739 -1.7519
  151MOL0     H20329   2.183  11.189   2.328  0.4925 -1.0537  0.7759
  151MOL0     H20330   1.986  11.388   2.454 -1.5702 -2.3737 -0.5322
  151MOL0     H20331   2.128  11.317   2.534  3.5688  1.3179 -1.2436
  151MOL0     H20332   2.129  11.488   2.294  0.5902  2.1086  1.6891
  151MOL0     H20333   2.274  11.406   2.355  2.5090  0.9803  3.3863
  151MOL0     H20334   2.117  11.620   2.504  1.5799  1.5964  2.8404
  151MOL0     H20335   2.251  11.530   2.570  1.8843  0.3436 -1.5319
  151MOL0     H20336   2.457  11.548   2.319  0.5454 -0.2912  0.3220
  151MOL0     H20337   2.606  11.697   2.156  0.9251  0.7169 -2.1843
  151MOL0     H20338   2.487  11.813   2.093 -1.0061 -0.2492 -0.2950
  151MOL0     H20339   2.605  11.983   2.247 -0.2776  0.3343 -0.9495
  151MOL0     H20340   2.711  11.851   2.297  1.2978 -0.0798 -0.0721
  151MOL0     H20341   2.690  12.011   2.043  0.9725  0.6490 -0.0945
  151MOL0     H20342   2.768  11.849   2.033  0.4903  0.9376 -0.5707
  151MOL0     H20343   2.846  12.051   2.246 -0.4377 -1.7597 -0.0365
  151MOL0     H20344   2.932  12.052   2.082  0.3840 -0.1179 -0.8411
  151MOL0     H20345   3.043  12.181   2.236  0.9553  1.1677 -0.6223
  151MOL0     H20346   3.248  12.260   2.319  0.3257 -0.6255 -0.8603
  151MOL0     H20347   3.655  12.259   2.290  0.2634  0.5894 -0.3384
  151MOL0     H20348   3.915  12.338   2.304 -0.4673  2.5530  2.1781
  151MOL0     H20349   4.166  12.175   2.295 -1.4681 -0.0457 -0.9997
  151MOL0     H20350   4.125  12.349   2.322 -1.6235 -1.4160 -1.7888
  151MOL0     H20351   4.380  12.293   2.311  0.5703 -3.8048 -0.5713
  151MOL0     H20352   4.321  12.354   2.473 -1.1646 -1.0816  1.1894
  151MOL0     H20353   4.492  12.182   2.486  0.4592 -0.7246 -1.1794
  151MOL0     H20354   4.345  12.125   2.561  1.0106  0.0436 -0.2298
  151MOL0     H20355   4.419  12.041   2.277 -2.1144 -0.4522 -0.9849
  151MOL0     H20356   4.286  11.987   2.373  0.7360  0.0126  0.8600
  151MOL0     H20357   4.479  11.934   2.550 -1.9648  0.5850  0.5087
  151MOL0     H20358   4.582  11.939   2.409 -0.5695 -1.5049 -0.4211
  151MOL0     H20359   4.338  11.747   2.412  0.6622 -0.6934 -0.1916
  151MOL0     H20360   4.480  11.751   2.301  0.9167 -0.6669  0.4262
  151MOL0     H20361   4.495  11.683   2.594 -2.6950  2.3281 -1.3844
  151MOL0     H20362   4.636  11.674   2.491  0.8011  1.0969  4.4274
  151MOL0     H20363   4.394  11.507   2.413 -0.5478 -1.6975  1.7621
  151MOL0     H20364   4.561  11.496   2.378 -0.1715 -0.1792 -0.4647
  151MOL0     H20365   3.972  12.068   2.615  1.7616  0.9377 -1.6371
  151MOL0     H20366   3.737  12.001   2.616 -0.5197 -0.6333 -0.3667
  151MOL0     H20367   3.345  11.859   2.457  0.5427  1.7388  2.1716
  151MOL0     H20368   3.138  11.780   2.359  0.2357 -0.0052  1.5482
  151MOL0     H20369   1.484  10.830   2.238  1.1514 -0.5883 -2.9826
  151MOL0     H20370   1.248  10.854   2.254  1.0561 -0.5247  2.3701
  151MOL0     H20371   0.792  10.809   2.165 -2.1450 -0.3975 -0.3980
  151MOL0     H20372   0.539  10.882   2.127 -1.1347 -1.2440 -6.0519
  151MOL0     H20373   0.443  11.270   1.928 -1.0032  1.0160 -0.8404
  151MOL0     H20374   0.437  11.311   2.095 -0.3026  3.0780 -1.9389
  151MOL0     H20375   0.225  11.336   2.001  0.2266  0.2638 -0.0328
  151MOL0     H20376   0.225  11.227   2.145 -1.3757  1.4166 -0.5696
  151MOL0     H20377   0.233  11.024   1.960  0.1291 -1.1505  1.0469
  151MOL0     H20378   0.200  11.148   1.852 -1.9323  2.5752  0.2384
  151MOL0     H20379   0.000  11.033   1.912 -0.7262  0.2136 -0.1157
  151MOL0     H20380   0.033  11.067   2.091 -2.3649 -1.6336 -0.0624
  151MOL0     H20381  -0.158  11.422   1.942  1.8703  2.0265  1.9877
  151MOL0     H20382   0.646  11.271   2.056  0.6437  0.7809  2.8538
  151MOL0     H20383   0.841  11.358   2.043  0.6989  0.8831 -0.6012
  151MOL0     H20384   0.952  11.292   2.162 -3.0762  2.7400  0.5690
  151MOL0     H20385   0.976  11.251   1.990  1.2104 -2.9804  2.0725
  152MOL0     O20386   0.837   0.667   4.635  0.5107 -0.1693 -0.3661
  152MOL0     C20387   0.770   0.769   4.609  0.3686 -0.0686 -0.5042
  152MOL0     O20388   0.806   0.869   4.519  0.0124 -0.5324 -0.2397
  152MOL0     C20389   0.937   0.891   4.510  0.5380 -0.6213 -0.1219
  152MOL0     C20390   0.989   1.012   4.542  0.2123  0.4494  0.6570
  152MOL0     C20391   1.122   1.052   4.505  0.2662  0.3780 -0.8430
  152MOL0     C20392   1.205   0.972   4.439 -0.1592  0.2656 -0.0008
  152MOL0     O20393   1.333   1.017   4.421  0.6651  0.1316  0.1511
  152MOL0     C20394   1.439   0.929   4.366  0.5087 -0.2219 -0.3564
  152MOL0     C20395   1.506   0.873   4.493 -0.2097 -0.0190  0.5887
  152MOL0     C20396   1.622   0.787   4.454 -0.9369 -0.3424 -0.1219
  152MOL0     C20397   1.683   0.743   4.583 -0.3723  0.4605 -0.3124
  152MOL0     C20398   1.819   0.681   4.560 -0.0781  0.0898 -0.4946
  152MOL0     C20399   1.889   0.676   4.695  0.8331 -0.3036 -0.0536
  152MOL0     C20400   2.005   0.582   4.701  0.4243  0.1089  0.1180
  152MOL0     C20401   2.122   0.623   4.608  0.3168 -0.1730  0.4328
  152MOL0     N20402   2.186   0.745   4.651 -0.1664  0.7369  0.3442
  152MOL0     C20403   2.291   0.725   4.741  0.7293 -0.6674 -0.5524
  152MOL0     C20404   2.320   0.851   4.767  0.4561  0.6335  0.3465
  152MOL0     C20405   2.436   0.887   4.859 -0.0610 -0.0924 -1.1342
  152MOL0     C20406   2.534   0.968   4.776 -0.4787 -0.0430  0.2348
  152MOL0     C20407   2.665   0.985   4.845  0.1169  0.7190 -0.9253
  152MOL0     C20408   2.770   0.974   4.727  0.4907 -0.6840 -0.2904
  152MOL0     O20409   2.904   1.010   4.772  0.4186  1.2943  0.4165
  152MOL0     C20410   3.000   1.027   4.679 -0.2040 -0.1082  0.1688
  152MOL0     C20411   2.990   1.001   4.545 -0.3395  0.2584  0.8014
  152MOL0     C20412   3.102   1.034   4.463 -0.0966  0.6882  0.3579
  152MOL0     C20413   3.226   1.072   4.520  0.2394  0.0576 -0.3514
  152MOL0     C20414   3.356   1.074   4.445 -0.7057 -0.1369 -0.1159
  152MOL0     O20415   3.470   1.083   4.524  0.3656 -0.1128  0.0661
  152MOL0     C20416   3.601   1.042   4.501  0.4198 -1.4251  0.5909
  152MOL0     C20417   3.700   1.071   4.600  0.1924 -0.5819 -0.2662
  152MOL0     C20418   3.835   1.036   4.584  0.1984 -0.1510 -0.8943
  152MOL0     C20419   3.873   0.956   4.468 -0.4753  0.4784  0.0377
  152MOL0     O20420   3.998   0.896   4.456  0.1043  0.2907  0.3492
  152MOL0     C20421   4.098   0.938   4.552 -1.5185  0.3523  0.3982
  152MOL0     C20422   4.231   0.876   4.528  0.0537  0.0919 -0.6702
  152MOL0     C20423   4.346   0.964   4.587  0.1646 -0.4100 -0.4310
  152MOL0     C20424   4.473   0.940   4.510  0.1106  0.4348 -0.4233
  152MOL0     C20425   4.600   0.990   4.587 -0.7109  0.1628 -0.3525
  152MOL0     C20426   4.738   0.942   4.537  0.4012  1.0903  0.3820
  152MOL0     C20427   4.762   0.982   4.389  0.2663 -0.3941 -0.3428
  152MOL0     C20428   4.877   0.903   4.321 -0.0616 -0.5363 -0.1355
  152MOL0    Cl20429   5.022   0.929   4.421 -0.0639 -0.4087 -0.0712
  152MOL0     C20430   3.771   0.931   4.364 -0.1599 -0.2265 -0.7725
  152MOL0     C20431   3.645   0.975   4.382  1.1342  0.1619  0.7154
  152MOL0     O20432   3.353   1.041   4.324 -0.6303  0.1245 -0.1198
  152MOL0     C20433   3.231   1.106   4.658  0.8994  0.0572  0.2986
  152MOL0     C20434   3.119   1.083   4.735 -0.3159  0.5125  0.4018
  152MOL0     N20435   2.238   0.942   4.707  0.2326  0.1670  0.9785
  152MOL0     N20436   2.156   0.879   4.637  0.2302  0.2247 -0.0271
  152MOL0     C20437   1.153   0.841   4.418 -0.7175 -0.4739  0.1723
  152MOL0     C20438   1.020   0.800   4.450 -0.4561 -0.4885 -1.1765
  152MOL0     C20439   0.642   0.784   4.680  0.0023 -0.1278 -0.6388
  152MOL0     C20440   0.539   0.847   4.609  0.0148  0.7785  0.4924
  152MOL0     C20441   0.409   0.857   4.653 -1.0630 -0.8350  0.7220
  152MOL0     C20442   0.377   0.803   4.783  0.3808 -0.0149 -0.3315
  152MOL0     O20443   0.252   0.813   4.841  0.3339 -0.5798 -0.2413
  152MOL0     C20444   0.141   0.856   4.760 -0.0929 -0.1346  0.3775
  152MOL0     C20445   0.003   0.867   4.834 -0.3902  0.8658 -0.2453
  152MOL0     C20446  -0.027   0.740   4.913 -0.8762  0.3100  0.0981
  152MOL0     C20447  -0.180   0.705   4.897 -0.2192 -0.2312  0.1819
  152MOL0     C20448  -0.228   0.599   4.989 -0.3005 -0.2839 -0.7148
  152MOL0     C20449  -0.290   0.529   5.060  0.3133 -0.0915  0.0358
  152MOL0     C20450   0.483   0.762   4.872  0.7168 -0.5964  0.9909
  152MOL0     C20451   0.610   0.743   4.813 -1.5331  0.3701 -0.5720
  152MOL0     C20452   0.711   0.679   4.909  0.1106 -0.3243 -0.1119
  152MOL0     H20453   0.926   1.083   4.595 -0.8567 -0.7986  1.1240
  152MOL0     H20454   1.147   1.154   4.533  0.9816 -0.2343  0.8929
  152MOL0     H20455   1.393   0.855   4.299 -0.6701  0.2640 -0.1149
  152MOL0     H20456   1.513   0.985   4.309  2.0094 -0.2865  1.4187
  152MOL0     H20457   1.421   0.810   4.523  0.1992 -0.3360  1.0876
  152MOL0     H20458   1.532   0.941   4.574  0.0341  1.1446 -0.4281
  152MOL0     H20459   1.699   0.846   4.403  2.4829 -1.2260  3.5228
  152MOL0     H20460   1.590   0.699   4.397 -1.9826  0.8878 -1.4991
  152MOL0     H20461   1.694   0.831   4.648 -0.4828  0.6840 -0.5947
  152MOL0     H20462   1.616   0.671   4.631 -0.1687 -0.0189 -0.7365
  152MOL0     H20463   1.795   0.580   4.525 -1.2204 -0.8768  2.7623
  152MOL0     H20464   1.878   0.732   4.483 -1.9283 -0.6186 -2.4827
  152MOL0     H20465   1.930   0.770   4.734 -0.2211 -0.4711  1.5762
  152MOL0     H20466   1.805   0.653   4.762 -1.3559  0.4942 -2.3702
  152MOL0     H20467   1.962   0.487   4.669 -2.1183  2.5141 -4.7967
  152MOL0     H20468   2.037   0.580   4.805 -0.6307 -1.8925  0.4486
  152MOL0     H20469   2.190   0.537   4.606 -0.4622 -0.8333  1.0414
  152MOL0     H20470   2.089   0.643   4.506  2.6873 -0.2918 -0.4221
  152MOL0     H20471   2.348   0.639   4.775  0.4477 -1.0176 -0.9519
  152MOL0     H20472   2.396   0.954   4.935 -0.9057  0.0113 -1.6635
  152MOL0     H20473   2.484   0.793   4.887 -1.5285 -0.9104 -1.2759
  152MOL0     H20474   2.558   0.918   4.682  0.1900  1.7953 -0.6074
  152MOL0     H20475   2.495   1.064   4.742  0.2680  0.5860  1.0884
  152MOL0     H20476   2.689   0.907   4.918 -1.0145  1.2337  0.0213
  152MOL0     H20477   2.673   1.078   4.901  0.7880  0.8793 -1.2775
  152MOL0     H20478   2.749   1.044   4.645  0.7929  0.5210  0.6342
  152MOL0     H20479   2.768   0.868   4.700  2.3981 -1.5115  2.4614
  152MOL0     H20480   2.901   0.959   4.498  0.0079  0.0919  0.2826
  152MOL0     H20481   3.102   1.001   4.360  0.8621  0.2766  0.4763
  152MOL0     H20482   3.677   1.138   4.683 -0.2651  1.3404 -1.8800
  152MOL0     H20483   3.903   1.055   4.666 -0.1144 -1.9257 -0.1691
  152MOL0     H20484   4.115   1.045   4.534  2.2996  0.0512  1.2691
  152MOL0     H20485   4.064   0.917   4.654 -0.7634 -0.4619  0.4969
  152MOL0     H20486   4.235   0.774   4.569 -1.8941 -0.6970 -2.2956
  152MOL0     H20487   4.248   0.879   4.420 -3.2287  0.7556 -1.2554
  152MOL0     H20488   4.322   1.068   4.567 -1.2553 -0.0899  2.4281
  152MOL0     H20489   4.364   0.952   4.695 -0.9083 -1.7037 -0.3679
  152MOL0     H20490   4.468   0.967   4.404  0.7282 -0.3508 -0.6605
  152MOL0     H20491   4.489   0.832   4.506 -0.6751  0.3150 -0.5596
  152MOL0     H20492   4.602   0.954   4.691  1.9246 -0.2525 -0.4814
  152MOL0     H20493   4.601   1.099   4.585  1.8098  0.2726  1.4103
  152MOL0     H20494   4.818   0.983   4.598  0.9304  0.6913 -0.0358
  152MOL0     H20495   4.750   0.833   4.544 -0.0002  0.7976 -2.2490
  152MOL0     H20496   4.794   1.086   4.379  1.2959 -0.8151 -1.6299
  152MOL0     H20497   4.680   0.969   4.318  1.7119 -0.2916 -2.1063
  152MOL0     H20498   4.848   0.798   4.317 -0.6207 -0.3572 -1.6490
  152MOL0     H20499   4.885   0.934   4.216 -1.1424 -0.4230 -0.2006
  152MOL0     H20500   3.804   0.864   4.285  0.6334 -1.9613  0.9250
  152MOL0     H20501   3.590   0.948   4.292  0.8755 -0.9456  1.1940
  152MOL0     H20502   3.322   1.147   4.701  1.4023  0.4216 -1.0399
  152MOL0     H20503   3.120   1.103   4.841 -4.2590  1.9770  0.3310
  152MOL0     H20504   1.205   0.759   4.369  0.8355  1.3154 -1.3439
  152MOL0     H20505   1.000   0.694   4.442  2.1128 -1.3603  1.7616
  152MOL0     H20506   0.565   0.878   4.508 -0.5411  0.5633  0.2780
  152MOL0     H20507   0.340   0.898   4.580 -0.4713 -0.5415  0.3249
  152MOL0     H20508   0.131   0.786   4.676 -1.4606 -0.4673  0.7955
  152MOL0     H20509   0.169   0.957   4.726 -2.1656 -0.4964 -2.8237
  152MOL0     H20510  -0.077   0.877   4.760 -2.0122 -0.2577  1.2819
  152MOL0     H20511   0.001   0.954   4.901 -0.4284  0.7524 -0.0990
  152MOL0     H20512  -0.022   0.757   5.021 -1.7595 -0.6866  0.3111
  152MOL0     H20513   0.040   0.658   4.884 -1.1144 -1.1226  3.2066
  152MOL0     H20514  -0.238   0.797   4.909 -0.4069 -0.2940 -0.2181
  152MOL0     H20515  -0.196   0.661   4.798 -1.8045 -0.2111  0.4128
  152MOL0     H20516  -0.355   0.471   5.123 -0.1904  1.3146  0.8483
  152MOL0     H20517   0.472   0.750   4.979  3.1405 -0.8186  1.2710
  152MOL0     H20518   0.809   0.719   4.878 -1.2099  1.9901 -1.6274
  152MOL0     H20519   0.688   0.696   5.015 -0.8830 -1.2782 -0.1647
  152MOL0     H20520   0.710   0.571   4.893  0.2732 -0.3701  0.1730
  153MOL0     O20521  10.473   0.096   0.501 -0.8391  0.0054 -0.2502
  153MOL0     C20522  10.363   0.039   0.494 -0.3575  0.1257  0.6386
  153MOL0     O20523  10.343  -0.074   0.418 -0.3857  0.3119 -0.1770
  153MOL0     C20524  10.456  -0.121   0.354  1.1960 -0.1285  0.0911
  153MOL0     C20525  10.568  -0.174   0.428 -0.0437  0.4794 -0.2216
  153MOL0     C20526  10.683  -0.215   0.366  0.3046  0.7088 -0.0455
  153MOL0     C20527  10.699  -0.200   0.228  0.7528 -0.2604  0.0429
  153MOL0     O20528  10.806  -0.231   0.149  0.3991 -0.7282  1.0859
  153MOL0     C20529  10.932  -0.259   0.208  1.1270 -0.5955  1.1121
  153MOL0     C20530  11.042  -0.246   0.106  0.7332 -0.7888 -1.0709
  153MOL0     C20531  11.186  -0.266   0.167  0.2927  0.6598  0.2165
  153MOL0     C20532  11.268  -0.266   0.039 -0.4960  0.3446  0.3260
  153MOL0     C20533  11.420  -0.260   0.077  1.1585 -0.2427  0.1249
  153MOL0     C20534  11.456  -0.116   0.125 -0.0203 -1.2046 -0.5753
  153MOL0     C20535  11.596  -0.118   0.193  0.0136  0.1185  0.2964
  153MOL0     C20536  11.712  -0.083   0.085 -0.5297  0.0262  0.1671
  153MOL0     N20537  11.845  -0.054   0.146  0.3897 -0.1547 -0.1767
  153MOL0     C20538  11.866   0.043   0.235 -0.1913 -1.3183  0.2090
  153MOL0     C20539  11.998   0.047   0.269  1.3238 -0.7409  0.2746
  153MOL0     C20540  12.050   0.156   0.351 -0.1178  0.8836 -0.5514
  153MOL0     C20541  12.207   0.145   0.354  0.6992 -0.2853 -0.2811
  153MOL0     C20542  12.248   0.049   0.472  0.2720  0.0916  0.3393
  153MOL0     C20543  12.388   0.073   0.507  0.1129  0.1271  0.3117
  153MOL0     O20544  12.399   0.190   0.592  0.4025  0.0646 -0.2930
  153MOL0     C20545  12.521   0.254   0.607 -0.2715  0.2444  0.3346
  153MOL0     C20546  12.644   0.209   0.561  0.6403 -0.1286  0.0765
  153MOL0     C20547  12.765   0.280   0.598  0.4872 -0.5289  0.2371
  153MOL0     C20548  12.754   0.403   0.663  0.0274 -0.5856 -0.0132
  153MOL0     C20549  12.867   0.484   0.700 -0.0895  0.5717 -0.2424
  153MOL0     O20550  12.985   0.457   0.639 -0.0509 -0.1456  0.4797
  153MOL0     C20551  13.103   0.530   0.661  0.5028 -0.6294 -0.5876
  153MOL0     C20552  13.095   0.673   0.648  0.1212  0.1857 -0.0948
  153MOL0     C20553  13.217   0.740   0.645  1.1032 -0.3916 -0.2256
  153MOL0     C20554  13.341   0.676   0.655 -0.4112  0.3329 -0.1701
  153MOL0     O20555  13.450   0.756   0.636 -0.1524 -0.0539  0.6482
  153MOL0     C20556  13.568   0.690   0.612 -0.2444  0.0377  0.3727
  153MOL0     C20557  13.673   0.802   0.553  0.9592 -0.8351 -0.4493
  153MOL0     C20558  13.820   0.753   0.548 -0.0185  0.3335  0.5242
  153MOL0     C20559  13.938   0.855   0.561  0.5368  0.1827  0.8747
  153MOL0     C20560  14.083   0.800   0.563  0.4691 -1.1181 -0.4873
  153MOL0     C20561  14.129   0.737   0.440  0.1246  0.0243  0.0957
  153MOL0     C20562  14.114   0.832   0.312  0.6282  0.1174 -0.5759
  153MOL0     C20563  14.187   0.774   0.184  0.1175 -0.5103  0.2247
  153MOL0    Cl20564  14.122   0.618   0.120 -0.0831 -0.3695 -0.0501
  153MOL0     C20565  13.345   0.543   0.681 -0.0093  0.0918 -0.2714
  153MOL0     C20566  13.229   0.468   0.689  0.0930  0.2565 -0.5232
  153MOL0     O20567  12.858   0.551   0.804  0.3339  0.2855  0.0114
  153MOL0     C20568  12.626   0.449   0.695 -0.2031  0.0793  0.3730
  153MOL0     C20569  12.514   0.374   0.675  0.1983 -0.2740  0.2729
  153MOL0     N20570  12.058  -0.057   0.196 -0.0487  0.4557  0.4403
  153MOL0     N20571  11.961  -0.124   0.144 -0.0280 -0.0109  0.6669
  153MOL0     C20572  10.588  -0.149   0.152 -0.0424  0.3572 -0.5069
  153MOL0     C20573  10.466  -0.104   0.216  0.7403  0.0656  0.0105
  153MOL0     C20574  10.239   0.097   0.570  0.3091  0.3491 -0.9186
  153MOL0     C20575  10.119   0.024   0.567 -0.7233  0.2452 -0.3053
  153MOL0     C20576  10.004   0.070   0.625 -0.7507 -0.2838 -0.1312
  153MOL0     C20577  10.010   0.187   0.701  0.1072  0.5455  0.8085
  153MOL0     O20578   9.893   0.220   0.753  1.1238  0.0075  0.2848
  153MOL0     C20579   9.890   0.289   0.880  0.3236  0.2345  0.1138
  153MOL0     C20580   9.764   0.305   0.962  0.5963 -0.0972  0.3942
  153MOL0     C20581   9.691   0.169   0.997 -0.4539 -0.2622  0.8748
  153MOL0     C20582   9.557   0.153   0.921  0.1613  0.0982  0.2993
  153MOL0     C20583   9.498   0.019   0.934  0.1764  0.0601 -0.4818
  153MOL0     C20584   9.447  -0.098   0.938  0.6055 -0.0934 -0.2683
  153MOL0     C20585  10.122   0.266   0.696 -0.2156 -0.3231  0.1231
  153MOL0     C20586  10.241   0.219   0.638  0.0741  0.2831 -0.3573
  153MOL0     C20587  10.351   0.312   0.635 -0.0754  0.7574 -1.0922
  153MOL0     H20588  10.557  -0.189   0.534  1.6219 -3.8310 -0.4645
  153MOL0     H20589  10.761  -0.279   0.405  2.0682  3.1428  0.6743
  153MOL0     H20590  10.957  -0.182   0.282  0.1804  0.4747  0.3456
  153MOL0     H20591  10.939  -0.354   0.262  0.9409 -0.5363  1.2409
  153MOL0     H20592  11.028  -0.145   0.067  3.4157 -0.7548 -2.1421
  153MOL0     H20593  11.020  -0.313   0.022 -1.8386 -0.2091 -0.9409
  153MOL0     H20594  11.200  -0.360   0.220 -2.1113  1.0121  1.6537
  153MOL0     H20595  11.201  -0.193   0.247  1.5548 -0.4524  1.0306
  153MOL0     H20596  11.254  -0.361  -0.014 -0.8133  0.2291  0.6117
  153MOL0     H20597  11.249  -0.184  -0.031 -0.0304 -1.7144 -2.3424
  153MOL0     H20598  11.441  -0.330   0.159 -0.5145  1.5806  2.1995
  153MOL0     H20599  11.487  -0.288  -0.005  0.7948 -0.5381 -0.0771
  153MOL0     H20600  11.459  -0.038   0.049 -1.0545  0.7248  1.2463
  153MOL0     H20601  11.392  -0.070   0.202 -0.3524  0.6313 -1.8893
  153MOL0     H20602  11.619  -0.215   0.238 -1.6776 -1.0601 -1.2448
  153MOL0     H20603  11.604  -0.033   0.261  2.0078  1.3535 -1.3683
  153MOL0     H20604  11.715  -0.159   0.007 -0.8426  1.3267 -1.1673
  153MOL0     H20605  11.679   0.007   0.031  0.0526  0.9682  1.3198
  153MOL0     H20606  11.792   0.110   0.278  1.4953  0.4580  0.4971
  153MOL0     H20607  12.004   0.246   0.310 -4.1425 -0.6282  0.2166
  153MOL0     H20608  12.022   0.146   0.456  2.1102  2.0824  0.2274
  153MOL0     H20609  12.256   0.107   0.264 -0.3721 -3.8567  0.4936
  153MOL0     H20610  12.242   0.247   0.373 -2.3454  1.1554 -1.6155
  153MOL0     H20611  12.233  -0.057   0.447 -0.8229  0.4916 -0.8124
  153MOL0     H20612  12.185   0.077   0.557 -0.4952 -1.3655  0.2832
  153MOL0     H20613  12.437   0.061   0.409 -3.0654  0.2823 -1.4490
  153MOL0     H20614  12.408  -0.015   0.568  1.2655  0.8228  0.9652
  153MOL0     H20615  12.649   0.115   0.508 -2.5387 -1.1095  1.2690
  153MOL0     H20616  12.861   0.239   0.568  0.4983 -1.0901  1.0093
  153MOL0     H20617  13.006   0.733   0.631 -0.9178 -0.8029  1.5328
  153MOL0     H20618  13.230   0.846   0.626  1.9025 -0.6232 -1.0141
  153MOL0     H20619  13.613   0.637   0.697  0.9508 -1.1024 -0.9178
  153MOL0     H20620  13.558   0.602   0.548  0.5545 -0.0430  0.3361
  153MOL0     H20621  13.628   0.831   0.458  1.3972 -2.7477 -1.2742
  153MOL0     H20622  13.680   0.884   0.626  2.9958 -1.9621  0.7110
  153MOL0     H20623  13.829   0.675   0.624  0.5314  1.3865  1.5710
  153MOL0     H20624  13.837   0.712   0.448  0.7020  0.4086  0.6106
  153MOL0     H20625  13.930   0.906   0.657 -0.5109  0.5471  0.6210
  153MOL0     H20626  13.926   0.934   0.485 -1.3559 -0.7535  0.1151
  153MOL0     H20627  14.100   0.736   0.650 -1.1146  1.4510  1.9120
  153MOL0     H20628  14.152   0.885   0.572  1.3481 -1.9882  2.0170
  153MOL0     H20629  14.234   0.706   0.439 -0.1619 -1.0997 -2.3644
  153MOL0     H20630  14.078   0.642   0.419 -1.2624  0.7975 -0.1846
  153MOL0     H20631  14.161   0.930   0.330  0.7658 -0.4092  2.4132
  153MOL0     H20632  14.008   0.850   0.293  0.2531  0.3997  1.4916
  153MOL0     H20633  14.188   0.847   0.102  2.1420 -0.7568 -0.0229
  153MOL0     H20634  14.295   0.767   0.202  0.6044  1.7138 -1.2978
  153MOL0     H20635  13.438   0.492   0.704  2.6747  4.2987 -0.6263
  153MOL0     H20636  13.236   0.361   0.704 -1.9210  0.4289  2.6556
  153MOL0     H20637  12.628   0.550   0.736  3.3650 -0.5071  2.0337
  153MOL0     H20638  12.418   0.412   0.708  1.0895  1.6917  0.7366
  153MOL0     H20639  10.595  -0.139   0.044  2.0935 -0.9135 -0.5400
  153MOL0     H20640  10.387  -0.067   0.152 -0.3676 -0.8745  0.8151
  153MOL0     H20641  10.119  -0.068   0.511  1.4190  0.9443 -1.5634
  153MOL0     H20642   9.914   0.009   0.633  0.9190 -2.6750  2.1054
  153MOL0     H20643   9.937   0.388   0.876 -0.2751  0.5874  1.3234
  153MOL0     H20644   9.959   0.228   0.939 -1.5055 -2.0607 -0.0008
  153MOL0     H20645   9.705   0.376   0.903  0.1707 -2.1174 -1.7656
  153MOL0     H20646   9.796   0.356   1.053 -2.2523 -1.5563  2.3515
  153MOL0     H20647   9.679   0.168   1.105  0.7349  1.3402  1.0619
  153MOL0     H20648   9.764   0.088   0.985  2.6395  2.4332 -0.0589
  153MOL0     H20649   9.495   0.231   0.967 -0.0521  1.3283 -1.9301
  153MOL0     H20650   9.581   0.170   0.816  2.5483  1.6902  1.0125
  153MOL0     H20651   9.398  -0.189   0.964  0.7585  0.6441  3.0150
  153MOL0     H20652  10.130   0.364   0.743 -1.1874  0.0269 -0.4038
  153MOL0     H20653  10.353   0.398   0.703  0.8251 -1.7213  2.2356
  153MOL0     H20654  10.437   0.253   0.668  0.8987  1.2756 -2.5693
  153MOL0     H20655  10.368   0.350   0.534 -0.2268  2.2586 -0.5780
  154MOL0     O20656  10.203   5.648   5.128 -0.7050 -0.0245  0.4295
  154MOL0     C20657  10.122   5.598   5.202 -0.6971  0.2805 -0.4560
  154MOL0     O20658  10.132   5.471   5.247 -0.1219 -0.0997  0.2852
  154MOL0     C20659  10.246   5.393   5.229 -0.0497  0.8466 -1.0757
  154MOL0     C20660  10.227   5.252   5.244  0.6531 -0.0709 -0.1218
  154MOL0     C20661  10.334   5.165   5.254 -0.2834  0.9621  0.4273
  154MOL0     C20662  10.462   5.215   5.236 -0.6618  0.2660 -0.5675
  154MOL0     O20663  10.577   5.141   5.249 -0.0887 -0.2774  0.2908
  154MOL0     C20664  10.601   5.035   5.149  0.2257  0.4017 -0.5771
  154MOL0     C20665  10.694   4.933   5.200 -0.3331  0.2951 -0.0858
  154MOL0     C20666  10.839   4.987   5.206 -0.7182  0.3717 -0.0540
  154MOL0     C20667  10.919   4.972   5.066  1.0882 -0.6339 -0.3514
  154MOL0     C20668  11.055   5.049   5.067  0.3391  0.1800 -0.4759
  154MOL0     C20669  11.149   5.008   5.176  1.0634  0.6607 -0.3280
  154MOL0     C20670  11.301   5.010   5.131  0.6146  0.6050 -0.1446
  154MOL0     C20671  11.375   4.980   5.264  0.2491  0.2834  0.2949
  154MOL0     N20672  11.511   4.995   5.225 -0.7180 -0.1355 -0.0772
  154MOL0     C20673  11.592   5.100   5.253 -1.0559  0.4729  0.9143
  154MOL0     C20674  11.710   5.064   5.203 -0.7593  0.2247  0.3368
  154MOL0     C20675  11.820   5.170   5.187 -0.0746  0.4063  0.6471
  154MOL0     C20676  11.957   5.100   5.205 -0.3824 -0.7726  0.2859
  154MOL0     C20677  12.068   5.197   5.154  0.9303  0.4224 -0.5482
  154MOL0     C20678  12.202   5.120   5.161  0.2142  0.3889 -0.2544
  154MOL0     O20679  12.301   5.222   5.155 -0.9988  0.2616 -0.0278
  154MOL0     C20680  12.440   5.188   5.154  0.9189 -0.1343 -1.2641
  154MOL0     C20681  12.532   5.285   5.126 -0.2496  0.0801  1.1361
  154MOL0     C20682  12.672   5.262   5.115 -0.0323  0.3210  0.3130
  154MOL0     C20683  12.724   5.133   5.142  0.6811 -0.0831 -0.4926
  154MOL0     C20684  12.869   5.102   5.140  0.4189 -0.3202 -0.5041
  154MOL0     O20685  12.950   5.205   5.152  0.1268  0.3744 -0.0643
  154MOL0     C20686  13.089   5.182   5.153 -0.6243 -1.3398 -0.3149
  154MOL0     C20687  13.162   5.148   5.041  0.4008 -0.2260  0.7996
  154MOL0     C20688  13.300   5.127   5.049  0.0627  0.8709 -0.4478
  154MOL0     C20689  13.371   5.144   5.168 -0.0431  0.0513  0.0029
  154MOL0     O20690  13.502   5.117   5.161  0.5804  1.2862 -0.2453
  154MOL0     C20691  13.583   5.201   5.241 -0.4893 -0.1367 -0.8383
  154MOL0     C20692  13.673   5.126   5.341  0.4857 -0.2233 -0.5991
  154MOL0     C20693  13.715   5.221   5.465  0.4320  0.2960  0.5690
  154MOL0     C20694  13.765   5.142   5.582 -0.9747 -0.6939 -0.2384
  154MOL0     C20695  13.781   5.229   5.704  0.1090 -0.3866 -0.4050
  154MOL0     C20696  13.849   5.367   5.683  0.4311 -0.3193 -0.3814
  154MOL0     C20697  13.918   5.413   5.816 -0.1775 -0.3660 -0.7153
  154MOL0     C20698  14.029   5.514   5.794  0.3918 -0.2943  0.1722
  154MOL0    Cl20699  14.152   5.524   5.926 -0.0425 -0.3852  0.3114
  154MOL0     C20700  13.300   5.180   5.282 -0.1930 -0.3224  0.2180
  154MOL0     C20701  13.158   5.194   5.274 -0.1345 -0.0183 -0.0751
  154MOL0     O20702  12.901   4.986   5.137  0.2468 -0.6995  0.5804
  154MOL0     C20703  12.624   5.033   5.173  0.2194  0.4252  0.3929
  154MOL0     C20704  12.483   5.053   5.173  0.7949 -0.6193  0.0788
  154MOL0     N20705  11.702   4.943   5.145  1.0370 -0.3171 -0.3382
  154MOL0     N20706  11.585   4.899   5.162  0.1539  0.3672  0.2940
  154MOL0     C20707  10.480   5.351   5.221 -0.2167  0.3210  0.2564
  154MOL0     C20708  10.378   5.443   5.211  0.4962 -0.8557  0.3894
  154MOL0     C20709  10.004   5.676   5.241 -0.6995  0.1744  1.1232
  154MOL0     C20710   9.892   5.602   5.283 -0.5423  0.9490 -0.3844
  154MOL0     C20711   9.776   5.665   5.316  0.4123 -0.2966  0.0562
  154MOL0     C20712   9.764   5.809   5.303 -0.2531 -0.0583 -0.8770
  154MOL0     O20713   9.655   5.883   5.341 -0.1880 -0.6804  0.6912
  154MOL0     C20714   9.658   5.952   5.466 -0.2318  0.6089 -0.8182
  154MOL0     C20715   9.626   5.869   5.585  0.0461 -0.6533  0.3880
  154MOL0     C20716   9.478   5.832   5.580 -0.8096  0.4642 -0.5728
  154MOL0     C20717   9.411   5.822   5.715  1.2362 -0.6091 -0.1561
  154MOL0     C20718   9.267   5.778   5.711 -0.4953  0.7147  0.5608
  154MOL0     C20719   9.154   5.730   5.728  0.0649  0.1121 -0.5332
  154MOL0     C20720   9.882   5.881   5.262 -0.9140  0.3801  0.4568
  154MOL0     C20721  10.002   5.816   5.234  0.0322  1.0632  0.5597
  154MOL0     C20722  10.124   5.903   5.207 -0.6233  0.6889  0.6949
  154MOL0     H20723  10.128   5.207   5.235  0.3194  1.0475 -3.2929
  154MOL0     H20724  10.319   5.059   5.269 -1.5373  1.1063  0.2338
  154MOL0     H20725  10.507   4.985   5.125 -0.0566  0.6200  0.0555
  154MOL0     H20726  10.633   5.087   5.058  0.4712  1.7551  0.2557
  154MOL0     H20727  10.687   4.839   5.145 -0.3289 -0.2887  0.8766
  154MOL0     H20728  10.669   4.919   5.306  0.0602  0.1362 -0.0133
  154MOL0     H20729  10.893   4.930   5.282  2.2993  0.3042 -2.0765
  154MOL0     H20730  10.833   5.091   5.238 -0.7637  0.3677 -0.0482
  154MOL0     H20731  10.937   4.865   5.050  0.6093 -1.0982  1.8463
  154MOL0     H20732  10.852   5.001   4.985 -0.1457 -1.7142  0.2478
  154MOL0     H20733  11.085   5.026   4.964 -0.4763 -1.9725 -0.2882
  154MOL0     H20734  11.018   5.152   5.073 -1.9575 -0.5185 -1.2810
  154MOL0     H20735  11.120   5.082   5.251 -1.3664  1.3943 -1.8900
  154MOL0     H20736  11.129   4.907   5.214  0.5424  0.2219 -1.7116
  154MOL0     H20737  11.323   5.108   5.088  0.3205  1.0568  0.7116
  154MOL0     H20738  11.318   4.923   5.067  0.5225  0.0463  0.5764
  154MOL0     H20739  11.351   5.053   5.341  0.7465  0.9022 -0.1298
  154MOL0     H20740  11.353   4.881   5.304  2.3519 -0.5640 -0.5480
  154MOL0     H20741  11.576   5.187   5.317  0.5374  1.6183 -0.1495
  154MOL0     H20742  11.808   5.211   5.086  0.6613 -1.1219 -0.1005
  154MOL0     H20743  11.802   5.251   5.258  2.5040  0.7278  1.0394
  154MOL0     H20744  11.968   5.073   5.311 -1.5693  0.0469  0.6356
  154MOL0     H20745  11.955   5.007   5.147 -0.8235 -1.4326  1.3268
  154MOL0     H20746  12.074   5.282   5.222 -2.0246  1.7880 -1.8021
  154MOL0     H20747  12.057   5.229   5.050 -0.3607 -1.3451 -1.0126
  154MOL0     H20748  12.214   5.048   5.080 -1.2926  0.7469 -0.8353
  154MOL0     H20749  12.209   5.063   5.254  3.1155  0.8469 -0.0987
  154MOL0     H20750  12.498   5.382   5.089 -1.6689 -0.5478  0.7349
  154MOL0     H20751  12.740   5.343   5.089  2.4333 -1.5742  0.4238
  154MOL0     H20752  13.110   5.165   4.947  2.3198 -0.9647 -0.4626
  154MOL0     H20753  13.354   5.092   4.962  2.2452  2.9807 -0.0687
  154MOL0     H20754  13.650   5.255   5.173 -0.1915  1.4977  0.6695
  154MOL0     H20755  13.530   5.279   5.297 -1.8984 -0.8110 -1.1781
  154MOL0     H20756  13.611   5.040   5.370 -0.5571 -0.0187 -2.0948
  154MOL0     H20757  13.758   5.090   5.282 -0.1457 -1.1685 -0.9607
  154MOL0     H20758  13.788   5.296   5.434 -1.3271  2.0834  0.5209
  154MOL0     H20759  13.627   5.282   5.488 -0.2969  0.0654 -1.4231
  154MOL0     H20760  13.863   5.098   5.563 -2.1756 -4.2867  0.8844
  154MOL0     H20761  13.709   5.050   5.606  1.2525 -2.5609 -1.7655
  154MOL0     H20762  13.832   5.170   5.780 -1.9021  0.1786  1.4722
  154MOL0     H20763  13.683   5.243   5.750  1.0003  1.3734  1.0711
  154MOL0     H20764  13.924   5.366   5.603  0.2297  0.1562 -0.5747
  154MOL0     H20765  13.773   5.440   5.657  0.8373  0.1256 -0.3227
  154MOL0     H20766  13.973   5.326   5.852 -2.3915 -0.2469  3.7829
  154MOL0     H20767  13.852   5.449   5.897  1.6229  0.9423  0.2640
  154MOL0     H20768  14.085   5.486   5.704  2.5684 -0.2290  1.4433
  154MOL0     H20769  13.986   5.613   5.776 -0.3747 -1.0846 -3.1405
  154MOL0     H20770  13.358   5.203   5.372  1.2697 -1.5107 -0.3758
  154MOL0     H20771  13.109   5.210   5.369 -1.5815 -0.3638 -0.7252
  154MOL0     H20772  12.657   4.933   5.198  2.2564  1.1295  0.7215
  154MOL0     H20773  12.410   4.973   5.180 -0.6974  0.5277 -1.4202
  154MOL0     H20774  10.581   5.379   5.194  0.4618 -1.1759  1.1184
  154MOL0     H20775  10.412   5.546   5.213 -2.7031  0.3208 -0.1639
  154MOL0     H20776   9.881   5.497   5.307 -0.3416  1.1632  0.6895
  154MOL0     H20777   9.687   5.610   5.345 -0.1089 -0.0941 -1.1010
  154MOL0     H20778   9.587   6.035   5.462 -2.7421 -1.2814  1.2244
  154MOL0     H20779   9.763   5.980   5.474  1.1640 -4.1068  0.8368
  154MOL0     H20780   9.627   5.927   5.678 -0.5548 -2.1495  1.3721
  154MOL0     H20781   9.695   5.785   5.597  0.9081  0.1680  1.3914
  154MOL0     H20782   9.484   5.730   5.540  0.0032  0.0014  0.6652
  154MOL0     H20783   9.418   5.893   5.512 -0.1196 -1.0473 -2.6541
  154MOL0     H20784   9.476   5.760   5.777  0.3523 -0.9783  0.4197
  154MOL0     H20785   9.416   5.923   5.757 -3.0303 -0.2215 -0.1700
  154MOL0     H20786   9.054   5.698   5.751  1.3087 -3.4050  0.6452
  154MOL0     H20787   9.873   5.987   5.242 -0.2506  0.1105 -1.4643
  154MOL0     H20788  10.097   6.001   5.247  1.3247  1.8351 -0.6216
  154MOL0     H20789  10.222   5.869   5.241  0.8533  1.9502 -1.9516
  154MOL0     H20790  10.133   5.921   5.099  1.9765 -0.2361  0.6796
  155MOL0     O20791   5.865   5.405   3.816 -0.6254 -0.6117  0.0112
  155MOL0     C20792   5.841   5.378   3.924  0.7406 -0.4983 -1.1514
  155MOL0     O20793   5.862   5.253   3.982 -0.2430 -0.1687 -0.1281
  155MOL0     C20794   5.949   5.183   3.910 -0.5833  0.0858  0.1325
  155MOL0     C20795   6.078   5.162   3.960  0.3958  0.1601  0.6309
  155MOL0     C20796   6.176   5.092   3.891 -0.0372  0.0377 -0.0869
  155MOL0     C20797   6.152   5.045   3.764  1.4869 -0.3624 -0.7256
  155MOL0     O20798   6.255   4.975   3.708 -0.1405  0.1993 -0.2449
  155MOL0     C20799   6.254   4.961   3.566  0.0838 -0.2465  0.3105
  155MOL0     C20800   6.374   4.894   3.501  0.2126 -0.3474  0.5081
  155MOL0     C20801   6.508   4.956   3.542 -0.1457 -0.1689  0.2826
  155MOL0     C20802   6.629   4.872   3.515  0.6105 -0.0040  0.0788
  155MOL0     C20803   6.753   4.949   3.534 -0.4625 -0.3624 -0.2499
  155MOL0     C20804   6.885   4.896   3.470  0.5341 -0.2041  0.2502
  155MOL0     C20805   6.940   4.777   3.547  1.1527  0.5345 -0.2415
  155MOL0     C20806   7.025   4.819   3.666  1.3353 -0.3975 -1.0319
  155MOL0     N20807   7.154   4.861   3.627 -0.4092  0.0034  0.6639
  155MOL0     C20808   7.256   4.770   3.622 -0.0281 -0.6805  0.5277
  155MOL0     C20809   7.364   4.837   3.574 -1.0769 -0.0332 -0.3573
  155MOL0     C20810   7.493   4.781   3.531 -0.2640  0.7936  0.1433
  155MOL0     C20811   7.620   4.866   3.506  0.2480 -0.3872  0.1254
  155MOL0     C20812   7.618   4.946   3.369 -0.7380 -0.0121 -0.2343
  155MOL0     C20813   7.763   4.965   3.321 -0.1470 -0.2386 -1.3161
  155MOL0     O20814   7.763   5.035   3.195 -0.4264 -0.3865 -0.1456
  155MOL0     C20815   7.884   5.042   3.125  0.4687  0.1749  0.6589
  155MOL0     C20816   7.867   5.050   2.985 -0.1703 -0.0918  0.3206
  155MOL0     C20817   7.975   5.024   2.898 -0.1554  0.5211  0.4439
  155MOL0     C20818   8.104   4.997   2.958  0.4994 -0.5441 -0.2015
  155MOL0     C20819   8.222   4.976   2.873  0.2230 -1.0501  1.1087
  155MOL0     O20820   8.339   4.966   2.936 -0.3445 -0.1975  0.7499
  155MOL0     C20821   8.461   4.938   2.864  0.6393 -0.2836 -0.3623
  155MOL0     C20822   8.517   5.036   2.775  0.5330  0.3833  0.2315
  155MOL0     C20823   8.626   4.999   2.696 -0.3019 -0.1898 -0.3126
  155MOL0     C20824   8.680   4.871   2.700 -0.2344  0.1856 -0.9368
  155MOL0     O20825   8.799   4.846   2.633 -0.5997  0.2456  0.2432
  155MOL0     C20826   8.794   4.729   2.549 -0.2451 -0.0470  0.2266
  155MOL0     C20827   8.935   4.716   2.501 -1.1346  0.4951  1.2793
  155MOL0     C20828   8.962   4.580   2.427  0.8749  0.6009  0.5449
  155MOL0     C20829   9.109   4.575   2.377 -0.1475 -0.6081  0.9493
  155MOL0     C20830   9.120   4.493   2.241  0.0615 -0.3436 -0.1227
  155MOL0     C20831   9.268   4.478   2.199  0.5511 -0.2810 -0.7997
  155MOL0     C20832   9.351   4.605   2.185  0.2154  0.1548 -1.0843
  155MOL0     C20833   9.496   4.565   2.147  0.4871  0.2166  0.0499
  155MOL0    Cl20834   9.487   4.477   1.989  0.7117  0.0805  0.3452
  155MOL0     C20835   8.618   4.777   2.778  0.3929  0.1327  0.6250
  155MOL0     C20836   8.511   4.808   2.862 -0.4551  0.1808 -0.4440
  155MOL0     O20837   8.203   4.977   2.753  0.5444  0.2065  0.5877
  155MOL0     C20838   8.116   4.997   3.103  0.0550 -0.9448 -0.3811
  155MOL0     C20839   8.003   5.019   3.176 -1.3768 -0.5304 -0.2942
  155MOL0     N20840   7.322   4.971   3.545  0.6580 -0.3569 -0.0854
  155MOL0     N20841   7.200   4.985   3.580 -0.1882 -0.0818 -0.4252
  155MOL0     C20842   6.031   5.068   3.705  0.1857 -0.8016 -0.0905
  155MOL0     C20843   5.937   5.141   3.778 -0.6273 -0.0538 -0.1160
  155MOL0     C20844   5.777   5.475   4.020 -0.8212  1.5960 -0.0723
  155MOL0     C20845   5.827   5.498   4.153 -0.1788  0.0848  0.3966
  155MOL0     C20846   5.773   5.596   4.235  0.7011  0.3944  0.2613
  155MOL0     C20847   5.664   5.678   4.187  0.1946  0.0965  0.1840
  155MOL0     O20848   5.603   5.778   4.250 -0.7462 -0.3710  0.6738
  155MOL0     C20849   5.571   5.768   4.388 -0.2425  0.2408  0.6100
  155MOL0     C20850   5.419   5.761   4.406  0.0458 -0.2628  0.5089
  155MOL0     C20851   5.343   5.635   4.346 -1.1448  0.0508 -0.2922
  155MOL0     C20852   5.412   5.501   4.384  0.2508 -0.3461  0.3264
  155MOL0     C20853   5.410   5.484   4.531  0.0623  0.2563 -0.3580
  155MOL0     C20854   5.413   5.458   4.650  0.0336  0.0433 -0.1015
  155MOL0     C20855   5.624   5.666   4.051  0.4956  0.4676 -0.1729
  155MOL0     C20856   5.676   5.554   3.969  1.1667 -0.4490 -0.4483
  155MOL0     C20857   5.597   5.543   3.840  0.5478  0.1442  0.2759
  155MOL0     H20858   6.105   5.214   4.051 -1.8342  0.1385  1.3755
  155MOL0     H20859   6.277   5.081   3.930 -0.4394 -0.6287  0.8200
  155MOL0     H20860   6.170   4.898   3.536 -0.7039  1.0817 -0.3384
  155MOL0     H20861   6.240   5.061   3.525 -2.8959 -0.5314  0.4196
  155MOL0     H20862   6.366   4.885   3.392  0.9083  0.2974  0.3910
  155MOL0     H20863   6.381   4.794   3.545 -0.9873  0.3574  2.4282
  155MOL0     H20864   6.512   4.987   3.647  1.9531 -0.0324  0.2166
  155MOL0     H20865   6.511   5.048   3.483 -0.6201 -1.4323 -1.8279
  155MOL0     H20866   6.620   4.785   3.581 -1.5266  0.1339  0.0586
  155MOL0     H20867   6.625   4.836   3.412  0.8343  1.5498 -0.5095
  155MOL0     H20868   6.741   5.046   3.486  2.8627 -0.6559 -1.9186
  155MOL0     H20869   6.772   4.966   3.641  2.4863  1.1114 -0.9139
  155MOL0     H20870   6.874   4.882   3.362  0.0605  0.3584  0.2243
  155MOL0     H20871   6.959   4.976   3.482 -1.6430  1.6251  2.3737
  155MOL0     H20872   7.006   4.725   3.477  1.5119 -1.5590  1.5639
  155MOL0     H20873   6.860   4.706   3.570 -0.4851  1.9255 -1.4082
  155MOL0     H20874   6.973   4.895   3.725 -0.8037 -1.5502 -1.3213
  155MOL0     H20875   7.035   4.736   3.736  0.6945 -0.2825 -0.7933
  155MOL0     H20876   7.256   4.665   3.648 -0.0080 -1.0831 -1.0330
  155MOL0     H20877   7.516   4.709   3.609  1.2732  2.2130  1.0617
  155MOL0     H20878   7.483   4.728   3.436 -1.0664 -4.5023  2.8062
  155MOL0     H20879   7.624   4.940   3.586  2.1380  2.4378 -2.3874
  155MOL0     H20880   7.714   4.810   3.501  1.3743  1.3984  0.4377
  155MOL0     H20881   7.577   5.047   3.380 -1.1117 -0.3050  1.1779
  155MOL0     H20882   7.558   4.888   3.298 -0.7876 -1.0096  0.6018
  155MOL0     H20883   7.808   4.866   3.307 -1.4288 -0.8578 -1.1398
  155MOL0     H20884   7.825   5.011   3.398  0.0596 -1.9626 -0.3948
  155MOL0     H20885   7.769   5.057   2.940  1.5868  2.3387 -3.6947
  155MOL0     H20886   7.953   5.035   2.792  0.7898 -0.3231  0.1559
  155MOL0     H20887   8.475   5.136   2.766  4.7446  2.4538  1.1514
  155MOL0     H20888   8.678   5.070   2.632  1.0086 -0.9068 -0.0801
  155MOL0     H20889   8.756   4.639   2.597 -1.3204  0.9985  1.4222
  155MOL0     H20890   8.735   4.743   2.458  0.9288 -1.4919 -0.8110
  155MOL0     H20891   8.959   4.800   2.436  0.6102 -1.0578 -0.2174
  155MOL0     H20892   9.009   4.723   2.582  1.2759  3.3437 -0.9547
  155MOL0     H20893   8.931   4.492   2.485 -1.6237  0.7605 -0.4156
  155MOL0     H20894   8.896   4.578   2.339  1.1819  0.2682  0.3238
  155MOL0     H20895   9.181   4.536   2.450  0.7863 -0.2713  0.2321
  155MOL0     H20896   9.141   4.679   2.362 -1.0377 -0.3000  1.0995
  155MOL0     H20897   9.065   4.544   2.162 -3.0487 -1.0064  1.4444
  155MOL0     H20898   9.079   4.393   2.259 -0.8839  0.0926  0.2326
  155MOL0     H20899   9.312   4.419   2.280  3.0587  0.0004 -1.8936
  155MOL0     H20900   9.267   4.417   2.108 -0.5509 -1.8217  0.1774
  155MOL0     H20901   9.350   4.669   2.274 -2.0720  2.0361 -2.3435
  155MOL0     H20902   9.308   4.674   2.111 -1.5637 -0.2129 -0.4370
  155MOL0     H20903   9.561   4.649   2.120  1.9321 -0.6003  0.8648
  155MOL0     H20904   9.546   4.514   2.230 -1.4095 -0.1795  1.0222
  155MOL0     H20905   8.651   4.675   2.796 -3.9151 -1.0602  3.7113
  155MOL0     H20906   8.457   4.738   2.926  1.2541 -1.9406 -1.1624
  155MOL0     H20907   8.207   4.976   3.158 -0.9011 -1.9665  0.8844
  155MOL0     H20908   8.016   5.012   3.283 -0.8982  0.2599 -0.2982
  155MOL0     H20909   6.014   5.038   3.602 -2.2189  0.2973 -0.0949
  155MOL0     H20910   5.839   5.162   3.738 -0.1190  1.1729 -0.7477
  155MOL0     H20911   5.916   5.444   4.186  0.6914  0.2480 -1.5498
  155MOL0     H20912   5.820   5.611   4.332 -0.6905 -0.2066  1.0638
  155MOL0     H20913   5.614   5.853   4.441 -1.1384  0.5902  0.7919
  155MOL0     H20914   5.608   5.676   4.433  0.0946  0.2741  0.4078
  155MOL0     H20915   5.372   5.849   4.362  2.1873  1.4893  1.5482
  155MOL0     H20916   5.406   5.754   4.514  2.0932 -3.0009  0.7093
  155MOL0     H20917   5.343   5.646   4.237 -0.0603 -0.2299 -0.3357
  155MOL0     H20918   5.240   5.628   4.383 -1.3650 -5.9496 -1.0450
  155MOL0     H20919   5.349   5.433   4.325 -1.0956  1.9051 -1.0188
  155MOL0     H20920   5.512   5.499   4.341  0.1584 -2.0916  0.1328
  155MOL0     H20921   5.417   5.422   4.751  1.4983  1.2266  0.3042
  155MOL0     H20922   5.549   5.734   4.013  2.1506  2.7577  0.4194
  155MOL0     H20923   5.552   5.444   3.828 -1.1568  0.9089  0.1308
  155MOL0     H20924   5.518   5.617   3.828  1.3275  0.9513  0.0402
  155MOL0     H20925   5.669   5.565   3.761  1.7947  0.2268  1.3891
  156MOL0     O20926   1.978   4.317   2.743 -0.4679 -0.5091 -0.1027
  156MOL0     C20927   1.953   4.398   2.654  1.1747  0.4683 -0.5194
  156MOL0     O20928   2.039   4.494   2.602 -0.1309 -0.0511 -0.0288
  156MOL0     C20929   2.171   4.497   2.639  0.7623  0.2648  1.2644
  156MOL0     C20930   2.231   4.621   2.666  0.3557 -0.4714 -0.1109
  156MOL0     C20931   2.367   4.623   2.691  0.6367 -0.8830 -0.4887
  156MOL0     C20932   2.444   4.509   2.704  0.6282  0.2377 -0.2878
  156MOL0     O20933   2.575   4.527   2.739  0.2241 -0.0330 -0.4081
  156MOL0     C20934   2.646   4.427   2.806 -0.5066  0.7305 -0.3321
  156MOL0     C20935   2.761   4.471   2.895 -0.1852 -0.5201  0.7452
  156MOL0     C20936   2.863   4.366   2.942  0.5954 -0.9194 -0.4682
  156MOL0     C20937   3.001   4.430   2.968 -0.6766 -0.6635  0.0519
  156MOL0     C20938   3.107   4.325   2.956  0.6921  0.4378  0.1051
  156MOL0     C20939   3.241   4.397   2.947  0.5617 -0.2390 -0.5174
  156MOL0     C20940   3.358   4.297   2.949 -0.4230 -0.1075 -0.0337
  156MOL0     C20941   3.488   4.374   2.933 -0.2358 -0.9302 -0.9618
  156MOL0     N20942   3.596   4.311   3.010  0.1422  0.8230  0.0340
  156MOL0     C20943   3.662   4.363   3.123 -0.0227  0.7894  0.6200
  156MOL0     C20944   3.769   4.276   3.148 -0.0200  0.3631  0.4937
  156MOL0     C20945   3.866   4.285   3.260 -0.7256 -0.3408 -0.0131
  156MOL0     C20946   3.838   4.166   3.352 -0.5147  0.6056 -0.1083
  156MOL0     C20947   3.908   4.184   3.490  0.2645 -0.3502 -0.5785
  156MOL0     C20948   4.062   4.231   3.482 -0.1860  0.0261  0.5372
  156MOL0     O20949   4.106   4.254   3.617 -0.2866  0.1809 -0.0596
  156MOL0     C20950   4.223   4.202   3.644  0.1313 -0.0978 -1.2740
  156MOL0     C20951   4.331   4.279   3.703  0.4303  0.8441  0.0177
  156MOL0     C20952   4.449   4.221   3.737  1.0777 -0.2743  0.1819
  156MOL0     C20953   4.476   4.084   3.704 -0.4914 -0.9010 -0.2330
  156MOL0     C20954   4.608   4.024   3.750  0.6343 -0.4006 -0.8373
  156MOL0     O20955   4.634   3.907   3.684  0.2311  0.2432  0.1935
  156MOL0     C20956   4.746   3.844   3.715 -0.1990 -0.6791 -0.2166
  156MOL0     C20957   4.872   3.895   3.681 -0.7329 -0.2055 -0.4612
  156MOL0     C20958   4.984   3.810   3.704  0.5230 -0.1973  0.4866
  156MOL0     C20959   4.967   3.680   3.742 -0.1517 -0.5125  0.7142
  156MOL0     O20960   5.066   3.581   3.749 -0.4964 -0.3480  0.1674
  156MOL0     C20961   5.208   3.632   3.737  0.1404  0.1698 -0.4613
  156MOL0     C20962   5.272   3.627   3.594  0.1276  0.1799  0.4219
  156MOL0     C20963   5.365   3.507   3.569 -0.6813 -0.3529 -0.4674
  156MOL0     C20964   5.317   3.374   3.625 -0.2991  0.1480  0.1847
  156MOL0     C20965   5.406   3.259   3.566 -1.1073  0.4616  0.7251
  156MOL0     C20966   5.547   3.258   3.641  0.7433 -0.5178  0.2872
  156MOL0     C20967   5.610   3.118   3.638  0.2462  0.7776  0.3567
  156MOL0     C20968   5.729   3.093   3.728 -0.6848 -0.1264  0.2940
  156MOL0    Cl20969   5.849   3.208   3.664 -0.0084  0.1116 -0.2840
  156MOL0     C20970   4.839   3.635   3.776  0.1541  0.0751 -0.2644
  156MOL0     C20971   4.724   3.712   3.768  0.1557 -0.7708  0.7564
  156MOL0     O20972   4.691   4.082   3.823  0.5850  0.5906 -0.1991
  156MOL0     C20973   4.375   4.001   3.672  0.3591 -0.4272  0.5912
  156MOL0     C20974   4.247   4.056   3.636 -0.6448 -0.1203  0.1058
  156MOL0     N20975   3.751   4.172   3.051 -0.4973 -0.2262  0.1653
  156MOL0     N20976   3.655   4.189   2.974 -0.1235 -0.0434 -0.3953
  156MOL0     C20977   2.384   4.382   2.693 -0.0130  0.3897  0.0724
  156MOL0     C20978   2.252   4.372   2.647  0.2565 -0.5490  0.2957
  156MOL0     C20979   1.828   4.362   2.580  0.2657 -0.2736 -0.1792
  156MOL0     C20980   1.712   4.343   2.665  0.8273 -0.0408  0.9175
  156MOL0     C20981   1.588   4.313   2.604 -0.2516  0.5062  0.7137
  156MOL0     C20982   1.584   4.277   2.464 -0.4033 -0.0546  0.2196
  156MOL0     O20983   1.466   4.234   2.405 -0.2185  0.1112  0.1608
  156MOL0     C20984   1.375   4.176   2.491  0.2948 -0.2196 -0.5280
  156MOL0     C20985   1.280   4.091   2.413  0.5309  0.5416  1.0707
  156MOL0     C20986   1.194   4.010   2.516 -0.8926  0.2373  1.0085
  156MOL0     C20987   1.089   3.914   2.460 -0.7788 -0.7331 -0.5264
  156MOL0     C20988   0.976   3.992   2.415 -0.2085  0.2237 -0.5576
  156MOL0     C20989   0.881   4.052   2.373  0.3208 -0.2428  0.0202
  156MOL0     C20990   1.703   4.285   2.384 -0.0031 -0.1944  0.2862
  156MOL0     C20991   1.819   4.336   2.438 -0.5450  0.3373 -1.1968
  156MOL0     C20992   1.942   4.350   2.355  1.3537  0.1666  0.1472
  156MOL0     H20993   2.175   4.714   2.668 -0.8902 -1.1103 -2.1381
  156MOL0     H20994   2.424   4.715   2.708  0.1136 -0.7642  0.6707
  156MOL0     H20995   2.576   4.372   2.869  0.5467 -1.0558 -0.6596
  156MOL0     H20996   2.691   4.361   2.732 -0.6116 -2.8195  2.4955
  156MOL0     H20997   2.716   4.525   2.979 -0.8359 -2.1311  1.4806
  156MOL0     H20998   2.831   4.535   2.841  1.3595 -0.6578  2.5081
  156MOL0     H20999   2.872   4.290   2.864 -1.0432 -3.3135  1.5300
  156MOL0     H21000   2.834   4.317   3.035 -0.2918  0.0127 -0.2480
  156MOL0     H21001   3.017   4.496   2.882 -0.2889  1.2433  1.5077
  156MOL0     H21002   3.009   4.482   3.065 -0.1663 -3.2917  1.5162
  156MOL0     H21003   3.105   4.257   3.042  0.8317 -0.3572 -0.5169
  156MOL0     H21004   3.102   4.259   2.869 -1.1294 -0.0854  0.5676
  156MOL0     H21005   3.235   4.461   2.858 -3.9350  2.7823  1.5741
  156MOL0     H21006   3.246   4.456   3.039 -0.3418 -1.0342  0.0522
  156MOL0     H21007   3.350   4.223   2.869  1.6757 -0.2419 -0.1764
  156MOL0     H21008   3.358   4.242   3.044  2.6147 -0.3617 -0.0815
  156MOL0     H21009   3.519   4.369   2.828 -1.0161 -1.4952 -1.1788
  156MOL0     H21010   3.473   4.473   2.976  0.8092 -1.4012  0.5677
  156MOL0     H21011   3.630   4.450   3.180  0.9195  0.5123  1.5882
  156MOL0     H21012   3.965   4.275   3.214 -0.0510  0.8657  1.1044
  156MOL0     H21013   3.841   4.377   3.313  0.8516  0.0283  0.1457
  156MOL0     H21014   3.731   4.169   3.374 -0.4453  0.7505  0.2249
  156MOL0     H21015   3.865   4.074   3.300 -0.9242  1.3340 -1.6685
  156MOL0     H21016   3.890   4.098   3.556  0.2251  0.7167  0.8607
  156MOL0     H21017   3.850   4.265   3.536 -0.9824 -0.5861 -1.6557
  156MOL0     H21018   4.073   4.324   3.425  0.2251 -1.5327 -2.1142
  156MOL0     H21019   4.126   4.153   3.438  0.2170  0.2824  0.6720
  156MOL0     H21020   4.303   4.383   3.720 -3.0349  0.1803 -0.8578
  156MOL0     H21021   4.521   4.287   3.784  1.2679  0.4860 -1.1385
  156MOL0     H21022   4.872   3.989   3.626 -3.6819 -0.2748 -0.7501
  156MOL0     H21023   5.077   3.860   3.679  0.5883 -0.2446  0.6355
  156MOL0     H21024   5.227   3.733   3.774  2.5000 -0.5043  0.3893
  156MOL0     H21025   5.266   3.569   3.806  0.0893  0.2015 -0.3898
  156MOL0     H21026   5.185   3.624   3.527  0.7102 -1.9866 -0.3237
  156MOL0     H21027   5.332   3.718   3.586  0.7290  0.0680  2.8888
  156MOL0     H21028   5.389   3.487   3.464  0.6619 -0.0533 -0.2337
  156MOL0     H21029   5.460   3.531   3.618 -0.5059 -0.1020 -0.9262
  156MOL0     H21030   5.216   3.344   3.595  0.0227 -1.2059  0.3578
  156MOL0     H21031   5.326   3.375   3.734  0.8465  0.6604  0.0989
  156MOL0     H21032   5.419   3.268   3.458  1.3659 -2.2360  0.6727
  156MOL0     H21033   5.367   3.157   3.575  0.6999 -0.1711  1.9148
  156MOL0     H21034   5.615   3.325   3.586  0.5082 -0.6660 -0.1954
  156MOL0     H21035   5.534   3.292   3.744 -0.1922  1.7352 -0.4897
  156MOL0     H21036   5.643   3.095   3.536  1.1559  1.3590  0.5054
  156MOL0     H21037   5.527   3.049   3.660  0.7033 -0.4205 -1.4651
  156MOL0     H21038   5.696   3.109   3.831  1.4102  3.0589  0.6105
  156MOL0     H21039   5.772   2.994   3.710 -0.1013  0.4621 -1.9417
  156MOL0     H21040   4.828   3.531   3.809  3.7399 -0.9208 -1.7700
  156MOL0     H21041   4.622   3.681   3.790  0.2028  0.5086  3.0561
  156MOL0     H21042   4.380   3.893   3.678 -2.5531 -0.7900 -1.4071
  156MOL0     H21043   4.161   3.993   3.616 -1.0190 -0.5726  2.7638
  156MOL0     H21044   2.449   4.296   2.692  0.3477  0.5589  2.5754
  156MOL0     H21045   2.218   4.272   2.622  2.2643 -1.1658 -0.0727
  156MOL0     H21046   1.708   4.350   2.773 -0.6717 -0.2300  0.8992
  156MOL0     H21047   1.503   4.304   2.670 -0.6789 -1.0029  0.0025
  156MOL0     H21048   1.310   4.245   2.546 -2.4005 -1.2797 -2.1785
  156MOL0     H21049   1.426   4.109   2.560 -1.8269  1.0954  2.5582
  156MOL0     H21050   1.337   4.032   2.341  1.2357  3.4381 -0.8883
  156MOL0     H21051   1.218   4.158   2.354  1.6309  1.2279  0.6621
  156MOL0     H21052   1.136   4.083   2.573  2.6795  2.8687  1.6253
  156MOL0     H21053   1.261   3.946   2.573  0.0464 -2.4719 -2.7129
  156MOL0     H21054   1.138   3.870   2.373  1.2154 -0.5647  0.4617
  156MOL0     H21055   1.058   3.840   2.534  1.0887  0.4123  1.4960
  156MOL0     H21056   0.786   4.096   2.350 -0.8041 -2.5667 -0.1056
  156MOL0     H21057   1.710   4.255   2.280 -0.4922 -0.3924  0.3092
  156MOL0     H21058   1.915   4.330   2.250  0.6242  1.6411  0.0326
  156MOL0     H21059   1.988   4.448   2.348  1.9293 -0.1905 -2.1420
  156MOL0     H21060   2.007   4.271   2.392 -0.4984 -0.9661  1.1736
  157MOL0     O21061   6.010   6.382   8.618  0.1061 -0.0653 -0.2025
  157MOL0     C21062   5.915   6.422   8.554 -0.1920  0.5891  0.1097
  157MOL0     O21063   5.914   6.544   8.491 -0.5825  0.5390  0.0003
  157MOL0     C21064   6.003   6.637   8.538  0.4454  0.0105  0.9555
  157MOL0     C21065   6.018   6.676   8.672  0.0837 -1.1608 -0.2173
  157MOL0     C21066   6.107   6.779   8.709 -0.2224  0.3508  0.8073
  157MOL0     C21067   6.167   6.849   8.602  0.3751  0.1960  1.0352
  157MOL0     O21068   6.236   6.965   8.612 -0.1005  0.1356 -0.1625
  157MOL0     C21069   6.278   7.012   8.737  0.1226  0.4865 -0.2667
  157MOL0     C21070   6.362   7.138   8.727 -0.6373 -0.1651 -0.0477
  157MOL0     C21071   6.497   7.089   8.672  0.9118  0.3880  0.0182
  157MOL0     C21072   6.592   7.202   8.651 -0.0575 -0.0557 -0.6679
  157MOL0     C21073   6.732   7.148   8.602  0.2664 -0.2005 -0.4349
  157MOL0     C21074   6.850   7.208   8.684  0.2046  0.0267  0.2999
  157MOL0     C21075   6.987   7.159   8.622  0.3553  0.1042  0.3013
  157MOL0     C21076   7.112   7.194   8.710 -0.2796 -0.3584  0.0173
  157MOL0     N21077   7.241   7.137   8.653  0.4412  0.0091 -0.4921
  157MOL0     C21078   7.337   7.194   8.568  0.2731  0.6650 -0.3648
  157MOL0     C21079   7.448   7.117   8.580 -0.8366 -0.2859  0.5184
  157MOL0     C21080   7.590   7.155   8.535 -0.2471  0.7137  0.1162
  157MOL0     C21081   7.694   7.067   8.617  0.7283  0.2771 -0.9148
  157MOL0     C21082   7.834   7.115   8.598  0.4659  0.9337  0.2124
  157MOL0     C21083   7.941   7.040   8.672 -0.1595  0.3121 -0.5767
  157MOL0     O21084   8.069   7.095   8.642 -0.1004  0.2656 -0.0911
  157MOL0     C21085   8.179   7.023   8.656 -0.1937  0.5580  0.2451
  157MOL0     C21086   8.181   6.890   8.710  0.0839 -0.2687  0.0925
  157MOL0     C21087   8.300   6.814   8.712  0.3235 -0.0445 -0.0546
  157MOL0     C21088   8.424   6.875   8.677 -0.9565  0.2325  0.5628
  157MOL0     C21089   8.552   6.792   8.671  0.0981  0.3154 -0.3526
  157MOL0     O21090   8.656   6.855   8.624  0.7514  0.2088  0.5543
  157MOL0     C21091   8.768   6.780   8.585 -0.0388 -0.8915  0.4921
  157MOL0     C21092   8.889   6.847   8.587 -0.9505 -0.4261  0.4630
  157MOL0     C21093   9.007   6.790   8.545 -0.7280  0.0868 -0.8071
  157MOL0     C21094   9.008   6.663   8.481 -0.6420 -0.0031  0.6375
  157MOL0     O21095   9.130   6.615   8.432 -1.0166 -0.2219 -0.3471
  157MOL0     C21096   9.139   6.470   8.409  0.5176  0.3415  0.0923
  157MOL0     C21097   9.288   6.433   8.437 -0.0950  0.2618 -0.3564
  157MOL0     C21098   9.373   6.477   8.320 -0.2347 -0.5842  0.3983
  157MOL0     C21099   9.520   6.462   8.350 -0.1386  0.4846  0.2804
  157MOL0     C21100   9.589   6.368   8.248 -0.5121  0.5124 -1.0777
  157MOL0     C21101   9.739   6.353   8.268 -0.3660  0.4846 -0.4718
  157MOL0     C21102   9.795   6.255   8.163  0.2774  0.3663  0.0439
  157MOL0     C21103   9.945   6.247   8.154  0.4167  0.4392 -0.2556
  157MOL0    Cl21104  10.004   6.114   8.040  0.1538  0.2278  0.6329
  157MOL0     C21105   8.886   6.596   8.473 -0.7262 -0.7275  0.0744
  157MOL0     C21106   8.766   6.654   8.530  0.4118  0.4196 -0.0463
  157MOL0     O21107   8.558   6.684   8.728  1.0793 -0.4583  0.3184
  157MOL0     C21108   8.417   7.003   8.617  0.0232 -0.4505  0.7127
  157MOL0     C21109   8.298   7.080   8.609 -0.7064 -0.1127  1.0894
  157MOL0     N21110   7.413   7.011   8.660  0.6327  0.0403  0.4202
  157MOL0     N21111   7.293   7.016   8.699 -0.9607 -0.6369  0.6850
  157MOL0     C21112   6.159   6.808   8.474  0.3988  0.5896  0.0693
  157MOL0     C21113   6.080   6.697   8.438  0.3088  0.1114 -0.1962
  157MOL0     C21114   5.801   6.329   8.526 -0.4995 -0.3133  0.0938
  157MOL0     C21115   5.818   6.194   8.557 -0.1190  0.0001  0.4007
  157MOL0     C21116   5.717   6.102   8.546 -0.0809 -0.3835 -0.4455
  157MOL0     C21117   5.599   6.143   8.486  0.2882  0.4322  0.4325
  157MOL0     O21118   5.498   6.047   8.489 -0.8388 -0.3483  0.3486
  157MOL0     C21119   5.366   6.089   8.494 -0.3392  0.3686  0.4515
  157MOL0     C21120   5.327   6.150   8.629  0.6777  0.8310  0.7939
  157MOL0     C21121   5.177   6.173   8.642 -0.0355 -0.0715  0.7155
  157MOL0     C21122   5.138   6.242   8.774 -1.0074 -0.0719  0.6945
  157MOL0     C21123   4.994   6.249   8.791 -0.0436  0.4536  0.3318
  157MOL0     C21124   4.868   6.254   8.796 -0.5703  0.4582  0.3702
  157MOL0     C21125   5.582   6.273   8.446 -0.2417  0.0528  0.0439
  157MOL0     C21126   5.680   6.369   8.461 -0.0706  0.7855  0.1514
  157MOL0     C21127   5.648   6.500   8.386  0.2291  0.2612 -0.0377
  157MOL0     H21128   5.957   6.641   8.754 -0.5302  1.8915  0.7493
  157MOL0     H21129   6.110   6.802   8.815  0.2020  1.2836  0.6051
  157MOL0     H21130   6.187   7.037   8.793 -0.0424  1.7181 -1.0446
  157MOL0     H21131   6.331   6.934   8.793  0.4226  1.6227  1.1012
  157MOL0     H21132   6.376   7.183   8.826 -3.6527 -1.8638  1.2888
  157MOL0     H21133   6.321   7.220   8.667  3.6935  0.7294 -2.1277
  157MOL0     H21134   6.489   7.030   8.580 -3.3765  0.5155  0.1241
  157MOL0     H21135   6.547   7.023   8.744  0.4822  1.0575  0.9488
  157MOL0     H21136   6.547   7.277   8.585  0.1010  1.6685  1.0781
  157MOL0     H21137   6.604   7.256   8.746 -0.2395 -4.3003  2.0014
  157MOL0     H21138   6.731   7.039   8.610 -3.7078 -0.2542  0.6590
  157MOL0     H21139   6.752   7.170   8.497  2.0758 -0.7458 -0.2324
  157MOL0     H21140   6.845   7.316   8.669  2.6059 -0.0799 -1.8434
  157MOL0     H21141   6.849   7.184   8.791  0.8061  1.5110  0.6648
  157MOL0     H21142   7.008   7.201   8.523  0.0690  0.9126  0.5823
  157MOL0     H21143   6.974   7.051   8.610  0.4511 -0.1923  2.5046
  157MOL0     H21144   7.127   7.302   8.712 -1.2549 -0.2246  0.7673
  157MOL0     H21145   7.095   7.158   8.812  0.5865 -0.6378  0.0776
  157MOL0     H21146   7.341   7.295   8.529  0.8348  0.9393  0.3784
  157MOL0     H21147   7.601   7.137   8.427  0.8939 -0.5391  0.4243
  157MOL0     H21148   7.611   7.261   8.553  4.9578  0.0041 -0.1194
  157MOL0     H21149   7.673   7.072   8.724 -2.2769 -0.1789 -1.3933
  157MOL0     H21150   7.694   6.964   8.580  1.5986  0.3565 -1.1536
  157MOL0     H21151   7.846   7.219   8.626 -0.8486  1.1123  0.1793
  157MOL0     H21152   7.863   7.100   8.493 -0.4947  1.3689 -0.1264
  157MOL0     H21153   7.925   6.936   8.642 -1.9299  0.2310  0.5197
  157MOL0     H21154   7.920   7.043   8.779  2.8296 -1.3706  0.1893
  157MOL0     H21155   8.091   6.845   8.752  0.3717  0.7760  1.9458
  157MOL0     H21156   8.305   6.712   8.748  3.1756  0.1876  0.4735
  157MOL0     H21157   8.877   6.953   8.605 -0.0996 -0.4712  1.3622
  157MOL0     H21158   9.090   6.860   8.546 -1.1932  0.6405 -0.3323
  157MOL0     H21159   9.078   6.416   8.481 -0.9116  1.6261 -0.1195
  157MOL0     H21160   9.112   6.450   8.305 -1.0162  0.2230  0.4905
  157MOL0     H21161   9.323   6.478   8.530  2.1231 -2.1038  0.0490
  157MOL0     H21162   9.294   6.324   8.439 -1.5652  0.1696  1.8516
  157MOL0     H21163   9.350   6.416   8.233  1.8210 -3.1501  1.5327
  157MOL0     H21164   9.360   6.580   8.285  0.4091  0.3920  2.7747
  157MOL0     H21165   9.527   6.408   8.445 -0.3315  0.6523  0.3914
  157MOL0     H21166   9.569   6.560   8.359  1.9693 -0.4678 -0.1774
  157MOL0     H21167   9.564   6.401   8.146  3.6833  1.2981 -2.0162
  157MOL0     H21168   9.551   6.265   8.250  0.3751  0.1747 -1.4044
  157MOL0     H21169   9.789   6.451   8.260  1.2110  0.0725  2.7948
  157MOL0     H21170   9.766   6.314   8.366  2.4218 -1.2013 -1.7992
  157MOL0     H21171   9.772   6.295   8.064  0.5852 -1.5085 -0.8295
  157MOL0     H21172   9.756   6.154   8.179 -0.3673  0.6486  0.2555
  157MOL0     H21173   9.997   6.338   8.124  2.0895 -0.4127 -0.0637
  157MOL0     H21174   9.986   6.225   8.253  1.1503 -0.0765 -0.6682
  157MOL0     H21175   8.862   6.502   8.423 -0.5237  0.6598 -2.8466
  157MOL0     H21176   8.674   6.597   8.527  0.3975  0.4664 -1.0669
  157MOL0     H21177   8.509   7.040   8.575 -0.7484  0.3894 -0.2867
  157MOL0     H21178   8.285   7.178   8.563 -1.8336  0.2521  2.1252
  157MOL0     H21179   6.202   6.872   8.398 -2.3627  2.8868  0.3192
  157MOL0     H21180   6.068   6.662   8.336  3.2160 -0.2765 -0.4773
  157MOL0     H21181   5.909   6.149   8.595  0.0297 -0.5992 -0.6200
  157MOL0     H21182   5.744   6.004   8.584 -0.0106  0.3940  1.6432
  157MOL0     H21183   5.296   6.008   8.471  1.7300 -0.6016 -3.1853
  157MOL0     H21184   5.342   6.164   8.418  1.9013 -0.0277 -0.7239
  157MOL0     H21185   5.391   6.235   8.654  0.0384  2.2719 -2.0444
  157MOL0     H21186   5.350   6.073   8.702  0.2443  1.8587  2.0500
  157MOL0     H21187   5.119   6.080   8.640 -1.4414  0.7140  2.0757
  157MOL0     H21188   5.140   6.243   8.566  1.6967  0.2183  0.1011
  157MOL0     H21189   5.172   6.195   8.867 -1.6256  0.2312  1.0807
  157MOL0     H21190   5.173   6.346   8.778 -0.3298 -0.1576 -1.4550
  157MOL0     H21191   4.761   6.251   8.806 -0.7896 -0.3493 -1.6248
  157MOL0     H21192   5.483   6.303   8.415 -1.2338 -0.7101  2.2581
  157MOL0     H21193   5.565   6.494   8.315 -2.4045  0.7358  2.7859
  157MOL0     H21194   5.625   6.571   8.467  0.9535  0.8012 -0.3002
  157MOL0     H21195   5.736   6.524   8.327  0.0484 -3.8697 -2.3554
  158MOL0     O21196   7.631   8.328   4.355  0.1109 -0.4117 -0.3914
  158MOL0     C21197   7.570   8.331   4.461 -0.1593  0.2338  0.0505
  158MOL0     O21198   7.619   8.379   4.579 -0.3909  0.0226  0.4201
  158MOL0     C21199   7.756   8.413   4.591  1.0312 -0.5678  0.9827
  158MOL0     C21200   7.812   8.384   4.714 -1.0141 -0.1704 -0.2484
  158MOL0     C21201   7.937   8.414   4.746  0.0094 -0.1247 -1.5411
  158MOL0     C21202   8.017   8.479   4.660 -0.0943 -0.4161 -0.2234
  158MOL0     O21203   8.133   8.533   4.714  0.7193  0.0485 -0.2064
  158MOL0     C21204   8.239   8.567   4.625  0.7693  0.7750  0.3980
  158MOL0     C21205   8.374   8.588   4.689 -0.3629 -0.5724  0.1086
  158MOL0     C21206   8.388   8.731   4.734 -0.3689 -0.1071 -0.4359
  158MOL0     C21207   8.534   8.760   4.777 -0.4868 -0.4875 -0.8895
  158MOL0     C21208   8.543   8.909   4.818  0.0634 -0.4000 -0.0059
  158MOL0     C21209   8.687   8.943   4.861  0.2789 -0.1578  0.1955
  158MOL0     C21210   8.703   9.086   4.898 -0.0438  0.1764  0.0412
  158MOL0     C21211   8.843   9.126   4.925 -0.6758 -0.1637 -0.3306
  158MOL0     N21212   8.914   9.052   5.034 -0.4636  0.2711  0.4073
  158MOL0     C21213   8.931   9.092   5.166  0.4276  0.6748 -0.1465
  158MOL0     C21214   9.016   9.002   5.213  0.5106  1.0708  0.4504
  158MOL0     C21215   9.086   9.007   5.347 -0.5309  0.7618  0.2157
  158MOL0     C21216   9.243   8.998   5.342 -0.2742 -0.6371 -0.6516
  158MOL0     C21217   9.285   8.859   5.306 -0.8282 -0.0472  0.0887
  158MOL0     C21218   9.243   8.745   5.407  0.2318  0.6777  0.6643
  158MOL0     O21219   9.330   8.637   5.399  0.5424  0.3951  0.1944
  158MOL0     C21220   9.449   8.638   5.471 -0.1358  0.0299  0.7549
  158MOL0     C21221   9.526   8.528   5.435  0.2993  0.5415 -0.7059
  158MOL0     C21222   9.648   8.504   5.504  1.2115  0.5285  0.9098
  158MOL0     C21223   9.704   8.601   5.582 -0.3403  0.5586  0.0320
  158MOL0     C21224   9.839   8.575   5.634 -0.8451  0.2765  0.3312
  158MOL0     O21225   9.894   8.682   5.708  0.6432  1.3308  0.0236
  158MOL0     C21226  10.025   8.673   5.745 -0.3813 -0.1412 -0.1590
  158MOL0     C21227  10.115   8.778   5.710  0.4129 -0.0222  0.1406
  158MOL0     C21228  10.251   8.774   5.741  0.0410 -0.1514 -0.0419
  158MOL0     C21229  10.308   8.665   5.805 -0.4357 -0.1188  0.2515
  158MOL0     O21230  10.449   8.654   5.816  0.1319 -0.1278 -0.4591
  158MOL0     C21231  10.495   8.523   5.855  0.6370  0.1252  0.0291
  158MOL0     C21232  10.646   8.509   5.865  0.9683  0.2024  0.0696
  158MOL0     C21233  10.688   8.563   5.997  0.1195 -0.6710  0.3551
  158MOL0     C21234  10.837   8.614   5.991  0.0007  0.0042 -0.2232
  158MOL0     C21235  10.932   8.503   5.946  0.5659  0.7266  0.7054
  158MOL0     C21236  11.070   8.536   5.986  0.3502 -0.2683 -0.3999
  158MOL0     C21237  11.174   8.432   5.945  0.1907  0.1040 -0.3451
  158MOL0     C21238  11.297   8.440   6.031  0.2162 -0.0632  0.1600
  158MOL0    Cl21239  11.406   8.301   5.983 -0.5020 -0.5586 -0.1798
  158MOL0     C21240  10.218   8.564   5.846 -0.0264 -0.2570 -0.5268
  158MOL0     C21241  10.074   8.573   5.826 -0.3757 -0.2552 -0.7847
  158MOL0     O21242   9.881   8.459   5.629  0.3223 -0.4745  0.1730
  158MOL0     C21243   9.634   8.721   5.622  0.4002  0.7286  1.0111
  158MOL0     C21244   9.507   8.733   5.558 -0.0089 -0.4138  0.3912
  158MOL0     N21245   9.051   8.903   5.117 -0.0607  0.7633  0.6495
  158MOL0     N21246   8.991   8.945   5.005 -0.1764  0.2071  0.5574
  158MOL0     C21247   7.968   8.523   4.537  1.1928  0.9101  0.4075
  158MOL0     C21248   7.835   8.489   4.502  0.3189 -0.0285 -1.0474
  158MOL0     C21249   7.421   8.281   4.468 -0.3482 -0.3726  0.2824
  158MOL0     C21250   7.349   8.276   4.585 -0.0237  0.0830 -1.0176
  158MOL0     C21251   7.215   8.239   4.590 -0.1681  0.9360  0.1587
  158MOL0     C21252   7.144   8.199   4.469  0.2864 -0.1686 -0.4473
  158MOL0     O21253   7.010   8.159   4.466 -0.3590 -0.2673 -0.2587
  158MOL0     C21254   6.967   8.073   4.576  1.2369 -0.5161  0.2254
  158MOL0     C21255   7.032   7.940   4.562  0.3692 -0.0653  0.3822
  158MOL0     C21256   6.944   7.832   4.616 -0.3425 -0.7126 -1.1368
  158MOL0     C21257   6.991   7.679   4.608  0.8106 -0.9694  0.3606
  158MOL0     C21258   7.075   7.656   4.715  0.8302  0.7393 -0.4500
  158MOL0     C21259   7.152   7.628   4.805  0.4996 -0.2096 -1.3550
  158MOL0     C21260   7.218   8.193   4.350 -0.3590 -0.6577 -0.1988
  158MOL0     C21261   7.352   8.236   4.349 -0.1689 -0.2345  0.2923
  158MOL0     C21262   7.412   8.208   4.211 -0.2855 -0.7342  0.8854
  158MOL0     H21263   7.747   8.325   4.778  2.0516 -3.7309 -0.1058
  158MOL0     H21264   7.981   8.378   4.839 -1.9956  1.1151 -0.0414
  158MOL0     H21265   8.252   8.481   4.558  1.9762  0.6642  0.7545
  158MOL0     H21266   8.209   8.656   4.568  1.1042  0.5721 -0.1042
  158MOL0     H21267   8.455   8.559   4.623  0.9555  0.9535  0.9827
  158MOL0     H21268   8.381   8.522   4.777  3.0007 -1.6721 -0.8332
  158MOL0     H21269   8.322   8.757   4.817  0.2554  0.0198  0.0367
  158MOL0     H21270   8.372   8.797   4.649 -0.0756  0.6922  0.1150
  158MOL0     H21271   8.557   8.707   4.870 -0.6602  0.0999 -0.5046
  158MOL0     H21272   8.605   8.738   4.697  1.1783  0.8328  0.1637
  158MOL0     H21273   8.499   8.987   4.755 -3.4656 -0.3121  2.2873
  158MOL0     H21274   8.474   8.923   4.902 -0.3533 -2.1980 -0.0203
  158MOL0     H21275   8.719   8.878   4.944  0.1069  0.0706  0.4417
  158MOL0     H21276   8.754   8.924   4.777 -1.5017  0.3221 -1.3925
  158MOL0     H21277   8.647   9.124   4.984 -1.4134  1.1829 -1.2330
  158MOL0     H21278   8.657   9.150   4.822 -1.6501  0.2498  1.0389
  158MOL0     H21279   8.895   9.123   4.828 -0.4921 -0.1394 -0.2343
  158MOL0     H21280   8.840   9.224   4.972 -4.1459 -0.7189  0.8514
  158MOL0     H21281   8.897   9.181   5.216  0.2053  0.0242  0.8943
  158MOL0     H21282   9.063   9.092   5.413  0.6748  0.7135  0.7139
  158MOL0     H21283   9.052   8.921   5.406  1.4399 -0.6866 -0.6733
  158MOL0     H21284   9.282   9.066   5.265 -0.8170 -0.7651 -1.0479
  158MOL0     H21285   9.275   9.039   5.438 -3.0920 -0.3102  0.2315
  158MOL0     H21286   9.394   8.848   5.302 -0.6773  1.1394  0.6818
  158MOL0     H21287   9.266   8.838   5.200  0.4031  1.9010 -0.5697
  158MOL0     H21288   9.146   8.708   5.373 -1.1546  1.8905  2.9945
  158MOL0     H21289   9.224   8.791   5.505 -0.6404  2.1268 -0.1451
  158MOL0     H21290   9.491   8.454   5.363  3.6393  0.0288 -2.0113
  158MOL0     H21291   9.699   8.413   5.473  2.8709  1.7120  0.0663
  158MOL0     H21292  10.076   8.871   5.670 -0.3847  0.4479  1.9109
  158MOL0     H21293  10.312   8.860   5.714 -1.1173  1.3612  1.9481
  158MOL0     H21294  10.460   8.491   5.954  1.4647  1.3715  0.7486
  158MOL0     H21295  10.474   8.455   5.772  1.5337  2.7216 -2.4964
  158MOL0     H21296  10.684   8.407   5.854  0.1521  0.0471 -1.6220
  158MOL0     H21297  10.683   8.574   5.786 -0.3440  0.2590 -0.5248
  158MOL0     H21298  10.620   8.643   6.028 -1.2108 -3.0448  4.2959
  158MOL0     H21299  10.680   8.488   6.075 -0.6655 -0.8486  0.1114
  158MOL0     H21300  10.864   8.643   6.093  3.0023  0.8923 -1.1608
  158MOL0     H21301  10.852   8.699   5.925 -0.0418 -0.0045 -0.2432
  158MOL0     H21302  10.929   8.488   5.837  1.2577 -3.8895  1.1232
  158MOL0     H21303  10.914   8.403   5.984  1.2835  0.7816  1.2080
  158MOL0     H21304  11.110   8.626   5.939 -0.8591  0.3696 -0.2535
  158MOL0     H21305  11.066   8.564   6.092  1.7587 -0.0810 -0.3779
  158MOL0     H21306  11.200   8.446   5.839  1.3434  1.5037  0.0824
  158MOL0     H21307  11.127   8.334   5.945 -0.7862  0.5614 -0.7551
  158MOL0     H21308  11.349   8.535   6.016  1.8668 -0.7083  1.5254
  158MOL0     H21309  11.274   8.436   6.138  2.3575  0.1239  0.6785
  158MOL0     H21310  10.253   8.493   5.921  0.2339  2.8304  2.5275
  158MOL0     H21311  10.015   8.486   5.855  1.0477 -0.0794  3.2654
  158MOL0     H21312   9.662   8.789   5.701 -1.0821  0.9788  1.3495
  158MOL0     H21313   9.448   8.822   5.580  0.3011  0.1074 -0.8237
  158MOL0     H21314   8.023   8.582   4.464 -0.3317  0.6332 -1.0204
  158MOL0     H21315   7.794   8.509   4.404 -2.9798  2.3057  0.6296
  158MOL0     H21316   7.398   8.314   4.674 -0.8006  1.0789 -1.0078
  158MOL0     H21317   7.167   8.250   4.687 -0.7117 -1.1653  0.1675
  158MOL0     H21318   6.860   8.059   4.559  1.6085 -0.6937 -2.2866
  158MOL0     H21319   6.966   8.122   4.674  1.1504 -0.8102  0.3739
  158MOL0     H21320   7.120   7.943   4.628  0.6116 -1.7767  0.1746
  158MOL0     H21321   7.064   7.919   4.460 -1.8260  1.3576 -0.6754
  158MOL0     H21322   6.849   7.829   4.563  0.2952 -0.9728 -2.3024
  158MOL0     H21323   6.916   7.847   4.721  1.9752  0.3811 -0.6039
  158MOL0     H21324   6.900   7.621   4.590 -0.1598  1.2054 -2.5260
  158MOL0     H21325   7.047   7.662   4.515 -2.5997  0.9710 -2.2908
  158MOL0     H21326   7.210   7.591   4.887  0.7250  0.8942 -1.0005
  158MOL0     H21327   7.157   8.166   4.264  0.3842  1.0254 -1.3030
  158MOL0     H21328   7.353   8.139   4.149  1.4415  0.0365 -1.7743
  158MOL0     H21329   7.429   8.299   4.153 -0.5907 -1.1275  0.1582
  158MOL0     H21330   7.503   8.147   4.199  0.7190  1.2753 -3.7336
  159MOL0     O21331   4.922   9.890   4.722  0.1577  0.4486  0.3427
  159MOL0     C21332   4.925   9.823   4.832  0.8142 -1.1231 -0.7516
  159MOL0     O21333   5.026   9.827   4.925 -0.5484 -0.5671  0.2879
  159MOL0     C21334   5.157   9.852   4.873  0.6675  0.5037 -0.7666
  159MOL0     C21335   5.189   9.962   4.787  0.8642  0.4337 -0.0396
  159MOL0     C21336   5.326   9.987   4.753  0.6707 -0.4461 -0.4405
  159MOL0     C21337   5.423   9.892   4.791  0.2211  0.0259  0.1903
  159MOL0     O21338   5.547   9.878   4.733 -0.5554  0.2107  0.0388
  159MOL0     C21339   5.586   9.972   4.636 -0.2861 -0.8792 -0.6463
  159MOL0     C21340   5.704   9.910   4.567  0.3248 -0.0972  0.0864
  159MOL0     C21341   5.837   9.931   4.650 -0.3764  0.6575  0.6477
  159MOL0     C21342   5.949   9.862   4.578  0.3355 -1.3018  0.4113
  159MOL0     C21343   6.083   9.909   4.643  0.0330  0.0253  0.1998
  159MOL0     C21344   6.204   9.841   4.581 -0.3056  0.0149  0.3780
  159MOL0     C21345   6.336   9.877   4.655  1.1814  0.2842 -0.3405
  159MOL0     C21346   6.457   9.827   4.586 -0.7243 -0.8618 -0.1680
  159MOL0     N21347   6.570   9.908   4.634  0.3848  0.2778  0.7566
  159MOL0     C21348   6.610  10.032   4.580  0.2613 -0.3954  0.5983
  159MOL0     C21349   6.710  10.078   4.660  0.1674 -0.6002 -0.2244
  159MOL0     C21350   6.761  10.221   4.658 -0.0122  0.4116 -0.2999
  159MOL0     C21351   6.903  10.221   4.607  0.8640 -0.2066  0.4282
  159MOL0     C21352   6.967  10.359   4.635 -0.2342  0.5509 -0.8540
  159MOL0     C21353   7.117  10.355   4.602  0.5965 -0.0837  0.5622
  159MOL0     O21354   7.181  10.265   4.695 -0.2957 -1.1742 -0.2414
  159MOL0     C21355   7.313  10.269   4.712  0.0096  0.4064 -0.1895
  159MOL0     C21356   7.364  10.164   4.791 -0.1414 -0.5446  0.4815
  159MOL0     C21357   7.502  10.156   4.805  0.4217  0.4779 -0.4081
  159MOL0     C21358   7.594  10.238   4.733 -0.2315  0.3353  0.4245
  159MOL0     C21359   7.743  10.218   4.740 -1.0241 -0.6950 -0.3528
  159MOL0     O21360   7.788  10.120   4.814  0.7835  0.1352 -0.3505
  159MOL0     C21361   7.921  10.105   4.850 -0.5194  0.7440  0.2696
  159MOL0     C21362   8.025  10.205   4.844  0.9269 -0.2249  0.4548
  159MOL0     C21363   8.154  10.182   4.885  0.8288  0.2343 -0.6380
  159MOL0     C21364   8.177  10.064   4.951 -0.5318  0.1895  0.6455
  159MOL0     O21365   8.294  10.022   5.004 -0.9217  0.3352 -0.9896
  159MOL0     C21366   8.403  10.119   5.010  0.5732  0.3665  0.2807
  159MOL0     C21367   8.516  10.060   5.094 -0.2282 -0.4281 -0.5629
  159MOL0     C21368   8.628  10.159   5.111  0.9279  0.6462 -0.4674
  159MOL0     C21369   8.754  10.101   5.163  0.1112 -0.3119 -0.6919
  159MOL0     C21370   8.861  10.202   5.180 -1.0204 -0.2908  0.5444
  159MOL0     C21371   9.000  10.146   5.215 -0.0331 -0.7032 -0.4997
  159MOL0     C21372   9.102  10.262   5.219 -0.2714  0.7402 -0.4601
  159MOL0     C21373   9.244  10.197   5.250 -0.4483  0.5133  0.1541
  159MOL0    Cl21374   9.375  10.321   5.227 -0.0857 -0.0916  0.0665
  159MOL0     C21375   8.079   9.968   4.962 -0.2681  0.5275 -0.7188
  159MOL0     C21376   7.956   9.988   4.916 -0.0285 -0.3208 -1.1344
  159MOL0     O21377   7.809  10.300   4.672 -0.5183  0.0053 -0.2484
  159MOL0     C21378   7.538  10.347   4.669 -0.9468 -0.4807 -0.0364
  159MOL0     C21379   7.405  10.359   4.658  0.2312 -0.2013  0.1024
  159MOL0     N21380   6.754   9.978   4.737 -0.7301  0.8583  0.3966
  159MOL0     N21381   6.669   9.875   4.722 -0.0841  0.2113  0.1162
  159MOL0     C21382   5.381   9.786   4.876 -0.1056 -0.1386  0.1414
  159MOL0     C21383   5.251   9.761   4.913  0.5179  0.2680  0.0201
  159MOL0     C21384   4.807   9.754   4.871  0.0431  0.2120 -0.3512
  159MOL0     C21385   4.686   9.788   4.819  0.1447  0.5694  0.5185
  159MOL0     C21386   4.564   9.724   4.860 -0.5075  0.1649 -0.1535
  159MOL0     C21387   4.564   9.619   4.956  0.7725 -0.3371  0.5261
  159MOL0     O21388   4.456   9.563   5.012  0.3804 -0.7401  0.1973
  159MOL0     C21389   4.330   9.598   4.961  0.2984 -1.1722  0.3185
  159MOL0     C21390   4.228   9.504   5.025  1.2992  0.2411  0.6718
  159MOL0     C21391   4.114   9.468   4.928  0.1440 -0.5414  0.1527
  159MOL0     C21392   4.008   9.376   4.984  1.0661 -0.5323  0.3166
  159MOL0     C21393   3.948   9.413   5.110 -0.6702 -0.4474  0.2786
  159MOL0     C21394   3.900   9.454   5.213  0.0969 -0.0639 -0.9275
  159MOL0     C21395   4.690   9.584   5.002  0.3840  0.2725 -0.3152
  159MOL0     C21396   4.807   9.637   4.956 -0.7762  0.2928 -0.1644
  159MOL0     C21397   4.934   9.564   4.997  0.5814  0.0437  0.1339
  159MOL0     H21398   5.110  10.023   4.743  0.8025  1.6710  1.6696
  159MOL0     H21399   5.350  10.079   4.700 -0.1927 -0.4346 -0.8252
  159MOL0     H21400   5.499   9.993   4.573 -0.7520  0.2867  0.3539
  159MOL0     H21401   5.617  10.067   4.681 -4.2081  0.7532 -1.0324
  159MOL0     H21402   5.711   9.971   4.477 -1.5041  0.4181  0.2383
  159MOL0     H21403   5.674   9.806   4.551 -0.5189  0.2354 -0.5970
  159MOL0     H21404   5.829   9.880   4.746 -1.7205  0.1806  0.2995
  159MOL0     H21405   5.851  10.039   4.656  3.5430  0.4759 -1.5111
  159MOL0     H21406   5.940   9.753   4.577 -0.7498 -1.2528  1.9350
  159MOL0     H21407   5.951   9.893   4.473  1.6070 -1.2583  0.4364
  159MOL0     H21408   6.086  10.018   4.637 -0.6489  0.0755  0.6119
  159MOL0     H21409   6.081   9.879   4.749  0.1128  1.0203  0.4948
  159MOL0     H21410   6.204   9.732   4.587  1.3778 -0.0617 -0.3076
  159MOL0     H21411   6.215   9.870   4.476 -2.1095  0.2203  0.2162
  159MOL0     H21412   6.326   9.824   4.749 -0.1350 -1.3995 -1.3726
  159MOL0     H21413   6.347   9.984   4.676  3.3719  0.1981 -0.8448
  159MOL0     H21414   6.480   9.725   4.617  2.0811  0.7743  3.9749
  159MOL0     H21415   6.443   9.834   4.478  0.4205 -0.1783 -0.2867
  159MOL0     H21416   6.542  10.088   4.517 -0.0471 -0.9725  0.4161
  159MOL0     H21417   6.706  10.285   4.588 -2.2281  0.6921  1.5946
  159MOL0     H21418   6.755  10.255   4.761 -0.9007 -0.0242 -0.1966
  159MOL0     H21419   6.961  10.138   4.645 -0.1511 -0.0175  2.5297
  159MOL0     H21420   6.896  10.202   4.499 -0.7388 -1.5169  0.7267
  159MOL0     H21421   6.964  10.378   4.743 -0.1303 -0.2805 -0.6977
  159MOL0     H21422   6.916  10.436   4.576  0.1011  1.1725 -0.3429
  159MOL0     H21423   7.150  10.459   4.610  0.4916 -0.0015 -0.0148
  159MOL0     H21424   7.130  10.327   4.497  0.2702  0.4698  0.3681
  159MOL0     H21425   7.307  10.085   4.839  1.2992 -2.9947 -1.6261
  159MOL0     H21426   7.546  10.072   4.858 -0.3188 -0.4691 -1.2720
  159MOL0     H21427   8.006  10.306   4.809  0.1057 -0.6177 -0.2781
  159MOL0     H21428   8.223  10.263   4.865 -0.3213  1.0690 -1.3573
  159MOL0     H21429   8.434  10.132   4.906 -2.6371 -0.0419 -0.8314
  159MOL0     H21430   8.373  10.215   5.053 -1.8480  0.1110 -0.7084
  159MOL0     H21431   8.478  10.023   5.190  0.1993 -1.6513 -0.8506
  159MOL0     H21432   8.552   9.976   5.034 -0.4053 -0.5140 -0.5492
  159MOL0     H21433   8.654  10.207   5.017  4.0269 -1.1218 -0.6610
  159MOL0     H21434   8.598  10.236   5.183 -1.1831 -2.4384  2.2699
  159MOL0     H21435   8.776  10.013   5.103 -3.7989 -1.5187 -0.6351
  159MOL0     H21436   8.748  10.062   5.266  1.4897  1.6258  0.1935
  159MOL0     H21437   8.829  10.280   5.250 -0.8831  1.2134 -1.0126
  159MOL0     H21438   8.872  10.251   5.083 -0.8189 -2.4382 -0.5947
  159MOL0     H21439   9.008  10.104   5.316  0.0346 -0.8341 -0.5590
  159MOL0     H21440   9.015  10.076   5.132  1.8723 -1.1606  0.1744
  159MOL0     H21441   9.069  10.329   5.299 -1.3290 -1.1849  0.8016
  159MOL0     H21442   9.098  10.311   5.122 -1.4501 -0.4612 -1.0568
  159MOL0     H21443   9.246  10.169   5.355 -2.1195 -1.3397 -0.2399
  159MOL0     H21444   9.272  10.112   5.186  0.4090 -0.5965  1.9077
  159MOL0     H21445   8.103   9.874   5.012  0.4891  1.2338  0.2804
  159MOL0     H21446   7.886   9.907   4.931 -0.3161  0.0380 -0.5410
  159MOL0     H21447   7.610  10.422   4.638 -0.7731 -0.1194  1.1924
  159MOL0     H21448   7.371  10.434   4.588  0.8963 -0.6693 -0.7577
  159MOL0     H21449   5.467   9.729   4.909  2.6067  2.8377 -1.2618
  159MOL0     H21450   5.219   9.671   4.964  0.0531  0.1890 -0.4034
  159MOL0     H21451   4.679   9.872   4.751  0.8975  1.4324  1.4726
  159MOL0     H21452   4.473   9.773   4.828  0.2042  0.0658 -2.4943
  159MOL0     H21453   4.323   9.592   4.852  4.0220  1.5458 -0.2728
  159MOL0     H21454   4.307   9.703   4.983 -0.5633 -0.8118 -2.0215
  159MOL0     H21455   4.201   9.542   5.123  1.5504  0.4130  0.6755
  159MOL0     H21456   4.284   9.411   5.043 -0.4989 -1.0838 -0.2814
  159MOL0     H21457   4.163   9.418   4.844  0.4100 -0.0968  0.0401
  159MOL0     H21458   4.065   9.560   4.894  1.0050 -0.0050  0.3194
  159MOL0     H21459   3.930   9.374   4.907 -1.2650  0.8840  2.4856
  159MOL0     H21460   4.062   9.281   4.990  0.6274 -1.0046 -2.1911
  159MOL0     H21461   3.853   9.472   5.308 -1.0077  2.8483 -1.8984
  159MOL0     H21462   4.671   9.498   5.066  2.2271 -0.4029 -0.6108
  159MOL0     H21463   4.909   9.464   5.033 -0.2553 -1.2110 -3.4718
  159MOL0     H21464   5.010   9.557   4.918  0.8081  0.9585  0.2598
  159MOL0     H21465   4.985   9.623   5.074 -0.4784  1.7914 -0.4439
  160MOL0     O21466   5.039   4.700   2.629  0.1442  0.0759  0.4764
  160MOL0     C21467   4.948   4.735   2.557  0.1541 -0.2404  0.5002
  160MOL0     O21468   4.930   4.853   2.505  0.4166  0.0088  1.0915
  160MOL0     C21469   5.028   4.952   2.498  0.3625 -1.1636 -0.6346
  160MOL0     C21470   5.011   5.076   2.566 -0.2246  0.2490  0.4991
  160MOL0     C21471   5.110   5.183   2.550  0.8805  0.3101  0.3580
  160MOL0     C21472   5.216   5.172   2.464 -0.9653  0.1714  0.3577
  160MOL0     O21473   5.302   5.285   2.448  0.0943  0.4756 -0.3586
  160MOL0     C21474   5.412   5.292   2.355 -0.2775 -0.5760 -0.4560
  160MOL0     C21475   5.482   5.421   2.384  0.9056 -0.1018  0.5264
  160MOL0     C21476   5.629   5.414   2.352 -0.7152 -0.9488 -0.2156
  160MOL0     C21477   5.703   5.531   2.413  0.7121  0.3826 -0.5646
  160MOL0     C21478   5.845   5.545   2.373 -0.8174 -0.8975 -1.0668
  160MOL0     C21479   5.881   5.549   2.226 -0.0509 -0.0944 -0.0063
  160MOL0     C21480   6.019   5.615   2.200 -0.2427 -0.8483 -0.1746
  160MOL0     C21481   6.124   5.533   2.280  0.0430  0.0488 -0.4089
  160MOL0     N21482   6.257   5.550   2.206  0.1269 -0.6266  0.6155
  160MOL0     C21483   6.345   5.651   2.207  0.0380 -0.5602 -0.7871
  160MOL0     C21484   6.434   5.627   2.108  0.5686  0.1126 -0.0959
  160MOL0     C21485   6.537   5.724   2.062  0.2812  0.0043 -0.2240
  160MOL0     C21486   6.687   5.669   2.101  0.8688 -0.2149  0.5409
  160MOL0     C21487   6.776   5.764   2.022 -0.3878  0.3647 -0.1145
  160MOL0     C21488   6.919   5.725   2.048 -1.0969 -0.6867 -0.0682
  160MOL0     O21489   6.940   5.612   1.969  0.5107  0.0595 -0.6410
  160MOL0     C21490   7.060   5.577   1.933 -0.6463 -0.5114  0.5269
  160MOL0     C21491   7.177   5.618   1.995  0.5866 -0.2256  0.0102
  160MOL0     C21492   7.302   5.579   1.959 -0.3233 -0.1970  1.3010
  160MOL0     C21493   7.316   5.506   1.835 -0.6757 -0.6943  0.2279
  160MOL0     C21494   7.451   5.475   1.786  0.2003 -0.2112  0.1359
  160MOL0     O21495   7.463   5.414   1.663 -0.0821  0.7649 -0.6183
  160MOL0     C21496   7.593   5.423   1.610 -0.6303  0.9364 -0.3224
  160MOL0     C21497   7.624   5.508   1.505 -0.6395 -0.1276  0.0834
  160MOL0     C21498   7.747   5.494   1.439  0.3459  0.1167  0.5251
  160MOL0     C21499   7.838   5.397   1.475  0.3862  0.3507  0.0871
  160MOL0     O21500   7.950   5.387   1.397 -0.4741 -0.2319 -0.4528
  160MOL0     C21501   8.047   5.293   1.435  0.1081  0.7770  0.4272
  160MOL0     C21502   8.184   5.303   1.359  0.0952 -0.7679  0.2199
  160MOL0     C21503   8.278   5.181   1.384  0.1237  0.3751  0.1079
  160MOL0     C21504   8.416   5.222   1.314  0.1096  0.9278 -0.2287
  160MOL0     C21505   8.526   5.133   1.380  0.4507  0.0119  0.3935
  160MOL0     C21506   8.496   4.982   1.337 -0.2076 -0.7595 -0.1237
  160MOL0     C21507   8.446   4.896   1.455  0.2802 -0.8168  0.0014
  160MOL0     C21508   8.536   4.776   1.495 -0.1208 -0.0141 -0.2435
  160MOL0    Cl21509   8.432   4.650   1.571  0.0516  0.0868  0.0635
  160MOL0     C21510   7.809   5.313   1.580  1.1814  0.6206 -0.7241
  160MOL0     C21511   7.686   5.318   1.647  0.1703 -0.1349  0.0867
  160MOL0     O21512   7.543   5.491   1.864  0.3533 -0.1047 -0.5981
  160MOL0     C21513   7.203   5.462   1.775 -0.0161  0.6752 -0.4905
  160MOL0     C21514   7.077   5.488   1.825 -0.3143 -1.3369  0.9368
  160MOL0     N21515   6.412   5.501   2.048 -0.1293  0.0258 -0.0177
  160MOL0     N21516   6.310   5.454   2.119  0.0925  0.0469 -0.1353
  160MOL0     C21517   5.218   5.043   2.391  0.3379 -0.0353  0.8235
  160MOL0     C21518   5.133   4.940   2.414 -0.0840 -0.6059  0.1592
  160MOL0     C21519   4.829   4.643   2.542  0.5125  0.5435 -0.2083
  160MOL0     C21520   4.725   4.677   2.443 -0.5436 -0.0552 -0.4898
  160MOL0     C21521   4.615   4.596   2.423 -0.3539  0.7956 -0.1176
  160MOL0     C21522   4.600   4.476   2.490 -0.5032  0.0415  0.1891
  160MOL0     O21523   4.491   4.391   2.472  0.1352 -0.5801  0.3899
  160MOL0     C21524   4.371   4.445   2.408 -0.8037  0.1640 -0.7893
  160MOL0     C21525   4.274   4.326   2.400 -0.4567 -0.2072 -0.1349
  160MOL0     C21526   4.225   4.262   2.527  0.0727 -0.4318  0.3687
  160MOL0     C21527   4.120   4.353   2.601 -0.9421 -0.3654  0.0039
  160MOL0     C21528   4.082   4.315   2.737 -0.4521 -0.3954  0.2012
  160MOL0     C21529   4.031   4.291   2.842  0.8213 -0.0861  0.2672
  160MOL0     C21530   4.693   4.444   2.573 -1.1291  0.2469 -0.3935
  160MOL0     C21531   4.806   4.518   2.608  0.0644  0.4911  0.6524
  160MOL0     C21532   4.901   4.472   2.722 -0.4687 -0.2007  0.1071
  160MOL0     H21533   4.918   5.074   2.622 -1.2128 -1.2117 -1.1091
  160MOL0     H21534   5.095   5.276   2.603 -2.6510 -0.9000  1.8163
  160MOL0     H21535   5.482   5.210   2.371  1.3343  0.7242 -0.4869
  160MOL0     H21536   5.370   5.305   2.255  1.1096 -0.6782 -1.0746
  160MOL0     H21537   5.470   5.443   2.491  0.2150  0.4625  0.3386
  160MOL0     H21538   5.434   5.510   2.343 -0.4107 -0.6958  0.7140
  160MOL0     H21539   5.628   5.405   2.243  0.4573  1.1936 -0.4519
  160MOL0     H21540   5.674   5.321   2.389  0.7520  0.3698  1.5352
  160MOL0     H21541   5.643   5.619   2.388 -1.3639 -0.7924  0.0114
  160MOL0     H21542   5.704   5.520   2.521 -0.4700  2.6234 -0.2572
  160MOL0     H21543   5.889   5.639   2.409  0.7186 -1.4270 -1.4962
  160MOL0     H21544   5.912   5.478   2.428  0.2601  1.8357  1.1933
  160MOL0     H21545   5.896   5.445   2.194  0.6408  0.6531 -2.2795
  160MOL0     H21546   5.801   5.598   2.169 -0.6739 -1.9033 -0.7706
  160MOL0     H21547   6.033   5.720   2.230 -3.1229 -0.5345  0.3753
  160MOL0     H21548   6.023   5.612   2.091 -2.3442  0.1915 -0.3207
  160MOL0     H21549   6.126   5.565   2.385  4.0186 -2.6661  0.5802
  160MOL0     H21550   6.089   5.430   2.281 -1.9184  0.5895  2.8984
  160MOL0     H21551   6.344   5.746   2.259 -2.4839 -0.4323 -0.9475
  160MOL0     H21552   6.527   5.726   1.953 -0.0011 -0.6960 -0.2155
  160MOL0     H21553   6.524   5.826   2.100 -0.6180  0.3801 -1.4734
  160MOL0     H21554   6.701   5.663   2.209  2.3325 -4.3245  0.2901
  160MOL0     H21555   6.686   5.569   2.055 -1.4293 -0.1191  0.2462
  160MOL0     H21556   6.767   5.868   2.055 -1.5482  0.6568 -1.2408
  160MOL0     H21557   6.766   5.758   1.913  3.2594 -1.8008 -0.4767
  160MOL0     H21558   6.940   5.709   2.154 -0.5697  3.6509  0.6837
  160MOL0     H21559   6.996   5.800   2.025 -0.1815 -0.6385  2.7627
  160MOL0     H21560   7.171   5.684   2.081  0.6894  2.8165 -2.1590
  160MOL0     H21561   7.392   5.620   2.005  0.1929  1.4349 -1.0161
  160MOL0     H21562   7.554   5.573   1.454 -0.4053  0.9835  1.1374
  160MOL0     H21563   7.753   5.557   1.350 -1.6252 -1.6552 -0.9701
  160MOL0     H21564   8.057   5.304   1.543  0.0706 -0.3067  0.5537
  160MOL0     H21565   8.016   5.190   1.417 -0.8954  1.4434 -2.1276
  160MOL0     H21566   8.166   5.307   1.251 -0.9668  1.8327  0.4173
  160MOL0     H21567   8.231   5.396   1.392  0.4299 -0.3382 -1.3881
  160MOL0     H21568   8.285   5.161   1.492 -0.7606 -0.3390  0.0403
  160MOL0     H21569   8.236   5.092   1.337  0.8084  0.6653 -1.0797
  160MOL0     H21570   8.446   5.321   1.350  1.5059  1.0702 -1.6330
  160MOL0     H21571   8.414   5.209   1.205 -0.6096  1.2833 -0.2623
  160MOL0     H21572   8.525   5.142   1.489  2.7318  0.7029  0.4021
  160MOL0     H21573   8.616   5.166   1.328 -1.0756  0.8984 -1.8576
  160MOL0     H21574   8.415   4.973   1.264 -1.4829 -0.8209  1.2485
  160MOL0     H21575   8.579   4.918   1.305 -0.3019 -2.1404  2.1458
  160MOL0     H21576   8.349   4.855   1.424  0.2961  0.2034 -1.5083
  160MOL0     H21577   8.422   4.956   1.543  1.9670 -1.1015  0.6880
  160MOL0     H21578   8.583   4.730   1.408 -3.2855 -2.1317 -0.9871
  160MOL0     H21579   8.609   4.813   1.569  0.1854  1.1773 -1.1137
  160MOL0     H21580   7.885   5.247   1.623  0.4970 -0.1242 -0.6400
  160MOL0     H21581   7.674   5.265   1.741 -1.1571 -0.5582 -0.2870
  160MOL0     H21582   7.210   5.400   1.686  1.5980  0.0413  0.0330
  160MOL0     H21583   6.985   5.471   1.770  1.1212 -3.1041 -1.1179
  160MOL0     H21584   5.303   5.015   2.330  0.5832 -1.0446  1.6028
  160MOL0     H21585   5.132   4.841   2.368 -2.4971 -1.6017  2.1521
  160MOL0     H21586   4.741   4.764   2.381  3.4574 -0.7519 -0.7445
  160MOL0     H21587   4.536   4.626   2.355  0.0056 -0.7673 -1.2764
  160MOL0     H21588   4.403   4.488   2.313  2.0726  1.2399  0.5406
  160MOL0     H21589   4.325   4.520   2.473  1.3384 -0.4425  1.5838
  160MOL0     H21590   4.323   4.251   2.336 -2.1460  0.0162 -1.7877
  160MOL0     H21591   4.181   4.361   2.355 -0.7831  1.1354  1.4812
  160MOL0     H21592   4.306   4.233   2.596 -0.3364 -3.0608 -0.1447
  160MOL0     H21593   4.178   4.168   2.500 -1.5533  0.8061 -1.3712
  160MOL0     H21594   4.161   4.454   2.614  0.8286 -1.2076  1.2733
  160MOL0     H21595   4.023   4.355   2.549 -2.8722 -1.5000  3.2829
  160MOL0     H21596   3.975   4.281   2.933  0.3761  2.1540  0.2956
  160MOL0     H21597   4.675   4.357   2.636 -0.6705 -0.7987 -1.6542
  160MOL0     H21598   4.895   4.552   2.796 -0.7861  3.9600 -3.9839
  160MOL0     H21599   4.861   4.379   2.762 -1.2088 -0.1444 -0.4844
  160MOL0     H21600   5.001   4.447   2.686  0.3728 -0.2033  2.3117
  161MOL0     O21601   7.947   1.102   2.562  0.4099 -0.3763 -0.0445
  161MOL0     C21602   7.888   1.086   2.672  0.1383 -0.3690  0.0703
  161MOL0     O21603   7.942   1.089   2.801 -0.1730 -0.0000  0.7571
  161MOL0     C21604   8.077   1.091   2.833  0.1399  0.4330  0.4261
  161MOL0     C21605   8.120   1.152   2.951  0.2308 -0.7512 -0.5316
  161MOL0     C21606   8.248   1.144   2.999  0.5484  0.1864  0.6501
  161MOL0     C21607   8.344   1.062   2.929  1.0355 -0.7600  0.3280
  161MOL0     O21608   8.476   1.061   2.974  0.1811  0.7777  0.3542
  161MOL0     C21609   8.573   1.035   2.875 -0.3454  0.5433  0.9600
  161MOL0     C21610   8.714   1.072   2.935  0.2606 -0.1154 -1.0804
  161MOL0     C21611   8.783   0.977   3.031 -0.1780  0.5349  0.5779
  161MOL0     C21612   8.836   0.856   2.946  0.2359 -0.4812 -0.2639
  161MOL0     C21613   8.882   0.731   3.022  0.1797  0.7190 -0.2371
  161MOL0     C21614   8.998   0.743   3.124 -0.4104  0.0634 -0.3655
  161MOL0     C21615   9.122   0.800   3.067  0.4996  0.4429  0.4716
  161MOL0     C21616   9.156   0.748   2.929  0.4932  0.4972  0.0398
  161MOL0     N21617   9.286   0.797   2.883 -0.3573  0.3381 -0.2165
  161MOL0     C21618   9.393   0.826   2.965  0.0335 -0.3982  0.4119
  161MOL0     C21619   9.487   0.890   2.889  0.0895 -0.5367 -0.3243
  161MOL0     C21620   9.620   0.951   2.932  0.2034 -0.4284 -0.4208
  161MOL0     C21621   9.748   0.886   2.880  0.0765  0.2824  0.6907
  161MOL0     C21622   9.856   0.988   2.872  0.0729 -0.1792  0.3578
  161MOL0     C21623   9.971   0.942   2.779 -0.0033  0.5396 -0.1850
  161MOL0     O21624  10.027   0.818   2.832 -0.2961 -0.6791  0.4533
  161MOL0     C21625  10.131   0.768   2.761 -0.5228 -0.2093  0.5223
  161MOL0     C21626  10.256   0.755   2.812  0.0416 -0.0983  0.4982
  161MOL0     C21627  10.369   0.702   2.734  0.4207  1.0418 -0.0249
  161MOL0     C21628  10.337   0.649   2.612 -0.3222 -0.6040  0.0105
  161MOL0     C21629  10.440   0.580   2.532 -0.0254  0.2537 -0.3430
  161MOL0     O21630  10.564   0.584   2.578 -0.4722  0.6183  0.0928
  161MOL0     C21631  10.665   0.549   2.487 -0.0560  1.0731  0.6426
  161MOL0     C21632  10.746   0.639   2.422  0.1946  0.2495 -0.1066
  161MOL0     C21633  10.859   0.603   2.341 -0.1248  0.1605  0.2467
  161MOL0     C21634  10.904   0.465   2.347  0.2606  0.2107  0.9391
  161MOL0     O21635  11.006   0.432   2.260  0.9676 -0.4024  0.0162
  161MOL0     C21636  11.050   0.301   2.243  0.2838  0.5887 -0.5794
  161MOL0     C21637  11.185   0.315   2.178 -0.3400  0.3673 -0.1189
  161MOL0     C21638  11.286   0.391   2.269  0.7841 -0.6097  0.0717
  161MOL0     C21639  11.422   0.387   2.202 -0.4727 -0.6500 -0.5054
  161MOL0     C21640  11.539   0.437   2.286 -0.1342  0.1455 -0.6399
  161MOL0     C21641  11.667   0.459   2.202  0.8907 -0.1594  0.9072
  161MOL0     C21642  11.792   0.488   2.283 -0.9217  0.4691 -0.1738
  161MOL0     C21643  11.922   0.455   2.217  0.9286  0.1811  1.4006
  161MOL0    Cl21644  11.944   0.572   2.093  0.3618 -0.1754  0.3779
  161MOL0     C21645  10.825   0.376   2.419  0.0312 -0.1385  0.2983
  161MOL0     C21646  10.713   0.418   2.489 -0.3976  0.5748 -0.6711
  161MOL0     O21647  10.405   0.545   2.424  0.7904 -0.4015 -0.1838
  161MOL0     C21648  10.200   0.651   2.561 -0.5742  0.0649 -0.3987
  161MOL0     C21649  10.103   0.703   2.644 -0.8281  0.1146 -0.6432
  161MOL0     N21650   9.435   0.898   2.763 -0.1286  0.2188 -0.6042
  161MOL0     N21651   9.315   0.843   2.758 -0.3794 -0.0653  0.8731
  161MOL0     C21652   8.300   0.998   2.811 -0.0721  0.1354 -0.8839
  161MOL0     C21653   8.165   1.014   2.765 -1.4226  0.5197 -1.1673
  161MOL0     C21654   7.738   1.067   2.655 -0.5412  0.6322 -0.2707
  161MOL0     C21655   7.682   1.054   2.527  0.1527  0.0889 -1.0161
  161MOL0     C21656   7.546   1.017   2.508 -0.3752 -1.0957 -0.5013
  161MOL0     C21657   7.464   0.992   2.617 -0.1851  0.2761  0.8426
  161MOL0     O21658   7.342   0.938   2.579 -0.6719  0.5916 -0.3623
  161MOL0     C21659   7.233   0.927   2.674  0.2302 -0.3523  0.5580
  161MOL0     C21660   7.100   0.884   2.609  0.0951  0.2043  0.6363
  161MOL0     C21661   7.117   0.737   2.549  0.2346  0.3766  0.2499
  161MOL0     C21662   6.985   0.681   2.482 -1.0640  0.9647  0.1409
  161MOL0     C21663   6.933   0.774   2.378  0.4463  0.5451 -0.1416
  161MOL0     C21664   6.898   0.867   2.314  0.7700  0.6382  0.4594
  161MOL0     C21665   7.509   1.006   2.746  0.1587  0.1177  0.0255
  161MOL0     C21666   7.645   1.034   2.766 -0.1176 -0.0072  0.1244
  161MOL0     C21667   7.699   1.021   2.907 -0.1787  0.0257 -0.5775
  161MOL0     H21668   8.053   1.221   3.001  0.4729 -2.0801  1.7875
  161MOL0     H21669   8.282   1.209   3.079  0.5027  0.0385  0.7919
  161MOL0     H21670   8.566   0.928   2.852 -0.2389  1.0905 -2.1036
  161MOL0     H21671   8.561   1.102   2.789  1.7373  0.0853  0.2643
  161MOL0     H21672   8.711   1.163   2.996 -2.8188  0.9041 -2.5564
  161MOL0     H21673   8.784   1.085   2.851 -0.4359  2.7138 -1.3359
  161MOL0     H21674   8.717   0.940   3.110  0.9884  1.8169  2.2382
  161MOL0     H21675   8.869   1.029   3.075 -0.0254  1.2268 -0.5308
  161MOL0     H21676   8.750   0.824   2.886 -1.3148  3.2982 -0.3404
  161MOL0     H21677   8.912   0.889   2.875 -0.8612  0.9216 -0.8333
  161MOL0     H21678   8.801   0.695   3.086  0.5474  1.6512  0.7820
  161MOL0     H21679   8.898   0.648   2.952 -1.0040 -0.6259  1.0097
  161MOL0     H21680   8.961   0.808   3.204  2.8067  0.2301  1.1553
  161MOL0     H21681   9.024   0.650   3.176  3.3963  2.1596  1.9504
  161MOL0     H21682   9.202   0.763   3.133  1.8595  1.7229 -0.3955
  161MOL0     H21683   9.117   0.908   3.077  0.6527  0.3513  1.7647
  161MOL0     H21684   9.140   0.640   2.919  1.0986  0.5295 -1.4870
  161MOL0     H21685   9.083   0.784   2.856  1.3363  0.8757 -0.6353
  161MOL0     H21686   9.406   0.797   3.069  0.2449  0.4855  0.6410
  161MOL0     H21687   9.620   1.055   2.899 -0.6483  0.2016  1.4250
  161MOL0     H21688   9.618   0.968   3.040 -3.5849  1.2883 -0.6139
  161MOL0     H21689   9.791   0.799   2.931  0.7747  1.2327  1.7668
  161MOL0     H21690   9.734   0.848   2.778 -0.2083  0.9942  0.4566
  161MOL0     H21691   9.895   0.987   2.974 -2.2438 -0.1748  1.3189
  161MOL0     H21692   9.819   1.084   2.837  1.0588 -0.0707 -0.4078
  161MOL0     H21693  10.050   1.016   2.764  0.3698  0.3811  0.8814
  161MOL0     H21694   9.934   0.928   2.677  0.2555  0.1484 -0.2273
  161MOL0     H21695  10.269   0.789   2.914  3.2855  1.6949 -0.3655
  161MOL0     H21696  10.468   0.695   2.777 -0.4157  2.4221  2.3149
  161MOL0     H21697  10.721   0.744   2.416  0.8193  0.4650  0.7827
  161MOL0     H21698  10.913   0.676   2.281 -1.4593  1.2973  0.3708
  161MOL0     H21699  11.049   0.235   2.330 -0.1687  1.6435  0.2403
  161MOL0     H21700  10.981   0.244   2.180 -0.2115 -1.4766  1.7174
  161MOL0     H21701  11.219   0.213   2.159 -2.9939 -0.7444  0.6128
  161MOL0     H21702  11.184   0.358   2.077  1.2491 -0.5472 -0.5572
  161MOL0     H21703  11.258   0.496   2.270 -0.9108 -0.8166 -4.0998
  161MOL0     H21704  11.287   0.351   2.371 -0.3190 -1.3239 -0.1825
  161MOL0     H21705  11.411   0.434   2.104  0.9046 -1.8715 -1.2904
  161MOL0     H21706  11.459   0.288   2.173  2.3912  0.4185 -0.7929
  161MOL0     H21707  11.546   0.363   2.366 -0.0910 -1.0562 -1.7133
  161MOL0     H21708  11.516   0.534   2.331 -2.2174 -1.0615  1.0428
  161MOL0     H21709  11.681   0.367   2.144 -0.9269 -0.4329  0.8449
  161MOL0     H21710  11.663   0.540   2.129 -1.9712 -1.7397 -0.8489
  161MOL0     H21711  11.779   0.427   2.373 -3.6876 -0.6592 -1.2478
  161MOL0     H21712  11.786   0.591   2.320 -2.6126  0.3910 -0.1503
  161MOL0     H21713  12.004   0.477   2.285  2.4031  1.1533 -0.5608
  161MOL0     H21714  11.916   0.353   2.178  1.8495  0.4010  0.6395
  161MOL0     H21715  10.864   0.274   2.422 -0.0018 -0.1993 -0.7823
  161MOL0     H21716  10.654   0.346   2.544  0.4585 -0.4602 -1.0742
  161MOL0     H21717  10.167   0.602   2.470  0.9803 -0.6756 -0.5816
  161MOL0     H21718  10.002   0.699   2.605 -0.6421  1.6000 -1.3291
  161MOL0     H21719   8.371   0.935   2.758  1.1242  0.3869  0.3744
  161MOL0     H21720   8.148   0.968   2.669  0.3000  0.2103 -1.3579
  161MOL0     H21721   7.749   1.071   2.443  2.8246  2.2191  1.3406
  161MOL0     H21722   7.508   1.007   2.407  0.3942  0.6497 -0.9946
  161MOL0     H21723   7.215   1.022   2.725  1.3805 -0.8882  2.0266
  161MOL0     H21724   7.247   0.854   2.754  0.4664 -0.3251  0.5400
  161MOL0     H21725   7.073   0.951   2.527 -2.0843  1.9744  2.6876
  161MOL0     H21726   7.028   0.891   2.691  1.3884  1.6093  1.7067
  161MOL0     H21727   7.143   0.672   2.633  0.9750 -3.3031 -2.5738
  161MOL0     H21728   7.206   0.726   2.487  0.8526 -0.8481  1.2937
  161MOL0     H21729   7.015   0.594   2.423  3.5139  1.7801  0.9596
  161MOL0     H21730   6.906   0.657   2.554 -1.9279  1.3114 -0.6698
  161MOL0     H21731   6.871   0.958   2.264  1.3832  2.5608  3.3543
  161MOL0     H21732   7.446   0.990   2.833  0.3853  2.6131  0.7526
  161MOL0     H21733   7.755   1.110   2.936  1.7057 -0.9089 -1.2200
  161MOL0     H21734   7.621   1.011   2.984  1.3119 -0.9161  0.8737
  161MOL0     H21735   7.767   0.935   2.907 -2.8528 -2.2489  0.2629
  162MOL0     O21736   5.641   7.330   8.531  0.2383  0.3500 -0.4454
  162MOL0     C21737   5.675   7.211   8.552 -0.3885  0.3348  0.8432
  162MOL0     O21738   5.802   7.164   8.555  0.2701  0.2294 -0.2306
  162MOL0     C21739   5.902   7.246   8.526 -0.0113  0.0475 -0.5019
  162MOL0     C21740   6.006   7.183   8.448  0.6722  0.1540 -0.6914
  162MOL0     C21741   6.126   7.248   8.418 -0.2369 -0.0899  0.1717
  162MOL0     C21742   6.156   7.376   8.477  0.7760  0.7675 -0.4671
  162MOL0     O21743   6.275   7.445   8.481 -0.5855  0.0016 -0.1434
  162MOL0     C21744   6.373   7.415   8.384 -0.2765  0.0793 -0.4280
  162MOL0     C21745   6.478   7.522   8.400 -0.7958  0.6690 -0.3122
  162MOL0     C21746   6.598   7.502   8.306 -0.1572  0.3518 -0.3170
  162MOL0     C21747   6.674   7.630   8.292 -0.3737 -1.4701  0.3192
  162MOL0     C21748   6.813   7.620   8.235 -0.5399 -0.4506  0.9439
  162MOL0     C21749   6.884   7.753   8.243  0.2881  0.5647  0.5178
  162MOL0     C21750   7.007   7.767   8.153  0.5805 -0.9929 -0.6341
  162MOL0     C21751   7.110   7.875   8.210 -0.6316 -0.0192 -0.5571
  162MOL0     N21752   7.220   7.885   8.113 -0.0800  0.0321 -0.6201
  162MOL0     C21753   7.335   7.820   8.115  0.0186  0.0101  0.6640
  162MOL0     C21754   7.406   7.867   8.005 -0.5662 -1.0255 -0.1599
  162MOL0     C21755   7.547   7.834   7.957  0.2510  0.3417  0.1450
  162MOL0     C21756   7.651   7.863   8.064  0.6074  0.0750  0.2085
  162MOL0     C21757   7.652   8.012   8.117  0.0456  0.5665 -0.0512
  162MOL0     C21758   7.659   8.116   7.999  1.2173  0.0575 -0.4070
  162MOL0     O21759   7.750   8.089   7.891 -0.7068  0.0953  0.2307
  162MOL0     C21760   7.886   8.100   7.919 -0.2414  0.1867  0.0549
  162MOL0     C21761   7.968   8.120   7.804  0.0361  0.1545 -0.2137
  162MOL0     C21762   8.104   8.147   7.820  0.1943 -0.3228 -0.3347
  162MOL0     C21763   8.167   8.171   7.946  0.6797 -0.8412 -0.0846
  162MOL0     C21764   8.318   8.190   7.954  0.4356  0.1325 -0.0024
  162MOL0     O21765   8.393   8.146   7.846  0.6538 -0.2153 -0.1452
  162MOL0     C21766   8.530   8.159   7.840  0.2715  0.6294  0.5248
  162MOL0     C21767   8.609   8.256   7.906 -0.0169 -0.0758 -0.2474
  162MOL0     C21768   8.749   8.263   7.881 -0.6513  0.1430  0.1525
  162MOL0     C21769   8.808   8.164   7.797 -0.4190  0.1974 -0.4028
  162MOL0     O21770   8.943   8.139   7.784  0.0482 -0.0820 -0.4437
  162MOL0     C21771   9.023   8.221   7.874  0.6566  0.8282  0.1082
  162MOL0     C21772   9.163   8.184   7.849  0.1368  0.2903 -0.1612
  162MOL0     C21773   9.268   8.286   7.894 -1.0977 -0.6814 -0.4794
  162MOL0     C21774   9.402   8.224   7.841  0.2326 -1.0021  0.7571
  162MOL0     C21775   9.522   8.301   7.893  0.9119  0.0844  0.2127
  162MOL0     C21776   9.646   8.247   7.814  0.0097 -1.2654  0.2949
  162MOL0     C21777   9.771   8.308   7.845  0.2883  0.2323 -0.4083
  162MOL0     C21778   9.887   8.252   7.767  1.0786 -0.3076  0.5034
  162MOL0    Cl21779  10.030   8.352   7.824  0.4865  0.0428 -0.2875
  162MOL0     C21780   8.728   8.078   7.723 -0.1366  0.1103 -0.0306
  162MOL0     C21781   8.592   8.081   7.745  0.5572 -0.5150  0.3004
  162MOL0     O21782   8.357   8.208   8.067  0.2870 -0.7341 -0.8151
  162MOL0     C21783   8.080   8.169   8.058 -0.3787 -0.0089 -1.1409
  162MOL0     C21784   7.945   8.142   8.040  0.6532  0.4942 -0.7181
  162MOL0     N21785   7.321   7.962   7.943 -0.5242 -0.1141 -0.0397
  162MOL0     N21786   7.211   7.964   8.005  0.8044 -0.0142  0.1987
  162MOL0     C21787   6.050   7.446   8.540  0.0735 -0.0350  0.6647
  162MOL0     C21788   5.929   7.381   8.578 -0.5699  0.0900  1.0276
  162MOL0     C21789   5.570   7.110   8.561  0.4090 -0.0775  0.1285
  162MOL0     C21790   5.439   7.154   8.596  0.2634  0.0120  0.1023
  162MOL0     C21791   5.341   7.060   8.607  0.2430 -0.7261  0.3127
  162MOL0     C21792   5.359   6.924   8.586 -0.0483  0.4831 -0.6668
  162MOL0     O21793   5.241   6.858   8.593  0.3469 -0.0808 -0.6422
  162MOL0     C21794   5.254   6.725   8.636 -0.3606 -1.0164 -0.3615
  162MOL0     C21795   5.123   6.655   8.662  0.0784 -0.2147  0.2645
  162MOL0     C21796   5.031   6.629   8.531  0.7689  1.0851 -0.2967
  162MOL0     C21797   4.914   6.537   8.563 -0.0816  0.6410  0.2555
  162MOL0     C21798   4.821   6.533   8.449  0.5030  0.6607 -0.2728
  162MOL0     C21799   4.742   6.538   8.351 -0.3677  0.3180  0.0708
  162MOL0     C21800   5.491   6.875   8.564 -0.2211 -0.8096  0.6445
  162MOL0     C21801   5.592   6.971   8.545 -0.5375  0.2589 -0.3609
  162MOL0     C21802   5.723   6.906   8.515 -0.0212 -0.2744 -0.5050
  162MOL0     H21803   5.986   7.082   8.415 -2.6117 -0.3984  2.4356
  162MOL0     H21804   6.195   7.201   8.349  2.2432  1.5350  1.4145
  162MOL0     H21805   6.416   7.316   8.398  1.5064  1.0954  1.9524
  162MOL0     H21806   6.314   7.418   8.292  0.8448  3.7009 -1.2146
  162MOL0     H21807   6.527   7.517   8.498 -0.4178 -1.5131 -0.5795
  162MOL0     H21808   6.435   7.620   8.377  2.0574  2.3045  0.7702
  162MOL0     H21809   6.567   7.467   8.207  1.4048  2.1039 -1.4883
  162MOL0     H21810   6.661   7.419   8.341  0.9940  1.2588 -0.1981
  162MOL0     H21811   6.619   7.700   8.228 -2.0269 -1.6242  1.5036
  162MOL0     H21812   6.671   7.676   8.391 -1.7513 -0.0212 -0.3540
  162MOL0     H21813   6.873   7.541   8.281  0.3499 -2.2772 -2.9678
  162MOL0     H21814   6.807   7.581   8.133  0.8481  1.1660  0.2023
  162MOL0     H21815   6.823   7.840   8.217  4.6287  4.0520  0.6204
  162MOL0     H21816   6.917   7.771   8.346  0.6270 -2.3083  1.0015
  162MOL0     H21817   6.974   7.796   8.053  0.3772 -3.0665 -1.2353
  162MOL0     H21818   7.064   7.673   8.153  0.4803 -1.0536 -0.8278
  162MOL0     H21819   7.058   7.971   8.215  0.7960  0.7518  0.1745
  162MOL0     H21820   7.153   7.860   8.309 -0.4078  1.3118 -0.4398
  162MOL0     H21821   7.367   7.746   8.188 -2.2144 -0.2729  1.4452
  162MOL0     H21822   7.550   7.727   7.935  0.9478  0.3115  0.3594
  162MOL0     H21823   7.577   7.889   7.867 -0.2323 -1.1294 -0.9524
  162MOL0     H21824   7.618   7.796   8.144 -1.7430 -1.4799 -1.8858
  162MOL0     H21825   7.754   7.838   8.038 -0.1935 -1.4647 -1.6678
  162MOL0     H21826   7.735   8.019   8.188  0.1962  3.1688 -0.3837
  162MOL0     H21827   7.559   8.026   8.173 -1.0608 -0.5868 -1.5170
  162MOL0     H21828   7.681   8.211   8.049 -1.0906  0.5259 -0.1661
  162MOL0     H21829   7.565   8.129   7.944  1.5043  1.0317 -0.6832
  162MOL0     H21830   7.925   8.095   7.708 -1.1642 -1.3527  0.6629
  162MOL0     H21831   8.154   8.153   7.724 -2.5793  0.1436 -1.8633
  162MOL0     H21832   8.581   8.321   7.988  1.0422  1.3956 -0.9926
  162MOL0     H21833   8.810   8.334   7.936 -0.5404 -0.1474  0.4044
  162MOL0     H21834   9.018   8.329   7.852  1.7888  0.6109 -1.4761
  162MOL0     H21835   8.999   8.197   7.978 -0.5816 -1.4435 -0.6528
  162MOL0     H21836   9.174   8.083   7.889  0.5508 -0.9749 -3.1501
  162MOL0     H21837   9.188   8.179   7.742  1.0895 -2.9230  0.1022
  162MOL0     H21838   9.266   8.381   7.840 -0.4849 -0.3831  0.0130
  162MOL0     H21839   9.266   8.312   8.001  0.0535 -0.4674 -0.4998
  162MOL0     H21840   9.402   8.234   7.732  0.9288 -0.2847  0.8057
  162MOL0     H21841   9.410   8.120   7.875  1.7079 -1.0333  0.3957
  162MOL0     H21842   9.542   8.291   8.000  1.5657  3.3028  0.5047
  162MOL0     H21843   9.503   8.406   7.867  1.3296 -0.5205 -2.9216
  162MOL0     H21844   9.654   8.140   7.835 -0.9858 -1.6266 -0.9910
  162MOL0     H21845   9.628   8.261   7.707 -1.7178 -1.7145  0.5072
  162MOL0     H21846   9.786   8.316   7.954  1.0110 -0.7657 -0.4199
  162MOL0     H21847   9.774   8.414   7.817  1.2714 -0.1290 -1.7537
  162MOL0     H21848   9.910   8.147   7.785  1.0124 -0.0217  2.3777
  162MOL0     H21849   9.868   8.258   7.659 -2.5630 -1.4936  0.9757
  162MOL0     H21850   8.765   8.016   7.642 -0.5117  0.4522 -0.4642
  162MOL0     H21851   8.533   8.011   7.687  1.4942 -0.5888 -0.5989
  162MOL0     H21852   8.121   8.193   8.155  0.1113 -0.5450 -1.2053
  162MOL0     H21853   7.896   8.145   8.137  2.0721  1.7291 -0.0089
  162MOL0     H21854   6.061   7.546   8.579 -3.0278  0.7818 -0.2905
  162MOL0     H21855   5.854   7.424   8.644 -1.0450 -0.1282  0.6412
  162MOL0     H21856   5.400   7.254   8.614 -4.5900 -1.1387 -2.4244
  162MOL0     H21857   5.237   7.092   8.617 -0.7352 -3.2797 -0.7538
  162MOL0     H21858   5.313   6.722   8.729 -0.5674 -0.8785 -0.2251
  162MOL0     H21859   5.318   6.666   8.570 -0.3417  0.0262 -1.2944
  162MOL0     H21860   5.068   6.709   8.739 -1.2507 -1.3064  0.1350
  162MOL0     H21861   5.139   6.553   8.698 -1.6119 -1.4648 -2.2269
  162MOL0     H21862   5.086   6.576   8.453  0.4541  2.9074 -1.8378
  162MOL0     H21863   5.014   6.732   8.497  4.2747  0.8484 -3.4920
  162MOL0     H21864   4.946   6.435   8.586  0.1115  0.3093 -1.3710
  162MOL0     H21865   4.857   6.577   8.648  0.0728  1.4795 -0.0328
  162MOL0     H21866   4.680   6.552   8.264 -0.4764 -1.4429 -0.1749
  162MOL0     H21867   5.502   6.767   8.559 -3.3854 -1.2052 -0.3397
  162MOL0     H21868   5.767   6.959   8.430  3.0068 -2.4274 -0.4486
  162MOL0     H21869   5.794   6.910   8.598  0.4906  1.2186 -0.9746
  162MOL0     H21870   5.712   6.801   8.487  2.0154  0.0821 -3.0894
  163MOL0     O21871   5.421   9.657   3.903  0.2246 -0.9798  0.4414
  163MOL0     C21872   5.357   9.602   3.993 -0.2879  0.8945  0.5450
  163MOL0     O21873   5.408   9.577   4.120  0.3035  0.2008 -0.1702
  163MOL0     C21874   5.544   9.590   4.145  0.8435 -0.2534  0.3906
  163MOL0     C21875   5.635   9.487   4.118 -0.6245 -0.1437 -0.6702
  163MOL0     C21876   5.767   9.505   4.150  0.5524 -0.1923 -0.2916
  163MOL0     C21877   5.811   9.619   4.213 -0.2558 -0.3222  1.1150
  163MOL0     O21878   5.938   9.647   4.248  0.0724 -0.2190 -0.0500
  163MOL0     C21879   6.044   9.598   4.163  0.3544 -0.3495  0.0103
  163MOL0     C21880   6.178   9.668   4.195 -0.1403  0.1331  0.2898
  163MOL0     C21881   6.289   9.593   4.123 -0.5796  0.3041  0.0675
  163MOL0     C21882   6.418   9.681   4.136  0.6279 -0.1222 -0.3821
  163MOL0     C21883   6.533   9.610   4.079  0.3457 -0.1648  0.0464
  163MOL0     C21884   6.573   9.486   4.161 -0.1047 -0.4252 -0.1675
  163MOL0     C21885   6.706   9.425   4.118  0.6063 -0.3386 -0.6622
  163MOL0     C21886   6.729   9.299   4.208 -0.1413 -0.0041 -0.4993
  163MOL0     N21887   6.844   9.222   4.159 -0.7132 -0.4102 -0.8199
  163MOL0     C21888   6.880   9.206   4.030 -0.0297 -0.2741  0.4655
  163MOL0     C21889   6.997   9.142   4.040  0.2257  0.0932 -0.3861
  163MOL0     C21890   7.082   9.113   3.925 -0.6533  0.2000 -0.3198
  163MOL0     C21891   7.226   9.131   3.957  0.1133  0.6852 -0.0734
  163MOL0     C21892   7.314   9.054   3.862 -0.0807  0.5034 -0.4970
  163MOL0     C21893   7.460   9.031   3.911  0.0155  0.6858 -0.3751
  163MOL0     O21894   7.542   8.997   3.797  0.8408  0.3156 -0.3422
  163MOL0     C21895   7.676   8.992   3.803  0.1350  0.5125 -0.1111
  163MOL0     C21896   7.754   8.997   3.922 -0.1824 -0.3994 -0.7945
  163MOL0     C21897   7.894   9.003   3.928 -0.2372 -0.3945 -0.4147
  163MOL0     C21898   7.968   9.006   3.809 -0.0641  0.4550 -0.4380
  163MOL0     C21899   8.121   8.989   3.818  0.0705 -0.6192  0.2759
  163MOL0     O21900   8.189   8.982   3.930  0.3362 -0.1881 -0.2407
  163MOL0     C21901   8.328   8.955   3.918  0.3796  0.0669 -0.4221
  163MOL0     C21902   8.355   8.822   3.892  0.1607 -0.2042  0.8832
  163MOL0     C21903   8.490   8.787   3.875 -0.0702  1.1126  0.2475
  163MOL0     C21904   8.595   8.872   3.907  0.4161  0.6017  0.1539
  163MOL0     O21905   8.731   8.835   3.917 -0.3707 -0.2009 -0.6519
  163MOL0     C21906   8.812   8.899   4.004  0.4666  0.2128 -0.5564
  163MOL0     C21907   8.937   8.819   4.025 -1.2901 -0.7721  0.1330
  163MOL0     C21908   9.046   8.899   4.108  0.2145  0.2084 -0.3643
  163MOL0     C21909   9.141   8.985   4.023 -0.2394  0.1651  0.1739
  163MOL0     C21910   9.245   8.896   3.954 -0.3584  0.3635  0.8685
  163MOL0     C21911   9.373   8.873   4.046  0.4482 -0.0485 -0.2771
  163MOL0     C21912   9.456   8.760   3.974 -0.2886 -1.2113 -0.2892
  163MOL0     C21913   9.573   8.720   4.068  0.4775 -0.6709  0.1977
  163MOL0    Cl21914   9.640   8.560   4.032 -0.0101 -0.2174  0.4629
  163MOL0     C21915   8.562   9.005   3.938  0.2221 -0.1212 -0.5328
  163MOL0     C21916   8.429   9.045   3.943  0.0326 -0.1969  0.5519
  163MOL0     O21917   8.171   9.001   3.705 -0.7074 -0.9254 -0.3473
  163MOL0     C21918   7.894   9.002   3.688 -0.6079  0.5413 -0.2349
  163MOL0     C21919   7.751   8.995   3.687  0.4063 -0.4760  0.1782
  163MOL0     N21920   7.042   9.139   4.175 -0.3694 -0.5297  0.1400
  163MOL0     N21921   6.952   9.190   4.244 -0.3809  0.6504 -0.2349
  163MOL0     C21922   5.718   9.724   4.240  0.0492  0.3566  0.3445
  163MOL0     C21923   5.586   9.708   4.207  0.6349  0.1077 -0.0491
  163MOL0     C21924   5.227   9.546   3.971  0.1240  0.1755  0.8646
  163MOL0     C21925   5.160   9.479   4.078 -0.5193  0.3499 -0.2225
  163MOL0     C21926   5.038   9.410   4.057  0.5841 -0.4291 -1.3576
  163MOL0     C21927   4.968   9.430   3.937 -0.1930  0.3854 -0.5602
  163MOL0     O21928   4.847   9.386   3.899  0.5503  0.5126 -0.1867
  163MOL0     C21929   4.780   9.297   3.994 -0.2159  0.3322 -0.9343
  163MOL0     C21930   4.639   9.254   3.947  0.4148  0.1081 -0.5234
  163MOL0     C21931   4.634   9.106   3.925  0.2598 -0.4553  0.0264
  163MOL0     C21932   4.493   9.042   3.914  0.1657 -0.9441  0.3923
  163MOL0     C21933   4.489   8.901   3.905 -0.1368  0.7686  0.2159
  163MOL0     C21934   4.476   8.781   3.881  0.8419  0.7105  0.0340
  163MOL0     C21935   5.016   9.516   3.836 -0.7089  1.1443  0.0508
  163MOL0     C21936   5.153   9.565   3.847  0.6204 -0.3845  0.7858
  163MOL0     C21937   5.193   9.657   3.730  1.0065 -0.8188  0.0692
  163MOL0     H21938   5.598   9.394   4.076 -0.8241  0.5953 -2.2086
  163MOL0     H21939   5.835   9.421   4.148  0.2003 -0.5170  0.7904
  163MOL0     H21940   6.058   9.492   4.188 -2.5894 -0.4726  1.5385
  163MOL0     H21941   6.029   9.603   4.055  1.2589  1.2751 -0.0753
  163MOL0     H21942   6.196   9.666   4.303 -1.3256  1.6028  0.5391
  163MOL0     H21943   6.167   9.766   4.148  0.5758  0.6884  1.2522
  163MOL0     H21944   6.268   9.592   4.016 -2.1153  0.7886  0.3276
  163MOL0     H21945   6.303   9.492   4.163  1.3803  0.9162  1.0617
  163MOL0     H21946   6.399   9.775   4.083  1.4540 -0.4397 -1.2640
  163MOL0     H21947   6.447   9.709   4.238 -2.9655 -0.8323  0.9780
  163MOL0     H21948   6.512   9.584   3.975  1.1203  0.6196 -0.3265
  163MOL0     H21949   6.624   9.671   4.072  0.2732  0.1639  1.5779
  163MOL0     H21950   6.567   9.513   4.266 -0.9674  0.7740 -0.4963
  163MOL0     H21951   6.497   9.408   4.146 -3.1617  1.7792  2.5412
  163MOL0     H21952   6.791   9.493   4.108  1.4326 -1.0666  1.0645
  163MOL0     H21953   6.690   9.394   4.014  2.2594  0.2011 -1.1189
  163MOL0     H21954   6.750   9.329   4.311  2.0282 -0.2068 -0.8543
  163MOL0     H21955   6.641   9.234   4.216  0.1397 -0.1961  2.3747
  163MOL0     H21956   6.835   9.236   3.935  1.2810 -3.9052 -1.4879
  163MOL0     H21957   7.061   9.010   3.894  0.3265 -0.5854  1.5105
  163MOL0     H21958   7.065   9.182   3.841  0.6532  1.4725  0.4173
  163MOL0     H21959   7.247   9.238   3.949 -0.2646  0.7931  0.3651
  163MOL0     H21960   7.254   9.095   4.057  2.0916 -3.2719 -1.7982
  163MOL0     H21961   7.318   9.109   3.767 -1.1780  0.4504 -0.5906
  163MOL0     H21962   7.276   8.957   3.829  0.2202  0.7392 -1.5950
  163MOL0     H21963   7.466   8.951   3.986  1.4133 -1.5560 -2.7130
  163MOL0     H21964   7.495   9.122   3.960 -0.0574 -0.3013  1.5957
  163MOL0     H21965   7.700   8.996   4.017  0.5492  2.8223 -0.2106
  163MOL0     H21966   7.936   8.993   4.028  2.3884 -0.2615 -1.4355
  163MOL0     H21967   8.275   8.749   3.896  0.4073 -0.5349 -0.0373
  163MOL0     H21968   8.512   8.681   3.869  2.2641  1.5580 -0.0326
  163MOL0     H21969   8.829   9.003   3.973  0.3713  0.2116 -0.6144
  163MOL0     H21970   8.767   8.892   4.104  3.1238 -0.1733  0.6997
  163MOL0     H21971   8.912   8.738   4.094 -2.1404  0.8032  1.7650
  163MOL0     H21972   8.974   8.792   3.925  1.2901  0.9166  0.5247
  163MOL0     H21973   8.990   8.967   4.172  0.2210 -0.4492  0.3578
  163MOL0     H21974   9.112   8.833   4.166  2.7088  0.2681 -2.9157
  163MOL0     H21975   9.183   9.069   4.079  2.0232 -0.2155 -0.8481
  163MOL0     H21976   9.083   9.038   3.946 -0.5601 -0.6336 -0.1488
  163MOL0     H21977   9.281   8.953   3.867  0.0578  1.6026  1.8245
  163MOL0     H21978   9.198   8.801   3.926 -1.8234  0.5564  2.4862
  163MOL0     H21979   9.434   8.961   4.064  0.2688 -0.5705  3.8986
  163MOL0     H21980   9.342   8.845   4.147  0.7897  3.4584  0.9348
  163MOL0     H21981   9.495   8.800   3.880 -0.5845 -0.5173 -0.1222
  163MOL0     H21982   9.414   8.664   3.944  1.9033 -1.6401 -2.3129
  163MOL0     H21983   9.651   8.794   4.047  0.6714 -1.0846 -0.5715
  163MOL0     H21984   9.539   8.716   4.172  0.8818 -0.0887  0.3575
  163MOL0     H21985   8.644   9.072   3.962  2.0989 -2.6109  0.4944
  163MOL0     H21986   8.406   9.146   3.975 -1.1570 -0.2665 -0.0379
  163MOL0     H21987   7.938   8.990   3.589 -2.3843 -2.1368 -0.8217
  163MOL0     H21988   7.696   8.984   3.594  0.6107 -2.4973  0.2479
  163MOL0     H21989   5.755   9.810   4.295  0.3684  1.4229 -1.4557
  163MOL0     H21990   5.512   9.787   4.211  0.6704  0.1253  0.3088
  163MOL0     H21991   5.216   9.468   4.170  1.0342  1.6047 -0.9722
  163MOL0     H21992   4.995   9.352   4.139  0.6297  0.4407 -0.7092
  163MOL0     H21993   4.764   9.359   4.082 -2.5783  2.6171 -2.7942
  163MOL0     H21994   4.845   9.211   4.014 -1.2454 -0.6213 -1.5864
  163MOL0     H21995   4.615   9.309   3.856  2.9745 -1.2071 -2.0897
  163MOL0     H21996   4.563   9.285   4.020 -0.0262  0.1791 -1.0066
  163MOL0     H21997   4.672   9.059   4.016  0.4615  0.6199  0.5054
  163MOL0     H21998   4.687   9.084   3.832  0.1696  4.8328 -1.5891
  163MOL0     H21999   4.436   9.065   4.004 -1.4093  0.1358 -0.8407
  163MOL0     H22000   4.448   9.095   3.830 -1.3167 -1.2124  0.9952
  163MOL0     H22001   4.463   8.678   3.854 -0.9338  1.1254 -0.8709
  163MOL0     H22002   4.951   9.535   3.752  0.3097 -1.0638 -1.3160
  163MOL0     H22003   5.293   9.627   3.698  0.8984 -2.1740  0.8822
  163MOL0     H22004   5.122   9.649   3.647  0.5693  0.3430  0.3208
  163MOL0     H22005   5.203   9.760   3.763 -0.5925 -0.7105  0.2897
  164MOL0     O22006  10.538   4.978   0.676 -0.5824  0.0572  0.1995
  164MOL0     C22007  10.561   4.963   0.554  0.0185 -0.1680 -0.4189
  164MOL0     O22008  10.674   4.917   0.505 -0.2993 -0.1178  0.5881
  164MOL0     C22009  10.785   4.888   0.582 -0.1280 -0.1300 -0.2167
  164MOL0     C22010  10.853   4.780   0.539  0.3001  0.6870  0.9673
  164MOL0     C22011  10.964   4.736   0.613  0.2978  0.2484  0.6280
  164MOL0     C22012  11.012   4.809   0.724 -0.0686 -0.2102 -0.0777
  164MOL0     O22013  11.122   4.768   0.791 -0.5377 -0.3627  0.0719
  164MOL0     C22014  11.196   4.652   0.757  0.0980 -0.4887 -0.0391
  164MOL0     C22015  11.267   4.619   0.884 -0.3102 -0.0089  0.5289
  164MOL0     C22016  11.387   4.714   0.895 -0.7621  0.8123 -0.0269
  164MOL0     C22017  11.453   4.670   1.024 -0.6014 -0.4842  0.5216
  164MOL0     C22018  11.576   4.753   1.064  0.2951 -0.1987 -0.0368
  164MOL0     C22019  11.636   4.687   1.196 -0.3292  0.3891 -0.3312
  164MOL0     C22020  11.771   4.744   1.241 -0.5886  0.7855  0.0736
  164MOL0     C22021  11.860   4.684   1.356  0.7539 -0.1440 -0.3411
  164MOL0     N22022  11.941   4.784   1.420  0.4396  0.5555  0.4249
  164MOL0     C22023  12.028   4.868   1.363  0.3582  0.8150  0.2732
  164MOL0     C22024  12.060   4.953   1.459 -0.0543 -0.2492 -0.1385
  164MOL0     C22025  12.144   5.078   1.452 -0.5355  0.3938 -0.8505
  164MOL0     C22026  12.264   5.069   1.557  0.2419  0.4473  0.7440
  164MOL0     C22027  12.329   5.203   1.541 -0.3328  0.4347  0.9720
  164MOL0     C22028  12.453   5.226   1.628 -0.3050 -0.3524  0.2130
  164MOL0     O22029  12.492   5.366   1.624  0.1854 -0.4283 -0.0395
  164MOL0     C22030  12.601   5.398   1.694 -0.2188  0.1634 -0.0449
  164MOL0     C22031  12.708   5.319   1.723 -0.0166 -0.3044 -0.7633
  164MOL0     C22032  12.817   5.365   1.791  0.4190 -0.1992 -0.1445
  164MOL0     C22033  12.817   5.499   1.834 -0.6862 -0.0161 -0.1649
  164MOL0     C22034  12.940   5.550   1.892  0.2257 -0.2742 -0.8173
  164MOL0     O22035  13.037   5.455   1.914  0.2621  0.5755  0.3938
  164MOL0     C22036  13.167   5.497   1.910 -0.4009 -0.0054 -0.5983
  164MOL0     C22037  13.242   5.538   2.028 -1.2603 -0.3214  0.5042
  164MOL0     C22038  13.382   5.589   2.027  0.4863  0.0282  1.1893
  164MOL0     C22039  13.441   5.585   1.901 -0.0803 -0.6254  0.5030
  164MOL0     O22040  13.573   5.609   1.865 -0.1006  0.1903  0.4904
  164MOL0     C22041  13.666   5.639   1.973  0.4080 -0.7609  0.4032
  164MOL0     C22042  13.807   5.672   1.930 -0.1245 -0.0705 -0.2685
  164MOL0     C22043  13.852   5.813   1.977  0.6763 -0.5883  0.8507
  164MOL0     C22044  14.000   5.838   1.984 -1.4132  0.7497  1.1173
  164MOL0     C22045  14.016   5.976   2.042 -0.1313 -0.2908  0.3422
  164MOL0     C22046  14.168   6.008   2.022 -0.0120  0.1486 -0.1977
  164MOL0     C22047  14.255   5.928   2.119 -0.7193  0.2656 -0.0837
  164MOL0     C22048  14.382   6.004   2.157 -0.5029 -0.0631 -0.0018
  164MOL0    Cl22049  14.499   6.011   2.019  0.4060  0.1312 -0.1849
  164MOL0     C22050  13.369   5.534   1.785  0.1520  0.9049 -0.3150
  164MOL0     C22051  13.238   5.492   1.791  0.8637  0.2546 -0.3674
  164MOL0     O22052  12.953   5.668   1.906  0.4965 -0.1646 -0.5301
  164MOL0     C22053  12.698   5.582   1.819 -0.7132  0.6603 -0.0009
  164MOL0     C22054  12.598   5.528   1.747  0.4853 -1.0225 -0.6167
  164MOL0     N22055  11.990   4.911   1.574 -0.0098  0.0396  0.3152
  164MOL0     N22056  11.922   4.804   1.546 -0.0556 -1.0157 -0.5141
  164MOL0     C22057  10.934   4.917   0.774 -0.0083  0.0283 -0.1281
  164MOL0     C22058  10.819   4.951   0.702 -0.5432 -0.2798 -0.2654
  164MOL0     C22059  10.459   4.990   0.455 -0.2469 -0.6571  0.2835
  164MOL0     C22060  10.500   5.014   0.316  0.1129  1.3396  0.1184
  164MOL0     C22061  10.396   5.033   0.226  0.3936 -0.0853 -0.3164
  164MOL0     C22062  10.261   5.056   0.256  0.7040  0.0310  0.5420
  164MOL0     O22063  10.186   5.095   0.146  0.4553 -0.3219  0.2739
  164MOL0     C22064  10.044   5.074   0.163 -0.4388 -0.2363 -0.6527
  164MOL0     C22065   9.994   4.930   0.164  0.5912 -0.5763 -0.4417
  164MOL0     C22066  10.069   4.838   0.064  0.0364 -0.1716 -0.6492
  164MOL0     C22067   9.991   4.712   0.029  0.0141 -0.4924 -0.3661
  164MOL0     C22068  10.064   4.648  -0.083  0.8854  1.3158  0.2429
  164MOL0     C22069  10.116   4.584  -0.170  0.0659  0.0965 -0.0878
  164MOL0     C22070  10.222   5.034   0.390  0.3927  0.1743  0.3794
  164MOL0     C22071  10.321   5.002   0.488  0.6116 -0.2633  0.0062
  164MOL0     C22072  10.266   4.992   0.621  0.5377 -0.7798 -0.2353
  164MOL0     H22073  10.813   4.714   0.463  4.1829  0.7394 -1.3615
  164MOL0     H22074  11.010   4.647   0.571 -1.9062 -0.4420 -0.4855
  164MOL0     H22075  11.127   4.570   0.733  2.6429 -2.7910 -0.0960
  164MOL0     H22076  11.273   4.656   0.680 -1.2420 -2.3438 -1.5766
  164MOL0     H22077  11.298   4.514   0.879  1.9906  0.5966  1.0863
  164MOL0     H22078  11.200   4.628   0.969 -0.2850 -0.0770  0.5562
  164MOL0     H22079  11.347   4.815   0.909 -0.8382  0.4905  2.5352
  164MOL0     H22080  11.464   4.704   0.818 -0.6404 -0.4975  0.2519
  164MOL0     H22081  11.380   4.669   1.106  0.7745 -1.3934  1.7946
  164MOL0     H22082  11.487   4.567   1.004  2.0519  0.0786  1.6119
  164MOL0     H22083  11.649   4.764   0.983  0.5715  4.5020  0.6130
  164MOL0     H22084  11.546   4.856   1.085 -0.6283 -0.4851  0.0958
  164MOL0     H22085  11.566   4.703   1.279  1.3473  0.5064  1.1149
  164MOL0     H22086  11.643   4.579   1.185 -2.7752  0.3350 -2.0525
  164MOL0     H22087  11.768   4.853   1.250 -0.1257  0.7937  0.1562
  164MOL0     H22088  11.841   4.723   1.159  0.2014  0.2277  0.8750
  164MOL0     H22089  11.785   4.647   1.427  1.1484  0.0808  0.1957
  164MOL0     H22090  11.921   4.599   1.325 -1.7539 -2.5197  0.7797
  164MOL0     H22091  12.066   4.875   1.261 -0.9609 -1.5428 -0.4535
  164MOL0     H22092  12.184   5.089   1.351  1.1674 -1.2805 -0.4086
  164MOL0     H22093  12.076   5.158   1.482 -1.1705  0.3856 -2.1828
  164MOL0     H22094  12.222   5.048   1.655  2.0255 -0.9244  1.2534
  164MOL0     H22095  12.333   4.988   1.532  1.2750  2.1774 -2.7584
  164MOL0     H22096  12.264   5.278   1.586 -0.3407 -0.6976  2.9553
  164MOL0     H22097  12.354   5.226   1.437 -0.5602  0.2454  0.8746
  164MOL0     H22098  12.539   5.164   1.602  1.3692  2.0807 -0.3940
  164MOL0     H22099  12.426   5.200   1.731  1.5072 -0.5472  0.6730
  164MOL0     H22100  12.726   5.212   1.716 -1.1603 -1.0485  3.9266
  164MOL0     H22101  12.891   5.289   1.811  1.5150  0.6264 -0.9558
  164MOL0     H22102  13.186   5.536   2.122 -2.4629  0.2991 -0.1690
  164MOL0     H22103  13.429   5.621   2.120  2.9776 -3.0679  1.1618
  164MOL0     H22104  13.627   5.725   2.028 -2.4926 -1.2270 -0.7592
  164MOL0     H22105  13.667   5.553   2.040 -1.9167 -0.4671  0.8928
  164MOL0     H22106  13.873   5.589   1.958 -0.5028 -0.1052  0.5554
  164MOL0     H22107  13.814   5.674   1.821  0.1818  0.6921 -0.2390
  164MOL0     H22108  13.809   5.886   1.907 -0.3177  0.2587  2.2844
  164MOL0     H22109  13.813   5.847   2.074 -2.2674  1.1301 -0.7828
  164MOL0     H22110  14.050   5.847   1.887 -3.1999  0.1477  0.0755
  164MOL0     H22111  14.060   5.770   2.044  0.4550  2.4551  1.2542
  164MOL0     H22112  13.981   5.983   2.146 -0.9761  2.9625 -0.0453
  164MOL0     H22113  13.952   6.040   1.981 -1.3137 -0.2448  1.5817
  164MOL0     H22114  14.190   6.003   1.915 -1.1377 -1.3243 -0.3785
  164MOL0     H22115  14.194   6.112   2.046  0.6298 -0.1669  0.5239
  164MOL0     H22116  14.280   5.835   2.067 -0.5232  0.9720 -1.3023
  164MOL0     H22117  14.202   5.908   2.212 -0.2316  0.3174  0.2072
  164MOL0     H22118  14.361   6.108   2.181  1.2830 -0.2345  2.6535
  164MOL0     H22119  14.434   5.961   2.243  0.0639  3.3262  1.4843
  164MOL0     H22120  13.420   5.512   1.691 -0.6804  0.1445 -0.6099
  164MOL0     H22121  13.184   5.458   1.704  1.2854  1.7562 -1.2433
  164MOL0     H22122  12.692   5.685   1.853 -0.6170  1.0774 -1.2113
  164MOL0     H22123  12.512   5.592   1.729 -0.9166 -2.0827  1.7227
  164MOL0     H22124  10.966   4.977   0.858  1.7186  1.0912 -1.4851
  164MOL0     H22125  10.758   5.038   0.727 -2.1431 -0.8799 -1.8551
  164MOL0     H22126  10.605   5.017   0.289  0.4263 -1.9778  0.5544
  164MOL0     H22127  10.418   5.047   0.121  0.8739  1.8377 -0.0042
  164MOL0     H22128   9.991   5.131   0.087 -0.9286  0.5376  0.2454
  164MOL0     H22129  10.006   5.124   0.253 -0.5048 -0.5119 -0.5289
  164MOL0     H22130   9.889   4.916   0.134  0.9448 -1.0094 -1.5541
  164MOL0     H22131   9.995   4.888   0.265  0.1726  3.2728  1.3446
  164MOL0     H22132  10.162   4.798   0.103 -0.3982  0.1433  0.7577
  164MOL0     H22133  10.086   4.907  -0.020 -1.1134  0.8139 -0.1141
  164MOL0     H22134   9.991   4.638   0.109 -1.6079  0.0545  0.1817
  164MOL0     H22135   9.890   4.736  -0.004  0.2858 -0.4200 -1.1717
  164MOL0     H22136  10.168   4.518  -0.237  0.6988 -0.0215  0.5155
  164MOL0     H22137  10.121   5.029   0.429  0.9942  0.2913  2.0512
  164MOL0     H22138  10.272   4.892   0.666 -0.7348 -1.1975 -0.9671
  164MOL0     H22139  10.332   5.058   0.678  2.7108 -1.1619 -2.1460
  164MOL0     H22140  10.167   5.034   0.635  0.5212 -0.2416 -1.7939
  165MOL0     O22141   0.244   2.571   1.722  0.2151  0.6481  0.5968
  165MOL0     C22142   0.269   2.525   1.837 -0.3786 -0.5617  0.2243
  165MOL0     O22143   0.391   2.519   1.891 -0.1683 -0.2605  0.8728
  165MOL0     C22144   0.503   2.510   1.815 -0.6196 -0.7568 -0.0085
  165MOL0     C22145   0.570   2.622   1.768 -0.0419 -0.3747  0.2162
  165MOL0     C22146   0.697   2.620   1.704 -0.2032  0.0210  0.2548
  165MOL0     C22147   0.755   2.492   1.685 -0.4116 -1.3240 -0.2522
  165MOL0     O22148   0.877   2.475   1.628 -0.0686  0.6344  0.2038
  165MOL0     C22149   0.963   2.599   1.614  0.5554 -0.2362  0.6036
  165MOL0     C22150   1.104   2.563   1.552 -0.0077 -0.4844 -0.1094
  165MOL0     C22151   1.189   2.690   1.565  0.1721 -0.0084  0.2753
  165MOL0     C22152   1.326   2.672   1.505  0.6023 -0.7057 -0.2478
  165MOL0     C22153   1.416   2.588   1.591  0.5159  1.0250  0.3963
  165MOL0     C22154   1.555   2.623   1.553  0.0829  0.0607  0.4849
  165MOL0     C22155   1.638   2.538   1.646  0.1833 -0.3158  1.2079
  165MOL0     C22156   1.782   2.587   1.650  0.2085 -0.2520 -0.4950
  165MOL0     N22157   1.851   2.479   1.726  0.4380 -0.1656  1.0955
  165MOL0     C22158   1.851   2.463   1.864  1.8056  0.8069  0.9046
  165MOL0     C22159   1.900   2.333   1.864  0.4857 -0.1362 -0.2555
  165MOL0     C22160   1.900   2.249   1.985 -0.3024 -0.8938 -0.5267
  165MOL0     C22161   2.040   2.255   2.047  0.6987  0.0223  0.2231
  165MOL0     C22162   2.149   2.206   1.954 -0.1771  0.1093 -0.9885
  165MOL0     C22163   2.278   2.179   2.024  0.5402 -0.5007 -0.3712
  165MOL0     O22164   2.321   2.283   2.109 -0.5585  0.6305  0.3877
  165MOL0     C22165   2.442   2.265   2.167 -0.0945  0.2067  0.1589
  165MOL0     C22166   2.510   2.376   2.214  1.7553 -0.0834 -0.3776
  165MOL0     C22167   2.636   2.360   2.277  0.1674  0.9331 -0.2819
  165MOL0     C22168   2.700   2.235   2.283 -0.5803  1.0815 -0.2902
  165MOL0     C22169   2.845   2.224   2.328  1.1244 -0.3913  0.3447
  165MOL0     O22170   2.906   2.337   2.365  0.0125 -0.3268  0.5337
  165MOL0     C22171   3.039   2.338   2.389  0.5500 -0.1423 -0.2510
  165MOL0     C22172   3.136   2.273   2.309 -0.3891 -1.1637  0.3665
  165MOL0     C22173   3.275   2.292   2.338 -0.9443  0.6301  0.2283
  165MOL0     C22174   3.316   2.384   2.434 -0.5000  0.5714  0.0759
  165MOL0     O22175   3.447   2.413   2.441 -0.1473  0.0162  0.2092
  165MOL0     C22176   3.485   2.531   2.523 -0.4542 -0.1505  0.6098
  165MOL0     C22177   3.634   2.575   2.524 -0.2890  0.2240 -0.0700
  165MOL0     C22178   3.730   2.461   2.579 -0.2157  0.3971 -0.5576
  165MOL0     C22179   3.733   2.455   2.741  0.5061  0.1415  0.3868
  165MOL0     C22180   3.819   2.345   2.788  0.2694 -0.1202  0.3369
  165MOL0     C22181   3.962   2.380   2.774 -0.7010  0.5591 -0.4063
  165MOL0     C22182   4.059   2.267   2.824 -0.6626  0.2031  0.2193
  165MOL0     C22183   4.163   2.330   2.921  0.2181  0.3993 -0.3876
  165MOL0    Cl22184   4.245   2.477   2.848  0.2063 -0.2675  0.0729
  165MOL0     C22185   3.217   2.436   2.517  0.3046 -0.4551 -0.2437
  165MOL0     C22186   3.082   2.417   2.493 -0.0795 -0.7599 -0.4740
  165MOL0     O22187   2.890   2.109   2.324  0.2059 -0.6426 -0.4634
  165MOL0     C22188   2.636   2.120   2.226 -0.5155  0.0293 -0.3629
  165MOL0     C22189   2.506   2.140   2.172  0.0647  1.0440 -0.7370
  165MOL0     N22190   1.927   2.283   1.739 -0.1486  0.0127  0.1359
  165MOL0     N22191   1.895   2.377   1.650  0.4670  1.3488  0.2717
  165MOL0     C22192   0.699   2.373   1.739 -0.6815 -0.3815  0.2084
  165MOL0     C22193   0.569   2.382   1.798  0.1994 -0.0110 -0.8502
  165MOL0     C22194   0.152   2.484   1.915  0.7250  0.5505 -0.0582
  165MOL0     C22195   0.024   2.507   1.860 -0.8977 -0.4113  0.1353
  165MOL0     C22196  -0.090   2.486   1.929 -0.7280  0.0057  0.7176
  165MOL0     C22197  -0.080   2.445   2.061 -0.2751  0.0672 -0.4079
  165MOL0     O22198  -0.198   2.445   2.138 -0.3139 -0.0173  0.3206
  165MOL0     C22199  -0.222   2.347   2.244 -0.3004  0.3915 -0.5696
  165MOL0     C22200  -0.361   2.353   2.295  0.2569 -0.2480  0.1341
  165MOL0     C22201  -0.466   2.336   2.189 -0.2214  0.5773 -0.2699
  165MOL0     C22202  -0.604   2.386   2.218 -0.0455 -0.3150 -1.5832
  165MOL0     C22203  -0.654   2.334   2.353 -0.0708 -0.1310 -0.1561
  165MOL0     C22204  -0.684   2.295   2.460 -0.6608 -0.4828  0.6545
  165MOL0     C22205   0.038   2.415   2.118  0.7351 -0.4681 -0.1337
  165MOL0     C22206   0.159   2.430   2.046  1.1355 -0.1754 -0.3777
  165MOL0     C22207   0.280   2.384   2.117 -0.1059 -0.4373 -0.0645
  165MOL0     H22208   0.518   2.717   1.769  1.1398  0.3601 -1.7048
  165MOL0     H22209   0.737   2.705   1.649 -0.1185 -0.2651 -0.1310
  165MOL0     H22210   0.917   2.678   1.554  0.5193  0.3266  1.3601
  165MOL0     H22211   0.987   2.630   1.716  0.8511 -1.5275  0.9422
  165MOL0     H22212   1.092   2.542   1.445  2.0925 -0.7981 -0.3140
  165MOL0     H22213   1.155   2.482   1.604 -0.0047 -0.2088  0.3226
  165MOL0     H22214   1.195   2.722   1.670 -3.5158  1.4130  0.2209
  165MOL0     H22215   1.150   2.773   1.506  1.4424  0.9611  0.7598
  165MOL0     H22216   1.314   2.638   1.402  2.6861  0.9158 -1.1038
  165MOL0     H22217   1.373   2.770   1.496 -1.0920  0.1863  0.1436
  165MOL0     H22218   1.394   2.609   1.696  1.3883  1.8646  0.4227
  165MOL0     H22219   1.386   2.485   1.569  2.3457  1.0418 -2.8390
  165MOL0     H22220   1.581   2.594   1.450 -2.8616 -1.5580  0.0702
  165MOL0     H22221   1.584   2.725   1.579  1.5397 -0.3133  0.3826
  165MOL0     H22222   1.640   2.437   1.606  1.4320  1.0918 -2.6987
  165MOL0     H22223   1.603   2.541   1.750  1.2278 -2.6610  1.6916
  165MOL0     H22224   1.818   2.604   1.548  1.5258  1.0156  0.1289
  165MOL0     H22225   1.776   2.687   1.696 -3.9443  0.4472 -2.1761
  165MOL0     H22226   1.814   2.526   1.944 -0.8228 -0.3389  0.6893
  165MOL0     H22227   1.819   2.281   2.051 -0.0808 -3.9448  1.3929
  165MOL0     H22228   1.880   2.143   1.967 -0.4786 -0.6550 -1.8685
  165MOL0     H22229   2.067   2.352   2.088  2.2674 -0.3469  0.1465
  165MOL0     H22230   2.036   2.193   2.137 -2.6947 -0.7845 -0.3490
  165MOL0     H22231   2.168   2.294   1.892 -1.5249  0.0828 -1.4748
  165MOL0     H22232   2.113   2.126   1.889 -1.2655 -1.1940  1.0846
  165MOL0     H22233   2.358   2.164   1.951  0.5494  0.1972 -0.5090
  165MOL0     H22234   2.258   2.086   2.080  2.0319  0.5061  1.9736
  165MOL0     H22235   2.451   2.467   2.208 -1.2383 -1.7870  1.1487
  165MOL0     H22236   2.684   2.446   2.323 -0.7474  0.9198  0.7556
  165MOL0     H22237   3.103   2.203   2.234 -1.2871 -1.0878  0.6811
  165MOL0     H22238   3.356   2.246   2.282 -1.5745  0.6481 -0.7425
  165MOL0     H22239   3.432   2.613   2.474 -1.1279 -0.8278  0.1712
  165MOL0     H22240   3.453   2.524   2.628 -2.6431  1.6692  0.1580
  165MOL0     H22241   3.660   2.601   2.421  3.1710 -2.4724 -0.0611
  165MOL0     H22242   3.638   2.666   2.585 -0.2258 -0.0039  0.2692
  165MOL0     H22243   3.699   2.361   2.547  0.4961 -0.1651  0.4451
  165MOL0     H22244   3.830   2.479   2.540 -0.1369  2.1012  0.3148
  165MOL0     H22245   3.634   2.451   2.787 -0.2851  1.7872 -1.0722
  165MOL0     H22246   3.770   2.551   2.778 -0.8705  1.0599 -0.5523
  165MOL0     H22247   3.788   2.250   2.744 -0.1296  0.2964 -0.3050
  165MOL0     H22248   3.804   2.339   2.896  0.6772 -2.6885  0.3116
  165MOL0     H22249   3.991   2.410   2.673 -1.7985  0.1423 -0.8565
  165MOL0     H22250   3.981   2.477   2.820  0.1735 -0.8080  2.3659
  165MOL0     H22251   4.117   2.222   2.743  2.5439  0.8307  1.9892
  165MOL0     H22252   3.995   2.185   2.859 -1.9260 -0.3277 -3.0024
  165MOL0     H22253   4.109   2.349   3.015 -2.3032  1.3822 -1.9410
  165MOL0     H22254   4.239   2.259   2.955 -2.5813 -2.8605 -0.4062
  165MOL0     H22255   3.243   2.484   2.611 -0.5305  1.3415 -0.9052
  165MOL0     H22256   3.014   2.457   2.566 -1.6580 -2.5863 -0.8539
  165MOL0     H22257   2.673   2.018   2.222 -3.2260 -1.1875  2.0008
  165MOL0     H22258   2.464   2.048   2.134  0.1001  0.5912  0.3007
  165MOL0     H22259   0.739   2.278   1.705 -3.8161 -1.0932 -2.0029
  165MOL0     H22260   0.515   2.293   1.828 -2.1861  1.8552  0.7684
  165MOL0     H22261   0.010   2.556   1.764  0.4884  0.7431  0.4869
  165MOL0     H22262  -0.183   2.515   1.882 -1.5270 -0.0611  2.1944
  165MOL0     H22263  -0.161   2.369   2.332 -1.9174 -0.4007  0.8041
  165MOL0     H22264  -0.197   2.244   2.216 -1.1500 -0.1675  0.6064
  165MOL0     H22265  -0.382   2.450   2.341 -1.8765  0.5465 -2.2967
  165MOL0     H22266  -0.377   2.280   2.375  2.9209 -1.6043 -0.4419
  165MOL0     H22267  -0.473   2.232   2.156 -3.0734 -0.4183  2.9983
  165MOL0     H22268  -0.428   2.390   2.101  2.5861 -2.6900 -1.3300
  165MOL0     H22269  -0.595   2.495   2.212  0.1377 -0.2836 -0.9088
  165MOL0     H22270  -0.671   2.346   2.142 -1.1539  2.4298 -2.1569
  165MOL0     H22271  -0.698   2.271   2.563  0.3722 -1.7779  0.5163
  165MOL0     H22272   0.040   2.386   2.223  1.2812 -0.2697 -0.0883
  165MOL0     H22273   0.346   2.332   2.047  1.4062  0.5921  0.5467
  165MOL0     H22274   0.340   2.468   2.153  0.1020  0.0217 -1.4082
  165MOL0     H22275   0.254   2.312   2.195 -0.6782  1.4037  1.4893
  166MOL0     O22276   1.983   5.353   2.340  0.4970  0.1101 -0.5505
  166MOL0     C22277   2.035   5.287   2.248 -0.1461  0.1015 -0.7335
  166MOL0     O22278   2.166   5.283   2.209 -0.0198  0.5492 -0.9805
  166MOL0     C22279   2.269   5.355   2.264  0.8819  0.4269 -0.2483
  166MOL0     C22280   2.242   5.480   2.324  0.6143  0.0180  0.3292
  166MOL0     C22281   2.349   5.556   2.375  0.1383  0.0567 -1.2424
  166MOL0     C22282   2.477   5.520   2.355 -0.4846  0.0658  0.0865
  166MOL0     O22283   2.568   5.610   2.395 -0.3377  0.5932 -0.5224
  166MOL0     C22284   2.694   5.610   2.323 -0.4188  0.4666  0.7474
  166MOL0     C22285   2.800   5.665   2.428  0.2402  0.9502 -0.0137
  166MOL0     C22286   2.778   5.816   2.454 -0.0067  0.4174 -0.2688
  166MOL0     C22287   2.864   5.881   2.558 -0.3031  0.6359  0.1464
  166MOL0     C22288   3.003   5.898   2.519 -0.8665 -1.0313  0.8571
  166MOL0     C22289   3.083   5.978   2.625  0.7232  0.4539 -0.2689
  166MOL0     C22290   3.233   5.992   2.608 -0.2720 -0.2529 -0.2235
  166MOL0     C22291   3.267   6.111   2.519 -0.5537 -0.0074 -0.4911
  166MOL0     N22292   3.410   6.146   2.521  0.7485 -0.2334 -0.2204
  166MOL0     C22293   3.467   6.260   2.478  0.7185  0.2864 -0.3834
  166MOL0     C22294   3.596   6.251   2.522 -0.4111 -0.8384 -0.3743
  166MOL0     C22295   3.712   6.340   2.501  0.5292 -0.2384  0.4363
  166MOL0     C22296   3.779   6.374   2.634  0.4123  0.0531  0.8026
  166MOL0     C22297   3.878   6.493   2.624 -0.1209 -0.4446 -1.1136
  166MOL0     C22298   3.992   6.452   2.534 -0.5503 -0.3362  0.3145
  166MOL0     O22299   4.103   6.538   2.572  0.0548 -0.6595  0.7662
  166MOL0     C22300   4.223   6.508   2.525  0.3704  0.2109  0.2902
  166MOL0     C22301   4.332   6.557   2.606 -0.3935 -0.1368 -0.2685
  166MOL0     C22302   4.466   6.552   2.555  0.0576  1.0597  0.0760
  166MOL0     C22303   4.486   6.505   2.419 -0.1191 -0.4206  0.1641
  166MOL0     C22304   4.615   6.511   2.344 -0.7982  0.4681  0.3327
  166MOL0     O22305   4.718   6.567   2.415  0.2549 -0.0990 -0.6889
  166MOL0     C22306   4.847   6.569   2.381  0.0759  1.4531  0.9432
  166MOL0     C22307   4.921   6.673   2.433  0.5705  0.2473 -0.2808
  166MOL0     C22308   5.057   6.699   2.395  0.6272 -0.2505  0.5588
  166MOL0     C22309   5.113   6.626   2.291 -1.1562  0.4885  0.3667
  166MOL0     O22310   5.245   6.667   2.255 -0.0314  0.1004  0.3267
  166MOL0     C22311   5.289   6.622   2.122 -0.4388 -0.2533 -0.6638
  166MOL0     C22312   5.438   6.652   2.102 -0.8291  0.5556 -0.1775
  166MOL0     C22313   5.517   6.529   2.162 -0.1990 -0.1436  0.9194
  166MOL0     C22314   5.664   6.559   2.200  0.9973  0.6058 -0.2001
  166MOL0     C22315   5.741   6.430   2.228 -0.1755  0.0170  0.4912
  166MOL0     C22316   5.895   6.454   2.227  0.3370 -1.1446  0.0741
  166MOL0     C22317   5.930   6.514   2.362  0.4189  0.0478  0.8192
  166MOL0     C22318   6.072   6.539   2.387 -0.8575 -0.1772  0.7536
  166MOL0    Cl22319   6.149   6.671   2.291  0.0706  0.1652 -0.0722
  166MOL0     C22320   5.044   6.511   2.242  0.3937  0.3722  0.1753
  166MOL0     C22321   4.911   6.483   2.294  1.4540 -0.4318 -0.2827
  166MOL0     O22322   4.625   6.474   2.225  0.2126  0.1910 -0.1042
  166MOL0     C22323   4.372   6.456   2.340 -0.1960  0.0473  0.4657
  166MOL0     C22324   4.248   6.457   2.393  0.3354 -0.2433 -0.2703
  166MOL0     N22325   3.611   6.127   2.581 -0.4920 -0.6582  0.0224
  166MOL0     N22326   3.505   6.056   2.561  1.0507  0.2914 -0.2198
  166MOL0     C22327   2.501   5.388   2.308 -0.1275  0.1240 -0.7679
  166MOL0     C22328   2.400   5.302   2.263 -0.1354  0.7342  0.1969
  166MOL0     C22329   1.942   5.204   2.169 -0.0491 -0.6327 -0.2344
  166MOL0     C22330   1.974   5.181   2.035 -0.0921  0.6024  0.2596
  166MOL0     C22331   1.886   5.126   1.947  0.3602 -0.1255  0.1482
  166MOL0     C22332   1.764   5.078   1.990 -0.5494  0.3727 -0.4118
  166MOL0     O22333   1.680   5.034   1.886  0.2128  0.0948 -0.3304
  166MOL0     C22334   1.550   4.982   1.906 -0.3272 -1.0255 -0.4754
  166MOL0     C22335   1.548   4.873   1.799 -0.3202 -0.5029 -0.0349
  166MOL0     C22336   1.410   4.813   1.787  0.3012  0.3472  0.3066
  166MOL0     C22337   1.378   4.787   1.633  0.2152  0.4419 -0.5297
  166MOL0     C22338   1.229   4.759   1.624 -0.0609  0.3552  1.2178
  166MOL0     C22339   1.112   4.725   1.625  0.0765 -0.1831  0.4105
  166MOL0     C22340   1.733   5.086   2.129 -0.1216  0.8604 -0.2780
  166MOL0     C22341   1.827   5.141   2.222 -0.8127  0.0537 -0.2636
  166MOL0     C22342   1.782   5.142   2.364 -0.9986 -0.0179  0.5261
  166MOL0     H22343   2.147   5.528   2.340  0.6872 -0.3303  2.0478
  166MOL0     H22344   2.342   5.651   2.428  0.9119 -0.4207 -0.2385
  166MOL0     H22345   2.729   5.511   2.294  2.2746  2.3392 -3.1769
  166MOL0     H22346   2.688   5.670   2.232  1.1504 -2.0486 -1.1461
  166MOL0     H22347   2.903   5.661   2.393 -0.4650  2.4456 -2.5317
  166MOL0     H22348   2.789   5.605   2.519 -0.5418 -0.6546 -1.1168
  166MOL0     H22349   2.679   5.838   2.494  0.4458  1.0832  0.5270
  166MOL0     H22350   2.771   5.873   2.361  0.1349  1.3860  0.3041
  166MOL0     H22351   2.822   5.978   2.586  0.9012  0.7374  1.7313
  166MOL0     H22352   2.849   5.810   2.640 -1.6778 -1.6440 -1.8913
  166MOL0     H22353   3.044   5.799   2.498 -0.8070 -0.5725 -1.4805
  166MOL0     H22354   3.008   5.954   2.425  0.4949 -1.5148  0.6180
  166MOL0     H22355   3.028   6.072   2.636 -2.9936 -1.6003  0.0201
  166MOL0     H22356   3.070   5.929   2.721 -2.0768  0.2532 -0.6803
  166MOL0     H22357   3.271   5.907   2.551  1.0731 -0.2631  0.6351
  166MOL0     H22358   3.287   5.995   2.703  1.1679  1.7272 -1.0121
  166MOL0     H22359   3.237   6.093   2.416  1.3069 -3.0459 -0.6224
  166MOL0     H22360   3.213   6.198   2.556 -0.7927 -0.3324 -0.0647
  166MOL0     H22361   3.421   6.347   2.432  2.3841  1.2236 -0.3550
  166MOL0     H22362   3.787   6.295   2.436  0.3472  1.1255 -0.7715
  166MOL0     H22363   3.681   6.434   2.454 -0.7967 -0.8164  0.1211
  166MOL0     H22364   3.696   6.396   2.703 -0.6357  2.1770 -1.0126
  166MOL0     H22365   3.823   6.289   2.688  0.9710  0.2922  0.7282
  166MOL0     H22366   3.917   6.525   2.721 -3.5770  0.9537 -0.0483
  166MOL0     H22367   3.829   6.581   2.582 -0.5211  0.2980  0.8094
  166MOL0     H22368   3.968   6.483   2.432  0.3149  1.6689  0.6659
  166MOL0     H22369   4.029   6.350   2.542  0.1569 -0.0599  0.6002
  166MOL0     H22370   4.323   6.594   2.707  2.9303 -2.7695  1.2161
  166MOL0     H22371   4.549   6.594   2.611  2.6868  0.3178 -3.0040
  166MOL0     H22372   4.880   6.750   2.498 -0.6980  1.5326 -2.4741
  166MOL0     H22373   5.104   6.784   2.443  0.9459 -0.8613  1.3391
  166MOL0     H22374   5.273   6.514   2.113  0.3453 -0.3160 -1.4141
  166MOL0     H22375   5.220   6.664   2.048 -2.2322 -1.1397  0.4403
  166MOL0     H22376   5.454   6.671   1.996  1.5434  1.7886  0.3274
  166MOL0     H22377   5.477   6.744   2.148  1.2409 -1.0174  1.4175
  166MOL0     H22378   5.463   6.472   2.238 -2.2754 -3.0634 -2.4247
  166MOL0     H22379   5.524   6.457   2.080  1.0468  0.6052  0.3400
  166MOL0     H22380   5.652   6.610   2.296 -0.7192  0.3487 -0.2501
  166MOL0     H22381   5.714   6.616   2.122  1.2608  0.8462  0.1431
  166MOL0     H22382   5.716   6.352   2.156 -2.4537  0.4390  0.7564
  166MOL0     H22383   5.707   6.392   2.324  1.1762  1.7481  1.7249
  166MOL0     H22384   5.945   6.357   2.222  2.3309 -0.6707  4.9948
  166MOL0     H22385   5.919   6.522   2.144 -2.5211  0.0537  0.1159
  166MOL0     H22386   5.902   6.453   2.448 -0.5358  3.1070  2.8308
  166MOL0     H22387   5.877   6.609   2.376 -2.8227 -1.3383 -1.0442
  166MOL0     H22388   6.082   6.562   2.494  0.1936 -1.3290  0.9276
  166MOL0     H22389   6.134   6.452   2.365 -1.8226 -0.6161 -0.3075
  166MOL0     H22390   5.086   6.442   2.170  0.5213  0.9444 -0.3070
  166MOL0     H22391   4.870   6.385   2.274  0.9979 -0.1113 -0.9736
  166MOL0     H22392   4.384   6.425   2.237 -3.2652  2.6111 -0.8417
  166MOL0     H22393   4.168   6.428   2.326 -0.4663 -0.0405  0.5647
  166MOL0     H22394   2.599   5.342   2.313  0.6556  1.7601 -0.1076
  166MOL0     H22395   2.414   5.202   2.221 -1.6387 -0.2851  1.9504
  166MOL0     H22396   2.064   5.228   1.996 -1.6480  1.8086 -2.1636
  166MOL0     H22397   1.907   5.110   1.841  1.9310  1.2384  0.2185
  166MOL0     H22398   1.476   5.061   1.890  0.2768  0.0604  1.7003
  166MOL0     H22399   1.534   4.932   2.002 -2.4679 -1.5502 -1.0663
  166MOL0     H22400   1.623   4.797   1.825 -0.8945 -0.2537  2.5445
  166MOL0     H22401   1.574   4.919   1.703 -0.5485  0.4834  0.3721
  166MOL0     H22402   1.327   4.872   1.829 -1.7970 -0.5430 -2.2985
  166MOL0     H22403   1.412   4.714   1.834 -3.2982 -0.8103 -1.5628
  166MOL0     H22404   1.403   4.880   1.580 -1.5472  1.0316 -0.3953
  166MOL0     H22405   1.442   4.709   1.590 -0.6107  0.3679 -1.6907
  166MOL0     H22406   1.020   4.673   1.637  0.6251 -1.1282  0.6536
  166MOL0     H22407   1.640   5.050   2.174  0.2625 -0.5587 -0.5565
  166MOL0     H22408   1.737   5.235   2.400  0.8351  1.2736 -0.3298
  166MOL0     H22409   1.714   5.058   2.381 -1.6882  0.0972 -1.4638
  166MOL0     H22410   1.870   5.124   2.427 -1.6561  0.0874  1.5019
  167MOL0     O22411   9.658   4.243   9.282 -0.3824 -0.3001  0.0405
  167MOL0     C22412   9.568   4.288   9.218 -0.1502  0.0318 -0.1424
  167MOL0     O22413   9.585   4.360   9.105  0.3853 -0.4820  0.3488
  167MOL0     C22414   9.708   4.356   9.051 -0.5024 -1.0421  0.0612
  167MOL0     C22415   9.794   4.443   9.102 -0.0751  0.2337 -0.0077
  167MOL0     C22416   9.934   4.443   9.054 -0.1076  0.2646 -0.5148
  167MOL0     C22417   9.968   4.358   8.937  0.4488 -0.2542 -1.1588
  167MOL0     O22418  10.088   4.345   8.877 -0.3536  0.4042 -0.2157
  167MOL0     C22419  10.188   4.440   8.934 -0.0496 -0.7610  0.7560
  167MOL0     C22420  10.315   4.430   8.856 -0.2466 -0.8780  0.2059
  167MOL0     C22421  10.404   4.550   8.863  0.2341  0.8629 -0.1054
  167MOL0     C22422  10.534   4.539   8.781  0.4409  0.5222 -0.1911
  167MOL0     C22423  10.647   4.626   8.845  0.0214  0.7306 -1.1988
  167MOL0     C22424  10.774   4.600   8.770 -0.4067 -0.3183 -0.0544
  167MOL0     C22425  10.883   4.705   8.790  0.0572 -0.2827  0.7530
  167MOL0     C22426  10.924   4.731   8.932 -0.3864 -0.0733  0.1775
  167MOL0     N22427  11.048   4.809   8.936  0.1516 -0.8671 -0.0631
  167MOL0     C22428  11.175   4.767   8.965 -0.0299 -0.3691 -0.3186
  167MOL0     C22429  11.251   4.874   8.943  0.6567  0.2552 -0.4717
  167MOL0     C22430  11.403   4.878   8.953  0.0470 -0.6872 -0.8287
  167MOL0     C22431  11.433   4.977   9.050  0.1984  0.1238 -0.2090
  167MOL0     C22432  11.373   4.954   9.193 -0.1941  0.2461  1.2036
  167MOL0     C22433  11.420   5.046   9.303 -0.5891  0.0513  0.5034
  167MOL0     O22434  11.564   5.078   9.286  0.1962  0.3350 -0.1328
  167MOL0     C22435  11.657   5.004   9.357  0.7504 -0.0338 -0.5190
  167MOL0     C22436  11.626   4.879   9.420  0.0657  0.1758  0.0453
  167MOL0     C22437  11.729   4.814   9.497  0.3397 -0.3665  0.6903
  167MOL0     C22438  11.859   4.867   9.495 -1.1101 -0.2786 -0.3928
  167MOL0     C22439  11.962   4.799   9.572 -0.4170  0.2530 -0.1740
  167MOL0     O22440  12.091   4.845   9.565  0.5361  0.1489 -0.0126
  167MOL0     C22441  12.181   4.798   9.659 -0.1895  0.9048  0.3685
  167MOL0     C22442  12.318   4.791   9.616 -0.0697 -0.0501  0.2183
  167MOL0     C22443  12.414   4.760   9.704 -0.5650 -0.4402 -0.6672
  167MOL0     C22444  12.383   4.730   9.839 -0.2458  1.3583  0.3542
  167MOL0     O22445  12.480   4.685   9.926 -0.5004  1.1482  0.5604
  167MOL0     C22446  12.553   4.566   9.890 -0.2632 -0.3045 -0.0450
  167MOL0     C22447  12.660   4.531   9.995 -0.1259 -0.5841 -0.4659
  167MOL0     C22448  12.610   4.504  10.138 -0.0411 -0.1272 -0.6585
  167MOL0     C22449  12.727   4.505  10.238 -0.4631 -1.1374 -0.2122
  167MOL0     C22450  12.692   4.488  10.384 -0.0088 -0.9438 -0.4547
  167MOL0     C22451  12.819   4.495  10.468 -0.1257  0.8628  0.1510
  167MOL0     C22452  12.804   4.477  10.620  0.3121  0.2023  0.1848
  167MOL0     C22453  12.941   4.470  10.679 -0.5233 -1.1111  0.3074
  167MOL0    Cl22454  12.930   4.460  10.859  0.1318  0.0771  0.0695
  167MOL0     C22455  12.254   4.735   9.884 -0.2566 -0.4369 -0.7359
  167MOL0     C22456  12.155   4.780   9.796 -0.9776 -0.2050  0.3452
  167MOL0     O22457  11.931   4.702   9.641  0.1114  0.2715  0.7332
  167MOL0     C22458  11.891   4.984   9.429  0.0310 -0.1629 -0.4080
  167MOL0     C22459  11.789   5.048   9.363  1.0195 -0.1559 -0.0599
  167MOL0     N22460  11.176   4.983   8.915 -0.6424  0.2554 -0.3215
  167MOL0     N22461  11.059   4.940   8.920  0.4484 -0.0096  0.7785
  167MOL0     C22462   9.865   4.279   8.885 -0.4765  0.4924  0.5333
  167MOL0     C22463   9.740   4.271   8.948  0.0627 -0.8996  0.6298
  167MOL0     C22464   9.438   4.294   9.278  0.8601 -0.3053 -0.0271
  167MOL0     C22465   9.342   4.367   9.208 -0.4338 -0.6749  0.4974
  167MOL0     C22466   9.209   4.391   9.252 -0.6045 -0.8722 -0.0614
  167MOL0     C22467   9.161   4.320   9.363  0.2478 -0.6789 -0.4229
  167MOL0     O22468   9.028   4.301   9.389 -0.0265  0.2788  0.2560
  167MOL0     C22469   8.948   4.420   9.388 -0.2240  0.3210  0.1412
  167MOL0     C22470   8.858   4.430   9.273 -0.2254 -0.3257 -0.3013
  167MOL0     C22471   8.739   4.346   9.312  0.3069 -0.8241  0.7648
  167MOL0     C22472   8.634   4.354   9.202 -0.1195  0.6076 -0.7709
  167MOL0     C22473   8.527   4.255   9.222  0.4419  0.6627  0.6794
  167MOL0     C22474   8.430   4.190   9.257 -0.3104  0.0656 -0.2066
  167MOL0     C22475   9.256   4.232   9.422  0.6968  0.2966 -0.6293
  167MOL0     C22476   9.393   4.217   9.391  0.9222  0.1244 -0.6683
  167MOL0     C22477   9.472   4.117   9.469  0.6825  0.0586  0.1635
  167MOL0     H22478   9.756   4.508   9.180 -1.0170  0.2302 -0.4552
  167MOL0     H22479  10.009   4.504   9.105  0.8038  1.3770 -3.0206
  167MOL0     H22480  10.156   4.544   8.935 -1.1840 -0.8871 -3.5888
  167MOL0     H22481  10.200   4.411   9.039 -3.5315 -1.4458  1.0876
  167MOL0     H22482  10.288   4.415   8.751  0.6568 -2.0788  0.1205
  167MOL0     H22483  10.361   4.336   8.888 -2.0663 -1.5032  1.1197
  167MOL0     H22484  10.417   4.559   8.971  1.3714  2.3666 -0.3309
  167MOL0     H22485  10.355   4.644   8.835  0.7890  1.2705  0.2629
  167MOL0     H22486  10.561   4.433   8.788  0.3053  0.5714  1.4068
  167MOL0     H22487  10.526   4.564   8.675 -0.0760 -1.4451 -0.6601
  167MOL0     H22488  10.626   4.733   8.842  0.3058  0.8462  0.1318
  167MOL0     H22489  10.663   4.604   8.951  1.5380  2.3246 -1.0540
  167MOL0     H22490  10.803   4.502   8.810 -0.8903 -1.6696 -2.8269
  167MOL0     H22491  10.758   4.580   8.664  0.8249  1.5558 -0.6302
  167MOL0     H22492  10.836   4.796   8.752 -2.2778 -1.8366 -0.3185
  167MOL0     H22493  10.972   4.684   8.730  0.5489  0.9210  1.0204
  167MOL0     H22494  10.849   4.793   8.983  0.6454  0.1603  1.4679
  167MOL0     H22495  10.936   4.634   8.981  0.9479 -0.7473 -1.4054
  167MOL0     H22496  11.207   4.666   8.990  0.0541  0.1065  1.6611
  167MOL0     H22497  11.452   4.784   8.982 -0.1791 -0.2551  1.0630
  167MOL0     H22498  11.446   4.903   8.856 -1.4328  0.6078 -1.1826
  167MOL0     H22499  11.542   4.981   9.055  0.1191  1.5487  0.9566
  167MOL0     H22500  11.405   5.079   9.022 -0.9110 -0.3807 -1.0092
  167MOL0     H22501  11.410   4.851   9.196  0.9786  0.4265 -2.2749
  167MOL0     H22502  11.263   4.949   9.193 -0.3846  3.0603  0.9317
  167MOL0     H22503  11.404   4.996   9.399 -0.6510 -2.1723 -0.5834
  167MOL0     H22504  11.361   5.138   9.310  0.6134  0.7925  1.3488
  167MOL0     H22505  11.527   4.837   9.419 -0.3387  1.0949  0.1491
  167MOL0     H22506  11.708   4.729   9.561  2.2052 -1.9313 -0.6411
  167MOL0     H22507  12.330   4.810   9.509 -0.5640 -0.8885  0.0010
  167MOL0     H22508  12.519   4.772   9.678 -0.9206  1.0145 -1.5211
  167MOL0     H22509  12.480   4.486   9.884 -0.9101  0.0629  2.0685
  167MOL0     H22510  12.588   4.588   9.789 -1.5767  5.0293  0.3466
  167MOL0     H22511  12.711   4.442   9.958  0.4537 -1.1999  1.6645
  167MOL0     H22512  12.738   4.608   9.998 -0.3889 -0.3366  1.4927
  167MOL0     H22513  12.534   4.579  10.161 -1.3473 -0.9793 -2.0033
  167MOL0     H22514  12.561   4.406  10.144  1.7297 -0.9544  1.3427
  167MOL0     H22515  12.777   4.601  10.229 -0.8413 -1.0060 -1.0125
  167MOL0     H22516  12.796   4.423  10.214  0.0543 -0.9703  0.6542
  167MOL0     H22517  12.632   4.398  10.397  0.4834 -1.0881  1.1313
  167MOL0     H22518  12.629   4.573  10.411  0.5665 -0.2894 -1.1090
  167MOL0     H22519  12.894   4.425  10.429 -1.2239 -0.1670 -0.1871
  167MOL0     H22520  12.862   4.591  10.438  1.2718  0.5914  1.1653
  167MOL0     H22521  12.760   4.378  10.632  2.6755 -0.8692  0.6756
  167MOL0     H22522  12.736   4.553  10.661  1.6642  1.3172  0.4326
  167MOL0     H22523  13.001   4.389  10.636 -0.9059 -0.3084 -1.8527
  167MOL0     H22524  12.994   4.561  10.650  1.5349 -2.3483  0.0126
  167MOL0     H22525  12.220   4.704   9.982 -2.0855 -0.7179 -1.4199
  167MOL0     H22526  12.058   4.809   9.835 -1.2887  1.4826 -1.5000
  167MOL0     H22527  11.991   5.025   9.437 -0.3585  0.4440  4.2066
  167MOL0     H22528  11.810   5.137   9.304  3.2233  0.3077  1.2921
  167MOL0     H22529   9.891   4.216   8.801  0.2885  0.1544  1.0175
  167MOL0     H22530   9.669   4.200   8.906 -0.6390  1.1491 -1.9224
  167MOL0     H22531   9.364   4.430   9.123  0.9563 -1.6428  0.1034
  167MOL0     H22532   9.149   4.461   9.196 -0.3777  0.5314  1.3708
  167MOL0     H22533   9.012   4.509   9.392  0.7908 -0.3956  0.2681
  167MOL0     H22534   8.887   4.413   9.479 -0.4448 -3.6321 -0.1456
  167MOL0     H22535   8.910   4.400   9.181 -0.2996  2.7411 -1.4710
  167MOL0     H22536   8.829   4.534   9.256 -0.7723 -0.6331 -1.3205
  167MOL0     H22537   8.694   4.382   9.404 -1.1374  0.9986 -0.5812
  167MOL0     H22538   8.762   4.241   9.334 -0.2716 -0.5025  3.1489
  167MOL0     H22539   8.585   4.452   9.197  0.6787  1.1051  0.6861
  167MOL0     H22540   8.678   4.343   9.103  2.9265  2.8299  0.1684
  167MOL0     H22541   8.363   4.118   9.300 -0.3229  0.2119  0.0167
  167MOL0     H22542   9.219   4.169   9.503 -0.9250  2.0011  0.0357
  167MOL0     H22543   9.548   4.177   9.520 -1.3737  2.2510  0.8124
  167MOL0     H22544   9.413   4.057   9.539 -0.6579 -2.0091 -2.5682
  167MOL0     H22545   9.524   4.043   9.408 -1.6665 -1.5401 -0.0401
  168MOL0     O22546   9.754   6.782   0.893 -0.5216 -0.7445  0.1724
  168MOL0     C22547   9.658   6.732   0.839 -0.7218 -0.7208 -0.3421
  168MOL0     O22548   9.653   6.679   0.717 -0.2496  0.4362 -0.2042
  168MOL0     C22549   9.761   6.635   0.640 -0.4026 -1.1425  0.0829
  168MOL0     C22550   9.731   6.599   0.510  0.3336 -0.2791 -1.1316
  168MOL0     C22551   9.830   6.554   0.421  0.3369 -0.7041  0.0677
  168MOL0     C22552   9.960   6.555   0.469 -0.0961 -0.2984  0.8846
  168MOL0     O22553  10.070   6.528   0.394  0.7131  0.2568 -0.1033
  168MOL0     C22554  10.051   6.487   0.264  0.3146 -0.9452  0.4441
  168MOL0     C22555  10.178   6.490   0.183  0.3481 -1.1083 -0.2612
  168MOL0     C22556  10.305   6.424   0.241 -0.5625  0.7514  0.3663
  168MOL0     C22557  10.400   6.416   0.126  0.4055 -1.3683 -0.0731
  168MOL0     C22558  10.526   6.328   0.169  0.6841  0.5080 -0.5716
  168MOL0     C22559  10.508   6.183   0.224  0.3614 -0.2033  0.2667
  168MOL0     C22560  10.456   6.088   0.124  0.0471  0.3962 -0.7458
  168MOL0     C22561  10.450   5.940   0.179 -0.2893  0.4208 -0.1073
  168MOL0     N22562  10.576   5.873   0.210  0.1961  0.0662 -0.2863
  168MOL0     C22563  10.656   5.901   0.318 -0.8005  0.0212 -0.4226
  168MOL0     C22564  10.770   5.823   0.300 -0.5349 -0.1180 -0.3274
  168MOL0     C22565  10.906   5.833   0.367  0.6195 -0.1133  1.9968
  168MOL0     C22566  10.886   5.865   0.512  0.1928 -0.1806 -0.6929
  168MOL0     C22567  11.015   5.822   0.577  0.4119 -0.0068 -0.2445
  168MOL0     C22568  11.010   5.859   0.724  1.1706 -0.4896 -0.6281
  168MOL0     O22569  11.124   5.785   0.783  1.3135 -0.4027  0.2365
  168MOL0     C22570  11.135   5.780   0.919 -0.1167  0.7412 -0.2425
  168MOL0     C22571  11.050   5.846   1.005  0.0430  0.4588 -0.1249
  168MOL0     C22572  11.083   5.863   1.143 -0.8317 -0.1042  0.0802
  168MOL0     C22573  11.189   5.794   1.198  0.3292 -0.5791  0.7826
  168MOL0     C22574  11.226   5.796   1.339 -0.5136  0.1363 -0.1350
  168MOL0     O22575  11.129   5.841   1.414  0.5820  0.2580 -0.4414
  168MOL0     C22576  11.138   5.840   1.553 -0.1071 -0.8593  0.1367
  168MOL0     C22577  11.041   5.782   1.631 -0.6648  0.5852 -0.4418
  168MOL0     C22578  11.043   5.796   1.773 -0.2486  0.0425  0.2464
  168MOL0     C22579  11.162   5.844   1.835 -0.9769 -0.7503  0.1851
  168MOL0     O22580  11.181   5.865   1.969 -0.0714 -0.4714 -0.3710
  168MOL0     C22581  11.080   5.814   2.058 -0.0549  0.1848 -0.6679
  168MOL0     C22582  11.098   5.842   2.204  0.5420  0.9916 -0.0966
  168MOL0     C22583  11.186   5.734   2.257 -0.3876 -0.1540 -0.6125
  168MOL0     C22584  11.207   5.773   2.411 -0.2948  1.1747  1.2222
  168MOL0     C22585  11.318   5.700   2.494 -0.1997  0.7901 -0.4579
  168MOL0     C22586  11.329   5.770   2.634  0.2484  0.7938 -0.7721
  168MOL0     C22587  11.413   5.690   2.738  0.5427 -0.1108  0.4140
  168MOL0     C22588  11.425   5.771   2.868 -0.4570  0.5184  0.9160
  168MOL0    Cl22589  11.577   5.861   2.880  0.2196  0.0125 -0.1543
  168MOL0     C22590  11.257   5.905   1.756 -0.1659 -0.2152 -0.0350
  168MOL0     C22591  11.246   5.898   1.619  0.3445  0.9034  0.0264
  168MOL0     O22592  11.326   5.744   1.379 -0.1949  1.1648  0.3392
  168MOL0     C22593  11.263   5.709   1.112 -0.6198 -0.1301 -0.1532
  168MOL0     C22594  11.241   5.709   0.975 -0.3115 -0.0284 -0.1516
  168MOL0     N22595  10.743   5.751   0.179 -0.6248  0.0390 -0.6991
  168MOL0     N22596  10.631   5.778   0.135  0.6015 -1.3405  0.8209
  168MOL0     C22597   9.985   6.577   0.598 -0.3032 -0.2927 -0.8068
  168MOL0     C22598   9.887   6.615   0.683  0.0806  0.0403 -0.4977
  168MOL0     C22599   9.534   6.734   0.906  0.2735 -0.1635 -0.5729
  168MOL0     C22600   9.417   6.755   0.835 -0.3934 -0.2618 -0.7023
  168MOL0     C22601   9.293   6.717   0.888  0.1076 -0.3231 -1.1333
  168MOL0     C22602   9.284   6.672   1.024 -0.2186  0.3361  0.0249
  168MOL0     O22603   9.175   6.637   1.101 -0.0453  0.6278 -0.1005
  168MOL0     C22604   9.045   6.618   1.038 -0.2700 -0.0821  0.4056
  168MOL0     C22605   8.932   6.598   1.130  0.1852 -0.4139 -0.1457
  168MOL0     C22606   8.886   6.718   1.216  0.1570 -0.6178 -0.0916
  168MOL0     C22607   8.779   6.679   1.321  0.0910 -1.1361  0.1274
  168MOL0     C22608   8.821   6.558   1.396 -0.0393 -0.4657  0.9062
  168MOL0     C22609   8.869   6.469   1.451 -0.0491  0.3599 -0.3758
  168MOL0     C22610   9.405   6.660   1.086 -0.6221  0.8942  0.0834
  168MOL0     C22611   9.528   6.700   1.040 -0.0357  1.6498 -0.4201
  168MOL0     C22612   9.647   6.684   1.137 -0.2702 -0.8330 -0.4403
  168MOL0     H22613   9.629   6.605   0.474  0.1538  0.2360 -0.5418
  168MOL0     H22614   9.805   6.523   0.320 -0.4352  0.0009  0.0381
  168MOL0     H22615  10.015   6.384   0.258  1.7125 -1.4410  0.0916
  168MOL0     H22616   9.995   6.557   0.203  1.9334  4.5973  4.5150
  168MOL0     H22617  10.213   6.590   0.157  0.4252 -0.9173  0.5506
  168MOL0     H22618  10.150   6.450   0.085  0.3673  0.7279 -1.0638
  168MOL0     H22619  10.272   6.322   0.264 -2.5927  0.8995 -1.5692
  168MOL0     H22620  10.353   6.468   0.329  2.0974 -1.1307 -0.0117
  168MOL0     H22621  10.350   6.371   0.040  0.1779  1.3537 -1.4744
  168MOL0     H22622  10.434   6.515   0.092 -0.2867 -1.1560 -0.1675
  168MOL0     H22623  10.595   6.335   0.084 -1.0453 -0.3528 -2.1239
  168MOL0     H22624  10.575   6.387   0.248  0.2786  0.9389 -0.6403
  168MOL0     H22625  10.608   6.155   0.259  0.2934 -0.4936  0.2293
  168MOL0     H22626  10.437   6.173   0.306  0.5826  0.4295  0.5440
  168MOL0     H22627  10.516   6.083   0.033 -0.9023  1.2368 -1.4461
  168MOL0     H22628  10.353   6.118   0.100 -0.6019 -0.0589  1.3243
  168MOL0     H22629  10.389   5.929   0.269 -1.4785  1.7629 -0.7147
  168MOL0     H22630  10.402   5.880   0.102  3.9057 -1.1480 -1.8036
  168MOL0     H22631  10.633   5.977   0.393 -0.2803 -1.4203  1.2560
  168MOL0     H22632  10.959   5.740   0.347 -0.6469 -0.3084 -0.9295
  168MOL0     H22633  10.969   5.907   0.318 -0.7381 -0.3755 -0.2654
  168MOL0     H22634  10.857   5.967   0.541  0.3082 -0.8151  1.9601
  168MOL0     H22635  10.801   5.813   0.558  1.0870  0.3647  1.7587
  168MOL0     H22636  11.108   5.868   0.543  1.7108 -0.9606  1.8737
  168MOL0     H22637  11.029   5.714   0.565 -0.5989 -0.3725  1.5624
  168MOL0     H22638  10.922   5.824   0.779  0.7541  1.5100  0.0699
  168MOL0     H22639  11.017   5.967   0.740 -1.8443  0.3955 -4.0269
  168MOL0     H22640  10.969   5.907   0.965 -0.8368  0.9002  2.1820
  168MOL0     H22641  11.024   5.905   1.224  0.2483 -0.6343  1.1616
  168MOL0     H22642  10.959   5.730   1.582  0.1028 -2.2478  1.0478
  168MOL0     H22643  10.955   5.773   1.833 -1.7231  2.2659 -0.8872
  168MOL0     H22644  10.983   5.855   2.027 -1.6370 -3.5959 -1.4217
  168MOL0     H22645  11.077   5.704   2.050 -0.7157  0.0662  0.8418
  168MOL0     H22646  11.135   5.944   2.219  2.2004  0.3811  0.1900
  168MOL0     H22647  10.998   5.831   2.248  0.1679 -1.1315 -1.3390
  168MOL0     H22648  11.145   5.635   2.232 -1.1574  0.8218 -3.5828
  168MOL0     H22649  11.277   5.738   2.197 -1.0576 -0.9707 -1.7161
  168MOL0     H22650  11.113   5.760   2.466 -1.7011  1.1453 -1.0659
  168MOL0     H22651  11.249   5.874   2.405  5.9141 -1.1065 -1.6120
  168MOL0     H22652  11.414   5.711   2.442  3.0110  1.4386  4.8244
  168MOL0     H22653  11.289   5.595   2.501  0.5317  0.5599 -0.7233
  168MOL0     H22654  11.369   5.871   2.618  0.5231  0.7353 -0.4730
  168MOL0     H22655  11.227   5.774   2.674  0.3079  1.0917 -0.6431
  168MOL0     H22656  11.512   5.664   2.699  0.2284 -2.1511  0.8779
  168MOL0     H22657  11.363   5.596   2.760 -1.2711  0.5973 -0.4220
  168MOL0     H22658  11.334   5.824   2.895  0.4483  2.4075  0.3811
  168MOL0     H22659  11.435   5.699   2.950 -1.0478 -0.7802 -0.1044
  168MOL0     H22660  11.344   5.953   1.798  1.0346 -0.1463 -2.4141
  168MOL0     H22661  11.323   5.952   1.564  1.4264  0.7802  1.3656
  168MOL0     H22662  11.341   5.647   1.156 -0.9475 -0.7734 -0.4629
  168MOL0     H22663  11.302   5.655   0.904  0.0708  1.6585 -1.1637
  168MOL0     H22664  10.085   6.574   0.640 -1.3728  1.5335  2.1696
  168MOL0     H22665   9.914   6.645   0.784 -1.6584  1.6305 -0.4636
  168MOL0     H22666   9.433   6.788   0.733  1.0862  0.0225 -0.4108
  168MOL0     H22667   9.199   6.735   0.837 -0.2715 -0.6610 -0.5656
  168MOL0     H22668   9.057   6.539   0.963  3.0388  0.0710  0.6352
  168MOL0     H22669   9.028   6.709   0.980  2.0059 -0.7629 -1.4548
  168MOL0     H22670   8.953   6.510   1.191 -3.9390 -0.2495  1.9039
  168MOL0     H22671   8.849   6.562   1.067 -0.1093  1.7096 -1.0346
  168MOL0     H22672   8.855   6.802   1.152  2.1080 -2.0942 -3.2323
  168MOL0     H22673   8.978   6.749   1.267  0.5869 -3.2888  0.8947
  168MOL0     H22674   8.762   6.767   1.384  2.4275 -1.3395  1.1605
  168MOL0     H22675   8.682   6.660   1.275  2.1149 -3.4870 -3.6499
  168MOL0     H22676   8.894   6.381   1.507  1.8396  1.5808  0.7948
  168MOL0     H22677   9.395   6.612   1.182 -1.8192  0.5843 -0.1765
  168MOL0     H22678   9.671   6.780   1.182  0.8091 -1.8118  1.1832
  168MOL0     H22679   9.630   6.620   1.224  0.7181  0.6835  0.9130
  168MOL0     H22680   9.742   6.654   1.093  0.1084  0.4103 -0.5058
  169MOL0     O22681   8.518   2.688   3.080 -0.1398  0.2891  0.6159
  169MOL0     C22682   8.482   2.705   3.197  0.1831  0.6950 -0.3471
  169MOL0     O22683   8.560   2.715   3.308 -0.2933  0.0535  0.0547
  169MOL0     C22684   8.687   2.771   3.289  1.0673  0.0317 -0.2161
  169MOL0     C22685   8.774   2.727   3.387  0.3824  0.6742  0.5937
  169MOL0     C22686   8.901   2.772   3.400 -0.8080  0.9522 -0.7114
  169MOL0     C22687   8.958   2.840   3.295  0.0291 -0.7151  0.0175
  169MOL0     O22688   9.087   2.884   3.292 -0.5175 -0.1237  0.7613
  169MOL0     C22689   9.172   2.833   3.392  0.0961 -0.6516  0.5175
  169MOL0     C22690   9.321   2.864   3.361  0.1805 -0.0029  0.3889
  169MOL0     C22691   9.358   2.821   3.221 -0.5361  0.1582  0.7029
  169MOL0     C22692   9.507   2.843   3.205 -1.2643 -0.1197  0.5126
  169MOL0     C22693   9.602   2.723   3.200 -0.4989 -0.1884 -0.1973
  169MOL0     C22694   9.741   2.740   3.144  0.1464 -0.3558  0.8529
  169MOL0     C22695   9.828   2.846   3.223 -0.6871 -0.1642  0.0456
  169MOL0     C22696   9.936   2.895   3.133 -0.2866 -0.2193 -0.1815
  169MOL0     N22697  10.053   2.938   3.204 -0.5152 -0.5618 -0.2455
  169MOL0     C22698  10.180   2.868   3.213 -0.1197 -0.6124 -0.2583
  169MOL0     C22699  10.260   2.931   3.299  0.1607 -0.0107 -0.6276
  169MOL0     C22700  10.395   2.890   3.350 -0.2126  0.4552 -0.6020
  169MOL0     C22701  10.504   2.938   3.261 -0.3744  0.6648 -0.4718
  169MOL0     C22702  10.541   3.086   3.247  0.0675 -0.0197 -0.1916
  169MOL0     C22703  10.632   3.142   3.342  0.5674 -0.3049  0.2999
  169MOL0     O22704  10.772   3.101   3.329  0.6421 -0.3383 -0.1746
  169MOL0     C22705  10.869   3.170   3.402  0.3456  0.3445 -0.2173
  169MOL0     C22706  10.844   3.279   3.488  0.1952 -0.1983 -0.7068
  169MOL0     C22707  10.946   3.342   3.562  0.5835 -0.2406  0.1658
  169MOL0     C22708  11.077   3.290   3.545  0.7836 -0.3296  0.1460
  169MOL0     C22709  11.187   3.380   3.595 -0.1426 -0.0529  1.2000
  169MOL0     O22710  11.319   3.342   3.573  0.1065 -0.5572 -0.2134
  169MOL0     C22711  11.425   3.399   3.640 -0.0941  0.2094 -0.3995
  169MOL0     C22712  11.426   3.434   3.779 -0.0243 -0.8869  0.1500
  169MOL0     C22713  11.546   3.493   3.831  0.1540  0.8220 -0.8255
  169MOL0     C22714  11.663   3.506   3.760 -0.2541  0.1514 -0.7566
  169MOL0     O22715  11.789   3.550   3.807  0.3990  0.4089  0.2172
  169MOL0     C22716  11.800   3.587   3.943 -0.0329  0.1756 -0.1483
  169MOL0     C22717  11.923   3.668   3.972 -0.4989  0.3365  0.4953
  169MOL0     C22718  12.058   3.594   3.945  0.7111  0.8697  0.4415
  169MOL0     C22719  12.136   3.654   3.826  0.3679 -0.6635 -0.5472
  169MOL0     C22720  12.200   3.788   3.864  0.4632  0.6509 -0.0844
  169MOL0     C22721  12.299   3.842   3.761  0.2650  0.3555  0.3895
  169MOL0     C22722  12.430   3.751   3.754  0.3848  0.4901  0.6760
  169MOL0     C22723  12.525   3.818   3.660  0.6533 -0.1295  0.4320
  169MOL0    Cl22724  12.578   3.972   3.730  0.2499  0.2180 -0.3020
  169MOL0     C22725  11.665   3.465   3.627  0.9018  0.0710 -0.1972
  169MOL0     C22726  11.546   3.409   3.570  0.2614  0.1315  0.1204
  169MOL0     O22727  11.155   3.477   3.658 -0.0540 -0.4502  0.3457
  169MOL0     C22728  11.101   3.176   3.467 -0.0885 -0.9399 -0.6200
  169MOL0     C22729  11.003   3.121   3.395  0.9733  0.6208  0.7772
  169MOL0     N22730  10.194   3.044   3.337  0.7539 -0.2544  0.2732
  169MOL0     N22731  10.069   3.045   3.290 -0.1617 -0.3606  0.0652
  169MOL0     C22732   8.871   2.881   3.188 -0.2354  0.9151 -0.9349
  169MOL0     C22733   8.736   2.844   3.183 -0.9314 -0.7790 -0.0883
  169MOL0     C22734   8.338   2.670   3.226 -0.9475  0.1853 -0.0956
  169MOL0     C22735   8.307   2.579   3.331 -0.8063 -0.4665  0.4343
  169MOL0     C22736   8.175   2.533   3.352  0.0511 -0.2113 -0.1071
  169MOL0     C22737   8.074   2.583   3.270  0.4212 -0.0456  0.9437
  169MOL0     O22738   7.946   2.547   3.288  0.2641  0.2644 -0.1212
  169MOL0     C22739   7.844   2.575   3.198  0.2029 -0.3299  1.1422
  169MOL0     C22740   7.739   2.683   3.218  0.3703  0.0387 -0.0607
  169MOL0     C22741   7.656   2.651   3.348  0.8799 -0.2395 -0.2039
  169MOL0     C22742   7.728   2.715   3.466 -0.1793  0.3712 -0.0591
  169MOL0     C22743   7.713   2.864   3.478 -0.1416  0.5597  0.0143
  169MOL0     C22744   7.712   2.980   3.494  0.2674 -0.8246 -1.1811
  169MOL0     C22745   8.099   2.697   3.182  0.6606  0.5426  0.1695
  169MOL0     C22746   8.232   2.742   3.155 -0.3625 -0.5076 -0.3013
  169MOL0     C22747   8.253   2.835   3.043  0.2741 -0.1767  0.6542
  169MOL0     H22748   8.747   2.659   3.467 -0.5984  3.3886  2.6961
  169MOL0     H22749   8.946   2.744   3.494 -1.0540 -0.7777 -1.0816
  169MOL0     H22750   9.149   2.898   3.478 -0.9945  0.6117 -0.6865
  169MOL0     H22751   9.161   2.725   3.401  0.3931 -0.6868  0.4501
  169MOL0     H22752   9.387   2.830   3.441  3.7315  0.7190 -2.0384
  169MOL0     H22753   9.325   2.974   3.363  0.2925  0.0754 -2.0422
  169MOL0     H22754   9.309   2.886   3.147 -1.5903 -0.2754  1.0009
  169MOL0     H22755   9.338   2.715   3.199  0.6279  0.2500 -0.9758
  169MOL0     H22756   9.528   2.893   3.110  0.1993  0.1798  0.9711
  169MOL0     H22757   9.532   2.908   3.290 -2.3765 -0.6159  1.2501
  169MOL0     H22758   9.610   2.685   3.302  1.7112 -1.9692 -0.9453
  169MOL0     H22759   9.560   2.645   3.135  2.1839 -1.8803 -0.0703
  169MOL0     H22760   9.789   2.642   3.133  0.4557 -0.0402 -1.0597
  169MOL0     H22761   9.735   2.769   3.038  0.7472  0.8874  1.1406
  169MOL0     H22762   9.877   2.794   3.306 -1.1365 -1.4570 -0.4728
  169MOL0     H22763   9.774   2.929   3.268  1.3035  0.4823  1.3598
  169MOL0     H22764   9.960   2.823   3.053  1.0701 -1.8351  1.5792
  169MOL0     H22765   9.894   2.984   3.085 -3.9197 -0.4950  2.0904
  169MOL0     H22766  10.207   2.777   3.161 -0.5888 -0.5905 -0.5465
  169MOL0     H22767  10.416   2.920   3.453 -0.8892  0.0483 -0.3428
  169MOL0     H22768  10.397   2.780   3.349 -0.6578  0.4193 -3.0321
  169MOL0     H22769  10.600   2.893   3.290 -2.2814 -3.8819 -0.3559
  169MOL0     H22770  10.476   2.903   3.162 -1.9576  0.4009  0.0336
  169MOL0     H22771  10.448   3.143   3.257  2.7312  4.4942  2.6314
  169MOL0     H22772  10.580   3.103   3.146  1.9620  0.6410  0.5857
  169MOL0     H22773  10.604   3.119   3.445 -0.9420  0.9673  0.2028
  169MOL0     H22774  10.644   3.250   3.329  2.9702 -0.4192  0.9257
  169MOL0     H22775  10.750   3.332   3.494 -0.1936 -0.9164 -0.4943
  169MOL0     H22776  10.927   3.429   3.624 -0.5353  2.2418 -3.3899
  169MOL0     H22777  11.330   3.427   3.830 -0.8073 -0.6137 -1.2142
  169MOL0     H22778  11.546   3.506   3.939 -0.3822 -2.9555 -0.2276
  169MOL0     H22779  11.711   3.638   3.981  1.1035  1.5620  0.7545
  169MOL0     H22780  11.809   3.499   4.008  2.7114  0.4998 -0.0005
  169MOL0     H22781  11.900   3.767   3.930 -2.1936  0.4639  1.5944
  169MOL0     H22782  11.923   3.680   4.081 -1.5873 -1.4204  0.7319
  169MOL0     H22783  12.120   3.591   4.035 -0.8190  1.8026  1.5883
  169MOL0     H22784  12.032   3.490   3.925 -0.2804  0.6825  2.4396
  169MOL0     H22785  12.061   3.673   3.749  0.6799  1.5134 -0.3691
  169MOL0     H22786  12.217   3.588   3.794  0.7676 -0.2763 -0.3350
  169MOL0     H22787  12.269   3.783   3.949  1.8309  2.3981 -1.0271
  169MOL0     H22788  12.120   3.859   3.885  1.4997  1.4373  1.4208
  169MOL0     H22789  12.247   3.834   3.665  1.0814 -1.3533  0.0404
  169MOL0     H22790  12.318   3.949   3.775  1.4231  0.1265  0.6893
  169MOL0     H22791  12.411   3.652   3.710 -0.0934  1.9462 -2.6665
  169MOL0     H22792  12.473   3.720   3.849  0.0401  0.7809  0.9296
  169MOL0     H22793  12.612   3.755   3.639  1.2161  0.5915  0.5442
  169MOL0     H22794  12.472   3.846   3.568  1.7008  1.3613  0.2412
  169MOL0     H22795  11.755   3.478   3.567  0.2558  1.4650 -0.9198
  169MOL0     H22796  11.545   3.370   3.468 -1.0336 -1.6178  0.7514
  169MOL0     H22797  11.202   3.138   3.457  0.6648  1.1603 -1.4711
  169MOL0     H22798  11.029   3.026   3.348  3.0293  1.1740  0.6765
  169MOL0     H22799   8.918   2.934   3.106  1.3600 -0.7512 -1.1563
  169MOL0     H22800   8.675   2.870   3.098  0.6312  1.3175 -0.6568
  169MOL0     H22801   8.379   2.532   3.397 -0.6546 -0.3230  0.3726
  169MOL0     H22802   8.161   2.472   3.441 -1.7658  0.7824  0.3252
  169MOL0     H22803   7.778   2.488   3.198 -1.0819  0.5797 -0.1278
  169MOL0     H22804   7.875   2.583   3.093 -0.1200  0.1123  1.0788
  169MOL0     H22805   7.675   2.690   3.129 -0.7369 -1.3960  0.5722
  169MOL0     H22806   7.793   2.778   3.225  0.8889 -0.0454 -2.3486
  169MOL0     H22807   7.654   2.542   3.354 -4.3682 -0.4164 -0.3825
  169MOL0     H22808   7.554   2.691   3.340  1.9228  2.4581 -1.1434
  169MOL0     H22809   7.686   2.675   3.558 -0.9183  0.0692 -0.5119
  169MOL0     H22810   7.833   2.687   3.468 -0.3505 -0.2638  0.9858
  169MOL0     H22811   7.711   3.080   3.531  4.7032 -0.7695 -0.6609
  169MOL0     H22812   8.018   2.734   3.121  0.3421 -0.4361 -0.0177
  169MOL0     H22813   8.161   2.861   2.991 -0.9725  0.0907  2.9057
  169MOL0     H22814   8.287   2.932   3.080  0.4076  0.0762 -0.1018
  169MOL0     H22815   8.334   2.804   2.975 -1.3514 -1.0177 -0.9858
  170MOL0     O22816   0.245   6.160   6.485  0.0097  0.3659  0.1340
  170MOL0     C22817   0.184   6.096   6.575 -0.0102 -0.2426 -0.3058
  170MOL0     O22818   0.241   6.017   6.669 -0.9480  0.5838  0.1762
  170MOL0     C22819   0.377   6.029   6.685 -0.8395  0.1096 -0.3632
  170MOL0     C22820   0.457   5.943   6.612  0.1823  0.4285 -0.1337
  170MOL0     C22821   0.593   5.954   6.613 -0.0662  0.1923  0.1677
  170MOL0     C22822   0.654   6.055   6.694  0.3595 -0.5305 -0.2978
  170MOL0     O22823   0.789   6.068   6.701 -0.2163  0.5059  0.5289
  170MOL0     C22824   0.870   6.031   6.590  0.1600  0.7566 -0.2663
  170MOL0     C22825   1.016   6.070   6.590  0.7437  0.2272 -0.1134
  170MOL0     C22826   1.074   6.075   6.738  0.0595 -0.3575 -0.2488
  170MOL0     C22827   1.228   6.084   6.724 -0.4690 -0.0066 -0.3569
  170MOL0     C22828   1.312   6.116   6.853  0.1862 -0.6888 -0.0020
  170MOL0     C22829   1.295   6.016   6.967 -0.6821 -0.1954 -0.1359
  170MOL0     C22830   1.342   6.062   7.105 -0.0818 -0.2631  0.7840
  170MOL0     C22831   1.489   6.077   7.104 -0.3434 -0.5109 -0.2634
  170MOL0     N22832   1.547   6.095   7.241 -0.1111  0.3469  0.1718
  170MOL0     C22833   1.495   6.073   7.366  0.0654  0.4527 -0.9921
  170MOL0     C22834   1.595   6.098   7.461 -0.4257  0.2763  0.0791
  170MOL0     C22835   1.589   6.093   7.612  0.0222  0.6574 -0.6392
  170MOL0     C22836   1.729   6.102   7.681 -0.2062  0.2258 -0.7272
  170MOL0     C22837   1.714   6.140   7.832 -0.3314 -0.0094  0.3730
  170MOL0     C22838   1.850   6.138   7.904 -0.2594  0.3142  0.0389
  170MOL0     O22839   1.901   6.003   7.913  0.1008 -0.4642  0.0492
  170MOL0     C22840   2.031   5.986   7.954  0.0772 -0.0176 -0.1478
  170MOL0     C22841   2.093   6.085   8.031  0.0919 -0.5605 -0.2075
  170MOL0     C22842   2.223   6.059   8.076  0.3244  0.0671  0.5154
  170MOL0     C22843   2.292   5.947   8.047  0.6030 -0.1971 -0.5833
  170MOL0     C22844   2.429   5.937   8.097  0.1316  0.4562  0.0899
  170MOL0     O22845   2.480   6.046   8.172 -0.5707  0.3533 -0.2551
  170MOL0     C22846   2.605   6.043   8.225 -0.2587  0.1813 -1.0963
  170MOL0     C22847   2.622   5.959   8.338 -0.1917  0.3006 -1.1543
  170MOL0     C22848   2.746   5.949   8.401 -0.7307  0.6999 -0.1085
  170MOL0     C22849   2.858   6.016   8.350  0.8982 -0.9588 -0.7614
  170MOL0     O22850   2.982   6.005   8.408  0.0575 -0.0836 -0.1656
  170MOL0     C22851   3.020   5.872   8.461  0.1355 -0.4858 -0.1826
  170MOL0     C22852   3.166   5.849   8.455  0.7224 -0.0857 -0.1466
  170MOL0     C22853   3.212   5.717   8.521  0.5946  0.5099 -0.6140
  170MOL0     C22854   3.355   5.688   8.472 -0.8356  0.7619 -0.4417
  170MOL0     C22855   3.415   5.573   8.554  0.1058 -0.1597  0.4343
  170MOL0     C22856   3.572   5.572   8.549 -0.9596 -0.6635  0.6427
  170MOL0     C22857   3.619   5.457   8.630  0.0088  0.0116  0.0396
  170MOL0     C22858   3.773   5.453   8.643 -0.0930 -0.5365 -0.5745
  170MOL0    Cl22859   3.846   5.589   8.744 -0.2979 -0.6446 -0.0731
  170MOL0     C22860   2.841   6.086   8.232 -0.6214 -0.2693 -0.4244
  170MOL0     C22861   2.719   6.104   8.168  0.1274  0.7171  0.9273
  170MOL0     O22862   2.494   5.838   8.075  0.0116 -0.1588  0.2261
  170MOL0     C22863   2.237   5.854   7.970  0.3814 -0.8007 -0.0775
  170MOL0     C22864   2.105   5.872   7.915 -0.4300 -0.1435 -0.6120
  170MOL0     N22865   1.699   6.146   7.375 -0.6465  0.1909 -0.0447
  170MOL0     N22866   1.671   6.138   7.251  0.2136  0.4965 -0.1850
  170MOL0     C22867   0.574   6.136   6.769 -0.1688  0.8164  0.1509
  170MOL0     C22868   0.435   6.124   6.764 -0.3591  0.7445 -0.7027
  170MOL0     C22869   0.039   6.098   6.561  0.3652  0.8587 -0.2362
  170MOL0     C22870  -0.019   6.136   6.439  0.1811 -0.9066 -1.3163
  170MOL0     C22871  -0.157   6.145   6.426 -0.2295 -0.3785  0.1991
  170MOL0     C22872  -0.244   6.112   6.533  0.4627 -0.4811  0.1366
  170MOL0     O22873  -0.380   6.130   6.511 -0.8123  0.1041  0.3371
  170MOL0     C22874  -0.471   6.112   6.630 -0.7636  0.2288  0.3681
  170MOL0     C22875  -0.603   6.146   6.580 -0.3187  0.2403  0.3106
  170MOL0     C22876  -0.717   6.123   6.686  0.2665 -0.4779 -0.6272
  170MOL0     C22877  -0.854   6.142   6.619 -0.2163  0.7034 -1.4164
  170MOL0     C22878  -0.877   6.049   6.505 -0.4269 -0.0907 -0.0299
  170MOL0     C22879  -0.908   5.987   6.404  0.0844  0.4769 -0.6020
  170MOL0     C22880  -0.186   6.082   6.657 -0.1793  0.0458 -1.2519
  170MOL0     C22881  -0.047   6.069   6.678  0.6396 -0.2938  0.8871
  170MOL0     C22882   0.007   6.033   6.818 -0.0406 -0.1029 -0.9374
  170MOL0     H22883   0.418   5.856   6.560 -0.6993  0.8141 -0.1289
  170MOL0     H22884   0.648   5.883   6.553  1.6057  1.9375 -0.4817
  170MOL0     H22885   0.862   5.922   6.597 -1.5424  0.8400 -0.4820
  170MOL0     H22886   0.826   6.058   6.494  0.3451 -0.2452 -0.6455
  170MOL0     H22887   1.048   6.167   6.551  2.4414 -0.0172  0.5617
  170MOL0     H22888   1.068   5.995   6.529  0.3228  0.7065 -1.0816
  170MOL0     H22889   1.049   5.985   6.794 -0.4007 -0.1622 -0.1355
  170MOL0     H22890   1.033   6.160   6.794 -2.3294 -2.0915  0.8232
  170MOL0     H22891   1.259   5.986   6.686 -0.0751 -0.1567  0.3313
  170MOL0     H22892   1.258   6.141   6.636 -2.3242 -0.5460 -1.4060
  170MOL0     H22893   1.418   6.118   6.828  0.3140  2.8514  0.2469
  170MOL0     H22894   1.279   6.213   6.893 -1.4972 -2.2873  2.8040
  170MOL0     H22895   1.188   5.991   6.971 -0.1453 -3.2623 -1.9172
  170MOL0     H22896   1.344   5.922   6.941  0.3911  0.5815 -1.0260
  170MOL0     H22897   1.299   5.991   7.176 -2.7021 -0.2303 -0.6282
  170MOL0     H22898   1.301   6.160   7.132  3.8513  1.9489 -0.4878
  170MOL0     H22899   1.539   5.985   7.071  3.3096  0.6425  1.5347
  170MOL0     H22900   1.515   6.154   7.031  0.3510 -0.7033 -0.2260
  170MOL0     H22901   1.396   6.037   7.390  0.9066 -1.0393  0.4958
  170MOL0     H22902   1.529   6.175   7.652 -1.2886 -0.9465  0.8374
  170MOL0     H22903   1.528   6.004   7.626 -2.4597  2.2617 -0.6657
  170MOL0     H22904   1.789   6.010   7.675 -0.0631  0.1836  0.9821
  170MOL0     H22905   1.781   6.184   7.630  1.5608 -0.8916 -0.8116
  170MOL0     H22906   1.653   6.062   7.879 -1.3346 -1.1160 -2.5272
  170MOL0     H22907   1.658   6.233   7.845 -2.6314 -1.1023 -0.9841
  170MOL0     H22908   1.833   6.184   8.002 -0.2227 -0.9789  0.6662
  170MOL0     H22909   1.916   6.191   7.835 -0.8542  0.7227 -0.2281
  170MOL0     H22910   2.034   6.170   8.064 -0.0879 -0.1085 -1.6511
  170MOL0     H22911   2.272   6.141   8.128  1.7538 -0.0278 -0.6237
  170MOL0     H22912   2.542   5.896   8.375  1.5329 -1.2547  0.1776
  170MOL0     H22913   2.757   5.888   8.489 -0.5525  1.4798  0.4204
  170MOL0     H22914   2.988   5.882   8.565  2.3308 -0.2338  0.5252
  170MOL0     H22915   2.970   5.784   8.418  0.3073 -0.5214 -0.3099
  170MOL0     H22916   3.190   5.843   8.348 -2.6915 -0.6039 -1.0055
  170MOL0     H22917   3.219   5.930   8.506  1.1648 -0.4405 -0.0351
  170MOL0     H22918   3.219   5.729   8.629 -0.0931  1.7570 -0.6980
  170MOL0     H22919   3.157   5.629   8.486  0.7697  0.4275 -0.6871
  170MOL0     H22920   3.419   5.776   8.489  0.0202  0.6676 -2.8240
  170MOL0     H22921   3.358   5.667   8.365  0.8335 -2.0385  0.0370
  170MOL0     H22922   3.369   5.482   8.514 -0.9901  0.4491  0.2514
  170MOL0     H22923   3.374   5.582   8.655 -1.1284  0.0342 -0.0576
  170MOL0     H22924   3.595   5.573   8.442  1.2714 -0.5668  1.0739
  170MOL0     H22925   3.613   5.664   8.592  0.0882 -0.1904 -1.2541
  170MOL0     H22926   3.585   5.367   8.578 -0.2959  0.3478 -0.3525
  170MOL0     H22927   3.579   5.456   8.731  1.6317  3.7801  0.9137
  170MOL0     H22928   3.807   5.354   8.674  3.2798 -0.1490 -2.5255
  170MOL0     H22929   3.817   5.458   8.542 -0.8580 -1.5120 -0.9691
  170MOL0     H22930   2.924   6.147   8.196 -0.2277  1.8432  3.4956
  170MOL0     H22931   2.707   6.161   8.076  2.1013  0.4494  0.4609
  170MOL0     H22932   2.308   5.774   7.947  1.8549  0.7789 -1.3482
  170MOL0     H22933   2.061   5.804   7.843 -2.0727 -1.9720  1.9524
  170MOL0     H22934   0.622   6.207   6.835 -1.6027 -0.2705  2.4861
  170MOL0     H22935   0.378   6.190   6.829 -1.6383  1.0444 -2.0849
  170MOL0     H22936   0.038   6.168   6.352  0.6154 -1.0545 -1.0881
  170MOL0     H22937  -0.192   6.167   6.325 -0.2137  1.3734  0.5490
  170MOL0     H22938  -0.442   6.188   6.704  0.3448  1.7143 -1.5017
  170MOL0     H22939  -0.449   6.011   6.664  3.8846  0.9283  0.0921
  170MOL0     H22940  -0.620   6.079   6.495  1.3828  0.0464  0.0855
  170MOL0     H22941  -0.609   6.250   6.545  0.2636  0.7986  1.8293
  170MOL0     H22942  -0.695   6.190   6.769 -0.2421  1.8944 -2.3061
  170MOL0     H22943  -0.716   6.020   6.724  0.5023 -0.3243 -0.2185
  170MOL0     H22944  -0.936   6.124   6.689 -0.1728 -0.7154 -1.7148
  170MOL0     H22945  -0.863   6.245   6.584  0.6683  1.1494 -0.3981
  170MOL0     H22946  -0.946   5.923   6.327  0.0208 -1.7271  1.1483
  170MOL0     H22947  -0.245   6.058   6.745  0.6043 -1.6542 -1.1413
  170MOL0     H22948   0.061   6.116   6.864  2.5156 -0.6413 -2.7716
  170MOL0     H22949  -0.081   6.010   6.878 -0.1349  0.8538 -0.6904
  170MOL0     H22950   0.074   5.947   6.825  1.0119  0.5810 -2.1813
  171MOL0     O22951   1.884   4.106  10.743 -0.1083 -0.0475 -0.2115
  171MOL0     C22952   1.761   4.096  10.754 -0.1939 -0.5245  0.3260
  171MOL0     O22953   1.691   4.090  10.876 -0.9626  0.7668 -0.0628
  171MOL0     C22954   1.773   4.106  10.991  0.4912  0.1098 -0.3956
  171MOL0     C22955   1.725   4.201  11.086  0.6623 -0.1935 -0.4136
  171MOL0     C22956   1.807   4.231  11.190  0.2265  0.7795 -1.2649
  171MOL0     C22957   1.926   4.165  11.216  0.1193 -0.4446 -0.0132
  171MOL0     O22958   1.983   4.205  11.330 -0.3670 -0.6706  0.3355
  171MOL0     C22959   2.106   4.164  11.378  0.2732  0.1751 -0.0306
  171MOL0     C22960   2.222   4.258  11.339 -0.2382 -0.1833  0.3994
  171MOL0     C22961   2.356   4.216  11.413 -0.1683 -0.4157  0.2753
  171MOL0     C22962   2.454   4.132  11.342  0.0291  0.3209  0.5781
  171MOL0     C22963   2.558   4.055  11.427 -0.2204 -0.0863 -0.2472
  171MOL0     C22964   2.677   4.000  11.347  1.0160  0.0258  0.1525
  171MOL0     C22965   2.783   4.109  11.328 -0.3298  0.3013  0.8872
  171MOL0     C22966   2.849   4.162  11.454  0.2634  0.0978 -0.3926
  171MOL0     N22967   2.928   4.056  11.518 -0.4032 -0.3130 -0.5294
  171MOL0     C22968   2.893   3.947  11.596 -0.1556 -0.3445 -0.1040
  171MOL0     C22969   3.004   3.905  11.648 -1.2424  0.1976 -0.1905
  171MOL0     C22970   3.008   3.794  11.746 -0.3703 -0.5564  0.0555
  171MOL0     C22971   2.999   3.656  11.684 -1.1812  0.5618 -0.0335
  171MOL0     C22972   2.968   3.545  11.781  0.1111 -0.4665  0.0658
  171MOL0     C22973   3.104   3.467  11.828  0.9476  0.0393 -0.1876
  171MOL0     O22974   3.190   3.582  11.857  0.1345  0.0691 -0.5418
  171MOL0     C22975   3.312   3.560  11.913  0.5319  0.3194 -0.2961
  171MOL0     C22976   3.385   3.671  11.946 -0.6060 -0.2414  0.9260
  171MOL0     C22977   3.516   3.653  11.998  0.7932 -0.0410 -0.5338
  171MOL0     C22978   3.562   3.522  12.034  0.3721 -0.8608 -1.0531
  171MOL0     C22979   3.691   3.495  12.098 -0.2977  0.1221 -0.3799
  171MOL0     O22980   3.781   3.591  12.089 -0.3059 -0.5013 -0.6587
  171MOL0     C22981   3.900   3.580  12.152 -0.4466 -0.4038 -0.1077
  171MOL0     C22982   3.914   3.526  12.283  0.1928  0.1773  0.2790
  171MOL0     C22983   4.043   3.508  12.339  0.1152 -0.0744 -0.6538
  171MOL0     C22984   4.160   3.537  12.264  0.1509 -0.5958 -0.0059
  171MOL0     O22985   4.269   3.484  12.310 -0.8851 -0.0362  0.0845
  171MOL0     C22986   4.392   3.552  12.288 -0.2712 -0.1173 -0.5759
  171MOL0     C22987   4.502   3.485  12.372  0.5429 -0.3690 -0.0070
  171MOL0     C22988   4.641   3.543  12.358  0.1071 -0.3817 -1.0825
  171MOL0     C22989   4.699   3.515  12.216  0.9077 -0.6966 -0.4087
  171MOL0     C22990   4.716   3.370  12.180  0.3383 -0.1071  0.6449
  171MOL0     C22991   4.823   3.285  12.253 -0.3718 -0.5718  0.1240
  171MOL0     C22992   4.962   3.349  12.237  0.2945 -0.1000  0.1328
  171MOL0     C22993   5.062   3.250  12.297 -0.0610 -0.7914  0.9647
  171MOL0    Cl22994   5.225   3.259  12.214 -0.2746 -0.0373  0.1526
  171MOL0     C22995   4.141   3.603  12.136 -0.1186 -0.5803  0.5757
  171MOL0     C22996   4.016   3.623  12.087  0.2739 -0.1376  0.9036
  171MOL0     O22997   3.709   3.388  12.159 -0.1063 -0.0178 -0.2568
  171MOL0     C22998   3.483   3.418  11.991  0.0332  0.5828  0.3984
  171MOL0     C22999   3.361   3.431  11.933 -0.1422 -0.3463  0.8675
  171MOL0     N23000   3.110   3.988  11.613 -0.8430  0.2506 -0.1211
  171MOL0     N23001   3.058   4.079  11.535 -0.5051 -0.4254 -0.6445
  171MOL0     C23002   1.967   4.066  11.127 -0.4014 -0.7357 -0.4267
  171MOL0     C23003   1.886   4.027  11.020  0.2168  0.4405  0.1923
  171MOL0     C23004   1.680   4.088  10.630 -0.2654  0.0533  0.3620
  171MOL0     C23005   1.541   4.064  10.653 -0.5055  0.2447  0.0577
  171MOL0     C23006   1.457   4.052  10.548 -0.2131 -0.3449  0.4812
  171MOL0     C23007   1.498   4.083  10.418  0.2750  0.0396 -0.6184
  171MOL0     O23008   1.418   4.073  10.313  0.3478  0.7405  0.0916
  171MOL0     C23009   1.420   3.939  10.254 -0.0953 -0.6067  0.2520
  171MOL0     C23010   1.449   3.961  10.100  0.2329 -0.7519  0.5253
  171MOL0     C23011   1.327   4.007  10.022  0.5583  1.1713  0.9039
  171MOL0     C23012   1.252   4.132  10.084 -0.4769 -0.0080  0.3679
  171MOL0     C23013   1.140   4.164   9.993 -0.5775 -0.2895 -0.6388
  171MOL0     C23014   1.037   4.176   9.921  0.5787  0.0201 -0.5800
  171MOL0     C23015   1.627   4.120  10.397 -0.3134  0.0088  0.5365
  171MOL0     C23016   1.729   4.125  10.500  0.3283 -0.5023 -0.2307
  171MOL0     C23017   1.867   4.176  10.467 -0.0393  0.5569 -0.3944
  171MOL0     H23018   1.622   4.235  11.074  0.6914  0.3996  0.8449
  171MOL0     H23019   1.755   4.304  11.250 -1.7300  0.7209 -2.7923
  171MOL0     H23020   2.102   4.160  11.487 -1.3586  1.5800  0.0022
  171MOL0     H23021   2.127   4.062  11.344  1.5621  0.8065 -1.2142
  171MOL0     H23022   2.195   4.362  11.359  0.3976  0.3343 -1.3092
  171MOL0     H23023   2.234   4.258  11.231 -0.5793 -0.9455  0.3495
  171MOL0     H23024   2.331   4.163  11.506  2.0500 -1.5648  0.3013
  171MOL0     H23025   2.414   4.303  11.442  0.7512 -0.9139 -0.0191
  171MOL0     H23026   2.397   4.050  11.295 -0.0163 -0.9966  2.7867
  171MOL0     H23027   2.513   4.193  11.273  2.4474 -2.7633 -0.3288
  171MOL0     H23028   2.589   4.119  11.510 -0.4401  0.9078 -0.9233
  171MOL0     H23029   2.495   3.982  11.480  1.1556 -0.0899  1.4964
  171MOL0     H23030   2.722   3.915  11.399 -0.2747  1.5249  4.1254
  171MOL0     H23031   2.632   3.969  11.253 -0.0784  2.3940 -0.1720
  171MOL0     H23032   2.742   4.197  11.277  2.0245  0.6390 -0.5743
  171MOL0     H23033   2.856   4.070  11.257 -1.5552  0.4158 -0.4904
  171MOL0     H23034   2.918   4.242  11.426  1.2030 -0.1981  0.9518
  171MOL0     H23035   2.782   4.200  11.532  0.8964 -1.6879  1.1181
  171MOL0     H23036   2.797   3.901  11.616 -0.7688  0.6960 -0.5326
  171MOL0     H23037   3.101   3.811  11.802  0.2564 -1.5591 -0.6387
  171MOL0     H23038   2.924   3.803  11.815 -1.4166 -0.3728 -1.2277
  171MOL0     H23039   2.917   3.652  11.611  0.1104  1.3282 -1.6104
  171MOL0     H23040   3.093   3.639  11.631 -1.4670 -0.5413 -0.2016
  171MOL0     H23041   2.902   3.471  11.735 -0.4132  0.1011 -0.0966
  171MOL0     H23042   2.918   3.593  11.865 -1.0501  2.2690 -2.0348
  171MOL0     H23043   3.142   3.406  11.745 -2.6343  2.0984 -3.7025
  171MOL0     H23044   3.076   3.405  11.914  0.3726  0.8193  0.2003
  171MOL0     H23045   3.340   3.768  11.930 -1.6628 -0.7716  0.6117
  171MOL0     H23046   3.580   3.740  12.008 -0.4627  0.8286  0.2476
  171MOL0     H23047   3.829   3.492  12.342  1.9350 -2.8031  1.3413
  171MOL0     H23048   4.052   3.457  12.434 -1.1465  0.4553 -0.2327
  171MOL0     H23049   4.419   3.545  12.183  0.0094 -3.9028 -0.3932
  171MOL0     H23050   4.382   3.660  12.305 -0.6120  0.4517 -3.7640
  171MOL0     H23051   4.467   3.492  12.475  0.2185  3.0485 -0.2216
  171MOL0     H23052   4.504   3.377  12.358  0.8106 -0.2766 -0.7573
  171MOL0     H23053   4.628   3.648  12.384 -1.2745 -0.2805 -2.0205
  171MOL0     H23054   4.709   3.492  12.427  1.6277  1.7375 -0.9259
  171MOL0     H23055   4.798   3.558  12.201  0.7659 -0.3377 -0.3289
  171MOL0     H23056   4.631   3.563  12.145 -0.3374 -0.8673  0.6259
  171MOL0     H23057   4.731   3.375  12.072 -2.0532  0.7265  0.2883
  171MOL0     H23058   4.618   3.321  12.188  1.2283 -1.9409  0.8549
  171MOL0     H23059   4.799   3.285  12.359 -0.9308 -0.5162 -0.0012
  171MOL0     H23060   4.834   3.181  12.223  1.2590 -0.8916  1.7055
  171MOL0     H23061   4.960   3.444  12.292  0.1050 -0.2609  0.4093
  171MOL0     H23062   4.983   3.375  12.133 -5.2901 -1.0744 -1.6001
  171MOL0     H23063   5.084   3.278  12.401  0.4787  2.5097  0.0988
  171MOL0     H23064   5.025   3.147  12.292 -2.5877 -0.1349  3.4823
  171MOL0     H23065   4.222   3.638  12.073  1.3956 -1.8898  1.6897
  171MOL0     H23066   3.998   3.671  11.991 -1.5621 -1.1348  0.6992
  171MOL0     H23067   3.515   3.315  12.005 -1.8174 -0.2107 -0.8538
  171MOL0     H23068   3.309   3.338  11.913  1.1820 -0.9706  0.1488
  171MOL0     H23069   2.060   4.013  11.145  0.1582 -0.2019 -1.6108
  171MOL0     H23070   1.918   3.949  10.951  1.5248 -0.1989  1.4556
  171MOL0     H23071   1.504   4.042  10.752 -0.6121 -2.6671 -0.5235
  171MOL0     H23072   1.353   4.024  10.559 -0.6785  1.3297  0.6259
  171MOL0     H23073   1.322   3.894  10.272 -0.2874 -0.6392 -0.8169
  171MOL0     H23074   1.503   3.882  10.298 -1.2837 -3.0980 -0.5741
  171MOL0     H23075   1.477   3.862  10.061  0.3229  0.8397 -3.9478
  171MOL0     H23076   1.539   4.022  10.090  1.0879 -1.8476  1.1947
  171MOL0     H23077   1.251   3.929  10.015  0.1208  1.5731  1.1088
  171MOL0     H23078   1.353   4.022   9.917 -0.1137  0.0181  0.5454
  171MOL0     H23079   1.214   4.122  10.186 -2.6707  0.8332 -0.2975
  171MOL0     H23080   1.322   4.215  10.077  0.8678 -1.0244  1.1712
  171MOL0     H23081   0.949   4.203   9.866 -0.0589  1.7232  1.1280
  171MOL0     H23082   1.657   4.145  10.295  2.6148 -2.1231  0.7369
  171MOL0     H23083   1.940   4.096  10.484 -1.4763 -1.4193 -2.7286
  171MOL0     H23084   1.870   4.205  10.361 -2.0547  1.0648 -0.3502
  171MOL0     H23085   1.896   4.265  10.523 -2.0699  0.1291  1.4740
  172MOL0     O23086  11.198   0.901   7.771 -0.3678  0.1506  0.1891
  172MOL0     C23087  11.113   0.820   7.742 -0.1020 -0.1694  0.3629
  172MOL0     O23088  11.118   0.722   7.652 -0.2343  0.3300  0.6075
  172MOL0     C23089  11.237   0.693   7.593 -0.4945  0.0394  0.5561
  172MOL0     C23090  11.246   0.669   7.458  0.2192 -0.0451  0.5202
  172MOL0     C23091  11.364   0.641   7.393 -0.7338  0.8056  0.7304
  172MOL0     C23092  11.481   0.629   7.470  0.6910  0.5885 -1.0960
  172MOL0     O23093  11.596   0.594   7.402 -0.0811  0.1769 -0.2732
  172MOL0     C23094  11.717   0.576   7.481  0.4595 -0.5753  0.3763
  172MOL0     C23095  11.806   0.500   7.388  0.0544  0.7786 -0.0708
  172MOL0     C23096  11.927   0.428   7.457  0.3214  0.2134 -0.2039
  172MOL0     C23097  12.059   0.473   7.393 -0.1559  0.2765  0.3555
  172MOL0     C23098  12.177   0.370   7.400  0.1675  0.3157 -0.7253
  172MOL0     C23099  12.288   0.397   7.288  0.3473 -0.1926  0.0762
  172MOL0     C23100  12.333   0.545   7.281 -0.6055 -0.5404  0.1721
  172MOL0     C23101  12.405   0.602   7.404  0.2711 -0.4178  0.1122
  172MOL0     N23102  12.523   0.528   7.441 -0.1905  0.1422  0.4426
  172MOL0     C23103  12.649   0.556   7.384  0.7932 -0.0348 -0.2129
  172MOL0     C23104  12.741   0.489   7.458  0.4098  0.7329 -0.2944
  172MOL0     C23105  12.894   0.491   7.428  1.2344 -0.3117 -0.2288
  172MOL0     C23106  12.940   0.628   7.372 -0.0968 -0.4399 -0.4680
  172MOL0     C23107  13.095   0.639   7.360 -0.5547  0.4376 -0.1188
  172MOL0     C23108  13.171   0.536   7.277  0.1128  1.1183 -0.0679
  172MOL0     O23109  13.307   0.567   7.253 -0.7558 -0.4529 -0.0527
  172MOL0     C23110  13.396   0.459   7.237  0.3341 -0.2520 -0.2624
  172MOL0     C23111  13.515   0.464   7.305 -0.3518  0.3506 -0.4069
  172MOL0     C23112  13.606   0.358   7.299 -0.6957  0.2194 -0.3944
  172MOL0     C23113  13.582   0.240   7.222 -0.0111  0.0992 -0.4773
  172MOL0     C23114  13.672   0.123   7.216 -0.0325 -0.5694  0.0878
  172MOL0     O23115  13.779   0.131   7.301 -0.0265  0.2533 -0.6081
  172MOL0     C23116  13.885   0.048   7.313  0.5768  0.7523 -0.4369
  172MOL0     C23117  13.963   0.082   7.419 -0.4582  0.1614  1.1493
  172MOL0     C23118  14.065  -0.000   7.470 -0.6067  1.1709  1.0626
  172MOL0     C23119  14.092  -0.127   7.411  0.2385 -0.0919  0.4739
  172MOL0     O23120  14.206  -0.196   7.448 -0.4818 -0.4902 -0.1796
  172MOL0     C23121  14.205  -0.337   7.435  0.0530  0.2226 -0.6324
  172MOL0     C23122  14.325  -0.385   7.518 -0.7752  0.8184  0.0147
  172MOL0     C23123  14.464  -0.350   7.463 -0.5088  0.2638  0.0720
  172MOL0     C23124  14.525  -0.214   7.493 -0.3639 -0.2580  0.0367
  172MOL0     C23125  14.505  -0.179   7.640 -0.3868 -0.7925 -0.6272
  172MOL0     C23126  14.590  -0.052   7.677  0.7721 -0.0637 -1.6437
  172MOL0     C23127  14.570   0.065   7.586  0.0238  0.6036  0.0788
  172MOL0     C23128  14.612   0.196   7.646  0.0507 -0.4118  0.7669
  172MOL0    Cl23129  14.788   0.193   7.628  0.0475  0.3446 -0.1987
  172MOL0     C23130  14.002  -0.165   7.310 -0.3011 -0.2515  0.0862
  172MOL0     C23131  13.904  -0.081   7.253  1.4558  0.0651 -0.2247
  172MOL0     O23132  13.646   0.026   7.149  0.3833 -0.6827  0.1704
  172MOL0     C23133  13.457   0.240   7.157  0.3024  0.0443  0.6380
  172MOL0     C23134  13.373   0.349   7.156 -0.1613 -0.1734  0.7072
  172MOL0     N23135  12.670   0.422   7.559 -0.2093  0.2159 -0.3665
  172MOL0     N23136  12.545   0.452   7.556  0.7313  0.5668 -1.0504
  172MOL0     C23137  11.467   0.646   7.608  0.2229  0.6052  0.5939
  172MOL0     C23138  11.350   0.676   7.670  0.4019 -0.5432  1.0307
  172MOL0     C23139  10.975   0.867   7.784 -0.0413 -0.1826 -0.4905
  172MOL0     C23140  10.882   0.848   7.687 -0.3079  0.4812 -0.6219
  172MOL0     C23141  10.751   0.887   7.704 -0.0449  0.5610  0.6859
  172MOL0     C23142  10.705   0.951   7.817  0.2725 -0.5010  0.0923
  172MOL0     O23143  10.574   0.979   7.823  0.2195  0.4416 -0.6679
  172MOL0     C23144  10.529   1.042   7.944 -0.7409  0.2416 -0.1452
  172MOL0     C23145  10.381   1.083   7.922  0.4603  0.4359  0.4865
  172MOL0     C23146  10.296   0.956   7.942 -0.4135  0.0904 -0.2422
  172MOL0     C23147  10.162   0.989   7.903 -0.3552  0.5137  0.5267
  172MOL0     C23148  10.085   0.867   7.930 -0.3403 -1.0034  0.0972
  172MOL0     C23149  10.016   0.776   7.972  0.5909 -0.0524 -0.1627
  172MOL0     C23150  10.804   0.976   7.920 -0.4070  0.2185 -0.2115
  172MOL0     C23151  10.939   0.930   7.907  0.5658  0.0954 -0.4654
  172MOL0     C23152  11.038   0.947   8.024  0.2738 -0.0373  0.8897
  172MOL0     H23153  11.156   0.683   7.400  0.7855 -1.3828 -0.7384
  172MOL0     H23154  11.374   0.623   7.287  1.3146  1.3520  0.7855
  172MOL0     H23155  11.758   0.673   7.507 -1.9933  0.3086  1.1975
  172MOL0     H23156  11.697   0.511   7.566 -0.7832 -3.0927 -1.6672
  172MOL0     H23157  11.842   0.554   7.300  1.0612 -0.5538 -0.5128
  172MOL0     H23158  11.757   0.410   7.348  2.6540 -0.3396 -0.9158
  172MOL0     H23159  11.915   0.319   7.460  0.4044  0.2239  1.9808
  172MOL0     H23160  11.936   0.452   7.563 -0.2682  3.7034 -0.8487
  172MOL0     H23161  12.047   0.493   7.286  1.0964 -2.0085 -0.2817
  172MOL0     H23162  12.089   0.568   7.438  2.9837 -0.2693 -0.3939
  172MOL0     H23163  12.223   0.390   7.497  0.5030 -1.7061 -0.4100
  172MOL0     H23164  12.151   0.263   7.403  3.0527 -0.4492 -0.0231
  172MOL0     H23165  12.378   0.335   7.295  2.1915  2.2087 -0.9385
  172MOL0     H23166  12.232   0.381   7.195 -1.6343  2.0225  0.7905
  172MOL0     H23167  12.246   0.611   7.274 -1.4959 -1.4917  1.6342
  172MOL0     H23168  12.393   0.560   7.190 -1.1807  0.3490 -0.0756
  172MOL0     H23169  12.417   0.708   7.380 -1.2663 -0.2492  0.0223
  172MOL0     H23170  12.331   0.604   7.484  0.3217 -0.2843  0.1563
  172MOL0     H23171  12.679   0.612   7.296  3.1643 -0.5942  0.1753
  172MOL0     H23172  12.952   0.466   7.518  2.2929  0.6534 -0.6089
  172MOL0     H23173  12.915   0.415   7.352 -0.3447 -1.6498  0.6105
  172MOL0     H23174  12.891   0.645   7.276  0.9173 -0.9696 -1.1074
  172MOL0     H23175  12.901   0.708   7.436  2.3093  1.3164 -1.0267
  172MOL0     H23176  13.136   0.620   7.459  2.4140 -1.9788 -1.6359
  172MOL0     H23177  13.119   0.741   7.328 -2.8668  1.1935  0.3333
  172MOL0     H23178  13.119   0.526   7.181 -0.2204 -0.6549  0.2623
  172MOL0     H23179  13.175   0.439   7.327  0.7459  1.2140  0.0724
  172MOL0     H23180  13.545   0.550   7.364 -0.8099 -0.3911  0.9592
  172MOL0     H23181  13.691   0.371   7.365 -3.1516 -1.0856  3.4011
  172MOL0     H23182  13.952   0.181   7.462  0.2917 -0.3931  2.7195
  172MOL0     H23183  14.142   0.042   7.534 -0.1951  2.2700 -0.1077
  172MOL0     H23184  14.107  -0.366   7.475 -0.8148  5.2522  1.7386
  172MOL0     H23185  14.207  -0.375   7.332 -1.1106 -0.0988 -0.5523
  172MOL0     H23186  14.305  -0.362   7.623  3.6950  1.9347  0.8319
  172MOL0     H23187  14.321  -0.494   7.515  1.8900  0.6478 -0.1411
  172MOL0     H23188  14.541  -0.424   7.487  0.4175  0.3993 -2.2061
  172MOL0     H23189  14.452  -0.367   7.355  0.3622 -3.4746  0.4302
  172MOL0     H23190  14.474  -0.138   7.433 -2.3095 -0.5340  1.2443
  172MOL0     H23191  14.630  -0.218   7.462 -0.0896  4.9903 -0.6595
  172MOL0     H23192  14.536  -0.260   7.707 -0.6898  0.0328  0.5232
  172MOL0     H23193  14.401  -0.154   7.661  0.0938  0.5688  0.2927
  172MOL0     H23194  14.569  -0.027   7.781  0.7805 -0.7801 -1.4622
  172MOL0     H23195  14.695  -0.083   7.682  0.2684 -1.6581 -0.0181
  172MOL0     H23196  14.463   0.058   7.568 -0.3458 -1.5331  2.6014
  172MOL0     H23197  14.621   0.050   7.490 -1.4794  0.5399 -0.7333
  172MOL0     H23198  14.566   0.278   7.591 -1.7293 -1.4923  0.5416
  172MOL0     H23199  14.583   0.203   7.752 -4.1325  0.2682 -0.2351
  172MOL0     H23200  14.004  -0.269   7.278 -0.3881 -0.6909  1.4543
  172MOL0     H23201  13.840  -0.123   7.176  3.1596 -0.8089 -1.2286
  172MOL0     H23202  13.411   0.154   7.108 -1.8121 -0.9465  4.0090
  172MOL0     H23203  13.272   0.348   7.115 -0.2041  1.2696  0.7271
  172MOL0     H23204  11.558   0.636   7.666  2.0352 -1.3868 -2.3515
  172MOL0     H23205  11.361   0.716   7.771  1.5200  1.1797  0.2634
  172MOL0     H23206  10.900   0.802   7.590  1.4113  1.5907 -0.8633
  172MOL0     H23207  10.677   0.876   7.626  0.5834  1.2911 -0.0323
  172MOL0     H23208  10.588   1.132   7.965  3.2293 -2.1133 -0.2138
  172MOL0     H23209  10.539   0.979   8.032 -0.4946  1.2773  0.5910
  172MOL0     H23210  10.363   1.132   7.826 -1.3762  2.3200  1.7157
  172MOL0     H23211  10.362   1.158   7.998  3.0438  1.2408  0.4416
  172MOL0     H23212  10.301   0.913   8.043  1.3804  1.6398  0.4003
  172MOL0     H23213  10.326   0.874   7.876  1.2058  0.2352  0.2727
  172MOL0     H23214  10.126   1.078   7.955 -0.4002  0.5120  0.4971
  172MOL0     H23215  10.158   0.999   7.794  1.2979 -3.2938 -0.0413
  172MOL0     H23216   9.953   0.698   8.009  2.3620 -2.5876 -2.1174
  172MOL0     H23217  10.778   1.023   8.015  1.3599  0.9625 -0.0679
  172MOL0     H23218  10.992   0.981   8.117 -1.8983 -2.2657  0.7185
  172MOL0     H23219  11.071   0.848   8.054 -1.4830 -0.3122  2.0341
  172MOL0     H23220  11.118   1.012   7.986 -1.1488  0.2639 -1.9210
  173MOL0     O23221   5.277   5.538   8.447  0.2015  0.7434 -0.1077
  173MOL0     C23222   5.242   5.441   8.510 -0.6634  0.6321  0.4796
  173MOL0     O23223   5.312   5.320   8.506 -0.1001  0.1787 -0.6120
  173MOL0     C23224   5.414   5.302   8.417  0.1132  1.0859  0.3424
  173MOL0     C23225   5.540   5.356   8.447  0.3625 -1.1157 -0.2078
  173MOL0     C23226   5.652   5.345   8.355  0.2607 -0.2903 -1.3041
  173MOL0     C23227   5.644   5.279   8.235  0.8939  0.4978 -0.1376
  173MOL0     O23228   5.734   5.269   8.139  0.2309 -0.7358  0.4997
  173MOL0     C23229   5.847   5.361   8.139  0.1255 -0.2937 -0.2929
  173MOL0     C23230   5.938   5.354   8.013 -0.4966  0.7795 -0.0436
  173MOL0     C23231   6.042   5.458   8.009 -0.2115  0.5496  0.5118
  173MOL0     C23232   6.134   5.462   7.884  0.7509  0.4497  0.0871
  173MOL0     C23233   6.256   5.554   7.885 -0.1347 -0.1741  0.5560
  173MOL0     C23234   6.353   5.528   8.005  0.6512  0.1269  0.4292
  173MOL0     C23235   6.478   5.617   7.987 -0.7031  0.0566 -0.3460
  173MOL0     C23236   6.581   5.562   7.881 -0.2685 -0.0573 -0.2052
  173MOL0     N23237   6.726   5.617   7.881  1.0606 -0.8868  0.3972
  173MOL0     C23238   6.828   5.571   7.805  0.3913 -0.7854 -0.0271
  173MOL0     C23239   6.919   5.664   7.820 -1.0545  0.1529 -0.1449
  173MOL0     C23240   7.051   5.677   7.750  0.3026  0.1110 -0.0608
  173MOL0     C23241   7.171   5.647   7.845  0.1357  0.2957 -0.3678
  173MOL0     C23242   7.301   5.675   7.772  0.9080  0.3847 -0.4895
  173MOL0     C23243   7.428   5.643   7.844 -0.0855  1.0661  0.7313
  173MOL0     O23244   7.533   5.675   7.747  0.2635 -0.0923  0.0602
  173MOL0     C23245   7.658   5.613   7.775  1.1382 -0.6810 -0.6924
  173MOL0     C23246   7.692   5.478   7.749  0.2259 -0.0365 -0.4102
  173MOL0     C23247   7.807   5.424   7.807 -0.4878  0.2393  0.7081
  173MOL0     C23248   7.897   5.506   7.883 -0.8050 -0.5798  0.4724
  173MOL0     C23249   8.022   5.450   7.933 -0.1545 -0.4602  0.3186
  173MOL0     O23250   8.048   5.323   7.905  0.7563 -0.1581 -0.2387
  173MOL0     C23251   8.176   5.278   7.935  0.7850 -0.0862  0.3111
  173MOL0     C23252   8.205   5.228   8.062 -0.3645  0.2834  0.5473
  173MOL0     C23253   8.339   5.194   8.093 -0.5913 -0.3512  0.6081
  173MOL0     C23254   8.439   5.201   7.995 -0.4842  0.2453  0.0696
  173MOL0     O23255   8.574   5.182   8.020 -0.1991  0.3361  0.1720
  173MOL0     C23256   8.626   5.132   8.142 -0.2154 -0.1703  0.5847
  173MOL0     C23257   8.772   5.140   8.126  0.0150 -0.3434  0.3970
  173MOL0     C23258   8.828   5.272   8.160  0.3582  0.0922 -0.6208
  173MOL0     C23259   8.776   5.393   8.083 -0.1266  0.4035  0.0531
  173MOL0     C23260   8.800   5.382   7.931 -1.3858  0.8669  0.4004
  173MOL0     C23261   8.755   5.508   7.852  0.3978  0.0458  0.7548
  173MOL0     C23262   8.746   5.473   7.706 -0.1963 -0.8962 -0.8916
  173MOL0     C23263   8.682   5.593   7.634  0.3944 -0.5901  1.0342
  173MOL0    Cl23264   8.787   5.739   7.612  0.0666  0.4170 -0.9964
  173MOL0     C23265   8.405   5.238   7.857 -1.0348  0.9846 -0.9004
  173MOL0     C23266   8.272   5.278   7.830 -0.5204 -0.2583  0.9272
  173MOL0     O23267   8.099   5.524   7.990 -0.2151 -0.3290  0.4503
  173MOL0     C23268   7.861   5.639   7.905 -0.2853 -0.4820  0.2595
  173MOL0     C23269   7.748   5.691   7.854  0.2161  1.0074 -0.0622
  173MOL0     N23270   6.869   5.768   7.902 -0.4566  0.2572  0.7613
  173MOL0     N23271   6.747   5.738   7.929 -0.5090 -0.6878  0.2202
  173MOL0     C23272   5.516   5.223   8.209  0.0780  0.3122 -0.2301
  173MOL0     C23273   5.408   5.229   8.297  0.2382  0.0442 -0.2275
  173MOL0     C23274   5.119   5.434   8.585  0.7488  0.0331 -0.6341
  173MOL0     C23275   5.069   5.306   8.633 -0.5119 -0.5205 -0.3787
  173MOL0     C23276   4.936   5.292   8.684 -0.3186  0.1460  0.4790
  173MOL0     C23277   4.854   5.402   8.717 -0.5216 -0.0290  0.2305
  173MOL0     O23278   4.740   5.381   8.786  0.0036  0.7859 -0.4253
  173MOL0     C23279   4.630   5.324   8.716 -0.9833 -0.5909 -0.7133
  173MOL0     C23280   4.569   5.424   8.615 -0.4118 -0.6336 -0.3326
  173MOL0     C23281   4.533   5.550   8.687  0.3913 -0.3302 -0.6218
  173MOL0     C23282   4.436   5.638   8.610 -0.1838  0.7623 -0.2370
  173MOL0     C23283   4.298   5.586   8.599 -0.0923  0.0713  0.3610
  173MOL0     C23284   4.189   5.529   8.583 -0.2578 -0.3856  0.2402
  173MOL0     C23285   4.904   5.527   8.673  0.2964  0.3461  0.0822
  173MOL0     C23286   5.029   5.551   8.603  0.4480  1.1573  0.2751
  173MOL0     C23287   5.060   5.683   8.550  0.3388  0.0662 -0.9837
  173MOL0     H23288   5.566   5.410   8.538 -0.0279  1.2428 -1.4151
  173MOL0     H23289   5.745   5.386   8.393 -1.0804 -0.1619  2.2807
  173MOL0     H23290   5.817   5.464   8.158 -0.6918 -0.7173  0.8096
  173MOL0     H23291   5.907   5.342   8.228  0.0530 -0.5571 -0.3000
  173MOL0     H23292   5.873   5.349   7.926 -2.2249  0.2860  1.2215
  173MOL0     H23293   5.989   5.257   8.017 -0.2744  0.7462 -2.3189
  173MOL0     H23294   6.100   5.460   8.101 -0.0585 -1.0178  0.4660
  173MOL0     H23295   5.989   5.554   8.014 -0.1810  0.6932 -1.2342
  173MOL0     H23296   6.167   5.358   7.883 -1.2666 -0.2439  0.1372
  173MOL0     H23297   6.086   5.481   7.787 -0.2969 -1.7761  0.0930
  173MOL0     H23298   6.313   5.533   7.794 -0.1508 -0.3761  0.5928
  173MOL0     H23299   6.224   5.659   7.887  1.3634  0.4010 -1.8134
  173MOL0     H23300   6.290   5.567   8.085 -1.5900  0.4797 -1.3969
  173MOL0     H23301   6.379   5.425   8.031  0.1152  0.4761  2.5440
  173MOL0     H23302   6.524   5.631   8.085  0.1468 -0.2372 -0.6935
  173MOL0     H23303   6.446   5.718   7.962 -0.4867 -0.0811 -1.2119
  173MOL0     H23304   6.592   5.457   7.909 -0.4410  0.1733  0.7597
  173MOL0     H23305   6.540   5.563   7.780 -1.1507 -4.6514 -0.1022
  173MOL0     H23306   6.834   5.481   7.744 -1.7358 -2.3005  1.8662
  173MOL0     H23307   7.051   5.598   7.675  0.1144  0.8108 -0.8054
  173MOL0     H23308   7.054   5.779   7.710 -4.5686  0.7171  0.5135
  173MOL0     H23309   7.176   5.698   7.942  1.5013  1.8949 -1.2347
  173MOL0     H23310   7.169   5.541   7.871 -0.7503  0.5361  0.6424
  173MOL0     H23311   7.298   5.779   7.737 -0.9595  1.2784  2.0125
  173MOL0     H23312   7.297   5.612   7.683 -0.1573 -0.3207  0.0434
  173MOL0     H23313   7.438   5.538   7.871  1.4936  0.4188 -1.9296
  173MOL0     H23314   7.447   5.706   7.931  2.2439  0.6544  0.5789
  173MOL0     H23315   7.625   5.418   7.689  1.7431 -2.3436  0.0557
  173MOL0     H23316   7.837   5.319   7.805 -0.6069  0.2057  0.6680
  173MOL0     H23317   8.124   5.214   8.133 -1.7274  1.9728 -0.6050
  173MOL0     H23318   8.352   5.161   8.196 -3.8697  1.7964  1.8581
  173MOL0     H23319   8.590   5.187   8.229 -3.0699  0.9433 -1.1371
  173MOL0     H23320   8.587   5.031   8.157 -1.2752  0.4118  1.9108
  173MOL0     H23321   8.819   5.064   8.189  1.3681 -0.7566 -1.0645
  173MOL0     H23322   8.796   5.116   8.022 -1.6443 -0.4832  0.0226
  173MOL0     H23323   8.816   5.284   8.268  0.5167 -2.9431 -0.1689
  173MOL0     H23324   8.937   5.258   8.159  0.2444 -0.9992  0.2728
  173MOL0     H23325   8.822   5.484   8.122  2.1896 -0.8247  0.3683
  173MOL0     H23326   8.669   5.403   8.106  0.4921  0.6882  3.2110
  173MOL0     H23327   8.752   5.287   7.902 -0.3161  0.7780 -1.2038
  173MOL0     H23328   8.905   5.360   7.910 -2.2948 -1.9942 -1.7963
  173MOL0     H23329   8.662   5.548   7.893 -0.1115  0.3620 -0.6629
  173MOL0     H23330   8.830   5.588   7.859 -0.2982  1.0177 -1.7691
  173MOL0     H23331   8.685   5.383   7.689 -0.1104 -1.2197  0.3966
  173MOL0     H23332   8.837   5.439   7.655 -0.3369 -0.7199 -1.2641
  173MOL0     H23333   8.643   5.556   7.539  0.5729 -2.2571  1.5792
  173MOL0     H23334   8.591   5.630   7.681  1.2382  0.2269  2.1001
  173MOL0     H23335   8.482   5.223   7.782 -0.3159 -0.4431  0.0745
  173MOL0     H23336   8.257   5.297   7.724  0.8887 -3.0631  0.1287
  173MOL0     H23337   7.934   5.708   7.946 -1.0614  0.6472 -0.1977
  173MOL0     H23338   7.736   5.798   7.863 -0.6881  0.8292  1.0890
  173MOL0     H23339   5.503   5.168   8.117  0.5558  0.1750 -0.2176
  173MOL0     H23340   5.312   5.179   8.287 -0.0961  0.8091 -0.9773
  173MOL0     H23341   5.125   5.214   8.622  0.7494  0.3614 -1.7564
  173MOL0     H23342   4.904   5.192   8.712  3.2720 -1.1212  0.5558
  173MOL0     H23343   4.560   5.281   8.788  0.5806 -2.6682 -0.3212
  173MOL0     H23344   4.656   5.239   8.652  2.2949  0.4198 -0.9233
  173MOL0     H23345   4.474   5.386   8.576 -1.3928  1.3788 -0.0053
  173MOL0     H23346   4.637   5.440   8.531  1.0434 -0.2471  0.8836
  173MOL0     H23347   4.622   5.613   8.696 -0.3786  0.4090  4.2496
  173MOL0     H23348   4.497   5.528   8.788  4.4047  0.1862  1.0781
  173MOL0     H23349   4.411   5.731   8.661  0.3512  0.4170  0.6826
  173MOL0     H23350   4.474   5.680   8.516 -0.0866 -1.1723 -1.1118
  173MOL0     H23351   4.088   5.493   8.578 -1.6099  2.8432  1.2206
  173MOL0     H23352   4.839   5.614   8.683  2.1334  1.9597 -1.1335
  173MOL0     H23353   5.167   5.701   8.562  0.6741 -0.9291 -2.2831
  173MOL0     H23354   5.051   5.696   8.442 -0.8615  3.2338 -0.6256
  173MOL0     H23355   5.011   5.767   8.601 -0.2688 -0.6011 -0.4541
  174MOL0     O23356   4.589   8.819  10.592 -0.1604 -0.1524 -0.5975
  174MOL0     C23357   4.545   8.743  10.674  0.1718 -0.1647 -0.7528
  174MOL0     O23358   4.620   8.678  10.768 -0.2147 -0.2620  0.2012
  174MOL0     C23359   4.734   8.744  10.813 -0.1074 -0.6395  0.2632
  174MOL0     C23360   4.857   8.738  10.742 -0.3030 -0.0281 -0.0070
  174MOL0     C23361   4.973   8.787  10.806  0.1548 -0.6314  0.3040
  174MOL0     C23362   4.954   8.856  10.925  0.1038 -0.1807  0.8082
  174MOL0     O23363   5.076   8.909  10.958  0.0446 -0.6786 -0.1316
  174MOL0     C23364   5.080   9.020  11.045 -0.2913 -1.1792  0.0074
  174MOL0     C23365   5.212   9.088  11.038  0.2009 -0.2723 -0.3544
  174MOL0     C23366   5.232   9.174  11.165 -0.7727  0.0090  0.0294
  174MOL0     C23367   5.298   9.307  11.142 -0.1702  0.1434  0.3371
  174MOL0     C23368   5.340   9.371  11.266 -0.4211  0.2628 -0.2514
  174MOL0     C23369   5.423   9.494  11.218  0.0514 -0.0125  0.1033
  174MOL0     C23370   5.495   9.569  11.333  0.3461  0.1336  0.2651
  174MOL0     C23371   5.574   9.696  11.294  0.3001  0.5113  0.6158
  174MOL0     N23372   5.704   9.676  11.222  0.3102  0.1430 -0.5425
  174MOL0     C23373   5.724   9.693  11.088 -0.0163  0.6933  0.4538
  174MOL0     C23374   5.855   9.654  11.073  0.2416 -0.1399  0.8316
  174MOL0     C23375   5.934   9.667  10.946 -0.9015 -0.5880  1.1220
  174MOL0     C23376   6.043   9.774  10.949  0.1874 -0.0733  0.1358
  174MOL0     C23377   6.162   9.722  11.027 -0.6880 -0.4643  0.6642
  174MOL0     C23378   6.287   9.807  11.020  0.2537 -0.1378  0.1480
  174MOL0     O23379   6.331   9.803  10.882 -0.4020 -0.0155  0.5387
  174MOL0     C23380   6.453   9.862  10.857 -0.1371 -0.8686  0.1859
  174MOL0     C23381   6.512   9.963  10.938 -0.2049 -0.3814  0.1118
  174MOL0     C23382   6.620  10.033  10.894  0.1131 -0.3063 -0.0111
  174MOL0     C23383   6.702   9.990  10.784 -0.5540  0.4015  0.4933
  174MOL0     C23384   6.807  10.071  10.727 -0.0333 -0.4701  0.0912
  174MOL0     O23385   6.886  10.139  10.814 -0.4300 -0.5671  0.1924
  174MOL0     C23386   6.985  10.220  10.773  0.0712  0.8679 -0.7776
  174MOL0     C23387   6.971  10.358  10.795  1.2005  0.6074  0.3021
  174MOL0     C23388   7.074  10.444  10.756 -0.3170  0.4047  0.0119
  174MOL0     C23389   7.188  10.399  10.692  0.4102 -0.4031  0.5962
  174MOL0     O23390   7.296  10.473  10.642 -0.2592  0.1439 -0.3759
  174MOL0     C23391   7.306  10.616  10.658  0.2093  0.0290  0.8010
  174MOL0     C23392   7.377  10.660  10.781  0.5417 -0.2069 -0.2222
  174MOL0     C23393   7.528  10.646  10.750  0.2397 -0.1605 -0.6546
  174MOL0     C23394   7.600  10.730  10.866 -0.6137  0.2069  0.1034
  174MOL0     C23395   7.744  10.771  10.829  0.3221  0.2790  0.6001
  174MOL0     C23396   7.849  10.659  10.839  0.1638  0.4749  0.2589
  174MOL0     C23397   7.998  10.710  10.806 -0.6573  0.1388 -0.1105
  174MOL0     C23398   8.090  10.598  10.769  0.7364  1.0715  0.3452
  174MOL0    Cl23399   8.066  10.475  10.895 -0.5501  0.5940  0.3387
  174MOL0     C23400   7.200  10.260  10.678 -0.4458 -0.2560 -0.1752
  174MOL0     C23401   7.105  10.173  10.724  0.6868 -0.0621 -0.8375
  174MOL0     O23402   6.822  10.074  10.600 -0.2422 -0.1605  0.3466
  174MOL0     C23403   6.649   9.879  10.717 -0.9303  0.2928  0.0433
  174MOL0     C23404   6.525   9.818  10.751  0.1911  0.0766  1.1126
  174MOL0     N23405   5.909   9.613  11.194  0.1235  0.6746  0.4735
  174MOL0     N23406   5.815   9.631  11.278  0.0709  0.6246 -0.4115
  174MOL0     C23407   4.829   8.876  10.986  0.1762  0.6709  0.1531
  174MOL0     C23408   4.721   8.805  10.936 -0.1900  0.1659 -0.3832
  174MOL0     C23409   4.407   8.687  10.651  0.4534 -0.3854  0.2052
  174MOL0     C23410   4.328   8.651  10.766  0.5422 -0.8736 -0.7064
  174MOL0     C23411   4.199   8.596  10.751  0.1783 -0.1802 -0.4358
  174MOL0     C23412   4.136   8.614  10.623  0.4617  0.0608 -0.1542
  174MOL0     O23413   4.004   8.594  10.583  0.1853  0.3396 -0.1796
  174MOL0     C23414   3.907   8.623  10.686  0.5100  0.7621  0.0555
  174MOL0     C23415   3.761   8.602  10.639  0.7934  0.5015  0.1469
  174MOL0     C23416   3.700   8.733  10.600 -0.0404  0.0656 -0.2244
  174MOL0     C23417   3.547   8.717  10.578 -0.1346 -0.1460 -0.5367
  174MOL0     C23418   3.483   8.643  10.690 -0.4322  0.0376 -0.4365
  174MOL0     C23419   3.465   8.581  10.791 -0.5795 -0.2731 -0.1258
  174MOL0     C23420   4.213   8.659  10.516 -0.0166 -0.1442  0.5701
  174MOL0     C23421   4.345   8.683  10.521 -0.2361 -0.7218 -0.1616
  174MOL0     C23422   4.409   8.746  10.396 -0.6758  0.6225  0.0847
  174MOL0     H23423   4.857   8.674  10.654 -2.4889  0.5700 -0.4972
  174MOL0     H23424   5.071   8.780  10.759 -1.6628  0.3597 -4.2129
  174MOL0     H23425   4.998   9.091  11.032 -1.6310 -2.5239  0.8508
  174MOL0     H23426   5.059   8.984  11.146  1.7826  1.4593  1.5157
  174MOL0     H23427   5.222   9.157  10.953 -1.6647  1.0991  0.4782
  174MOL0     H23428   5.294   9.015  11.034 -0.2552 -0.7315 -2.8836
  174MOL0     H23429   5.301   9.122  11.233 -2.7739 -1.2092  1.2077
  174MOL0     H23430   5.141   9.193  11.221 -0.8504 -0.2228 -0.0167
  174MOL0     H23431   5.383   9.294  11.074 -0.0996 -3.0264  0.8515
  174MOL0     H23432   5.231   9.369  11.082  2.1124 -0.1402 -2.7505
  174MOL0     H23433   5.262   9.405  11.335  1.2726 -0.7099  2.2602
  174MOL0     H23434   5.408   9.302  11.316  1.9952 -0.0603 -3.6123
  174MOL0     H23435   5.498   9.462  11.145  1.9506 -0.0862  1.9860
  174MOL0     H23436   5.352   9.564  11.174 -1.2607  0.0955  2.2361
  174MOL0     H23437   5.552   9.492  11.386 -0.9335 -0.4837  0.7823
  174MOL0     H23438   5.416   9.594  11.404  0.2202  0.2028  0.1024
  174MOL0     H23439   5.513   9.753  11.223  0.1317 -0.9397 -0.4457
  174MOL0     H23440   5.601   9.762  11.377  1.4517  0.0492  0.6395
  174MOL0     H23441   5.677   9.755  11.012  0.2747  1.0697  0.5792
  174MOL0     H23442   5.976   9.567  10.932 -0.2642 -0.3190  1.0798
  174MOL0     H23443   5.865   9.677  10.862 -0.7312 -2.0096  0.7888
  174MOL0     H23444   6.073   9.781  10.844 -2.3333  0.1952 -0.6310
  174MOL0     H23445   6.004   9.872  10.977  0.0994  0.2856 -1.1622
  174MOL0     H23446   6.177   9.621  10.989 -0.2088  0.2415 -1.1058
  174MOL0     H23447   6.132   9.731  11.132 -0.6512 -1.0854  0.7280
  174MOL0     H23448   6.368   9.758  11.075  2.1367 -0.4581 -2.7027
  174MOL0     H23449   6.260   9.906  11.059 -0.4359  0.1929 -1.1109
  174MOL0     H23450   6.466   9.997  11.031  3.1553 -1.3787  2.3464
  174MOL0     H23451   6.657  10.121  10.946 -0.8048  0.5360 -0.7547
  174MOL0     H23452   6.877  10.389  10.841  0.0932 -2.1151  0.0610
  174MOL0     H23453   7.065  10.550  10.775  2.2670  0.6536  0.1979
  174MOL0     H23454   7.357  10.637  10.564  2.9184 -3.4542  1.2595
  174MOL0     H23455   7.211  10.668  10.652 -0.9905 -2.1539 -0.4545
  174MOL0     H23456   7.351  10.763  10.809 -0.1525 -0.8715  1.7646
  174MOL0     H23457   7.341  10.590  10.857  3.2143  0.1852  1.5330
  174MOL0     H23458   7.553  10.540  10.752  0.7463 -0.0698 -1.5522
  174MOL0     H23459   7.550  10.683  10.650  0.6387  0.0565 -0.4870
  174MOL0     H23460   7.600  10.671  10.958  0.6919  0.6261  0.3831
  174MOL0     H23461   7.545  10.823  10.885  1.7799  1.9785 -1.1617
  174MOL0     H23462   7.775  10.846  10.903  1.4908  0.8786 -0.4588
  174MOL0     H23463   7.744  10.814  10.728  1.0724  1.2131  0.9783
  174MOL0     H23464   7.851  10.614  10.939  1.8288  2.0218  0.9921
  174MOL0     H23465   7.823  10.590  10.759 -2.0019  2.3147 -0.7280
  174MOL0     H23466   8.034  10.773  10.887  1.1060  1.9443 -2.1937
  174MOL0     H23467   8.001  10.773  10.717  2.1233  0.8537  0.3980
  174MOL0     H23468   8.059  10.556  10.673  0.5621  0.2447  0.7542
  174MOL0     H23469   8.197  10.613  10.755  1.0228 -1.1187 -0.1858
  174MOL0     H23470   7.288  10.219  10.629 -1.0945 -0.7909 -0.9153
  174MOL0     H23471   7.119  10.066  10.719 -0.1586 -1.0002  6.0613
  174MOL0     H23472   6.705   9.838  10.633 -1.6805 -0.0434 -0.3085
  174MOL0     H23473   6.485   9.743  10.685  0.2713  0.3396  0.7621
  174MOL0     H23474   4.817   8.942  11.071  1.7536 -0.7005  1.5108
  174MOL0     H23475   4.630   8.804  10.996  0.3541  1.2985  0.4887
  174MOL0     H23476   4.378   8.656  10.863  0.1605  2.7944 -0.5781
  174MOL0     H23477   4.154   8.544  10.835  0.4404  0.4569  0.0991
  174MOL0     H23478   3.919   8.728  10.717 -0.5732  1.5922 -2.1441
  174MOL0     H23479   3.913   8.552  10.769  0.3067 -0.6970 -1.1469
  174MOL0     H23480   3.709   8.554  10.722 -0.0979 -1.5908 -1.5459
  174MOL0     H23481   3.750   8.538  10.551 -2.0364  0.5414  0.3969
  174MOL0     H23482   3.753   8.772  10.513 -2.6432  1.2034 -1.3903
  174MOL0     H23483   3.711   8.803  10.683  0.0081  0.2441 -0.3822
  174MOL0     H23484   3.483   8.805  10.566 -0.2984 -0.1490  0.2587
  174MOL0     H23485   3.525   8.662  10.486  0.4044 -0.2310 -0.6173
  174MOL0     H23486   3.446   8.523  10.879  0.6101 -0.3281  0.1001
  174MOL0     H23487   4.170   8.675  10.418 -2.0422 -0.2558  1.3801
  174MOL0     H23488   4.502   8.692  10.379 -0.5388  0.2816  1.7751
  174MOL0     H23489   4.347   8.736  10.306 -0.2695  1.5897 -0.3178
  174MOL0     H23490   4.427   8.852  10.416 -2.3666  0.6614  1.7593
  175MOL0     O23491   1.511   8.435   5.950 -0.0994  0.8960 -0.5739
  175MOL0     C23492   1.440   8.502   6.019 -0.2892  0.6772  0.4968
  175MOL0     O23493   1.483   8.612   6.100  0.2880  0.5046  0.3866
  175MOL0     C23494   1.617   8.623   6.121 -0.3962  0.1409 -0.2330
  175MOL0     C23495   1.687   8.702   6.039  0.1069  0.1376  0.4023
  175MOL0     C23496   1.824   8.726   6.057 -0.4497  0.0799 -0.3227
  175MOL0     C23497   1.888   8.681   6.177  0.2494  0.0748 -0.8283
  175MOL0     O23498   2.021   8.698   6.205  0.0594 -0.7946  0.1759
  175MOL0     C23499   2.075   8.837   6.213  0.5330  0.0247 -0.1560
  175MOL0     C23500   2.202   8.838   6.126 -0.8268  0.8582 -0.4567
  175MOL0     C23501   2.324   8.845   6.211 -0.5293 -0.4703  0.6152
  175MOL0     C23502   2.440   8.876   6.114 -0.1131 -0.3496 -0.2422
  175MOL0     C23503   2.568   8.889   6.198  0.2523  0.9505  0.7884
  175MOL0     C23504   2.671   8.967   6.115 -0.2806  0.2836 -0.6387
  175MOL0     C23505   2.798   8.996   6.180  0.4834 -0.0899  1.0453
  175MOL0     C23506   2.862   8.877   6.243 -0.4112 -0.2019  0.5192
  175MOL0     N23507   3.003   8.899   6.266  0.6069 -0.4770 -0.2507
  175MOL0     C23508   3.051   9.004   6.331  0.3234 -0.3294  0.0743
  175MOL0     C23509   3.179   8.968   6.349  0.2626  0.0677  0.5635
  175MOL0     C23510   3.289   9.044   6.434 -0.1819 -0.1600 -0.2641
  175MOL0     C23511   3.425   9.007   6.383 -0.6515 -0.7980 -0.0810
  175MOL0     C23512   3.455   9.059   6.244 -0.4922 -0.1017 -0.0511
  175MOL0     C23513   3.597   9.113   6.219  0.7741  0.7395 -0.0390
  175MOL0     O23514   3.702   9.023   6.249  0.4198 -0.2740 -0.5639
  175MOL0     C23515   3.834   9.063   6.237  0.3040 -0.4591  0.0014
  175MOL0     C23516   3.869   9.178   6.167 -0.7443 -0.5764 -0.4481
  175MOL0     C23517   4.001   9.222   6.183  0.2024  0.3472 -0.0468
  175MOL0     C23518   4.105   9.150   6.241  0.2345  0.2834  0.3713
  175MOL0     C23519   4.246   9.197   6.244  0.8970 -0.5134 -0.5115
  175MOL0     O23520   4.348   9.121   6.282 -0.4391  0.2309  0.2938
  175MOL0     C23521   4.475   9.168   6.307 -0.3525  0.5939  0.0047
  175MOL0     C23522   4.558   9.201   6.203 -0.2413 -0.2630 -0.0120
  175MOL0     C23523   4.695   9.228   6.212 -0.2330  0.0256  0.6436
  175MOL0     C23524   4.756   9.229   6.339 -0.2979 -0.0366 -0.0208
  175MOL0     O23525   4.890   9.266   6.340 -0.5853  1.0043  0.1172
  175MOL0     C23526   4.964   9.287   6.455  0.0753 -0.6087 -0.2607
  175MOL0     C23527   5.118   9.291   6.417  0.0822 -0.4316  0.7613
  175MOL0     C23528   5.177   9.429   6.373  0.3088 -0.6744  0.1978
  175MOL0     C23529   5.079   9.491   6.271  0.3728  0.1332  0.8784
  175MOL0     C23530   5.146   9.608   6.193  0.3100  0.3121 -0.0344
  175MOL0     C23531   5.166   9.734   6.286 -0.2501 -0.4504  0.4338
  175MOL0     C23532   5.205   9.869   6.216 -0.6333  0.8731  0.7043
  175MOL0     C23533   5.314   9.848   6.111  0.0477  1.0007  0.9609
  175MOL0    Cl23534   5.390   9.999   6.057 -0.3225  0.3715  0.2917
  175MOL0     C23535   4.679   9.189   6.450  0.1037  0.0155  0.0856
  175MOL0     C23536   4.537   9.159   6.441 -0.4269 -0.0038  0.4384
  175MOL0     O23537   4.257   9.309   6.219 -0.4300 -0.0278 -0.1541
  175MOL0     C23538   4.070   9.022   6.288 -0.1904  0.0218  0.4752
  175MOL0     C23539   3.933   8.988   6.301 -0.1336  0.1375  0.0298
  175MOL0     N23540   3.199   8.850   6.277  0.6882 -0.6012 -0.6063
  175MOL0     N23541   3.092   8.804   6.233 -0.6470 -0.6967  0.2467
  175MOL0     C23542   1.808   8.613   6.267 -0.6798 -0.1587  0.5041
  175MOL0     C23543   1.671   8.577   6.244 -0.6368 -0.1102  0.2789
  175MOL0     C23544   1.293   8.480   6.032  0.6706 -0.3327 -0.4308
  175MOL0     C23545   1.210   8.568   6.096  0.5640  0.1092  0.1227
  175MOL0     C23546   1.070   8.550   6.110 -1.0852 -0.2172 -0.6360
  175MOL0     C23547   1.014   8.426   6.081  0.1245  0.0081 -0.2278
  175MOL0     O23548   0.882   8.395   6.100 -0.2666 -0.2415 -0.1945
  175MOL0     C23549   0.796   8.487   6.168  0.0592 -0.0207  0.1659
  175MOL0     C23550   0.663   8.420   6.198 -1.0693  0.2642  0.3537
  175MOL0     C23551   0.556   8.516   6.251 -0.4172  0.6321 -0.4345
  175MOL0     C23552   0.489   8.602   6.144  0.2641 -0.6078  0.2389
  175MOL0     C23553   0.438   8.526   6.025  0.3409 -0.3195  0.0999
  175MOL0     C23554   0.406   8.466   5.921  0.0209  0.4749 -0.1021
  175MOL0     C23555   1.083   8.346   5.992 -0.9290 -0.8479 -0.3846
  175MOL0     C23556   1.226   8.367   5.964 -0.1511  0.0217  0.0369
  175MOL0     C23557   1.293   8.261   5.883 -0.3122  0.9795 -0.2909
  175MOL0     H23558   1.644   8.757   5.956  0.4638 -1.3252 -0.8006
  175MOL0     H23559   1.878   8.788   5.986  1.1900  2.1695  2.5464
  175MOL0     H23560   2.009   8.910   6.165  0.0132 -1.2294 -1.4386
  175MOL0     H23561   2.091   8.856   6.319 -1.1221 -4.7132  1.1760
  175MOL0     H23562   2.188   8.918   6.053 -4.2620  1.2876  0.4870
  175MOL0     H23563   2.219   8.752   6.061  0.7302  0.0154  1.0018
  175MOL0     H23564   2.350   8.748   6.253 -1.1977 -2.5622 -3.3467
  175MOL0     H23565   2.313   8.921   6.289  0.1931  1.1627 -0.7948
  175MOL0     H23566   2.454   8.797   6.040  3.8022 -0.7652  0.7232
  175MOL0     H23567   2.431   8.975   6.068  0.9126 -0.0695  0.1236
  175MOL0     H23568   2.540   8.942   6.289 -0.0051  0.4472  1.0045
  175MOL0     H23569   2.595   8.785   6.220 -1.9966  0.3631  0.9862
  175MOL0     H23570   2.685   8.892   6.036  0.2447 -2.1032  1.5569
  175MOL0     H23571   2.618   9.061   6.096 -1.1999  0.7708  3.4153
  175MOL0     H23572   2.782   9.073   6.257 -0.7888  0.1055  0.6031
  175MOL0     H23573   2.867   9.030   6.103  0.6582 -2.4958  0.0515
  175MOL0     H23574   2.808   8.836   6.329 -2.2513  0.5072 -0.2499
  175MOL0     H23575   2.869   8.795   6.171  1.8186 -0.2586  0.7479
  175MOL0     H23576   3.003   9.090   6.376 -0.5483 -0.7658 -0.0173
  175MOL0     H23577   3.274   9.150   6.415 -2.1428 -0.7061 -2.1746
  175MOL0     H23578   3.275   9.021   6.540  0.1723 -2.0744 -0.5926
  175MOL0     H23579   3.507   9.048   6.442  0.8000  0.0824 -2.5679
  175MOL0     H23580   3.436   8.898   6.372  0.7502 -0.3983 -4.6684
  175MOL0     H23581   3.383   9.140   6.228 -1.5981 -1.2067 -0.9049
  175MOL0     H23582   3.435   8.979   6.172  0.1645  0.2116 -0.5968
  175MOL0     H23583   3.597   9.205   6.279  1.1687 -0.1030  1.2870
  175MOL0     H23584   3.599   9.143   6.113  0.9464  2.0321  0.3112
  175MOL0     H23585   3.795   9.246   6.127  0.1406  1.2725  0.9455
  175MOL0     H23586   4.026   9.315   6.133  0.3193 -0.3060 -1.2219
  175MOL0     H23587   4.512   9.215   6.106 -0.4796  1.3858  0.3126
  175MOL0     H23588   4.752   9.252   6.123 -0.0962 -2.6424 -0.0861
  175MOL0     H23589   4.938   9.382   6.503 -0.2614  0.1573 -1.8977
  175MOL0     H23590   4.961   9.201   6.522  0.0796  0.5109  1.2280
  175MOL0     H23591   5.179   9.272   6.506 -0.1276  1.0779  1.2486
  175MOL0     H23592   5.148   9.219   6.340  0.0821  0.2899  0.0745
  175MOL0     H23593   5.175   9.495   6.460 -1.3174  1.1211 -1.1123
  175MOL0     H23594   5.283   9.421   6.346  2.2465  3.0083  5.1390
  175MOL0     H23595   4.990   9.529   6.322  0.4824  1.8647 -0.1634
  175MOL0     H23596   5.050   9.424   6.189 -1.8437  1.1418  0.7580
  175MOL0     H23597   5.090   9.630   6.102  1.2418  1.0956 -0.4502
  175MOL0     H23598   5.241   9.568   6.156 -0.3849  0.2472 -1.8589
  175MOL0     H23599   5.075   9.758   6.343 -0.7365  2.1549 -1.2480
  175MOL0     H23600   5.245   9.705   6.356  0.1655  0.5234  0.3920
  175MOL0     H23601   5.240   9.943   6.289 -2.1224  2.8516 -0.4882
  175MOL0     H23602   5.118   9.914   6.169 -1.2522  1.7805  2.6168
  175MOL0     H23603   5.387   9.779   6.155  0.2064 -0.5735 -1.5788
  175MOL0     H23604   5.272   9.801   6.022  0.5294 -0.0678  1.2863
  175MOL0     H23605   4.726   9.180   6.547  1.8879 -1.8184 -0.8674
  175MOL0     H23606   4.466   9.117   6.512 -1.1551  3.9652  2.3148
  175MOL0     H23607   4.146   8.959   6.333 -1.0264 -0.7111  0.8992
  175MOL0     H23608   3.894   8.903   6.355 -0.6719  0.6815  0.5107
  175MOL0     H23609   1.854   8.576   6.358  0.4871 -2.5366 -0.9653
  175MOL0     H23610   1.611   8.526   6.318 -1.1771 -0.6402 -0.5049
  175MOL0     H23611   1.252   8.651   6.151 -1.7488 -0.6652  3.4200
  175MOL0     H23612   1.011   8.623   6.166 -0.3617  0.5319 -0.8251
  175MOL0     H23613   0.776   8.578   6.112 -2.0347 -1.0989 -0.9756
  175MOL0     H23614   0.841   8.516   6.264 -0.7561 -0.3504  0.6590
  175MOL0     H23615   0.692   8.337   6.263  3.4037  1.7897  0.5859
  175MOL0     H23616   0.634   8.374   6.103  0.1612  1.4423 -0.6219
  175MOL0     H23617   0.602   8.581   6.327  2.0952 -1.4379 -0.0343
  175MOL0     H23618   0.479   8.456   6.301  0.1575 -0.9057 -1.3192
  175MOL0     H23619   0.401   8.650   6.189  0.4868 -0.2896  0.3352
  175MOL0     H23620   0.561   8.676   6.109 -1.5261  1.8530  1.5086
  175MOL0     H23621   0.385   8.427   5.823 -2.0883 -2.8809  1.5017
  175MOL0     H23622   1.020   8.266   5.955 -1.1854 -2.1467  2.6184
  175MOL0     H23623   1.350   8.192   5.945  0.3447  0.3268 -1.5774
  175MOL0     H23624   1.213   8.205   5.833  0.5417  1.3923 -2.2331
  175MOL0     H23625   1.360   8.299   5.805  2.2859 -0.9480  0.8808
  176MOL0     O23626  10.747   7.178   8.430 -0.4991  0.2185 -0.2383
  176MOL0     C23627  10.714   7.127   8.534 -0.5993 -0.0474 -0.2091
  176MOL0     O23628  10.803   7.053   8.611  0.0348  0.1877  0.5444
  176MOL0     C23629  10.917   7.007   8.546  0.1650  0.5907 -0.3217
  176MOL0     C23630  11.031   7.013   8.624 -0.2339  0.0279 -0.9759
  176MOL0     C23631  11.149   6.954   8.587 -0.1408 -0.0840 -0.7984
  176MOL0     C23632  11.158   6.883   8.468 -1.1885 -0.8378 -0.4573
  176MOL0     O23633  11.284   6.825   8.457  0.0564 -0.1225 -0.5320
  176MOL0     C23634  11.316   6.741   8.338  0.1434 -0.4454 -0.6527
  176MOL0     C23635  11.469   6.737   8.329  0.8461 -0.0628  0.4077
  176MOL0     C23636  11.522   6.662   8.213  0.4897  0.1409 -0.0281
  176MOL0     C23637  11.671   6.666   8.208 -0.5344  0.5024  0.5646
  176MOL0     C23638  11.734   6.561   8.111 -0.3140 -0.0203  0.0435
  176MOL0     C23639  11.870   6.613   8.076  0.0019  0.0302 -0.7541
  176MOL0     C23640  11.945   6.509   7.993  0.0442 -0.2226  0.1230
  176MOL0     C23641  11.998   6.393   8.076  0.3422 -0.2347  0.6253
  176MOL0     N23642  12.105   6.446   8.169  0.5835  0.7467 -0.5926
  176MOL0     C23643  12.228   6.466   8.124  0.2215 -0.5256 -0.4824
  176MOL0     C23644  12.295   6.542   8.216  0.0250 -0.2887 -0.0780
  176MOL0     C23645  12.445   6.584   8.229 -0.0171  0.5703  0.8400
  176MOL0     C23646  12.531   6.484   8.309  0.4130 -0.5345 -0.0390
  176MOL0     C23647  12.528   6.345   8.248  0.1513  0.2868  0.0122
  176MOL0     C23648  12.613   6.250   8.348  0.1969  0.4429 -0.1448
  176MOL0     O23649  12.735   6.230   8.278 -0.3248  0.3587  0.0287
  176MOL0     C23650  12.847   6.203   8.348  0.0630 -0.1820  0.4145
  176MOL0     C23651  12.962   6.249   8.293 -0.4355 -1.0544 -1.0040
  176MOL0     C23652  13.088   6.230   8.359 -0.4373 -0.5375 -0.1051
  176MOL0     C23653  13.094   6.147   8.477 -0.4763 -0.1588  0.1423
  176MOL0     C23654  13.221   6.124   8.535  0.8629  0.0941  0.3080
  176MOL0     O23655  13.330   6.196   8.487 -0.4559 -0.6065 -0.0088
  176MOL0     C23656  13.458   6.174   8.547  0.5253  0.0852 -0.3297
  176MOL0     C23657  13.473   6.171   8.685  0.5487 -0.0216 -0.4648
  176MOL0     C23658  13.603   6.177   8.743 -0.2713 -0.0580 -0.0834
  176MOL0     C23659  13.724   6.184   8.671  0.3406 -0.6827 -0.1744
  176MOL0     O23660  13.840   6.208   8.746 -0.4509  0.2029  0.6611
  176MOL0     C23661  13.946   6.258   8.666 -0.5046  0.1892 -0.9411
  176MOL0     C23662  14.072   6.305   8.756  0.8364 -0.3810  0.7526
  176MOL0     C23663  14.206   6.330   8.680  0.6741  0.4076  0.1022
  176MOL0     C23664  14.316   6.392   8.768  0.0531  0.0462 -0.0265
  176MOL0     C23665  14.345   6.309   8.891  0.7475  0.7679 -0.0036
  176MOL0     C23666  14.479   6.356   8.952 -0.6686  0.5859 -0.3605
  176MOL0     C23667  14.510   6.268   9.083 -0.2033  0.0739 -0.8377
  176MOL0     C23668  14.652   6.211   9.081 -0.0015  0.5191 -0.1555
  176MOL0    Cl23669  14.654   6.119   9.238  0.2760 -0.0097 -0.2523
  176MOL0     C23670  13.709   6.181   8.524  0.1043  0.0739  0.3488
  176MOL0     C23671  13.578   6.187   8.466 -0.5213  0.5925 -0.2676
  176MOL0     O23672  13.228   6.032   8.618 -0.4047 -0.8149  0.8446
  176MOL0     C23673  12.971   6.099   8.535 -0.7541 -0.1727 -0.9721
  176MOL0     C23674  12.850   6.126   8.468  0.3241  0.8503 -0.1228
  176MOL0     N23675  12.207   6.569   8.314  0.5755 -0.1856  0.3144
  176MOL0     N23676  12.091   6.506   8.290 -0.5178 -0.4269  0.4379
  176MOL0     C23677  11.045   6.878   8.394 -0.4578  0.4289  0.4038
  176MOL0     C23678  10.923   6.930   8.427  1.1760 -0.4007  0.6883
  176MOL0     C23679  10.582   7.159   8.582 -0.5404 -0.9213  0.1837
  176MOL0     C23680  10.481   7.184   8.489 -0.1823 -0.3978 -0.3728
  176MOL0     C23681  10.349   7.199   8.529 -0.1277 -0.3955 -0.2734
  176MOL0     C23682  10.314   7.176   8.663 -0.1193 -0.4465  0.0623
  176MOL0     O23683  10.180   7.173   8.703 -1.0305  0.3194 -0.0386
  176MOL0     C23684  10.134   7.302   8.734 -0.1005 -0.5324 -0.0012
  176MOL0     C23685   9.992   7.276   8.789 -0.1920  0.0426 -1.0060
  176MOL0     C23686   9.898   7.236   8.680 -0.5045  0.6869 -0.0102
  176MOL0     C23687   9.759   7.196   8.730 -0.6749 -0.2761  0.0955
  176MOL0     C23688   9.681   7.301   8.802  1.0825  0.2285 -0.6897
  176MOL0     C23689   9.589   7.368   8.851  0.2189  0.6819  0.1743
  176MOL0     C23690  10.416   7.169   8.759 -0.2196 -1.1555 -0.2967
  176MOL0     C23691  10.551   7.163   8.723 -0.5147 -0.0126  0.3361
  176MOL0     C23692  10.645   7.144   8.836 -0.5754  0.3802 -0.4197
  176MOL0     H23693  11.028   7.065   8.719 -2.0206  0.8596 -1.4437
  176MOL0     H23694  11.239   6.962   8.647  0.8577 -0.2384 -2.2386
  176MOL0     H23695  11.281   6.638   8.344  0.6696 -0.6185 -0.4626
  176MOL0     H23696  11.280   6.785   8.244 -1.6756 -0.8599 -0.1810
  176MOL0     H23697  11.509   6.676   8.411  1.3658  0.0787  0.2585
  176MOL0     H23698  11.512   6.837   8.335  0.0858  0.1969  3.7032
  176MOL0     H23699  11.482   6.714   8.126  3.1504 -0.0872 -1.4935
  176MOL0     H23700  11.496   6.556   8.210  3.0395 -0.5462 -1.8866
  176MOL0     H23701  11.696   6.766   8.172 -2.5966  0.3469 -1.5621
  176MOL0     H23702  11.710   6.649   8.308  0.2093  0.8639  0.3401
  176MOL0     H23703  11.742   6.463   8.159 -1.0029  0.7989  1.9620
  176MOL0     H23704  11.665   6.536   8.030 -2.1305  1.8711  0.9029
  176MOL0     H23705  11.861   6.698   8.008  0.1338  1.3459  0.8189
  176MOL0     H23706  11.923   6.650   8.164 -2.8942  3.4410 -0.1971
  176MOL0     H23707  12.034   6.557   7.951 -0.3925 -0.8898 -1.6286
  176MOL0     H23708  11.879   6.476   7.912  1.8934 -2.8959 -0.4120
  176MOL0     H23709  11.917   6.339   8.125  1.3633 -0.3525  2.2386
  176MOL0     H23710  12.040   6.314   8.013  2.4373  0.0374  1.6011
  176MOL0     H23711  12.263   6.417   8.034 -0.7058 -5.8633  1.6427
  176MOL0     H23712  12.490   6.582   8.130  0.4320  0.0497  1.0475
  176MOL0     H23713  12.455   6.679   8.284 -1.1350 -0.6131  3.2452
  176MOL0     H23714  12.636   6.517   8.310  0.8693 -1.7946 -1.8246
  176MOL0     H23715  12.482   6.483   8.407 -1.2191 -0.4428 -0.8195
  176MOL0     H23716  12.559   6.314   8.148 -0.6524 -0.9671  0.1295
  176MOL0     H23717  12.423   6.318   8.256  0.1189  0.6754  1.0620
  176MOL0     H23718  12.575   6.150   8.371  1.1095 -0.0307 -0.6587
  176MOL0     H23719  12.626   6.305   8.442 -0.5736  0.3266  0.0424
  176MOL0     H23720  12.979   6.307   8.203  0.1012 -0.5191 -0.5707
  176MOL0     H23721  13.171   6.287   8.317 -2.2038  0.6071 -2.2644
  176MOL0     H23722  13.394   6.162   8.759  0.2131 -2.6694 -1.0475
  176MOL0     H23723  13.592   6.180   8.851 -2.4824 -0.1487 -0.2596
  176MOL0     H23724  13.986   6.174   8.609  1.2969  1.0589 -1.0485
  176MOL0     H23725  13.908   6.336   8.599  0.4355  1.6971  0.1985
  176MOL0     H23726  14.043   6.403   8.796  2.2563  1.0362 -1.4708
  176MOL0     H23727  14.087   6.235   8.838 -2.4152 -3.0436 -0.6954
  176MOL0     H23728  14.247   6.237   8.639 -1.7341 -1.0865  0.8399
  176MOL0     H23729  14.195   6.392   8.591 -0.9803 -0.6588 -0.4903
  176MOL0     H23730  14.292   6.497   8.787  1.7264  0.9843 -2.6353
  176MOL0     H23731  14.404   6.392   8.704  0.1070  1.5872  0.0061
  176MOL0     H23732  14.355   6.205   8.859  0.9370 -0.3795  3.4217
  176MOL0     H23733  14.262   6.324   8.961  0.2740 -0.2435 -0.3215
  176MOL0     H23734  14.562   6.342   8.882  0.6731 -0.2498  1.3075
  176MOL0     H23735  14.482   6.463   8.970  0.6839  0.9134 -2.1719
  176MOL0     H23736  14.437   6.187   9.077 -1.6334  1.2246  0.4555
  176MOL0     H23737  14.482   6.330   9.169  2.4891  0.6687 -0.2707
  176MOL0     H23738  14.666   6.134   9.004 -3.3224 -0.4818  0.1072
  176MOL0     H23739  14.725   6.292   9.075 -0.2814  0.7237 -0.9829
  176MOL0     H23740  13.793   6.181   8.454 -1.0591  1.8743 -1.1644
  176MOL0     H23741  13.575   6.196   8.358 -0.2442 -1.7591 -0.5190
  176MOL0     H23742  12.976   6.043   8.628  0.5064  0.4635 -0.6323
  176MOL0     H23743  12.761   6.092   8.521  0.8796 -1.1187 -0.3505
  176MOL0     H23744  11.050   6.824   8.299  1.5518 -0.9202  1.2177
  176MOL0     H23745  10.835   6.913   8.366  0.6886  0.7870  1.0250
  176MOL0     H23746  10.494   7.206   8.384 -0.7327  0.4508 -0.2773
  176MOL0     H23747  10.267   7.200   8.459 -0.3056 -0.2812 -0.0651
  176MOL0     H23748  10.126   7.366   8.646  1.6813 -1.1442 -0.6503
  176MOL0     H23749  10.200   7.354   8.804  0.9089  2.3861 -2.8735
  176MOL0     H23750   9.952   7.366   8.837  1.4979 -0.2683  1.2022
  176MOL0     H23751  10.009   7.201   8.867 -2.6820  0.1504 -0.2595
  176MOL0     H23752   9.939   7.141   8.643 -0.6560  0.1012  1.2862
  176MOL0     H23753   9.895   7.321   8.611  4.1141  2.3194  1.4689
  176MOL0     H23754   9.708   7.148   8.647 -1.3180 -0.6024  0.6752
  176MOL0     H23755   9.771   7.111   8.799  1.9149 -1.1351 -1.2712
  176MOL0     H23756   9.504   7.424   8.883  0.8714  1.6301  0.3194
  176MOL0     H23757  10.381   7.163   8.862 -0.1250 -2.1390 -0.3179
  176MOL0     H23758  10.590   7.163   8.929  0.1047  1.0423 -0.1420
  176MOL0     H23759  10.699   7.049   8.845  1.0526  1.4599  2.8931
  176MOL0     H23760  10.720   7.223   8.828 -0.6281  0.5181  0.3178
  177MOL0     O23761   1.580   3.983   1.415  0.1599 -1.1230 -0.2008
  177MOL0     C23762   1.500   3.918   1.477 -0.1956  0.2109 -0.0639
  177MOL0     O23763   1.526   3.864   1.600 -0.3274  0.1161  0.1117
  177MOL0     C23764   1.639   3.886   1.667 -0.9826  0.2544  0.2876
  177MOL0     C23765   1.710   4.002   1.683  0.0762 -0.0070 -0.4006
  177MOL0     C23766   1.833   4.002   1.748  0.0869  0.6818  0.8607
  177MOL0     C23767   1.882   3.882   1.804  0.1535  1.0079  0.6512
  177MOL0     O23768   1.999   3.879   1.876 -0.1392 -0.3667  0.4218
  177MOL0     C23769   1.997   3.956   1.998  0.1000  0.2516  1.5669
  177MOL0     C23770   2.135   4.013   2.019  0.0991  0.8297  0.2243
  177MOL0     C23771   2.148   4.090   2.158 -0.1145 -0.5761  0.5746
  177MOL0     C23772   2.268   4.188   2.155 -0.3813  0.3577 -0.4510
  177MOL0     C23773   2.272   4.278   2.277 -0.2045 -0.3981 -0.1708
  177MOL0     C23774   2.411   4.342   2.304 -0.1527  0.4412 -0.1781
  177MOL0     C23775   2.511   4.251   2.359  1.0644 -0.2557  0.5854
  177MOL0     C23776   2.622   4.327   2.416 -0.0366  0.0615 -0.6324
  177MOL0     N23777   2.736   4.242   2.422 -0.6883 -1.0701 -0.2626
  177MOL0     C23778   2.785   4.178   2.529 -0.4203  0.6558  0.5829
  177MOL0     C23779   2.882   4.107   2.473 -0.6712 -0.3298 -0.9334
  177MOL0     C23780   2.966   4.019   2.567  0.0881  0.4669  0.5414
  177MOL0     C23781   3.094   4.077   2.610 -0.4970 -1.4894  0.7049
  177MOL0     C23782   3.215   4.047   2.518  0.4651  0.4281 -0.6000
  177MOL0     C23783   3.216   4.108   2.379 -0.4691  0.1531 -0.2870
  177MOL0     O23784   3.352   4.142   2.345 -0.2013  0.3610  0.2391
  177MOL0     C23785   3.446   4.044   2.342 -0.7211  0.7102  0.7635
  177MOL0     C23786   3.578   4.092   2.352  0.3590 -0.0842 -0.1906
  177MOL0     C23787   3.690   4.012   2.333 -0.0147  0.4664 -0.4139
  177MOL0     C23788   3.678   3.872   2.325  0.3477  0.2956  0.0339
  177MOL0     C23789   3.798   3.778   2.320 -0.3895  0.3992  0.4231
  177MOL0     O23790   3.924   3.820   2.360  0.7919 -0.1183 -0.0446
  177MOL0     C23791   4.030   3.737   2.365 -0.4357 -0.7100  0.0694
  177MOL0     C23792   4.053   3.618   2.443  0.0045 -0.4114  0.0073
  177MOL0     C23793   4.169   3.549   2.434  0.4187  0.4350 -1.0118
  177MOL0     C23794   4.279   3.597   2.356  0.1492 -0.2968 -1.3593
  177MOL0     O23795   4.404   3.539   2.361 -0.2272 -0.5383 -0.9858
  177MOL0     C23796   4.420   3.406   2.415 -0.1694  0.3856  0.3911
  177MOL0     C23797   4.562   3.380   2.451 -0.1291 -0.1025 -0.2543
  177MOL0     C23798   4.600   3.455   2.586 -0.1372 -0.1270  0.1080
  177MOL0     C23799   4.550   3.373   2.707  0.0701 -0.2770 -0.0853
  177MOL0     C23800   4.532   3.452   2.836  0.1476  0.5678  0.4803
  177MOL0     C23801   4.372   3.473   2.856  0.0790  0.1905  0.7100
  177MOL0     C23802   4.345   3.571   2.966  0.8516 -0.6885 -0.1577
  177MOL0     C23803   4.346   3.500   3.099 -0.2348  0.5243  0.6143
  177MOL0    Cl23804   4.240   3.353   3.101 -0.0588 -0.3912  0.1029
  177MOL0     C23805   4.260   3.715   2.284 -0.4244 -0.2202  0.5987
  177MOL0     C23806   4.140   3.782   2.289  0.3834 -0.0531 -0.6456
  177MOL0     O23807   3.777   3.664   2.287  0.1114  0.4129  0.4425
  177MOL0     C23808   3.544   3.823   2.321 -0.2769  0.2505 -0.6781
  177MOL0     C23809   3.433   3.907   2.319  0.1673  0.4527  0.2738
  177MOL0     N23810   2.899   4.142   2.341  0.4406 -0.4156 -0.4635
  177MOL0     N23811   2.807   4.219   2.311  0.5677  0.4374  0.1895
  177MOL0     C23812   1.799   3.770   1.797  0.1141  0.2322  1.1397
  177MOL0     C23813   1.684   3.768   1.723  0.6838  1.0947 -0.1852
  177MOL0     C23814   1.367   3.890   1.412  0.2635  0.0525  0.3647
  177MOL0     C23815   1.275   3.818   1.497 -0.7329  0.0736 -0.2392
  177MOL0     C23816   1.148   3.791   1.460 -0.1512  0.6980 -0.8539
  177MOL0     C23817   1.108   3.802   1.331 -0.0973 -0.3661 -0.6680
  177MOL0     O23818   0.991   3.750   1.297  0.3379 -0.4856 -0.1193
  177MOL0     C23819   0.930   3.752   1.166 -0.0183 -0.3412 -0.3732
  177MOL0     C23820   0.777   3.741   1.190  0.1160 -0.8868 -0.4616
  177MOL0     C23821   0.712   3.720   1.050 -0.3921  0.7525  1.2366
  177MOL0     C23822   0.565   3.697   1.059  0.3560  0.0402 -0.0317
  177MOL0     C23823   0.513   3.648   0.933 -0.1185 -0.2645  0.1730
  177MOL0     C23824   0.465   3.605   0.830 -0.1844 -0.2371  1.1473
  177MOL0     C23825   1.198   3.874   1.241  0.4146 -0.5986 -0.1698
  177MOL0     C23826   1.322   3.927   1.280 -0.8087  0.2084  0.9484
  177MOL0     C23827   1.407   4.006   1.179 -0.4903 -0.1051  0.0657
  177MOL0     H23828   1.669   4.094   1.643  1.4951  0.1668 -1.5249
  177MOL0     H23829   1.891   4.094   1.751 -2.3023  2.3956 -0.9402
  177MOL0     H23830   1.917   4.031   1.993 -1.1677 -1.1216 -0.5151
  177MOL0     H23831   1.968   3.888   2.078 -1.7386 -0.1109  0.6588
  177MOL0     H23832   2.158   4.078   1.934 -2.7350 -0.4152 -1.6473
  177MOL0     H23833   2.211   3.935   2.015  2.0507  2.4468  2.6921
  177MOL0     H23834   2.153   4.019   2.241  1.9694  0.5425  1.4708
  177MOL0     H23835   2.059   4.153   2.166 -0.2310 -0.4975 -0.9622
  177MOL0     H23836   2.357   4.125   2.161 -0.5203  0.2654  0.9053
  177MOL0     H23837   2.271   4.253   2.067  1.8577  1.8736  0.6532
  177MOL0     H23838   2.192   4.352   2.261 -0.5374 -0.3945  1.3392
  177MOL0     H23839   2.241   4.224   2.366  1.2540 -0.7015  0.1742
  177MOL0     H23840   2.441   4.398   2.214  2.6436 -0.3303  0.1908
  177MOL0     H23841   2.399   4.420   2.380  0.7502  0.3586  0.0562
  177MOL0     H23842   2.552   4.187   2.280  1.0975  1.6270 -0.9776
  177MOL0     H23843   2.473   4.184   2.437  1.6798 -1.8094 -0.3899
  177MOL0     H23844   2.651   4.408   2.349  2.2099  0.9331  1.2778
  177MOL0     H23845   2.594   4.362   2.516 -2.1009  0.1934 -1.2138
  177MOL0     H23846   2.750   4.173   2.631  2.0832 -0.9137  1.4512
  177MOL0     H23847   2.905   3.991   2.654 -0.6149  2.5658  0.7850
  177MOL0     H23848   2.981   3.927   2.509  0.7625  2.1381 -2.0809
  177MOL0     H23849   3.083   4.186   2.618 -1.2084 -1.3189 -1.7672
  177MOL0     H23850   3.114   4.044   2.713  0.6592 -0.1838  0.9263
  177MOL0     H23851   3.228   3.939   2.508  2.0845  0.6323 -1.0852
  177MOL0     H23852   3.309   4.071   2.569 -0.2481 -2.7247  2.6072
  177MOL0     H23853   3.160   4.201   2.393  2.1252  1.7970 -0.0315
  177MOL0     H23854   3.165   4.050   2.302 -0.1790 -0.7397  0.1827
  177MOL0     H23855   3.589   4.200   2.364 -1.7606  0.1615 -0.1872
  177MOL0     H23856   3.788   4.059   2.326 -0.4510  1.3649 -0.6691
  177MOL0     H23857   3.969   3.580   2.500  0.3173  0.4936  1.1088
  177MOL0     H23858   4.168   3.461   2.498  0.9323  0.9536 -0.2687
  177MOL0     H23859   4.365   3.386   2.508  1.0806  1.9365  1.5367
  177MOL0     H23860   4.390   3.331   2.341  0.0572 -0.2217  0.9019
  177MOL0     H23861   4.576   3.273   2.472  1.6077 -0.0142 -0.7846
  177MOL0     H23862   4.615   3.412   2.361  0.7140  1.3776  0.7266
  177MOL0     H23863   4.709   3.465   2.593 -0.1666  0.5205 -0.2649
  177MOL0     H23864   4.567   3.560   2.585 -0.3753 -0.2022  0.0839
  177MOL0     H23865   4.630   3.300   2.721  2.3885  1.2233 -3.9003
  177MOL0     H23866   4.456   3.317   2.698 -1.1446  1.5361  0.7804
  177MOL0     H23867   4.579   3.550   2.823 -0.4264  0.6409 -1.3521
  177MOL0     H23868   4.574   3.403   2.924  0.3094  1.9781  1.2304
  177MOL0     H23869   4.341   3.517   2.760 -0.3316 -1.9173 -0.1860
  177MOL0     H23870   4.319   3.377   2.863  1.6996 -0.9864 -1.4809
  177MOL0     H23871   4.248   3.620   2.951  0.5728 -0.8531  1.0046
  177MOL0     H23872   4.404   3.662   2.953  1.1066 -0.6574  1.0411
  177MOL0     H23873   4.451   3.478   3.123  0.4407  0.8313 -1.7840
  177MOL0     H23874   4.297   3.568   3.169  0.6088  1.4931  0.2984
  177MOL0     H23875   4.340   3.762   2.228 -1.3962 -0.0482 -0.7065
  177MOL0     H23876   4.125   3.877   2.239 -0.5749  0.1335 -0.0318
  177MOL0     H23877   3.529   3.716   2.316 -3.8724  0.6058 -0.1672
  177MOL0     H23878   3.329   3.876   2.324  0.5572 -0.7271  2.0060
  177MOL0     H23879   1.835   3.681   1.848  0.4777 -1.4084 -1.7773
  177MOL0     H23880   1.645   3.668   1.709  2.3467 -0.0129  2.3331
  177MOL0     H23881   1.310   3.804   1.599 -0.8769  0.4858 -0.1332
  177MOL0     H23882   1.095   3.734   1.535 -0.6363  0.7559 -1.1496
  177MOL0     H23883   0.969   3.669   1.105  1.5736  1.3117 -1.7329
  177MOL0     H23884   0.941   3.848   1.115  0.2007 -0.7636 -1.1375
  177MOL0     H23885   0.749   3.838   1.233  4.2906  0.0931  0.5121
  177MOL0     H23886   0.756   3.665   1.266  1.0014  1.4103  2.2759
  177MOL0     H23887   0.761   3.635   1.004  0.6943  0.5837  2.6324
  177MOL0     H23888   0.732   3.813   0.996  1.4675  1.8174  3.5796
  177MOL0     H23889   0.547   3.614   1.129 -0.8859  2.1196  2.2650
  177MOL0     H23890   0.510   3.788   1.084 -0.2201 -0.5645  0.9822
  177MOL0     H23891   0.430   3.578   0.733 -0.1289  1.1884  0.7110
  177MOL0     H23892   1.170   3.881   1.136  0.8780 -0.7208 -0.3006
  177MOL0     H23893   1.483   3.935   1.144 -2.0842 -0.8811 -2.0487
  177MOL0     H23894   1.351   4.039   1.091  2.0748  0.1815 -1.5795
  177MOL0     H23895   1.469   4.084   1.224  1.7562 -1.8694  0.1915
  178MOL0     O23896   8.282   9.886   9.729 -0.3317  0.1861 -0.2880
  178MOL0     C23897   8.280   9.985   9.803  0.4374  0.1366 -0.6036
  178MOL0     O23898   8.374  10.018   9.902 -0.4443  0.3693  0.2929
  178MOL0     C23899   8.502   9.974   9.893  0.1940  0.5746  0.1612
  178MOL0     C23900   8.600  10.066   9.861  0.5456  1.2753 -0.2192
  178MOL0     C23901   8.737  10.033   9.866 -0.3263 -0.5758  0.2023
  178MOL0     C23902   8.777   9.904   9.893 -0.4853  0.5200 -0.1880
  178MOL0     O23903   8.907   9.858   9.887 -0.3790  0.2426  0.0082
  178MOL0     C23904   9.013   9.947   9.836 -1.1367  0.1292  0.6505
  178MOL0     C23905   9.146   9.868   9.827  0.0471  1.1919 -0.5065
  178MOL0     C23906   9.211   9.856   9.966  0.1658  0.6463 -0.3913
  178MOL0     C23907   9.348   9.782   9.950  0.4947  0.6102  0.2990
  178MOL0     C23908   9.417   9.774  10.088  0.3867 -0.4602 -0.2149
  178MOL0     C23909   9.562   9.740  10.060 -0.7832  0.1361 -0.1789
  178MOL0     C23910   9.625   9.749  10.201 -1.2333  0.6563 -0.1309
  178MOL0     C23911   9.758   9.674  10.222  0.0205 -0.3249  0.1052
  178MOL0     N23912   9.863   9.707  10.132 -0.0048 -0.4374  0.1578
  178MOL0     C23913   9.873   9.660  10.001  0.0163 -0.0908  0.7475
  178MOL0     C23914   9.976   9.728   9.951 -0.9220  0.5679 -1.2602
  178MOL0     C23915  10.028   9.720   9.812 -0.8295 -0.3975 -0.3806
  178MOL0     C23916  10.170   9.771   9.784  0.1754  0.6126  0.4014
  178MOL0     C23917  10.219   9.751   9.637 -0.4281 -0.3433 -0.3274
  178MOL0     C23918  10.372   9.773   9.626  0.0123 -0.2200 -0.8525
  178MOL0     O23919  10.402   9.905   9.660 -0.6475 -0.6174  0.1545
  178MOL0     C23920  10.531   9.953   9.629 -1.4014  0.2691  0.0211
  178MOL0     C23921  10.557  10.085   9.659  0.0878 -0.2714  0.8594
  178MOL0     C23922  10.677  10.147   9.632  0.0687  0.3758 -0.0925
  178MOL0     C23923  10.788  10.072   9.587 -0.5427 -0.5177  0.2571
  178MOL0     C23924  10.914  10.139   9.562  0.3359  0.4088 -0.2682
  178MOL0     O23925  10.928  10.268   9.603  0.3185 -0.4965  0.0722
  178MOL0     C23926  11.052  10.328   9.595 -0.3140 -0.0800  0.5218
  178MOL0     C23927  11.165  10.271   9.656  1.0336  0.2467  0.6073
  178MOL0     C23928  11.287  10.326   9.647  0.7997  0.2340 -0.4989
  178MOL0     C23929  11.298  10.454   9.599  0.3025  0.3981 -0.3999
  178MOL0     O23930  11.415  10.523   9.575  0.5146  0.0560 -0.2810
  178MOL0     C23931  11.530  10.437   9.559  0.2309 -0.9355 -0.6770
  178MOL0     C23932  11.654  10.513   9.508  0.6596  0.2274 -0.1015
  178MOL0     C23933  11.769  10.424   9.465  0.1456  0.5961 -0.6707
  178MOL0     C23934  11.905  10.499   9.436  0.6305  0.6145 -0.5313
  178MOL0     C23935  11.969  10.561   9.563 -0.8208 -0.1776 -0.1610
  178MOL0     C23936  12.123  10.571   9.570  0.4289  0.2509 -0.9629
  178MOL0     C23937  12.165  10.628   9.712  0.0556 -0.0610 -0.0418
  178MOL0     C23938  12.303  10.677   9.718 -0.6630 -0.1776  0.0553
  178MOL0    Cl23939  12.423  10.541   9.696  0.6589  0.2078 -0.5884
  178MOL0     C23940  11.188  10.516   9.543 -0.3803 -0.0370 -0.4285
  178MOL0     C23941  11.065  10.460   9.544  0.0944 -0.7734 -0.0384
  178MOL0     O23942  10.995  10.067   9.503 -0.4577 -0.9829  0.9516
  178MOL0     C23943  10.771   9.931   9.572  0.0792  0.2994 -0.8174
  178MOL0     C23944  10.643   9.880   9.591 -0.5944 -0.3797  0.5880
  178MOL0     N23945  10.032   9.809  10.054  0.3640  0.5344  0.4408
  178MOL0     N23946   9.959   9.795  10.164 -0.3469  0.6727  0.0760
  178MOL0     C23947   8.680   9.810   9.937 -0.6426  0.9113  0.4165
  178MOL0     C23948   8.541   9.851   9.947  0.5622 -0.9582 -0.2658
  178MOL0     C23949   8.149  10.057   9.802  0.3630  0.8829  0.2422
  178MOL0     C23950   8.107  10.094   9.929  0.2761 -0.0253  0.1176
  178MOL0     C23951   7.977  10.134   9.954 -0.1892  0.6891  0.1704
  178MOL0     C23952   7.881  10.145   9.850 -0.2510 -0.1209 -0.2100
  178MOL0     O23953   7.758  10.190   9.893 -0.4495  0.4010  0.1890
  178MOL0     C23954   7.657  10.207   9.789 -0.8353 -0.8139 -0.6408
  178MOL0     C23955   7.529  10.255   9.851  0.7918  0.2008 -0.7085
  178MOL0     C23956   7.464  10.149   9.939  0.3151  1.0235 -0.9663
  178MOL0     C23957   7.324  10.193   9.992  0.0930 -0.1750 -0.9473
  178MOL0     C23958   7.235  10.191   9.884  0.3196 -0.6041 -0.5041
  178MOL0     C23959   7.159  10.175   9.789  0.2885  0.4998 -0.2760
  178MOL0     C23960   7.921  10.126   9.713 -1.2050  1.0055 -0.5198
  178MOL0     C23961   8.057  10.084   9.694 -0.8846  0.1692  0.9674
  178MOL0     C23962   8.110  10.069   9.553  0.7131  0.4697  0.1133
  178MOL0     H23963   8.574  10.169   9.840 -0.1823  0.8209 -1.6767
  178MOL0     H23964   8.815  10.107   9.853  0.0708 -1.0986 -0.4552
  178MOL0     H23965   8.994   9.983   9.734  0.9922  3.0331  1.1636
  178MOL0     H23966   9.020  10.035   9.901  0.4279  1.9372 -1.7846
  178MOL0     H23967   9.215   9.919   9.759 -0.2040  0.8044 -1.0622
  178MOL0     H23968   9.134   9.767   9.785  0.5455 -0.2610  2.5610
  178MOL0     H23969   9.143   9.797  10.028 -0.0119  2.0418  0.7652
  178MOL0     H23970   9.247   9.945  10.018 -0.1937 -0.4767  1.8912
  178MOL0     H23971   9.338   9.676   9.922 -0.3868  0.7641  0.0157
  178MOL0     H23972   9.407   9.817   9.864  2.5761 -0.9589  0.9893
  178MOL0     H23973   9.402   9.863  10.150 -0.4229 -2.1800  2.2322
  178MOL0     H23974   9.374   9.693  10.147  1.1140 -2.8005 -2.7027
  178MOL0     H23975   9.569   9.638  10.021  2.6018 -0.5860  1.9035
  178MOL0     H23976   9.611   9.818  10.001 -0.8751 -0.0608 -0.5210
  178MOL0     H23977   9.556   9.699  10.270 -0.6630  2.9179  2.2202
  178MOL0     H23978   9.628   9.851  10.241  3.4692  0.3366  0.9042
  178MOL0     H23979   9.775   9.698  10.327 -2.8751  0.7302  0.4240
  178MOL0     H23980   9.739   9.566  10.212 -1.2307 -0.0600 -0.6508
  178MOL0     H23981   9.804   9.607   9.935 -0.6153 -0.0979  1.4063
  178MOL0     H23982  10.025   9.614   9.786  1.9744 -0.0069 -2.7940
  178MOL0     H23983   9.961   9.783   9.752 -1.0830  2.1659  2.3287
  178MOL0     H23984  10.188   9.869   9.830 -1.5741  1.8776 -1.4486
  178MOL0     H23985  10.226   9.705   9.851 -0.5255  0.2379  0.6383
  178MOL0     H23986  10.154   9.793   9.560 -2.3060 -0.9132  0.8653
  178MOL0     H23987  10.211   9.643   9.618 -0.4781 -0.2421 -0.9122
  178MOL0     H23988  10.403   9.746   9.524 -0.1426 -0.7868 -0.7518
  178MOL0     H23989  10.427   9.714   9.700 -1.4697 -0.3058  0.2323
  178MOL0     H23990  10.479  10.156   9.683  0.4384  1.0538 -1.6288
  178MOL0     H23991  10.680  10.255   9.643 -0.7862  0.3283  0.6922
  178MOL0     H23992  11.148  10.179   9.710  1.3952 -0.4923 -0.5073
  178MOL0     H23993  11.376  10.284   9.692  1.6095  1.1905 -1.1594
  178MOL0     H23994  11.555  10.385   9.652 -0.5919  1.7076  1.1412
  178MOL0     H23995  11.509  10.370   9.475 -0.4812 -1.7798  0.1532
  178MOL0     H23996  11.627  10.575   9.422  2.6834  0.4433 -0.6347
  178MOL0     H23997  11.689  10.572   9.593  2.6074 -0.9998  0.0202
  178MOL0     H23998  11.793  10.354   9.546 -2.4367  0.5507  0.1598
  178MOL0     H23999  11.733  10.365   9.381 -1.6251  1.6166 -0.6794
  178MOL0     H24000  11.889  10.578   9.363  1.2019  1.2059 -0.0248
  178MOL0     H24001  11.974  10.424   9.398  0.4001  0.8848 -1.5006
  178MOL0     H24002  11.944  10.499   9.650  2.0195  0.0906  0.9512
  178MOL0     H24003  11.936  10.665   9.564  1.5688  0.8190 -4.1986
  178MOL0     H24004  12.178  10.478   9.550  0.7566  0.3648 -0.6041
  178MOL0     H24005  12.169  10.636   9.495  2.6649 -0.4303 -0.2659
  178MOL0     H24006  12.167  10.542   9.780 -0.0283 -0.8411 -1.0139
  178MOL0     H24007  12.098  10.706   9.750 -1.3548 -1.5784  0.6935
  178MOL0     H24008  12.326  10.763   9.654 -2.2069 -0.0281 -0.3254
  178MOL0     H24009  12.314  10.705   9.823 -1.0230 -0.2069  0.1007
  178MOL0     H24010  11.197  10.617   9.503 -0.9457 -0.5667 -1.9669
  178MOL0     H24011  10.981  10.519   9.511  0.2339  1.2203  2.7849
  178MOL0     H24012  10.846   9.861   9.538 -1.9960 -1.5175 -1.8724
  178MOL0     H24013  10.633   9.778   9.556  1.3203  0.2513 -2.1299
  178MOL0     H24014   8.712   9.710   9.968  0.3581  1.4807  1.3003
  178MOL0     H24015   8.458   9.785   9.971  0.3122 -0.7100 -0.4421
  178MOL0     H24016   8.170  10.078  10.016 -1.0276  4.7250  2.2388
  178MOL0     H24017   7.939  10.151  10.054  0.6592  0.5144  0.5277
  178MOL0     H24018   7.639  10.114   9.735  2.1745 -2.0228  0.2224
  178MOL0     H24019   7.697  10.276   9.714 -1.3609 -0.8487 -0.9539
  178MOL0     H24020   7.459  10.274   9.769  0.0365  2.1293  0.3180
  178MOL0     H24021   7.541  10.352   9.901 -0.0865  0.0813 -0.2420
  178MOL0     H24022   7.540  10.126  10.015  0.8094 -2.4169 -2.3344
  178MOL0     H24023   7.445  10.056   9.885  1.2400  0.7302 -0.7984
  178MOL0     H24024   7.295  10.126  10.073  0.3657  1.1097  0.2548
  178MOL0     H24025   7.308  10.290  10.040  0.3381 -0.6538  0.1204
  178MOL0     H24026   7.099  10.174   9.700  0.6350 -1.9781 -0.5707
  178MOL0     H24027   7.850  10.146   9.633  1.1931 -0.8505 -3.3049
  178MOL0     H24028   8.077   9.971   9.517 -0.0244  0.0224  1.8999
  178MOL0     H24029   8.059  10.149   9.499 -0.1163 -0.1758 -0.0922
  178MOL0     H24030   8.218  10.080   9.542  0.6861  0.3606 -0.2750
  179MOL0     O24031  11.162   7.016   2.160  0.3525  0.7128  0.0816
  179MOL0     C24032  11.177   6.902   2.212 -0.0076 -0.9225 -0.2888
  179MOL0     O24033  11.303   6.842   2.234  0.1293 -0.0803 -0.1084
  179MOL0     C24034  11.411   6.906   2.169  0.7783 -0.0905 -0.4614
  179MOL0     C24035  11.485   6.826   2.077  0.2110 -1.2537 -0.0404
  179MOL0     C24036  11.591   6.891   2.012  0.1846  0.8559 -0.7956
  179MOL0     C24037  11.644   7.009   2.062  0.3123 -0.1503  0.3439
  179MOL0     O24038  11.756   7.064   2.000 -0.1451  1.2370  0.5534
  179MOL0     C24039  11.868   6.966   2.001  0.0810 -0.2346  0.7369
  179MOL0     C24040  11.943   6.986   1.872  0.5324 -0.0336 -0.1165
  179MOL0     C24041  11.994   7.120   1.847  0.2943  1.0575 -1.0564
  179MOL0     C24042  12.062   7.126   1.709 -0.5261  0.3885  0.6736
  179MOL0     C24043  12.194   7.200   1.725 -0.4803 -0.3543 -0.2395
  179MOL0     C24044  12.273   7.200   1.592 -0.8978 -0.5814 -0.3848
  179MOL0     C24045  12.398   7.276   1.610 -0.2629 -0.2457 -0.2448
  179MOL0     C24046  12.385   7.422   1.648  1.2783  0.0808  0.1574
  179MOL0     N24047  12.510   7.493   1.650  0.2291  0.2281 -0.1633
  179MOL0     C24048  12.626   7.453   1.692  0.1102 -0.3020 -0.3202
  179MOL0     C24049  12.707   7.563   1.701  0.1174 -0.8148  0.9557
  179MOL0     C24050  12.836   7.553   1.767 -0.0480 -0.0370 -0.2259
  179MOL0     C24051  12.841   7.600   1.916 -0.1333  0.1797  0.2725
  179MOL0     C24052  12.988   7.589   1.965  0.1245  1.1540  0.0062
  179MOL0     C24053  12.995   7.637   2.107 -0.0940 -0.0354  0.3023
  179MOL0     O24054  13.122   7.612   2.164  0.2869 -0.5291  0.1578
  179MOL0     C24055  13.237   7.682   2.136 -0.0380 -0.0059  0.2794
  179MOL0     C24056  13.240   7.794   2.055  0.1476 -0.5678 -0.0954
  179MOL0     C24057  13.361   7.862   2.037 -0.2680 -0.6507 -0.2944
  179MOL0     C24058  13.473   7.823   2.114 -0.4249 -0.6818 -1.0924
  179MOL0     C24059  13.612   7.889   2.088  0.3736  0.3731 -0.7020
  179MOL0     O24060  13.626   7.997   2.010 -0.1111 -0.8131 -0.6036
  179MOL0     C24061  13.715   8.099   2.042  0.1524  0.2445 -0.2094
  179MOL0     C24062  13.729   8.138   2.180  0.0855 -0.4817  0.1736
  179MOL0     C24063  13.829   8.231   2.214 -0.2197 -0.2426 -0.1286
  179MOL0     C24064  13.908   8.300   2.117  0.3784 -0.2522  0.5393
  179MOL0     O24065  14.008   8.396   2.134 -0.1027  0.1409 -0.3932
  179MOL0     C24066  14.041   8.432   2.267  0.8305  0.5757  0.4465
  179MOL0     C24067  14.129   8.550   2.271 -0.6689 -1.0438  0.5042
  179MOL0     C24068  14.268   8.533   2.204 -0.0792 -0.1839 -0.5643
  179MOL0     C24069  14.383   8.626   2.259  0.3532  0.3804 -0.4688
  179MOL0     C24070  14.520   8.568   2.207  0.3350 -0.0470 -0.2654
  179MOL0     C24071  14.641   8.644   2.260 -0.0395  0.4019  0.1398
  179MOL0     C24072  14.777   8.576   2.218 -0.7605 -0.0774 -0.5161
  179MOL0     C24073  14.904   8.647   2.281 -0.5352 -0.3239 -0.2311
  179MOL0    Cl24074  15.053   8.580   2.209 -0.0930  0.3901 -0.5759
  179MOL0     C24075  13.881   8.269   1.980 -0.2736 -0.8548  0.5610
  179MOL0     C24076  13.795   8.168   1.936 -0.2019  0.0716  0.1522
  179MOL0     O24077  13.703   7.832   2.137  0.1777 -0.4953  0.6638
  179MOL0     C24078  13.470   7.709   2.195  0.2683  0.3458 -0.7106
  179MOL0     C24079  13.349   7.644   2.203  0.1223 -0.9634 -0.4170
  179MOL0     N24080  12.633   7.674   1.659  0.0258 -0.0302  0.0062
  179MOL0     N24081  12.511   7.633   1.640 -0.4384 -0.4117  0.4350
  179MOL0     C24082  11.572   7.082   2.151  0.6318 -0.9689  0.2101
  179MOL0     C24083  11.458   7.032   2.208 -0.2971  0.3754 -0.5814
  179MOL0     C24084  11.063   6.823   2.268 -1.4029 -1.2027  0.0203
  179MOL0     C24085  11.084   6.701   2.340 -0.1811  0.5092 -0.1323
  179MOL0     C24086  10.979   6.644   2.410 -0.1369  0.6425  0.4424
  179MOL0     C24087  10.849   6.700   2.408 -0.0596  0.4371  0.0990
  179MOL0     O24088  10.749   6.645   2.485 -0.2159  0.5782 -0.9012
  179MOL0     C24089  10.619   6.712   2.505 -0.1775  0.7366 -1.0273
  179MOL0     C24090  10.514   6.669   2.407  0.0554  0.1034 -0.2876
  179MOL0     C24091  10.371   6.673   2.466  0.3127  0.0281 -0.1643
  179MOL0     C24092  10.259   6.735   2.376  0.4586  1.3140 -0.2898
  179MOL0     C24093  10.253   6.666   2.240  0.3769 -0.4944  0.0646
  179MOL0     C24094  10.264   6.613   2.128 -0.2069  0.2798  0.4873
  179MOL0     C24095  10.829   6.814   2.333 -0.2777  0.9235  1.0265
  179MOL0     C24096  10.928   6.873   2.256 -0.2312  0.5648  0.1103
  179MOL0     C24097  10.880   6.989   2.168  0.4089 -0.2028 -0.1425
  179MOL0     H24098  11.451   6.724   2.068  0.0588 -1.1207 -0.9754
  179MOL0     H24099  11.637   6.840   1.928  1.3639  2.8803 -1.4357
  179MOL0     H24100  11.939   6.975   2.083 -0.0516  0.0282  0.8234
  179MOL0     H24101  11.836   6.864   1.980 -2.4508  0.8903 -1.6449
  179MOL0     H24102  11.882   6.949   1.788  0.0815 -0.2318  0.2952
  179MOL0     H24103  12.023   6.912   1.878 -1.0300 -1.9327 -1.0705
  179MOL0     H24104  12.056   7.153   1.931  1.7704 -2.4979 -0.5853
  179MOL0     H24105  11.909   7.187   1.836 -0.9551 -0.0198  1.3355
  179MOL0     H24106  12.076   7.022   1.679  0.5939  0.1193  2.0512
  179MOL0     H24107  12.006   7.185   1.635 -0.7392  0.7172  1.0924
  179MOL0     H24108  12.184   7.300   1.768  1.8166 -1.2177  2.6077
  179MOL0     H24109  12.249   7.143   1.800  0.0909 -2.4441 -2.1205
  179MOL0     H24110  12.316   7.100   1.576 -1.2424 -1.0595  1.4294
  179MOL0     H24111  12.214   7.236   1.508  1.8119  0.3164 -2.0214
  179MOL0     H24112  12.441   7.263   1.510  0.6098 -2.0233  0.3169
  179MOL0     H24113  12.469   7.217   1.668 -1.4259 -0.4536  1.0389
  179MOL0     H24114  12.309   7.467   1.585  1.1910 -0.8055 -0.3888
  179MOL0     H24115  12.350   7.425   1.752  1.7739 -0.1545  0.3337
  179MOL0     H24116  12.653   7.354   1.726 -2.7885 -0.9071  0.4099
  179MOL0     H24117  12.876   7.452   1.752 -0.2043 -0.0939 -0.2589
  179MOL0     H24118  12.904   7.620   1.714  0.4278 -1.3164 -1.3126
  179MOL0     H24119  12.801   7.702   1.915 -1.6953 -0.3958  0.7513
  179MOL0     H24120  12.778   7.523   1.961 -1.7312  0.7407 -0.9138
  179MOL0     H24121  13.055   7.662   1.919  1.1734  1.7939  2.3564
  179MOL0     H24122  13.039   7.492   1.958  0.2525  1.0527  1.8232
  179MOL0     H24123  12.911   7.586   2.156 -0.1506 -0.5463 -0.3196
  179MOL0     H24124  12.972   7.744   2.104  2.1288  0.4643 -0.8630
  179MOL0     H24125  13.155   7.833   2.000  0.4669  0.2285 -0.0365
  179MOL0     H24126  13.351   7.948   1.971 -3.7352 -0.0743  0.7974
  179MOL0     H24127  13.676   8.089   2.262  0.7158  0.6148  1.2600
  179MOL0     H24128  13.847   8.253   2.319  1.6308 -1.4120 -0.1406
  179MOL0     H24129  13.955   8.460   2.329  0.6828 -1.5079  1.2911
  179MOL0     H24130  14.088   8.346   2.317 -2.2431 -0.5220  1.6896
  179MOL0     H24131  14.073   8.626   2.215  2.0752 -0.1492 -1.2441
  179MOL0     H24132  14.131   8.584   2.375 -3.7220  1.7507 -0.1604
  179MOL0     H24133  14.317   8.440   2.232  0.2757  0.2790  0.4136
  179MOL0     H24134  14.256   8.536   2.096 -1.4320  0.8261 -0.4123
  179MOL0     H24135  14.386   8.623   2.368 -3.6456  0.1257 -0.1898
  179MOL0     H24136  14.361   8.729   2.230  2.3120  0.5209 -1.5537
  179MOL0     H24137  14.524   8.566   2.098  0.3763  1.5333 -0.3266
  179MOL0     H24138  14.526   8.466   2.247 -1.8735  0.1561  0.7561
  179MOL0     H24139  14.637   8.744   2.215 -1.8167  1.1789  1.8897
  179MOL0     H24140  14.624   8.648   2.368 -0.1288  1.0975  0.1010
  179MOL0     H24141  14.789   8.569   2.109  1.1520 -0.3757 -0.3206
  179MOL0     H24142  14.763   8.473   2.252 -2.5534  1.5138  4.4001
  179MOL0     H24143  14.905   8.753   2.256  1.5611 -1.2125 -5.0741
  179MOL0     H24144  14.899   8.631   2.389 -1.5913 -0.3592 -0.2762
  179MOL0     H24145  13.950   8.325   1.918 -2.6740  1.4196 -0.2660
  179MOL0     H24146  13.790   8.143   1.831 -1.9823  2.2416 -0.3541
  179MOL0     H24147  13.560   7.669   2.241 -0.8183  0.1469  1.3298
  179MOL0     H24148  13.337   7.557   2.267 -1.6249 -0.5254 -0.1202
  179MOL0     H24149  11.626   7.168   2.191 -2.5149 -0.5975  4.2917
  179MOL0     H24150  11.410   7.103   2.275  0.6840  0.1956  0.3414
  179MOL0     H24151  11.183   6.661   2.360 -0.1891 -0.1031 -1.2328
  179MOL0     H24152  10.990   6.561   2.478  1.4346  1.3454  1.1136
  179MOL0     H24153  10.641   6.819   2.515  2.2244  0.1646  0.6732
  179MOL0     H24154  10.588   6.682   2.605 -1.8129 -0.1829 -1.7649
  179MOL0     H24155  10.537   6.566   2.378  1.9983  0.7624 -1.2742
  179MOL0     H24156  10.501   6.736   2.321  0.6045  4.2877  2.5522
  179MOL0     H24157  10.368   6.735   2.556 -3.9592 -0.5686  0.3223
  179MOL0     H24158  10.327   6.580   2.503  0.1540 -0.0564 -0.5550
  179MOL0     H24159  10.165   6.721   2.431  1.4867  0.3153  1.2933
  179MOL0     H24160  10.288   6.838   2.358 -0.0989  1.0146 -3.6564
  179MOL0     H24161  10.270   6.578   2.027  0.5689 -0.9260  0.9342
  179MOL0     H24162  10.733   6.863   2.338  1.0531  3.7471  1.1768
  179MOL0     H24163  10.781   6.967   2.126  0.4787  2.3361 -1.9066
  179MOL0     H24164  10.878   7.086   2.218 -0.4528 -0.2774 -0.0132
  179MOL0     H24165  10.943   6.993   2.078 -0.5788 -1.3721 -0.9297
  180MOL0     O24166   1.466  10.251   8.073 -0.1492 -0.3305 -0.6607
  180MOL0     C24167   1.449  10.144   8.020 -1.0139  0.4977  0.4717
  180MOL0     O24168   1.548  10.060   7.984 -0.2281 -0.9810  1.4364
  180MOL0     C24169   1.675  10.106   7.945  0.3883 -0.3011 -0.2755
  180MOL0     C24170   1.778  10.012   7.962 -0.3104 -0.5068 -0.4414
  180MOL0     C24171   1.907  10.053   7.929  0.7164 -0.3570  0.1553
  180MOL0     C24172   1.937  10.174   7.864  0.6515  0.7600 -0.1093
  180MOL0     O24173   2.060  10.218   7.824  0.1955  0.5033  0.3659
  180MOL0     C24174   2.172  10.137   7.844  0.2549 -1.0674  0.5026
  180MOL0     C24175   2.295  10.190   7.776  0.4655  0.3724 -0.1381
  180MOL0     C24176   2.429  10.113   7.798  0.1759  0.2599 -0.2734
  180MOL0     C24177   2.546  10.183   7.730  1.1057 -0.4932 -0.1441
  180MOL0     C24178   2.697  10.147   7.777  0.3170 -0.3270 -0.4396
  180MOL0     C24179   2.808  10.188   7.676 -0.1943  0.4360  0.1797
  180MOL0     C24180   2.953  10.154   7.720 -0.6945 -0.1147 -0.4793
  180MOL0     C24181   2.993  10.008   7.718 -0.0749 -0.5004  0.6928
  180MOL0     N24182   3.127  10.000   7.771  0.2906  0.1792 -0.1422
  180MOL0     C24183   3.247  10.008   7.700  0.7534 -0.2516 -0.2374
  180MOL0     C24184   3.342   9.990   7.783 -0.3618  0.2948  0.1406
  180MOL0     C24185   3.483   9.999   7.757  0.2358  0.6182 -0.4907
  180MOL0     C24186   3.541   9.892   7.660 -0.9564  0.2089  0.4722
  180MOL0     C24187   3.630   9.780   7.733  0.0053 -0.8770 -0.6612
  180MOL0     C24188   3.666   9.669   7.636  0.4206 -0.6862 -0.5972
  180MOL0     O24189   3.774   9.592   7.685  0.5596 -0.3678  0.4970
  180MOL0     C24190   3.908   9.634   7.675 -0.2351  0.8640  0.6172
  180MOL0     C24191   3.957   9.748   7.605  0.5929 -0.4462 -1.0573
  180MOL0     C24192   4.089   9.790   7.607 -0.5120 -0.4725  0.1945
  180MOL0     C24193   4.188   9.719   7.681  0.2823  1.0838  0.3127
  180MOL0     C24194   4.322   9.774   7.702  0.4917  0.1305  0.6229
  180MOL0     O24195   4.333   9.910   7.692 -0.2900 -0.4475 -0.3731
  180MOL0     C24196   4.454   9.974   7.690 -0.2827  0.0645  1.2545
  180MOL0     C24197   4.457  10.107   7.698 -0.6384 -0.7224  0.3285
  180MOL0     C24198   4.576  10.177   7.675 -0.3510 -0.7415  0.2252
  180MOL0     C24199   4.696  10.117   7.635  0.6919  0.2308 -0.9867
  180MOL0     O24200   4.808  10.195   7.620 -0.2260 -0.3235  0.3460
  180MOL0     C24201   4.806  10.325   7.559  0.1836 -0.1701  0.8005
  180MOL0     C24202   4.943  10.374   7.533  0.7290 -0.1654  1.1468
  180MOL0     C24203   4.950  10.526   7.502 -0.1230 -0.2047 -0.9260
  180MOL0     C24204   5.003  10.571   7.370  0.1023  0.2623 -0.8613
  180MOL0     C24205   5.007  10.727   7.362 -0.5092 -0.8603 -0.6660
  180MOL0     C24206   5.050  10.750   7.220 -0.0273  0.5017  0.9421
  180MOL0     C24207   5.032  10.892   7.170 -0.4853  0.3156 -0.8098
  180MOL0     C24208   5.103  10.991   7.269  0.2176  0.7196 -0.0198
  180MOL0    Cl24209   5.277  10.953   7.295 -0.5123 -0.2266  0.0252
  180MOL0     C24210   4.693   9.980   7.635 -1.0997  1.2709  0.0992
  180MOL0     C24211   4.577   9.911   7.648  0.6215  0.0568  0.0743
  180MOL0     O24212   4.409   9.690   7.724  0.8617  0.0501 -0.3926
  180MOL0     C24213   4.142   9.602   7.742  0.7498  0.5666  0.2224
  180MOL0     C24214   4.007   9.558   7.736 -0.7247  0.2674 -0.2355
  180MOL0     N24215   3.290   9.965   7.906  0.1035 -0.7577  0.2273
  180MOL0     N24216   3.162   9.961   7.890  0.4327 -0.3725 -0.6377
  180MOL0     C24217   1.834  10.261   7.848  0.5764 -1.3737  0.2196
  180MOL0     C24218   1.700  10.233   7.885  0.4778  0.6235 -0.4936
  180MOL0     C24219   1.323  10.082   8.000 -0.1758  0.4062  0.7365
  180MOL0     C24220   1.305   9.982   7.898  0.6561 -0.1669  0.1502
  180MOL0     C24221   1.177   9.933   7.871  0.0838 -0.0550 -0.6268
  180MOL0     C24222   1.062   9.969   7.947  0.1084 -0.5667 -0.3143
  180MOL0     O24223   0.936   9.913   7.937  0.0375 -0.4059 -0.2266
  180MOL0     C24224   0.889   9.894   7.803 -0.4598 -0.3356 -0.1953
  180MOL0     C24225   0.761   9.816   7.800  0.4639 -0.7620 -0.3052
  180MOL0     C24226   0.639   9.906   7.836  0.1515 -0.1868  0.2309
  180MOL0     C24227   0.515   9.822   7.870 -0.4930 -0.0071  0.0887
  180MOL0     C24228   0.485   9.722   7.769 -0.0003  0.2594  0.0490
  180MOL0     C24229   0.474   9.633   7.693 -0.4488 -0.3272  0.4788
  180MOL0     C24230   1.087  10.062   8.049 -0.1719 -0.7213 -0.2207
  180MOL0     C24231   1.211  10.114   8.078 -0.3389 -0.3460 -0.8099
  180MOL0     C24232   1.203  10.220   8.183 -1.3593  0.7503  0.3530
  180MOL0     H24233   1.743   9.924   8.014  1.5332 -0.5744  0.7422
  180MOL0     H24234   1.990   9.987   7.954  0.1953 -1.1614 -0.2098
  180MOL0     H24235   2.192  10.136   7.951 -2.4086  0.7756  1.1086
  180MOL0     H24236   2.147  10.041   7.797 -0.0483 -0.2120 -1.1794
  180MOL0     H24237   2.311  10.290   7.818 -0.7980  1.3584 -1.9065
  180MOL0     H24238   2.280  10.201   7.669  0.7329  3.3070  0.0362
  180MOL0     H24239   2.410  10.016   7.751 -3.5635  2.1640 -3.2624
  180MOL0     H24240   2.449  10.109   7.906 -1.5125 -0.5672  0.0331
  180MOL0     H24241   2.537  10.179   7.621 -0.0400 -1.1549 -0.0352
  180MOL0     H24242   2.535  10.291   7.748 -2.8685 -0.7629 -0.1186
  180MOL0     H24243   2.717  10.201   7.870 -2.0180 -0.8108  0.4323
  180MOL0     H24244   2.704  10.038   7.788 -1.0111 -0.5547 -1.4899
  180MOL0     H24245   2.782  10.145   7.579 -3.6146 -1.4480  1.7432
  180MOL0     H24246   2.801  10.295   7.659 -0.9878  0.4454  0.5204
  180MOL0     H24247   2.980  10.199   7.816 -1.2040  1.8649 -1.2195
  180MOL0     H24248   3.017  10.211   7.652  0.7891 -1.4648 -0.2936
  180MOL0     H24249   2.931   9.941   7.779 -0.4804 -0.2551  0.5521
  180MOL0     H24250   2.990   9.964   7.618  2.6601 -2.2224  1.2820
  180MOL0     H24251   3.258  10.035   7.596 -0.2118  3.9947  0.5647
  180MOL0     H24252   3.516  10.099   7.726 -3.5175  2.8450  1.8294
  180MOL0     H24253   3.542   9.972   7.845 -1.0059  0.3515  0.2885
  180MOL0     H24254   3.467   9.822   7.620  0.2387 -1.4969  1.0842
  180MOL0     H24255   3.595   9.941   7.578 -3.5522  0.8370 -0.9451
  180MOL0     H24256   3.562   9.741   7.809  1.7461 -0.9271  0.9341
  180MOL0     H24257   3.718   9.826   7.779 -0.7733  2.8822 -2.5131
  180MOL0     H24258   3.684   9.711   7.536 -0.8237 -0.2048 -0.6398
  180MOL0     H24259   3.578   9.605   7.628  0.8914 -1.3965 -0.1380
  180MOL0     H24260   3.883   9.806   7.552 -2.0301 -0.8146  1.9042
  180MOL0     H24261   4.124   9.871   7.544 -1.4596 -0.3066 -0.1323
  180MOL0     H24262   4.375  10.168   7.735 -1.2539  0.2668 -2.3732
  180MOL0     H24263   4.582  10.282   7.699 -0.5606 -0.6702 -0.0312
  180MOL0     H24264   4.756  10.315   7.463  0.1122  1.2555  0.6625
  180MOL0     H24265   4.757  10.397   7.625 -4.1818 -1.0244 -1.1847
  180MOL0     H24266   5.007  10.348   7.618  1.6026 -2.8691 -0.2428
  180MOL0     H24267   4.984  10.320   7.447 -2.7936  0.6864 -1.2784
  180MOL0     H24268   4.849  10.567   7.513 -0.7134 -1.9693  0.8370
  180MOL0     H24269   5.012  10.571   7.579 -2.2729  2.0656 -0.3726
  180MOL0     H24270   4.933  10.528   7.298 -0.8629 -2.2393  1.3897
  180MOL0     H24271   5.103  10.536   7.348  0.3937  2.0604 -2.6873
  180MOL0     H24272   5.086  10.775   7.421  0.4740 -2.5383 -0.5847
  180MOL0     H24273   4.910  10.771   7.386 -1.0451 -0.7404 -2.8089
  180MOL0     H24274   5.157  10.728   7.212 -0.1847  0.1560 -0.6355
  180MOL0     H24275   5.003  10.686   7.145 -1.9514  0.2034  2.3446
  180MOL0     H24276   4.926  10.914   7.181 -0.5534 -0.0595 -0.7156
  180MOL0     H24277   5.063  10.913   7.067 -0.5964  3.2012 -0.3257
  180MOL0     H24278   5.100  11.094   7.231  1.4643 -0.1381 -2.7203
  180MOL0     H24279   5.054  10.990   7.366 -0.9568  2.5763 -0.5368
  180MOL0     H24280   4.786   9.929   7.609 -1.2140 -0.6500  3.0086
  180MOL0     H24281   4.582   9.804   7.631 -0.4721 -0.1703  1.0635
  180MOL0     H24282   4.208   9.563   7.819  0.6299  0.9955  0.5452
  180MOL0     H24283   3.986   9.470   7.796 -0.2903 -0.8613 -1.6816
  180MOL0     H24284   1.855  10.357   7.804 -2.4012 -1.0915 -0.8584
  180MOL0     H24285   1.617  10.302   7.874 -0.0928 -0.0771 -0.6655
  180MOL0     H24286   1.384   9.949   7.832  0.1079  2.1915 -1.8414
  180MOL0     H24287   1.165   9.849   7.804 -0.5715 -1.2106  0.8629
  180MOL0     H24288   0.971   9.840   7.754 -0.8340 -1.9838  0.9269
  180MOL0     H24289   0.880   9.992   7.755 -0.2286  0.0575  0.5524
  180MOL0     H24290   0.771   9.734   7.872 -1.4333  1.8791  3.2831
  180MOL0     H24291   0.749   9.774   7.700  0.6097 -1.8636  0.1301
  180MOL0     H24292   0.628   9.972   7.750  0.2115 -0.5494 -0.0610
  180MOL0     H24293   0.667   9.975   7.916  2.0378 -0.5676 -0.0479
  180MOL0     H24294   0.510   9.773   7.967 -1.0420 -1.2251 -0.5410
  180MOL0     H24295   0.437   9.899   7.868 -0.5279 -0.0599 -1.2651
  180MOL0     H24296   0.465   9.563   7.612 -3.8933  0.8208 -0.3292
  180MOL0     H24297   0.996  10.082   8.105  1.7847  0.5479  2.7489
  180MOL0     H24298   1.226  10.318   8.139  0.2230  0.1140 -0.3196
  180MOL0     H24299   1.099  10.223   8.219 -2.2459  0.8774 -2.0737
  180MOL0     H24300   1.278  10.200   8.260 -1.2510 -3.5978 -0.6477
  181MOL0     O24301   9.828   1.566   5.310 -0.4786  0.0973  0.4984
  181MOL0     C24302   9.874   1.460   5.358 -0.1702  0.7869 -0.1076
  181MOL0     O24303  10.005   1.418   5.337 -0.1437 -0.1779  0.8406
  181MOL0     C24304  10.087   1.483   5.254  0.5977 -0.1112 -0.5068
  181MOL0     C24305  10.070   1.472   5.109  0.0880 -0.0460 -1.2079
  181MOL0     C24306  10.158   1.540   5.027 -0.1552  0.4608 -0.0502
  181MOL0     C24307  10.266   1.613   5.073  0.3909 -0.6812 -0.3662
  181MOL0     O24308  10.362   1.661   4.987 -0.2295 -0.5531 -0.0067
  181MOL0     C24309  10.323   1.689   4.853  0.7804 -0.4654 -0.0017
  181MOL0     C24310  10.431   1.780   4.787  0.5948  0.4489 -0.6242
  181MOL0     C24311  10.572   1.734   4.775  0.1289  0.6375 -0.1278
  181MOL0     C24312  10.656   1.828   4.704 -0.1684  0.0842 -0.5662
  181MOL0     C24313  10.801   1.762   4.680  0.0053  0.1412 -0.1073
  181MOL0     C24314  10.905   1.862   4.628  0.4488  0.1012 -0.4923
  181MOL0     C24315  11.037   1.772   4.601  0.6693  0.0427 -0.4278
  181MOL0     C24316  11.126   1.850   4.510  0.1525  0.1550 -0.3894
  181MOL0     N24317  11.251   1.766   4.476  0.8854 -0.1699  0.3594
  181MOL0     C24318  11.378   1.823   4.465  0.3450  0.8456 -0.5501
  181MOL0     C24319  11.449   1.717   4.411  0.3230  0.1770 -0.8958
  181MOL0     C24320  11.599   1.732   4.379  0.4259 -0.1082 -0.1085
  181MOL0     C24321  11.626   1.662   4.247  0.8299 -0.0888  0.1676
  181MOL0     C24322  11.769   1.662   4.206 -0.3826  0.1425  0.1835
  181MOL0     C24323  11.858   1.781   4.240  0.0367 -0.2750  0.0488
  181MOL0     O24324  11.816   1.895   4.170  0.3317 -0.2953 -0.1153
  181MOL0     C24325  11.895   2.005   4.171  0.3222  0.2909  0.0080
  181MOL0     C24326  11.939   2.062   4.054  0.9702 -0.3724  0.4254
  181MOL0     C24327  12.041   2.166   4.051 -0.2184  0.9827  0.1593
  181MOL0     C24328  12.099   2.212   4.172 -0.1145  0.1496 -0.1524
  181MOL0     C24329  12.212   2.307   4.172 -0.3326 -0.4339  0.7003
  181MOL0     O24330  12.265   2.324   4.297  0.1008 -0.1313  0.0505
  181MOL0     C24331  12.384   2.389   4.309  0.0937 -0.7056  0.1710
  181MOL0     C24332  12.504   2.334   4.253  0.5939  0.6178 -0.1985
  181MOL0     C24333  12.618   2.406   4.267 -0.0761 -0.7516 -0.2990
  181MOL0     C24334  12.636   2.518   4.354 -0.8366  0.0570 -0.4376
  181MOL0     O24335  12.748   2.589   4.385 -0.5037  0.6596 -0.0856
  181MOL0     C24336  12.880   2.557   4.322  0.0198  0.1202 -0.5076
  181MOL0     C24337  12.991   2.652   4.376  0.5649  0.3543 -0.4775
  181MOL0     C24338  13.114   2.650   4.285 -0.2577  0.1862  0.2997
  181MOL0     C24339  13.221   2.747   4.328 -0.5197 -0.6167 -0.0890
  181MOL0     C24340  13.318   2.787   4.208  1.0006 -0.1026 -0.6601
  181MOL0     C24341  13.389   2.667   4.139  0.8061 -0.4103  0.1627
  181MOL0     C24342  13.481   2.695   4.023  1.4254  0.8086 -0.7602
  181MOL0     C24343  13.591   2.798   4.053  0.1107  0.4921  0.3187
  181MOL0    Cl24344  13.706   2.738   4.177 -0.1794  0.0591 -0.0377
  181MOL0     C24345  12.528   2.562   4.422  0.3890  0.2878  0.5387
  181MOL0     C24346  12.404   2.490   4.402 -0.1613  0.2950 -0.6362
  181MOL0     O24347  12.265   2.345   4.064  0.0837 -0.1565 -0.8262
  181MOL0     C24348  12.057   2.143   4.291  0.1182 -0.0629  0.2568
  181MOL0     C24349  11.957   2.050   4.283  0.3598 -0.2266 -0.8649
  181MOL0     N24350  11.373   1.607   4.423 -0.3491  0.5503 -0.0718
  181MOL0     N24351  11.252   1.636   4.453  0.1754 -0.1527  0.1572
  181MOL0     C24352  10.288   1.629   5.213  0.1872  0.3322  0.2434
  181MOL0     C24353  10.188   1.563   5.307 -0.5146  0.3230  0.2397
  181MOL0     C24354   9.797   1.384   5.467 -0.3541 -0.3851 -0.3275
  181MOL0     C24355   9.825   1.253   5.503  0.0548 -0.8271 -0.0858
  181MOL0     C24356   9.742   1.180   5.591 -1.2562 -0.4088 -0.1328
  181MOL0     C24357   9.649   1.239   5.667  0.7845  0.9999 -0.2345
  181MOL0     O24358   9.594   1.149   5.762  0.0456 -0.2382  0.4724
  181MOL0     C24359   9.506   1.205   5.860  0.7653 -0.2032  0.6929
  181MOL0     C24360   9.360   1.226   5.817  0.4549 -0.1985  0.6132
  181MOL0     C24361   9.286   1.094   5.785  0.0199 -0.4946  0.0166
  181MOL0     C24362   9.216   1.021   5.903 -0.4254  0.3984  0.2775
  181MOL0     C24363   9.084   1.079   5.929  0.0224  0.3030 -0.4364
  181MOL0     C24364   8.975   1.138   5.924  0.4578  0.2149 -0.2767
  181MOL0     C24365   9.618   1.375   5.647  0.0907  0.2868  0.2317
  181MOL0     C24366   9.689   1.448   5.543  0.4613 -0.2344 -0.9513
  181MOL0     C24367   9.672   1.595   5.547 -0.2216  0.6574 -0.3748
  181MOL0     H24368   9.984   1.411   5.082 -1.6781  1.1401  1.3604
  181MOL0     H24369  10.144   1.522   4.921  1.8084  0.2155 -0.3081
  181MOL0     H24370  10.306   1.599   4.794 -3.2234 -0.0256  0.2280
  181MOL0     H24371  10.227   1.741   4.852  0.3504 -1.2191  0.7471
  181MOL0     H24372  10.430   1.881   4.828  0.7342 -0.3237  1.3989
  181MOL0     H24373  10.385   1.798   4.689  0.4450  0.5688 -0.5317
  181MOL0     H24374  10.571   1.644   4.713 -1.8256  1.3345 -1.1975
  181MOL0     H24375  10.612   1.717   4.875  2.7194 -3.2420 -1.5667
  181MOL0     H24376  10.614   1.874   4.615 -1.1032 -0.7242 -0.5625
  181MOL0     H24377  10.682   1.903   4.779  0.0047 -0.8881  0.3881
  181MOL0     H24378  10.837   1.728   4.778  0.3751 -1.1574 -0.6834
  181MOL0     H24379  10.790   1.672   4.619  0.9226 -1.2129  1.6198
  181MOL0     H24380  10.869   1.918   4.542  0.2963  0.3625 -0.2597
  181MOL0     H24381  10.935   1.933   4.706 -1.4312  0.3914  0.0211
  181MOL0     H24382  11.009   1.679   4.551 -1.6416  0.6821 -0.4490
  181MOL0     H24383  11.087   1.750   4.695 -2.6998 -1.8045  1.0999
  181MOL0     H24384  11.072   1.866   4.416 -0.3752  1.5110  0.1334
  181MOL0     H24385  11.154   1.947   4.551  2.9698 -0.8273  0.2757
  181MOL0     H24386  11.408   1.925   4.484 -0.7504  0.6619  2.6501
  181MOL0     H24387  11.648   1.829   4.390  1.6482 -0.5507 -1.3452
  181MOL0     H24388  11.648   1.663   4.448  0.5823 -2.1796 -2.1495
  181MOL0     H24389  11.587   1.560   4.246  0.6614 -0.0234 -0.4672
  181MOL0     H24390  11.557   1.699   4.171 -2.3031 -2.6942  1.5333
  181MOL0     H24391  11.772   1.632   4.101 -1.0650 -1.9550  0.7059
  181MOL0     H24392  11.821   1.580   4.258  0.8977 -0.1891 -1.5331
  181MOL0     H24393  11.963   1.763   4.212  0.6976  3.4549 -0.4518
  181MOL0     H24394  11.853   1.807   4.346 -0.7206  0.8854 -0.2597
  181MOL0     H24395  11.910   2.024   3.957 -0.7963  1.7268  0.0446
  181MOL0     H24396  12.075   2.210   3.958  2.8645 -0.1840  0.6101
  181MOL0     H24397  12.497   2.245   4.190 -1.4616  0.6221 -0.0518
  181MOL0     H24398  12.711   2.365   4.228 -0.4446  0.5214 -2.7096
  181MOL0     H24399  12.915   2.456   4.346  2.1125  1.1548  1.0885
  181MOL0     H24400  12.874   2.571   4.214  0.3637 -1.4339 -0.7556
  181MOL0     H24401  12.951   2.753   4.377  2.1759  1.1129 -2.9714
  181MOL0     H24402  13.019   2.602   4.470  3.1192  2.2407 -0.1156
  181MOL0     H24403  13.160   2.551   4.278  1.2484  0.8118  0.8827
  181MOL0     H24404  13.086   2.688   4.187 -1.0563  3.4491  1.6636
  181MOL0     H24405  13.273   2.713   4.419 -0.8620  0.3464  0.4850
  181MOL0     H24406  13.179   2.847   4.345  0.8010 -0.1846  0.8148
  181MOL0     H24407  13.388   2.863   4.245 -0.5226  1.5492 -1.0127
  181MOL0     H24408  13.260   2.831   4.127  0.2491  0.2623  0.0551
  181MOL0     H24409  13.445   2.612   4.215  0.9880  1.2864  1.3051
  181MOL0     H24410  13.312   2.607   4.089  0.9411  2.5413 -4.0429
  181MOL0     H24411  13.405   2.739   3.958 -0.6127  0.7790  1.4843
  181MOL0     H24412  13.510   2.599   3.978 -0.3532  0.6185 -1.5975
  181MOL0     H24413  13.633   2.815   3.953 -3.9918 -1.2543 -1.9709
  181MOL0     H24414  13.550   2.891   4.093  0.1064  0.4504  0.4106
  181MOL0     H24415  12.533   2.643   4.495 -1.2971 -0.6444  1.7671
  181MOL0     H24416  12.322   2.518   4.468 -0.7382 -3.1445  0.2572
  181MOL0     H24417  12.094   2.179   4.387  1.3778  1.5687 -0.7668
  181MOL0     H24418  11.907   2.010   4.371  0.5649 -1.4711 -1.2842
  181MOL0     H24419  10.372   1.687   5.248  1.5640 -1.0152 -0.7294
  181MOL0     H24420  10.196   1.567   5.415 -0.9955 -1.3292  0.3514
  181MOL0     H24421   9.894   1.198   5.440 -0.5462  0.6556 -2.1595
  181MOL0     H24422   9.762   1.074   5.599  3.0749  0.3437  1.7453
  181MOL0     H24423   9.547   1.299   5.897  1.7638  1.1040 -3.2731
  181MOL0     H24424   9.509   1.129   5.940 -1.0137  0.5985  1.5759
  181MOL0     H24425   9.358   1.282   5.723  2.0344 -0.8838  0.1324
  181MOL0     H24426   9.305   1.278   5.896 -1.8402 -2.3549  0.5311
  181MOL0     H24427   9.356   1.023   5.740  4.0290  1.3727  2.7702
  181MOL0     H24428   9.205   1.114   5.713 -0.7853  0.5234  1.1599
  181MOL0     H24429   9.209   0.912   5.900 -0.9826  0.3498  2.0467
  181MOL0     H24430   9.281   1.041   5.989 -1.1638 -0.9117  1.1794
  181MOL0     H24431   8.887   1.198   5.927 -1.3577 -2.3340  0.9000
  181MOL0     H24432   9.552   1.425   5.717 -0.7424 -0.3281 -0.1042
  181MOL0     H24433   9.763   1.644   5.584  0.2144  0.6690 -1.4176
  181MOL0     H24434   9.636   1.632   5.450  1.0341  1.3519 -0.6073
  181MOL0     H24435   9.596   1.616   5.622 -1.7359 -3.0465 -0.6835
  182MOL0     O24436   2.043  10.957   5.011 -0.0458  0.3307  0.3698
  182MOL0     C24437   2.144  10.883   5.002  0.6267  0.2788 -0.3760
  182MOL0     O24438   2.172  10.787   5.094  0.2564  0.3985 -0.5804
  182MOL0     C24439   2.083  10.756   5.198 -0.2478  0.4707 -0.3158
  182MOL0     C24440   2.128  10.774   5.326  1.5773 -0.1648 -0.3412
  182MOL0     C24441   2.034  10.757   5.432  0.4536  0.4327  0.1228
  182MOL0     C24442   1.905  10.712   5.418 -0.5108  1.2756 -0.5213
  182MOL0     O24443   1.815  10.691   5.516 -0.3703  0.4332  0.1332
  182MOL0     C24444   1.861  10.665   5.652  0.2252 -0.4280  0.1956
  182MOL0     C24445   1.917  10.526   5.650  0.0212  0.1531  0.4080
  182MOL0     C24446   1.925  10.459   5.786 -0.0580 -0.6808 -0.7915
  182MOL0     C24447   1.804  10.377   5.817  0.2656  0.3516  0.4290
  182MOL0     C24448   1.784  10.334   5.970  0.1514 -0.4845  0.8403
  182MOL0     C24449   1.763  10.454   6.073  0.1455  0.0561  0.0096
  182MOL0     C24450   1.771  10.392   6.210  0.3117 -0.2622 -0.3245
  182MOL0     C24451   1.736  10.501   6.315  0.0741 -0.2087 -0.5181
  182MOL0     N24452   1.849  10.597   6.324 -0.7505 -0.3269 -0.5005
  182MOL0     C24453   1.838  10.732   6.304  0.8598  0.0866 -0.1881
  182MOL0     C24454   1.964  10.777   6.325  0.3500 -0.8007  0.2480
  182MOL0     C24455   2.013  10.921   6.313 -0.0861  0.2534 -0.5348
  182MOL0     C24456   2.001  10.981   6.169  0.7072  0.3664  0.0501
  182MOL0     C24457   2.097  10.903   6.067 -0.3291 -0.0177 -0.1120
  182MOL0     C24458   2.059  10.936   5.921 -0.0812 -0.5389  1.0897
  182MOL0     O24459   2.125  10.866   5.815  0.8813 -0.3495  0.6613
  182MOL0     C24460   2.257  10.900   5.784 -0.0479  0.7347 -0.8558
  182MOL0     C24461   2.328  11.004   5.846  0.4360  0.6100 -0.5556
  182MOL0     C24462   2.460  11.033   5.823 -0.9737 -0.2797 -0.5140
  182MOL0     C24463   2.532  10.958   5.727 -0.2136  0.4459  0.9565
  182MOL0     C24464   2.677  10.988   5.708 -0.2446  0.3594  0.0066
  182MOL0     O24465   2.743  11.057   5.800  0.7128  0.1909 -0.6316
  182MOL0     C24466   2.878  11.055   5.820  0.2885  0.1520  0.0198
  182MOL0     C24467   2.966  11.091   5.713 -0.6351 -0.2912 -0.0046
  182MOL0     C24468   3.104  11.101   5.739 -0.6915  0.1198 -0.4474
  182MOL0     C24469   3.154  11.079   5.872  0.6891 -0.1793  0.2588
  182MOL0     O24470   3.286  11.092   5.906 -0.0903 -0.5515  0.0915
  182MOL0     C24471   3.384  11.139   5.813  0.2008  0.4509  0.5858
  182MOL0     C24472   3.524  11.127   5.869 -0.7735 -1.0531  0.1829
  182MOL0     C24473   3.524  11.209   5.995 -0.4550 -0.3543 -0.4155
  182MOL0     C24474   3.536  11.358   5.959  0.0577  1.2088  0.2380
  182MOL0     C24475   3.551  11.440   6.086 -0.2005  0.2315 -0.2274
  182MOL0     C24476   3.603  11.582   6.055  0.6607  0.4491  0.1617
  182MOL0     C24477   3.614  11.656   6.187 -0.4115 -0.4299 -0.6245
  182MOL0     C24478   3.734  11.612   6.264  0.6484  0.7619  0.2842
  182MOL0    Cl24479   3.731  11.707   6.411  0.1347 -0.4662  0.2766
  182MOL0     C24480   3.067  11.033   5.970  1.0156 -0.9955  0.3916
  182MOL0     C24481   2.928  11.023   5.942 -0.6016  0.1716  0.1708
  182MOL0     O24482   2.730  10.930   5.611 -0.7783  0.8637  0.0282
  182MOL0     C24483   2.468  10.853   5.669 -0.3156 -0.8257 -0.2546
  182MOL0     C24484   2.330  10.826   5.697 -0.6513  0.3465  1.4168
  182MOL0     N24485   2.057  10.680   6.352 -0.3789  0.2567 -0.2239
  182MOL0     N24486   1.982  10.574   6.365  0.9494  0.5750 -0.3462
  182MOL0     C24487   1.870  10.680   5.287  0.0872 -0.3365 -0.8532
  182MOL0     C24488   1.955  10.696   5.182 -0.1245 -0.3758 -0.6126
  182MOL0     C24489   2.250  10.909   4.905  0.0432 -0.3208 -0.5672
  182MOL0     C24490   2.375  10.832   4.932  0.8476  0.2214  0.5777
  182MOL0     C24491   2.479  10.865   4.850 -0.2077 -0.4814  0.9705
  182MOL0     C24492   2.482  10.963   4.752 -0.9824  0.2839  0.2709
  182MOL0     O24493   2.589  10.991   4.676 -0.5228  0.2360 -0.3388
  182MOL0     C24494   2.635  10.898   4.575  0.3942  0.9754 -1.0508
  182MOL0     C24495   2.716  10.963   4.473  0.8487 -0.0609 -0.5173
  182MOL0     C24496   2.643  11.067   4.388 -0.1289 -0.0460  0.1386
  182MOL0     C24497   2.725  11.118   4.266 -0.2999  0.3384 -0.3452
  182MOL0     C24498   2.760  11.019   4.162  0.0532  0.6213  0.7615
  182MOL0     C24499   2.789  10.919   4.094  0.2713 -0.0630  0.0614
  182MOL0     C24500   2.364  11.034   4.735  0.0819 -0.3918  0.0093
  182MOL0     C24501   2.249  11.009   4.808  0.4618 -0.4266  0.8606
  182MOL0     C24502   2.134  11.105   4.776 -0.0478 -0.7824 -0.5982
  182MOL0     H24503   2.225  10.821   5.338  0.8603  1.3292 -0.1738
  182MOL0     H24504   2.076  10.765   5.532  1.4493 -3.0155  0.0981
  182MOL0     H24505   1.940  10.734   5.682  1.2800 -0.9224 -1.3231
  182MOL0     H24506   1.775  10.671   5.719 -0.0123  1.3675 -0.2112
  182MOL0     H24507   2.019  10.536   5.613 -0.6540  0.4276 -1.4878
  182MOL0     H24508   1.871  10.461   5.576  0.5759 -0.6681  0.7790
  182MOL0     H24509   1.934  10.532   5.866 -2.9496 -1.8285  0.7518
  182MOL0     H24510   2.013  10.395   5.790 -0.0341 -0.6624 -0.9904
  182MOL0     H24511   1.714  10.435   5.794 -1.9092 -3.0047 -0.3203
  182MOL0     H24512   1.802  10.297   5.743 -1.4619 -1.2635  2.0985
  182MOL0     H24513   1.694  10.271   5.972 -0.6641  0.5963 -0.0957
  182MOL0     H24514   1.869  10.277   6.008  0.3557  1.6246  3.8126
  182MOL0     H24515   1.848  10.521   6.059 -1.2523  1.3572 -3.3702
  182MOL0     H24516   1.665  10.502   6.061  0.0584 -0.3897 -1.3042
  182MOL0     H24517   1.872  10.357   6.234  0.3569 -0.1667 -0.3733
  182MOL0     H24518   1.698  10.312   6.222  0.7085 -0.3192  2.3029
  182MOL0     H24519   1.645  10.557   6.290 -1.3161 -2.3475 -0.5176
  182MOL0     H24520   1.717  10.440   6.404  0.8790 -2.7987 -2.0149
  182MOL0     H24521   1.751  10.797   6.302 -1.1784 -2.5275 -1.0333
  182MOL0     H24522   1.933  10.970   6.369 -2.5090 -2.6245 -1.2376
  182MOL0     H24523   2.111  10.928   6.360  0.1479  0.4289 -1.0435
  182MOL0     H24524   1.903  10.960   6.126  2.8597 -2.1145 -4.3953
  182MOL0     H24525   2.016  11.089   6.157 -3.6682  0.8972 -3.0670
  182MOL0     H24526   2.099  10.795   6.081  1.4005  0.0167  0.2039
  182MOL0     H24527   2.200  10.940   6.077  0.5036 -1.2087 -3.3138
  182MOL0     H24528   2.067  11.043   5.903  0.0396 -0.5957  0.8033
  182MOL0     H24529   1.954  10.912   5.901 -0.0356  1.2253 -1.7320
  182MOL0     H24530   2.282  11.066   5.923 -0.1931 -2.7752  2.0238
  182MOL0     H24531   2.507  11.118   5.873 -0.6239 -0.6584 -0.1932
  182MOL0     H24532   2.928  11.104   5.612  0.5013  1.5195 -0.2436
  182MOL0     H24533   3.178  11.115   5.661  2.8383  1.1111  2.7824
  182MOL0     H24534   3.379  11.069   5.729  0.6450  1.3404 -0.2016
  182MOL0     H24535   3.354  11.237   5.775  0.1912 -0.0002 -0.6133
  182MOL0     H24536   3.546  11.022   5.891  0.6300 -0.4287  1.9720
  182MOL0     H24537   3.606  11.163   5.807  1.7307 -3.4776  1.8350
  182MOL0     H24538   3.444  11.183   6.065 -0.0568 -0.2643  0.0799
  182MOL0     H24539   3.620  11.187   6.044  1.1118 -2.6479 -4.0710
  182MOL0     H24540   3.450  11.394   5.901 -0.9852  2.5005  2.4536
  182MOL0     H24541   3.626  11.373   5.900 -0.2957 -0.4012 -0.7847
  182MOL0     H24542   3.629  11.391   6.144 -0.7296  0.8830  1.0799
  182MOL0     H24543   3.462  11.440   6.150 -0.1002  2.0053 -0.0249
  182MOL0     H24544   3.697  11.586   6.000  0.8839  2.5216  0.6134
  182MOL0     H24545   3.524  11.634   5.998 -0.1434 -1.2083 -0.3002
  182MOL0     H24546   3.518  11.661   6.240 -0.6244  0.5352 -1.0698
  182MOL0     H24547   3.635  11.758   6.155  0.7810 -1.2223 -2.5458
  182MOL0     H24548   3.731  11.506   6.288  2.3751  0.4921 -0.5549
  182MOL0     H24549   3.825  11.623   6.204 -0.3367  1.0737 -1.2061
  182MOL0     H24550   3.111  11.004   6.065 -0.0418  0.0128  1.2246
  182MOL0     H24551   2.867  10.986   6.024  1.6415 -5.2060 -0.1642
  182MOL0     H24552   2.532  10.792   5.606 -0.5502 -0.8621 -0.4591
  182MOL0     H24553   2.291  10.733   5.658  0.7552  0.8731 -1.5192
  182MOL0     H24554   1.766  10.651   5.271  0.2329 -0.5508 -1.4500
  182MOL0     H24555   1.933  10.666   5.080  5.1201 -2.4920 -1.4606
  182MOL0     H24556   2.392  10.756   5.008 -1.6920 -0.5441  0.4907
  182MOL0     H24557   2.578  10.826   4.869  1.3195  3.3343  1.7456
  182MOL0     H24558   2.549  10.844   4.533  1.5014 -2.4478  0.6920
  182MOL0     H24559   2.694  10.820   4.625  0.8545  1.3394 -1.0294
  182MOL0     H24560   2.755  10.881   4.413  1.3928 -0.1405 -0.0587
  182MOL0     H24561   2.797  11.006   4.532 -1.3681  2.0971  1.1821
  182MOL0     H24562   2.608  11.156   4.441 -2.9547 -0.6895 -0.5048
  182MOL0     H24563   2.548  11.030   4.349 -1.0919  1.3530  1.0661
  182MOL0     H24564   2.673  11.205   4.225 -1.3681  0.7432  1.7294
  182MOL0     H24565   2.825  11.146   4.301 -0.6086  2.7623 -1.2273
  182MOL0     H24566   2.815  10.834   4.035 -0.7063 -0.2166 -0.1717
  182MOL0     H24567   2.357  11.106   4.654 -1.3235 -1.7356 -1.1322
  182MOL0     H24568   2.152  11.182   4.700 -0.2143 -1.7320 -1.6196
  182MOL0     H24569   2.053  11.043   4.737  0.6000 -1.6110 -0.6553
  182MOL0     H24570   2.103  11.157   4.868  0.1650 -0.3884 -0.7455
  183MOL0     O24571  10.165   3.731   1.232  0.1736 -0.9330  0.3259
  183MOL0     C24572  10.100   3.727   1.126  0.3026  0.1510  0.0789
  183MOL0     O24573  10.151   3.672   1.011 -0.1139  0.1684  1.5572
  183MOL0     C24574  10.283   3.659   1.015 -0.2923 -0.2067 -0.2642
  183MOL0     C24575  10.338   3.541   1.046 -0.3785  1.1268  0.0694
  183MOL0     C24576  10.477   3.511   1.032 -0.1296  0.4876 -0.6818
  183MOL0     C24577  10.563   3.613   0.997 -0.4765  0.2177 -0.6080
  183MOL0     O24578  10.697   3.578   0.987 -0.5698  0.3528 -0.2666
  183MOL0     C24579  10.792   3.683   0.984 -0.5609  0.0507 -0.4071
  183MOL0     C24580  10.825   3.716   0.837  0.1468  0.1307 -0.1960
  183MOL0     C24581  10.928   3.818   0.818 -0.4709 -0.1132 -0.6673
  183MOL0     C24582  10.976   3.821   0.674  0.7586  0.1934  0.2686
  183MOL0     C24583  11.064   3.946   0.659 -0.0030 -0.0628 -0.0430
  183MOL0     C24584  11.136   3.947   0.520  0.0712  0.6990  1.0712
  183MOL0     C24585  11.188   4.074   0.468  0.0884 -0.8026 -0.0880
  183MOL0     C24586  11.300   4.132   0.556 -0.5870  0.2778  0.7210
  183MOL0     N24587  11.323   4.272   0.500 -1.1776  0.8050  0.2702
  183MOL0     C24588  11.414   4.300   0.395  0.7751  0.9920  0.2746
  183MOL0     C24589  11.419   4.437   0.389 -0.3610 -0.3184  0.2981
  183MOL0     C24590  11.523   4.531   0.325 -0.2696  0.0087 -0.1147
  183MOL0     C24591  11.619   4.568   0.435 -0.2957 -0.9797 -0.1300
  183MOL0     C24592  11.734   4.655   0.379 -0.3309 -0.4612 -0.2847
  183MOL0     C24593  11.817   4.718   0.481  0.6403  0.4509 -0.5581
  183MOL0     O24594  11.745   4.836   0.537 -0.0626  0.2222 -0.3207
  183MOL0     C24595  11.799   4.875   0.654  0.8172  0.4040  0.2096
  183MOL0     C24596  11.714   4.948   0.737  0.4571  0.7525 -0.0735
  183MOL0     C24597  11.761   4.999   0.857 -0.0942 -0.3074 -0.2997
  183MOL0     C24598  11.897   4.991   0.899  0.2486  0.3250 -0.7988
  183MOL0     C24599  11.943   5.066   1.019  0.1971  0.8649 -0.3611
  183MOL0     O24600  11.867   5.171   1.061 -0.4534  0.5527  0.1159
  183MOL0     C24601  11.908   5.238   1.174 -0.2422 -0.7788 -0.5841
  183MOL0     C24602  11.826   5.240   1.289  0.0640 -0.1670 -0.0207
  183MOL0     C24603  11.859   5.319   1.402  0.5886 -0.0297 -0.7430
  183MOL0     C24604  11.978   5.396   1.408  0.3740  0.4381 -0.5105
  183MOL0     O24605  12.016   5.462   1.516  0.1713 -0.2412 -0.6424
  183MOL0     C24606  11.911   5.536   1.585 -1.2071  0.5215 -0.1545
  183MOL0     C24607  11.974   5.638   1.682 -0.5183 -0.1923  0.2277
  183MOL0     C24608  11.874   5.725   1.755  0.1552  0.4771 -0.0349
  183MOL0     C24609  11.759   5.643   1.826 -0.3207 -0.0698  0.1152
  183MOL0     C24610  11.667   5.721   1.916 -0.8321  0.5822  0.6266
  183MOL0     C24611  11.740   5.765   2.050  0.2476 -0.0117  0.5552
  183MOL0     C24612  11.640   5.832   2.141  0.7561 -0.5307 -0.5499
  183MOL0     C24613  11.691   5.983   2.154  0.5095 -0.2324  0.6940
  183MOL0    Cl24614  11.676   6.070   1.991 -0.3502  0.3400 -0.2367
  183MOL0     C24615  12.059   5.394   1.294 -0.0801 -0.7587  0.1210
  183MOL0     C24616  12.027   5.314   1.183  0.2464 -0.1565 -0.5107
  183MOL0     O24617  12.061   5.040   1.057  0.0801 -0.2596 -0.0830
  183MOL0     C24618  11.973   4.905   0.818  0.0518 -0.2503 -0.2885
  183MOL0     C24619  11.926   4.843   0.704  0.0427  0.7759 -0.5317
  183MOL0     N24620  11.326   4.491   0.480 -0.0269  0.2664 -0.3362
  183MOL0     N24621  11.277   4.393   0.550 -0.4307  0.8140 -0.2413
  183MOL0     C24622  10.510   3.735   0.965  0.0802  0.1544  0.1290
  183MOL0     C24623  10.369   3.761   0.979  0.0862 -0.4381  0.9510
  183MOL0     C24624   9.954   3.764   1.125  0.7679 -1.0009 -0.4014
  183MOL0     C24625   9.868   3.710   1.027  0.6676 -0.4880 -0.4077
  183MOL0     C24626   9.738   3.744   1.025  0.0768  0.2335 -0.5003
  183MOL0     C24627   9.683   3.825   1.120 -0.1837  0.5137 -0.4070
  183MOL0     O24628   9.550   3.832   1.101  0.8370 -0.0700 -0.3301
  183MOL0     C24629   9.467   3.906   1.198 -0.4369 -0.5802  0.2849
  183MOL0     C24630   9.327   3.915   1.161  0.1463  0.4270  0.1524
  183MOL0     C24631   9.259   3.779   1.192 -0.8050  0.0763  0.1266
  183MOL0     C24632   9.109   3.802   1.165 -1.4819  0.4594 -0.2012
  183MOL0     C24633   9.040   3.677   1.204  0.2453 -0.8474  0.4021
  183MOL0     C24634   8.966   3.589   1.229  0.0749  0.4859  0.7129
  183MOL0     C24635   9.761   3.881   1.219  0.2460  0.8209 -0.1993
  183MOL0     C24636   9.902   3.857   1.219  0.3069 -0.3155 -0.0650
  183MOL0     C24637   9.980   3.932   1.321  0.0528 -0.1089  0.0423
  183MOL0     H24638  10.265   3.461   1.053  0.8238 -0.3584 -2.7448
  183MOL0     H24639  10.514   3.411   1.053  1.8431  1.2760 -0.1984
  183MOL0     H24640  10.767   3.771   1.044  1.7683  1.4042 -1.2783
  183MOL0     H24641  10.885   3.642   1.027  0.4419 -0.0588 -2.5759
  183MOL0     H24642  10.730   3.753   0.796  0.1637  0.1361 -0.2293
  183MOL0     H24643  10.844   3.626   0.779 -0.2819 -0.1163  0.0365
  183MOL0     H24644  11.016   3.800   0.881  0.9001  0.9677 -2.2018
  183MOL0     H24645  10.884   3.912   0.853  2.4625  1.2866 -0.4213
  183MOL0     H24646  11.034   3.734   0.643  0.5749 -1.0912  3.1581
  183MOL0     H24647  10.888   3.823   0.610  1.0196  2.0468 -0.0776
  183MOL0     H24648  10.999   4.033   0.671  1.0082  0.6468  0.5412
  183MOL0     H24649  11.136   3.949   0.742  0.0556 -0.1946 -0.0897
  183MOL0     H24650  11.224   3.881   0.520 -1.6393 -1.7160  1.1749
  183MOL0     H24651  11.064   3.902   0.451  2.3944 -0.9860 -0.3880
  183MOL0     H24652  11.105   4.145   0.466  1.7669  1.2478 -1.1830
  183MOL0     H24653  11.230   4.064   0.368 -2.0846 -0.6112 -1.0713
  183MOL0     H24654  11.268   4.144   0.660  0.1993 -0.6016  1.0766
  183MOL0     H24655  11.393   4.074   0.550 -1.1329 -0.4905 -1.0648
  183MOL0     H24656  11.482   4.229   0.351  0.6190  1.3877 -0.6171
  183MOL0     H24657  11.578   4.486   0.241  0.7665 -0.3418  0.7363
  183MOL0     H24658  11.467   4.621   0.297  2.4395  3.2265  3.6516
  183MOL0     H24659  11.566   4.619   0.516  0.5934 -0.4120  0.1040
  183MOL0     H24660  11.658   4.475   0.478 -1.2142 -1.2825  0.0634
  183MOL0     H24661  11.698   4.733   0.311 -0.8570 -1.0630 -0.7126
  183MOL0     H24662  11.801   4.587   0.326 -0.0214  0.2860 -0.8713
  183MOL0     H24663  11.919   4.741   0.450 -0.0564  0.6661 -2.8642
  183MOL0     H24664  11.831   4.647   0.563 -0.5514  2.9439  2.0101
  183MOL0     H24665  11.616   4.969   0.697  0.3824 -2.7032 -2.1511
  183MOL0     H24666  11.695   5.055   0.923  0.1817 -0.2242 -0.0914
  183MOL0     H24667  11.739   5.176   1.285 -2.5438  2.8817  2.3769
  183MOL0     H24668  11.795   5.320   1.490  0.0843  1.5689 -1.0828
  183MOL0     H24669  11.861   5.593   1.506  0.0412  0.8138 -0.7557
  183MOL0     H24670  11.833   5.480   1.638 -1.4614 -0.1550 -1.2039
  183MOL0     H24671  12.037   5.585   1.754  0.1583  0.9316  0.4866
  183MOL0     H24672  12.033   5.700   1.614 -0.4726 -1.7898 -1.2446
  183MOL0     H24673  11.933   5.766   1.838 -0.2106  1.2218 -0.1390
  183MOL0     H24674  11.841   5.795   1.678  0.8274 -1.2884 -2.0283
  183MOL0     H24675  11.801   5.556   1.877  0.0880 -0.6155 -1.1242
  183MOL0     H24676  11.699   5.603   1.743 -0.9597 -0.0948  0.5779
  183MOL0     H24677  11.581   5.660   1.946 -1.5649  2.3643  2.3267
  183MOL0     H24678  11.626   5.802   1.854  1.8303  1.7341  0.2461
  183MOL0     H24679  11.774   5.671   2.094 -0.5424 -0.6335 -0.1433
  183MOL0     H24680  11.822   5.835   2.031 -0.8669  1.0426 -0.5456
  183MOL0     H24681  11.637   5.800   2.245 -0.9006  0.7578 -0.1506
  183MOL0     H24682  11.541   5.809   2.101  0.1092 -0.7665  1.1170
  183MOL0     H24683  11.637   6.035   2.233  0.4835 -0.9947  1.1834
  183MOL0     H24684  11.797   5.972   2.177  0.5531 -0.6520  0.3008
  183MOL0     H24685  12.152   5.448   1.308 -0.9132  0.5226  0.9650
  183MOL0     H24686  12.086   5.319   1.092 -0.0262 -0.7209 -0.7271
  183MOL0     H24687  12.074   4.891   0.855  0.4169  0.0624 -1.1470
  183MOL0     H24688  11.990   4.774   0.649 -0.3141  0.1021 -0.1192
  183MOL0     H24689  10.577   3.815   0.936  1.4517 -1.4971 -1.5624
  183MOL0     H24690  10.334   3.860   0.949  2.0188 -0.0654 -0.2869
  183MOL0     H24691   9.892   3.645   0.944 -0.6251  0.8734 -1.9314
  183MOL0     H24692   9.681   3.686   0.954  0.0289  2.3222 -2.2686
  183MOL0     H24693   9.515   4.003   1.216 -2.5788  0.3415  1.4550
  183MOL0     H24694   9.466   3.851   1.292  0.8339 -1.1978 -0.0400
  183MOL0     H24695   9.310   3.927   1.054 -0.7795  2.9194  0.4955
  183MOL0     H24696   9.275   3.990   1.222 -0.6620 -0.2084  0.2745
  183MOL0     H24697   9.265   3.767   1.301 -0.2518 -0.2363  0.0641
  183MOL0     H24698   9.300   3.694   1.137  0.3346  1.0408 -0.5711
  183MOL0     H24699   9.077   3.887   1.225 -0.4321  1.6584 -1.2870
  183MOL0     H24700   9.089   3.819   1.058  0.3276 -1.4076 -0.9102
  183MOL0     H24701   8.884   3.525   1.253 -0.7316  0.9971 -0.6093
  183MOL0     H24702   9.717   3.944   1.296  1.3830  0.9565  0.3787
  183MOL0     H24703  10.000   3.884   1.418  1.0292  1.6519  0.7679
  183MOL0     H24704  10.081   3.947   1.280  1.0427 -2.1228  1.5526
  183MOL0     H24705   9.931   4.025   1.350  1.3608  0.7116 -0.2787
  184MOL0     O24706   8.733   7.888  10.796 -0.3795 -0.2931  0.3995
  184MOL0     C24707   8.666   7.794  10.744  0.1290 -0.7369 -0.0954
  184MOL0     O24708   8.719   7.695  10.673 -0.4050  0.0476 -0.2574
  184MOL0     C24709   8.850   7.700  10.636 -0.2098 -0.3158 -0.7029
  184MOL0     C24710   8.928   7.589  10.650  0.4483  1.2497  0.5245
  184MOL0     C24711   9.061   7.588  10.602  0.1352 -0.1686 -0.1748
  184MOL0     C24712   9.120   7.705  10.551 -0.1651 -0.0844 -0.0449
  184MOL0     O24713   9.253   7.685  10.511 -0.2437 -0.9141 -0.2991
  184MOL0     C24714   9.320   7.775  10.419 -0.3087 -0.1979  0.1254
  184MOL0     C24715   9.428   7.697  10.346  0.0837  0.0860 -0.2367
  184MOL0     C24716   9.559   7.697  10.432 -0.3035 -0.2327 -0.3092
  184MOL0     C24717   9.676   7.644  10.348 -0.5991  0.8963 -0.3486
  184MOL0     C24718   9.814   7.683  10.410 -0.5016  0.3369 -0.6591
  184MOL0     C24719   9.923   7.604  10.333 -0.1512 -0.3222  0.0690
  184MOL0     C24720  10.059   7.622  10.391 -0.2934  0.2203  1.1795
  184MOL0     C24721  10.109   7.764  10.404 -0.6250  0.5284  0.3064
  184MOL0     N24722  10.250   7.753  10.452  0.0907 -0.2740 -0.3199
  184MOL0     C24723  10.363   7.708  10.380 -0.5080 -0.5325  0.5943
  184MOL0     C24724  10.475   7.749  10.448  0.7157  0.2214 -0.7907
  184MOL0     C24725  10.622   7.719  10.419 -0.4160  0.1743 -0.5375
  184MOL0     C24726  10.641   7.653  10.283 -0.2856  0.5074  0.3171
  184MOL0     C24727  10.795   7.652  10.231  0.0010  0.2970  0.3894
  184MOL0     C24728  10.814   7.757  10.121  0.5861 -0.4477 -0.5196
  184MOL0     O24729  10.918   7.724  10.024  0.3527 -0.0604  0.2284
  184MOL0     C24730  11.045   7.714  10.079 -0.2072  0.5890  0.3676
  184MOL0     C24731  11.091   7.774  10.193  0.4660  0.4263  0.4961
  184MOL0     C24732  11.225   7.748  10.234  0.7006 -0.5890  0.7428
  184MOL0     C24733  11.310   7.661  10.155  0.9167  0.2254  0.5540
  184MOL0     C24734  11.452   7.655  10.186  0.6086 -0.0020  0.2347
  184MOL0     O24735  11.525   7.585  10.095 -0.2893 -0.6444  0.4277
  184MOL0     C24736  11.641   7.531  10.130  0.6212  0.7759 -0.3522
  184MOL0     C24737  11.642   7.424  10.225  0.0401  0.2071  0.2891
  184MOL0     C24738  11.768   7.374  10.262  0.1145  0.6335 -0.1377
  184MOL0     C24739  11.892   7.424  10.210  0.0457 -0.3287 -0.5231
  184MOL0     O24740  12.013   7.371  10.241  0.1370 -0.7990 -0.1794
  184MOL0     C24741  12.138   7.444  10.239  0.2696  0.2275 -0.2136
  184MOL0     C24742  12.233   7.358  10.319 -0.0879  0.3333  0.1656
  184MOL0     C24743  12.376   7.411  10.331  0.6679  0.0263 -0.5362
  184MOL0     C24744  12.386   7.503  10.464 -0.6313  0.1261  0.7565
  184MOL0     C24745  12.524   7.560  10.476 -0.0963 -0.6513  1.1867
  184MOL0     C24746  12.540   7.646  10.604  0.2322 -0.7514  0.2108
  184MOL0     C24747  12.664   7.739  10.599 -0.6051 -0.6860  1.0286
  184MOL0     C24748  12.789   7.696  10.686 -0.5173  0.1696 -1.0057
  184MOL0    Cl24749  12.858   7.556  10.599 -0.1309 -0.2969  0.1655
  184MOL0     C24750  11.888   7.522  10.110  0.0286 -0.1327 -0.3029
  184MOL0     C24751  11.763   7.576  10.068  0.4372  0.3620 -0.2234
  184MOL0     O24752  11.486   7.676  10.297  0.1758 -0.1368 -0.3000
  184MOL0     C24753  11.262   7.611  10.039  0.3389  0.0065 -0.4221
  184MOL0     C24754  11.130   7.638  10.000  0.0459  0.3346  0.6669
  184MOL0     N24755  10.420   7.800  10.566 -0.4314  0.3808  0.4689
  184MOL0     N24756  10.291   7.799  10.571 -0.1442 -0.6176  0.7124
  184MOL0     C24757   9.042   7.818  10.530  0.8973  0.5776 -0.4467
  184MOL0     C24758   8.906   7.816  10.573 -0.4145 -0.3572 -0.9966
  184MOL0     C24759   8.515   7.791  10.762 -1.1047 -0.2220 -0.3501
  184MOL0     C24760   8.447   7.680  10.716  0.2978  0.1574  0.0219
  184MOL0     C24761   8.307   7.671  10.733  0.0510 -0.8285  0.1711
  184MOL0     C24762   8.241   7.772  10.806  0.1348 -0.0513  0.8304
  184MOL0     O24763   8.107   7.767  10.812 -0.2095  0.5662 -0.3840
  184MOL0     C24764   8.019   7.851  10.890 -1.4243 -0.6588  0.7218
  184MOL0     C24765   7.881   7.802  10.932  0.1254  0.4925  0.4479
  184MOL0     C24766   7.795   7.764  10.815 -0.0145 -0.1947  0.2500
  184MOL0     C24767   7.736   7.886  10.733  0.6273 -0.1112  0.2131
  184MOL0     C24768   7.608   7.844  10.672  0.4258 -0.0416  0.6454
  184MOL0     C24769   7.519   7.787  10.613 -0.1519  0.1144 -0.3643
  184MOL0     C24770   8.307   7.884  10.854 -0.8715 -0.0666 -0.4349
  184MOL0     C24771   8.444   7.899  10.830  0.8133  0.3650  0.7885
  184MOL0     C24772   8.515   8.022  10.875 -0.0603  0.7213 -0.7975
  184MOL0     H24773   8.882   7.505  10.700  0.6104 -0.4348 -2.0106
  184MOL0     H24774   9.121   7.500  10.623 -0.6687  0.1038  4.1370
  184MOL0     H24775   9.234   7.798  10.355  1.6914  0.7187 -2.4108
  184MOL0     H24776   9.362   7.860  10.473  0.0575 -0.1746 -0.1902
  184MOL0     H24777   9.434   7.750  10.250  0.4904  0.2131 -0.1459
  184MOL0     H24778   9.396   7.594  10.324 -0.7921  0.4923 -0.9335
  184MOL0     H24779   9.553   7.640  10.526  2.2208  2.1082  1.4224
  184MOL0     H24780   9.579   7.803  10.451 -2.7515  0.0565  1.1321
  184MOL0     H24781   9.675   7.535  10.343  2.7118  0.7251  0.3884
  184MOL0     H24782   9.681   7.685  10.247  4.0781 -0.8379 -1.0853
  184MOL0     H24783   9.833   7.790  10.400  3.2779 -0.2140 -0.6819
  184MOL0     H24784   9.807   7.662  10.517  1.1635 -0.0609 -0.6116
  184MOL0     H24785   9.890   7.499  10.336  0.2191 -0.4284  1.3744
  184MOL0     H24786   9.939   7.632  10.229 -1.1721  2.0306  0.4849
  184MOL0     H24787  10.126   7.549  10.344 -1.7574 -0.5590  0.2183
  184MOL0     H24788  10.051   7.586  10.494  1.5416  2.0282  2.0250
  184MOL0     H24789  10.093   7.807  10.304  0.2542 -3.1386 -1.5848
  184MOL0     H24790  10.048   7.819  10.476 -2.1865 -1.9220  0.9447
  184MOL0     H24791  10.361   7.668  10.279  0.0561  0.9490 -0.0374
  184MOL0     H24792  10.672   7.816  10.421  2.4289 -1.1783  0.0987
  184MOL0     H24793  10.661   7.651  10.496 -1.3380 -1.0864 -1.1474
  184MOL0     H24794  10.608   7.549  10.291 -1.0007  0.7437  0.4465
  184MOL0     H24795  10.578   7.699  10.207  0.9206 -0.4434 -1.3204
  184MOL0     H24796  10.808   7.547  10.205 -0.0706  0.5811 -0.8600
  184MOL0     H24797  10.862   7.668  10.315  0.9315  2.0894 -0.6139
  184MOL0     H24798  10.841   7.853  10.165  1.7221  0.3849 -2.8904
  184MOL0     H24799  10.720   7.760  10.065 -0.7565  0.7320  1.6554
  184MOL0     H24800  11.029   7.842  10.250 -1.0716 -1.5595  1.3049
  184MOL0     H24801  11.263   7.805  10.318  3.9957  0.1564 -1.0663
  184MOL0     H24802  11.556   7.389  10.281 -0.3438  0.7530  0.0414
  184MOL0     H24803  11.760   7.285  10.324  0.3998 -0.3489 -1.4737
  184MOL0     H24804  12.174   7.462  10.137  1.8887  1.8107  0.5823
  184MOL0     H24805  12.135   7.543  10.287  2.4749  0.2496 -0.0187
  184MOL0     H24806  12.181   7.328  10.411 -2.2415  1.2245 -0.6983
  184MOL0     H24807  12.237   7.263  10.264 -1.1981  0.1316  0.4036
  184MOL0     H24808  12.453   7.336  10.354  1.8632  1.5110  0.5301
  184MOL0     H24809  12.404   7.453  10.234 -0.5920 -1.1951 -1.4783
  184MOL0     H24810  12.369   7.439  10.551 -2.0977  0.3089  0.6440
  184MOL0     H24811  12.309   7.581  10.458 -0.1010  0.6185  0.3560
  184MOL0     H24812  12.543   7.623  10.389 -1.2937  0.3071  1.5944
  184MOL0     H24813  12.601   7.482  10.476 -0.4941 -1.3206 -3.4901
  184MOL0     H24814  12.457   7.713  10.624  0.0378 -1.0848  0.5315
  184MOL0     H24815  12.534   7.580  10.691  2.9973  1.4016  2.2102
  184MOL0     H24816  12.633   7.842  10.615 -0.7066 -0.1836 -1.8473
  184MOL0     H24817  12.691   7.746  10.493 -0.3210 -0.7155  1.0982
  184MOL0     H24818  12.863   7.774  10.706 -1.8059  0.8322  1.5977
  184MOL0     H24819  12.751   7.651  10.778  1.4093  1.0912  0.3118
  184MOL0     H24820  11.979   7.553  10.059  0.0533  0.0427 -0.1503
  184MOL0     H24821  11.757   7.662  10.001 -1.0805  2.1280  2.0289
  184MOL0     H24822  11.321   7.548   9.973  0.2511 -1.0386  0.4694
  184MOL0     H24823  11.092   7.615   9.901 -2.1018  2.1795  0.9936
  184MOL0     H24824   9.085   7.900  10.474  0.7298  0.2150 -1.1127
  184MOL0     H24825   8.838   7.894  10.540 -0.5973 -1.1474 -2.5912
  184MOL0     H24826   8.492   7.594  10.668  1.4479  1.0568 -0.5615
  184MOL0     H24827   8.254   7.588  10.687  0.9828 -1.4034  0.1203
  184MOL0     H24828   8.017   7.942  10.828 -1.8745 -2.2953 -1.8564
  184MOL0     H24829   8.070   7.882  10.981  1.8713  2.1535 -1.8023
  184MOL0     H24830   7.834   7.878  10.995 -0.3118  0.4566  0.1672
  184MOL0     H24831   7.905   7.714  10.992  3.6032 -0.2159 -1.7407
  184MOL0     H24832   7.716   7.700  10.854  0.0514 -0.3671  0.1068
  184MOL0     H24833   7.846   7.697  10.744 -1.9153  1.5089 -2.9376
  184MOL0     H24834   7.712   7.978  10.787 -3.3000  0.4203 -2.0512
  184MOL0     H24835   7.804   7.924  10.656 -4.1723  1.7978 -3.6340
  184MOL0     H24836   7.438   7.739  10.562  0.4665  1.3276 -2.6262
  184MOL0     H24837   8.260   7.963  10.913 -0.3429  1.2391 -1.6994
  184MOL0     H24838   8.573   8.066  10.793  1.7209 -0.0988 -0.0365
  184MOL0     H24839   8.453   8.099  10.922  0.9723  0.7014  0.6715
  184MOL0     H24840   8.580   7.978  10.951  0.0904  0.3361 -1.1436
  185MOL0     O24841   0.988   5.363   9.543  0.3629 -0.4176  0.4488
  185MOL0     C24842   0.870   5.352   9.508 -0.2046  0.2640  0.3544
  185MOL0     O24843   0.774   5.291   9.577  0.1185 -0.3854 -0.2201
  185MOL0     C24844   0.817   5.245   9.697 -0.1686 -0.8588 -0.4635
  185MOL0     C24845   0.892   5.130   9.709 -0.1392 -0.0964 -0.0557
  185MOL0     C24846   0.923   5.077   9.831  0.0975  0.2959 -1.4680
  185MOL0     C24847   0.880   5.143   9.948 -0.0547 -0.5625 -0.3818
  185MOL0     O24848   0.903   5.110  10.084 -0.5392 -0.2135  0.5497
  185MOL0     C24849   1.001   5.012  10.111  0.0061 -0.0961 -0.4019
  185MOL0     C24850   1.082   5.054  10.245  0.9065  0.1975  0.2718
  185MOL0     C24851   1.213   4.978  10.260  0.6073 -0.3563  0.0023
  185MOL0     C24852   1.287   5.026  10.386  0.4700 -0.4541  0.3210
  185MOL0     C24853   1.415   4.942  10.407 -0.6401  0.4275  0.0669
  185MOL0     C24854   1.499   4.969  10.533 -0.4974  0.2582 -0.0910
  185MOL0     C24855   1.532   5.113  10.572  0.0815  0.0757 -0.1783
  185MOL0     C24856   1.661   5.149  10.500  0.9389 -0.0381  0.4075
  185MOL0     N24857   1.670   5.136  10.353  1.4932  0.3281  0.4233
  185MOL0     C24858   1.579   5.203  10.266 -0.0791 -0.7384 -0.3071
  185MOL0     C24859   1.613   5.153  10.147  0.5173  0.7356  0.4627
  185MOL0     C24860   1.545   5.186  10.017  0.4758  0.1751 -0.7061
  185MOL0     C24861   1.504   5.069   9.933 -0.3491 -0.2683 -0.2403
  185MOL0     C24862   1.615   5.014   9.850  0.2237 -0.4349 -0.3702
  185MOL0     C24863   1.555   4.901   9.757 -0.3119 -0.3295  0.2614
  185MOL0     O24864   1.655   4.811   9.715 -0.5578  0.8872 -0.1356
  185MOL0     C24865   1.720   4.722   9.800  0.0524 -0.5515 -0.6397
  185MOL0     C24866   1.834   4.655   9.749  0.0221 -0.6985 -1.1695
  185MOL0     C24867   1.910   4.575   9.836 -0.3672 -0.4573  0.8929
  185MOL0     C24868   1.881   4.570   9.975 -0.5924 -0.0793  0.4812
  185MOL0     C24869   1.973   4.494  10.061 -0.3398  0.0225  0.3386
  185MOL0     O24870   2.107   4.486  10.027  1.0840 -0.2176 -0.3716
  185MOL0     C24871   2.180   4.423  10.127  0.6731  0.6230 -0.2634
  185MOL0     C24872   2.231   4.291  10.100  0.7201 -1.2611 -0.5138
  185MOL0     C24873   2.314   4.236  10.202 -0.0185 -0.0351  0.3550
  185MOL0     C24874   2.356   4.306  10.316 -0.0405 -0.1650 -0.3461
  185MOL0     O24875   2.453   4.257  10.402  0.2010 -0.5275  0.9788
  185MOL0     C24876   2.408   4.219  10.535  0.5195 -0.8822  0.6702
  185MOL0     C24877   2.350   4.075  10.538  0.1462 -0.0267  0.1183
  185MOL0     C24878   2.451   3.961  10.500  0.5023  0.4868 -0.1360
  185MOL0     C24879   2.389   3.825  10.486  0.4034  0.5070 -0.6596
  185MOL0     C24880   2.494   3.710  10.451  0.6681 -0.3910  0.2271
  185MOL0     C24881   2.432   3.577  10.441 -0.2491  0.0828 -0.2053
  185MOL0     C24882   2.539   3.477  10.414 -0.4505 -0.2815 -0.4018
  185MOL0     C24883   2.577   3.392  10.539 -0.1398  0.2282  0.1961
  185MOL0    Cl24884   2.713   3.284  10.503  0.0226 -0.2920 -0.4803
  185MOL0     C24885   2.292   4.433  10.338 -0.1282  0.6495 -0.5456
  185MOL0     C24886   2.212   4.490  10.243 -0.3074  0.2954  0.3752
  185MOL0     O24887   1.921   4.442  10.159 -0.0796  0.3997 -0.3021
  185MOL0     C24888   1.769   4.636  10.024  0.8294  0.0334  0.7553
  185MOL0     C24889   1.690   4.721   9.935 -0.5470  0.5073  0.9453
  185MOL0     N24890   1.715   5.057  10.161  0.6980 -0.2039 -0.3746
  185MOL0     N24891   1.751   5.051  10.281 -0.8188  0.2944 -0.4555
  185MOL0     C24892   0.804   5.262   9.938  0.1519  0.3177 -0.3432
  185MOL0     C24893   0.777   5.313   9.813  0.0228  0.5810 -0.1452
  185MOL0     C24894   0.832   5.441   9.395 -0.7875 -0.0892  0.1061
  185MOL0     C24895   0.702   5.493   9.395 -0.5040 -0.4397 -1.5224
  185MOL0     C24896   0.660   5.583   9.297 -0.1994 -0.2941 -0.5263
  185MOL0     C24897   0.753   5.617   9.202 -0.7559  0.2891 -0.2614
  185MOL0     O24898   0.709   5.697   9.102  0.2984 -0.3194  0.0949
  185MOL0     C24899   0.642   5.623   8.996  0.5286 -0.1081  0.7602
  185MOL0     C24900   0.568   5.722   8.897  0.0708  0.3506 -0.0125
  185MOL0     C24901   0.443   5.788   8.957  0.5538  0.3289 -0.0968
  185MOL0     C24902   0.330   5.692   8.993  0.8341  0.1983 -0.1380
  185MOL0     C24903   0.204   5.762   9.013 -0.6760 -0.1665  0.4105
  185MOL0     C24904   0.102   5.821   8.998 -0.4028 -0.5450 -0.4106
  185MOL0     C24905   0.879   5.571   9.200  0.0204 -0.5921  0.1546
  185MOL0     C24906   0.921   5.491   9.300  0.1215  0.1182 -0.1553
  185MOL0     C24907   1.072   5.455   9.297 -0.1688  0.1646 -0.1846
  185MOL0     H24908   0.921   5.071   9.623 -1.0668 -0.3924 -0.1833
  185MOL0     H24909   0.992   4.994   9.840 -0.5339 -0.1472 -0.4833
  185MOL0     H24910   0.959   4.911  10.110  1.6494 -0.8078 -1.2538
  185MOL0     H24911   1.074   5.003  10.030 -1.1193  1.3448 -1.6252
  185MOL0     H24912   1.013   5.033  10.328 -1.9445  0.0778 -1.9447
  185MOL0     H24913   1.099   5.162  10.248  0.6546  0.2203  1.2800
  185MOL0     H24914   1.281   4.991  10.176 -0.3305  1.1644 -0.5664
  185MOL0     H24915   1.194   4.870  10.270 -1.3754  0.0878  1.9983
  185MOL0     H24916   1.306   5.133  10.382  3.5256 -0.8956  0.1811
  185MOL0     H24917   1.226   5.003  10.474  0.1228  0.2918  0.2772
  185MOL0     H24918   1.382   4.838  10.405  1.8037 -0.4813  2.4014
  185MOL0     H24919   1.496   4.951  10.334  0.2000 -1.2612  0.7585
  185MOL0     H24920   1.450   4.924  10.620 -0.7450  1.4960  0.4303
  185MOL0     H24921   1.593   4.916  10.517 -0.6858  0.4903 -2.1963
  185MOL0     H24922   1.536   5.119  10.682  0.9158 -0.0577 -0.1938
  185MOL0     H24923   1.457   5.185  10.538  2.0454  3.0504  1.2414
  185MOL0     H24924   1.677   5.256  10.520 -0.6105  0.3175 -0.1250
  185MOL0     H24925   1.746   5.099  10.548  0.6167  0.2623  1.3075
  185MOL0     H24926   1.504   5.276  10.295  1.4440  0.6519  0.3532
  185MOL0     H24927   1.447   5.227  10.042  0.0430  1.5311 -4.0574
  185MOL0     H24928   1.589   5.266   9.957 -2.0028  0.4240 -2.3331
  185MOL0     H24929   1.466   5.002  10.011 -0.6206  3.0967  2.7834
  185MOL0     H24930   1.429   5.096   9.858  2.9576  1.1037 -3.3539
  185MOL0     H24931   1.690   4.971   9.916 -0.4711 -2.1534 -0.6620
  185MOL0     H24932   1.661   5.095   9.792  1.5140 -0.2346  0.8760
  185MOL0     H24933   1.518   4.951   9.667  0.9681 -1.5022 -0.9723
  185MOL0     H24934   1.478   4.842   9.808  0.5790  0.1674  2.2750
  185MOL0     H24935   1.862   4.670   9.646 -0.3575  4.2190 -0.8041
  185MOL0     H24936   1.977   4.516   9.775 -2.0378 -0.4753 -1.0483
  185MOL0     H24937   2.200   4.241  10.009 -1.6812 -0.9696  0.0872
  185MOL0     H24938   2.352   4.135  10.190 -0.2798 -0.0643 -0.2619
  185MOL0     H24939   2.491   4.235  10.604  1.1177 -2.3874  0.3349
  185MOL0     H24940   2.335   4.286  10.581  0.1155 -0.4188 -0.5806
  185MOL0     H24941   2.327   4.043  10.640  0.3839 -2.3394 -0.4770
  185MOL0     H24942   2.261   4.069  10.476  1.7033 -1.8760 -2.1174
  185MOL0     H24943   2.502   3.984  10.406 -2.2613  1.1941 -1.5776
  185MOL0     H24944   2.527   3.951  10.578  0.8881 -2.4263 -0.7926
  185MOL0     H24945   2.311   3.826  10.409  1.1552 -0.3564 -1.4518
  185MOL0     H24946   2.352   3.795  10.585  3.7964  0.5878  0.7703
  185MOL0     H24947   2.584   3.699  10.511  0.5348 -1.0593  0.3132
  185MOL0     H24948   2.529   3.736  10.351 -1.5166  0.1469 -0.4579
  185MOL0     H24949   2.385   3.550  10.537 -0.9686  1.8593 -0.0008
  185MOL0     H24950   2.354   3.571  10.364 -2.3642  0.6469  1.7462
  185MOL0     H24951   2.634   3.514  10.373 -1.0235  0.7246 -0.8510
  185MOL0     H24952   2.498   3.401  10.346 -3.4836  0.9463 -0.0901
  185MOL0     H24953   2.609   3.471  10.608 -1.2883 -0.5611  1.6827
  185MOL0     H24954   2.493   3.336  10.581  1.0533 -1.7038  0.1127
  185MOL0     H24955   2.302   4.485  10.433 -2.0115 -2.0261  1.2325
  185MOL0     H24956   2.176   4.591  10.258  0.5921  0.6092  0.4171
  185MOL0     H24957   1.746   4.648  10.129  1.5737  0.1194  0.9081
  185MOL0     H24958   1.604   4.779   9.968 -0.5037  0.6512  0.8062
  185MOL0     H24959   0.799   5.315  10.033  0.0714 -0.1420 -0.0890
  185MOL0     H24960   0.719   5.403   9.802 -1.0251 -0.1909 -1.1634
  185MOL0     H24961   0.634   5.477   9.478  0.7007 -2.2779 -0.8322
  185MOL0     H24962   0.559   5.623   9.296  0.8992  2.7488 -1.7038
  185MOL0     H24963   0.568   5.549   9.026  1.1582 -1.8068 -1.6429
  185MOL0     H24964   0.716   5.566   8.939 -0.1588  0.1593 -0.4424
  185MOL0     H24965   0.534   5.676   8.804 -0.6446 -0.4501  0.6221
  185MOL0     H24966   0.639   5.803   8.877 -0.4100  1.1464  1.3377
  185MOL0     H24967   0.409   5.872   8.897  1.6830  0.8911  0.0405
  185MOL0     H24968   0.478   5.844   9.044  2.5404 -0.8643 -0.0719
  185MOL0     H24969   0.319   5.621   8.910 -0.4139 -2.4112  2.0945
  185MOL0     H24970   0.370   5.652   9.087 -1.9413  0.4624  1.2765
  185MOL0     H24971   0.012   5.879   8.991  0.5293  0.7962 -2.1398
  185MOL0     H24972   0.945   5.594   9.117 -0.7729  0.0902 -0.2990
  185MOL0     H24973   1.121   5.510   9.378  3.9264  0.8717 -2.8829
  185MOL0     H24974   1.073   5.347   9.315  1.0116 -0.0253 -1.2722
  185MOL0     H24975   1.107   5.478   9.196 -1.8203  0.5415 -0.7045
  186MOL0     O24976   7.716  11.279   8.186 -0.0740  0.4099  0.0762
  186MOL0     C24977   7.650  11.381   8.216 -0.6359  0.1214  0.1029
  186MOL0     O24978   7.689  11.474   8.302 -0.2518  0.0757 -0.5972
  186MOL0     C24979   7.816  11.450   8.350  0.6074 -0.5452 -0.4351
  186MOL0     C24980   7.824  11.372   8.468  0.6161 -0.8788  0.5094
  186MOL0     C24981   7.947  11.359   8.530  0.3762  0.3503 -0.3043
  186MOL0     C24982   8.056  11.426   8.482  0.3288 -0.3227 -0.5515
  186MOL0     O24983   8.182  11.411   8.533 -0.3417  0.3556  0.2983
  186MOL0     C24984   8.200  11.352   8.657  0.3716  0.2442  0.2447
  186MOL0     C24985   8.349  11.358   8.689 -0.1681  0.0538 -0.5088
  186MOL0     C24986   8.377  11.458   8.802  0.3008  0.0309 -0.0046
  186MOL0     C24987   8.523  11.476   8.818  0.1063  0.6924 -1.4455
  186MOL0     C24988   8.573  11.583   8.720  0.3270  0.3164  0.2249
  186MOL0     C24989   8.650  11.692   8.794  0.7539  0.0435 -0.0748
  186MOL0     C24990   8.784  11.640   8.841 -0.0738  0.1029  0.4500
  186MOL0     C24991   8.876  11.760   8.870  0.1091  0.1200  0.2708
  186MOL0     N24992   9.004  11.708   8.923 -0.1828 -0.2691  0.5391
  186MOL0     C24993   9.096  11.644   8.849  0.6003  0.6344  0.4219
  186MOL0     C24994   9.191  11.602   8.938  0.8539  0.3532  0.3651
  186MOL0     C24995   9.316  11.523   8.913  1.0031  0.5624 -0.0543
  186MOL0     C24996   9.431  11.604   8.849  0.1304  0.2338  0.2419
  186MOL0     C24997   9.481  11.716   8.950  0.7263  0.4238  0.1120
  186MOL0     C24998   9.623  11.767   8.913  0.0325 -0.8636 -0.2781
  186MOL0     O24999   9.718  11.666   8.902 -1.1870  0.0408  0.3239
  186MOL0     C25000   9.854  11.705   8.894 -0.0397  0.0801  0.7504
  186MOL0     C25001   9.950  11.603   8.911  0.4457 -0.2292  0.2695
  186MOL0     C25002  10.083  11.632   8.933 -0.4900 -0.4123 -0.5396
  186MOL0     C25003  10.129  11.770   8.913  0.1003  0.3104 -0.1657
  186MOL0     C25004  10.281  11.794   8.910  0.3223 -0.4549  0.2696
  186MOL0     O25005  10.358  11.686   8.896 -0.3178  0.0859  0.2414
  186MOL0     C25006  10.491  11.688   8.899  0.1834  0.0221 -0.0879
  186MOL0     C25007  10.558  11.615   8.808 -0.5666 -0.4143  0.2554
  186MOL0     C25008  10.700  11.611   8.811 -0.2729 -0.1957  0.6128
  186MOL0     C25009  10.771  11.685   8.902 -0.2159 -0.8639 -0.0732
  186MOL0     O25010  10.909  11.678   8.902  0.4884  0.1853  0.2541
  186MOL0     C25011  10.971  11.768   8.996 -0.1869 -0.4051  0.0066
  186MOL0     C25012  11.128  11.772   8.994  0.3958 -0.4817 -0.5050
  186MOL0     C25013  11.190  11.807   8.857 -0.4894  0.3352  0.4714
  186MOL0     C25014  11.339  11.789   8.847 -0.0185  0.8312 -0.7216
  186MOL0     C25015  11.391  11.788   8.703  0.4244 -0.1745  0.0062
  186MOL0     C25016  11.352  11.910   8.618 -0.3701 -0.3947  0.5549
  186MOL0     C25017  11.383  11.879   8.471  0.0478 -0.7341 -0.0945
  186MOL0     C25018  11.403  12.007   8.396  0.5631 -0.3065 -0.3494
  186MOL0    Cl25019  11.507  11.978   8.263 -0.0674  0.5428  0.1999
  186MOL0     C25020  10.697  11.767   8.995  1.1815  0.2548 -0.2840
  186MOL0     C25021  10.559  11.769   8.989 -0.6725  0.6718  0.8465
  186MOL0     O25022  10.318  11.913   8.914  0.7224 -0.2196  0.3324
  186MOL0     C25023  10.040  11.877   8.893  0.5253  0.4062  0.4302
  186MOL0     C25024   9.904  11.840   8.879  0.5737 -0.1711 -0.8872
  186MOL0     N25025   9.154  11.644   9.054  0.3570 -0.5105  0.4300
  186MOL0     N25026   9.046  11.712   9.051 -0.2174 -0.6769 -0.3667
  186MOL0     C25027   8.049  11.500   8.362  0.1837 -0.3064  0.0848
  186MOL0     C25028   7.930  11.509   8.290  0.0120  0.3741  0.5845
  186MOL0     C25029   7.522  11.397   8.137  0.5237  0.1919 -0.4826
  186MOL0     C25030   7.485  11.312   8.028  0.5033  0.2876  0.7859
  186MOL0     C25031   7.347  11.315   7.969 -0.3341  0.1009  0.7191
  186MOL0     C25032   7.263  11.418   7.990  0.6508 -0.6025 -0.2251
  186MOL0     O25033   7.141  11.442   7.935 -0.4623 -0.3955  0.7211
  186MOL0     C25034   7.079  11.326   7.880 -0.2345 -0.0315 -0.0266
  186MOL0     C25035   6.948  11.374   7.807 -0.1194  0.1397  0.6438
  186MOL0     C25036   6.852  11.251   7.808 -0.9359  0.4582  0.5826
  186MOL0     C25037   6.731  11.300   7.723  0.2367  0.1146 -0.1132
  186MOL0     C25038   6.604  11.226   7.770 -0.0883 -0.7380 -0.2988
  186MOL0     C25039   6.499  11.164   7.793  0.8468  1.0450  0.5964
  186MOL0     C25040   7.311  11.508   8.083  0.0939 -0.7608 -0.5521
  186MOL0     C25041   7.428  11.503   8.159  0.3048  1.0387  0.1767
  186MOL0     C25042   7.440  11.615   8.259  0.2827  0.2171  0.4279
  186MOL0     H25043   7.737  11.320   8.507 -2.0019  1.5843 -1.6602
  186MOL0     H25044   7.949  11.301   8.621  1.5460  2.3031  0.9973
  186MOL0     H25045   8.143  11.409   8.731 -0.2307  1.6973 -1.2872
  186MOL0     H25046   8.162  11.251   8.640 -2.8962  1.7134 -2.3005
  186MOL0     H25047   8.405  11.389   8.601  0.2084  0.4461 -0.1418
  186MOL0     H25048   8.379  11.258   8.721 -0.5321  0.8670  2.7849
  186MOL0     H25049   8.336  11.419   8.896  0.0363 -1.2487 -0.6278
  186MOL0     H25050   8.319  11.550   8.790 -1.0900 -0.5989  1.5178
  186MOL0     H25051   8.546  11.511   8.919 -1.9814 -0.5522 -0.4729
  186MOL0     H25052   8.575  11.381   8.809 -0.6054 -0.0566  1.4519
  186MOL0     H25053   8.631  11.540   8.637  2.7692  1.0442  1.4702
  186MOL0     H25054   8.487  11.627   8.668  1.0851 -1.7449 -3.0945
  186MOL0     H25055   8.662  11.784   8.737  1.2294 -0.1651 -0.3186
  186MOL0     H25056   8.602  11.717   8.889  0.6606  0.5545 -0.2506
  186MOL0     H25057   8.843  11.575   8.776 -1.1649 -0.8273  0.3521
  186MOL0     H25058   8.761  11.586   8.934  0.3709 -1.2349 -0.2013
  186MOL0     H25059   8.887  11.816   8.777  0.9260 -1.1853 -0.4430
  186MOL0     H25060   8.838  11.826   8.949  1.5767  0.2009  0.9405
  186MOL0     H25061   9.097  11.635   8.741 -3.7156 -0.9190  0.2965
  186MOL0     H25062   9.351  11.476   9.006  0.6134 -1.4440 -0.8909
  186MOL0     H25063   9.288  11.438   8.851 -0.0751  1.3513 -0.6811
  186MOL0     H25064   9.518  11.539   8.849  2.2284  2.8421  1.6495
  186MOL0     H25065   9.396  11.642   8.753  2.1326  0.2458 -0.5125
  186MOL0     H25066   9.502  11.673   9.049  0.9780 -0.2098 -0.2126
  186MOL0     H25067   9.403  11.792   8.964 -0.3378  0.1232 -3.2659
  186MOL0     H25068   9.664  11.826   8.996 -2.8172 -2.4225  2.4420
  186MOL0     H25069   9.611  11.823   8.820  1.9700 -0.2662 -0.2042
  186MOL0     H25070   9.919  11.499   8.903 -0.6158  0.0178  0.9895
  186MOL0     H25071  10.154  11.552   8.951 -0.2074  0.5046  3.2761
  186MOL0     H25072  10.504  11.565   8.728  0.3254 -0.1283 -0.5451
  186MOL0     H25073  10.754  11.563   8.731 -0.6162  2.0890 -1.0990
  186MOL0     H25074  10.942  11.870   8.971 -1.8242 -1.1105 -1.1540
  186MOL0     H25075  10.940  11.743   9.098  3.6037 -2.2866  0.8652
  186MOL0     H25076  11.175  11.841   9.065 -0.1250 -0.6983  0.0581
  186MOL0     H25077  11.172  11.680   9.032  4.1757  2.5860  3.6471
  186MOL0     H25078  11.136  11.746   8.785 -2.4528  1.3881  0.9936
  186MOL0     H25079  11.175  11.914   8.844  0.2343  0.8784  3.3069
  186MOL0     H25080  11.357  11.686   8.882 -1.5395  1.0351  0.8173
  186MOL0     H25081  11.398  11.859   8.906  0.4733  0.2749 -0.5319
  186MOL0     H25082  11.345  11.701   8.654 -1.1005  1.6868 -2.0119
  186MOL0     H25083  11.499  11.771   8.708  0.5447  0.5234 -0.1359
  186MOL0     H25084  11.243  11.916   8.611 -0.2163  2.3420 -0.8777
  186MOL0     H25085  11.394  12.004   8.656 -0.0368 -0.3900  0.1777
  186MOL0     H25086  11.299  11.830   8.421 -0.0893  0.3889 -0.9913
  186MOL0     H25087  11.472  11.815   8.461 -1.6919 -3.0674 -1.5835
  186MOL0     H25088  11.303  12.038   8.363 -0.8364 -3.4016  0.6549
  186MOL0     H25089  11.446  12.078   8.467  1.7823 -1.0999 -0.2690
  186MOL0     H25090  10.743  11.834   9.067  0.4465  0.5629 -0.0942
  186MOL0     H25091  10.498  11.832   9.053  0.5659  0.5984  2.1294
  186MOL0     H25092  10.080  11.978   8.902 -0.7796  0.8183  2.2807
  186MOL0     H25093   9.827  11.917   8.872  1.1105  0.5241  0.6441
  186MOL0     H25094   8.142  11.544   8.326  0.0968 -0.7777 -0.7319
  186MOL0     H25095   7.919  11.558   8.194 -1.8951 -0.1377  0.5020
  186MOL0     H25096   7.547  11.224   8.017  0.6520  0.3704  0.9683
  186MOL0     H25097   7.323  11.226   7.912  1.0123 -0.3334  0.7972
  186MOL0     H25098   7.062  11.249   7.956  1.4056  1.4027  1.8726
  186MOL0     H25099   7.151  11.279   7.813 -0.0919 -0.9176  0.7236
  186MOL0     H25100   6.965  11.394   7.700  1.6219  2.5952  1.2906
  186MOL0     H25101   6.902  11.461   7.856  1.3383 -0.4875  3.3107
  186MOL0     H25102   6.829  11.211   7.907 -1.5984  2.5616  1.3214
  186MOL0     H25103   6.904  11.172   7.753  0.6216  0.6930  1.6706
  186MOL0     H25104   6.718  11.408   7.738  1.7305  0.0265  2.4169
  186MOL0     H25105   6.735  11.267   7.619  0.0396 -0.6018  0.0984
  186MOL0     H25106   6.416  11.103   7.823  0.6688  0.2645 -1.3604
  186MOL0     H25107   7.237  11.584   8.106  1.5583  0.7971 -0.7470
  186MOL0     H25108   7.509  11.684   8.209  1.0574 -0.1261  1.0247
  186MOL0     H25109   7.345  11.664   8.285  1.5320  2.2130  1.4508
  186MOL0     H25110   7.487  11.572   8.347  4.4887  2.7866 -0.2993
  187MOL0     O25111  10.769   5.642   8.557  0.3196  0.8443  0.2069
  187MOL0     C25112  10.694   5.721   8.617  0.0809  0.5445  0.7179
  187MOL0     O25113  10.705   5.760   8.742  0.2854 -0.0136 -0.2073
  187MOL0     C25114  10.814   5.729   8.826  0.3966  0.3500 -0.5178
  187MOL0     C25115  10.794   5.768   8.965  0.2963 -0.3725 -0.2133
  187MOL0     C25116  10.895   5.752   9.062 -0.1048  0.2705 -0.3709
  187MOL0     C25117  11.021   5.690   9.025  1.0106  0.9791 -0.4368
  187MOL0     O25118  11.122   5.664   9.110 -0.2136  0.0175  0.4837
  187MOL0     C25119  11.086   5.609   9.239 -0.0797  0.2747  0.4930
  187MOL0     C25120  11.207   5.546   9.320 -0.5874  0.0497 -0.8266
  187MOL0     C25121  11.168   5.471   9.445 -0.0544 -0.1073  0.2219
  187MOL0     C25122  11.208   5.526   9.584 -0.1523 -0.1148  0.2095
  187MOL0     C25123  11.126   5.638   9.624  0.0615 -0.2849  0.0397
  187MOL0     C25124  11.139   5.668   9.766  0.3325  0.0826 -1.3310
  187MOL0     C25125  11.076   5.802   9.809  0.2602  0.2533  0.3589
  187MOL0     C25126  11.105   5.850   9.952 -0.4214  0.2320 -0.0938
  187MOL0     N25127  11.246   5.877   9.977 -0.7789  0.3855  0.0905
  187MOL0     C25128  11.323   5.850  10.087  0.2086 -0.4167  0.7314
  187MOL0     C25129  11.450   5.888  10.059 -0.2366 -0.3328  0.0518
  187MOL0     C25130  11.562   5.879  10.154  0.2014 -0.0664  0.3485
  187MOL0     C25131  11.702   5.839  10.096 -0.6873  0.0366 -0.0588
  187MOL0     C25132  11.809   5.836  10.209  1.0300  0.3856  0.0878
  187MOL0     C25133  11.938   5.781  10.154  0.1691  0.9006  0.6146
  187MOL0     O25134  12.049   5.817  10.239  0.0360 -0.5525  0.8910
  187MOL0     C25135  12.172   5.750  10.239 -0.2700 -0.2296  0.8599
  187MOL0     C25136  12.196   5.634  10.162  0.1273 -0.0161  0.1221
  187MOL0     C25137  12.313   5.554  10.176  0.1662 -0.9914 -0.3607
  187MOL0     C25138  12.414   5.605  10.265 -0.3432 -0.3707 -0.3450
  187MOL0     C25139  12.536   5.535  10.290 -0.3203  0.1344  0.1816
  187MOL0     O25140  12.624   5.591  10.377 -0.1350 -0.0785  0.6947
  187MOL0     C25141  12.757   5.556  10.389  1.0120 -0.8689  0.1583
  187MOL0     C25142  12.840   5.533  10.280 -0.5663 -0.1126  0.2521
  187MOL0     C25143  12.975   5.503  10.306 -0.5910 -0.2436 -0.0133
  187MOL0     C25144  13.023   5.489  10.440 -0.0955 -0.8571  0.0088
  187MOL0     O25145  13.152   5.445  10.480  0.6678 -0.2182  0.1239
  187MOL0     C25146  13.233   5.391  10.379 -0.4469  0.3873  0.1782
  187MOL0     C25147  13.323   5.488  10.307 -0.0548  0.8647  0.8690
  187MOL0     C25148  13.446   5.421  10.240 -0.4481 -0.4639  0.5461
  187MOL0     C25149  13.557   5.391  10.341  0.2788 -0.2124 -0.4236
  187MOL0     C25150  13.677   5.360  10.265 -0.3924 -0.4709 -0.5095
  187MOL0     C25151  13.786   5.468  10.244 -0.1272  0.0362 -0.8609
  187MOL0     C25152  13.734   5.608  10.222 -0.3419  0.2373  0.3873
  187MOL0     C25153  13.844   5.712  10.187  0.4155 -0.0657  0.3140
  187MOL0    Cl25154  13.935   5.786  10.326 -0.0153  0.2121  0.4314
  187MOL0     C25155  12.931   5.512  10.541 -0.6809 -0.7818  0.4759
  187MOL0     C25156  12.807   5.559  10.513 -0.2924 -0.0666  0.7524
  187MOL0     O25157  12.545   5.426  10.235  0.4870  0.6378 -0.3249
  187MOL0     C25158  12.394   5.731  10.323  0.5884  0.6302  0.1577
  187MOL0     C25159  12.278   5.802  10.313  0.0570 -0.0556 -0.2770
  187MOL0     N25160  11.452   5.928   9.933 -0.2361  1.0566  0.0188
  187MOL0     N25161  11.338   5.921   9.880 -0.6572  0.1422 -0.6437
  187MOL0     C25162  11.036   5.653   8.893 -0.3162  0.7259  0.9462
  187MOL0     C25163  10.940   5.680   8.792  0.0866 -0.6073 -0.6002
  187MOL0     C25164  10.566   5.754   8.540  0.1544  0.4651  0.1786
  187MOL0     C25165  10.440   5.750   8.597  0.9166 -0.6214 -1.1073
  187MOL0     C25166  10.322   5.773   8.527 -0.0098  0.1139  0.0925
  187MOL0     C25167  10.323   5.807   8.396  0.1827  1.1932  0.6869
  187MOL0     O25168  10.209   5.860   8.347 -0.3936  0.0196 -0.1938
  187MOL0     C25169  10.179   5.868   8.203 -0.5531  0.1813 -0.4122
  187MOL0     C25170  10.176   5.747   8.109 -0.2984 -0.7780 -1.1877
  187MOL0     C25171  10.122   5.622   8.177 -0.1505 -0.4773  0.8828
  187MOL0     C25172  10.053   5.518   8.079 -0.9158  0.3121 -0.0582
  187MOL0     C25173   9.964   5.577   7.980 -0.5412 -0.6733  0.5393
  187MOL0     C25174   9.916   5.637   7.891  0.1390  1.2475 -0.2910
  187MOL0     C25175  10.446   5.807   8.333 -0.9801  0.0080  0.9066
  187MOL0     C25176  10.573   5.780   8.396  0.5659  0.1700  0.2624
  187MOL0     C25177  10.690   5.774   8.306 -0.3054 -0.3486 -0.6284
  187MOL0     H25178  10.694   5.805   8.988 -0.5433 -3.1008  0.8820
  187MOL0     H25179  10.870   5.787   9.162  2.4111  3.6253 -0.7639
  187MOL0     H25180  11.046   5.692   9.298  0.9240  0.8264  0.4327
  187MOL0     H25181  10.999   5.544   9.225 -1.9362  3.0904 -2.3604
  187MOL0     H25182  11.283   5.619   9.349  0.9378 -1.7293 -0.1072
  187MOL0     H25183  11.248   5.467   9.257  0.1371 -1.1356  1.0457
  187MOL0     H25184  11.207   5.369   9.438  0.5941  0.0776  1.0252
  187MOL0     H25185  11.060   5.452   9.445  0.1458 -1.6535 -1.9615
  187MOL0     H25186  11.204   5.447   9.659 -1.9845 -0.2692 -0.0087
  187MOL0     H25187  11.312   5.559   9.579 -0.4883  0.8518 -0.6837
  187MOL0     H25188  11.142   5.725   9.560 -0.1437 -0.8245 -0.7654
  187MOL0     H25189  11.021   5.609   9.610  0.4806 -1.2594 -1.3574
  187MOL0     H25190  11.097   5.579   9.814  2.2083  1.1337  2.7550
  187MOL0     H25191  11.246   5.669   9.791 -0.0070  0.0446  0.2060
  187MOL0     H25192  10.969   5.781   9.809  0.0301  1.3704  0.6458
  187MOL0     H25193  11.097   5.882   9.736  0.5972  0.8312  1.0759
  187MOL0     H25194  11.055   5.946   9.970  0.7899  1.0067 -0.7657
  187MOL0     H25195  11.070   5.773  10.022  3.6340 -2.1874 -0.3880
  187MOL0     H25196  11.285   5.807  10.179 -1.0884  2.0637  1.4521
  187MOL0     H25197  11.564   5.978  10.198  0.2429  1.2445 -2.3636
  187MOL0     H25198  11.538   5.808  10.233  0.7210  0.0137  0.5813
  187MOL0     H25199  11.694   5.736  10.059  1.7595  0.0395 -0.7734
  187MOL0     H25200  11.734   5.899  10.011 -2.6563  0.2815 -0.6775
  187MOL0     H25201  11.769   5.785  10.297  0.2676  0.2663 -0.3153
  187MOL0     H25202  11.839   5.935  10.246  2.9835 -0.1646  0.0610
  187MOL0     H25203  11.963   5.811  10.051 -0.3026 -0.2899  0.1378
  187MOL0     H25204  11.925   5.673  10.158 -0.8346  1.0317  0.9823
  187MOL0     H25205  12.125   5.595  10.088 -0.3303 -0.7504  0.9283
  187MOL0     H25206  12.329   5.474  10.104  3.1713 -0.9053  0.0976
  187MOL0     H25207  12.805   5.538  10.177  3.8419 -0.1372 -1.4866
  187MOL0     H25208  13.030   5.479  10.216 -3.3267  0.5498 -2.0495
  187MOL0     H25209  13.300   5.318  10.427  0.7611  1.8192  0.7248
  187MOL0     H25210  13.170   5.338  10.307  0.5075  0.3428 -0.6321
  187MOL0     H25211  13.265   5.551  10.238 -1.3247  0.4615  1.5208
  187MOL0     H25212  13.351   5.566  10.379  1.5464  1.3041 -0.1790
  187MOL0     H25213  13.420   5.333  10.180 -0.9222 -0.8075  1.2442
  187MOL0     H25214  13.473   5.484  10.155 -2.6078 -0.9107 -0.5468
  187MOL0     H25215  13.522   5.307  10.401  1.3683  0.4745  1.2175
  187MOL0     H25216  13.569   5.478  10.406 -1.1564  1.0859 -1.7929
  187MOL0     H25217  13.646   5.325  10.166  0.7472 -0.2410 -0.9708
  187MOL0     H25218  13.727   5.274  10.312 -2.5945 -2.1435 -1.0443
  187MOL0     H25219  13.839   5.460  10.339 -1.7319  0.1544  0.0646
  187MOL0     H25220  13.850   5.439  10.160 -0.1451  0.7296 -1.1189
  187MOL0     H25221  13.688   5.649  10.312 -0.2261 -0.0594  0.5834
  187MOL0     H25222  13.662   5.599  10.140 -0.6540  2.5854  0.3409
  187MOL0     H25223  13.916   5.657  10.125  1.0848 -2.6142  3.1479
  187MOL0     H25224  13.803   5.799  10.134 -0.6115 -1.1092 -0.6380
  187MOL0     H25225  12.970   5.516  10.642 -1.1890  3.0661  0.7049
  187MOL0     H25226  12.749   5.595  10.598  1.5338  1.2206  1.5126
  187MOL0     H25227  12.479   5.777  10.373  1.3207  1.0523 -1.3846
  187MOL0     H25228  12.270   5.903  10.354  1.3719  0.2977 -0.8252
  187MOL0     H25229  11.130   5.610   8.860 -0.9221 -0.1477  0.3351
  187MOL0     H25230  10.953   5.652   8.688 -0.9409 -0.9544 -0.6520
  187MOL0     H25231  10.424   5.738   8.704 -1.2290 -0.3049 -1.3577
  187MOL0     H25232  10.226   5.763   8.576 -0.9089 -0.4072 -1.6909
  187MOL0     H25233  10.251   5.943   8.170 -2.3120  2.9418  1.5329
  187MOL0     H25234  10.077   5.905   8.186 -0.9271 -1.5475 -2.4191
  187MOL0     H25235  10.279   5.737   8.074  0.7815  2.7108  0.5260
  187MOL0     H25236  10.116   5.770   8.021 -2.9075  0.5887  0.8071
  187MOL0     H25237  10.047   5.648   8.252 -2.4886  0.1756 -1.5031
  187MOL0     H25238  10.201   5.568   8.230  1.5114 -1.0074 -1.8886
  187MOL0     H25239  10.135   5.474   8.022 -1.1007  2.7919 -2.3877
  187MOL0     H25240   9.998   5.440   8.134 -3.0199  0.3030 -2.0340
  187MOL0     H25241   9.866   5.672   7.803 -0.7665 -0.7962 -0.6414
  187MOL0     H25242  10.446   5.837   8.229 -1.1619  0.9084  1.1538
  187MOL0     H25243  10.746   5.680   8.314 -0.9280 -0.8159 -1.6054
  187MOL0     H25244  10.673   5.782   8.199  3.7177 -3.9051 -1.8217
  187MOL0     H25245  10.756   5.858   8.329  0.4047 -1.1222  0.2756
  188MOL0     O25246   3.859   4.650   9.526  0.2481  0.4578 -0.0682
  188MOL0     C25247   3.848   4.770   9.506  0.4210  0.6024  0.3307
  188MOL0     O25248   3.941   4.866   9.514 -0.2025  0.5881 -0.3006
  188MOL0     C25249   4.057   4.829   9.582 -0.3440 -0.0953 -0.0197
  188MOL0     C25250   4.173   4.809   9.499  0.4372  0.4216  0.3131
  188MOL0     C25251   4.298   4.788   9.568  0.2737  0.2380  0.1142
  188MOL0     C25252   4.299   4.772   9.703 -0.1838 -0.7013  0.8599
  188MOL0     O25253   4.425   4.757   9.753  0.7186 -0.5400  0.1618
  188MOL0     C25254   4.426   4.673   9.868  0.4437  0.4269  0.4737
  188MOL0     C25255   4.570   4.622   9.888  0.1302  0.4258  0.0380
  188MOL0     C25256   4.600   4.519   9.788 -0.5808  0.9550  0.4056
  188MOL0     C25257   4.730   4.445   9.841 -0.1409  0.5451  0.6764
  188MOL0     C25258   4.788   4.345   9.740  0.2788  1.2555 -0.3037
  188MOL0     C25259   4.921   4.286   9.799  0.0783 -0.0788 -0.2935
  188MOL0     C25260   4.951   4.155   9.722 -0.4032 -1.1145  0.3339
  188MOL0     C25261   5.084   4.080   9.744 -0.2621  0.6830  0.0191
  188MOL0     N25262   5.187   4.121   9.655  0.0101  0.6577  1.0852
  188MOL0     C25263   5.230   4.245   9.643  0.7854  0.0012  0.9389
  188MOL0     C25264   5.303   4.254   9.536  0.1668  0.1533  0.7450
  188MOL0     C25265   5.335   4.397   9.493  0.0307  0.8581  0.0817
  188MOL0     C25266   5.216   4.471   9.437  0.3501 -0.3587  0.3272
  188MOL0     C25267   5.249   4.603   9.364  0.6572  0.2065  0.1734
  188MOL0     C25268   5.307   4.707   9.453 -0.2105 -0.2651 -0.3260
  188MOL0     O25269   5.336   4.828   9.384 -0.3720 -0.4004 -0.0741
  188MOL0     C25270   5.393   4.928   9.459  0.0704  0.5332 -1.5474
  188MOL0     C25271   5.368   4.936   9.598 -0.8245 -0.3759  0.2692
  188MOL0     C25272   5.409   5.050   9.669  0.8563  0.2151  0.6761
  188MOL0     C25273   5.491   5.145   9.621  0.5000 -0.3790 -0.3645
  188MOL0     C25274   5.531   5.256   9.704 -0.0370 -0.3552  0.5843
  188MOL0     O25275   5.516   5.230   9.834  0.1395  0.3423 -0.5411
  188MOL0     C25276   5.579   5.323   9.920  0.0603  0.6518  0.3826
  188MOL0     C25277   5.718   5.343   9.907  0.1797 -0.7477  0.4140
  188MOL0     C25278   5.779   5.432   9.988 -0.7528 -0.8414 -0.0776
  188MOL0     C25279   5.711   5.495  10.097  0.4683  0.7572  0.4782
  188MOL0     O25280   5.782   5.587  10.170 -0.1908 -0.6355 -0.5885
  188MOL0     C25281   5.700   5.661  10.259  0.2792 -0.2299 -0.1566
  188MOL0     C25282   5.782   5.757  10.340  0.2198 -0.0603 -0.4580
  188MOL0     C25283   5.835   5.885  10.267  0.6667  0.4247 -0.2898
  188MOL0     C25284   5.930   5.975  10.340 -0.6820  0.3649 -0.0325
  188MOL0     C25285   5.974   6.098  10.248  0.5132  0.2080 -0.6667
  188MOL0     C25286   6.086   6.182  10.315  0.2284  0.4947 -0.4043
  188MOL0     C25287   6.159   6.286  10.224  0.2913 -0.3660 -0.1248
  188MOL0     C25288   6.069   6.384  10.147 -0.6563 -0.1879 -0.3671
  188MOL0    Cl25289   6.170   6.517  10.078  0.1451 -0.2859 -0.3171
  188MOL0     C25290   5.570   5.466  10.119 -1.0589  0.1860  0.0671
  188MOL0     C25291   5.505   5.372  10.037 -0.3153  0.0369  0.0154
  188MOL0     O25292   5.571   5.366   9.656  0.9969  0.7878 -0.1919
  188MOL0     C25293   5.518   5.139   9.484 -0.7882  0.1864  0.0241
  188MOL0     C25294   5.463   5.040   9.403 -0.1922  0.1785  0.4813
  188MOL0     N25295   5.317   4.131   9.476 -0.8071 -0.7634 -0.5680
  188MOL0     N25296   5.243   4.049   9.548 -0.2137  0.0124  0.0520
  188MOL0     C25297   4.185   4.796   9.781 -0.1846  0.5824  0.5374
  188MOL0     C25298   4.066   4.833   9.725 -0.0503  0.8379  0.6537
  188MOL0     C25299   3.718   4.824   9.460 -0.0820  0.4129 -0.1197
  188MOL0     C25300   3.656   4.772   9.342  0.0067  0.2366 -0.0513
  188MOL0     C25301   3.523   4.809   9.300 -0.8366  0.0650 -0.3635
  188MOL0     C25302   3.454   4.900   9.379 -0.3846 -0.5594  0.6281
  188MOL0     O25303   3.332   4.928   9.333  0.6044  0.0250 -0.5584
  188MOL0     C25304   3.233   4.872   9.423 -0.4666  0.2337 -1.0387
  188MOL0     C25305   3.093   4.853   9.354  0.0608  1.3557  0.3884
  188MOL0     C25306   3.097   4.720   9.283 -0.0320 -0.5050  0.0171
  188MOL0     C25307   3.001   4.709   9.164 -0.0134  0.2473 -0.0093
  188MOL0     C25308   2.931   4.577   9.149 -0.5981 -0.4826 -0.8637
  188MOL0     C25309   2.879   4.475   9.126 -0.1038  0.2955  0.3403
  188MOL0     C25310   3.511   4.951   9.494 -0.8200 -0.1474 -0.2093
  188MOL0     C25311   3.639   4.914   9.541 -0.3796 -0.2844 -0.1968
  188MOL0     C25312   3.678   4.948   9.675  0.7680  0.2494  0.2210
  188MOL0     H25313   4.157   4.827   9.393 -0.1674  2.1525  0.6697
  188MOL0     H25314   4.390   4.776   9.512 -0.3318  0.7579 -1.0301
  188MOL0     H25315   4.412   4.734   9.957 -0.1240 -0.0777  0.7361
  188MOL0     H25316   4.362   4.585   9.857 -0.1850  0.8998  0.2998
  188MOL0     H25317   4.575   4.574   9.986  0.4623  0.7521  0.1852
  188MOL0     H25318   4.641   4.705   9.877  0.9357 -0.5896 -3.6511
  188MOL0     H25319   4.615   4.565   9.690 -2.6447 -1.1515 -1.0012
  188MOL0     H25320   4.524   4.445   9.762  1.0889 -0.9938  0.7373
  188MOL0     H25321   4.810   4.516   9.865 -0.5421  1.6493 -1.0177
  188MOL0     H25322   4.711   4.376   9.924 -0.9452 -3.7232 -2.6829
  188MOL0     H25323   4.721   4.263   9.713 -0.5234  2.5900 -2.6236
  188MOL0     H25324   4.804   4.399   9.646  1.5830  1.8415  0.2279
  188MOL0     H25325   4.997   4.362   9.775 -0.4832 -0.1705 -2.6208
  188MOL0     H25326   4.915   4.275   9.907 -0.7381  0.3654 -0.2837
  188MOL0     H25327   4.933   4.172   9.615 -1.3562  0.0824  0.6634
  188MOL0     H25328   4.867   4.091   9.752 -2.3545  1.1426 -0.0556
  188MOL0     H25329   5.130   4.094   9.842  3.3690 -3.5933 -0.7476
  188MOL0     H25330   5.058   3.974   9.738 -1.3220  0.8217  1.6904
  188MOL0     H25331   5.211   4.315   9.724 -0.3464 -1.7523  2.2711
  188MOL0     H25332   5.357   4.453   9.585  0.0110  1.6149 -0.3603
  188MOL0     H25333   5.417   4.409   9.422  2.3465 -0.2230  2.4301
  188MOL0     H25334   5.159   4.403   9.374 -1.6059 -0.3998  2.0220
  188MOL0     H25335   5.144   4.474   9.519 -0.8154 -0.9623 -0.6455
  188MOL0     H25336   5.164   4.650   9.314  1.1220  2.0216  1.0065
  188MOL0     H25337   5.317   4.576   9.283 -1.4136 -1.0378 -1.2355
  188MOL0     H25338   5.397   4.667   9.501 -1.0799 -2.6145 -0.5067
  188MOL0     H25339   5.218   4.726   9.513  0.0167  0.9189 -0.3315
  188MOL0     H25340   5.298   4.860   9.632 -0.0004 -1.8122 -1.1246
  188MOL0     H25341   5.364   5.058   9.767 -1.0093 -1.4116  0.0208
  188MOL0     H25342   5.788   5.289   9.844  0.8004  1.8881 -1.2932
  188MOL0     H25343   5.887   5.438   9.980 -0.3891 -1.0481  3.2638
  188MOL0     H25344   5.630   5.727  10.206  1.2069  0.6127 -0.3571
  188MOL0     H25345   5.648   5.595  10.329  0.5499  0.0658  0.3237
  188MOL0     H25346   5.727   5.782  10.431  0.6560  1.0515 -0.4736
  188MOL0     H25347   5.865   5.700  10.382 -1.5087 -1.0320  1.8191
  188MOL0     H25348   5.892   5.858  10.177 -1.1503 -0.9538 -1.1000
  188MOL0     H25349   5.753   5.945  10.227  1.3501  2.3672  1.0968
  188MOL0     H25350   6.025   5.922  10.348 -1.9321 -1.9960 -0.0009
  188MOL0     H25351   5.873   6.005  10.428  0.1438 -1.3329  1.1329
  188MOL0     H25352   5.895   6.171  10.235  2.2562  2.0809 -1.2968
  188MOL0     H25353   6.017   6.063  10.154 -0.8413 -0.1630 -1.1646
  188MOL0     H25354   6.055   6.229  10.409  1.9702 -1.9125  1.4991
  188MOL0     H25355   6.156   6.101  10.334 -2.7147 -2.4773 -1.1744
  188MOL0     H25356   6.225   6.236  10.153  0.5978  0.7551 -0.6512
  188MOL0     H25357   6.209   6.346  10.300  0.4122 -1.7965  0.9803
  188MOL0     H25358   6.005   6.334  10.074 -2.4977 -0.8071  1.5947
  188MOL0     H25359   6.002   6.432  10.218 -0.7818 -0.1553 -0.5074
  188MOL0     H25360   5.506   5.517  10.191  0.3102  1.5572  0.3735
  188MOL0     H25361   5.397   5.364  10.035 -0.3330  0.0678  0.6689
  188MOL0     H25362   5.583   5.219   9.450 -0.0706 -1.0320 -1.6243
  188MOL0     H25363   5.469   5.038   9.294 -2.2001  3.0840  0.1961
  188MOL0     H25364   4.195   4.782   9.888  2.2789  2.4767  0.6546
  188MOL0     H25365   3.974   4.846   9.782 -1.0415  0.0010 -0.7093
  188MOL0     H25366   3.699   4.688   9.289 -0.0919  1.4820 -2.2364
  188MOL0     H25367   3.478   4.761   9.214 -2.9370  1.8829 -0.3585
  188MOL0     H25368   3.216   4.948   9.500  1.5838 -0.0704 -0.2130
  188MOL0     H25369   3.260   4.775   9.466  0.0843  0.7628 -0.1545
  188MOL0     H25370   3.068   4.930   9.281  1.8928 -0.4775 -2.3403
  188MOL0     H25371   3.011   4.856   9.426  2.4746  1.6179  3.3570
  188MOL0     H25372   3.075   4.650   9.364 -1.6833  0.4828  0.4719
  188MOL0     H25373   3.193   4.685   9.245 -1.3323 -1.7301 -2.3908
  188MOL0     H25374   2.926   4.788   9.159 -0.1859  0.1500  0.9293
  188MOL0     H25375   3.063   4.726   9.075  0.7429  0.7929  0.5979
  188MOL0     H25376   2.821   4.386   9.109  0.4085 -0.0875  0.5551
  188MOL0     H25377   3.454   5.018   9.557 -2.0916 -1.9494  0.6425
  188MOL0     H25378   3.671   4.858   9.736 -1.7428  0.9159  1.0617
  188MOL0     H25379   3.773   5.001   9.668  0.9754 -0.3691 -4.1049
  188MOL0     H25380   3.600   5.013   9.717 -1.2099 -2.3161  0.8026
  189MOL0     O25381  10.108   0.912  10.459  0.5086 -0.3997 -0.1447
  189MOL0     C25382  10.071   0.941  10.570 -0.1539 -0.1697  0.0096
  189MOL0     O25383  10.152   0.993  10.663  0.7803  0.6510  0.1912
  189MOL0     C25384  10.286   1.027  10.633  0.6043  0.1241 -0.0456
  189MOL0     C25385  10.385   0.977  10.715 -0.2141  1.1306 -0.7029
  189MOL0     C25386  10.510   1.012  10.697 -0.3343 -1.1182 -0.1359
  189MOL0     C25387  10.548   1.099  10.591 -0.7421  0.2042  0.5002
  189MOL0     O25388  10.684   1.125  10.603  0.1296  0.1480 -0.0563
  189MOL0     C25389  10.730   1.251  10.552  0.2859 -0.3885 -0.0170
  189MOL0     C25390  10.848   1.298  10.632  0.0302  0.4599 -0.5464
  189MOL0     C25391  10.909   1.426  10.562  0.3067 -0.3545 -0.1395
  189MOL0     C25392  11.029   1.475  10.628  0.0167  0.3856 -0.5950
  189MOL0     C25393  11.087   1.598  10.546  0.5788  0.4099 -0.1508
  189MOL0     C25394  11.205   1.666  10.614  0.2052 -0.8671 -0.3150
  189MOL0     C25395  11.325   1.579  10.620 -0.2595  0.1840  0.5299
  189MOL0     C25396  11.448   1.663  10.651  0.7598 -0.4043  0.4671
  189MOL0     N25397  11.574   1.597  10.631 -0.2982 -0.0018 -0.0888
  189MOL0     C25398  11.644   1.529  10.733 -0.0990  0.7777  0.4137
  189MOL0     C25399  11.759   1.503  10.669 -0.3119  0.1499  0.0643
  189MOL0     C25400  11.880   1.435  10.722 -0.4012  0.6137  0.0177
  189MOL0     C25401  11.999   1.476  10.644 -0.7780  0.2689 -0.3241
  189MOL0     C25402  12.126   1.399  10.690  0.2548  0.3078  0.2330
  189MOL0     C25403  12.251   1.412  10.605  0.1376  0.4969  0.0869
  189MOL0     O25404  12.308   1.534  10.645 -0.1300 -0.3474  0.3201
  189MOL0     C25405  12.436   1.557  10.594  0.4807  0.4119 -0.3170
  189MOL0     C25406  12.499   1.679  10.632  0.4951  0.2601  0.4876
  189MOL0     C25407  12.619   1.713  10.576 -0.5226  0.1023  1.1452
  189MOL0     C25408  12.685   1.640  10.480 -0.2487  1.9033 -0.3396
  189MOL0     C25409  12.823   1.669  10.447  0.6978  0.6097 -0.0698
  189MOL0     O25410  12.875   1.787  10.490  0.2441 -0.2154  0.0328
  189MOL0     C25411  13.007   1.815  10.460 -0.2067  0.2555  0.4920
  189MOL0     C25412  13.106   1.834  10.556  1.3298 -1.2366 -1.2276
  189MOL0     C25413  13.239   1.851  10.518 -0.0924 -0.6229  1.4906
  189MOL0     C25414  13.283   1.865  10.384 -0.0003  0.5801 -0.0854
  189MOL0     O25415  13.412   1.887  10.338 -0.2313  0.6183  0.1798
  189MOL0     C25416  13.523   1.916  10.426 -1.2146  0.0689 -0.7138
  189MOL0     C25417  13.643   1.947  10.337 -0.1868  0.2546 -0.4536
  189MOL0     C25418  13.770   1.951  10.429  0.6360  0.4340  0.2045
  189MOL0     C25419  13.886   1.905  10.360 -0.3803 -0.4191  0.4728
  189MOL0     C25420  14.017   1.932  10.444  0.5411 -0.2836 -0.1358
  189MOL0     C25421  14.150   1.890  10.374 -0.0451  0.7223 -0.3748
  189MOL0     C25422  14.268   1.904  10.475  0.2648  0.1798 -1.1078
  189MOL0     C25423  14.397   1.856  10.408  0.3681  0.3982  0.2709
  189MOL0    Cl25424  14.556   1.904  10.480  0.0902 -0.0579 -0.0167
  189MOL0     C25425  13.181   1.858  10.289  0.5769  0.6734 -0.0508
  189MOL0     C25426  13.046   1.842  10.321  0.8558  0.2251 -0.4487
  189MOL0     O25427  12.875   1.574  10.381  0.4466 -0.1773 -0.4028
  189MOL0     C25428  12.611   1.523  10.441  0.6968 -0.4062  1.1029
  189MOL0     C25429  12.490   1.480  10.494 -0.1183 -0.9861  0.0811
  189MOL0     N25430  11.756   1.547  10.539  0.3685 -0.0494 -0.2020
  189MOL0     N25431  11.644   1.607  10.520 -0.2077 -0.3530 -0.0322
  189MOL0     C25432  10.451   1.142  10.502 -0.2902  0.2365  0.6049
  189MOL0     C25433  10.320   1.102  10.523 -0.1655 -0.2853  0.1868
  189MOL0     C25434   9.926   0.917  10.615 -0.6276  0.3001  0.5570
  189MOL0     C25435   9.887   0.957  10.746 -0.4514  0.0165  0.3652
  189MOL0     C25436   9.756   0.937  10.795  0.1038  0.1828 -0.5335
  189MOL0     C25437   9.658   0.872  10.712 -0.1734  0.6989  0.4934
  189MOL0     O25438   9.529   0.859  10.741  0.0881  0.3945 -0.3460
  189MOL0     C25439   9.499   0.870  10.879 -0.4837 -0.7727  1.0041
  189MOL0     C25440   9.359   0.804  10.890 -1.2785 -0.4376 -0.4502
  189MOL0     C25441   9.250   0.896  10.836 -0.9193  0.5629  0.1971
  189MOL0     C25442   9.114   0.826  10.868 -0.4220 -0.2708  0.2376
  189MOL0     C25443   9.087   0.845  11.013  0.5592 -0.6639  0.0478
  189MOL0     C25444   9.056   0.875  11.120 -0.8465  0.2334 -0.2905
  189MOL0     C25445   9.693   0.846  10.583 -0.3485  0.9125  0.2215
  189MOL0     C25446   9.824   0.861  10.534  0.0081  0.3983 -0.1734
  189MOL0     C25447   9.846   0.821  10.389 -0.0095 -0.1456  0.5490
  189MOL0     H25448  10.369   0.899  10.788  1.2188  2.9237  1.6977
  189MOL0     H25449  10.575   0.959  10.765  1.8571  0.3628 -0.9648
  189MOL0     H25450  10.747   1.252  10.444  1.0392 -0.2573  0.0971
  189MOL0     H25451  10.653   1.325  10.577  0.5942 -0.7362  2.2154
  189MOL0     H25452  10.923   1.220  10.615  0.3060  0.9928 -1.8453
  189MOL0     H25453  10.814   1.317  10.735  0.6685 -1.5952  0.1036
  189MOL0     H25454  10.827   1.499  10.561  1.7378  1.3414 -2.1038
  189MOL0     H25455  10.936   1.403  10.459 -0.7087 -0.8638 -0.3020
  189MOL0     H25456  11.000   1.498  10.732 -1.6066  0.2822 -0.9953
  189MOL0     H25457  11.099   1.392  10.637 -3.7018 -3.2115 -1.7705
  189MOL0     H25458  11.115   1.563  10.446  0.1663  4.1701 -1.7315
  189MOL0     H25459  11.007   1.672  10.540  0.3035  0.1420  0.1889
  189MOL0     H25460  11.220   1.752  10.549 -0.4457 -1.0006 -0.6565
  189MOL0     H25461  11.185   1.702  10.715 -1.2159  2.5667 -1.6914
  189MOL0     H25462  11.337   1.542  10.518 -1.6384 -0.1385  0.4741
  189MOL0     H25463  11.310   1.493  10.685 -0.7006 -1.2812 -1.4083
  189MOL0     H25464  11.451   1.747  10.580  0.3077 -2.2039 -1.8112
  189MOL0     H25465  11.434   1.708  10.750  1.3151  2.1860 -0.5267
  189MOL0     H25466  11.624   1.520  10.839  0.8772  1.5274  0.6747
  189MOL0     H25467  11.905   1.454  10.826 -3.2388  1.3077  0.6503
  189MOL0     H25468  11.874   1.327  10.700  2.0000  0.4893 -0.4062
  189MOL0     H25469  11.985   1.452  10.538  0.1562  2.3156 -0.9628
  189MOL0     H25470  12.007   1.584  10.652 -2.1387  0.5194 -1.8822
  189MOL0     H25471  12.101   1.293  10.702 -0.3131  0.5803  1.6201
  189MOL0     H25472  12.155   1.428  10.791 -0.3351  2.2803 -0.1323
  189MOL0     H25473  12.224   1.415  10.499 -2.7546  1.3420  0.7366
  189MOL0     H25474  12.328   1.337  10.622  0.8623  1.5010  1.4344
  189MOL0     H25475  12.465   1.742  10.713  3.5133  0.7367  1.4842
  189MOL0     H25476  12.667   1.804  10.610 -1.4242  1.9500 -2.0768
  189MOL0     H25477  13.085   1.819  10.661  0.7658 -0.1734 -1.1810
  189MOL0     H25478  13.322   1.844  10.588  1.6253  0.7871 -0.3001
  189MOL0     H25479  13.501   2.008  10.481 -0.9812 -1.0907  1.4220
  189MOL0     H25480  13.543   1.836  10.497 -1.3569  3.0327  2.9339
  189MOL0     H25481  13.655   1.871  10.259 -1.3858 -0.3501 -0.0762
  189MOL0     H25482  13.631   2.046  10.293 -2.2153 -0.4725 -1.6684
  189MOL0     H25483  13.788   2.057  10.447 -0.6145  0.7522 -0.3953
  189MOL0     H25484  13.766   1.891  10.521 -0.8460 -0.8931 -0.6776
  189MOL0     H25485  13.897   1.955  10.263 -0.1457 -0.4885  0.4612
  189MOL0     H25486  13.890   1.798  10.338 -0.0134 -1.1324  3.5636
  189MOL0     H25487  14.006   1.883  10.541 -1.9972 -1.2195 -0.8162
  189MOL0     H25488  14.030   2.039  10.466 -1.1722 -0.4338  1.9742
  189MOL0     H25489  14.151   1.781  10.363  2.3536  0.5059  1.3040
  189MOL0     H25490  14.180   1.946  10.285  0.1694  1.7103  0.3071
  189MOL0     H25491  14.256   1.851  10.570 -0.8248  0.2435 -1.2007
  189MOL0     H25492  14.281   2.011  10.494 -0.2513  0.1748 -0.6865
  189MOL0     H25493  14.388   1.749  10.384  2.3414 -0.4314  2.7217
  189MOL0     H25494  14.382   1.912  10.316 -4.4033  0.8838  1.1121
  189MOL0     H25495  13.191   1.885  10.184  0.3737  0.4631 -0.1243
  189MOL0     H25496  12.966   1.851  10.248 -0.6065 -0.2202  1.0123
  189MOL0     H25497  12.647   1.448  10.372 -0.2961 -0.4223  0.5789
  189MOL0     H25498  12.449   1.389  10.452  0.9310 -0.8594 -1.2805
  189MOL0     H25499  10.481   1.202  10.417  0.2421 -1.1466 -0.2181
  189MOL0     H25500  10.250   1.141  10.449  0.1525  0.4243  0.2500
  189MOL0     H25501   9.965   0.984  10.816 -0.8304  1.1910  0.3474
  189MOL0     H25502   9.735   0.981  10.892  1.4695 -0.1527 -0.0720
  189MOL0     H25503   9.483   0.978  10.889  1.8104 -0.3147  0.3647
  189MOL0     H25504   9.581   0.847  10.947  2.1957  0.9263 -1.3713
  189MOL0     H25505   9.336   0.786  10.996 -0.9557  0.6692 -0.1816
  189MOL0     H25506   9.361   0.704  10.845  0.1201 -0.5745 -0.1563
  189MOL0     H25507   9.263   0.906  10.728  1.2030 -2.6152  0.0168
  189MOL0     H25508   9.258   0.996  10.880  2.2508  1.0510 -1.2014
  189MOL0     H25509   9.040   0.873  10.803 -0.1237 -1.0128 -0.6510
  189MOL0     H25510   9.117   0.722  10.835 -2.6618 -0.1879 -0.4054
  189MOL0     H25511   9.013   0.895  11.215  0.3262  0.7996  0.1392
  189MOL0     H25512   9.627   0.806  10.507  0.8719 -0.9046  0.0501
  189MOL0     H25513   9.882   0.913  10.342  1.0904  0.6607  2.7793
  189MOL0     H25514   9.918   0.738  10.387 -0.0827 -0.4685  4.1032
  189MOL0     H25515   9.757   0.798  10.330 -0.8097  1.6243  0.9914
  190MOL0     O25516   4.500   3.875   7.002 -0.7315 -0.7934  0.0563
  190MOL0     C25517   4.435   3.787   6.948  0.1561  0.7392  0.4433
  190MOL0     O25518   4.474   3.722   6.833 -0.8341  0.0111 -0.4832
  190MOL0     C25519   4.613   3.733   6.812  0.7407  0.6049  0.3219
  190MOL0     C25520   4.703   3.656   6.887 -0.3931  0.0234 -0.8258
  190MOL0     C25521   4.844   3.685   6.854 -0.2263  1.2253 -0.4285
  190MOL0     C25522   4.887   3.750   6.738 -0.4923 -0.1236 -0.4885
  190MOL0     O25523   5.023   3.751   6.716  0.0288  0.0399  0.5907
  190MOL0     C25524   5.100   3.850   6.779 -0.1065 -0.6101 -0.1167
  190MOL0     C25525   5.246   3.813   6.786  0.6561 -0.2299  0.2993
  190MOL0     C25526   5.288   3.780   6.646  0.1595 -0.1138 -0.1502
  190MOL0     C25527   5.440   3.754   6.642  0.0192 -0.6931  0.1650
  190MOL0     C25528   5.487   3.735   6.489 -0.2382  0.4549  0.0413
  190MOL0     C25529   5.631   3.707   6.490  1.3196 -0.4475 -0.1735
  190MOL0     C25530   5.654   3.675   6.342  0.0304 -0.6205  0.1773
  190MOL0     C25531   5.794   3.628   6.328 -0.1823 -0.2536 -0.1967
  190MOL0     N25532   5.823   3.601   6.185  0.5866  0.5020  0.6330
  190MOL0     C25533   5.810   3.473   6.131  0.2613  0.7778  0.6052
  190MOL0     C25534   5.869   3.481   6.008 -0.1808 -0.2375 -0.6721
  190MOL0     C25535   5.887   3.378   5.914  0.0012  0.2300  0.0017
  190MOL0     C25536   6.038   3.356   5.893 -1.5943  0.5794  0.0324
  190MOL0     C25537   6.070   3.254   5.781 -1.0669 -0.3359 -0.5658
  190MOL0     C25538   6.221   3.256   5.757  0.3862 -0.6544 -0.6911
  190MOL0     O25539   6.261   3.214   5.619 -0.2762  0.0887 -0.3957
  190MOL0     C25540   6.393   3.224   5.581 -1.0217 -0.8377 -0.8007
  190MOL0     C25541   6.480   3.306   5.647  0.0593  0.2089 -0.4758
  190MOL0     C25542   6.616   3.317   5.613  0.6617 -0.7829 -0.0901
  190MOL0     C25543   6.671   3.242   5.506  0.4665 -0.9456  0.2890
  190MOL0     C25544   6.806   3.253   5.453 -0.1564  0.6601  0.5559
  190MOL0     O25545   6.848   3.189   5.342 -0.2392 -0.8781  0.3771
  190MOL0     C25546   6.979   3.162   5.325  0.3518  0.2876 -0.0179
  190MOL0     C25547   7.024   3.174   5.202  0.1961  0.1459  0.3198
  190MOL0     C25548   7.157   3.134   5.176 -0.5797 -0.8161  0.9418
  190MOL0     C25549   7.243   3.078   5.269 -0.0008 -0.1041 -0.5878
  190MOL0     O25550   7.367   3.032   5.228 -0.2963  0.5805  0.6294
  190MOL0     C25551   7.486   3.060   5.304  0.1333  0.5707  0.2973
  190MOL0     C25552   7.609   3.040   5.219  0.5812 -0.2123 -0.0515
  190MOL0     C25553   7.638   3.148   5.119 -0.6640  0.4631  0.0187
  190MOL0     C25554   7.792   3.135   5.082 -0.3455 -0.4258 -0.0428
  190MOL0     C25555   7.825   3.250   4.980  0.8167  1.2988 -0.0938
  190MOL0     C25556   7.977   3.247   4.955 -1.1649 -0.0800 -0.6475
  190MOL0     C25557   8.010   3.328   4.836 -0.0663  0.3997  0.7497
  190MOL0     C25558   8.159   3.366   4.841  0.3404  0.4507 -0.2167
  190MOL0    Cl25559   8.257   3.239   4.753  0.0992 -0.4383  0.4843
  190MOL0     C25560   7.190   3.073   5.401 -0.2945 -1.0988  0.3723
  190MOL0     C25561   7.062   3.120   5.431 -0.1940 -0.4538  0.3537
  190MOL0     O25562   6.879   3.316   5.529 -0.2693 -0.6148  0.3271
  190MOL0     C25563   6.575   3.156   5.448 -0.5167 -0.2303  0.5026
  190MOL0     C25564   6.446   3.143   5.488  0.7278  0.1926 -0.3114
  190MOL0     N25565   5.913   3.612   5.985  0.3037 -0.0874 -0.1378
  190MOL0     N25566   5.886   3.681   6.090  0.4581 -0.0231 -0.2211
  190MOL0     C25567   4.786   3.808   6.661  0.5478  0.6325 -0.0206
  190MOL0     C25568   4.652   3.807   6.700  0.2751 -0.8314  0.1411
  190MOL0     C25569   4.299   3.745   6.992 -0.0777  0.5056 -0.3890
  190MOL0     C25570   4.252   3.616   6.961  0.0811  0.1456  0.3960
  190MOL0     C25571   4.135   3.564   7.012 -0.6361 -0.4098  0.0849
  190MOL0     C25572   4.047   3.643   7.091  0.2488  0.6263  0.6784
  190MOL0     O25573   3.933   3.583   7.128 -0.4298 -0.1853 -0.2195
  190MOL0     C25574   3.809   3.647   7.150  0.2608 -0.8206 -0.5773
  190MOL0     C25575   3.768   3.629   7.300 -0.5135 -0.0734 -0.0844
  190MOL0     C25576   3.628   3.669   7.323 -0.5906  1.0553 -0.9912
  190MOL0     C25577   3.599   3.703   7.472  0.3500  1.0633 -0.6650
  190MOL0     C25578   3.467   3.764   7.461  0.1529 -0.5711 -0.1284
  190MOL0     C25579   3.357   3.817   7.455  0.2025  0.4552  0.4473
  190MOL0     C25580   4.085   3.777   7.109 -0.0577  0.0199  1.0133
  190MOL0     C25581   4.207   3.835   7.056  0.1552 -0.4683  0.3568
  190MOL0     C25582   4.236   3.977   7.087  0.0642 -0.4876  0.0551
  190MOL0     H25583   4.689   3.590   6.972  1.6205 -0.2930 -0.6926
  190MOL0     H25584   4.920   3.641   6.918 -1.7628  0.8024  1.1977
  190MOL0     H25585   5.083   3.943   6.725  5.0582 -0.3223 -1.8473
  190MOL0     H25586   5.073   3.864   6.884  1.1021  3.3687 -0.1681
  190MOL0     H25587   5.259   3.724   6.848 -0.0067 -0.8513 -0.4456
  190MOL0     H25588   5.291   3.906   6.824 -0.8613  0.2001  1.1106
  190MOL0     H25589   5.266   3.863   6.578  0.5423 -0.4092 -0.6410
  190MOL0     H25590   5.236   3.699   6.594  1.4020 -0.3606 -1.0620
  190MOL0     H25591   5.489   3.842   6.683 -0.1617 -0.4474 -0.1391
  190MOL0     H25592   5.460   3.676   6.716 -0.7230  0.4216  1.5931
  190MOL0     H25593   5.437   3.645   6.453 -0.3141 -1.3391  4.0316
  190MOL0     H25594   5.461   3.824   6.433 -0.1737  0.9368  0.7603
  190MOL0     H25595   5.688   3.790   6.532 -0.7466 -0.6627  3.4632
  190MOL0     H25596   5.650   3.619   6.553 -0.6807 -0.4614  0.5101
  190MOL0     H25597   5.641   3.768   6.286  0.1224  0.1013  1.3182
  190MOL0     H25598   5.582   3.600   6.309  0.2227 -1.5076  1.7023
  190MOL0     H25599   5.867   3.703   6.360 -0.3788  0.9762 -2.4557
  190MOL0     H25600   5.808   3.540   6.391  3.9063  2.1965  2.8697
  190MOL0     H25601   5.754   3.395   6.183 -0.4058  1.0076  0.2540
  190MOL0     H25602   5.841   3.283   5.943 -0.5568  0.8455  1.2344
  190MOL0     H25603   5.846   3.411   5.818 -0.1183 -0.4043 -0.1664
  190MOL0     H25604   6.084   3.455   5.885 -2.1921  0.8302 -0.3644
  190MOL0     H25605   6.082   3.310   5.982  1.6963  2.3649 -0.5071
  190MOL0     H25606   6.024   3.280   5.686 -0.1551 -0.8753 -1.1724
  190MOL0     H25607   6.036   3.153   5.805 -2.2252 -0.0530 -0.9798
  190MOL0     H25608   6.264   3.208   5.845 -0.8052  0.6170  0.6392
  190MOL0     H25609   6.254   3.360   5.771 -0.3125 -0.4797 -0.2851
  190MOL0     H25610   6.453   3.373   5.728 -1.0271 -0.7050 -0.0424
  190MOL0     H25611   6.677   3.379   5.677 -1.9189  2.0457 -0.1708
  190MOL0     H25612   6.958   3.212   5.124 -0.7108  1.5321  1.7169
  190MOL0     H25613   7.200   3.144   5.077 -3.5821 -1.5666 -0.5813
  190MOL0     H25614   7.484   3.158   5.354 -5.6648  0.6157  0.6262
  190MOL0     H25615   7.479   2.990   5.388 -0.3822 -0.0055 -0.2206
  190MOL0     H25616   7.694   3.014   5.283 -0.2813 -3.8124 -0.1266
  190MOL0     H25617   7.592   2.949   5.160 -1.2372  0.1269 -0.1276
  190MOL0     H25618   7.588   3.130   5.023 -1.8528  1.5658  0.3943
  190MOL0     H25619   7.618   3.248   5.158  0.2984 -0.0483  1.9460
  190MOL0     H25620   7.807   3.039   5.032  2.0618 -1.2424  1.9914
  190MOL0     H25621   7.849   3.144   5.176 -1.2407  1.5656  0.3628
  190MOL0     H25622   7.798   3.346   5.023 -0.4164  0.3848  1.2602
  190MOL0     H25623   7.773   3.227   4.886 -0.7108  0.6993  0.8589
  190MOL0     H25624   8.022   3.287   5.046 -2.2106 -1.0061  0.2986
  190MOL0     H25625   8.005   3.142   4.942  3.1342  0.5449  1.6547
  190MOL0     H25626   7.955   3.423   4.844  0.9317  0.9707  0.9298
  190MOL0     H25627   7.990   3.269   4.746 -0.9860  0.9589  0.5696
  190MOL0     H25628   8.172   3.467   4.802  0.1760  0.4309 -0.3274
  190MOL0     H25629   8.203   3.377   4.940 -1.0233  1.8582  0.2657
  190MOL0     H25630   7.244   3.033   5.486 -0.9232 -1.8330  0.4363
  190MOL0     H25631   7.032   3.115   5.535  1.3955 -0.2027  0.8467
  190MOL0     H25632   6.615   3.083   5.378  1.1610  0.3800  0.7759
  190MOL0     H25633   6.377   3.067   5.455 -0.0599  0.2759  1.0547
  190MOL0     H25634   4.820   3.870   6.578  0.9332  1.3701  0.6735
  190MOL0     H25635   4.574   3.850   6.637 -0.1669 -1.4195  0.2780
  190MOL0     H25636   4.309   3.544   6.903  1.5196  0.7165  1.0437
  190MOL0     H25637   4.106   3.460   6.999 -2.8074  0.0974  0.5560
  190MOL0     H25638   3.742   3.592   7.083 -2.6455  0.3277  1.1975
  190MOL0     H25639   3.803   3.751   7.117  0.8983 -0.6130 -0.0558
  190MOL0     H25640   3.827   3.696   7.364 -1.7493  1.9605 -0.9799
  190MOL0     H25641   3.783   3.521   7.308  1.1589  0.0024 -1.6255
  190MOL0     H25642   3.554   3.596   7.287 -0.8103  1.8781 -2.2643
  190MOL0     H25643   3.610   3.752   7.255 -0.0698 -0.4197 -3.0448
  190MOL0     H25644   3.603   3.618   7.541 -2.4413  1.6201  0.3091
  190MOL0     H25645   3.671   3.772   7.516  2.2543 -1.9199  1.2820
  190MOL0     H25646   3.263   3.869   7.459  0.0628  0.3498 -0.8971
  190MOL0     H25647   4.023   3.855   7.152  0.7861  0.3778  1.5873
  190MOL0     H25648   4.285   4.044   7.015  1.5445 -2.0920 -0.5006
  190MOL0     H25649   4.140   4.022   7.115 -0.3641 -1.9432  1.0411
  190MOL0     H25650   4.297   3.975   7.178 -1.4039  0.5012  1.1042
  191MOL0     O25651   9.915   4.681   2.918 -0.2375  0.6112  0.0212
  191MOL0     C25652   9.880   4.655   2.804 -0.1688  0.1071  0.3299
  191MOL0     O25653   9.966   4.637   2.696 -0.2246 -0.5423  0.1495
  191MOL0     C25654  10.093   4.693   2.700 -0.5552  0.0529  0.3469
  191MOL0     C25655  10.109   4.828   2.693 -0.5192  0.4546 -0.1097
  191MOL0     C25656  10.238   4.884   2.692  0.0476  1.3232 -0.1649
  191MOL0     C25657  10.345   4.797   2.696 -0.1220 -0.0661  0.2294
  191MOL0     O25658  10.469   4.856   2.703  0.1793 -0.4380  0.6798
  191MOL0     C25659  10.477   4.928   2.578 -0.9355 -0.5648  0.8963
  191MOL0     C25660  10.630   4.939   2.536  0.2931 -0.2754  0.6198
  191MOL0     C25661  10.642   5.030   2.412 -0.5077  0.6871 -0.6579
  191MOL0     C25662  10.785   5.023   2.347  0.7862 -0.0129  0.5035
  191MOL0     C25663  10.899   5.018   2.452  0.1194 -0.6899 -1.0514
  191MOL0     C25664  11.032   5.024   2.389 -0.4661 -0.5577  0.3713
  191MOL0     C25665  11.147   5.012   2.492  0.2050 -0.5970  0.8619
  191MOL0     C25666  11.161   4.883   2.562  0.2502 -0.3701 -0.7176
  191MOL0     N25667  11.223   4.776   2.493  0.5896  0.2338  0.1422
  191MOL0     C25668  11.335   4.706   2.530  0.6773 -0.3518  1.7995
  191MOL0     C25669  11.357   4.613   2.434  0.3302 -0.7942  0.4381
  191MOL0     C25670  11.453   4.492   2.446 -0.2508 -0.4015 -0.8929
  191MOL0     C25671  11.375   4.385   2.535  0.7193  0.4386 -0.2731
  191MOL0     C25672  11.440   4.245   2.552  0.1767  0.0184  1.3409
  191MOL0     C25673  11.547   4.231   2.650 -0.3692 -0.7381 -0.1766
  191MOL0     O25674  11.657   4.314   2.613 -0.1505  0.0625 -0.0380
  191MOL0     C25675  11.757   4.347   2.704 -1.4599 -0.2568  0.0862
  191MOL0     C25676  11.750   4.307   2.840  0.3527  1.6451 -0.1769
  191MOL0     C25677  11.840   4.351   2.933  0.7159  1.2492  0.5236
  191MOL0     C25678  11.942   4.445   2.902 -0.2720  0.9148  0.7263
  191MOL0     C25679  12.047   4.491   2.997  0.1999  0.8063  0.2196
  191MOL0     O25680  12.163   4.546   2.949  0.3575  0.3782 -0.8654
  191MOL0     C25681  12.257   4.604   3.031  0.2271 -0.0958  0.1516
  191MOL0     C25682  12.308   4.532   3.145 -0.2511  0.2848 -0.1153
  191MOL0     C25683  12.420   4.581   3.219  0.4769  0.0668  0.3579
  191MOL0     C25684  12.470   4.705   3.189 -0.0772 -0.5827 -0.3462
  191MOL0     O25685  12.573   4.755   3.268 -0.2397  0.3501  0.6690
  191MOL0     C25686  12.631   4.889   3.255  0.0334 -0.3453  0.3683
  191MOL0     C25687  12.735   4.925   3.358 -0.0468  1.2110 -0.7526
  191MOL0     C25688  12.858   4.840   3.332  0.1733 -0.1661 -0.2566
  191MOL0     C25689  12.961   4.862   3.442  0.2359 -0.3293  0.2139
  191MOL0     C25690  13.076   4.772   3.415 -0.2291  0.6528 -0.4231
  191MOL0     C25691  13.180   4.767   3.535  0.0761 -0.1177 -0.6134
  191MOL0     C25692  13.291   4.867   3.523 -0.3791  0.0317  0.2665
  191MOL0     C25693  13.399   4.849   3.632 -0.4854 -0.0296  0.3404
  191MOL0    Cl25694  13.497   4.995   3.628  0.1087 -0.3582  0.0616
  191MOL0     C25695  12.419   4.779   3.084  0.5244  0.2086  1.1387
  191MOL0     C25696  12.315   4.721   3.000 -0.1840 -1.0758 -0.3111
  191MOL0     O25697  12.026   4.468   3.116  0.1351  0.0762  0.1776
  191MOL0     C25698  11.947   4.496   2.770 -0.0936 -0.1793  0.4840
  191MOL0     C25699  11.849   4.456   2.683  0.2339 -0.5075  1.0892
  191MOL0     N25700  11.262   4.628   2.339  0.0983  0.1867 -0.1728
  191MOL0     N25701  11.179   4.719   2.379 -0.0787 -0.1720  0.0906
  191MOL0     C25702  10.334   4.657   2.712  0.1277 -0.1015  0.6657
  191MOL0     C25703  10.202   4.603   2.723  0.0960  0.2093 -0.5471
  191MOL0     C25704   9.733   4.639   2.795 -0.8366 -0.2492  0.4633
  191MOL0     C25705   9.648   4.625   2.917 -1.0335  1.1687  0.2509
  191MOL0     C25706   9.510   4.607   2.912 -0.0527  0.3265  1.5824
  191MOL0     C25707   9.449   4.580   2.792  0.0012  0.1271  0.0328
  191MOL0     O25708   9.308   4.552   2.776  0.6962 -0.4195 -0.5515
  191MOL0     C25709   9.243   4.473   2.880 -1.0715  0.0583  0.5621
  191MOL0     C25710   9.112   4.397   2.825  0.0684  0.8672  0.7972
  191MOL0     C25711   8.984   4.477   2.794 -0.0201  0.1923 -0.7148
  191MOL0     C25712   8.904   4.518   2.923 -0.2019 -0.4883 -0.2200
  191MOL0     C25713   8.840   4.401   2.991  0.6552 -0.1103  0.3849
  191MOL0     C25714   8.788   4.310   3.048 -0.1501  0.9120  0.0902
  191MOL0     C25715   9.528   4.598   2.676  0.1201 -0.4017  0.5379
  191MOL0     C25716   9.664   4.639   2.677  0.8375  0.0470 -0.0388
  191MOL0     C25717   9.724   4.696   2.554  0.2712 -0.6054  0.1179
  191MOL0     H25718  10.027   4.899   2.690 -1.3410 -0.4818 -0.4079
  191MOL0     H25719  10.251   4.990   2.709  3.7033  0.7907  1.3996
  191MOL0     H25720  10.428   4.874   2.497  3.4852 -1.2871 -1.6527
  191MOL0     H25721  10.433   5.027   2.588 -0.5543 -0.2739 -0.1382
  191MOL0     H25722  10.681   4.846   2.509 -1.1708 -1.6363  2.3034
  191MOL0     H25723  10.680   4.996   2.615  1.7911 -0.9752  0.2162
  191MOL0     H25724  10.610   5.131   2.440 -1.3930 -0.3704  2.5180
  191MOL0     H25725  10.566   4.990   2.344 -1.1706 -1.6453  1.3307
  191MOL0     H25726  10.782   4.939   2.277 -2.3732  3.0613 -3.6404
  191MOL0     H25727  10.801   5.112   2.284  0.4739  1.6500  2.6581
  191MOL0     H25728  10.884   5.097   2.526 -1.6178 -0.2083 -1.8699
  191MOL0     H25729  10.886   4.926   2.510 -0.3107 -0.2809 -0.4886
  191MOL0     H25730  11.054   4.946   2.316  2.4984  0.4409  0.0740
  191MOL0     H25731  11.045   5.126   2.351  0.3376 -0.7049  0.2308
  191MOL0     H25732  11.123   5.098   2.556 -1.0334  2.3121 -3.0895
  191MOL0     H25733  11.235   5.040   2.434 -1.3382 -0.6040 -1.6723
  191MOL0     H25734  11.222   4.897   2.652  0.5429  0.8392 -1.0856
  191MOL0     H25735  11.065   4.850   2.604  1.0365 -1.4523  0.2936
  191MOL0     H25736  11.390   4.722   2.623 -0.5554 -1.5501  2.7819
  191MOL0     H25737  11.458   4.444   2.348 -2.1381 -3.3041  0.2852
  191MOL0     H25738  11.548   4.530   2.486 -1.4434 -0.2038  1.9826
  191MOL0     H25739  11.369   4.443   2.628  0.5882  1.3454 -0.8333
  191MOL0     H25740  11.278   4.355   2.494  1.2066  0.4589 -1.4595
  191MOL0     H25741  11.487   4.213   2.458 -1.8279 -0.9977  0.6113
  191MOL0     H25742  11.367   4.165   2.568  0.1437 -0.3632 -0.4856
  191MOL0     H25743  11.576   4.125   2.657 -0.5836 -0.8448 -0.8580
  191MOL0     H25744  11.501   4.272   2.740 -1.4276  1.2283 -1.5460
  191MOL0     H25745  11.680   4.229   2.868  1.3828  0.8607  0.3090
  191MOL0     H25746  11.842   4.298   3.027 -0.7953 -1.9758 -1.0935
  191MOL0     H25747  12.271   4.434   3.173 -1.9934  1.2130  1.0554
  191MOL0     H25748  12.472   4.521   3.293 -1.2126 -2.1085 -0.1215
  191MOL0     H25749  12.683   4.907   3.160  0.8030 -0.7676  0.7012
  191MOL0     H25750  12.549   4.962   3.263  1.0177  0.7447  0.6895
  191MOL0     H25751  12.769   5.027   3.333  0.6897  0.3959 -3.5412
  191MOL0     H25752  12.689   4.914   3.456 -0.1570 -2.9298 -1.0885
  191MOL0     H25753  12.831   4.734   3.328 -1.1156  0.1066  0.4503
  191MOL0     H25754  12.898   4.868   3.235  2.5252 -2.2362  0.0298
  191MOL0     H25755  12.917   4.855   3.542  0.8477 -2.0047  0.4010
  191MOL0     H25756  12.999   4.964   3.431  2.6106 -1.0899  0.9304
  191MOL0     H25757  13.113   4.811   3.320  0.5290 -0.1394 -0.4671
  191MOL0     H25758  13.044   4.669   3.395  0.6963  0.0712  0.9824
  191MOL0     H25759  13.131   4.788   3.630  2.8417  0.9771  0.6799
  191MOL0     H25760  13.230   4.670   3.536 -1.7889 -1.1722 -1.9955
  191MOL0     H25761  13.260   4.972   3.528  0.3085  0.1990  1.5731
  191MOL0     H25762  13.350   4.856   3.432  1.5401 -1.7241  1.6286
  191MOL0     H25763  13.359   4.837   3.733  0.6990 -1.8648  0.6371
  191MOL0     H25764  13.456   4.756   3.637  0.9583  0.8651  1.3063
  191MOL0     H25765  12.454   4.880   3.066  1.4889 -0.3476 -0.2013
  191MOL0     H25766  12.279   4.773   2.911 -0.1435 -1.8520 -0.7968
  191MOL0     H25767  12.029   4.560   2.739  0.4027 -0.9169  0.2372
  191MOL0     H25768  11.849   4.493   2.580  0.9618  2.4858  2.0575
  191MOL0     H25769  10.419   4.593   2.733 -1.1700 -2.7789 -1.6430
  191MOL0     H25770  10.191   4.497   2.739  0.7210  0.3245  0.7884
  191MOL0     H25771   9.691   4.638   3.016 -0.3062 -2.2200  0.5112
  191MOL0     H25772   9.451   4.599   3.003 -0.2973 -1.2936  1.3213
  191MOL0     H25773   9.209   4.542   2.958 -0.6018  1.4216 -0.3995
  191MOL0     H25774   9.305   4.392   2.920 -2.0784  0.7524  3.8335
  191MOL0     H25775   9.092   4.314   2.894  1.5114 -0.9877 -0.9276
  191MOL0     H25776   9.139   4.348   2.731  1.7636  2.3989  0.4366
  191MOL0     H25777   8.911   4.435   2.724 -0.0508 -0.5762 -0.2358
  191MOL0     H25778   9.028   4.560   2.738  0.1549  0.1550 -0.6333
  191MOL0     H25779   8.973   4.568   2.991 -1.6620  1.8085 -0.2828
  191MOL0     H25780   8.824   4.589   2.897  0.4764  0.9644  1.4622
  191MOL0     H25781   8.734   4.232   3.099 -0.1641  1.1134  0.3838
  191MOL0     H25782   9.480   4.606   2.579  3.1060  1.0196 -0.9546
  191MOL0     H25783   9.781   4.787   2.573  1.0912 -1.3088  1.1576
  191MOL0     H25784   9.794   4.629   2.503 -1.8252 -1.4993 -1.7151
  191MOL0     H25785   9.642   4.718   2.485 -1.0022 -0.5450  1.5801
  192MOL0     O25786   2.738   9.490  10.436 -0.7441  0.7757 -0.3077
  192MOL0     C25787   2.655   9.466  10.529 -0.3917 -0.2000  0.1763
  192MOL0     O25788   2.695   9.424  10.654 -0.0787 -0.1198  0.8230
  192MOL0     C25789   2.830   9.397  10.669 -0.8528  0.6211  0.4330
  192MOL0     C25790   2.888   9.271  10.629 -0.0111 -0.4876  0.3561
  192MOL0     C25791   3.016   9.244  10.670  0.0608 -0.4296  0.3422
  192MOL0     C25792   3.086   9.318  10.764  0.7142 -0.9662 -1.2999
  192MOL0     O25793   3.214   9.275  10.800 -0.0547  0.3336  0.5699
  192MOL0     C25794   3.312   9.369  10.853 -0.6205  0.0550  0.1412
  192MOL0     C25795   3.362   9.470  10.751 -0.1079 -0.4644  1.2669
  192MOL0     C25796   3.509   9.506  10.755 -0.2232  0.8673  0.2239
  192MOL0     C25797   3.525   9.641  10.693 -0.6194 -0.2440  0.1792
  192MOL0     C25798   3.536   9.639  10.544 -0.3143 -0.2384  0.7982
  192MOL0     C25799   3.529   9.778  10.468 -0.3801 -0.0567 -0.3409
  192MOL0     C25800   3.648   9.859  10.518 -0.7406  0.4086 -0.0608
  192MOL0     C25801   3.679   9.976  10.433 -0.1416  0.4247  0.0900
  192MOL0     N25802   3.776  10.058  10.493 -0.7428 -0.6056 -0.4174
  192MOL0     C25803   3.767  10.129  10.614  0.0381  0.3158  0.2135
  192MOL0     C25804   3.875  10.210  10.625  0.1937 -0.2282  0.1720
  192MOL0     C25805   3.938  10.286  10.739  0.0268 -0.0620 -0.3750
  192MOL0     C25806   4.086  10.259  10.756  0.2554 -0.0849  0.1512
  192MOL0     C25807   4.172  10.362  10.681 -0.0781  0.1339  0.5538
  192MOL0     C25808   4.321  10.329  10.713 -0.1284 -0.7699 -0.9171
  192MOL0     O25809   4.399  10.417  10.624  0.5612  0.7778 -0.5861
  192MOL0     C25810   4.522  10.447  10.668  0.1349 -1.2919 -0.4905
  192MOL0     C25811   4.571  10.568  10.627 -0.3550  0.0288  0.5149
  192MOL0     C25812   4.710  10.599  10.651  0.9607  0.1296 -0.1526
  192MOL0     C25813   4.783  10.520  10.740 -0.3951 -0.7041  0.1127
  192MOL0     C25814   4.916  10.571  10.784  0.8793 -0.0769  1.0337
  192MOL0     O25815   4.975  10.502  10.890  0.4257  0.3203 -0.3492
  192MOL0     C25816   5.089  10.554  10.945  0.0618 -0.0444 -0.4393
  192MOL0     C25817   5.092  10.691  10.991  0.4458  0.4135  0.4294
  192MOL0     C25818   5.210  10.744  11.045 -0.1321 -0.5432 -0.5893
  192MOL0     C25819   5.330  10.671  11.039  0.6152  0.5817  0.3160
  192MOL0     O25820   5.450  10.710  11.087 -0.1998  0.0141 -0.2024
  192MOL0     C25821   5.470  10.835  11.157  0.3003  0.4859  1.3215
  192MOL0     C25822   5.616  10.858  11.185  0.9571  0.1270  0.5512
  192MOL0     C25823   5.636  11.001  11.236 -0.4491  0.5807  0.3915
  192MOL0     C25824   5.779  11.050  11.234  0.6704  1.3247 -0.3029
  192MOL0     C25825   5.779  11.183  11.307 -0.4457  0.4168  1.1190
  192MOL0     C25826   5.917  11.255  11.312  0.5055 -0.0525  0.4028
  192MOL0     C25827   5.921  11.379  11.396 -0.9283  0.5629  0.1038
  192MOL0     C25828   5.917  11.341  11.543  0.2555 -0.4140  0.1005
  192MOL0    Cl25829   5.965  11.485  11.646  0.0292  0.0924 -0.5154
  192MOL0     C25830   5.322  10.543  10.980  0.2422  0.5119 -0.2849
  192MOL0     C25831   5.210  10.484  10.936 -0.1936  0.7975 -0.7389
  192MOL0     O25832   4.968  10.666  10.718 -0.5380 -0.2547  0.3508
  192MOL0     C25833   4.736  10.402  10.786  0.8842  0.2535 -0.4043
  192MOL0     C25834   4.601  10.363  10.753  0.2321 -0.0753 -0.1139
  192MOL0     N25835   3.944  10.196  10.507  0.7201  0.2665 -0.5688
  192MOL0     N25836   3.891  10.100  10.433  0.1513  0.4076  0.1322
  192MOL0     C25837   3.033   9.440  10.806  0.7206 -0.8986  0.1452
  192MOL0     C25838   2.901   9.472  10.764 -0.6536 -0.1202 -0.4452
  192MOL0     C25839   2.514   9.490  10.490  0.8023  0.6132 -0.2950
  192MOL0     C25840   2.493   9.585  10.386  0.2723 -0.2879  0.6331
  192MOL0     C25841   2.373   9.597  10.312 -0.3028  0.0620 -0.2016
  192MOL0     C25842   2.264   9.527  10.347  0.3841  0.1283  0.1512
  192MOL0     O25843   2.153   9.555  10.275 -0.8424 -0.9273 -0.3428
  192MOL0     C25844   2.024   9.519  10.335 -0.3648  0.3781 -0.4178
  192MOL0     C25845   1.927   9.545  10.229 -1.1043  0.4460 -0.0653
  192MOL0     C25846   1.869   9.683  10.216 -0.4355 -0.6484  0.9071
  192MOL0     C25847   1.735   9.701  10.146 -0.5363 -0.9986  0.4209
  192MOL0     C25848   1.624   9.618  10.212 -0.1213  0.4666  0.0330
  192MOL0     C25849   1.537   9.556  10.277 -0.5550  0.5397 -0.2667
  192MOL0     C25850   2.276   9.429  10.455  0.0523  0.3704 -0.3737
  192MOL0     C25851   2.401   9.407  10.515 -0.3206  0.3518 -0.4318
  192MOL0     C25852   2.416   9.295  10.609 -0.3956  0.3790  0.7448
  192MOL0     H25853   2.828   9.205  10.567 -1.1976  1.7056 -0.9681
  192MOL0     H25854   3.056   9.157  10.618 -0.0417  0.0735 -0.5840
  192MOL0     H25855   3.264   9.419  10.938  0.8116  0.0110  1.0179
  192MOL0     H25856   3.398   9.316  10.897 -0.6627 -0.6997 -0.6633
  192MOL0     H25857   3.296   9.556  10.764  0.0704  0.1659 -1.3510
  192MOL0     H25858   3.337   9.440  10.648  0.2674  1.4137  0.5879
  192MOL0     H25859   3.570   9.430  10.705  0.3567  2.7696 -2.1581
  192MOL0     H25860   3.537   9.506  10.861 -1.3060 -0.6141  0.5543
  192MOL0     H25861   3.437   9.697  10.725 -0.5289 -0.3710  0.6651
  192MOL0     H25862   3.613   9.687  10.740  0.2568 -2.5534  0.9728
  192MOL0     H25863   3.634   9.592  10.530  0.9444  1.0243  4.2723
  192MOL0     H25864   3.458   9.574  10.503  0.1472 -2.6303  3.3953
  192MOL0     H25865   3.530   9.761  10.360  1.1188  3.6190 -1.0758
  192MOL0     H25866   3.431   9.823  10.485 -0.7224 -1.0396  0.3832
  192MOL0     H25867   3.731   9.788  10.510 -1.4240 -0.4205  0.0353
  192MOL0     H25868   3.645   9.882  10.625 -0.1573 -1.3109  0.3611
  192MOL0     H25869   3.731   9.939  10.344 -0.5215  1.6718 -0.6680
  192MOL0     H25870   3.591  10.032  10.402  1.5789  2.6080 -1.1346
  192MOL0     H25871   3.686  10.119  10.685 -1.9190 -1.4781 -2.0956
  192MOL0     H25872   3.923  10.394  10.729 -1.8606 -0.2585 -0.0065
  192MOL0     H25873   3.887  10.251  10.829  2.2749 -1.6251  0.3766
  192MOL0     H25874   4.111  10.261  10.862  1.3756 -2.4220  0.0198
  192MOL0     H25875   4.112  10.155  10.731 -1.1827 -1.5795  4.1153
  192MOL0     H25876   4.154  10.462  10.722 -2.4505 -0.5298  1.2846
  192MOL0     H25877   4.155  10.361  10.573 -0.8901  0.4289  0.6692
  192MOL0     H25878   4.330  10.221  10.706  0.4558 -0.8948  1.1641
  192MOL0     H25879   4.348  10.355  10.816 -0.3350  0.1424 -1.0808
  192MOL0     H25880   4.513  10.635  10.564 -0.6690  1.8522  2.5837
  192MOL0     H25881   4.745  10.695  10.615  0.3657  0.5976  0.4864
  192MOL0     H25882   5.008  10.757  10.969  1.2805  1.8519  1.4402
  192MOL0     H25883   5.208  10.844  11.088 -0.3387  0.5687 -3.0012
  192MOL0     H25884   5.425  10.917  11.100 -0.4022 -1.8111 -1.6690
  192MOL0     H25885   5.416  10.819  11.251 -1.2613 -0.6310  0.2930
  192MOL0     H25886   5.660  10.778  11.246  1.6672  0.0185 -0.0920
  192MOL0     H25887   5.662  10.856  11.086 -1.9202  1.3345 -0.9180
  192MOL0     H25888   5.568  11.060  11.173 -2.2183 -2.2270 -0.5364
  192MOL0     H25889   5.601  11.019  11.338 -3.2050  2.0543 -0.7133
  192MOL0     H25890   5.817  11.067  11.133  0.3620 -0.9516 -0.8562
  192MOL0     H25891   5.847  10.975  11.276 -0.1624  0.3451 -0.6794
  192MOL0     H25892   5.755  11.159  11.410 -0.2513 -0.4018  0.9788
  192MOL0     H25893   5.707  11.254  11.266  1.3496  0.9458 -1.3878
  192MOL0     H25894   5.986  11.174  11.339 -0.8771 -0.8776  1.6978
  192MOL0     H25895   5.941  11.278  11.208  1.6472 -1.0275  0.4176
  192MOL0     H25896   5.844  11.453  11.373  0.2023  1.5544 -0.6387
  192MOL0     H25897   6.020  11.424  11.385  0.3410 -1.8130  1.0304
  192MOL0     H25898   5.820  11.304  11.576  1.9713 -1.9883  3.9397
  192MOL0     H25899   5.988  11.259  11.560 -2.6903 -2.7044  2.3190
  192MOL0     H25900   5.409  10.479  10.968  1.3056  1.7072  0.7103
  192MOL0     H25901   5.214  10.391  10.880 -0.5083  0.7692 -0.7186
  192MOL0     H25902   4.790  10.343  10.859 -2.2997 -1.6037  0.6366
  192MOL0     H25903   4.567  10.265  10.782  2.2884 -1.1482 -1.0958
  192MOL0     H25904   3.085   9.509  10.873 -0.0120  0.1028 -0.2925
  192MOL0     H25905   2.858   9.569  10.786 -0.4039 -0.4746  1.8236
  192MOL0     H25906   2.576   9.648  10.355  1.3041 -1.6469  0.5404
  192MOL0     H25907   2.366   9.670  10.232  3.3018 -0.5611 -1.2649
  192MOL0     H25908   2.001   9.573  10.427  0.8782 -1.2607  0.9172
  192MOL0     H25909   2.024   9.411  10.352 -1.5994  0.1122 -1.9048
  192MOL0     H25910   1.839   9.484  10.251 -1.6408  2.0855  3.0175
  192MOL0     H25911   1.963   9.507  10.133 -0.6668 -0.7378  0.5537
  192MOL0     H25912   1.946   9.739  10.162  0.9164 -1.9519  1.4092
  192MOL0     H25913   1.856   9.721  10.318 -0.5045  0.6119  0.4490
  192MOL0     H25914   1.695   9.803  10.156 -1.0901 -0.9676 -1.6525
  192MOL0     H25915   1.746   9.676  10.040 -0.1988 -1.8391  0.6461
  192MOL0     H25916   1.453   9.503  10.316  2.1673 -2.3383  2.2185
  192MOL0     H25917   2.183   9.379  10.483  1.8885 -2.8449  0.5365
  192MOL0     H25918   2.427   9.340  10.709  1.7623  2.2129 -0.2328
  192MOL0     H25919   2.330   9.228  10.624 -0.6005  1.2627  4.9805
  192MOL0     H25920   2.506   9.240  10.581 -1.2242 -0.0837 -1.1443
  193MOL0     O25921   8.713   6.698   7.285 -0.0524 -0.0193  0.0682
  193MOL0     C25922   8.628   6.611   7.303 -0.5175 -0.2575  0.5739
  193MOL0     O25923   8.639   6.481   7.261 -0.1971  0.3719  0.4794
  193MOL0     C25924   8.733   6.442   7.163  0.1149 -0.0465 -0.0077
  193MOL0     C25925   8.691   6.340   7.067  0.3689 -1.1584 -0.5822
  193MOL0     C25926   8.779   6.298   6.968  0.6426 -0.3424  0.7362
  193MOL0     C25927   8.907   6.345   6.962  0.2665  0.5497 -0.5194
  193MOL0     O25928   9.001   6.286   6.878 -0.2127 -0.0141  0.9669
  193MOL0     C25929   8.992   6.146   6.823  0.3183  0.9038 -1.0914
  193MOL0     C25930   9.001   6.039   6.926  0.4876  0.5575  0.4105
  193MOL0     C25931   9.141   6.031   6.995 -0.0318  0.2108  1.1560
  193MOL0     C25932   9.155   6.129   7.108 -0.1846 -0.6555 -0.4679
  193MOL0     C25933   9.282   6.212   7.105  0.0613  0.1015 -0.5835
  193MOL0     C25934   9.318   6.285   7.236 -0.0139  0.1111  0.1533
  193MOL0     C25935   9.364   6.191   7.346  0.2068 -0.1663  0.8041
  193MOL0     C25936   9.519   6.191   7.359 -0.8411  0.1728  0.6480
  193MOL0     N25937   9.565   6.309   7.424 -0.4822 -0.2528 -0.4698
  193MOL0     C25938   9.540   6.358   7.553  0.3678  1.2000  0.2440
  193MOL0     C25939   9.618   6.463   7.565 -0.5199 -0.3343  0.2657
  193MOL0     C25940   9.651   6.537   7.696  0.0686  0.1590 -0.1827
  193MOL0     C25941   9.794   6.521   7.738  0.3971  0.6137  0.3343
  193MOL0     C25942   9.824   6.606   7.866  0.5705  0.3316 -0.0327
  193MOL0     C25943   9.967   6.595   7.934  0.7377 -0.0044  0.3170
  193MOL0     O25944  10.054   6.545   7.830 -0.4305  0.2902  0.1659
  193MOL0     C25945  10.184   6.518   7.863 -0.2471  0.1597 -0.3629
  193MOL0     C25946  10.258   6.465   7.754 -0.1737  0.4305 -0.4227
  193MOL0     C25947  10.393   6.434   7.772 -0.7992 -0.2155 -0.9338
  193MOL0     C25948  10.470   6.489   7.883  0.3515  0.1453 -0.4766
  193MOL0     C25949  10.617   6.492   7.892  0.6224  0.2270 -0.2970
  193MOL0     O25950  10.692   6.490   7.776  0.0896  0.3385 -0.2565
  193MOL0     C25951  10.827   6.501   7.776  0.1255  1.2816  0.5190
  193MOL0     C25952  10.880   6.581   7.669 -0.5567  0.1107 -0.4178
  193MOL0     C25953  11.014   6.563   7.635  0.2385 -0.1532  0.5058
  193MOL0     C25954  11.104   6.492   7.720 -0.0766 -0.3761 -0.1801
  193MOL0     O25955  11.241   6.474   7.704  0.2583 -0.7010  0.1095
  193MOL0     C25956  11.303   6.518   7.582 -0.5129  0.0215  0.2887
  193MOL0     C25957  11.408   6.428   7.535  0.5184 -0.3271  0.2619
  193MOL0     C25958  11.533   6.435   7.624 -0.5063 -0.3427 -0.0141
  193MOL0     C25959  11.636   6.549   7.570 -0.8555  0.2255 -0.0645
  193MOL0     C25960  11.768   6.528   7.643 -0.1160  0.2053 -0.0347
  193MOL0     C25961  11.878   6.613   7.579  0.5915 -0.2688 -0.2260
  193MOL0     C25962  12.010   6.638   7.653  0.0647 -0.3327  0.7098
  193MOL0     C25963  12.103   6.731   7.572  0.4690  0.0488 -0.5658
  193MOL0    Cl25964  12.271   6.729   7.640 -0.3085  0.0087 -0.0270
  193MOL0     C25965  11.053   6.436   7.840  0.0306  0.0225 -1.2430
  193MOL0     C25966  10.915   6.429   7.863  0.3051 -0.4005  0.2691
  193MOL0     O25967  10.664   6.491   8.008  0.7415  0.3652  0.2497
  193MOL0     C25968  10.391   6.548   7.986 -0.5354 -0.7407 -0.2499
  193MOL0     C25969  10.254   6.560   7.976 -0.4832 -0.0008 -0.4699
  193MOL0     N25970   9.693   6.480   7.453  0.4434  0.0475 -0.2183
  193MOL0     N25971   9.658   6.393   7.368 -0.2429  0.7077 -0.0232
  193MOL0     C25972   8.955   6.440   7.057 -0.4993  0.1972 -0.0352
  193MOL0     C25973   8.862   6.483   7.156 -0.4608  0.3230 -0.4804
  193MOL0     C25974   8.500   6.646   7.369  1.0549 -0.5659 -0.1516
  193MOL0     C25975   8.390   6.552   7.368  0.2571  0.8104 -0.5643
  193MOL0     C25976   8.269   6.576   7.437 -0.3563 -0.2956  1.0221
  193MOL0     C25977   8.254   6.703   7.504  0.5637 -0.1077  0.5470
  193MOL0     O25978   8.147   6.731   7.576 -0.6811  0.0128 -0.6586
  193MOL0     C25979   8.033   6.763   7.505  0.2950  0.3869  0.6042
  193MOL0     C25980   8.045   6.902   7.443  0.5406  0.3031  0.5865
  193MOL0     C25981   7.913   6.953   7.367 -0.0991  0.1914  1.0726
  193MOL0     C25982   7.925   7.087   7.301 -0.4640  0.2362  0.1592
  193MOL0     C25983   7.794   7.135   7.248 -0.7074 -0.4317  0.3849
  193MOL0     C25984   7.700   7.182   7.191  0.6257 -0.2210 -0.0460
  193MOL0     C25985   8.355   6.802   7.488 -1.0562 -0.5299  0.7903
  193MOL0     C25986   8.483   6.774   7.427  0.6630 -0.5297 -0.6190
  193MOL0     C25987   8.581   6.881   7.433 -0.1426  0.0479  0.4877
  193MOL0     H25988   8.593   6.295   7.081  0.6096 -2.1626 -1.9497
  193MOL0     H25989   8.741   6.223   6.899  3.3874  0.5268 -1.9167
  193MOL0     H25990   8.892   6.142   6.781 -0.1397 -3.1569 -0.0307
  193MOL0     H25991   9.069   6.117   6.751 -0.3463 -2.1380 -0.6863
  193MOL0     H25992   8.986   5.945   6.872  1.8095 -0.2380  1.3824
  193MOL0     H25993   8.922   6.040   7.001 -0.8029 -0.1234 -0.8759
  193MOL0     H25994   9.202   6.042   6.904 -3.2863 -1.6909 -1.4628
  193MOL0     H25995   9.144   5.926   7.025 -1.4875 -0.4809 -0.8703
  193MOL0     H25996   9.072   6.199   7.097  1.4958  1.5323  0.1920
  193MOL0     H25997   9.147   6.076   7.204 -0.2622 -0.3520 -0.3062
  193MOL0     H25998   9.366   6.144   7.088  1.1536  0.7556  1.7160
  193MOL0     H25999   9.271   6.278   7.018 -1.0820 -0.1775 -0.6658
  193MOL0     H26000   9.402   6.355   7.230  0.4135 -0.2157  1.7695
  193MOL0     H26001   9.231   6.346   7.265 -1.2474 -1.7743  0.6223
  193MOL0     H26002   9.321   6.095   7.315 -4.4651  1.5437  1.1104
  193MOL0     H26003   9.325   6.226   7.442  1.0050 -1.8352  1.7767
  193MOL0     H26004   9.560   6.107   7.415  1.8013  1.0337  0.1578
  193MOL0     H26005   9.565   6.202   7.260 -1.6141  2.5881  0.4830
  193MOL0     H26006   9.472   6.320   7.628 -0.2313 -2.4489 -1.8837
  193MOL0     H26007   9.627   6.643   7.691 -0.7914  0.0117  0.5430
  193MOL0     H26008   9.585   6.487   7.767  0.2684 -1.1296 -0.8769
  193MOL0     H26009   9.807   6.413   7.748 -3.1240  0.1270  0.7935
  193MOL0     H26010   9.856   6.546   7.651  0.1430 -2.8830 -0.9995
  193MOL0     H26011   9.751   6.594   7.946 -0.2282  5.8558  0.4608
  193MOL0     H26012   9.811   6.709   7.832 -0.5328 -0.1451 -1.0962
  193MOL0     H26013   9.964   6.526   8.019  0.5973  3.5894  3.4672
  193MOL0     H26014  10.004   6.695   7.957  0.3289  0.1953  0.1049
  193MOL0     H26015  10.217   6.448   7.655 -2.3275  1.6628  0.1935
  193MOL0     H26016  10.443   6.395   7.684 -1.5459 -0.4576 -1.2585
  193MOL0     H26017  10.822   6.639   7.598  0.5640  0.2657 -1.2281
  193MOL0     H26018  11.049   6.627   7.555 -4.1259  1.1066 -0.6896
  193MOL0     H26019  11.232   6.529   7.499  1.7582 -0.6284 -1.8620
  193MOL0     H26020  11.352   6.615   7.590 -0.5446  0.5385 -3.5552
  193MOL0     H26021  11.376   6.324   7.542 -1.5927  0.3986  2.6055
  193MOL0     H26022  11.430   6.450   7.430  0.6189  1.2131  0.5775
  193MOL0     H26023  11.499   6.459   7.726 -1.9441  0.8301 -0.7303
  193MOL0     H26024  11.587   6.340   7.617  0.5287  0.2213  0.2271
  193MOL0     H26025  11.589   6.645   7.594 -2.1128 -0.6675  1.2504
  193MOL0     H26026  11.649   6.540   7.462 -1.9293 -1.4084 -0.0965
  193MOL0     H26027  11.795   6.422   7.647 -1.7754 -0.2440 -0.2345
  193MOL0     H26028  11.746   6.560   7.746  0.2056 -1.5397  0.6210
  193MOL0     H26029  11.904   6.569   7.482 -0.4680  1.7380 -1.4959
  193MOL0     H26030  11.844   6.712   7.547 -1.4295 -0.7941  0.1702
  193MOL0     H26031  12.065   6.544   7.662 -0.2258 -0.5985 -0.1796
  193MOL0     H26032  11.992   6.687   7.749  0.2966  1.2104 -0.0132
  193MOL0     H26033  12.107   6.708   7.465  0.1117 -0.1124 -0.5467
  193MOL0     H26034  12.063   6.831   7.585  1.8601  0.2726  3.2439
  193MOL0     H26035  11.117   6.368   7.895 -2.8653 -0.2844  2.0527
  193MOL0     H26036  10.863   6.369   7.938 -3.4898  0.9382 -1.0289
  193MOL0     H26037  10.436   6.573   8.081 -0.7629 -0.0390 -0.3189
  193MOL0     H26038  10.201   6.634   8.035 -2.8074 -0.2302 -2.1053
  193MOL0     H26039   9.051   6.490   7.066  0.2886 -1.4130  1.0437
  193MOL0     H26040   8.890   6.559   7.228  0.1185  0.4738 -0.8597
  193MOL0     H26041   8.401   6.454   7.323  3.5028  1.9267 -2.5672
  193MOL0     H26042   8.187   6.505   7.445 -0.9228  0.4134  1.6811
  193MOL0     H26043   7.960   6.759   7.586  1.4703 -0.7364  1.6759
  193MOL0     H26044   8.002   6.689   7.430  1.7966  0.6713 -0.3401
  193MOL0     H26045   8.125   6.903   7.368  0.1147  3.0826  0.0849
  193MOL0     H26046   8.056   6.986   7.513 -4.0513  0.1447  1.8174
  193MOL0     H26047   7.829   6.944   7.437  1.2001 -1.1459  2.5489
  193MOL0     H26048   7.900   6.870   7.297  1.4899 -0.6638  1.7166
  193MOL0     H26049   7.970   7.152   7.376  0.2386  1.2257 -1.0873
  193MOL0     H26050   7.996   7.069   7.220 -0.9300  0.2372 -0.2566
  193MOL0     H26051   7.618   7.207   7.127  0.8359  3.0242  0.7941
  193MOL0     H26052   8.331   6.904   7.515 -1.3763 -0.2468 -0.5118
  193MOL0     H26053   8.674   6.853   7.483 -0.5621  0.2157  1.3795
  193MOL0     H26054   8.599   6.930   7.337  1.3822 -0.8583  0.2833
  193MOL0     H26055   8.535   6.955   7.500 -0.6142 -0.4573  0.7320
  194MOL0     O26056   1.625   2.082   6.577  0.3344 -0.4793  0.3862
  194MOL0     C26057   1.580   2.178   6.511  0.2781  0.0577 -0.1848
  194MOL0     O26058   1.627   2.299   6.530 -0.3152 -0.2276 -0.3523
  194MOL0     C26059   1.763   2.318   6.545  0.0006 -1.0379 -0.3461
  194MOL0     C26060   1.818   2.394   6.650 -0.7403  0.3287  1.1329
  194MOL0     C26061   1.957   2.425   6.636  0.7796  0.6484  0.2573
  194MOL0     C26062   2.049   2.358   6.560 -0.3503  0.3555  1.0056
  194MOL0     O26063   2.188   2.371   6.568  0.1612 -0.7910  0.2788
  194MOL0     C26064   2.234   2.498   6.622  0.1316  0.3059 -0.5287
  194MOL0     C26065   2.389   2.508   6.614 -0.6815  0.8897 -0.2086
  194MOL0     C26066   2.447   2.499   6.478 -1.1575  0.5431  0.4996
  194MOL0     C26067   2.605   2.465   6.493 -0.4342  0.3156  0.4728
  194MOL0     C26068   2.682   2.455   6.360  0.2018 -0.4428 -0.3924
  194MOL0     C26069   2.823   2.395   6.394  0.1638  0.3720  0.9028
  194MOL0     C26070   2.918   2.394   6.270  0.3389 -0.2913 -0.6783
  194MOL0     C26071   3.067   2.407   6.316  0.3592  0.4026 -0.3463
  194MOL0     N26072   3.119   2.301   6.406 -0.6083  0.2304 -0.0538
  194MOL0     C26073   3.070   2.172   6.396 -0.4319  0.0093  0.2204
  194MOL0     C26074   3.148   2.113   6.482 -0.3586  0.6124 -0.5248
  194MOL0     C26075   3.154   1.961   6.508 -0.7756  0.9363  0.4859
  194MOL0     C26076   3.295   1.920   6.569 -0.1755  0.6980  0.6236
  194MOL0     C26077   3.296   1.765   6.596 -0.4303  0.1816  0.0927
  194MOL0     C26078   3.436   1.725   6.656  0.6879  0.6880 -0.0897
  194MOL0     O26079   3.542   1.773   6.571  0.3575 -0.0408 -0.2601
  194MOL0     C26080   3.666   1.767   6.636 -0.1886 -0.5467  0.5754
  194MOL0     C26081   3.706   1.687   6.735  0.0582  1.0698 -0.2320
  194MOL0     C26082   3.821   1.712   6.802 -0.4049 -0.1061 -0.6164
  194MOL0     C26083   3.917   1.809   6.764  0.7120 -0.9004 -0.2640
  194MOL0     C26084   4.038   1.843   6.832  0.4478  0.0024 -0.1078
  194MOL0     O26085   4.123   1.949   6.788  0.6551 -0.3790 -0.2481
  194MOL0     C26086   4.231   1.987   6.850 -0.6588  0.4856  0.5444
  194MOL0     C26087   4.268   2.126   6.866  1.1451  1.5246  0.1745
  194MOL0     C26088   4.383   2.163   6.930  0.5186  0.2193 -0.4675
  194MOL0     C26089   4.479   2.075   6.976 -0.6474  0.2795  0.6412
  194MOL0     O26090   4.596   2.121   7.033 -0.2500  0.0316  0.3255
  194MOL0     C26091   4.699   2.023   7.044  0.2717 -0.0720 -0.7866
  194MOL0     C26092   4.827   2.081   7.104 -0.5997 -0.5190 -0.9113
  194MOL0     C26093   4.902   1.966   7.184 -0.1904 -0.0586  0.0838
  194MOL0     C26094   5.034   2.022   7.256 -0.6632 -0.2021  0.0388
  194MOL0     C26095   5.154   2.024   7.151 -0.5039  0.3351 -0.9740
  194MOL0     C26096   5.274   2.099   7.193 -0.4231  0.9787 -0.6675
  194MOL0     C26097   5.355   2.005   7.287 -0.2928 -0.6359  0.2983
  194MOL0     C26098   5.489   2.078   7.320 -0.8944 -0.1447 -0.5493
  194MOL0    Cl26099   5.588   1.973   7.435 -0.3188  0.3045 -0.2142
  194MOL0     C26100   4.439   1.938   6.979 -0.3847 -0.1920 -0.0149
  194MOL0     C26101   4.326   1.901   6.915 -0.2803 -0.2334 -0.4197
  194MOL0     O26102   4.068   1.769   6.925 -0.4447 -0.2341 -0.2345
  194MOL0     C26103   3.883   1.885   6.653 -0.9960  0.3189  1.0164
  194MOL0     C26104   3.757   1.859   6.586 -0.6065 -0.6050 -0.0764
  194MOL0     N26105   3.237   2.198   6.548  0.0983 -0.6690 -0.2726
  194MOL0     N26106   3.218   2.317   6.500 -0.5030 -0.0520 -0.0973
  194MOL0     C26107   1.994   2.267   6.466 -1.4203  0.6350 -0.2285
  194MOL0     C26108   1.856   2.257   6.451  1.0300  0.6300 -0.0794
  194MOL0     C26109   1.446   2.173   6.443 -0.0150 -0.3952  0.7763
  194MOL0     C26110   1.343   2.093   6.493  1.1790  0.0321  0.2426
  194MOL0     C26111   1.221   2.072   6.421  0.0179  0.0601  0.1268
  194MOL0     C26112   1.190   2.149   6.307  0.1893 -0.4295 -0.1368
  194MOL0     O26113   1.075   2.133   6.233 -0.1502 -0.4977  0.0325
  194MOL0     C26114   0.959   2.073   6.306  0.3760  0.5048  0.2179
  194MOL0     C26115   0.868   2.174   6.374  0.0749  0.2430 -0.3008
  194MOL0     C26116   0.748   2.105   6.441 -0.3912 -1.1282  0.1316
  194MOL0     C26117   0.651   2.213   6.491  0.7428 -0.3685  1.0200
  194MOL0     C26118   0.527   2.161   6.555 -0.5849 -0.2571  0.5245
  194MOL0     C26119   0.429   2.107   6.591  0.2409  0.2856  0.1044
  194MOL0     C26120   1.289   2.237   6.267 -0.0117  0.3397 -0.4746
  194MOL0     C26121   1.415   2.252   6.326  0.7904  0.1917 -1.2292
  194MOL0     C26122   1.512   2.347   6.262  0.1702 -0.3120  0.5261
  194MOL0     H26123   1.755   2.457   6.711 -0.4370  0.1307  1.6604
  194MOL0     H26124   2.004   2.490   6.710 -0.3349  0.5851  1.0527
  194MOL0     H26125   2.186   2.579   6.566 -1.1839  1.6167  2.3240
  194MOL0     H26126   2.205   2.512   6.726 -1.1373 -0.9324 -0.6716
  194MOL0     H26127   2.436   2.442   6.688 -0.2947  2.1470  0.7060
  194MOL0     H26128   2.420   2.605   6.654 -0.1653 -0.4288  2.8876
  194MOL0     H26129   2.444   2.599   6.433  0.7693  0.3774 -0.0819
  194MOL0     H26130   2.402   2.422   6.415  2.5609 -1.2874 -0.1662
  194MOL0     H26131   2.656   2.534   6.561  0.5213  0.7225 -0.6138
  194MOL0     H26132   2.601   2.363   6.530 -0.2083  1.0107  2.5329
  194MOL0     H26133   2.630   2.398   6.282  0.1132 -0.8323 -0.0544
  194MOL0     H26134   2.692   2.556   6.319 -1.2515 -0.0701  0.1018
  194MOL0     H26135   2.871   2.439   6.481  2.9021 -0.7774  0.0607
  194MOL0     H26136   2.803   2.290   6.416 -0.6990  0.4935  0.7430
  194MOL0     H26137   2.910   2.488   6.215  0.7281  1.3266  1.8949
  194MOL0     H26138   2.887   2.304   6.215  0.7610 -1.2457  0.5877
  194MOL0     H26139   3.121   2.405   6.221 -1.6610  0.1536 -1.5426
  194MOL0     H26140   3.088   2.504   6.361 -1.3265  0.0963  1.1797
  194MOL0     H26141   3.005   2.127   6.322  1.4882 -0.2110 -1.4043
  194MOL0     H26142   3.093   1.932   6.594  0.2614 -0.9883  0.6335
  194MOL0     H26143   3.133   1.925   6.408 -0.2904  1.9694 -0.0068
  194MOL0     H26144   3.378   1.954   6.506  0.0261 -0.6600  0.1205
  194MOL0     H26145   3.305   1.973   6.664 -2.5925  2.2318  0.0882
  194MOL0     H26146   3.284   1.727   6.494 -0.0911  1.9220 -0.6294
  194MOL0     H26147   3.214   1.732   6.661  0.1980  1.4319  1.5774
  194MOL0     H26148   3.425   1.616   6.660 -1.4661  0.8314 -0.8126
  194MOL0     H26149   3.442   1.757   6.760  0.8858 -1.8759  0.7630
  194MOL0     H26150   3.635   1.612   6.768 -0.3173  1.5586  0.0804
  194MOL0     H26151   3.836   1.648   6.888 -0.2915 -1.3673 -1.5492
  194MOL0     H26152   4.197   2.202   6.834 -1.7181 -1.4366 -1.1650
  194MOL0     H26153   4.400   2.270   6.942  0.3601  0.1589  0.3942
  194MOL0     H26154   4.667   1.945   7.114  0.3637  0.6494  0.0807
  194MOL0     H26155   4.735   1.984   6.949  3.1003 -1.2315  0.6427
  194MOL0     H26156   4.896   2.115   7.027 -0.7433 -1.5275 -1.5027
  194MOL0     H26157   4.796   2.152   7.182  1.9206 -0.1563 -0.1452
  194MOL0     H26158   4.828   1.934   7.258 -1.8876  4.1758  0.5472
  194MOL0     H26159   4.925   1.892   7.107  0.8033 -1.1050  1.3453
  194MOL0     H26160   5.067   1.951   7.332 -0.8297  0.3742  0.6534
  194MOL0     H26161   5.017   2.122   7.296  1.1380  0.8215 -1.6004
  194MOL0     H26162   5.118   2.061   7.054  1.1550  1.8240 -1.0837
  194MOL0     H26163   5.187   1.920   7.148  2.7335  1.2067  0.3392
  194MOL0     H26164   5.332   2.122   7.103 -0.0608 -0.3622 -0.8059
  194MOL0     H26165   5.254   2.192   7.247  1.6019  1.4007 -0.5568
  194MOL0     H26166   5.375   1.907   7.243  0.5815 -1.2929  2.0381
  194MOL0     H26167   5.301   1.994   7.382  0.9200  0.2354  1.1234
  194MOL0     H26168   5.548   2.097   7.230  1.0617  1.4210  0.9643
  194MOL0     H26169   5.472   2.176   7.365  1.9799 -0.5059  1.6584
  194MOL0     H26170   4.505   1.860   7.014 -1.0308 -1.1444 -0.8570
  194MOL0     H26171   4.322   1.792   6.920 -1.8602 -0.2413 -1.0356
  194MOL0     H26172   3.962   1.949   6.615  0.2763 -0.6419  1.9117
  194MOL0     H26173   3.733   1.923   6.502  2.6126 -0.0426 -0.7122
  194MOL0     H26174   2.061   2.218   6.395  1.2573  1.0069  1.8972
  194MOL0     H26175   1.815   2.193   6.373  1.7981 -0.5027  0.4312
  194MOL0     H26176   1.357   2.045   6.589 -0.8645  1.5668  1.3907
  194MOL0     H26177   1.148   2.009   6.471 -0.8524  1.6623  0.9360
  194MOL0     H26178   0.983   1.988   6.370  2.1958 -1.8805 -3.2816
  194MOL0     H26179   0.897   2.031   6.227  0.6356 -0.5879  0.5841
  194MOL0     H26180   0.843   2.250   6.300 -1.9681  1.1662  1.2351
  194MOL0     H26181   0.926   2.223   6.452  0.4084 -0.2382 -0.2421
  194MOL0     H26182   0.775   2.055   6.534  2.0881  0.0523  0.1219
  194MOL0     H26183   0.690   2.039   6.375 -1.8418  0.2728 -0.0621
  194MOL0     H26184   0.698   2.274   6.569  0.9187 -0.7412  1.2108
  194MOL0     H26185   0.640   2.274   6.401 -1.1745 -2.0466  0.0189
  194MOL0     H26186   0.341   2.063   6.634  2.2625 -1.0897  3.1918
  194MOL0     H26187   1.265   2.284   6.172  0.6125  1.8890  0.1045
  194MOL0     H26188   1.483   2.371   6.160  0.1949  0.5577  0.7153
  194MOL0     H26189   1.526   2.438   6.322  1.2161 -0.8080  1.0578
  194MOL0     H26190   1.613   2.308   6.253  0.6645  1.3410 -2.1407
  195MOL0     O26191   1.526   0.413   4.655  0.0252 -0.0385  0.5539
  195MOL0     C26192   1.431   0.331   4.648  0.6013  0.9540 -0.7152
  195MOL0     O26193   1.444   0.202   4.611  0.4258  0.1300 -0.4030
  195MOL0     C26194   1.567   0.159   4.577 -0.7667  0.5234  0.3566
  195MOL0     C26195   1.600   0.151   4.438  0.1459  0.1509  0.2976
  195MOL0     C26196   1.718   0.098   4.392  0.4699  0.1995  0.2873
  195MOL0     C26197   1.820   0.073   4.487 -0.5757  0.2967 -0.8072
  195MOL0     O26198   1.938   0.017   4.453  0.3598 -0.0042  0.7239
  195MOL0     C26199   1.996   0.081   4.340  0.3996  0.1886  0.6229
  195MOL0     C26200   2.136   0.006   4.310  0.2571  0.0813 -0.0069
  195MOL0     C26201   2.106  -0.131   4.254 -0.0065  0.8134 -0.6003
  195MOL0     C26202   2.224  -0.186   4.170  0.3299 -0.2310 -0.1974
  195MOL0     C26203   2.217  -0.342   4.141  0.0885  0.2256 -0.5267
  195MOL0     C26204   2.327  -0.389   4.045 -0.5397 -0.5377  1.1614
  195MOL0     C26205   2.365  -0.540   4.074 -0.5259  0.0148  0.3374
  195MOL0     C26206   2.247  -0.643   4.060  0.5721  0.3877 -1.0637
  195MOL0     N26207   2.212  -0.691   3.922 -0.3669  0.1872  0.7106
  195MOL0     C26208   2.161  -0.607   3.833 -0.6206  0.7295 -0.3932
  195MOL0     C26209   2.148  -0.678   3.719  0.8653  0.3771  0.0988
  195MOL0     C26210   2.069  -0.625   3.599  0.3778  0.3221 -0.3206
  195MOL0     C26211   2.146  -0.501   3.551 -0.1151 -0.2721  0.7384
  195MOL0     C26212   2.132  -0.495   3.400 -1.0376 -0.8880 -0.3236
  195MOL0     C26213   1.994  -0.450   3.347 -0.0393 -0.9167 -0.0229
  195MOL0     O26214   1.897  -0.557   3.362  0.0258  0.4263  0.1319
  195MOL0     C26215   1.770  -0.544   3.325 -0.1784  0.3230  0.4344
  195MOL0     C26216   1.718  -0.479   3.214  0.0015  1.4691  0.1206
  195MOL0     C26217   1.578  -0.469   3.196  0.6405  0.3175  0.4499
  195MOL0     C26218   1.487  -0.514   3.296 -0.4624 -0.5911 -0.7261
  195MOL0     C26219   1.343  -0.490   3.290  0.4270  0.8672  0.0637
  195MOL0     O26220   1.293  -0.477   3.163 -0.0962 -0.4018 -0.7885
  195MOL0     C26221   1.164  -0.502   3.140 -0.2420 -0.8792 -0.1543
  195MOL0     C26222   1.072  -0.403   3.185  0.2800 -0.0902 -0.2521
  195MOL0     C26223   0.940  -0.419   3.148  0.1576 -0.5185  0.1631
  195MOL0     C26224   0.901  -0.532   3.076 -0.0619 -0.3977  1.1358
  195MOL0     O26225   0.776  -0.566   3.048  0.7750 -0.6369 -0.2880
  195MOL0     C26226   0.687  -0.466   3.009 -0.1082 -0.1323 -0.2489
  195MOL0     C26227   0.562  -0.533   2.975  0.2353 -0.2614  0.6154
  195MOL0     C26228   0.505  -0.622   3.084  0.1342 -1.2684 -0.3334
  195MOL0     C26229   0.418  -0.737   3.015  0.4629 -0.3242  0.7311
  195MOL0     C26230   0.332  -0.803   3.122 -0.5401 -0.3170 -0.3560
  195MOL0     C26231   0.211  -0.880   3.062  0.2856  0.4995 -0.0238
  195MOL0     C26232   0.134  -0.971   3.166  0.0798  0.3960  0.9775
  195MOL0     C26233   0.008  -1.027   3.094  0.1829 -0.0950 -0.8607
  195MOL0    Cl26234  -0.085  -1.129   3.221 -0.2427 -0.3361 -0.2139
  195MOL0     C26235   0.997  -0.626   3.033  1.2788 -0.5657 -0.3040
  195MOL0     C26236   1.130  -0.605   3.064 -0.1794  0.9986 -0.2199
  195MOL0     O26237   1.275  -0.488   3.386  0.2994  1.0414  0.2291
  195MOL0     C26238   1.549  -0.580   3.401  0.1774  0.2767  0.2577
  195MOL0     C26239   1.680  -0.605   3.413 -0.5346 -0.1131  0.4119
  195MOL0     N26240   2.190  -0.806   3.748  0.6341  0.2576 -0.3863
  195MOL0     N26241   2.225  -0.816   3.875 -0.0992  0.3993  0.1404
  195MOL0     C26242   1.789   0.080   4.628 -0.1230  0.2219 -0.5934
  195MOL0     C26243   1.660   0.121   4.675  0.1692 -1.1033  0.1739
  195MOL0     C26244   1.294   0.359   4.717  0.4665  0.7182  0.1058
  195MOL0     C26245   1.220   0.248   4.773  0.0169  0.5112 -0.3565
  195MOL0     C26246   1.104   0.267   4.845 -0.2747 -0.5022  0.1265
  195MOL0     C26247   1.053   0.396   4.870  0.1591  0.2988 -0.3519
  195MOL0     O26248   0.935   0.419   4.940  0.6796 -0.3826 -0.2902
  195MOL0     C26249   0.845   0.306   4.970 -0.0828  0.7157  0.0746
  195MOL0     C26250   0.788   0.224   4.861 -0.2783 -0.3848  0.4874
  195MOL0     C26251   0.690   0.305   4.778 -0.3256 -1.3480  0.0428
  195MOL0     C26252   0.621   0.222   4.671 -0.7270  0.2767 -0.2081
  195MOL0     C26253   0.707   0.181   4.559 -0.4892 -0.9110  0.1091
  195MOL0     C26254   0.772   0.146   4.459 -0.0608 -0.0694  0.4572
  195MOL0     C26255   1.126   0.497   4.824 -0.1224 -1.2724 -0.2688
  195MOL0     C26256   1.233   0.487   4.736 -0.6350  0.4602  0.6353
  195MOL0     C26257   1.292   0.604   4.674 -0.4049  0.1703  0.1000
  195MOL0     H26258   1.533   0.182   4.359  1.8185  1.5466 -0.6379
  195MOL0     H26259   1.730   0.077   4.287 -2.2206  1.8324 -0.4307
  195MOL0     H26260   1.948   0.079   4.242 -0.2205  1.8024  0.8615
  195MOL0     H26261   2.019   0.182   4.373  1.0648 -0.1991  1.3878
  195MOL0     H26262   2.193  -0.024   4.398  0.8252 -1.5651 -0.9006
  195MOL0     H26263   2.197   0.061   4.239  1.2252 -0.6747  0.2173
  195MOL0     H26264   2.014  -0.135   4.196  0.5371 -1.3526 -1.4314
  195MOL0     H26265   2.077  -0.195   4.338  0.2387  2.2113  0.5778
  195MOL0     H26266   2.236  -0.113   4.090  0.6368 -2.4404 -2.2795
  195MOL0     H26267   2.317  -0.168   4.224  1.4723 -0.6922 -1.9291
  195MOL0     H26268   2.235  -0.388   4.239  0.9524  4.0734  1.3532
  195MOL0     H26269   2.118  -0.362   4.099 -0.8072  3.9485 -0.5652
  195MOL0     H26270   2.292  -0.367   3.943 -1.1076 -0.5941  1.3420
  195MOL0     H26271   2.419  -0.332   4.062 -1.5602  1.1593  1.1324
  195MOL0     H26272   2.415  -0.553   4.170  1.8738  0.8299 -0.7328
  195MOL0     H26273   2.441  -0.566   4.000  1.0332 -0.4576  2.0346
  195MOL0     H26274   2.280  -0.728   4.121  3.7361  2.2019 -0.0058
  195MOL0     H26275   2.159  -0.606   4.112  0.7604  0.9447 -1.1389
  195MOL0     H26276   2.124  -0.506   3.844  0.2179  1.0375 -0.3482
  195MOL0     H26277   2.066  -0.711   3.531  4.5451 -0.1557 -0.1448
  195MOL0     H26278   1.967  -0.602   3.629  1.0884  1.3110  1.4874
  195MOL0     H26279   2.112  -0.410   3.600  0.2621 -0.6825  1.7886
  195MOL0     H26280   2.252  -0.502   3.578  0.7917  1.7684 -2.1974
  195MOL0     H26281   2.160  -0.588   3.350  1.3250  0.3561 -1.4489
  195MOL0     H26282   2.199  -0.416   3.366 -2.5911  0.5225 -0.2553
  195MOL0     H26283   2.004  -0.418   3.242  2.4774 -1.4370 -0.0137
  195MOL0     H26284   1.954  -0.362   3.396 -2.9810 -0.9675 -2.0443
  195MOL0     H26285   1.772  -0.438   3.129 -1.3468 -2.3300 -2.8274
  195MOL0     H26286   1.540  -0.413   3.112 -3.8784  0.9704  2.5839
  195MOL0     H26287   1.117  -0.327   3.249  1.7305 -1.0321 -0.1004
  195MOL0     H26288   0.864  -0.357   3.194  0.5557  1.2610 -1.4227
  195MOL0     H26289   0.677  -0.396   3.093  5.1534  2.9190 -1.6917
  195MOL0     H26290   0.722  -0.403   2.926  3.2133 -0.6102  0.6377
  195MOL0     H26291   0.492  -0.453   2.950  0.7355 -0.3340 -1.1201
  195MOL0     H26292   0.584  -0.598   2.890  2.8297  2.0634 -0.6364
  195MOL0     H26293   0.582  -0.680   3.136  0.0172 -1.7629 -0.7016
  195MOL0     H26294   0.454  -0.559   3.158  1.9247  1.9609 -1.6479
  195MOL0     H26295   0.482  -0.805   2.958 -0.6303  0.0101 -0.9489
  195MOL0     H26296   0.359  -0.685   2.939 -0.9985  1.4433  2.9219
  195MOL0     H26297   0.302  -0.730   3.198  0.7621  1.0288 -1.0777
  195MOL0     H26298   0.395  -0.879   3.170 -0.9708 -0.5115 -0.0964
  195MOL0     H26299   0.138  -0.804   3.033  0.7357  0.5135 -1.1692
  195MOL0     H26300   0.239  -0.942   2.976 -0.8568  0.7740 -0.6069
  195MOL0     H26301   0.099  -0.905   3.245 -0.2128 -0.3010  1.4472
  195MOL0     H26302   0.208  -1.046   3.194 -0.4812  0.0670  1.6112
  195MOL0     H26303  -0.054  -0.952   3.045  0.7632  0.1828 -1.1840
  195MOL0     H26304   0.046  -1.096   3.018  1.2933 -0.0960 -0.3176
  195MOL0     H26305   0.951  -0.715   2.993  0.0572 -0.1435  0.1102
  195MOL0     H26306   1.208  -0.679   3.052  0.1976  0.3141  4.6885
  195MOL0     H26307   1.484  -0.619   3.479  1.4338 -2.2984  0.0885
  195MOL0     H26308   1.714  -0.650   3.506 -2.3609 -1.0761  0.6521
  195MOL0     H26309   1.869   0.053   4.696  0.3204 -0.9204 -1.5519
  195MOL0     H26310   1.628   0.142   4.776 -0.6998  2.8098 -0.7357
  195MOL0     H26311   1.261   0.147   4.770  1.0964  0.7150  3.1353
  195MOL0     H26312   1.049   0.185   4.891 -0.7765  0.0079  0.4381
  195MOL0     H26313   0.758   0.345   5.024 -1.4163 -3.7556  1.5688
  195MOL0     H26314   0.893   0.236   5.038  1.5560 -0.3163 -2.0585
  195MOL0     H26315   0.724   0.150   4.911 -0.1229 -0.8516  0.0060
  195MOL0     H26316   0.861   0.168   4.802 -0.4734  0.4246 -0.5332
  195MOL0     H26317   0.743   0.390   4.733 -3.6366  1.0526  0.2780
  195MOL0     H26318   0.607   0.346   4.835 -2.3067 -1.8650 -2.2857
  195MOL0     H26319   0.578   0.133   4.718  1.9221 -1.0936 -0.1853
  195MOL0     H26320   0.538   0.277   4.626 -0.4092 -1.7578 -3.6573
  195MOL0     H26321   0.826   0.132   4.367  0.1943  2.9536  0.0533
  195MOL0     H26322   1.077   0.590   4.852  1.0189 -0.2055 -1.7482
  195MOL0     H26323   1.347   0.573   4.585  0.9812 -0.0642  1.0179
  195MOL0     H26324   1.208   0.670   4.649 -0.4540 -0.8421 -2.7613
  195MOL0     H26325   1.357   0.656   4.744 -1.9918 -1.5121  2.9988
  196MOL0     O26326   5.185   9.088   9.914 -0.1426 -0.6877  0.8810
  196MOL0     C26327   5.128   9.091   9.798 -0.9251 -0.7778 -0.4966
  196MOL0     O26328   5.175   9.149   9.684  0.1651  0.0037 -0.5839
  196MOL0     C26329   5.297   9.211   9.690 -0.2660 -0.0010  0.1859
  196MOL0     C26330   5.295   9.351   9.697 -1.3806 -0.0139  0.2403
  196MOL0     C26331   5.415   9.427   9.700 -0.3348  0.4618  0.8059
  196MOL0     C26332   5.538   9.362   9.702  0.8550  0.5671  0.2805
  196MOL0     O26333   5.636   9.454   9.709 -0.2856 -1.1455 -0.2758
  196MOL0     C26334   5.747   9.404   9.783 -0.4202  0.3443  0.9289
  196MOL0     C26335   5.854   9.365   9.678  0.2174 -0.3978 -0.7375
  196MOL0     C26336   5.918   9.485   9.622  0.1160 -0.0001 -0.0671
  196MOL0     C26337   6.035   9.433   9.549  0.1122 -0.3194 -0.3225
  196MOL0     C26338   6.107   9.532   9.457  0.2983  0.1136 -0.2110
  196MOL0     C26339   6.043   9.568   9.320 -0.0433  0.0593 -0.5758
  196MOL0     C26340   6.131   9.645   9.219  0.3243 -0.3697 -0.2301
  196MOL0     C26341   6.169   9.789   9.263 -0.0407 -0.0754  0.2391
  196MOL0     N26342   6.275   9.844   9.171  1.0961 -0.0824 -0.3082
  196MOL0     C26343   6.372   9.778   9.099 -0.1229  0.5561 -0.2388
  196MOL0     C26344   6.459   9.868   9.054  1.0157 -0.2296  1.0439
  196MOL0     C26345   6.585   9.853   8.968 -0.6923 -0.4261 -0.0571
  196MOL0     C26346   6.680   9.755   9.028 -0.4964 -0.1582  0.1100
  196MOL0     C26347   6.789   9.721   8.923 -0.6309  0.0728  0.5693
  196MOL0     C26348   6.898   9.625   8.987  0.1151  0.1632 -0.6005
  196MOL0     O26349   6.983   9.687   9.083  0.4980 -0.2828  0.1590
  196MOL0     C26350   7.101   9.731   9.031 -0.0164 -0.2444 -0.6184
  196MOL0     C26351   7.194   9.644   8.971 -1.1323 -0.4073  0.7950
  196MOL0     C26352   7.313   9.690   8.907 -0.3516 -0.0727  0.4343
  196MOL0     C26353   7.349   9.827   8.923 -0.1782 -0.1578  0.7045
  196MOL0     C26354   7.479   9.884   8.876  0.1919 -0.0822 -0.3807
  196MOL0     O26355   7.514  10.014   8.897  0.5112  0.0670  0.7693
  196MOL0     C26356   7.639  10.063   8.883  0.5977 -0.0081  0.4586
  196MOL0     C26357   7.652  10.205   8.857 -0.1839  0.1196 -0.1129
  196MOL0     C26358   7.782  10.267   8.832 -0.2894  0.3801  0.6397
  196MOL0     C26359   7.895  10.191   8.835  0.1507 -0.2250  0.6334
  196MOL0     O26360   8.009  10.253   8.800  0.0825  0.0065 -0.4796
  196MOL0     C26361   8.116  10.188   8.724 -0.0697 -0.1048  0.4607
  196MOL0     C26362   8.113  10.230   8.574  0.5532 -0.6891 -0.2657
  196MOL0     C26363   8.223  10.169   8.501 -0.8575 -0.1305  0.4179
  196MOL0     C26364   8.209  10.187   8.345  0.4177 -0.8483  0.3047
  196MOL0     C26365   8.333  10.140   8.276  0.7353 -0.1228 -0.0027
  196MOL0     C26366   8.319  10.133   8.120  0.3113 -0.4125 -0.3801
  196MOL0     C26367   8.447  10.095   8.049 -0.1569  0.8446  0.3383
  196MOL0     C26368   8.526   9.981   8.118  0.0640 -0.2504  0.7632
  196MOL0    Cl26369   8.412   9.836   8.146 -0.1610  0.5672 -0.7043
  196MOL0     C26370   7.880  10.052   8.871 -0.5360  0.7186 -0.1078
  196MOL0     C26371   7.753   9.987   8.887 -0.4596  0.0314  0.0935
  196MOL0     O26372   7.543   9.805   8.802 -0.0154  0.0441 -0.1848
  196MOL0     C26373   7.258   9.911   8.981  0.0449 -0.7427 -0.6662
  196MOL0     C26374   7.133   9.867   9.029  0.4064 -0.0611 -0.0337
  196MOL0     N26375   6.394   9.984   9.093  0.4924  0.0844 -0.3210
  196MOL0     N26376   6.289   9.971   9.163  0.3720 -0.5686 -0.2757
  196MOL0     C26377   5.538   9.215   9.697  0.1997 -0.0173  0.1696
  196MOL0     C26378   5.418   9.142   9.684  0.0466 -0.7087  0.1852
  196MOL0     C26379   4.995   9.022   9.776 -0.0361  0.3391  0.0043
  196MOL0     C26380   4.949   8.997   9.641 -0.6776 -0.4204  0.1925
  196MOL0     C26381   4.821   8.942   9.610 -0.0771  0.6648 -0.1859
  196MOL0     C26382   4.741   8.897   9.715 -0.3449 -0.0548  0.7571
  196MOL0     O26383   4.615   8.851   9.694 -0.2856 -0.1708 -0.1979
  196MOL0     C26384   4.578   8.804   9.564 -0.6261 -0.9833  0.1155
  196MOL0     C26385   4.457   8.717   9.573  0.5370  0.6536  0.5121
  196MOL0     C26386   4.402   8.684   9.432 -0.2209  0.0004  0.1419
  196MOL0     C26387   4.276   8.597   9.428 -0.3036 -0.1495  1.0107
  196MOL0     C26388   4.308   8.457   9.472 -1.0670 -0.1614 -0.7807
  196MOL0     C26389   4.320   8.345   9.524 -0.2750 -0.0905 -0.7045
  196MOL0     C26390   4.789   8.910   9.848  0.5904 -0.3853 -0.1015
  196MOL0     C26391   4.912   8.974   9.881 -0.8084  0.5200  0.4678
  196MOL0     C26392   4.940   8.999  10.023  0.6235 -0.7995 -0.0516
  196MOL0     H26393   5.205   9.408   9.720 -2.0250 -1.1936  0.7504
  196MOL0     H26394   5.400   9.535   9.699 -0.4590  0.4649  1.7814
  196MOL0     H26395   5.787   9.496   9.827 -0.9330  0.1607  1.8071
  196MOL0     H26396   5.736   9.333   9.865  1.2440  1.3655  2.1140
  196MOL0     H26397   5.810   9.304   9.598 -0.9312 -0.6436  0.0495
  196MOL0     H26398   5.933   9.315   9.734  0.4704 -0.4954 -1.1745
  196MOL0     H26399   5.939   9.558   9.701  0.5119 -1.8769  1.6582
  196MOL0     H26400   5.845   9.539   9.561  0.7447  2.9685  1.5801
  196MOL0     H26401   6.104   9.396   9.625  1.2753 -0.5652 -1.4512
  196MOL0     H26402   6.002   9.348   9.488  0.0532 -0.7681  0.3318
  196MOL0     H26403   6.112   9.627   9.511  0.3297  1.5964 -2.6436
  196MOL0     H26404   6.209   9.498   9.443 -0.2817 -2.3528  1.0166
  196MOL0     H26405   6.012   9.475   9.271  1.6430 -1.4910  1.1238
  196MOL0     H26406   5.950   9.625   9.323  0.9309  2.0381 -3.2992
  196MOL0     H26407   6.085   9.667   9.123 -0.7862  4.6804  1.1590
  196MOL0     H26408   6.229   9.599   9.205  0.0430 -0.3696 -2.5548
  196MOL0     H26409   6.081   9.854   9.271  0.5666  0.8917 -0.6530
  196MOL0     H26410   6.206   9.786   9.365 -2.6700 -0.2053  1.2596
  196MOL0     H26411   6.378   9.672   9.076  2.8354  0.7833 -0.8887
  196MOL0     H26412   6.554   9.822   8.868 -0.6759 -1.0952  0.1407
  196MOL0     H26413   6.642   9.947   8.961  1.3391 -1.5511  0.5483
  196MOL0     H26414   6.725   9.798   9.117  1.5436 -2.5885  0.3431
  196MOL0     H26415   6.635   9.659   9.056 -0.4698 -0.6312 -1.3337
  196MOL0     H26416   6.836   9.813   8.887 -1.5066  0.6951  0.9939
  196MOL0     H26417   6.738   9.660   8.848 -1.3769 -2.4518  2.9419
  196MOL0     H26418   6.958   9.584   8.905  0.3913 -1.3495  0.3316
  196MOL0     H26419   6.847   9.541   9.035  3.3879 -0.6021  1.8686
  196MOL0     H26420   7.172   9.538   8.966 -3.0933 -0.0767  1.5787
  196MOL0     H26421   7.392   9.626   8.870 -0.9236 -0.4223 -0.2222
  196MOL0     H26422   7.565  10.268   8.842  0.6227  1.9578  2.2717
  196MOL0     H26423   7.780  10.371   8.798  0.2786 -0.6053 -2.8421
  196MOL0     H26424   8.215  10.205   8.766  0.8376 -1.9008 -0.8213
  196MOL0     H26425   8.107  10.079   8.720  0.5255 -0.1319 -0.1535
  196MOL0     H26426   8.013  10.210   8.536  0.4438  1.5635 -1.3258
  196MOL0     H26427   8.121  10.339   8.570  2.1134 -0.7994 -1.2083
  196MOL0     H26428   8.318  10.216   8.525 -1.6858  1.6144  0.4189
  196MOL0     H26429   8.225  10.062   8.522  1.2579  0.0418  1.2945
  196MOL0     H26430   8.197  10.293   8.322  2.2431 -0.5982  0.3366
  196MOL0     H26431   8.127  10.129   8.302  1.3303 -0.8275 -1.5382
  196MOL0     H26432   8.350  10.037   8.308  0.2567 -0.6724 -1.4236
  196MOL0     H26433   8.412  10.210   8.305 -1.7503  1.6075  3.4644
  196MOL0     H26434   8.244  10.058   8.093 -0.5293  0.3114 -0.1086
  196MOL0     H26435   8.298  10.232   8.077 -0.5108 -0.1217  0.6759
  196MOL0     H26436   8.513  10.181   8.048  0.6877  0.2095  0.3131
  196MOL0     H26437   8.419  10.075   7.945  0.3048 -1.5922  0.6246
  196MOL0     H26438   8.614   9.955   8.060  0.4462  0.7101  0.8921
  196MOL0     H26439   8.574  10.005   8.214 -0.5421  0.0734  0.9938
  196MOL0     H26440   7.977  10.002   8.874 -1.0089 -0.2673 -0.7995
  196MOL0     H26441   7.755   9.882   8.914  2.7142  0.4312  1.9653
  196MOL0     H26442   7.265  10.019   8.988 -3.6030 -0.2555 -1.9235
  196MOL0     H26443   7.062   9.941   9.065 -0.1265 -0.4598 -0.2587
  196MOL0     H26444   5.632   9.161   9.700  1.0219  1.3806  0.3408
  196MOL0     H26445   5.426   9.035   9.668  4.3109 -1.1405  3.3175
  196MOL0     H26446   5.018   9.013   9.560  0.2948 -2.6098  0.5105
  196MOL0     H26447   4.781   8.926   9.510 -2.2843 -3.1832  1.1173
  196MOL0     H26448   4.657   8.761   9.501 -0.7690  0.7221 -1.3329
  196MOL0     H26449   4.543   8.885   9.499 -0.8533 -2.2382 -1.4049
  196MOL0     H26450   4.382   8.764   9.636 -2.2031 -2.7743  0.0874
  196MOL0     H26451   4.490   8.626   9.624 -1.0130  0.8723  1.9760
  196MOL0     H26452   4.487   8.645   9.375  0.9088 -0.9488  2.3290
  196MOL0     H26453   4.377   8.777   9.381  2.7911  0.1598 -1.3022
  196MOL0     H26454   4.200   8.640   9.494 -1.1165 -3.1954  2.2523
  196MOL0     H26455   4.236   8.598   9.326  3.7665  0.5034 -0.7644
  196MOL0     H26456   4.323   8.264   9.595 -2.6280 -0.2188 -0.6775
  196MOL0     H26457   4.740   8.872   9.937  0.0668  1.0394  0.2429
  196MOL0     H26458   4.869   8.950  10.090 -1.8230  2.6175  0.1049
  196MOL0     H26459   5.036   8.954  10.047  0.8560 -0.7240 -0.7955
  196MOL0     H26460   4.938   9.107  10.038  2.7608 -0.8021  0.5001
  197MOL0     O26461   7.889   9.232   4.854 -0.4692 -0.0558  0.3352
  197MOL0     C26462   7.931   9.176   4.754 -0.0281  0.4121  0.1794
  197MOL0     O26463   8.050   9.195   4.701 -0.2508  1.7803 -0.0629
  197MOL0     C26464   8.149   9.260   4.773  0.5602  0.4118  0.2173
  197MOL0     C26465   8.253   9.183   4.822 -0.2669  0.3452  0.0014
  197MOL0     C26466   8.352   9.240   4.905 -0.1928 -0.5680  0.4792
  197MOL0     C26467   8.347   9.382   4.927 -0.8211  0.2732 -0.1760
  197MOL0     O26468   8.451   9.423   5.008 -0.6872  0.3398  0.1480
  197MOL0     C26469   8.473   9.566   5.030 -0.0197  0.1041 -0.1153
  197MOL0     C26470   8.601   9.590   5.106  0.3663 -0.0946  0.7987
  197MOL0     C26471   8.737   9.574   5.031  0.3474  0.4511  0.3641
  197MOL0     C26472   8.835   9.656   5.107 -0.3946  0.9035  0.5575
  197MOL0     C26473   8.979   9.615   5.087 -0.4768  0.1649 -0.5260
  197MOL0     C26474   9.017   9.471   5.116  0.0573 -0.7072 -0.4260
  197MOL0     C26475   9.161   9.434   5.098 -0.2028 -0.4080  0.0087
  197MOL0     C26476   9.179   9.276   5.107  0.4755 -0.1666  0.4374
  197MOL0     N26477   9.306   9.227   5.045  0.0156  0.4625 -0.9443
  197MOL0     C26478   9.314   9.122   4.957  0.0692 -0.0715 -0.0122
  197MOL0     C26479   9.438   9.115   4.915 -0.0970  0.5406 -0.4172
  197MOL0     C26480   9.502   9.015   4.825  0.4606  0.1371 -0.9095
  197MOL0     C26481   9.520   8.878   4.907  0.3696 -0.0953 -0.2053
  197MOL0     C26482   9.551   8.770   4.789  0.1345 -0.0076  1.0146
  197MOL0     C26483   9.693   8.782   4.735  0.6650  0.1853  0.2239
  197MOL0     O26484   9.784   8.810   4.841 -0.1010 -0.4880  0.3277
  197MOL0     C26485   9.909   8.782   4.803  0.4064 -0.1435 -0.2569
  197MOL0     C26486  10.000   8.784   4.913  0.5288  0.2353 -0.7088
  197MOL0     C26487  10.139   8.780   4.891 -0.1188  0.0333  0.1130
  197MOL0     C26488  10.194   8.774   4.760  1.1415  0.0682 -1.2042
  197MOL0     C26489  10.336   8.790   4.749 -0.1951 -0.3177  0.2162
  197MOL0     O26490  10.407   8.812   4.869  0.1968  0.8723 -0.3480
  197MOL0     C26491  10.538   8.852   4.855  0.1457 -1.0108  0.2546
  197MOL0     C26492  10.567   8.988   4.867 -0.0992  0.3221  0.4044
  197MOL0     C26493  10.707   9.023   4.874  0.6877 -0.2745  0.1260
  197MOL0     C26494  10.809   8.930   4.851  0.6133  0.6183  0.8816
  197MOL0     O26495  10.930   8.993   4.846  0.0171 -0.1082 -0.4983
  197MOL0     C26496  11.048   8.917   4.838  0.0368  0.4493 -0.3617
  197MOL0     C26497  11.168   9.015   4.806 -0.0497 -0.0896 -0.4454
  197MOL0     C26498  11.290   8.936   4.764 -0.3589  0.3487 -0.5253
  197MOL0     C26499  11.409   9.025   4.718 -0.4980 -0.0223  0.6240
  197MOL0     C26500  11.502   9.055   4.832 -0.3904 -0.8050 -0.0271
  197MOL0     C26501  11.630   9.141   4.786  0.4867 -0.3889 -0.3149
  197MOL0     C26502  11.601   9.291   4.796 -0.6515  0.0574  0.7521
  197MOL0     C26503  11.724   9.368   4.738  0.1041 -0.7417 -0.1851
  197MOL0    Cl26504  11.864   9.352   4.843  0.0215 -0.0654 -0.4723
  197MOL0     C26505  10.780   8.798   4.833  0.6985 -0.3081 -0.2265
  197MOL0     C26506  10.643   8.758   4.838  0.0718  0.2555 -0.1451
  197MOL0     O26507  10.387   8.782   4.636  0.3575  0.7518  0.0834
  197MOL0     C26508  10.104   8.788   4.661 -0.7201  0.5881 -0.0056
  197MOL0     C26509   9.963   8.793   4.678 -0.9661  0.4205  0.8050
  197MOL0     N26510   9.509   9.215   4.978 -0.0991 -0.1369  0.3735
  197MOL0     N26511   9.427   9.287   5.046 -0.3710 -0.8858  0.5924
  197MOL0     C26512   8.235   9.462   4.876  0.2303  0.0437  0.0256
  197MOL0     C26513   8.135   9.397   4.800  0.5942  0.2616  0.5964
  197MOL0     C26514   7.835   9.076   4.699  0.3555  0.0219  0.2713
  197MOL0     C26515   7.711   9.132   4.657  0.7147  0.6449  0.0611
  197MOL0     C26516   7.611   9.036   4.627  0.2342  0.7535 -1.0328
  197MOL0     C26517   7.628   8.901   4.632 -0.0071 -0.8195  0.0466
  197MOL0     O26518   7.525   8.815   4.592 -0.3773  0.7360 -0.3327
  197MOL0     C26519   7.509   8.687   4.662  0.5107 -0.4645 -0.3465
  197MOL0     C26520   7.377   8.682   4.744 -0.9959 -0.4595  0.9754
  197MOL0     C26521   7.259   8.704   4.652 -0.3318 -0.0081  0.1518
  197MOL0     C26522   7.123   8.695   4.717 -0.1549  0.8911  0.5153
  197MOL0     C26523   7.083   8.568   4.776 -0.3941 -0.5795 -0.1715
  197MOL0     C26524   7.055   8.461   4.826 -0.0372  0.0309 -0.1519
  197MOL0     C26525   7.755   8.850   4.662  1.1934  0.1500  0.7605
  197MOL0     C26526   7.856   8.940   4.703 -0.9042  1.0219  0.4912
  197MOL0     C26527   7.989   8.880   4.755  0.1206 -0.4719 -0.0454
  197MOL0     H26528   8.252   9.077   4.800 -3.2496  0.6964 -2.2659
  197MOL0     H26529   8.439   9.187   4.943 -0.6450 -0.7635  1.2672
  197MOL0     H26530   8.471   9.633   4.943 -1.3115  0.2278 -0.0085
  197MOL0     H26531   8.391   9.604   5.092  0.2068 -0.3478  0.4628
  197MOL0     H26532   8.608   9.522   5.192  2.2160  2.8406  3.1738
  197MOL0     H26533   8.603   9.693   5.145 -0.3094  0.6975 -1.1479
  197MOL0     H26534   8.727   9.612   4.929 -3.2484  0.1519  0.5084
  197MOL0     H26535   8.760   9.467   5.036  1.6534  0.6235 -1.1709
  197MOL0     H26536   8.832   9.754   5.058 -1.1788  0.2786 -0.6977
  197MOL0     H26537   8.816   9.657   5.215 -1.5783 -0.5556  0.3945
  197MOL0     H26538   9.012   9.636   4.985  1.3080 -0.0126 -0.0239
  197MOL0     H26539   9.043   9.672   5.156 -1.4120  0.2258  0.3109
  197MOL0     H26540   8.999   9.450   5.222  1.0723 -0.8327 -0.2659
  197MOL0     H26541   8.958   9.405   5.052  0.1387 -0.6150 -0.5959
  197MOL0     H26542   9.219   9.474   5.182  1.1287 -1.3465 -0.4347
  197MOL0     H26543   9.207   9.472   5.007 -0.1886  0.0700  0.2067
  197MOL0     H26544   9.177   9.248   5.212 -1.4244  0.5689  0.6359
  197MOL0     H26545   9.098   9.232   5.047  0.6139 -0.4993  0.4939
  197MOL0     H26546   9.231   9.060   4.927  0.7954 -1.2726  0.4094
  197MOL0     H26547   9.439   8.983   4.742  0.7832 -1.2615 -0.6443
  197MOL0     H26548   9.593   9.059   4.784  1.2847 -1.2430 -0.5919
  197MOL0     H26549   9.595   8.889   4.986 -0.7383  2.9210  0.5719
  197MOL0     H26550   9.422   8.864   4.953  0.3676  0.6102  0.0197
  197MOL0     H26551   9.474   8.778   4.712  0.3342  3.5687  1.0192
  197MOL0     H26552   9.548   8.667   4.827  2.2463 -0.0954  1.0549
  197MOL0     H26553   9.693   8.866   4.664  0.7723  1.4559  1.6816
  197MOL0     H26554   9.721   8.697   4.672  0.3986  2.7989 -3.8459
  197MOL0     H26555   9.965   8.790   5.015 -1.5003 -1.3077 -1.2475
  197MOL0     H26556  10.195   8.773   4.984 -1.3853  0.6173  0.9438
  197MOL0     H26557  10.490   9.064   4.871  2.0876  2.6642  0.2608
  197MOL0     H26558  10.714   9.131   4.885 -2.4070  0.2072 -1.6726
  197MOL0     H26559  11.069   8.846   4.919  0.3818  0.0088 -0.8329
  197MOL0     H26560  11.029   8.853   4.752  0.2540 -0.1021 -0.0032
  197MOL0     H26561  11.133   9.079   4.725  1.7178 -1.2974 -2.2641
  197MOL0     H26562  11.177   9.067   4.902  1.2845 -0.8375 -0.1342
  197MOL0     H26563  11.316   8.864   4.842 -1.1890  0.4781 -0.1209
  197MOL0     H26564  11.260   8.875   4.678 -2.9731  1.0353 -0.1772
  197MOL0     H26565  11.370   9.117   4.673 -0.9640 -1.8341 -3.0670
  197MOL0     H26566  11.461   8.975   4.636 -2.6800 -0.9472 -0.3007
  197MOL0     H26567  11.555   8.961   4.854  1.4217  0.1087 -0.3246
  197MOL0     H26568  11.456   9.098   4.921  3.1552 -2.0786  2.6449
  197MOL0     H26569  11.707   9.128   4.862  0.6785  0.4344 -0.3543
  197MOL0     H26570  11.666   9.106   4.690 -1.9442  1.2241 -1.9392
  197MOL0     H26571  11.577   9.329   4.896 -2.2819 -1.8577  1.1450
  197MOL0     H26572  11.513   9.317   4.737  1.6584  1.3941 -2.3639
  197MOL0     H26573  11.739   9.325   4.638 -0.8778  2.4271 -1.8602
  197MOL0     H26574  11.712   9.476   4.726  0.2069 -0.7973 -0.8754
  197MOL0     H26575  10.859   8.725   4.820  2.2844  1.3390 -0.3236
  197MOL0     H26576  10.639   8.650   4.828  2.3506  0.2105 -1.2700
  197MOL0     H26577  10.152   8.798   4.564 -0.8915 -1.4402 -0.3444
  197MOL0     H26578   9.902   8.795   4.588  1.8511 -2.4996 -1.4262
  197MOL0     H26579   8.230   9.570   4.890  1.4360  0.8594 -4.2863
  197MOL0     H26580   8.044   9.443   4.763  0.7090 -0.9175 -1.2817
  197MOL0     H26581   7.695   9.238   4.637 -1.2048 -0.0938 -3.1007
  197MOL0     H26582   7.514   9.076   4.601 -1.0475 -0.9894  0.8059
  197MOL0     H26583   7.588   8.671   4.736 -0.0733 -3.4273 -0.2367
  197MOL0     H26584   7.503   8.606   4.589 -1.9980 -1.6225  1.0235
  197MOL0     H26585   7.376   8.753   4.828 -1.9521  0.1275  0.4824
  197MOL0     H26586   7.364   8.579   4.780 -1.1171 -0.4925  0.8383
  197MOL0     H26587   7.259   8.632   4.569 -2.1456 -1.3364  1.2256
  197MOL0     H26588   7.282   8.800   4.605  2.0122 -2.0934 -3.3386
  197MOL0     H26589   7.119   8.767   4.799 -2.4440  2.1411 -0.6061
  197MOL0     H26590   7.056   8.717   4.634 -1.0389  0.5855  1.1338
  197MOL0     H26591   7.018   8.373   4.874  1.3219  0.3758  1.6406
  197MOL0     H26592   7.770   8.743   4.670 -0.5017 -0.1194  0.7298
  197MOL0     H26593   8.027   8.934   4.842 -1.2775 -0.5751  0.6507
  197MOL0     H26594   7.973   8.775   4.784 -4.0635  0.7633  2.9806
  197MOL0     H26595   8.073   8.881   4.685 -0.3633 -0.1451 -0.6267
  198MOL0     O26596   1.851   2.929   7.032  1.2153 -0.7132 -0.5076
  198MOL0     C26597   1.857   2.822   6.970 -0.3367 -0.2027  0.1044
  198MOL0     O26598   1.966   2.739   6.955  0.0450 -0.1862 -0.1377
  198MOL0     C26599   2.095   2.779   6.963 -0.5629  0.6303  0.1602
  198MOL0     C26600   2.148   2.906   6.985  0.2712  0.3354  0.9577
  198MOL0     C26601   2.289   2.920   6.985 -0.6444  0.7947  0.0731
  198MOL0     C26602   2.373   2.814   6.966 -0.5657  0.8756  0.8243
  198MOL0     O26603   2.510   2.829   6.974  0.6814 -0.6675 -0.1102
  198MOL0     C26604   2.564   2.834   6.842 -0.4559 -0.8205  0.3494
  198MOL0     C26605   2.658   2.709   6.825 -0.6977  0.5576  0.1392
  198MOL0     C26606   2.804   2.758   6.837  0.5774  0.1405  0.3479
  198MOL0     C26607   2.893   2.660   6.762  0.0938 -0.1099 -0.1412
  198MOL0     C26608   3.045   2.666   6.796  0.5771  0.5343  0.1379
  198MOL0     C26609   3.113   2.798   6.741  0.7828  0.2701 -0.2755
  198MOL0     C26610   3.233   2.821   6.825 -1.0050  0.3542 -0.4010
  198MOL0     C26611   3.344   2.715   6.805  1.1727  0.5153  0.2207
  198MOL0     N26612   3.413   2.713   6.674 -0.8734 -0.4199  0.2085
  198MOL0     C26613   3.453   2.604   6.607  0.4302 -0.0132 -0.9291
  198MOL0     C26614   3.507   2.656   6.491 -0.2553 -0.0614  0.3603
  198MOL0     C26615   3.577   2.568   6.384  0.1266 -0.5646 -0.9360
  198MOL0     C26616   3.548   2.621   6.247  0.3120 -0.2638 -0.6927
  198MOL0     C26617   3.402   2.597   6.200 -0.2043  0.6904 -0.1211
  198MOL0     C26618   3.289   2.690   6.253 -0.0360 -0.3158  0.5331
  198MOL0     O26619   3.175   2.657   6.170 -0.0230 -0.3689 -0.2736
  198MOL0     C26620   3.073   2.740   6.190  0.0716 -0.7489  0.5851
  198MOL0     C26621   3.020   2.786   6.314 -0.1090  0.9283  0.3444
  198MOL0     C26622   2.913   2.875   6.319 -0.8365 -0.6119  0.0268
  198MOL0     C26623   2.850   2.923   6.202 -0.6128 -0.4808 -0.5632
  198MOL0     C26624   2.735   3.013   6.212  0.4219 -0.6676  0.1577
  198MOL0     O26625   2.681   3.070   6.104  0.0744 -0.6442  0.3570
  198MOL0     C26626   2.571   3.146   6.116 -0.1194 -0.0659 -0.9855
  198MOL0     C26627   2.574   3.261   6.192  0.6834 -0.4071 -0.2430
  198MOL0     C26628   2.463   3.346   6.203 -0.8315 -1.0743  0.2271
  198MOL0     C26629   2.350   3.313   6.132  0.3693 -0.3540  0.4920
  198MOL0     O26630   2.235   3.388   6.146  0.2698 -0.0901  0.3995
  198MOL0     C26631   2.234   3.509   6.228 -0.6095  0.4674 -0.9941
  198MOL0     C26632   2.091   3.557   6.242  0.0809  0.0696  0.5435
  198MOL0     C26633   2.018   3.576   6.115 -0.4041  0.4714 -0.1113
  198MOL0     C26634   1.882   3.640   6.140 -0.2382  0.0757  0.2459
  198MOL0     C26635   1.815   3.685   6.010  0.5657  0.3141 -0.7329
  198MOL0     C26636   1.677   3.749   6.052 -0.0961 -0.3423  0.2209
  198MOL0     C26637   1.584   3.790   5.937  1.0262 -0.0611  0.0943
  198MOL0     C26638   1.460   3.861   5.989  0.4250 -0.5166 -0.0750
  198MOL0    Cl26639   1.344   3.852   5.861 -0.0560 -0.1949  0.1921
  198MOL0     C26640   2.341   3.190   6.056 -1.0582 -0.0348 -0.6848
  198MOL0     C26641   2.458   3.114   6.047 -0.6089 -0.0141 -0.6980
  198MOL0     O26642   2.687   3.021   6.325 -0.3424  0.1651  0.6248
  198MOL0     C26643   2.894   2.869   6.079 -0.1137 -0.8238 -1.1642
  198MOL0     C26644   3.004   2.783   6.076  0.1178 -0.4391 -0.3627
  198MOL0     N26645   3.486   2.794   6.488  0.2287 -0.4566  0.0942
  198MOL0     N26646   3.434   2.827   6.597 -0.2094  0.1320  0.5074
  198MOL0     C26647   2.320   2.680   6.963 -0.0328 -0.0555  1.0426
  198MOL0     C26648   2.180   2.666   6.952 -0.6133  0.6036 -0.1123
  198MOL0     C26649   1.733   2.758   6.919 -0.1103 -0.3035  0.8880
  198MOL0     C26650   1.726   2.619   6.953  0.6377 -0.0266  1.2688
  198MOL0     C26651   1.611   2.554   6.908 -1.2160 -0.2760 -0.2732
  198MOL0     C26652   1.512   2.616   6.830 -0.1775 -0.2099 -0.0003
  198MOL0     O26653   1.407   2.525   6.800 -0.0996  0.0153 -0.2102
  198MOL0     C26654   1.397   2.478   6.664 -0.7347 -0.2177  0.5267
  198MOL0     C26655   1.261   2.512   6.607  1.3381  0.0913 -1.1096
  198MOL0     C26656   1.147   2.468   6.696  1.0266  0.1735  0.2551
  198MOL0     C26657   1.008   2.516   6.647  0.4223  0.0536  0.3017
  198MOL0     C26658   0.906   2.482   6.752  0.0587  0.5815 -0.0998
  198MOL0     C26659   0.835   2.465   6.845 -0.1225 -0.3280 -0.0867
  198MOL0     C26660   1.525   2.752   6.790  0.0934  0.1062  0.4750
  198MOL0     C26661   1.643   2.822   6.828  0.0944 -0.0127  0.2046
  198MOL0     C26662   1.654   2.965   6.773 -0.1935  0.1375  0.2103
  198MOL0     H26663   2.077   2.989   6.990 -0.0413  0.1445 -0.0157
  198MOL0     H26664   2.338   3.014   7.009  0.3101 -0.0421  1.5776
  198MOL0     H26665   2.488   2.845   6.765 -0.6703 -0.7365  0.5720
  198MOL0     H26666   2.624   2.925   6.835 -2.4346  0.5744  1.0371
  198MOL0     H26667   2.640   2.670   6.724 -0.4068  0.7646  0.0034
  198MOL0     H26668   2.636   2.632   6.900 -1.1855  0.0508 -0.5068
  198MOL0     H26669   2.831   2.758   6.943  2.4639  0.3472 -0.1063
  198MOL0     H26670   2.828   2.857   6.797 -0.6539  0.3623  0.0860
  198MOL0     H26671   2.857   2.559   6.781  0.2795 -0.8089 -3.0528
  198MOL0     H26672   2.893   2.669   6.653 -0.0990  0.2239 -0.1160
  198MOL0     H26673   3.054   2.668   6.905  3.0376  1.5462 -0.0324
  198MOL0     H26674   3.092   2.575   6.758 -0.4653  0.4339 -0.9756
  198MOL0     H26675   3.130   2.787   6.633  2.1191 -2.1305  0.1129
  198MOL0     H26676   3.044   2.882   6.750 -2.2742 -1.9120 -1.5504
  198MOL0     H26677   3.213   2.819   6.933 -0.5380  1.5903 -0.2701
  198MOL0     H26678   3.265   2.923   6.802 -0.7085  0.2466 -0.4673
  198MOL0     H26679   3.417   2.727   6.886  0.3134 -0.1668  1.1197
  198MOL0     H26680   3.306   2.615   6.829  1.6343  0.8299  2.4674
  198MOL0     H26681   3.431   2.501   6.633 -2.0602  0.1034 -2.2606
  198MOL0     H26682   3.684   2.563   6.405  0.0123 -1.3543 -0.5037
  198MOL0     H26683   3.538   2.466   6.399 -1.1324 -0.2909 -2.1453
  198MOL0     H26684   3.569   2.728   6.249  1.2520 -0.4356  1.5340
  198MOL0     H26685   3.616   2.571   6.178  1.3816 -1.7795  1.3692
  198MOL0     H26686   3.374   2.494   6.226 -0.4531  0.9253  0.5631
  198MOL0     H26687   3.396   2.596   6.091 -0.8524  0.1128 -0.0951
  198MOL0     H26688   3.311   2.797   6.243 -1.3478 -0.1923 -1.4069
  198MOL0     H26689   3.262   2.660   6.355  2.5623 -2.9079  0.5905
  198MOL0     H26690   3.058   2.749   6.409  1.0427  2.4798  0.5294
  198MOL0     H26691   2.877   2.900   6.418  0.3998 -2.0501  0.8919
  198MOL0     H26692   2.667   3.285   6.244  0.3530  1.0367 -0.2708
  198MOL0     H26693   2.475   3.432   6.269  2.5316  0.8767 -2.5902
  198MOL0     H26694   2.277   3.501   6.328 -2.2638  1.9405 -0.1134
  198MOL0     H26695   2.290   3.583   6.170  0.2863  2.6825  2.4444
  198MOL0     H26696   2.024   3.485   6.291 -1.9818  1.5881  0.1082
  198MOL0     H26697   2.083   3.651   6.298 -0.0919 -0.7466  1.9246
  198MOL0     H26698   2.088   3.635   6.055 -0.8874 -0.0738 -1.2570
  198MOL0     H26699   2.001   3.478   6.068  2.6921 -1.8338  2.9929
  198MOL0     H26700   1.908   3.721   6.210  1.8535 -0.8005  0.5423
  198MOL0     H26701   1.812   3.577   6.195  0.1903 -1.3351 -0.7675
  198MOL0     H26702   1.804   3.603   5.938 -0.7220  0.3026 -0.5528
  198MOL0     H26703   1.880   3.763   5.970 -0.7525  1.7996 -0.0938
  198MOL0     H26704   1.620   3.683   6.118  0.3283 -1.0163 -0.0781
  198MOL0     H26705   1.695   3.840   6.111  3.1193  0.4304 -1.7063
  198MOL0     H26706   1.548   3.697   5.891  2.4408  0.2842 -1.8400
  198MOL0     H26707   1.640   3.841   5.858  1.5689  0.4617  0.8121
  198MOL0     H26708   1.425   3.812   6.080 -0.3022  1.0373  0.5161
  198MOL0     H26709   1.485   3.964   6.014 -0.7344  0.0370 -1.0850
  198MOL0     H26710   2.250   3.154   6.008 -1.8655 -0.4357  1.0409
  198MOL0     H26711   2.452   3.025   5.985 -0.9824 -0.4297 -0.0799
  198MOL0     H26712   2.844   2.906   5.990 -0.6963 -0.6293 -0.7647
  198MOL0     H26713   3.036   2.742   5.981 -0.0052  0.0824 -0.6297
  198MOL0     H26714   2.390   2.598   6.949  1.7924  1.6740 -0.8103
  198MOL0     H26715   2.146   2.563   6.943  2.4920 -0.4051 -1.5778
  198MOL0     H26716   1.799   2.564   7.012  4.0518  2.8616  0.0455
  198MOL0     H26717   1.590   2.451   6.936 -1.8249 -0.1598 -0.2850
  198MOL0     H26718   1.408   2.369   6.661  1.4964 -0.0294 -0.6387
  198MOL0     H26719   1.484   2.524   6.616 -0.9383 -0.1164  0.2502
  198MOL0     H26720   1.258   2.478   6.504  2.2740  1.1064 -1.4913
  198MOL0     H26721   1.246   2.621   6.607 -3.4994 -0.3192 -0.8581
  198MOL0     H26722   1.165   2.512   6.795  1.1303  1.3978 -0.2945
  198MOL0     H26723   1.157   2.359   6.695  3.5213  0.2990 -2.7977
  198MOL0     H26724   1.000   2.625   6.639 -0.3275  0.1234  1.7844
  198MOL0     H26725   0.985   2.477   6.547 -2.6507  1.9284  0.1319
  198MOL0     H26726   0.769   2.422   6.918 -0.9425 -2.1245 -1.7495
  198MOL0     H26727   1.453   2.804   6.728 -1.2762 -0.8812  1.1861
  198MOL0     H26728   1.757   2.981   6.740 -1.2750  2.3851 -2.5015
  198MOL0     H26729   1.592   2.988   6.686  1.6052  0.9159 -0.9268
  198MOL0     H26730   1.634   3.042   6.849  4.3544  1.1598  0.6744
  199MOL0     O26731   9.230   9.898   0.023 -0.5315 -0.3312 -0.6574
  199MOL0     C26732   9.119   9.853   0.037  0.1520  0.4387  0.0227
  199MOL0     O26733   9.084   9.753   0.112  0.1149 -0.1896  0.0756
  199MOL0     C26734   9.178   9.653   0.112  0.2779 -1.0383  0.3964
  199MOL0     C26735   9.162   9.549   0.025  0.2120 -0.1409  0.1393
  199MOL0     C26736   9.279   9.474  -0.003  0.1826  0.6867  0.2115
  199MOL0     C26737   9.396   9.488   0.081  0.0338 -0.7747  0.0646
  199MOL0     O26738   9.510   9.411   0.062 -0.7535  0.4560  0.1289
  199MOL0     C26739   9.559   9.396  -0.071 -0.4327  1.2949 -0.7524
  199MOL0     C26740   9.708   9.376  -0.066  0.3716  0.3989  0.1888
  199MOL0     C26741   9.767   9.489   0.011 -0.2670 -0.4760 -0.9228
  199MOL0     C26742   9.913   9.504  -0.013 -0.0232 -0.3459 -0.4514
  199MOL0     C26743   9.944   9.569  -0.147  0.1626 -0.0561 -0.4382
  199MOL0     C26744  10.080   9.533  -0.192  0.2551  0.2015  0.6833
  199MOL0     C26745  10.116   9.619  -0.319  0.0576 -0.2290 -0.3525
  199MOL0     C26746  10.265   9.599  -0.354  0.0272  0.7794 -0.1062
  199MOL0     N26747  10.296   9.593  -0.498 -0.1363 -0.7229  0.6180
  199MOL0     C26748  10.343   9.697  -0.572 -1.0611  0.5075  0.4401
  199MOL0     C26749  10.376   9.645  -0.695  0.6714  0.0806  0.3625
  199MOL0     C26750  10.428   9.722  -0.801 -0.7668  0.2421  0.1544
  199MOL0     C26751  10.584   9.708  -0.799  0.1021  0.2114  1.0287
  199MOL0     C26752  10.636   9.776  -0.928  0.3876  0.7834 -0.0890
  199MOL0     C26753  10.784   9.793  -0.934 -0.6999  0.3801  0.0842
  199MOL0     O26754  10.850   9.665  -0.937  0.4487  0.3086  0.1929
  199MOL0     C26755  10.990   9.682  -0.957 -0.0366  0.0757  0.4187
  199MOL0     C26756  11.049   9.561  -0.985 -0.3736  0.2425  0.7652
  199MOL0     C26757  11.189   9.548  -1.001  0.1776 -0.0313  0.3897
  199MOL0     C26758  11.265   9.661  -1.023  0.5507  0.1491  0.6671
  199MOL0     C26759  11.406   9.636  -1.059  0.2086  0.3532 -0.6467
  199MOL0     O26760  11.486   9.746  -1.052 -0.0163  0.1948  0.5605
  199MOL0     C26761  11.623   9.744  -1.091  1.0787 -0.3778 -0.2207
  199MOL0     C26762  11.672   9.679  -1.202 -1.3255  0.5623  0.5102
  199MOL0     C26763  11.797   9.704  -1.249 -0.7695 -0.0681  0.4946
  199MOL0     C26764  11.894   9.774  -1.173 -0.2050 -0.3099 -0.0726
  199MOL0     O26765  12.022   9.796  -1.226 -0.6692 -0.1231 -0.3080
  199MOL0     C26766  12.118   9.887  -1.169  0.2073 -0.1632 -0.1606
  199MOL0     C26767  12.175   9.813  -1.052  0.4594 -0.2508  0.2442
  199MOL0     C26768  12.324   9.847  -1.034  0.4025  0.2777  0.2136
  199MOL0     C26769  12.351   9.984  -0.972  0.0590 -0.5423 -0.3863
  199MOL0     C26770  12.502   9.995  -0.952 -0.8281 -1.1495  0.2241
  199MOL0     C26771  12.558   9.894  -0.845  0.0736  0.1183  0.3967
  199MOL0     C26772  12.702   9.944  -0.802 -0.4884 -0.7163  0.5674
  199MOL0     C26773  12.758   9.849  -0.693 -0.4284 -0.2673  0.0511
  199MOL0    Cl26774  12.916   9.913  -0.633  0.1074  0.9039  0.1312
  199MOL0     C26775  11.847   9.829  -1.048  0.1167 -0.2738  0.0056
  199MOL0     C26776  11.711   9.820  -1.007 -0.6156  0.9951 -0.2013
  199MOL0     O26777  11.443   9.521  -1.075  0.4973  0.3901 -0.5936
  199MOL0     C26778  11.206   9.787  -0.997 -0.0422  0.2918 -0.6583
  199MOL0     C26779  11.066   9.799  -0.957 -0.7065 -0.5800  0.1240
  199MOL0     N26780  10.337   9.511  -0.687 -0.0786  0.3398 -0.1781
  199MOL0     N26781  10.287   9.484  -0.570  0.0568 -0.4033  0.5833
  199MOL0     C26782   9.397   9.581   0.187  0.0500 -0.2539 -0.0684
  199MOL0     C26783   9.288   9.670   0.194 -0.0884  0.5840  0.3394
  199MOL0     C26784   8.993   9.928  -0.008 -0.1470  1.3593  0.2037
  199MOL0     C26785   8.871   9.855  -0.015 -0.4633  0.5602 -0.3626
  199MOL0     C26786   8.752   9.908  -0.046  0.4074 -1.2208  0.4617
  199MOL0     C26787   8.744  10.045  -0.075  0.2268 -0.3453  0.9154
  199MOL0     O26788   8.622  10.108  -0.100 -0.0718 -0.2115  0.1141
  199MOL0     C26789   8.615  10.250  -0.108 -0.0259  0.0441 -0.1378
  199MOL0     C26790   8.488  10.309  -0.157  0.2115 -1.1583 -0.3870
  199MOL0     C26791   8.378  10.311  -0.048  0.5215  0.9434 -0.1639
  199MOL0     C26792   8.241  10.297  -0.115  0.4008 -0.1383 -0.0069
  199MOL0     C26793   8.228  10.172  -0.183  0.5840  1.0627 -0.0191
  199MOL0     C26794   8.226  10.067  -0.247  0.4859  0.2189  0.3787
  199MOL0     C26795   8.868  10.122  -0.071  0.1275 -0.6492  0.6886
  199MOL0     C26796   8.993  10.063  -0.050 -0.4238 -0.3145 -0.4972
  199MOL0     C26797   9.119  10.142  -0.060  0.0211 -0.3898  0.0878
  199MOL0     H26798   9.072   9.543  -0.036  0.3903  1.4512 -0.3442
  199MOL0     H26799   9.283   9.395  -0.077 -0.3851  0.2238  0.6702
  199MOL0     H26800   9.528   9.296  -0.101  1.2176 -0.1378  1.9203
  199MOL0     H26801   9.521   9.469  -0.143 -2.1725  1.7202  0.5245
  199MOL0     H26802   9.750   9.361  -0.166  0.5295 -2.0882  0.5639
  199MOL0     H26803   9.741   9.281  -0.022 -3.2131 -0.9982  0.1906
  199MOL0     H26804   9.743   9.471   0.116  1.2743 -2.0590 -0.7991
  199MOL0     H26805   9.708   9.580  -0.008 -1.2324 -0.1075  2.9025
  199MOL0     H26806   9.945   9.562   0.074 -1.1996  0.4030 -0.4973
  199MOL0     H26807   9.958   9.405  -0.006  1.7438  0.5429  2.5500
  199MOL0     H26808   9.872   9.536  -0.222  0.0452  1.9910 -1.3119
  199MOL0     H26809   9.934   9.677  -0.132  1.6992 -0.1684  1.7414
  199MOL0     H26810  10.154   9.556  -0.115  1.3946  0.0850 -0.3466
  199MOL0     H26811  10.083   9.426  -0.214  2.0649 -0.1327  2.2964
  199MOL0     H26812  10.107   9.723  -0.286  0.5187 -0.5504  0.8503
  199MOL0     H26813  10.050   9.596  -0.403 -1.0108 -2.8467  1.0784
  199MOL0     H26814  10.333   9.669  -0.304  0.3728  0.0735  0.4206
  199MOL0     H26815  10.288   9.501  -0.313  4.2452  2.1409  1.2131
  199MOL0     H26816  10.364   9.799  -0.542 -1.9792  0.0429  2.8918
  199MOL0     H26817  10.389   9.688  -0.898 -0.3467  1.1555 -0.3498
  199MOL0     H26818  10.412   9.830  -0.804  2.5614  0.8578  0.3071
  199MOL0     H26819  10.618   9.774  -0.719 -1.3774  2.2897  0.0314
  199MOL0     H26820  10.615   9.604  -0.788 -0.2565 -0.4194 -2.5749
  199MOL0     H26821  10.579   9.869  -0.932  0.8996  1.1976  1.4320
  199MOL0     H26822  10.609   9.711  -1.012 -1.2644  1.0663  0.1927
  199MOL0     H26823  10.818   9.854  -0.849  1.9989 -2.7960  1.5179
  199MOL0     H26824  10.814   9.854  -1.020  1.5917 -0.9530 -0.1541
  199MOL0     H26825  10.989   9.473  -1.003  1.5212 -0.7829 -0.8308
  199MOL0     H26826  11.219   9.444  -1.001 -1.7859 -0.6684 -0.9224
  199MOL0     H26827  11.604   9.614  -1.255 -1.4550  1.8083 -0.9206
  199MOL0     H26828  11.834   9.653  -1.337  0.8986  0.9748  0.5543
  199MOL0     H26829  12.190   9.929  -1.239 -0.3381  2.0217  0.5051
  199MOL0     H26830  12.066   9.973  -1.127  2.2137  0.9591  0.1280
  199MOL0     H26831  12.132   9.855  -0.961  2.5672 -1.4476  1.8904
  199MOL0     H26832  12.156   9.705  -1.052 -2.7430  0.1646  2.0501
  199MOL0     H26833  12.376   9.766  -0.982 -0.2373 -0.0393  0.3657
  199MOL0     H26834  12.375   9.849  -1.131 -0.5549 -0.3878 -0.3173
  199MOL0     H26835  12.307   9.996  -0.872  2.8783 -1.4398  1.0564
  199MOL0     H26836  12.324  10.066  -1.039 -0.5422  0.1033  0.6147
  199MOL0     H26837  12.538  10.095  -0.924  2.4685 -1.6433 -1.6741
  199MOL0     H26838  12.559   9.983  -1.045  0.4566  1.5785  0.5569
  199MOL0     H26839  12.494   9.891  -0.757 -2.0134  1.7868 -0.9624
  199MOL0     H26840  12.555   9.797  -0.896 -2.6860  1.0759 -1.5114
  199MOL0     H26841  12.698  10.046  -0.763  1.9539 -0.3153 -0.0697
  199MOL0     H26842  12.760   9.946  -0.894 -0.3277  1.5624  0.6644
  199MOL0     H26843  12.688   9.861  -0.610 -0.5006  1.2021 -0.1853
  199MOL0     H26844  12.770   9.743  -0.716  2.7987  0.2710 -1.2392
  199MOL0     H26845  11.907   9.891  -0.983 -2.6423  2.4206  0.2104
  199MOL0     H26846  11.674   9.865  -0.916  0.0597 -0.2765  0.7297
  199MOL0     H26847  11.274   9.871  -1.010  0.8928 -0.3591 -0.1162
  199MOL0     H26848  11.025   9.898  -0.942  1.7728  0.5599 -0.0330
  199MOL0     H26849   9.489   9.589   0.245 -0.5282 -1.3964  1.0592
  199MOL0     H26850   9.287   9.740   0.276  0.1771 -1.1344  1.8887
  199MOL0     H26851   8.864   9.748   0.003  2.1065  0.6273  1.6656
  199MOL0     H26852   8.655   9.859  -0.035 -0.9883  1.2978 -0.0100
  199MOL0     H26853   8.694  10.291  -0.170  1.0965 -1.9633 -0.1122
  199MOL0     H26854   8.633  10.285  -0.006  0.4483  1.0863 -0.5712
  199MOL0     H26855   8.454  10.264  -0.251  0.7547 -2.3813 -0.0185
  199MOL0     H26856   8.533  10.408  -0.172  4.1240 -2.7045 -0.0362
  199MOL0     H26857   8.390  10.400   0.014 -0.8498  0.4451  0.8502
  199MOL0     H26858   8.380  10.219   0.012  0.1644 -0.3777 -2.0674
  199MOL0     H26859   8.165  10.299  -0.037  0.0391 -3.1640 -0.1749
  199MOL0     H26860   8.219  10.373  -0.191 -1.5646 -1.1161 -0.4874
  199MOL0     H26861   8.235   9.977  -0.305 -1.0501  0.5259 -0.3698
  199MOL0     H26862   8.869  10.229  -0.092 -0.1327 -0.7780  0.0111
  199MOL0     H26863   9.095  10.246  -0.084  1.5328  0.3070  1.4099
  199MOL0     H26864   9.161  10.143   0.042 -2.0969 -0.4159  1.0063
  199MOL0     H26865   9.193  10.115  -0.135 -0.6072  1.2330 -1.1843
  200MOL0     O26866   9.373  10.956   1.161 -0.1978  0.2053 -0.5551
  200MOL0     C26867   9.324  10.847   1.132 -0.2775  1.2577 -0.8924
  200MOL0     O26868   9.400  10.744   1.079 -0.3247  0.3740  0.8961
  200MOL0     C26869   9.526  10.763   1.025  0.3689  0.1430 -0.3331
  200MOL0     C26870   9.627  10.796   1.109  1.0670  0.5702  0.4067
  200MOL0     C26871   9.760  10.789   1.073  0.7812  0.1125  0.4399
  200MOL0     C26872   9.785  10.758   0.934 -0.5766  0.1826 -0.2877
  200MOL0     O26873   9.909  10.766   0.888 -0.1528 -0.8349 -0.2839
  200MOL0     C26874   9.962  10.668   0.796  0.7473 -0.4085 -0.3585
  200MOL0     C26875  10.118  10.689   0.769  0.2914 -0.0322  0.0919
  200MOL0     C26876  10.207  10.653   0.888  0.1163  0.0774  0.4366
  200MOL0     C26877  10.353  10.656   0.845 -0.7070 -0.3627 -0.5856
  200MOL0     C26878  10.453  10.624   0.955 -0.4783 -0.1239 -0.5686
  200MOL0     C26879  10.598  10.662   0.924 -0.2185  0.7979  0.4620
  200MOL0     C26880  10.645  10.585   0.800 -0.6079  0.4434 -0.0960
  200MOL0     C26881  10.621  10.655   0.663  0.1210  0.6278  0.7482
  200MOL0     N26882  10.723  10.759   0.618  0.0691  0.1174 -0.2522
  200MOL0     C26883  10.741  10.873   0.693 -0.8423 -0.4547  0.7949
  200MOL0     C26884  10.853  10.921   0.645  0.0723  0.6512 -0.3985
  200MOL0     C26885  10.884  11.062   0.686 -0.0131 -0.6816  0.6892
  200MOL0     C26886  10.983  11.140   0.586  0.2180  0.6832 -0.4447
  200MOL0     C26887  11.133  11.117   0.628 -0.1904 -0.0159  0.2705
  200MOL0     C26888  11.225  11.213   0.542 -0.1740  0.3926 -0.6102
  200MOL0     O26889  11.209  11.343   0.610 -0.4889  0.1012  0.2570
  200MOL0     C26890  11.322  11.412   0.640  0.1100 -0.1729 -0.3815
  200MOL0     C26891  11.443  11.404   0.582  0.0609  0.1210 -0.1820
  200MOL0     C26892  11.554  11.478   0.634 -0.6987  0.0603  0.3698
  200MOL0     C26893  11.539  11.559   0.747 -0.2202  0.2728  0.5386
  200MOL0     C26894  11.652  11.633   0.803  0.9729  0.1702 -0.6046
  200MOL0     O26895  11.771  11.635   0.730  0.3445 -0.2328 -0.1701
  200MOL0     C26896  11.877  11.720   0.762 -0.2861 -0.2021 -0.8382
  200MOL0     C26897  11.989  11.688   0.690 -0.2754 -0.6075  0.3767
  200MOL0     C26898  12.116  11.746   0.705  0.4032 -0.6369  0.5981
  200MOL0     C26899  12.128  11.853   0.791 -0.1710 -0.2978  0.4246
  200MOL0     O26900  12.244  11.909   0.819 -0.9932 -0.4839 -0.2422
  200MOL0     C26901  12.264  11.945   0.958 -0.7752  0.9658 -0.7904
  200MOL0     C26902  12.414  11.983   0.965  0.9981  0.8542  0.3226
  200MOL0     C26903  12.451  12.017   1.109 -1.2457 -0.4140  0.0270
  200MOL0     C26904  12.601  12.045   1.119 -0.5664  0.2406  0.6108
  200MOL0     C26905  12.646  12.058   1.267  0.7546  0.1249 -0.2629
  200MOL0     C26906  12.789  12.093   1.273 -0.6921  0.1190 -0.5363
  200MOL0     C26907  12.815  12.183   1.392 -0.0432 -0.8939 -0.3316
  200MOL0     C26908  12.954  12.152   1.454  0.2147  0.9047  0.4870
  200MOL0    Cl26909  13.070  12.152   1.327 -0.1227  0.1636 -0.1563
  200MOL0     C26910  12.012  11.886   0.866 -0.0233  0.3834  0.7469
  200MOL0     C26911  11.885  11.826   0.854 -0.3803  0.0865  0.2495
  200MOL0     O26912  11.638  11.692   0.914 -0.5336  0.1479  0.5822
  200MOL0     C26913  11.412  11.559   0.806  0.1461 -0.0462 -0.1874
  200MOL0     C26914  11.311  11.488   0.757 -0.0730  0.5459 -0.4891
  200MOL0     N26915  10.910  10.828   0.557 -0.5259 -1.0637 -0.5030
  200MOL0     N26916  10.830  10.736   0.537 -0.5078 -0.0087  0.5312
  200MOL0     C26917   9.677  10.725   0.843 -0.5885  0.0599  0.4440
  200MOL0     C26918   9.547  10.734   0.885 -0.1550  0.2383  0.1458
  200MOL0     C26919   9.191  10.806   1.193 -0.0348 -0.2777  0.1086
  200MOL0     C26920   9.187  10.692   1.277  0.4659  0.2708 -0.4482
  200MOL0     C26921   9.073  10.669   1.355  0.0518  0.9686 -0.0121
  200MOL0     C26922   8.963  10.752   1.346  0.1672 -0.1811  0.5063
  200MOL0     O26923   8.855  10.713   1.428  0.0115 -0.3623  0.2799
  200MOL0     C26924   8.766  10.826   1.448  1.2118  1.1326  0.3669
  200MOL0     C26925   8.689  10.812   1.577  0.7675  1.1793 -0.1344
  200MOL0     C26926   8.779  10.794   1.698  0.0683 -0.1607 -0.5331
  200MOL0     C26927   8.708  10.766   1.828  0.0247 -0.7206 -0.6460
  200MOL0     C26928   8.648  10.631   1.833  1.1703 -0.3117 -0.4008
  200MOL0     C26929   8.604  10.514   1.840  0.5680 -0.1339  0.9483
  200MOL0     C26930   8.959  10.855   1.256 -0.1964 -0.2101  0.4880
  200MOL0     C26931   9.077  10.881   1.175 -0.1788  0.0728  0.6132
  200MOL0     C26932   9.078  11.007   1.092 -0.2155 -0.1227  0.0153
  200MOL0     H26933   9.600  10.827   1.210  1.3779  2.4854 -0.0633
  200MOL0     H26934   9.847  10.807   1.135 -0.5911  3.2875  1.6312
  200MOL0     H26935   9.925  10.569   0.823 -0.2024  0.2142  0.7229
  200MOL0     H26936   9.902  10.690   0.707 -2.9423  0.2664  2.0866
  200MOL0     H26937  10.136  10.796   0.751  1.2323 -0.3160 -0.7723
  200MOL0     H26938  10.142  10.634   0.677  1.4110 -1.1177  1.0000
  200MOL0     H26939  10.191  10.547   0.911 -1.0189  0.5581  2.0467
  200MOL0     H26940  10.182  10.712   0.977 -1.3635  2.2388 -1.3166
  200MOL0     H26941  10.368  10.594   0.756  0.1974  0.3389 -0.9473
  200MOL0     H26942  10.377  10.761   0.821 -0.3623  0.8453  4.1732
  200MOL0     H26943  10.413  10.678   1.041  0.4081 -0.6509  0.1968
  200MOL0     H26944  10.448  10.515   0.969  0.8787 -0.0921  0.3285
  200MOL0     H26945  10.593  10.771   0.924 -0.9040  0.7750  0.1472
  200MOL0     H26946  10.664  10.632   1.005  2.6639 -1.0950 -2.3414
  200MOL0     H26947  10.607  10.483   0.801  2.4398 -0.7961  2.2650
  200MOL0     H26948  10.754  10.584   0.808 -0.6843  1.2501  1.2866
  200MOL0     H26949  10.629  10.574   0.590  0.8297  2.6557 -1.5626
  200MOL0     H26950  10.521  10.699   0.652 -0.2881 -0.6496 -1.1294
  200MOL0     H26951  10.680  10.903   0.777  0.6224 -0.8717  2.0454
  200MOL0     H26952  10.787  11.111   0.684  0.6747  0.8022  1.5688
  200MOL0     H26953  10.929  11.065   0.786  2.7328 -0.7679 -0.4594
  200MOL0     H26954  10.959  11.112   0.483 -1.3322  1.3117 -0.2865
  200MOL0     H26955  10.968  11.246   0.609  1.8172  0.7443  0.5000
  200MOL0     H26956  11.164  11.013   0.614 -1.6091 -0.3214 -0.8482
  200MOL0     H26957  11.154  11.144   0.732  2.9491 -1.0155  0.0046
  200MOL0     H26958  11.191  11.221   0.438  1.4363  3.3814 -1.0277
  200MOL0     H26959  11.326  11.172   0.542 -0.2291 -0.0645  2.7177
  200MOL0     H26960  11.443  11.359   0.483 -3.5610  0.3564 -0.4201
  200MOL0     H26961  11.651  11.480   0.586  0.1140  1.1016  1.9300
  200MOL0     H26962  11.978  11.612   0.613 -1.3759 -0.2483  0.1557
  200MOL0     H26963  12.201  11.714   0.647 -0.5719  2.4851 -3.0084
  200MOL0     H26964  12.202  12.034   0.973 -2.6491  0.0696 -2.6363
  200MOL0     H26965  12.238  11.867   1.030 -0.9760  1.0120 -0.8133
  200MOL0     H26966  12.477  11.899   0.933  1.2830  1.1851 -0.0037
  200MOL0     H26967  12.417  12.072   0.901  0.4441  1.0029  0.5030
  200MOL0     H26968  12.400  12.105   1.150 -0.5060  0.5906 -1.1381
  200MOL0     H26969  12.420  11.937   1.176 -0.9925  1.6407  2.7685
  200MOL0     H26970  12.612  12.136   1.059 -0.7695 -0.7256 -0.9481
  200MOL0     H26971  12.657  11.965   1.070  0.5993  0.6263  1.2710
  200MOL0     H26972  12.638  11.959   1.313 -0.7493  0.8553  1.1969
  200MOL0     H26973  12.585  12.136   1.316  1.2230 -0.7588  1.8189
  200MOL0     H26974  12.832  11.993   1.268 -0.3064  0.3564 -2.5815
  200MOL0     H26975  12.825  12.152   1.189  1.1249  1.4648  1.0897
  200MOL0     H26976  12.749  12.171   1.478 -0.0150 -0.5412 -0.2604
  200MOL0     H26977  12.818  12.289   1.366  1.6445 -0.5377  1.1210
  200MOL0     H26978  12.980  12.234   1.523  1.7510  0.5720  0.3532
  200MOL0     H26979  12.968  12.059   1.511 -0.5908 -0.4951 -1.4918
  200MOL0     H26980  12.009  11.965   0.940  1.0082  0.9003  0.2598
  200MOL0     H26981  11.811  11.873   0.918 -0.4190 -0.1917  0.4101
  200MOL0     H26982  11.398  11.628   0.887  3.6319 -0.9392  1.3681
  200MOL0     H26983  11.217  11.510   0.807  0.4754 -0.1499  0.9118
  200MOL0     H26984   9.694  10.697   0.740  2.3042  1.0833  0.5586
  200MOL0     H26985   9.472  10.695   0.818  2.2039 -0.5948 -2.1500
  200MOL0     H26986   9.275  10.629   1.284  1.9373  2.3667  1.6142
  200MOL0     H26987   9.058  10.582   1.417  2.2827 -0.4611 -1.3754
  200MOL0     H26988   8.694  10.842   1.367 -0.6116  1.8177  2.0403
  200MOL0     H26989   8.824  10.918   1.459 -0.3089  2.0273  1.3259
  200MOL0     H26990   8.644  10.713   1.570  0.6423  1.2100  0.2136
  200MOL0     H26991   8.612  10.887   1.599 -2.1606 -1.2477 -1.4506
  200MOL0     H26992   8.839  10.883   1.717  0.0784 -0.6938  2.4050
  200MOL0     H26993   8.854  10.715   1.686 -1.3046 -1.5867 -0.0495
  200MOL0     H26994   8.771  10.782   1.915  0.0212  0.0759 -0.7765
  200MOL0     H26995   8.640  10.851   1.840  1.0565  0.3938 -2.2734
  200MOL0     H26996   8.573  10.412   1.837  0.7673 -0.2132  1.5286
  200MOL0     H26997   8.865  10.904   1.234 -0.7469 -1.6966 -0.7018
  200MOL0     H26998   9.174  11.020   1.040 -0.1615 -0.4397  0.0348
  200MOL0     H26999   9.010  11.001   1.007  1.2386  1.4401 -1.3440
  200MOL0     H27000   9.055  11.091   1.159 -3.3373 -1.7562  1.1915
  201MOL0     O27001   6.165   0.627   4.856  0.8617  0.6303 -0.1585
  201MOL0     C27002   6.183   0.558   4.949 -0.7074 -0.5113 -0.0827
  201MOL0     O27003   6.293   0.570   5.033  0.1881  0.0720 -0.1570
  201MOL0     C27004   6.376   0.675   5.004  0.0275 -0.1111  0.0418
  201MOL0     C27005   6.346   0.790   5.076  0.6647  0.4053  0.8204
  201MOL0     C27006   6.423   0.905   5.055  0.6466  0.0250 -0.1787
  201MOL0     C27007   6.533   0.903   4.972  0.8291 -0.2588 -0.0303
  201MOL0     O27008   6.626   1.006   4.960 -0.3134  0.0906 -0.3522
  201MOL0     C27009   6.622   1.110   5.062  0.5915  0.2104  0.0164
  201MOL0     C27010   6.717   1.221   5.024  0.9175 -0.2573 -0.0367
  201MOL0     C27011   6.860   1.181   5.082  1.1462 -0.9802  0.2500
  201MOL0     C27012   6.960   1.300   5.071  0.9316 -0.3916  0.3717
  201MOL0     C27013   7.084   1.268   5.143 -0.5605 -0.9344  0.2940
  201MOL0     C27014   7.062   1.270   5.297  0.2570  0.8391 -0.8840
  201MOL0     C27015   7.191   1.260   5.370  0.3988 -0.6759  0.3382
  201MOL0     C27016   7.169   1.247   5.522 -0.4633 -0.2197 -0.6657
  201MOL0     N27017   7.298   1.218   5.584  0.0002 -0.5204 -0.8777
  201MOL0     C27018   7.381   1.313   5.633  0.4383  0.7147  0.9343
  201MOL0     C27019   7.511   1.273   5.618  0.2107 -0.3512 -0.5066
  201MOL0     C27020   7.634   1.349   5.642 -0.0650  0.0137  0.4563
  201MOL0     C27021   7.749   1.278   5.713 -0.6622 -0.5875 -0.1206
  201MOL0     C27022   7.846   1.388   5.771 -0.3295  0.2330  0.6478
  201MOL0     C27023   7.965   1.330   5.849  0.0914  0.2764  0.6790
  201MOL0     O27024   8.062   1.299   5.739 -0.2458 -0.3421 -0.2210
  201MOL0     C27025   8.185   1.244   5.774 -0.1791 -0.3928  0.4326
  201MOL0     C27026   8.276   1.236   5.668 -0.3865 -0.0156  0.1822
  201MOL0     C27027   8.398   1.171   5.682 -0.2060 -0.8259 -0.0855
  201MOL0     C27028   8.433   1.122   5.810  0.0825 -0.0642 -0.1682
  201MOL0     C27029   8.553   1.044   5.839 -0.8689 -0.4499  0.4132
  201MOL0     O27030   8.579   0.951   5.751  0.2124 -0.0227  0.3411
  201MOL0     C27031   8.699   0.883   5.769  0.5763  0.2658 -0.7194
  201MOL0     C27032   8.740   0.809   5.879 -0.1017  0.5532  0.1961
  201MOL0     C27033   8.871   0.763   5.887  0.1898 -0.2331 -0.2563
  201MOL0     C27034   8.955   0.755   5.773  0.8508 -1.2710  0.1370
  201MOL0     O27035   9.079   0.698   5.767 -0.1131 -0.1045  0.5056
  201MOL0     C27036   9.097   0.586   5.849 -0.1785  0.5732 -0.8491
  201MOL0     C27037   9.158   0.633   5.984 -0.4120 -0.3313 -0.1770
  201MOL0     C27038   9.310   0.637   5.962  0.5256  0.7802 -0.2861
  201MOL0     C27039   9.386   0.693   6.084  0.4108 -0.5784 -0.0995
  201MOL0     C27040   9.537   0.702   6.064 -0.5668  0.6925 -0.0172
  201MOL0     C27041   9.564   0.774   5.926 -0.2398  0.1533  1.1138
  201MOL0     C27042   9.710   0.813   5.916 -1.6522 -0.2055 -0.0830
  201MOL0     C27043   9.810   0.700   5.921 -0.1284 -0.9052  0.1703
  201MOL0    Cl27044   9.965   0.773   5.879 -0.2626  0.3017 -0.0565
  201MOL0     C27045   8.905   0.813   5.664  0.4736 -0.0772  0.5154
  201MOL0     C27046   8.782   0.887   5.660 -0.2315 -0.3478 -0.1262
  201MOL0     O27047   8.623   1.066   5.941 -0.1334  0.1340  0.1765
  201MOL0     C27048   8.344   1.145   5.916  0.5138  0.1158 -0.2802
  201MOL0     C27049   8.219   1.203   5.895 -0.0951  0.0642  0.7079
  201MOL0     N27050   7.500   1.141   5.573 -0.4498 -0.6971 -0.1827
  201MOL0     N27051   7.375   1.111   5.556 -0.9404  0.5975 -0.4648
  201MOL0     C27052   6.562   0.791   4.894  0.2707 -0.2941 -0.6071
  201MOL0     C27053   6.483   0.679   4.911  0.0796 -0.0892 -0.3752
  201MOL0     C27054   6.079   0.471   4.996 -0.7224  0.7020 -0.2235
  201MOL0     C27055   6.088   0.423   5.131 -0.4536  0.2064  0.7301
  201MOL0     C27056   5.995   0.337   5.183 -0.6532 -0.0748 -0.3915
  201MOL0     C27057   5.905   0.265   5.100 -0.3377  0.2555 -0.6061
  201MOL0     O27058   5.840   0.169   5.159  0.8273  0.1319 -0.0613
  201MOL0     C27059   5.739   0.108   5.072 -0.3609 -0.3369 -0.2298
  201MOL0     C27060   5.639   0.015   5.146 -0.5247  0.3429 -0.1081
  201MOL0     C27061   5.565   0.087   5.256 -0.5903  0.4556  0.6363
  201MOL0     C27062   5.461  -0.008   5.321  0.5126  0.3699 -0.5951
  201MOL0     C27063   5.328   0.018   5.260  0.1011  0.3633  0.3404
  201MOL0     C27064   5.228   0.021   5.191  0.4842  0.8127 -0.5201
  201MOL0     C27065   5.891   0.319   4.969 -0.4701  0.0789 -0.3950
  201MOL0     C27066   5.974   0.421   4.919 -0.4253  1.4203 -0.0437
  201MOL0     C27067   5.951   0.452   4.773 -0.1713 -0.1333 -0.2560
  201MOL0     H27068   6.259   0.791   5.140 -0.1165  3.6761 -0.1042
  201MOL0     H27069   6.398   0.995   5.109 -2.2538 -0.4767 -0.5126
  201MOL0     H27070   6.527   1.163   5.052 -0.3664 -1.1912  1.3553
  201MOL0     H27071   6.644   1.075   5.163 -0.2425 -2.0672 -0.5334
  201MOL0     H27072   6.690   1.313   5.075  2.2902  0.8587 -1.2390
  201MOL0     H27073   6.722   1.231   4.916  0.1367 -0.5279 -0.1015
  201MOL0     H27074   6.895   1.097   5.022  2.3031  0.7521 -1.6317
  201MOL0     H27075   6.828   1.155   5.183 -1.3908  0.5774 -0.0797
  201MOL0     H27076   6.982   1.322   4.966  0.6771  2.1743  0.7802
  201MOL0     H27077   6.916   1.387   5.121  1.0954 -0.0357 -0.0960
  201MOL0     H27078   7.132   1.176   5.107  2.5827  0.8988 -0.6304
  201MOL0     H27079   7.159   1.344   5.123 -0.2302 -1.5094 -0.7480
  201MOL0     H27080   7.012   1.363   5.323 -3.0958 -1.3291  1.1908
  201MOL0     H27081   6.993   1.189   5.322  0.8227 -0.1941 -2.4248
  201MOL0     H27082   7.247   1.353   5.356  1.8900 -1.6672 -0.5874
  201MOL0     H27083   7.254   1.178   5.331  1.3649 -0.1120  0.6739
  201MOL0     H27084   7.132   1.340   5.567  0.4537  1.0866 -2.5086
  201MOL0     H27085   7.108   1.158   5.541 -0.3916 -0.2587 -0.6219
  201MOL0     H27086   7.363   1.419   5.646  0.5469  1.5630 -3.8496
  201MOL0     H27087   7.668   1.387   5.545 -1.8107 -0.7681 -0.5150
  201MOL0     H27088   7.600   1.432   5.705 -0.3216  1.4089 -1.4372
  201MOL0     H27089   7.724   1.205   5.791  1.5662  1.9519  3.2690
  201MOL0     H27090   7.793   1.215   5.635  1.6039  1.3649 -0.5332
  201MOL0     H27091   7.792   1.436   5.853  0.0663  1.2784  0.3058
  201MOL0     H27092   7.876   1.462   5.697 -0.2074 -0.5032 -0.0456
  201MOL0     H27093   7.925   1.235   5.885  0.8601 -0.5759 -0.6430
  201MOL0     H27094   7.995   1.391   5.935  2.2648 -0.5200  0.5454
  201MOL0     H27095   8.248   1.280   5.572 -2.9481 -0.2916  0.7270
  201MOL0     H27096   8.449   1.153   5.588  0.9640  0.7397  0.2080
  201MOL0     H27097   8.669   0.803   5.961  0.9683 -2.9997  1.0478
  201MOL0     H27098   8.888   0.718   5.985 -2.7753 -0.4419  0.2790
  201MOL0     H27099   9.011   0.522   5.870  1.1480 -1.1463 -0.4535
  201MOL0     H27100   9.162   0.515   5.798 -1.3378  1.6128 -4.0471
  201MOL0     H27101   9.127   0.731   6.022  0.5435 -1.1254  2.9441
  201MOL0     H27102   9.137   0.559   6.062 -0.4804 -1.1298 -0.9357
  201MOL0     H27103   9.349   0.536   5.944  1.2580  0.9683  0.1902
  201MOL0     H27104   9.320   0.701   5.874 -2.5631  1.3740 -0.3172
  201MOL0     H27105   9.369   0.642   6.179 -2.3925  1.0842  0.4110
  201MOL0     H27106   9.356   0.798   6.098  2.1966  0.0144 -0.4186
  201MOL0     H27107   9.580   0.602   6.062  2.7563  1.8863  2.6523
  201MOL0     H27108   9.569   0.765   6.148 -0.7539 -0.3201  0.8383
  201MOL0     H27109   9.549   0.703   5.844  0.0240  0.5958  0.6779
  201MOL0     H27110   9.502   0.862   5.908  0.8880  0.5060 -1.5040
  201MOL0     H27111   9.737   0.877   6.000  0.8010  1.8075 -2.2575
  201MOL0     H27112   9.737   0.865   5.824 -2.5243 -1.8572 -1.3276
  201MOL0     H27113   9.817   0.657   6.021  0.0149  3.0265  2.0112
  201MOL0     H27114   9.781   0.621   5.851  1.4973 -0.9594 -0.4865
  201MOL0     H27115   8.963   0.814   5.573 -1.5064  2.2571 -0.8544
  201MOL0     H27116   8.760   0.938   5.567  0.5829  0.3914  0.0724
  201MOL0     H27117   8.353   1.112   6.019 -0.8592 -0.4038 -0.3164
  201MOL0     H27118   8.157   1.207   5.984  0.3037  4.1586  1.0134
  201MOL0     H27119   6.655   0.784   4.838  1.1848 -0.7366  0.9017
  201MOL0     H27120   6.503   0.588   4.857 -5.1746 -0.2495 -2.6378
  201MOL0     H27121   6.164   0.456   5.202 -0.0594  0.1988  0.3196
  201MOL0     H27122   6.011   0.312   5.288  0.6451  1.9557 -0.0508
  201MOL0     H27123   5.779   0.053   4.986 -0.2811  0.4828 -0.7241
  201MOL0     H27124   5.675   0.188   5.035 -0.3585  0.5495  1.5738
  201MOL0     H27125   5.689  -0.067   5.199 -1.1447 -0.3926 -0.6480
  201MOL0     H27126   5.567  -0.029   5.076  0.4182 -1.4232 -0.0226
  201MOL0     H27127   5.521   0.183   5.227 -2.9122 -0.6998  0.0525
  201MOL0     H27128   5.653   0.098   5.319  0.3123 -3.6401  0.4049
  201MOL0     H27129   5.495  -0.111   5.312  0.1592  0.2194 -0.2389
  201MOL0     H27130   5.430   0.016   5.423 -0.8626 -3.1709 -0.0438
  201MOL0     H27131   5.138   0.015   5.133 -0.3378 -1.7458  0.8287
  201MOL0     H27132   5.816   0.283   4.899 -1.6127 -0.5298  1.0834
  201MOL0     H27133   6.005   0.387   4.704 -0.1778 -1.4426  0.9201
  201MOL0     H27134   5.846   0.431   4.753  0.0094 -0.3715 -0.9884
  201MOL0     H27135   5.971   0.554   4.740  0.8698 -0.6798 -1.3741
  202MOL0     O27136   0.266  11.209   5.029 -0.0028 -0.2800  0.1988
  202MOL0     C27137   0.295  11.159   5.143  0.1334 -0.2420  0.2001
  202MOL0     O27138   0.417  11.123   5.197  0.1071  0.0883 -0.0361
  202MOL0     C27139   0.535  11.123   5.118  0.2221 -0.3086  1.2969
  202MOL0     C27140   0.649  11.155   5.177 -0.2132 -0.3192  0.1174
  202MOL0     C27141   0.768  11.138   5.104 -0.1266  0.4631  0.3365
  202MOL0     C27142   0.772  11.110   4.963  0.3393 -0.0518  0.1064
  202MOL0     O27143   0.889  11.092   4.899 -0.6619  0.5668 -0.4963
  202MOL0     C27144   0.880  11.111   4.751 -0.1945 -0.0577 -0.2783
  202MOL0     C27145   1.015  11.150   4.704 -0.1220 -0.0615  0.2803
  202MOL0     C27146   1.027  11.141   4.551  0.1562 -0.3441  0.3843
  202MOL0     C27147   1.148  11.226   4.501 -0.3027  0.2325  0.4457
  202MOL0     C27148   1.157  11.201   4.350 -0.2940 -1.0276  0.0199
  202MOL0     C27149   1.276  11.265   4.286  0.3516 -0.1984  0.2741
  202MOL0     C27150   1.416  11.200   4.305  0.0220  0.5609 -0.2911
  202MOL0     C27151   1.434  11.056   4.265  0.4412  0.2823  0.3460
  202MOL0     N27152   1.583  11.023   4.276 -0.3581  0.1546  0.4193
  202MOL0     C27153   1.644  10.966   4.388  0.0853 -0.0869 -0.5889
  202MOL0     C27154   1.775  10.952   4.357 -0.5379 -0.3740  0.5851
  202MOL0     C27155   1.869  10.901   4.461 -0.0650 -0.5326 -0.6890
  202MOL0     C27156   1.966  10.805   4.395 -0.6159  0.1543  0.3115
  202MOL0     C27157   2.075  10.777   4.487 -0.0902 -0.4075  1.3236
  202MOL0     C27158   2.164  10.658   4.441  0.5332  0.3010  1.5714
  202MOL0     O27159   2.273  10.662   4.538  0.4586 -0.2850  0.1237
  202MOL0     C27160   2.381  10.578   4.529  0.3400  0.3393  0.3041
  202MOL0     C27161   2.384  10.476   4.430 -0.1744  0.3787 -0.2613
  202MOL0     C27162   2.497  10.395   4.422  0.4025  0.3136  0.4924
  202MOL0     C27163   2.613  10.422   4.498  0.1461 -0.1736  0.1956
  202MOL0     C27164   2.735  10.346   4.473 -0.2654 -0.2829 -0.7945
  202MOL0     O27165   2.829  10.363   4.567 -0.4373 -0.2877 -0.6155
  202MOL0     C27166   2.973  10.358   4.538  0.4920 -0.4999  0.8048
  202MOL0     C27167   3.052  10.350   4.656  0.0348  0.1066 -0.1828
  202MOL0     C27168   3.200  10.345   4.648  0.2174 -0.1691 -0.1819
  202MOL0     C27169   3.265  10.346   4.520  0.2176  0.0089 -0.4674
  202MOL0     O27170   3.401  10.326   4.506 -0.1591 -0.2564 -0.8565
  202MOL0     C27171   3.471  10.414   4.412  0.0483  0.4290 -0.0060
  202MOL0     C27172   3.599  10.355   4.342 -0.1284  0.0657 -0.0948
  202MOL0     C27173   3.702  10.312   4.444 -0.2456 -0.2273  0.1461
  202MOL0     C27174   3.790  10.198   4.386  0.5237 -0.8392  0.4725
  202MOL0     C27175   3.897  10.147   4.484  0.5396  0.2865 -0.6517
  202MOL0     C27176   3.955  10.013   4.436  0.6808  0.2618 -0.7089
  202MOL0     C27177   4.069   9.953   4.526  0.2427  0.0007 -0.1866
  202MOL0     C27178   4.023   9.907   4.665 -0.1631  0.2116  0.4355
  202MOL0    Cl27179   4.158   9.814   4.746 -0.4289  0.5859  0.1959
  202MOL0     C27180   3.179  10.350   4.399 -0.8563  0.1631  0.2254
  202MOL0     C27181   3.040  10.360   4.412  0.7620  0.1767  0.3084
  202MOL0     O27182   2.745  10.271   4.379 -0.0137 -0.2498  0.3681
  202MOL0     C27183   2.608  10.529   4.583  0.4434  0.8038 -0.0406
  202MOL0     C27184   2.488  10.598   4.611  0.1254 -0.4320 -1.1139
  202MOL0     N27185   1.798  10.999   4.231 -0.3623 -0.3309 -0.1154
  202MOL0     N27186   1.683  11.048   4.187  0.4076  0.1638  0.2794
  202MOL0     C27187   0.653  11.068   4.906 -0.0141  1.2712  0.7078
  202MOL0     C27188   0.539  11.073   4.986  0.6912  0.1939  0.4844
  202MOL0     C27189   0.181  11.135   5.230 -0.2659  0.3862 -0.1051
  202MOL0     C27190   0.183  11.025   5.322 -0.4911 -0.8721 -0.8810
  202MOL0     C27191   0.077  10.994   5.406 -0.4578 -0.6608 -0.1373
  202MOL0     C27192  -0.041  11.074   5.404  0.1882 -0.3098 -0.0390
  202MOL0     O27193  -0.155  11.041   5.472 -0.6721  0.0832  0.2693
  202MOL0     C27194  -0.146  11.009   5.608  0.3781 -0.3070  0.3255
  202MOL0     C27195  -0.282  10.996   5.672  0.2013  0.5465  0.9483
  202MOL0     C27196  -0.360  11.127   5.663 -0.5091  1.2322  0.2239
  202MOL0     C27197  -0.307  11.218   5.781 -0.3116 -0.3873 -0.3907
  202MOL0     C27198  -0.367  11.173   5.908 -0.0327  0.2445 -0.4693
  202MOL0     C27199  -0.424  11.147   6.013  0.1950  0.1969  0.0840
  202MOL0     C27200  -0.047  11.183   5.318 -0.5607 -0.4125  0.7640
  202MOL0     C27201   0.062  11.212   5.235 -0.6442  0.4424  0.5049
  202MOL0     C27202   0.044  11.349   5.161  0.4503  0.5993 -0.2187
  202MOL0     H27203   0.641  11.188   5.280 -2.1229  2.6189 -0.8569
  202MOL0     H27204   0.861  11.160   5.156  1.1498 -1.8037 -0.7944
  202MOL0     H27205   0.852  11.016   4.705 -3.0167 -0.4327  1.9480
  202MOL0     H27206   0.814  11.192   4.720  1.4861  1.1250 -0.8725
  202MOL0     H27207   1.093  11.088   4.748  1.2597 -0.0664 -2.0201
  202MOL0     H27208   1.036  11.253   4.736 -1.1356 -0.1758  1.3831
  202MOL0     H27209   0.930  11.169   4.510  0.6208 -0.2502 -0.6693
  202MOL0     H27210   1.049  11.037   4.524  2.1881  0.7428 -2.6673
  202MOL0     H27211   1.130  11.334   4.511  0.0789  0.2424  1.0612
  202MOL0     H27212   1.239  11.201   4.556  0.3020 -0.1635 -0.7045
  202MOL0     H27213   1.152  11.096   4.319 -4.3392 -1.7795  2.4549
  202MOL0     H27214   1.070  11.248   4.304 -0.0752 -2.5987 -2.1848
  202MOL0     H27215   1.256  11.255   4.178 -1.6341  1.6889  0.3993
  202MOL0     H27216   1.287  11.370   4.314  1.8503  0.0818 -1.1391
  202MOL0     H27217   1.445  11.215   4.410 -1.2736  1.7615 -0.0657
  202MOL0     H27218   1.487  11.258   4.246 -0.8132  1.2815 -0.6127
  202MOL0     H27219   1.377  11.000   4.340 -0.1690  0.4562  0.0126
  202MOL0     H27220   1.395  11.036   4.165  1.1810 -0.1986  0.1416
  202MOL0     H27221   1.613  10.931   4.486  0.2716  3.6071  0.9355
  202MOL0     H27222   1.920  10.990   4.498 -0.6459 -1.5860  3.1206
  202MOL0     H27223   1.820  10.842   4.539  0.5755 -0.4097 -0.1858
  202MOL0     H27224   1.906  10.716   4.373  0.4185 -0.2131 -1.2137
  202MOL0     H27225   2.008  10.839   4.300 -0.4518 -2.6382 -0.7228
  202MOL0     H27226   2.046  10.744   4.587  1.7648 -2.2242  1.3524
  202MOL0     H27227   2.146  10.860   4.491  1.4222 -1.5789  0.2525
  202MOL0     H27228   2.202  10.668   4.339 -2.4483 -1.6258  0.1399
  202MOL0     H27229   2.118  10.559   4.433  0.7491  0.3152 -0.3255
  202MOL0     H27230   2.296  10.448   4.373 -0.5514 -2.8569  1.6569
  202MOL0     H27231   2.516  10.306   4.364  1.5647  0.2857  0.8839
  202MOL0     H27232   3.011  10.373   4.754  0.3577  0.5197 -0.1375
  202MOL0     H27233   3.260  10.332   4.737 -2.7187  3.4260  2.6543
  202MOL0     H27234   3.411  10.441   4.324 -1.7323  4.7330  2.2565
  202MOL0     H27235   3.497  10.506   4.465 -2.5730  0.4321  1.4181
  202MOL0     H27236   3.567  10.264   4.290  1.7281 -0.7046  0.0521
  202MOL0     H27237   3.651  10.421   4.272 -0.3343 -0.9526 -1.2311
  202MOL0     H27238   3.764  10.400   4.467 -1.5819  0.2914  2.0090
  202MOL0     H27239   3.659  10.274   4.537  1.1790 -0.9303  0.5496
  202MOL0     H27240   3.840  10.235   4.296 -3.4374  2.2841 -0.7538
  202MOL0     H27241   3.723  10.115   4.361  2.5337 -2.2033 -0.8101
  202MOL0     H27242   3.865  10.141   4.589 -0.3356  0.3103 -0.9079
  202MOL0     H27243   3.975  10.223   4.492  0.1521  0.7824 -1.4083
  202MOL0     H27244   3.877   9.940   4.414 -0.1480  0.7475  0.5426
  202MOL0     H27245   4.002  10.030   4.338  0.2986 -1.0122 -1.1311
  202MOL0     H27246   4.160  10.010   4.547  0.1974 -0.4985  1.5084
  202MOL0     H27247   4.095   9.857   4.480 -0.8342 -0.6243  0.4780
  202MOL0     H27248   3.988   9.985   4.732 -0.7260  0.6972 -0.4009
  202MOL0     H27249   3.945   9.831   4.653  1.1159 -1.3995  1.7639
  202MOL0     H27250   3.227  10.348   4.301  0.4293 -0.0831  0.8388
  202MOL0     H27251   2.978  10.358   4.323  0.4981  0.2278  0.4904
  202MOL0     H27252   2.704  10.551   4.630  1.1261  0.1714 -1.1067
  202MOL0     H27253   2.491  10.675   4.687  0.0800  0.1444 -1.6867
  202MOL0     H27254   0.656  11.028   4.806  1.0649  0.2806  1.1151
  202MOL0     H27255   0.444  11.046   4.939 -0.3735 -1.2349  3.2259
  202MOL0     H27256   0.270  10.959   5.326 -0.9122 -1.3902  2.1065
  202MOL0     H27257   0.083  10.908   5.472  0.5483  1.3167  2.5586
  202MOL0     H27258  -0.093  11.092   5.657  1.5271  0.3220 -1.8957
  202MOL0     H27259  -0.087  10.919   5.626  0.7066  0.1375  1.5956
  202MOL0     H27260  -0.274  10.958   5.775  1.4318 -1.6004  0.1254
  202MOL0     H27261  -0.336  10.911   5.628 -1.4766  2.7272 -1.4847
  202MOL0     H27262  -0.467  11.104   5.674 -0.0926 -0.7189  0.5110
  202MOL0     H27263  -0.343  11.173   5.565  0.0603  0.0515 -0.2564
  202MOL0     H27264  -0.198  11.221   5.783 -0.3308  0.1944  0.3706
  202MOL0     H27265  -0.341  11.321   5.768 -0.9153 -0.6684 -1.0877
  202MOL0     H27266  -0.475  11.130   6.106 -1.6877 -0.1763 -0.9522
  202MOL0     H27267  -0.131  11.251   5.318  0.0951  0.4228  0.3367
  202MOL0     H27268   0.082  11.351   5.058 -1.0879 -0.1552 -0.8374
  202MOL0     H27269  -0.062  11.370   5.146  0.2465  0.3645  0.8453
  202MOL0     H27270   0.072  11.434   5.225 -1.4705  0.6526  0.6142
  203MOL0     O27271   0.041   2.156   6.312  0.3093  0.1600 -0.0510
  203MOL0     C27272  -0.036   2.066   6.348 -0.2632 -0.5221 -0.9075
  203MOL0     O27273   0.010   1.952   6.405 -0.6359 -0.4004  0.4772
  203MOL0     C27274   0.137   1.905   6.405  0.6300  0.6952  0.3712
  203MOL0     C27275   0.141   1.774   6.461  0.0181 -0.1975  0.3773
  203MOL0     C27276   0.268   1.702   6.470  0.2095  0.6543 -0.7571
  203MOL0     C27277   0.394   1.761   6.433  1.2751  0.4875  0.6605
  203MOL0     O27278   0.508   1.686   6.443  0.6636  0.4176  0.0119
  203MOL0     C27279   0.614   1.739   6.515 -0.0210 -0.4246 -2.2421
  203MOL0     C27280   0.731   1.638   6.516 -0.8838  0.3897  0.5437
  203MOL0     C27281   0.831   1.678   6.403  0.1953  0.1369 -0.3457
  203MOL0     C27282   0.974   1.625   6.427  0.5304  0.1848 -0.5842
  203MOL0     C27283   1.093   1.704   6.371  1.7041  0.6721 -0.6080
  203MOL0     C27284   1.133   1.664   6.226 -0.3394  0.0303  0.5684
  203MOL0     C27285   1.210   1.782   6.165  0.1303  0.0328  0.7706
  203MOL0     C27286   1.304   1.722   6.057 -0.1477  0.6914  0.1172
  203MOL0     N27287   1.419   1.810   6.029  0.1624 -0.1852 -0.3198
  203MOL0     C27288   1.491   1.886   6.122  0.1392  0.4090 -0.2698
  203MOL0     C27289   1.591   1.935   6.046  0.4718  0.4574  0.3414
  203MOL0     C27290   1.684   2.028   6.106 -0.8399  0.0412  1.0731
  203MOL0     C27291   1.821   1.965   6.082 -0.0466 -0.3437 -0.2135
  203MOL0     C27292   1.923   2.048   6.148 -0.1932 -0.9701 -0.1657
  203MOL0     C27293   2.063   1.979   6.131  1.0050  0.6889  0.2320
  203MOL0     O27294   2.166   2.068   6.177 -0.7163 -0.5447  0.3419
  203MOL0     C27295   2.300   2.033   6.169  0.2695 -0.4251  0.5195
  203MOL0     C27296   2.354   1.906   6.121 -0.4901 -1.2333  0.2134
  203MOL0     C27297   2.494   1.876   6.138  1.0320 -0.2315  0.5420
  203MOL0     C27298   2.580   1.967   6.197  0.1915  0.4218 -0.5788
  203MOL0     C27299   2.718   1.943   6.203 -0.0886 -0.0368  0.1402
  203MOL0     O27300   2.762   1.815   6.170  0.3016 -0.2276  0.1584
  203MOL0     C27301   2.895   1.778   6.183  0.1439 -0.2850 -0.4949
  203MOL0     C27302   2.984   1.825   6.089  0.4839 -0.3776  0.2656
  203MOL0     C27303   3.114   1.781   6.081 -1.0968 -1.3470 -0.4252
  203MOL0     C27304   3.162   1.713   6.186 -0.1250  0.0970 -0.6461
  203MOL0     O27305   3.297   1.668   6.204  0.2301 -0.2434 -0.0773
  203MOL0     C27306   3.395   1.697   6.103 -0.6242  0.3397  0.5830
  203MOL0     C27307   3.515   1.610   6.137  0.6591  0.1879  0.0988
  203MOL0     C27308   3.567   1.616   6.281  0.2896  0.2524  0.0962
  203MOL0     C27309   3.679   1.509   6.298  0.2114  0.2215 -0.0744
  203MOL0     C27310   3.765   1.528   6.422 -0.9807  0.2262 -0.6945
  203MOL0     C27311   3.898   1.446   6.409 -0.1260 -0.3374 -0.6956
  203MOL0     C27312   3.981   1.467   6.532 -0.1454 -0.2262  0.5898
  203MOL0     C27313   4.107   1.378   6.513  0.1557  0.3099  0.4957
  203MOL0    Cl27314   4.232   1.452   6.632  0.4564 -0.0281  0.2971
  203MOL0     C27315   3.077   1.673   6.291  0.2991 -0.1073  0.5420
  203MOL0     C27316   2.939   1.701   6.286 -0.0373  0.1003  0.4550
  203MOL0     O27317   2.786   2.039   6.240  0.0171  0.2835  0.4683
  203MOL0     C27318   2.528   2.094   6.229  0.3659 -0.1837  0.1499
  203MOL0     C27319   2.394   2.125   6.213  0.6907 -0.6534 -0.7817
  203MOL0     N27320   1.584   1.887   5.916  0.7275 -0.3072  0.3361
  203MOL0     N27321   1.482   1.806   5.908 -0.3282  0.1142  0.2826
  203MOL0     C27322   0.377   1.876   6.363 -0.1105 -0.8346  0.5084
  203MOL0     C27323   0.257   1.943   6.344 -0.4141  0.0271 -0.0796
  203MOL0     C27324  -0.185   2.105   6.354 -0.3061 -0.1904  0.0352
  203MOL0     C27325  -0.276   2.026   6.433  0.1395 -0.1459 -0.2846
  203MOL0     C27326  -0.415   2.050   6.424  0.1352 -0.8709 -0.0040
  203MOL0     C27327  -0.473   2.141   6.336 -0.2340  0.1159 -0.5647
  203MOL0     O27328  -0.609   2.160   6.332 -0.0546 -0.5736  0.4875
  203MOL0     C27329  -0.703   2.083   6.407  0.1771  0.1655 -0.0301
  203MOL0     C27330  -0.834   2.157   6.399 -0.3152 -0.1150 -0.2693
  203MOL0     C27331  -0.943   2.091   6.488 -0.8087 -0.6735 -0.9407
  203MOL0     C27332  -1.078   2.143   6.447  0.0747 -0.3083 -0.4931
  203MOL0     C27333  -1.182   2.112   6.550 -0.6489 -0.3215  0.3436
  203MOL0     C27334  -1.275   2.099   6.624 -0.2804  0.2430 -0.0377
  203MOL0     C27335  -0.392   2.222   6.262 -1.0442  0.1983  0.4036
  203MOL0     C27336  -0.248   2.205   6.268 -0.3984  0.0525 -0.2379
  203MOL0     C27337  -0.175   2.309   6.185 -0.2935  0.5601 -0.1199
  203MOL0     H27338   0.053   1.726   6.503  0.1004  1.8256  3.1023
  203MOL0     H27339   0.271   1.605   6.517 -0.8077  0.5858 -0.8087
  203MOL0     H27340   0.645   1.833   6.468  2.1031  0.5959  0.8674
  203MOL0     H27341   0.583   1.768   6.616  2.6564 -0.4543 -1.3220
  203MOL0     H27342   0.712   1.534   6.490 -1.3851  0.7178 -0.4689
  203MOL0     H27343   0.775   1.644   6.616 -0.2566 -1.0280  0.3714
  203MOL0     H27344   0.847   1.786   6.396  0.6270  0.0231 -1.2351
  203MOL0     H27345   0.786   1.633   6.314 -0.6800  1.2083 -0.4634
  203MOL0     H27346   1.004   1.614   6.531  1.2183  0.7503 -0.7132
  203MOL0     H27347   0.986   1.521   6.393  0.6082  0.8400 -2.7230
  203MOL0     H27348   1.060   1.809   6.370  0.1377  0.2219 -2.4218
  203MOL0     H27349   1.180   1.703   6.436  0.8578 -1.5569  0.5978
  203MOL0     H27350   1.185   1.567   6.231 -1.6404 -1.1297 -3.6862
  203MOL0     H27351   1.049   1.643   6.159  1.1009 -2.1096 -0.7166
  203MOL0     H27352   1.263   1.838   6.243 -0.8826  1.8424  0.2025
  203MOL0     H27353   1.142   1.853   6.119 -1.2084 -1.3537  0.5249
  203MOL0     H27354   1.343   1.622   6.079  0.6913  0.9164 -0.3302
  203MOL0     H27355   1.241   1.709   5.968  0.8786  0.1912 -0.5549
  203MOL0     H27356   1.476   1.912   6.226  0.2660  0.1542 -0.1869
  203MOL0     H27357   1.676   2.119   6.046  1.5901 -0.5070 -0.1745
  203MOL0     H27358   1.669   2.052   6.212  3.0716  1.7111  1.4034
  203MOL0     H27359   1.816   1.872   6.139 -0.7780  1.3294  2.6444
  203MOL0     H27360   1.841   1.945   5.976 -0.2754  0.2889 -0.3835
  203MOL0     H27361   1.905   2.051   6.256 -3.7600  1.9757 -0.6416
  203MOL0     H27362   1.930   2.149   6.106  0.6795 -0.6567  0.6983
  203MOL0     H27363   2.082   1.964   6.024  3.9575 -1.9998  0.9751
  203MOL0     H27364   2.049   1.880   6.176 -1.9760  1.6360  1.6122
  203MOL0     H27365   2.292   1.833   6.069  0.2417 -0.5117 -1.7700
  203MOL0     H27366   2.528   1.777   6.109 -0.1036 -0.3855 -0.3375
  203MOL0     H27367   2.954   1.895   6.011 -0.5019 -0.4436  0.5736
  203MOL0     H27368   3.182   1.817   6.004 -2.0977 -0.6163 -0.9960
  203MOL0     H27369   3.371   1.667   6.001 -0.5607  1.1494  0.3226
  203MOL0     H27370   3.412   1.805   6.106  0.9450  0.1330 -0.1039
  203MOL0     H27371   3.500   1.505   6.111  1.4695 -0.5519  2.4057
  203MOL0     H27372   3.595   1.655   6.079 -2.3867  3.7937 -1.8041
  203MOL0     H27373   3.593   1.719   6.308  0.4315 -0.6427  4.1432
  203MOL0     H27374   3.489   1.590   6.354 -0.9759  1.4242 -0.8102
  203MOL0     H27375   3.746   1.522   6.212 -3.0118  2.4766 -2.5225
  203MOL0     H27376   3.641   1.407   6.286 -1.9252  0.9247  0.2955
  203MOL0     H27377   3.701   1.488   6.502 -0.5180 -2.5944 -1.6267
  203MOL0     H27378   3.784   1.633   6.448  0.1848 -0.0857 -0.2018
  203MOL0     H27379   3.879   1.338   6.407 -0.0048 -0.4447  1.6302
  203MOL0     H27380   3.954   1.471   6.318  0.1946 -0.3572 -0.5061
  203MOL0     H27381   3.949   1.446   6.635  1.2477  1.2628  1.3602
  203MOL0     H27382   4.010   1.572   6.530 -2.2647  0.4314 -2.3138
  203MOL0     H27383   4.081   1.274   6.535 -4.1486  1.0598 -0.0613
  203MOL0     H27384   4.150   1.382   6.412  0.6579 -2.4608  0.5331
  203MOL0     H27385   3.112   1.615   6.376  3.0574  0.8012  0.1172
  203MOL0     H27386   2.863   1.659   6.353  0.0171 -0.8574 -0.0659
  203MOL0     H27387   2.594   2.178   6.252  1.2459 -0.6196 -0.7273
  203MOL0     H27388   2.350   2.222   6.235 -2.8311 -2.1196 -0.6550
  203MOL0     H27389   0.468   1.915   6.320  0.0485 -0.7719  0.9001
  203MOL0     H27390   0.254   2.039   6.293 -0.5827  0.3772  0.5686
  203MOL0     H27391  -0.243   1.954   6.506 -0.7422  1.4724  1.7994
  203MOL0     H27392  -0.478   1.988   6.488 -0.0750 -1.3063 -0.6310
  203MOL0     H27393  -0.681   2.071   6.514 -2.2237 -2.4534  0.3058
  203MOL0     H27394  -0.711   1.983   6.364  3.3062 -0.2359  0.0785
  203MOL0     H27395  -0.867   2.168   6.296  0.7848  3.2397 -0.3599
  203MOL0     H27396  -0.812   2.253   6.446 -0.1667 -1.6001  2.9864
  203MOL0     H27397  -0.935   2.122   6.593 -2.9623  3.0052 -1.6912
  203MOL0     H27398  -0.929   1.982   6.494  3.0828 -0.3439 -1.5902
  203MOL0     H27399  -1.086   2.252   6.441  0.2291 -0.1941  1.0384
  203MOL0     H27400  -1.117   2.105   6.352 -2.9817  3.2186 -0.9014
  203MOL0     H27401  -1.356   2.078   6.690 -0.5913  0.6025 -0.3007
  203MOL0     H27402  -0.444   2.301   6.209 -1.2113 -1.0229 -1.3582
  203MOL0     H27403  -0.095   2.248   6.142 -0.8674 -0.7581  0.6197
  203MOL0     H27404  -0.237   2.362   6.112  1.0061  0.3037 -1.4703
  203MOL0     H27405  -0.114   2.375   6.247  2.2535 -1.2201 -0.5971
  204MOL0     O27406  11.272   1.269   7.533 -0.3088  0.0141  0.2579
  204MOL0     C27407  11.193   1.331   7.457  0.2395  0.1629 -0.6891
  204MOL0     O27408  11.238   1.411   7.353 -0.3210 -0.2895  0.1888
  204MOL0     C27409  11.371   1.440   7.334  0.1487 -0.7162  0.0588
  204MOL0     C27410  11.432   1.419   7.210  0.8324  0.0574 -0.2040
  204MOL0     C27411  11.558   1.470   7.178  0.1017  0.4849 -1.1561
  204MOL0     C27412  11.636   1.533   7.269 -0.0805 -0.4448 -0.3428
  204MOL0     O27413  11.763   1.570   7.232  0.2425  0.7132 -0.0645
  204MOL0     C27414  11.842   1.658   7.313  0.4184 -0.0155 -0.3129
  204MOL0     C27415  11.977   1.655   7.250  0.9621  0.2714  0.5717
  204MOL0     C27416  12.078   1.716   7.347 -0.2702 -0.1934 -0.1312
  204MOL0     C27417  12.210   1.722   7.278 -0.7253 -0.3145 -0.6305
  204MOL0     C27418  12.320   1.762   7.378 -0.4181  0.6526  0.2210
  204MOL0     C27419  12.335   1.915   7.387  0.4980  0.1417  0.4189
  204MOL0     C27420  12.455   1.960   7.465 -0.3893  0.1223 -0.9518
  204MOL0     C27421  12.485   2.117   7.448  0.1089  0.1806 -0.2465
  204MOL0     N27422  12.496   2.158   7.304 -0.6972  0.2814  0.1891
  204MOL0     C27423  12.609   2.127   7.235  0.8877 -1.3864  0.1236
  204MOL0     C27424  12.589   2.192   7.118  0.2735 -0.2401 -0.2112
  204MOL0     C27425  12.672   2.189   6.997  0.1039 -0.4726 -0.2580
  204MOL0     C27426  12.822   2.179   7.034  0.2232  0.3153 -0.1474
  204MOL0     C27427  12.887   2.169   6.904  0.5214  0.3553 -0.0239
  204MOL0     C27428  13.044   2.165   6.910 -0.4182  0.2238  0.1125
  204MOL0     O27429  13.088   2.261   7.012  1.2309  0.0015  0.2771
  204MOL0     C27430  13.222   2.273   7.031  0.1844 -0.8170  0.2032
  204MOL0     C27431  13.317   2.224   6.946  1.1113 -0.1127 -0.0118
  204MOL0     C27432  13.450   2.247   6.968  0.1820 -0.3238 -0.1217
  204MOL0     C27433  13.485   2.329   7.079  0.2245  0.4149  0.6304
  204MOL0     C27434  13.625   2.351   7.110 -0.7664 -0.1665  0.4910
  204MOL0     O27435  13.662   2.419   7.218 -0.8797  0.2651 -0.0819
  204MOL0     C27436  13.797   2.432   7.230  0.2588 -0.0018 -0.0672
  204MOL0     C27437  13.849   2.561   7.218  0.5511 -0.4531 -0.1539
  204MOL0     C27438  13.985   2.604   7.221  0.2739 -1.0438  0.4475
  204MOL0     C27439  14.083   2.502   7.243  0.2221 -0.1531 -0.3262
  204MOL0     O27440  14.207   2.514   7.290  0.7944  0.2284 -0.5462
  204MOL0     C27441  14.279   2.621   7.236  0.6667  0.6723 -0.1168
  204MOL0     C27442  14.416   2.591   7.297 -0.2281 -0.1623  0.4058
  204MOL0     C27443  14.515   2.709   7.277  0.8409 -0.3223 -0.2750
  204MOL0     C27444  14.658   2.672   7.311 -0.6145 -0.0124 -0.1995
  204MOL0     C27445  14.731   2.615   7.188  1.0486 -0.5911 -0.1676
  204MOL0     C27446  14.861   2.694   7.178  0.0285  1.3173 -0.2539
  204MOL0     C27447  14.954   2.645   7.070  0.4728  0.0817 -0.1104
  204MOL0     C27448  15.091   2.706   7.097  0.6087  0.6106 -0.3914
  204MOL0    Cl27449  15.150   2.636   7.255  0.2764  0.4132  0.0055
  204MOL0     C27450  14.035   2.368   7.243 -0.1124 -1.1440 -1.0620
  204MOL0     C27451  13.898   2.334   7.242 -0.3680  0.0530  0.1407
  204MOL0     O27452  13.709   2.302   7.027  0.8270  0.0526 -0.2685
  204MOL0     C27453  13.391   2.383   7.166  0.7264 -0.7603  0.3568
  204MOL0     C27454  13.259   2.348   7.142 -1.4379 -0.3399  0.0349
  204MOL0     N27455  12.482   2.287   7.137  0.6457  0.0077  0.0224
  204MOL0     N27456  12.427   2.265   7.252 -0.6509  0.4804  0.5810
  204MOL0     C27457  11.580   1.574   7.388  1.1703 -0.0236  0.1181
  204MOL0     C27458  11.447   1.523   7.417  0.4899 -0.2553  0.0296
  204MOL0     C27459  11.047   1.308   7.475  0.9930 -0.2877 -0.3070
  204MOL0     C27460  10.958   1.355   7.368 -0.7280  0.6288 -0.5908
  204MOL0     C27461  10.818   1.338   7.380 -0.4953 -0.6072  0.4455
  204MOL0     C27462  10.759   1.282   7.493  0.6909 -0.4487 -0.3692
  204MOL0     O27463  10.617   1.273   7.522  0.2548 -0.1285  0.8319
  204MOL0     C27464  10.535   1.309   7.413 -0.2193  0.1726 -0.3375
  204MOL0     C27465  10.394   1.241   7.438 -0.2250  0.0599  0.1936
  204MOL0     C27466  10.314   1.316   7.550 -0.1614  0.4128 -0.1032
  204MOL0     C27467  10.184   1.237   7.576 -0.4040  0.1655 -0.1111
  204MOL0     C27468  10.088   1.299   7.670 -0.5600  0.1521 -0.1119
  204MOL0     C27469  10.029   1.358   7.760 -0.1739 -1.3725 -0.3499
  204MOL0     C27470  10.848   1.232   7.583 -0.3829 -0.1797 -0.4600
  204MOL0     C27471  10.987   1.247   7.588  0.3730 -0.0192  0.4710
  204MOL0     C27472  11.053   1.193   7.705  0.0747  0.1877 -0.2860
  204MOL0     H27473  11.383   1.355   7.137 -1.0227  0.7005  0.4264
  204MOL0     H27474  11.592   1.457   7.075 -1.0966 -4.0971 -1.1758
  204MOL0     H27475  11.813   1.763   7.308  0.9711  0.3420  2.4080
  204MOL0     H27476  11.856   1.630   7.417  0.1640  1.6784  0.2115
  204MOL0     H27477  11.972   1.715   7.159 -1.7880  1.6123  1.4796
  204MOL0     H27478  11.998   1.550   7.225 -1.6470 -0.2903  0.3674
  204MOL0     H27479  12.077   1.647   7.432  0.4699 -4.4348 -3.2854
  204MOL0     H27480  12.047   1.814   7.387 -0.0646 -1.1476  2.5914
  204MOL0     H27481  12.233   1.624   7.233  2.1710 -0.4047  0.8186
  204MOL0     H27482  12.220   1.795   7.197  0.3587  0.0650 -0.1795
  204MOL0     H27483  12.308   1.703   7.470 -0.8510  0.1026 -0.1772
  204MOL0     H27484  12.412   1.719   7.338 -0.5197  1.0473 -0.4441
  204MOL0     H27485  12.336   1.948   7.283  2.2877 -1.3257 -0.0634
  204MOL0     H27486  12.245   1.964   7.425  0.0658  0.3464 -0.8150
  204MOL0     H27487  12.544   1.906   7.432 -0.8046  1.1267 -3.9831
  204MOL0     H27488  12.439   1.934   7.570  3.2742 -0.3289 -0.3593
  204MOL0     H27489  12.405   2.177   7.492  1.2853  1.4609  0.2356
  204MOL0     H27490  12.579   2.140   7.500  0.9027 -2.7768 -0.1703
  204MOL0     H27491  12.693   2.059   7.251  0.3678 -3.3297 -4.0300
  204MOL0     H27492  12.639   2.111   6.928  0.4674 -0.9646  0.1182
  204MOL0     H27493  12.646   2.280   6.942  0.9759  0.4249  0.7496
  204MOL0     H27494  12.857   2.261   7.097 -1.6323  0.8219  0.3015
  204MOL0     H27495  12.841   2.084   7.085 -2.1704  1.5841  3.5509
  204MOL0     H27496  12.854   2.250   6.839 -0.7844  0.3872  0.6395
  204MOL0     H27497  12.867   2.077   6.848 -0.5531  0.8743 -0.5077
  204MOL0     H27498  13.071   2.190   6.807 -6.7854  0.8926 -1.8116
  204MOL0     H27499  13.075   2.064   6.937 -3.6886 -1.2215 -0.9798
  204MOL0     H27500  13.304   2.158   6.861 -1.9882 -0.3746  0.5720
  204MOL0     H27501  13.519   2.205   6.895 -2.1575  1.9310 -3.9998
  204MOL0     H27502  13.779   2.641   7.192  0.5702 -0.9898 -2.0111
  204MOL0     H27503  14.017   2.707   7.210 -1.7084 -0.4528 -0.2585
  204MOL0     H27504  14.269   2.614   7.128 -2.4020 -0.7785  0.1616
  204MOL0     H27505  14.244   2.721   7.261 -2.3249  0.1045 -1.5549
  204MOL0     H27506  14.408   2.563   7.403 -1.5921 -0.7856  0.1643
  204MOL0     H27507  14.452   2.500   7.248 -0.1521  0.7892 -1.3872
  204MOL0     H27508  14.517   2.748   7.175 -2.4832 -2.3787 -1.2944
  204MOL0     H27509  14.482   2.785   7.349 -0.4629 -1.6235  0.5692
  204MOL0     H27510  14.684   2.604   7.393 -0.2526 -0.7530 -0.9192
  204MOL0     H27511  14.707   2.764   7.346  0.8615 -0.0292 -2.0925
  204MOL0     H27512  14.672   2.624   7.096  0.7039 -0.7028  0.0437
  204MOL0     H27513  14.751   2.509   7.207  1.9867 -0.0946  1.9664
  204MOL0     H27514  14.844   2.801   7.160  1.0480  1.3626 -1.0158
  204MOL0     H27515  14.911   2.676   7.273 -0.6628 -5.4980 -0.6746
  204MOL0     H27516  14.905   2.668   6.975 -1.4390  1.9349  1.2214
  204MOL0     H27517  14.971   2.537   7.075  1.7554  0.2555 -0.4099
  204MOL0     H27518  15.163   2.677   7.020  0.2059 -0.1165 -0.5002
  204MOL0     H27519  15.071   2.813   7.103 -0.6331  0.3175  2.1915
  204MOL0     H27520  14.108   2.290   7.262 -1.0027 -1.9490 -0.8693
  204MOL0     H27521  13.867   2.230   7.252  1.5940 -0.8811 -2.4525
  204MOL0     H27522  13.422   2.450   7.246 -1.1347  0.1406  0.3891
  204MOL0     H27523  13.187   2.390   7.212  0.3285  1.3717  0.9143
  204MOL0     H27524  11.635   1.639   7.456  3.6241 -0.2608 -1.5359
  204MOL0     H27525  11.389   1.548   7.505 -0.2277 -0.2416 -0.4384
  204MOL0     H27526  10.984   1.401   7.273 -2.1129 -2.3379 -2.5464
  204MOL0     H27527  10.760   1.375   7.295  1.9153  2.1866 -0.1628
  204MOL0     H27528  10.569   1.278   7.314 -3.1247  0.8282 -1.6567
  204MOL0     H27529  10.531   1.418   7.417 -2.4149  0.1721 -1.0918
  204MOL0     H27530  10.394   1.134   7.458  1.7516  0.1369  0.8014
  204MOL0     H27531  10.335   1.263   7.348 -1.2490  1.2714  1.1188
  204MOL0     H27532  10.294   1.414   7.505  1.3401 -0.4600 -2.9879
  204MOL0     H27533  10.374   1.319   7.642  3.2088 -0.7239 -2.0662
  204MOL0     H27534  10.129   1.237   7.482  1.9224  0.8241 -1.5376
  204MOL0     H27535  10.192   1.133   7.610 -1.8216  0.5045  1.3923
  204MOL0     H27536   9.987   1.406   7.846 -0.3979 -2.0070 -0.1004
  204MOL0     H27537  10.808   1.187   7.673 -0.2147  2.7667  1.2215
  204MOL0     H27538  11.132   1.263   7.732 -0.5284  2.5143 -3.8151
  204MOL0     H27539  10.982   1.202   7.788 -1.3064  1.7588 -1.5578
  204MOL0     H27540  11.095   1.092   7.698 -0.0205 -0.1050  2.4664
  205MOL0     O27541   3.949   0.394  11.019 -0.4798 -0.7527  0.1803
  205MOL0     C27542   3.876   0.418  11.116  0.3917 -0.1947 -0.7135
  205MOL0     O27543   3.919   0.432  11.250 -0.3379 -0.8882  0.1154
  205MOL0     C27544   4.052   0.401  11.274  0.2824 -0.6777 -0.5075
  205MOL0     C27545   4.085   0.270  11.303 -0.8138  0.3955 -0.6371
  205MOL0     C27546   4.211   0.224  11.355  0.9378 -1.0363  0.7018
  205MOL0     C27547   4.316   0.320  11.377 -0.2014 -0.9323  0.0568
  205MOL0     O27548   4.440   0.286  11.425 -0.1597 -0.0708  0.5287
  205MOL0     C27549   4.530   0.386  11.471  0.0157  0.1065 -0.3155
  205MOL0     C27550   4.663   0.338  11.527 -0.5422  0.3980  0.3171
  205MOL0     C27551   4.737   0.443  11.607 -0.8591 -0.3756  0.0424
  205MOL0     C27552   4.874   0.385  11.640 -0.2829  0.0027  0.4726
  205MOL0     C27553   4.953   0.477  11.737  1.0776 -0.1566  0.9287
  205MOL0     C27554   5.087   0.422  11.785  0.0831  0.1036 -0.6232
  205MOL0     C27555   5.163   0.528  11.873  0.1834  0.5676 -0.4227
  205MOL0     C27556   5.294   0.460  11.921 -0.6258  0.2596 -0.5019
  205MOL0     N27557   5.393   0.399  11.831  0.2543  0.2961 -0.5308
  205MOL0     C27558   5.469   0.284  11.853 -0.1219 -0.0593 -0.3125
  205MOL0     C27559   5.519   0.251  11.731 -0.1112  0.3659  0.6431
  205MOL0     C27560   5.577   0.116  11.690 -0.2744  0.0444 -0.1030
  205MOL0     C27561   5.477   0.003  11.712 -0.7189  0.5780 -0.3437
  205MOL0     C27562   5.545  -0.137  11.673 -0.6953 -1.0936 -0.3241
  205MOL0     C27563   5.435  -0.244  11.679 -0.9793 -0.3570  0.5254
  205MOL0     O27564   5.417  -0.279  11.810 -0.0964 -0.1763 -0.0652
  205MOL0     C27565   5.337  -0.393  11.827 -0.1821  0.7419  0.4958
  205MOL0     C27566   5.371  -0.477  11.935  0.1895 -0.3107 -0.7666
  205MOL0     C27567   5.312  -0.603  11.945 -0.5269 -0.2762  0.7444
  205MOL0     C27568   5.214  -0.645  11.851  0.2481 -0.7946  0.0518
  205MOL0     C27569   5.158  -0.785  11.846  0.1993  0.4255  0.4464
  205MOL0     O27570   5.231  -0.881  11.921 -0.2664  0.4042 -0.1518
  205MOL0     C27571   5.207  -1.019  11.909 -0.1741 -0.6530  0.0340
  205MOL0     C27572   5.308  -1.099  11.959 -0.1337 -0.2304 -0.4529
  205MOL0     C27573   5.300  -1.234  11.947 -0.3194  0.1925  0.0408
  205MOL0     C27574   5.190  -1.300  11.892 -0.3687 -0.2152  0.3611
  205MOL0     O27575   5.199  -1.441  11.889 -0.2807 -0.9622  0.3823
  205MOL0     C27576   5.105  -1.516  11.807 -0.3894  0.2617 -0.3334
  205MOL0     C27577   5.140  -1.663  11.842  0.1184 -1.1675 -0.1559
  205MOL0     C27578   5.027  -1.757  11.819 -0.2686  0.3295  0.5454
  205MOL0     C27579   4.968  -1.741  11.679 -0.3710  0.2722 -0.2547
  205MOL0     C27580   4.870  -1.849  11.642 -0.6895  0.1845 -0.0366
  205MOL0     C27581   4.740  -1.845  11.715 -0.1315  0.3682 -0.4851
  205MOL0     C27582   4.678  -1.987  11.738 -0.3342 -0.1071 -0.0284
  205MOL0     C27583   4.541  -1.992  11.810 -0.3285  0.3718 -0.3902
  205MOL0    Cl27584   4.453  -2.139  11.762  0.0985 -0.2859 -0.4135
  205MOL0     C27585   5.086  -1.223  11.844 -0.0996 -0.9251  0.4767
  205MOL0     C27586   5.091  -1.082  11.861  0.4687  0.2707 -0.5958
  205MOL0     O27587   5.063  -0.817  11.768  0.3021  0.4327 -0.4600
  205MOL0     C27588   5.179  -0.558  11.752  0.2055 -0.2554 -0.0349
  205MOL0     C27589   5.236  -0.428  11.738  0.7030 -0.9003 -0.0591
  205MOL0     N27590   5.481   0.344  11.639 -0.4634  0.3813 -0.5302
  205MOL0     N27591   5.406   0.437  11.706  0.2087  0.9408  0.2920
  205MOL0     C27592   4.277   0.457  11.343 -0.9146 -0.0971 -0.2909
  205MOL0     C27593   4.149   0.492  11.301 -0.2170 -0.4994 -0.0371
  205MOL0     C27594   3.738   0.458  11.086  0.1005  0.6964  0.1959
  205MOL0     C27595   3.683   0.548  11.174  0.2273  0.5106 -0.4535
  205MOL0     C27596   3.555   0.589  11.165 -0.0298 -0.0882  0.7094
  205MOL0     C27597   3.478   0.559  11.048 -0.2830 -1.0793  0.3739
  205MOL0     O27598   3.350   0.598  11.030  0.8180  0.5100  0.8375
  205MOL0     C27599   3.296   0.706  11.106  0.2923  0.8777 -0.0342
  205MOL0     C27600   3.162   0.754  11.066 -0.0407  0.5869 -0.3051
  205MOL0     C27601   3.138   0.888  11.140 -0.3981  0.6236 -0.0548
  205MOL0     C27602   3.015   0.952  11.070  0.0018 -0.1819  0.8519
  205MOL0     C27603   3.063   1.021  10.945  0.7978  0.5547 -0.6375
  205MOL0     C27604   3.073   1.073  10.828  0.8723 -0.2152  0.0055
  205MOL0     C27605   3.533   0.466  10.959  0.4879  0.9155 -0.8251
  205MOL0     C27606   3.661   0.415  10.976 -0.5939 -0.5163 -0.7710
  205MOL0     C27607   3.709   0.293  10.894  0.1095 -0.7330  0.4722
  205MOL0     H27608   4.023   0.181  11.294 -0.8293  0.1428  1.4523
  205MOL0     H27609   4.236   0.120  11.373 -1.0298 -2.0270 -1.6722
  205MOL0     H27610   4.563   0.452  11.390  3.0167 -0.9151 -0.0353
  205MOL0     H27611   4.471   0.439  11.547 -2.7001  0.1353 -2.2685
  205MOL0     H27612   4.723   0.290  11.448 -0.9311 -2.9462  1.8533
  205MOL0     H27613   4.633   0.253  11.589 -2.7735  2.1698  1.8158
  205MOL0     H27614   4.686   0.474  11.699  1.3098  3.6228  0.1155
  205MOL0     H27615   4.752   0.532  11.546  2.1976 -0.3989  0.5881
  205MOL0     H27616   4.866   0.286  11.686  1.7055 -1.5068 -2.1258
  205MOL0     H27617   4.935   0.366  11.551  1.4553 -2.9931  2.1773
  205MOL0     H27618   4.974   0.572  11.687 -1.0436 -0.8032 -1.3833
  205MOL0     H27619   4.897   0.492  11.831  1.5528  1.8168  0.9470
  205MOL0     H27620   5.071   0.326  11.835  0.1590 -1.0571 -2.7002
  205MOL0     H27621   5.144   0.385  11.699  3.6163  2.2443  0.5783
  205MOL0     H27622   5.100   0.560  11.956  2.4843  1.1417  1.1940
  205MOL0     H27623   5.189   0.613  11.809  1.7581 -0.4735 -1.2412
  205MOL0     H27624   5.353   0.520  11.990  0.6116  1.1204 -2.2407
  205MOL0     H27625   5.256   0.376  11.981 -1.5262 -0.3188 -1.8396
  205MOL0     H27626   5.473   0.232  11.948 -0.8244 -0.2895 -0.4030
  205MOL0     H27627   5.616   0.114  11.588  1.3143 -1.9350  0.4863
  205MOL0     H27628   5.664   0.115  11.756  1.1763  3.0772 -1.7285
  205MOL0     H27629   5.444   0.004  11.816  0.1564 -0.8778 -0.0370
  205MOL0     H27630   5.390   0.026  11.650 -0.4975  1.9566 -0.1795
  205MOL0     H27631   5.635  -0.166  11.729 -0.4428 -0.6305 -0.4764
  205MOL0     H27632   5.580  -0.129  11.569  0.0570  0.8927  0.0340
  205MOL0     H27633   5.474  -0.326  11.618  0.0956 -0.8609  1.8399
  205MOL0     H27634   5.343  -0.224  11.624  0.1754  1.3518 -0.9110
  205MOL0     H27635   5.457  -0.464  12.000  1.4015  0.7357 -2.4832
  205MOL0     H27636   5.343  -0.673  12.022 -0.7181 -0.0661  1.0168
  205MOL0     H27637   5.383  -1.045  12.015 -0.4749 -0.7130  0.4957
  205MOL0     H27638   5.387  -1.289  11.981 -1.9615 -1.6779  1.4205
  205MOL0     H27639   5.002  -1.507  11.843 -0.7329 -3.2991 -0.1209
  205MOL0     H27640   5.117  -1.488  11.701  4.7952 -1.9961 -0.6351
  205MOL0     H27641   5.237  -1.694  11.802  0.7021 -1.0688  1.1298
  205MOL0     H27642   5.157  -1.674  11.950 -1.8365  0.4956  0.3754
  205MOL0     H27643   5.064  -1.860  11.822 -1.4605 -0.2255 -1.5225
  205MOL0     H27644   4.953  -1.742  11.898 -0.3122 -1.7465  0.9518
  205MOL0     H27645   5.050  -1.761  11.611 -0.3878 -0.4529 -0.0686
  205MOL0     H27646   4.919  -1.644  11.664 -1.0624  0.0399  0.4195
  205MOL0     H27647   4.908  -1.952  11.644 -0.0301  0.4361  1.8612
  205MOL0     H27648   4.852  -1.825  11.537  0.1173  0.9077 -0.0190
  205MOL0     H27649   4.760  -1.797  11.811 -1.0297  0.9866 -0.5954
  205MOL0     H27650   4.669  -1.788  11.653 -0.6199 -1.5711 -1.7862
  205MOL0     H27651   4.750  -2.045  11.796  0.0732  1.7004  1.3686
  205MOL0     H27652   4.666  -2.039  11.643 -1.6292  1.3431 -0.7145
  205MOL0     H27653   4.555  -1.994  11.918  0.9322 -4.1756 -0.4445
  205MOL0     H27654   4.475  -1.912  11.775  0.4784  0.9270 -0.6742
  205MOL0     H27655   4.998  -1.273  11.806 -0.1010 -0.8421  0.3710
  205MOL0     H27656   5.000  -1.027  11.839  0.5219  0.6589  0.1135
  205MOL0     H27657   5.097  -0.591  11.688 -0.0597 -2.2938  1.2637
  205MOL0     H27658   5.192  -0.375  11.654  0.9638 -1.1227 -0.3409
  205MOL0     H27659   4.338   0.546  11.357  2.7966 -2.6582  1.6658
  205MOL0     H27660   4.117   0.594  11.284  0.1547 -0.7980 -2.9810
  205MOL0     H27661   3.742   0.583  11.258 -0.9692  0.0615  0.6076
  205MOL0     H27662   3.514   0.653  11.243  0.4467  0.6344  0.3662
  205MOL0     H27663   3.360   0.793  11.092  2.2589 -0.3822  0.6343
  205MOL0     H27664   3.297   0.674  11.211  1.2037  1.7125  0.2327
  205MOL0     H27665   3.087   0.682  11.101 -0.3182  1.3779  0.8023
  205MOL0     H27666   3.162   0.764  10.957  0.9755  1.9350 -0.1963
  205MOL0     H27667   3.229   0.949  11.142 -0.6567  1.0167  1.8234
  205MOL0     H27668   3.109   0.864  11.243 -0.3390 -2.4674 -0.6637
  205MOL0     H27669   2.941   0.874  11.053  1.8751 -2.3123  1.8667
  205MOL0     H27670   2.962   1.025  11.133 -3.6743 -1.2048 -0.8024
  205MOL0     H27671   3.077   1.129  10.737  2.5609 -1.2059 -0.5815
  205MOL0     H27672   3.476   0.439  10.870  1.3645  0.3967 -1.2425
  205MOL0     H27673   3.717   0.208  10.963 -1.8418 -0.0869  1.5682
  205MOL0     H27674   3.638   0.264  10.816  1.7489  0.4412 -1.5415
  205MOL0     H27675   3.798   0.319  10.837 -1.3481  0.0569 -1.5779
  206MOL0     O27676   1.682  11.202   6.297 -0.1994 -0.0181 -0.0821
  206MOL0     C27677   1.652  11.324   6.298  0.1250  0.2667  0.2697
  206MOL0     O27678   1.727  11.427   6.290 -0.2014  0.2684  0.4733
  206MOL0     C27679   1.856  11.408   6.272  0.9004 -0.0810 -0.0202
  206MOL0     C27680   1.929  11.351   6.375  1.1839  0.4110  0.5170
  206MOL0     C27681   2.064  11.322   6.357 -0.0759  0.3940  0.5328
  206MOL0     C27682   2.133  11.343   6.231  0.9179 -0.1102 -0.2552
  206MOL0     O27683   2.266  11.309   6.226 -0.1633 -0.1289  0.4990
  206MOL0     C27684   2.335  11.362   6.105 -0.2252 -0.1193  0.1228
  206MOL0     C27685   2.479  11.301   6.099  0.6689 -0.3903  0.0899
  206MOL0     C27686   2.565  11.383   6.186  0.0277 -0.3972  0.3014
  206MOL0     C27687   2.696  11.318   6.223 -0.2531  0.1585 -0.1819
  206MOL0     C27688   2.784  11.349   6.105  0.0971  1.0106 -0.1222
  206MOL0     C27689   2.928  11.338   6.157  0.1542  0.2585 -0.5778
  206MOL0     C27690   3.029  11.373   6.055  0.0513 -0.0340 -0.5427
  206MOL0     C27691   3.169  11.364   6.117  0.4164 -0.7199 -0.1623
  206MOL0     N27692   3.201  11.487   6.203  0.8035  0.9969  0.1613
  206MOL0     C27693   3.219  11.486   6.341 -0.2929 -0.7179  0.0746
  206MOL0     C27694   3.237  11.620   6.379 -0.2318  0.1840 -0.2600
  206MOL0     C27695   3.245  11.677   6.518  0.0253  0.2062  1.0181
  206MOL0     C27696   3.384  11.733   6.547 -0.3690  0.2724  0.1877
  206MOL0     C27697   3.405  11.774   6.693  0.1063  0.0881 -1.0971
  206MOL0     C27698   3.551  11.806   6.713 -0.2359  0.3698 -0.5817
  206MOL0     O27699   3.573  11.955   6.688 -0.1907  1.2331  0.3824
  206MOL0     C27700   3.705  12.001   6.682 -0.1368  0.7229  1.4251
  206MOL0     C27701   3.809  11.929   6.743  0.3078 -0.3959  0.5372
  206MOL0     C27702   3.938  11.959   6.742  0.3226  0.1128 -0.7167
  206MOL0     C27703   3.972  12.078   6.678  0.5901  0.1983 -0.3746
  206MOL0     C27704   4.109  12.121   6.693 -0.0993  0.3264 -0.0006
  206MOL0     O27705   4.201  12.036   6.748 -0.1047  1.2312  0.1893
  206MOL0     C27706   4.328  12.022   6.705  0.2719  0.5474 -0.5994
  206MOL0     C27707   4.409  11.934   6.777  0.8287 -1.6713 -0.3652
  206MOL0     C27708   4.534  11.898   6.738 -0.3299  0.0498  0.5659
  206MOL0     C27709   4.595  11.946   6.627  0.1566  0.2257 -0.4657
  206MOL0     O27710   4.724  11.899   6.595 -0.4897  0.9218  0.6678
  206MOL0     C27711   4.785  11.947   6.469  0.5070 -0.0761 -1.2624
  206MOL0     C27712   4.913  11.873   6.435 -1.3174  1.3465  0.6331
  206MOL0     C27713   5.033  11.895   6.533 -0.7701  0.5733 -0.2167
  206MOL0     C27714   5.111  12.020   6.497 -0.2658  1.0775 -0.4883
  206MOL0     C27715   5.215  12.064   6.603  0.3344  0.1923 -0.0353
  206MOL0     C27716   5.321  11.953   6.636  0.4048 -0.6540 -0.1431
  206MOL0     C27717   5.415  11.922   6.515  1.2398 -0.2920 -0.1613
  206MOL0     C27718   5.555  11.973   6.544  0.8377  0.7317  0.0185
  206MOL0    Cl27719   5.538  12.153   6.545  0.1673 -0.2551  0.0442
  206MOL0     C27720   4.520  12.030   6.554  0.0986 -0.0288  1.1564
  206MOL0     C27721   4.388  12.063   6.583 -0.1618 -0.9488 -0.2266
  206MOL0     O27722   4.139  12.222   6.629 -0.1120  0.4335  0.2954
  206MOL0     C27723   3.876  12.157   6.606  0.2026  0.4784  0.7184
  206MOL0     C27724   3.736  12.116   6.612 -0.8809 -0.5315 -0.0712
  206MOL0     N27725   3.243  11.695   6.257  0.0102  0.1209  0.9213
  206MOL0     N27726   3.222  11.619   6.158  0.7175  0.8933 -0.1900
  206MOL0     C27727   2.057  11.407   6.125 -0.4648  0.1508  0.0202
  206MOL0     C27728   1.919  11.430   6.144  0.1944  0.3112 -0.2616
  206MOL0     C27729   1.509  11.346   6.319 -0.4245 -0.4083 -0.0633
  206MOL0     C27730   1.435  11.247   6.374 -0.3883  0.1341  0.5382
  206MOL0     C27731   1.301  11.246   6.387  0.5001 -0.0763  0.2266
  206MOL0     C27732   1.228  11.354   6.342 -0.3728  0.9820  0.3862
  206MOL0     O27733   1.089  11.356   6.360  0.4138  0.1082  0.2961
  206MOL0     C27734   1.045  11.348   6.496 -0.0139 -0.3489 -0.0713
  206MOL0     C27735   0.888  11.344   6.498  1.0319 -0.4205 -1.3726
  206MOL0     C27736   0.838  11.225   6.426 -0.1766  0.2184  0.5199
  206MOL0     C27737   0.690  11.192   6.461 -0.0085  0.2645  0.1624
  206MOL0     C27738   0.606  11.299   6.406  0.0930  0.4560 -0.4320
  206MOL0     C27739   0.536  11.392   6.382  0.3484 -0.2809  0.2627
  206MOL0     C27740   1.295  11.462   6.293  0.2328  0.4583  0.2644
  206MOL0     C27741   1.434  11.463   6.284 -0.2053 -0.5671 -0.3679
  206MOL0     C27742   1.483  11.584   6.208 -0.4970  1.0958  0.4421
  206MOL0     H27743   1.876  11.320   6.465  0.2765  0.3167 -0.0363
  206MOL0     H27744   2.107  11.266   6.440 -2.3816 -2.4278 -0.0008
  206MOL0     H27745   2.286  11.346   6.008  0.7886  3.5013 -1.1450
  206MOL0     H27746   2.345  11.471   6.102 -1.1288 -0.0270  0.0676
  206MOL0     H27747   2.517  11.310   5.997 -0.7967 -0.2818 -0.4705
  206MOL0     H27748   2.485  11.197   6.130  0.6331 -0.1862  0.8080
  206MOL0     H27749   2.511  11.395   6.281 -2.5686  1.0153 -1.2438
  206MOL0     H27750   2.578  11.482   6.141  0.6558 -0.0401  1.2435
  206MOL0     H27751   2.739  11.370   6.309 -0.9224 -0.0194  0.2613
  206MOL0     H27752   2.698  11.210   6.239  0.1597  0.0868 -0.6737
  206MOL0     H27753   2.769  11.277   6.025 -1.7640  0.4609  0.6532
  206MOL0     H27754   2.764  11.446   6.058 -1.1475 -0.2151 -2.2263
  206MOL0     H27755   2.934  11.401   6.246  0.1133 -2.1610  1.2333
  206MOL0     H27756   2.953  11.234   6.182 -0.8623  0.0888 -0.2057
  206MOL0     H27757   3.014  11.475   6.018  2.3201  0.8461  0.7166
  206MOL0     H27758   3.030  11.298   5.976 -2.1454  1.2225 -1.8594
  206MOL0     H27759   3.165  11.281   6.188  2.7706 -1.0305 -0.3282
  206MOL0     H27760   3.242  11.349   6.037  3.3482  0.3844  2.1498
  206MOL0     H27761   3.218  11.405   6.413 -0.8981 -1.8808 -1.1933
  206MOL0     H27762   3.176  11.761   6.526  1.6355  1.5413  1.4169
  206MOL0     H27763   3.225  11.599   6.593  0.6683 -0.9448  0.0453
  206MOL0     H27764   3.457  11.656   6.521  0.1446  0.9102 -0.2908
  206MOL0     H27765   3.407  11.822   6.487 -1.2724  1.3511  1.3756
  206MOL0     H27766   3.379  11.687   6.755 -1.2684  0.5718 -0.9611
  206MOL0     H27767   3.337  11.853   6.726 -0.4221  0.2102 -2.4076
  206MOL0     H27768   3.623  11.743   6.659  0.0588  1.5709 -1.6211
  206MOL0     H27769   3.562  11.787   6.821  1.6375 -0.4149 -0.8653
  206MOL0     H27770   3.788  11.831   6.786  0.3151 -1.2867 -1.3718
  206MOL0     H27771   3.997  11.911   6.819 -1.7433  0.4136  1.1636
  206MOL0     H27772   4.369  11.890   6.868 -0.8872  1.2538  0.4625
  206MOL0     H27773   4.590  11.830   6.803  0.6666 -0.4398 -0.7563
  206MOL0     H27774   4.713  11.922   6.391  0.0316 -1.6922 -0.3441
  206MOL0     H27775   4.804  12.055   6.474 -2.0392  0.4141 -0.8025
  206MOL0     H27776   4.892  11.768   6.414  1.0487  1.5136 -3.8301
  206MOL0     H27777   4.951  11.902   6.336 -0.2720 -1.1264  0.2354
  206MOL0     H27778   4.995  11.904   6.635  1.8975 -3.0150  1.3163
  206MOL0     H27779   5.096  11.806   6.520 -1.9261 -0.3930  0.5107
  206MOL0     H27780   5.042  12.105   6.504 -1.8243 -0.2542  1.5252
  206MOL0     H27781   5.148  12.008   6.395  0.1901  2.0630 -0.4528
  206MOL0     H27782   5.162  12.080   6.698  0.7801 -2.3312  0.7249
  206MOL0     H27783   5.266  12.149   6.559  1.1397  0.4830  1.3936
  206MOL0     H27784   5.383  11.989   6.719 -0.4970  1.9418 -0.5025
  206MOL0     H27785   5.269  11.865   6.673 -1.0860  1.3369  2.9055
  206MOL0     H27786   5.377  11.960   6.420 -0.7489  0.2195  0.7816
  206MOL0     H27787   5.420  11.813   6.512 -0.7983 -0.4860  1.2648
  206MOL0     H27788   5.606  11.952   6.639  0.5712  1.6800  0.3844
  206MOL0     H27789   5.618  11.943   6.461 -1.9877 -2.9451 -1.0877
  206MOL0     H27790   4.573  12.060   6.465  2.0265 -3.0316  1.1330
  206MOL0     H27791   4.333  12.123   6.512  0.9751  1.2482  0.6616
  206MOL0     H27792   3.893  12.235   6.533 -0.4959 -0.3813 -0.3978
  206MOL0     H27793   3.658  12.168   6.557 -2.7150 -0.4294  2.4718
  206MOL0     H27794   2.100  11.435   6.030  0.9112  0.5663  0.7393
  206MOL0     H27795   1.851  11.467   6.068 -0.9342  1.3653  1.2196
  206MOL0     H27796   1.481  11.163   6.424  0.7286 -0.2176 -1.0136
  206MOL0     H27797   1.255  11.163   6.438 -1.2890 -0.0822 -1.2959
  206MOL0     H27798   1.088  11.434   6.548  3.3945 -3.1755  2.2591
  206MOL0     H27799   1.089  11.260   6.544 -1.3241 -1.4331 -0.7903
  206MOL0     H27800   0.866  11.429   6.432 -1.5700 -2.2224 -3.0158
  206MOL0     H27801   0.849  11.347   6.600  0.9591  1.0764 -1.4127
  206MOL0     H27802   0.901  11.137   6.441 -2.2175 -1.3820  0.0539
  206MOL0     H27803   0.839  11.246   6.318 -0.4767  0.0174  0.4767
  206MOL0     H27804   0.666  11.092   6.423  0.7976  0.8583 -2.0162
  206MOL0     H27805   0.690  11.193   6.571 -1.1619 -0.5198  0.1792
  206MOL0     H27806   0.468  11.474   6.368  0.9232 -0.0077 -1.0421
  206MOL0     H27807   1.240  11.549   6.259 -0.7555 -0.1480  0.3093
  206MOL0     H27808   1.404  11.654   6.178  0.6240  2.3052  0.2102
  206MOL0     H27809   1.557  11.627   6.276  1.2636 -0.4970 -0.3956
  206MOL0     H27810   1.537  11.565   6.115 -2.2028  1.7211 -0.7328
  207MOL0     O27811   1.339  11.109   1.326 -0.0021 -0.2036 -0.0449
  207MOL0     C27812   1.257  11.197   1.339  0.8202 -0.1495  0.3583
  207MOL0     O27813   1.284  11.334   1.321 -0.2938 -0.7060 -0.3019
  207MOL0     C27814   1.412  11.386   1.334 -0.3025  0.8035  1.1333
  207MOL0     C27815   1.423  11.504   1.397 -0.1649  0.1474 -0.2971
  207MOL0     C27816   1.544  11.563   1.429  0.8518 -0.1007  0.3870
  207MOL0     C27817   1.664  11.516   1.376  1.0987 -0.3396  0.2392
  207MOL0     O27818   1.789  11.566   1.393 -0.2075 -0.5616  0.1492
  207MOL0     C27819   1.805  11.696   1.461  0.8284  1.0040 -0.1489
  207MOL0     C27820   1.959  11.737   1.477 -0.4491  0.2271  0.8468
  207MOL0     C27821   1.980  11.887   1.492 -0.2776 -0.6582  0.2296
  207MOL0     C27822   1.956  11.931   1.640 -0.2544  0.0891  0.4681
  207MOL0     C27823   1.998  12.080   1.642 -0.2102 -0.4305 -0.2878
  207MOL0     C27824   1.923  12.156   1.754  0.7317 -0.3180 -0.2749
  207MOL0     C27825   1.965  12.304   1.768  0.4863  0.6557 -0.3736
  207MOL0     C27826   2.105  12.326   1.829 -0.3792  0.0362  0.7709
  207MOL0     N27827   2.174  12.432   1.743  0.2842  0.4003  0.8577
  207MOL0     C27828   2.245  12.414   1.631 -0.1423  0.1382  0.8723
  207MOL0     C27829   2.310  12.531   1.605 -0.0884 -0.2360 -0.1078
  207MOL0     C27830   2.415  12.551   1.507 -0.7227 -0.8003 -1.4040
  207MOL0     C27831   2.563  12.529   1.561 -0.0210 -0.3484 -0.2664
  207MOL0     C27832   2.608  12.633   1.664  0.6732 -0.3237 -0.0094
  207MOL0     C27833   2.756  12.630   1.694 -0.1575 -0.8206  0.7350
  207MOL0     O27834   2.825  12.692   1.579 -0.3205 -0.0232  0.1454
  207MOL0     C27835   2.963  12.682   1.568  1.5376 -0.2294 -0.2111
  207MOL0     C27836   3.040  12.610   1.665  0.7167  0.6923  0.2711
  207MOL0     C27837   3.174  12.607   1.657 -0.0787 -0.2934 -0.8978
  207MOL0     C27838   3.248  12.686   1.562 -0.0762 -0.3938 -0.5645
  207MOL0     C27839   3.398  12.691   1.563 -0.3259 -0.5310 -0.1804
  207MOL0     O27840   3.457  12.786   1.484 -0.1369 -0.0118 -0.6249
  207MOL0     C27841   3.588  12.775   1.446  0.2640  0.0761  0.6624
  207MOL0     C27842   3.658  12.658   1.431  0.1997  0.6813 -0.0946
  207MOL0     C27843   3.798  12.655   1.390  0.1415  0.0986  0.5058
  207MOL0     C27844   3.865  12.779   1.368 -0.3385  0.5000  0.6727
  207MOL0     O27845   3.998  12.797   1.328  0.4719 -0.5972  0.2369
  207MOL0     C27846   4.092  12.692   1.316 -0.2415 -0.3733 -0.4834
  207MOL0     C27847   4.232  12.742   1.276  0.7609  0.6713  0.0882
  207MOL0     C27848   4.331  12.626   1.253  0.1637  0.0181  0.5603
  207MOL0     C27849   4.456  12.699   1.205  0.3945 -0.3495 -0.2252
  207MOL0     C27850   4.577  12.623   1.156 -0.4341 -0.0036 -0.2368
  207MOL0     C27851   4.630  12.505   1.239 -0.5232 -0.3248  0.0232
  207MOL0     C27852   4.727  12.563   1.349  0.3481 -0.3337  0.3574
  207MOL0     C27853   4.770  12.452   1.449 -0.2050  0.4918 -0.6744
  207MOL0    Cl27854   4.809  12.294   1.352 -0.1396 -0.1285  0.3064
  207MOL0     C27855   3.789  12.897   1.381 -0.1095 -0.7090 -0.2063
  207MOL0     C27856   3.662  12.888   1.423  0.3432 -0.6806  0.0157
  207MOL0     O27857   3.453  12.609   1.629 -0.1042  0.4064 -0.0971
  207MOL0     C27858   3.166  12.768   1.473  0.0081  0.4966 -0.7131
  207MOL0     C27859   3.031  12.759   1.474  0.1239  0.7871 -0.3966
  207MOL0     N27860   2.255  12.629   1.688  0.1522  0.8301  0.3969
  207MOL0     N27861   2.175  12.566   1.768 -0.6902 -1.5813  0.0230
  207MOL0     C27862   1.655  11.388   1.312  0.2468 -0.0918 -0.2847
  207MOL0     C27863   1.534  11.328   1.287  0.0987 -0.4218 -0.7180
  207MOL0     C27864   1.105  11.159   1.334  0.5720 -0.0006 -0.1718
  207MOL0     C27865   1.013  11.269   1.320 -0.0572  0.9715 -0.8333
  207MOL0     C27866   0.876  11.240   1.319  0.7048 -0.8976  0.0502
  207MOL0     C27867   0.824  11.111   1.319 -0.1390  0.0921  0.0364
  207MOL0     O27868   0.688  11.082   1.328  0.4834 -0.6109  0.1815
  207MOL0     C27869   0.592  11.181   1.366 -0.2546  0.1818 -0.4824
  207MOL0     C27870   0.459  11.137   1.300 -0.5889  0.4917 -0.2094
  207MOL0     C27871   0.401  11.003   1.349 -0.6964  0.3017 -0.1076
  207MOL0     C27872   0.269  10.963   1.281  0.3409  0.1950  0.2413
  207MOL0     C27873   0.187  10.869   1.354  0.7689 -0.7145 -0.4629
  207MOL0     C27874   0.130  10.790   1.427 -0.4223  0.4702  0.0904
  207MOL0     C27875   0.909  11.005   1.335  0.2867 -0.6439  0.0070
  207MOL0     C27876   1.050  11.030   1.345 -0.5164 -0.3101 -0.8629
  207MOL0     C27877   1.125  10.907   1.367 -0.7424  0.2966 -0.7336
  207MOL0     H27878   1.332  11.544   1.442 -0.0542  0.7535 -0.6083
  207MOL0     H27879   1.550  11.648   1.495  1.0858  1.3316 -1.4077
  207MOL0     H27880   1.760  11.777   1.402  1.4187  0.4291 -1.4179
  207MOL0     H27881   1.757  11.687   1.559 -1.0083  1.7766 -0.9294
  207MOL0     H27882   1.989  11.706   1.377 -3.2036 -2.7237  0.7863
  207MOL0     H27883   2.015  11.683   1.554 -2.4963 -1.5267  1.2046
  207MOL0     H27884   1.915  11.937   1.420 -3.3337 -1.4789  2.1758
  207MOL0     H27885   2.086  11.908   1.479 -0.4383  1.7557  2.0645
  207MOL0     H27886   1.848  11.923   1.659 -0.1097 -1.0723  0.9235
  207MOL0     H27887   2.023  11.885   1.713  0.4475 -2.4665 -1.6523
  207MOL0     H27888   2.107  12.092   1.648 -0.1562 -0.7681 -0.5349
  207MOL0     H27889   1.974  12.129   1.547  1.2152  1.9909  0.5039
  207MOL0     H27890   1.815  12.141   1.741  0.8717  0.0535 -2.0434
  207MOL0     H27891   1.944  12.120   1.855 -1.8433  1.5615  1.0573
  207MOL0     H27892   1.890  12.363   1.822  1.6588  1.6747  0.1808
  207MOL0     H27893   1.954  12.346   1.667 -1.6235  0.1934 -0.3871
  207MOL0     H27894   2.101  12.356   1.934  1.9275  0.6457  0.7341
  207MOL0     H27895   2.169  12.238   1.815 -2.5708 -1.2999 -1.8745
  207MOL0     H27896   2.251  12.325   1.569  3.5939 -0.2124  1.5006
  207MOL0     H27897   2.396  12.485   1.422 -0.1240  0.3064 -2.4354
  207MOL0     H27898   2.414  12.654   1.468  1.3123 -0.9694 -1.9999
  207MOL0     H27899   2.577  12.427   1.599  0.0195  0.2311  1.3726
  207MOL0     H27900   2.639  12.536   1.483 -1.3444  1.0129 -1.4885
  207MOL0     H27901   2.565  12.611   1.763 -2.9507 -1.1612 -1.5994
  207MOL0     H27902   2.582  12.732   1.627  1.2481 -0.3007 -0.3566
  207MOL0     H27903   2.786  12.524   1.695  0.4470 -0.7420 -1.5455
  207MOL0     H27904   2.772  12.685   1.787 -1.7099  2.4182 -0.7549
  207MOL0     H27905   2.995  12.544   1.738 -0.6452  3.8442  2.4647
  207MOL0     H27906   3.218  12.545   1.733 -1.5885 -0.7277 -0.3337
  207MOL0     H27907   3.599  12.567   1.435  0.1388  0.6911 -0.7186
  207MOL0     H27908   3.843  12.557   1.379  0.5742 -0.0624  3.0839
  207MOL0     H27909   4.111  12.646   1.413 -0.7608  0.2453 -0.0851
  207MOL0     H27910   4.056  12.619   1.243  1.8933 -0.3322 -1.6839
  207MOL0     H27911   4.222  12.808   1.189  1.9407  2.2228  1.0842
  207MOL0     H27912   4.275  12.813   1.348  1.1621 -0.3373  0.8663
  207MOL0     H27913   4.357  12.583   1.351  1.5939  3.0797  1.6811
  207MOL0     H27914   4.287  12.557   1.181 -0.4261  0.0174  0.9196
  207MOL0     H27915   4.488  12.761   1.289  0.2694 -0.5970  0.0058
  207MOL0     H27916   4.424  12.763   1.122  1.2850 -1.1205 -1.1850
  207MOL0     H27917   4.659  12.695   1.141 -0.0164 -0.2795  0.6590
  207MOL0     H27918   4.535  12.581   1.064 -2.0256  0.8105  0.0948
  207MOL0     H27919   4.541  12.455   1.280 -1.5004  0.2010 -1.3553
  207MOL0     H27920   4.674  12.425   1.179  0.2027 -1.1908  1.6298
  207MOL0     H27921   4.673  12.632   1.414  0.7485 -2.3669  3.0336
  207MOL0     H27922   4.811  12.609   1.297 -0.4204 -0.6474 -1.2349
  207MOL0     H27923   4.862  12.484   1.500 -1.2608  2.6212  0.0117
  207MOL0     H27924   4.695  12.424   1.524  0.6964 -3.3988 -1.0066
  207MOL0     H27925   3.840  12.991   1.363 -0.0290 -0.4719  1.2011
  207MOL0     H27926   3.606  12.979   1.440 -1.2042 -0.8121 -3.4227
  207MOL0     H27927   3.214  12.828   1.396 -3.1741  0.5346 -2.8362
  207MOL0     H27928   2.967  12.794   1.394 -2.9114 -3.0334  0.0548
  207MOL0     H27929   1.743  11.349   1.263  0.8401  0.5713  0.2374
  207MOL0     H27930   1.528  11.236   1.229 -0.6351 -0.5492 -0.4577
  207MOL0     H27931   1.053  11.369   1.314  2.2738  0.2270  0.8967
  207MOL0     H27932   0.806  11.321   1.300  0.2455 -1.3754 -0.3105
  207MOL0     H27933   0.618  11.274   1.315  4.0929 -2.1217 -3.0813
  207MOL0     H27934   0.572  11.183   1.474  1.6502  0.3103 -0.0805
  207MOL0     H27935   0.485  11.123   1.195 -0.6292 -1.8067  0.0479
  207MOL0     H27936   0.387  11.214   1.327  1.1583  1.1880  2.9616
  207MOL0     H27937   0.393  10.999   1.458 -0.1890 -2.7549 -0.1050
  207MOL0     H27938   0.479  10.933   1.317 -0.6388  0.7874 -1.0652
  207MOL0     H27939   0.203  11.046   1.255 -0.6545 -0.2825  1.1492
  207MOL0     H27940   0.300  10.914   1.189 -0.8361  2.0415 -1.2094
  207MOL0     H27941   0.087  10.737   1.510 -1.2153  1.9421  0.6544
  207MOL0     H27942   0.866  10.906   1.344 -0.6258 -0.2325  0.2876
  207MOL0     H27943   1.185  10.922   1.457 -1.5568  1.3496 -0.3583
  207MOL0     H27944   1.072  10.812   1.376  1.9166 -1.2119  0.1499
  207MOL0     H27945   1.192  10.896   1.281  0.5319 -1.9957  0.4620
  208MOL0     O27946  10.700   3.973   4.662 -0.8588  0.5463 -0.2183
  208MOL0     C27947  10.657   4.083   4.632 -0.2299  0.6239  0.4747
  208MOL0     O27948  10.724   4.203   4.649 -0.5071 -0.3875  0.0574
  208MOL0     C27949  10.840   4.206   4.721 -0.6147  0.1975  0.0851
  208MOL0     C27950  10.859   4.130   4.838 -1.0377 -1.1276  0.0988
  208MOL0     C27951  10.991   4.116   4.885 -0.4422 -0.3030  0.5999
  208MOL0     C27952  11.098   4.193   4.833 -0.3152 -0.7296  0.3520
  208MOL0     O27953  11.220   4.194   4.895  0.8269 -0.4285 -0.8883
  208MOL0     C27954  11.323   4.283   4.858  0.7028  0.6530  0.0385
  208MOL0     C27955  11.443   4.261   4.941 -0.9865  0.0322  0.0537
  208MOL0     C27956  11.549   4.368   4.916 -0.0714  0.1647  0.2120
  208MOL0     C27957  11.690   4.327   4.966 -0.2908 -0.2381  0.2648
  208MOL0     C27958  11.793   4.435   4.948  0.3679 -0.0888 -0.3761
  208MOL0     C27959  11.833   4.510   5.080  0.3437 -0.6124  0.5038
  208MOL0     C27960  11.931   4.617   5.054 -0.2413 -0.2937  0.5562
  208MOL0     C27961  12.068   4.545   5.053  0.0682 -0.3036  0.1778
  208MOL0     N27962  12.185   4.638   5.045 -0.7996 -0.3260 -0.4124
  208MOL0     C27963  12.227   4.716   4.935 -0.5850  0.0980 -0.6769
  208MOL0     C27964  12.342   4.769   4.968 -0.3076  0.5466 -0.2311
  208MOL0     C27965  12.438   4.850   4.878 -0.3161 -0.7360  0.0202
  208MOL0     C27966  12.561   4.774   4.825 -0.0443  0.3678 -0.5957
  208MOL0     C27967  12.654   4.857   4.741 -0.0295  0.0811  0.4245
  208MOL0     C27968  12.696   4.994   4.790 -0.4115  0.1455 -0.5458
  208MOL0     O27969  12.814   5.015   4.714 -0.0235 -0.1286  1.0089
  208MOL0     C27970  12.934   4.981   4.755 -0.7804  0.4515 -0.3106
  208MOL0     C27971  12.945   4.885   4.863 -0.8287  0.0609  0.3565
  208MOL0     C27972  13.076   4.845   4.898  0.9316 -0.1084  0.4633
  208MOL0     C27973  13.196   4.887   4.826 -0.1563 -0.0479  0.1693
  208MOL0     C27974  13.328   4.832   4.870 -0.2145  0.8475 -0.5154
  208MOL0     O27975  13.331   4.786   5.000 -0.3941 -0.4426  0.0012
  208MOL0     C27976  13.443   4.714   5.030 -0.3238 -0.7938 -0.7813
  208MOL0     C27977  13.462   4.590   4.967  0.2418  0.1426  0.3903
  208MOL0     C27978  13.567   4.511   5.004 -1.5821  0.4254  1.0784
  208MOL0     C27979  13.664   4.554   5.094 -0.4106  0.1278 -0.3613
  208MOL0     O27980  13.765   4.471   5.134  0.3975  0.1289  0.5848
  208MOL0     C27981  13.755   4.415   5.266  0.8256  0.6406  0.1878
  208MOL0     C27982  13.855   4.299   5.274  0.3951 -0.5972  0.4338
  208MOL0     C27983  13.813   4.185   5.167 -1.0728 -0.5571 -0.7864
  208MOL0     C27984  13.904   4.070   5.186 -0.1247  0.2571 -0.3938
  208MOL0     C27985  13.900   3.973   5.069  0.2620 -0.5569 -0.6500
  208MOL0     C27986  13.944   3.832   5.123  0.8118 -0.6821 -0.3789
  208MOL0     C27987  13.825   3.752   5.164 -0.5830 -0.2302 -0.4320
  208MOL0     C27988  13.855   3.625   5.255  0.3183 -0.9968  0.1994
  208MOL0    Cl27989  13.721   3.560   5.358 -0.4303 -0.2946 -0.4833
  208MOL0     C27990  13.647   4.673   5.167 -0.6538  0.5512  0.0618
  208MOL0     C27991  13.540   4.760   5.129 -0.2266  0.9165 -0.2642
  208MOL0     O27992  13.424   4.842   4.798  0.1314  0.1776  0.5195
  208MOL0     C27993  13.173   4.983   4.721 -0.2875  0.4520  0.6697
  208MOL0     C27994  13.050   5.028   4.692  0.6762  0.1351 -0.2865
  208MOL0     N27995  12.376   4.738   5.096  0.2669  0.1393  0.3742
  208MOL0     N27996  12.280   4.658   5.142 -0.8768 -0.9627  0.1095
  208MOL0     C27997  11.073   4.291   4.734 -0.4991  1.3918  0.1998
  208MOL0     C27998  10.944   4.285   4.670 -0.8001 -0.6290 -0.2689
  208MOL0     C27999  10.523   4.090   4.572  0.3011  0.6200  0.1590
  208MOL0     C28000  10.453   4.215   4.579 -0.4095 -0.4199  0.0177
  208MOL0     C28001  10.326   4.229   4.519 -0.0944 -0.3369 -0.3168
  208MOL0     C28002  10.271   4.120   4.452  0.0883  0.0365 -0.1378
  208MOL0     O28003  10.145   4.131   4.391  0.1156  0.1716  0.4012
  208MOL0     C28004  10.063   4.249   4.395 -0.1731  0.0467  0.1479
  208MOL0     C28005  10.103   4.341   4.283 -0.2772  0.0796 -0.3478
  208MOL0     C28006  10.057   4.291   4.139  0.0211 -0.7210 -0.3444
  208MOL0     C28007   9.950   4.182   4.139 -0.0073  0.3340 -0.3675
  208MOL0     C28008   9.893   4.161   4.012  0.5737  0.1230 -0.5724
  208MOL0     C28009   9.832   4.149   3.909  0.1246 -1.6620  0.6259
  208MOL0     C28010  10.340   4.002   4.438  0.4637 -0.0481  0.7548
  208MOL0     C28011  10.468   3.980   4.490  1.3056 -0.8764 -0.1266
  208MOL0     C28012  10.523   3.843   4.483 -0.1074 -0.5322 -0.3588
  208MOL0     H28013  10.780   4.074   4.887 -0.7530 -0.6230  1.1464
  208MOL0     H28014  11.017   4.061   4.975  1.0502  0.7562  0.8613
  208MOL0     H28015  11.342   4.263   4.752 -0.9033 -0.9035 -0.0054
  208MOL0     H28016  11.282   4.384   4.867 -2.3055 -0.5506  1.1556
  208MOL0     H28017  11.487   4.162   4.931  1.4441  0.7545  2.4210
  208MOL0     H28018  11.405   4.265   5.044  2.7820 -0.4180  1.6040
  208MOL0     H28019  11.524   4.466   4.958 -1.4862 -0.4061  0.7814
  208MOL0     H28020  11.555   4.382   4.808  0.8443  0.3757  0.2826
  208MOL0     H28021  11.688   4.296   5.071 -2.0827 -0.1164  0.2916
  208MOL0     H28022  11.730   4.242   4.909  0.3708 -0.3126  0.8242
  208MOL0     H28023  11.878   4.383   4.902  0.7233  0.2631 -0.1320
  208MOL0     H28024  11.761   4.508   4.873 -0.7556 -1.4674 -1.2925
  208MOL0     H28025  11.744   4.556   5.124  0.6076 -0.4792  0.9034
  208MOL0     H28026  11.871   4.435   5.149  0.6797 -2.9341 -2.0425
  208MOL0     H28027  11.934   4.689   5.136 -2.9034 -0.5003  0.9187
  208MOL0     H28028  11.911   4.667   4.959  2.2036 -1.7431 -0.8044
  208MOL0     H28029  12.079   4.487   5.145 -0.5771  2.4555  2.1498
  208MOL0     H28030  12.071   4.481   4.965 -1.1316 -0.6688  0.3811
  208MOL0     H28031  12.193   4.710   4.832 -1.6752  1.1662 -0.4057
  208MOL0     H28032  12.395   4.887   4.785  0.9244  2.0190  0.4218
  208MOL0     H28033  12.466   4.944   4.927 -1.1812  0.1679 -1.1567
  208MOL0     H28034  12.619   4.742   4.912  0.8917 -0.5714 -1.5428
  208MOL0     H28035  12.526   4.689   4.765 -0.4775 -1.4628  2.0834
  208MOL0     H28036  12.620   4.869   4.638  2.7050 -0.5921 -0.6255
  208MOL0     H28037  12.739   4.792   4.721 -1.2322 -1.3875 -0.1009
  208MOL0     H28038  12.718   5.006   4.896  0.0322 -0.3937 -0.5691
  208MOL0     H28039  12.628   5.075   4.763  0.7818  0.4202 -3.0956
  208MOL0     H28040  12.864   4.839   4.918 -1.9897  1.0822 -0.4479
  208MOL0     H28041  13.091   4.773   4.977  1.8877  0.0636  0.4589
  208MOL0     H28042  13.384   4.555   4.900 -0.2252  0.4282  0.7807
  208MOL0     H28043  13.575   4.409   4.967  0.8794  0.2412  1.9220
  208MOL0     H28044  13.786   4.489   5.340  0.9940  0.4895  0.2687
  208MOL0     H28045  13.654   4.377   5.281  0.9725  0.4640  0.7316
  208MOL0     H28046  13.960   4.331   5.272 -0.4093  2.2888  0.7555
  208MOL0     H28047  13.843   4.264   5.376 -0.7251  0.6779  0.7628
  208MOL0     H28048  13.713   4.153   5.196 -0.4525 -2.0705 -0.2568
  208MOL0     H28049  13.824   4.224   5.065  2.9810  0.2550 -0.2322
  208MOL0     H28050  13.863   4.012   5.269 -0.4496 -3.0644 -2.6565
  208MOL0     H28051  14.007   4.101   5.206 -0.5642  1.5855 -0.1030
  208MOL0     H28052  13.971   4.005   4.992  0.6883  0.5776  0.1855
  208MOL0     H28053  13.806   3.979   5.014  0.5405 -0.9798 -1.1765
  208MOL0     H28054  14.008   3.786   5.047  3.4593  0.5178  0.9707
  208MOL0     H28055  14.013   3.847   5.207 -2.0627 -1.6935  2.3615
  208MOL0     H28056  13.759   3.743   5.078 -0.3619  4.2351 -1.3266
  208MOL0     H28057  13.757   3.808   5.230  0.8117 -0.0038  0.8912
  208MOL0     H28058  13.886   3.540   5.193  0.0836 -1.4591  0.7108
  208MOL0     H28059  13.925   3.655   5.333 -1.3062  0.6901  1.0865
  208MOL0     H28060  13.725   4.707   5.234  0.0473  0.8549 -0.8916
  208MOL0     H28061  13.528   4.862   5.164 -3.4451  0.2582  0.9717
  208MOL0     H28062  13.252   5.019   4.655  0.5599  1.2316  2.0541
  208MOL0     H28063  13.033   5.092   4.606 -1.7064 -0.4205 -0.2869
  208MOL0     H28064  11.147   4.355   4.687  1.5040 -1.1348 -0.3180
  208MOL0     H28065  10.923   4.342   4.580  1.6944  0.1504 -0.4199
  208MOL0     H28066  10.503   4.295   4.633 -0.2550 -0.2154 -0.4199
  208MOL0     H28067  10.265   4.317   4.538 -1.1483 -0.7609 -1.6044
  208MOL0     H28068  10.063   4.301   4.492 -1.1852 -1.3594  0.9291
  208MOL0     H28069   9.956   4.227   4.395 -0.0026 -0.9095  1.2815
  208MOL0     H28070  10.210   4.364   4.279 -0.1947 -0.0772  0.8436
  208MOL0     H28071  10.052   4.436   4.301 -1.2667 -0.5058  0.0132
  208MOL0     H28072  10.139   4.255   4.076 -0.6223  1.5249 -2.6802
  208MOL0     H28073  10.015   4.380   4.091  1.0093  0.4590  0.9083
  208MOL0     H28074   9.998   4.087   4.165 -0.9894  0.1861  0.9804
  208MOL0     H28075   9.869   4.200   4.210 -1.0086 -0.1570 -1.3415
  208MOL0     H28076   9.775   4.123   3.822 -2.3051  0.2972  1.5100
  208MOL0     H28077  10.294   3.918   4.387  2.6253 -0.6113 -0.3816
  208MOL0     H28078  10.622   3.857   4.439  0.8030  2.8546  2.3401
  208MOL0     H28079  10.534   3.798   4.582 -1.7238  2.8362  1.5197
  208MOL0     H28080  10.462   3.773   4.425 -0.4740  1.7988 -3.0016
  209MOL0     O28081   1.517   9.893   3.401 -0.1805  1.0124 -0.2931
  209MOL0     C28082   1.479   9.775   3.375 -0.2539  0.4113 -0.4506
  209MOL0     O28083   1.556   9.667   3.375 -0.0634 -0.6159  0.0761
  209MOL0     C28084   1.678   9.673   3.435 -0.8298 -0.5752  1.0273
  209MOL0     C28085   1.787   9.686   3.350 -0.1024  0.4305 -0.1573
  209MOL0     C28086   1.916   9.664   3.407  0.6272  0.1948  0.2196
  209MOL0     C28087   1.936   9.632   3.542  0.4435  0.9268  0.4358
  209MOL0     O28088   2.060   9.609   3.601 -0.2374  0.0790 -0.5652
  209MOL0     C28089   2.167   9.662   3.523  0.3818  0.2375 -0.3100
  209MOL0     C28090   2.286   9.688   3.611 -0.2035 -0.0841 -0.3891
  209MOL0     C28091   2.343   9.571   3.680  0.2523  0.2653  0.4255
  209MOL0     C28092   2.455   9.586   3.773  0.9580  0.2313 -0.8012
  209MOL0     C28093   2.497   9.450   3.842  0.2102  0.0632 -0.2374
  209MOL0     C28094   2.606   9.474   3.933 -0.1762 -0.3318  0.2799
  209MOL0     C28095   2.669   9.349   3.986 -0.2035  0.2590  0.2467
  209MOL0     C28096   2.784   9.365   4.086  0.3678 -0.6935  0.1706
  209MOL0     N28097   2.906   9.399   4.010 -0.6396 -0.4047  0.7124
  209MOL0     C28098   2.965   9.519   3.993  0.2120 -0.0787 -0.1732
  209MOL0     C28099   3.066   9.486   3.904  0.8797 -0.2804 -0.5555
  209MOL0     C28100   3.172   9.573   3.839 -0.1909 -0.0977 -0.0286
  209MOL0     C28101   3.307   9.550   3.913  0.3604 -0.1852 -0.2847
  209MOL0     C28102   3.306   9.614   4.058 -0.2433 -0.3122 -0.1205
  209MOL0     C28103   3.445   9.679   4.097  0.2437  0.2674  0.0277
  209MOL0     O28104   3.549   9.582   4.086  0.2587 -0.2621 -0.3344
  209MOL0     C28105   3.666   9.596   4.162  0.5416  0.6515  0.0915
  209MOL0     C28106   3.767   9.509   4.130 -0.5601 -0.0621 -0.1768
  209MOL0     C28107   3.888   9.504   4.193 -0.3676  0.0286 -0.2108
  209MOL0     C28108   3.906   9.588   4.306 -0.0647 -1.1356 -0.0767
  209MOL0     C28109   4.022   9.585   4.382 -0.6103 -0.1059 -0.1648
  209MOL0     O28110   4.140   9.553   4.311  0.4522  0.1823  0.1856
  209MOL0     C28111   4.256   9.525   4.388  0.6465 -0.2797  0.1159
  209MOL0     C28112   4.310   9.600   4.494  0.2394 -0.0433 -0.2611
  209MOL0     C28113   4.441   9.573   4.529  0.1602  0.5621 -0.4291
  209MOL0     C28114   4.503   9.459   4.467  0.2466 -0.1250  0.3680
  209MOL0     O28115   4.638   9.448   4.478 -0.1313 -0.3145 -0.1844
  209MOL0     C28116   4.706   9.494   4.597 -0.3166  0.5976  0.3524
  209MOL0     C28117   4.854   9.457   4.579 -0.5884 -0.5224 -0.6932
  209MOL0     C28118   4.920   9.538   4.460  0.6009  0.2254  0.2776
  209MOL0     C28119   4.977   9.675   4.495  0.2300  0.0821 -0.1298
  209MOL0     C28120   5.059   9.751   4.392  1.0667 -0.1997  0.7270
  209MOL0     C28121   4.986   9.788   4.263  0.6712 -0.1040  0.5254
  209MOL0     C28122   5.078   9.853   4.163 -0.1654 -0.2152  0.2535
  209MOL0     C28123   5.005   9.887   4.035  0.0520 -0.6188  0.3964
  209MOL0    Cl28124   5.109   9.953   3.922 -0.2592 -0.3459  0.1357
  209MOL0     C28125   4.442   9.382   4.373 -0.9491 -0.0857 -0.6520
  209MOL0     C28126   4.320   9.415   4.332  0.9958  0.8201 -0.0806
  209MOL0     O28127   4.014   9.590   4.503 -0.2319 -0.2704  0.2418
  209MOL0     C28128   3.805   9.678   4.340  0.5535  0.2853 -0.1957
  209MOL0     C28129   3.685   9.688   4.265 -1.5229  0.5369 -0.3899
  209MOL0     N28130   3.074   9.350   3.888 -0.1900 -0.3638  0.1441
  209MOL0     N28131   2.975   9.300   3.951 -0.5137 -0.6739 -0.1535
  209MOL0     C28132   1.820   9.620   3.618 -0.3702 -0.6167 -0.2861
  209MOL0     C28133   1.693   9.642   3.565 -0.1951 -0.5681 -0.0273
  209MOL0     C28134   1.336   9.764   3.328  0.6615  0.2297  0.2746
  209MOL0     C28135   1.250   9.873   3.322  0.0242  0.4078 -0.9968
  209MOL0     C28136   1.129   9.883   3.263 -0.6885 -0.0932 -0.0938
  209MOL0     C28137   1.076   9.773   3.198  0.4459 -0.2997 -0.1052
  209MOL0     O28138   0.956   9.780   3.137  0.4044  0.0299  0.8874
  209MOL0     C28139   0.908   9.662   3.057 -0.5991  0.0683 -0.4397
  209MOL0     C28140   0.759   9.692   3.019 -0.3855  0.4312 -0.1260
  209MOL0     C28141   0.659   9.677   3.139 -0.1901 -0.7295  0.0762
  209MOL0     C28142   0.515   9.732   3.109 -0.2768  0.1086  0.0778
  209MOL0     C28143   0.462   9.655   3.003  0.4806  0.5814  0.2774
  209MOL0     C28144   0.400   9.598   2.919 -0.2077  0.0599  0.4373
  209MOL0     C28145   1.153   9.654   3.202  0.0677  0.2192 -0.6211
  209MOL0     C28146   1.277   9.646   3.272 -0.1491  0.2558 -0.2109
  209MOL0     C28147   1.337   9.513   3.270 -0.0931  0.0018  0.0860
  209MOL0     H28148   1.776   9.712   3.245  2.5581  3.1842  0.0824
  209MOL0     H28149   1.999   9.664   3.338 -0.6433 -0.2430 -1.3557
  209MOL0     H28150   2.202   9.608   3.435  1.8359  0.7649 -0.0832
  209MOL0     H28151   2.129   9.752   3.474 -3.2922  0.0300  1.7633
  209MOL0     H28152   2.278   9.780   3.669  1.3805 -1.0254  1.4640
  209MOL0     H28153   2.356   9.711   3.530 -2.4985  1.6663 -2.0125
  209MOL0     H28154   2.384   9.502   3.606  2.2791  1.1434  0.6646
  209MOL0     H28155   2.260   9.517   3.728  2.3929 -0.5461  3.4664
  209MOL0     H28156   2.544   9.629   3.728  0.5119  1.7430 -0.3083
  209MOL0     H28157   2.435   9.657   3.854  2.2559  1.8051 -1.8172
  209MOL0     H28158   2.406   9.408   3.885 -1.2477  2.2620 -1.0117
  209MOL0     H28159   2.526   9.377   3.767 -1.9347 -1.5921  0.4380
  209MOL0     H28160   2.682   9.531   3.879 -0.9119 -1.4129 -2.0170
  209MOL0     H28161   2.573   9.531   4.021  2.6122  0.7444  0.7268
  209MOL0     H28162   2.710   9.281   3.911 -0.5929 -0.9895  1.1403
  209MOL0     H28163   2.591   9.301   4.045  1.0124 -2.5054 -0.2354
  209MOL0     H28164   2.755   9.449   4.151  0.8190  0.5494 -1.1731
  209MOL0     H28165   2.797   9.278   4.150  1.7701  0.8815  2.1665
  209MOL0     H28166   2.945   9.621   4.024  0.5997  0.1101 -0.5395
  209MOL0     H28167   3.188   9.563   3.731  1.8494 -0.2779  0.2623
  209MOL0     H28168   3.137   9.676   3.846 -0.1414 -0.0683 -0.2009
  209MOL0     H28169   3.329   9.443   3.921  3.3854  0.0718 -3.2365
  209MOL0     H28170   3.393   9.591   3.860  0.7969 -0.4361  0.2170
  209MOL0     H28171   3.275   9.541   4.133 -1.0762 -0.2221 -0.3687
  209MOL0     H28172   3.231   9.693   4.054 -0.1332 -0.1406  0.9800
  209MOL0     H28173   3.440   9.718   4.199 -2.0638  0.0364  0.0641
  209MOL0     H28174   3.468   9.755   4.022 -0.8671  0.0200 -0.5967
  209MOL0     H28175   3.744   9.441   4.049 -5.0755 -0.1170  0.8725
  209MOL0     H28176   3.967   9.437   4.159  0.3695 -0.1450  1.7014
  209MOL0     H28177   4.248   9.684   4.525  0.3353 -0.2446  0.4822
  209MOL0     H28178   4.489   9.644   4.596 -1.7729  0.9793  0.5812
  209MOL0     H28179   4.707   9.603   4.602 -1.3667  0.5644  1.8839
  209MOL0     H28180   4.656   9.463   4.689 -0.6472  0.8967  0.2786
  209MOL0     H28181   4.908   9.480   4.671 -2.1342 -1.0209  0.3874
  209MOL0     H28182   4.860   9.351   4.553 -0.8501 -0.2571 -1.8897
  209MOL0     H28183   5.004   9.484   4.415  0.8716 -0.5393  1.6358
  209MOL0     H28184   4.852   9.547   4.376  0.7558  0.3276  0.1631
  209MOL0     H28185   5.041   9.658   4.582  2.0944 -1.9203 -1.7817
  209MOL0     H28186   4.896   9.735   4.539  1.1950 -0.1443  2.1054
  209MOL0     H28187   5.142   9.688   4.359 -0.6842 -0.5989 -3.6267
  209MOL0     H28188   5.092   9.840   4.446  2.5081 -0.2574 -0.0027
  209MOL0     H28189   4.927   9.701   4.234 -2.5400  0.5778  4.1241
  209MOL0     H28190   4.916   9.869   4.290 -1.1453 -1.3775 -0.1746
  209MOL0     H28191   5.166   9.795   4.136  0.7619  1.1936  0.1561
  209MOL0     H28192   5.118   9.950   4.195  1.2465 -0.7994  0.2947
  209MOL0     H28193   4.953   9.803   3.988 -2.0409 -0.9638  3.1106
  209MOL0     H28194   4.925   9.955   4.066  0.2586  0.1899 -0.7595
  209MOL0     H28195   4.491   9.295   4.332 -0.6093 -0.0762 -0.2733
  209MOL0     H28196   4.263   9.358   4.259 -2.9733  0.0308  3.2402
  209MOL0     H28197   3.800   9.735   4.432 -4.1333  0.9525 -0.6103
  209MOL0     H28198   3.616   9.768   4.289  0.0005  2.2278 -1.4162
  209MOL0     H28199   1.833   9.592   3.722  0.8439  0.9516  0.0229
  209MOL0     H28200   1.603   9.638   3.626 -1.4868  1.1599 -1.7138
  209MOL0     H28201   1.292   9.966   3.359  2.7134 -0.9739 -0.2842
  209MOL0     H28202   1.070   9.974   3.271 -0.7651 -0.1378 -0.1393
  209MOL0     H28203   0.903   9.574   3.122 -0.1372  1.1914  1.1756
  209MOL0     H28204   0.967   9.631   2.970  0.1967 -1.1289  0.4895
  209MOL0     H28205   0.720   9.628   2.940  0.8537  0.0274 -0.4374
  209MOL0     H28206   0.754   9.790   2.970 -3.1377  0.4544  0.0761
  209MOL0     H28207   0.708   9.717   3.228 -1.3766 -1.7428  1.2358
  209MOL0     H28208   0.653   9.571   3.166  1.7158 -0.4637  1.7937
  209MOL0     H28209   0.455   9.734   3.200 -0.9915 -0.0938 -0.3855
  209MOL0     H28210   0.510   9.834   3.069 -0.1795  0.4538  0.9348
  209MOL0     H28211   0.349   9.564   2.831  0.9844  2.1511 -1.1555
  209MOL0     H28212   1.104   9.571   3.152  0.3095 -0.2353 -0.1069
  209MOL0     H28213   1.418   9.509   3.196 -2.1808 -1.9078 -2.2874
  209MOL0     H28214   1.377   9.495   3.370 -0.0334  1.8717  0.4345
  209MOL0     H28215   1.259   9.441   3.243  0.1875 -0.5819  0.8077
  210MOL0     O28216   7.724   3.955   2.555 -0.2673 -0.6383 -0.0426
  210MOL0     C28217   7.681   3.843   2.524  0.5036  0.3883 -0.4222
  210MOL0     O28218   7.755   3.728   2.512 -0.0056 -0.0431 -0.1909
  210MOL0     C28219   7.894   3.744   2.520 -0.2347  0.7174  0.0461
  210MOL0     C28220   7.975   3.737   2.406 -0.5334 -0.6263 -0.4454
  210MOL0     C28221   8.116   3.747   2.405 -0.3807 -0.5807 -0.5357
  210MOL0     C28222   8.175   3.756   2.531  0.3335 -0.3131  0.4793
  210MOL0     O28223   8.310   3.757   2.524 -0.2340  0.4390  0.8005
  210MOL0     C28224   8.381   3.717   2.637 -0.9145  0.7793 -0.6223
  210MOL0     C28225   8.532   3.684   2.604  0.9122  0.1718  0.0711
  210MOL0     C28226   8.597   3.791   2.518 -0.0915  0.3595  0.0606
  210MOL0     C28227   8.741   3.749   2.491 -0.4363 -0.7380 -0.0399
  210MOL0     C28228   8.838   3.792   2.602 -0.6204  0.1784  0.2474
  210MOL0     C28229   8.977   3.721   2.570 -0.0836 -0.2244 -0.3945
  210MOL0     C28230   8.990   3.569   2.570 -0.3779  0.6060  0.3481
  210MOL0     C28231   8.956   3.520   2.711  0.5690  0.3497  0.0711
  210MOL0     N28232   8.959   3.378   2.722  0.0174 -0.0206  0.3519
  210MOL0     C28233   9.058   3.319   2.798  0.4217  0.3362  0.1297
  210MOL0     C28234   9.039   3.185   2.785 -1.0974 -0.2235  0.3396
  210MOL0     C28235   9.138   3.095   2.851  0.9212 -0.0363  1.1596
  210MOL0     C28236   9.192   2.990   2.746  0.8487 -0.5587 -0.3887
  210MOL0     C28237   9.286   2.884   2.793  0.8376 -0.5083 -0.0641
  210MOL0     C28238   9.436   2.923   2.793  0.5406 -0.4499 -0.5087
  210MOL0     O28239   9.452   3.024   2.892  0.1739 -0.2364  0.3118
  210MOL0     C28240   9.583   3.083   2.897 -0.1393 -0.7649  0.0500
  210MOL0     C28241   9.694   3.031   2.829 -0.8809 -0.4924 -0.4069
  210MOL0     C28242   9.812   3.110   2.828  0.0900 -0.0949  0.4220
  210MOL0     C28243   9.825   3.232   2.899 -0.7357 -0.3178  0.5976
  210MOL0     C28244   9.955   3.298   2.919  0.1309  0.1277 -0.2637
  210MOL0     O28245  10.054   3.231   2.852  0.4201 -0.2780  0.1824
  210MOL0     C28246  10.184   3.276   2.857 -0.3214 -0.8209 -0.1503
  210MOL0     C28247  10.259   3.324   2.752  0.5474 -0.1860  0.9380
  210MOL0     C28248  10.389   3.368   2.766 -0.3440  0.4476 -0.6209
  210MOL0     C28249  10.450   3.368   2.894  0.7034  0.2356 -0.1639
  210MOL0     O28250  10.578   3.417   2.906  0.0740  0.3471  0.3458
  210MOL0     C28251  10.661   3.377   3.020  0.2907 -0.4945  0.1299
  210MOL0     C28252  10.802   3.428   3.002 -0.7836  0.1287  0.6389
  210MOL0     C28253  10.901   3.363   3.093  0.3629 -0.0129 -0.0903
  210MOL0     C28254  11.041   3.415   3.059  0.5899  0.0096 -0.2253
  210MOL0     C28255  11.140   3.338   3.135  0.0785  0.1157 -0.2929
  210MOL0     C28256  11.282   3.407   3.118  0.4059 -0.0344 -0.1480
  210MOL0     C28257  11.393   3.333   3.195  0.3396  0.5457  0.3915
  210MOL0     C28258  11.530   3.366   3.136 -0.1530 -0.5990  0.8732
  210MOL0    Cl28259  11.592   3.534   3.175  0.0013  0.2691 -0.7075
  210MOL0     C28260  10.367   3.327   3.004 -0.0355  0.1832  0.3361
  210MOL0     C28261  10.235   3.282   2.988  0.0395 -0.3828  0.2006
  210MOL0     O28262   9.965   3.401   2.978  0.1515 -0.6795 -0.2752
  210MOL0     C28263   9.706   3.283   2.965 -0.2840  0.1475 -0.1771
  210MOL0     C28264   9.587   3.214   2.952  1.0291 -1.1690 -1.0778
  210MOL0     N28265   8.922   3.170   2.716 -0.3063  0.1923  1.0020
  210MOL0     N28266   8.876   3.284   2.672 -0.3949  0.2544  0.1639
  210MOL0     C28267   8.099   3.744   2.647  0.5067  0.3205  0.1384
  210MOL0     C28268   7.957   3.752   2.641 -0.8786  0.6319 -0.7790
  210MOL0     C28269   7.533   3.838   2.527  0.5248 -0.1138 -0.3522
  210MOL0     C28270   7.466   3.916   2.613  0.1010  0.7882  0.0044
  210MOL0     C28271   7.326   3.899   2.637 -0.4533  0.0975  0.0641
  210MOL0     C28272   7.249   3.819   2.563 -0.0617 -0.0050 -0.1157
  210MOL0     O28273   7.115   3.794   2.590  0.0459  0.3187  0.9298
  210MOL0     C28274   7.057   3.839   2.708  0.0510 -0.3191 -0.3358
  210MOL0     C28275   6.922   3.775   2.741  0.5333 -0.7946  0.6236
  210MOL0     C28276   6.815   3.802   2.631 -0.3203  0.6961 -0.0384
  210MOL0     C28277   6.759   3.957   2.632 -0.4228  0.4107  0.3674
  210MOL0     C28278   6.618   3.949   2.565 -0.1868 -0.5648  0.2326
  210MOL0     C28279   6.502   3.946   2.520  0.1472  0.5868 -0.0740
  210MOL0     C28280   7.313   3.758   2.462 -0.7145  0.0336  0.3415
  210MOL0     C28281   7.453   3.760   2.436 -0.3286  0.5462  0.2682
  210MOL0     C28282   7.523   3.688   2.322 -0.0104 -0.0644  0.2020
  210MOL0     H28283   7.927   3.710   2.312 -0.1565 -2.6509 -0.1023
  210MOL0     H28284   8.168   3.736   2.310  2.6824  0.7045  0.8317
  210MOL0     H28285   8.391   3.788   2.720  1.2632 -2.7149  2.3902
  210MOL0     H28286   8.338   3.625   2.677 -0.3919  0.2453 -1.2736
  210MOL0     H28287   8.527   3.586   2.556 -0.7540 -0.7739  1.9989
  210MOL0     H28288   8.580   3.662   2.700 -1.3416 -1.5701  0.9209
  210MOL0     H28289   8.580   3.886   2.569  0.2497 -0.1402  1.1448
  210MOL0     H28290   8.549   3.777   2.421 -1.1804  0.1875  0.6092
  210MOL0     H28291   8.731   3.640   2.496 -1.9526 -0.6777 -1.0471
  210MOL0     H28292   8.771   3.785   2.392 -0.6669  2.0314  0.8094
  210MOL0     H28293   8.852   3.899   2.591  2.1988  0.1159  2.3590
  210MOL0     H28294   8.801   3.767   2.702  0.2915  1.9496  1.0578
  210MOL0     H28295   9.007   3.751   2.469  2.2699 -0.3928  0.2012
  210MOL0     H28296   9.048   3.771   2.636 -1.5541  3.2910 -1.2428
  210MOL0     H28297   9.092   3.534   2.556 -2.7171 -6.7325 -3.9198
  210MOL0     H28298   8.934   3.520   2.489  0.2582  1.1497 -0.4267
  210MOL0     H28299   9.025   3.565   2.783  1.2218 -3.4751  2.0869
  210MOL0     H28300   8.851   3.545   2.726  0.3275 -0.4528 -0.2616
  210MOL0     H28301   9.126   3.367   2.868 -1.1017 -3.2497  4.5376
  210MOL0     H28302   9.217   3.159   2.891  0.8836  1.5201 -1.0948
  210MOL0     H28303   9.090   3.038   2.931  0.9723 -0.3282  0.9853
  210MOL0     H28304   9.098   2.948   2.708 -0.2942  1.1583  0.4049
  210MOL0     H28305   9.237   3.040   2.659 -2.4092  0.8184 -1.4449
  210MOL0     H28306   9.282   2.802   2.721  1.2153 -1.6987  1.2190
  210MOL0     H28307   9.249   2.839   2.885 -0.2518 -1.2798 -0.8545
  210MOL0     H28308   9.468   2.957   2.694  1.3443 -0.2422 -0.1892
  210MOL0     H28309   9.502   2.842   2.825  0.6846 -0.3230 -0.4807
  210MOL0     H28310   9.700   2.935   2.779  0.1640  0.0437 -1.3715
  210MOL0     H28311   9.904   3.077   2.780  1.2370  2.5562  0.6239
  210MOL0     H28312  10.207   3.308   2.658 -0.1561 -1.7828  1.5581
  210MOL0     H28313  10.436   3.385   2.670 -2.4377 -4.6037 -2.8899
  210MOL0     H28314  10.616   3.420   3.110 -0.4140 -0.4205 -0.2512
  210MOL0     H28315  10.657   3.270   3.040  2.0648 -0.4958  0.6014
  210MOL0     H28316  10.838   3.391   2.905  0.8371 -0.9439  1.5901
  210MOL0     H28317  10.811   3.537   3.001 -0.4103  0.1147 -1.3475
  210MOL0     H28318  10.863   3.376   3.194 -0.5945 -2.5676 -0.0650
  210MOL0     H28319  10.904   3.257   3.066 -0.6021 -0.2825  0.7982
  210MOL0     H28320  11.038   3.520   3.091 -3.3266  1.5795 -4.5801
  210MOL0     H28321  11.063   3.421   2.952  0.9644  1.2800 -0.0945
  210MOL0     H28322  11.141   3.238   3.091 -0.3821 -0.3294  0.6804
  210MOL0     H28323  11.112   3.322   3.239  1.5543 -3.4915 -0.2964
  210MOL0     H28324  11.309   3.396   3.013  2.2919 -2.7245  0.5197
  210MOL0     H28325  11.274   3.507   3.161 -2.1257  0.1773 -0.9174
  210MOL0     H28326  11.376   3.226   3.191 -2.7622  0.8074  2.7853
  210MOL0     H28327  11.399   3.364   3.300 -0.6414  2.8798 -0.1786
  210MOL0     H28328  11.602   3.291   3.169  0.3591  0.5933  2.5516
  210MOL0     H28329  11.530   3.359   3.026  0.5332 -0.2616  0.8527
  210MOL0     H28330  10.412   3.323   3.103 -1.1317  1.1698  0.9059
  210MOL0     H28331  10.179   3.246   3.073 -0.8164  0.7521  0.1449
  210MOL0     H28332   9.712   3.375   3.022 -1.0537 -1.1995  2.1824
  210MOL0     H28333   9.490   3.259   2.968  1.2330 -0.5113 -1.6451
  210MOL0     H28334   8.137   3.765   2.747 -0.6069  3.4883  0.0130
  210MOL0     H28335   7.908   3.767   2.737  0.9221 -3.1572  0.9714
  210MOL0     H28336   7.524   3.981   2.678 -0.7860 -0.1076  1.7760
  210MOL0     H28337   7.296   3.942   2.732  1.9589 -0.7373  1.2847
  210MOL0     H28338   7.053   3.948   2.706  2.2482 -0.1862  0.1804
  210MOL0     H28339   7.115   3.816   2.798 -1.1934  1.1110  0.8880
  210MOL0     H28340   6.884   3.807   2.838  1.3960 -0.0825  0.7398
  210MOL0     H28341   6.943   3.668   2.751 -0.1009 -1.0574 -0.6247
  210MOL0     H28342   6.729   3.737   2.647  1.7106 -2.3352 -0.6422
  210MOL0     H28343   6.855   3.785   2.530  1.1362  2.3301  0.2226
  210MOL0     H28344   6.747   3.999   2.733  2.2220  1.7662  0.2040
  210MOL0     H28345   6.826   4.020   2.574 -0.7202  0.0139 -0.4179
  210MOL0     H28346   6.409   3.944   2.466  0.3943  2.5123 -0.6825
  210MOL0     H28347   7.250   3.695   2.400 -0.1510  0.5613 -0.7999
  210MOL0     H28348   7.573   3.762   2.259 -2.6703  1.6943 -0.0329
  210MOL0     H28349   7.586   3.606   2.357 -1.0606 -1.6347 -1.3840
  210MOL0     H28350   7.446   3.651   2.253  1.9172 -2.4549 -0.8048
  211MOL0     O28351   1.819   8.589   7.863 -0.9388  0.9435 -0.3678
  211MOL0     C28352   1.834   8.568   7.742  0.2596  0.4516 -0.5868
  211MOL0     O28353   1.959   8.560   7.683 -0.1447  0.2397 -0.5591
  211MOL0     C28354   2.078   8.583   7.757 -0.6021  0.2148  0.4419
  211MOL0     C28355   2.161   8.689   7.722  0.5719  1.0053  1.1469
  211MOL0     C28356   2.283   8.706   7.790  0.2402 -0.8306 -0.0038
  211MOL0     C28357   2.325   8.615   7.891 -0.2163 -0.9510  0.0624
  211MOL0     O28358   2.441   8.612   7.959  0.8315  0.2404  0.1079
  211MOL0     C28359   2.557   8.674   7.899  1.3301 -0.5077  0.5005
  211MOL0     C28360   2.596   8.798   7.964 -0.4344  0.0965  0.1558
  211MOL0     C28361   2.752   8.800   7.957 -1.0733  0.2880  0.3528
  211MOL0     C28362   2.799   8.918   8.041 -0.5052 -0.4550  0.9417
  211MOL0     C28363   2.951   8.920   8.073  0.9555  0.0854 -0.0918
  211MOL0     C28364   2.988   9.036   8.166 -0.5881 -0.2045 -0.2402
  211MOL0     C28365   3.142   9.028   8.191 -0.3225 -0.1017  0.4243
  211MOL0     C28366   3.197   9.158   8.245 -0.4636  0.4669  0.6043
  211MOL0     N28367   3.340   9.151   8.270  0.7923 -0.6195  0.8006
  211MOL0     C28368   3.400   9.090   8.370  0.1352  0.4384 -0.8729
  211MOL0     C28369   3.534   9.100   8.334 -0.0149  0.1204  0.4418
  211MOL0     C28370   3.645   9.024   8.407 -0.0515  0.5518  0.1359
  211MOL0     C28371   3.598   8.903   8.490  0.3592 -0.3403  0.0346
  211MOL0     C28372   3.532   8.790   8.414 -0.0383  0.0469 -0.4999
  211MOL0     C28373   3.490   8.671   8.505 -0.0472 -0.6916 -0.5304
  211MOL0     O28374   3.380   8.708   8.599  0.5906 -0.1459 -0.2394
  211MOL0     C28375   3.250   8.719   8.552 -0.4477 -0.4959 -0.1636
  211MOL0     C28376   3.148   8.761   8.639 -0.7654 -0.5733  0.4401
  211MOL0     C28377   3.013   8.760   8.610  0.1684  0.4706  0.4289
  211MOL0     C28378   2.979   8.732   8.480  1.2062 -0.0064  0.1032
  211MOL0     C28379   2.839   8.752   8.446 -0.0766  0.1414 -0.1081
  211MOL0     O28380   2.747   8.720   8.547 -0.1117  0.2283 -0.0578
  211MOL0     C28381   2.617   8.727   8.504  0.0813 -0.1920 -0.2706
  211MOL0     C28382   2.528   8.836   8.537 -0.2681  0.3495  0.7988
  211MOL0     C28383   2.401   8.854   8.477  0.6701  0.7654  0.7341
  211MOL0     C28384   2.361   8.766   8.376  0.1191  0.8727  0.1613
  211MOL0     O28385   2.232   8.777   8.317  0.1166 -0.3669 -0.2916
  211MOL0     C28386   2.203   8.706   8.203  0.9316  0.3936  0.4079
  211MOL0     C28387   2.052   8.733   8.174 -0.6107  0.2546 -0.1361
  211MOL0     C28388   2.016   8.880   8.166 -0.3542 -0.2148  0.6443
  211MOL0     C28389   1.875   8.901   8.118 -0.1792 -0.6553  0.1523
  211MOL0     C28390   1.810   9.034   8.131 -0.9275 -0.2767 -0.6303
  211MOL0     C28391   1.873   9.137   8.033 -0.7969 -0.4760 -0.4773
  211MOL0     C28392   1.846   9.112   7.892  0.9967  0.5177 -0.5102
  211MOL0     C28393   1.892   9.223   7.796 -0.1368 -0.4233  1.0232
  211MOL0    Cl28394   2.072   9.226   7.777 -0.2338  0.0475 -0.0382
  211MOL0     C28395   2.438   8.653   8.348 -1.1388 -0.3740 -0.5059
  211MOL0     C28396   2.566   8.646   8.411  0.2095  0.2409  0.2614
  211MOL0     O28397   2.818   8.795   8.330 -0.2112  0.2029  0.9472
  211MOL0     C28398   3.079   8.701   8.386  0.6234  0.1756 -0.3203
  211MOL0     C28399   3.208   8.685   8.423 -0.2028 -0.5907  0.4698
  211MOL0     N28400   3.551   9.179   8.215 -0.6324  0.0915  0.2382
  211MOL0     N28401   3.430   9.199   8.180  0.2616  0.3519  0.3769
  211MOL0     C28402   2.232   8.519   7.930 -0.5609  0.0098  0.4071
  211MOL0     C28403   2.112   8.502   7.868 -0.3303 -0.5529  0.1876
  211MOL0     C28404   1.713   8.533   7.655 -0.5186 -0.9642 -0.4762
  211MOL0     C28405   1.731   8.510   7.519 -0.0020  0.5443 -0.5183
  211MOL0     C28406   1.633   8.479   7.432 -0.2519 -0.2475  0.0005
  211MOL0     C28407   1.500   8.453   7.478 -0.0634 -0.1778  0.5803
  211MOL0     O28408   1.402   8.399   7.391 -0.1431 -0.0589  0.3956
  211MOL0     C28409   1.271   8.375   7.438  0.3215  0.8212 -0.3803
  211MOL0     C28410   1.184   8.345   7.311  0.0007  0.2687 -0.1909
  211MOL0     C28411   1.170   8.470   7.223 -0.3788  0.2003 -0.1689
  211MOL0     C28412   1.099   8.586   7.296  0.2248  0.2786  0.1328
  211MOL0     C28413   0.964   8.552   7.337  0.5035 -0.2323 -0.1906
  211MOL0     C28414   0.851   8.520   7.374 -0.5483  0.4136 -1.0418
  211MOL0     C28415   1.479   8.480   7.608  0.0280  0.2464 -0.0008
  211MOL0     C28416   1.582   8.510   7.699  0.7435  0.0895  0.0811
  211MOL0     C28417   1.549   8.495   7.845  0.4545 -0.2388 -0.1785
  211MOL0     H28418   2.133   8.751   7.638 -1.1920  0.0717  0.9894
  211MOL0     H28419   2.349   8.788   7.765 -0.2931  0.7887  3.4267
  211MOL0     H28420   2.639   8.602   7.900  1.7866 -0.0076  0.2473
  211MOL0     H28421   2.525   8.696   7.796 -2.1688  0.2623  1.6122
  211MOL0     H28422   2.557   8.809   8.066  0.5852  2.4352  0.3457
  211MOL0     H28423   2.561   8.883   7.906  0.1348 -0.2439 -0.7147
  211MOL0     H28424   2.786   8.811   7.854 -2.3654  1.0390 -0.0075
  211MOL0     H28425   2.790   8.705   7.997  0.5281  1.3333  1.4648
  211MOL0     H28426   2.773   9.008   7.985 -1.0142  0.0283  1.9469
  211MOL0     H28427   2.743   8.928   8.134  1.0688  2.6352  1.7008
  211MOL0     H28428   2.978   8.826   8.123  0.1396  0.7732  1.7185
  211MOL0     H28429   3.008   8.914   7.980  0.3036 -0.0769 -0.4869
  211MOL0     H28430   2.968   9.132   8.118  2.4331 -0.6536 -2.6913
  211MOL0     H28431   2.927   9.038   8.257  2.2140 -1.4601  1.8224
  211MOL0     H28432   3.203   9.011   8.102  2.1450  2.4882  1.4633
  211MOL0     H28433   3.181   8.970   8.276  2.0734  1.6696  0.6200
  211MOL0     H28434   3.189   9.242   8.176 -1.8413 -0.3000 -0.2168
  211MOL0     H28435   3.142   9.187   8.335  0.3102 -0.8053  1.5200
  211MOL0     H28436   3.361   9.030   8.451 -0.9175 -0.5235 -2.0435
  211MOL0     H28437   3.724   8.992   8.338  0.6923 -0.7874  1.5538
  211MOL0     H28438   3.692   9.090   8.481 -0.7332 -1.0736  2.1086
  211MOL0     H28439   3.681   8.859   8.545 -0.5480 -2.3990 -0.1285
  211MOL0     H28440   3.518   8.935   8.558 -0.5800 -0.6330 -0.8889
  211MOL0     H28441   3.611   8.752   8.348 -3.7697 -0.8172 -5.0081
  211MOL0     H28442   3.446   8.811   8.349 -1.1592  1.5395  1.3741
  211MOL0     H28443   3.579   8.651   8.566  0.0842  2.5739  0.5900
  211MOL0     H28444   3.461   8.588   8.441  2.9008 -0.5334 -2.2595
  211MOL0     H28445   3.178   8.782   8.742 -2.4637 -1.4389  1.1533
  211MOL0     H28446   2.937   8.796   8.678 -3.2844 -0.4742 -2.5767
  211MOL0     H28447   2.564   8.915   8.602  1.8242 -1.6710  2.2876
  211MOL0     H28448   2.341   8.943   8.492  1.5088  1.5007 -0.1238
  211MOL0     H28449   2.264   8.747   8.121  0.1795 -0.5385 -0.6499
  211MOL0     H28450   2.228   8.600   8.200  0.6452  0.3073  1.0195
  211MOL0     H28451   2.028   8.699   8.072 -2.0601 -0.3481  0.3624
  211MOL0     H28452   1.992   8.674   8.245 -3.9080  1.5231 -1.6444
  211MOL0     H28453   2.029   8.919   8.268 -0.8489 -1.4223  1.1903
  211MOL0     H28454   2.081   8.939   8.101 -0.1565 -0.1031  0.9391
  211MOL0     H28455   1.821   8.836   8.188  0.7268 -2.1467 -0.4876
  211MOL0     H28456   1.857   8.863   8.017 -1.0413  1.3856 -0.5149
  211MOL0     H28457   1.831   9.077   8.229  1.3915  1.2489 -1.6730
  211MOL0     H28458   1.703   9.029   8.110 -0.8233 -3.0495 -0.8529
  211MOL0     H28459   1.830   9.235   8.058  0.5726  0.5364 -1.9356
  211MOL0     H28460   1.981   9.151   8.043 -1.2264  1.9928  2.1812
  211MOL0     H28461   1.739   9.095   7.879  0.7932  0.4122  1.1629
  211MOL0     H28462   1.875   9.010   7.864 -1.4651 -0.7084  1.0898
  211MOL0     H28463   1.834   9.207   7.705  1.5275 -2.5948  0.2597
  211MOL0     H28464   1.875   9.322   7.841  1.0489  0.1450  0.2737
  211MOL0     H28465   2.432   8.587   8.262 -1.3024 -0.6197 -0.3061
  211MOL0     H28466   2.632   8.565   8.381 -0.7605  0.1970 -1.9035
  211MOL0     H28467   3.044   8.682   8.286 -0.1018 -0.7413  0.0959
  211MOL0     H28468   3.282   8.667   8.345 -0.6218  0.2743 -0.1426
  211MOL0     H28469   2.260   8.452   8.011  1.0262 -0.2777 -0.3340
  211MOL0     H28470   2.051   8.417   7.897 -1.8721 -0.6557 -2.9836
  211MOL0     H28471   1.828   8.514   7.472 -0.3271 -1.8881 -1.5512
  211MOL0     H28472   1.662   8.472   7.328  1.3325 -0.7906  0.4579
  211MOL0     H28473   1.235   8.463   7.492  0.3056 -0.8851  2.5429
  211MOL0     H28474   1.272   8.283   7.496  0.4231  1.6239  0.9169
  211MOL0     H28475   1.086   8.309   7.345 -1.1870  3.5438  0.2009
  211MOL0     H28476   1.225   8.263   7.251 -2.2338 -1.0995  0.0381
  211MOL0     H28477   1.104   8.438   7.141 -3.3060 -0.9922  2.4211
  211MOL0     H28478   1.268   8.498   7.186  1.6914 -4.8839  0.5539
  211MOL0     H28479   1.156   8.611   7.386 -1.4070  2.4311  0.6312
  211MOL0     H28480   1.094   8.674   7.231  2.0583  0.9638  0.8389
  211MOL0     H28481   0.754   8.507   7.418 -0.6979 -0.6610 -1.6551
  211MOL0     H28482   1.383   8.465   7.657  1.7721  0.6514  3.8517
  211MOL0     H28483   1.616   8.431   7.901 -0.8101 -0.5170  1.0753
  211MOL0     H28484   1.536   8.594   7.889 -0.2104 -0.1977 -0.4522
  211MOL0     H28485   1.457   8.438   7.861  0.8611 -1.1975 -1.1803
  212MOL0     O28486   0.239   1.655   2.346 -0.3746 -0.2270 -0.7739
  212MOL0     C28487   0.272   1.577   2.432 -0.1297  0.5731 -0.1567
  212MOL0     O28488   0.370   1.609   2.527 -0.0708 -0.1074 -0.2419
  212MOL0     C28489   0.447   1.723   2.504  0.6630  0.7152 -0.0108
  212MOL0     C28490   0.573   1.705   2.449 -0.4967 -0.4256 -0.2750
  212MOL0     C28491   0.655   1.810   2.421 -0.9137  0.3498 -0.3328
  212MOL0     C28492   0.598   1.938   2.430  0.2876  0.4379  0.9269
  212MOL0     O28493   0.685   2.031   2.383  0.0494 -0.3108  0.0343
  212MOL0     C28494   0.641   2.164   2.372  0.2033 -0.0561  0.2394
  212MOL0     C28495   0.751   2.234   2.297  0.4965  0.2873  0.3155
  212MOL0     C28496   0.780   2.187   2.149  0.3362 -0.0333  0.5770
  212MOL0     C28497   0.869   2.292   2.091  0.4691 -0.7611 -0.2218
  212MOL0     C28498   0.965   2.256   1.976 -0.6312  0.1670 -0.3294
  212MOL0     C28499   1.048   2.371   1.917  0.2037 -0.4043 -0.2184
  212MOL0     C28500   1.179   2.421   2.001  0.1083  0.2514  0.3588
  212MOL0     C28501   1.314   2.331   1.994  0.2945  0.1727  0.0560
  212MOL0     N28502   1.424   2.394   2.061  0.0845  0.3776 -0.6685
  212MOL0     C28503   1.434   2.406   2.203 -1.1623  0.4831  0.2889
  212MOL0     C28504   1.555   2.479   2.217  0.3740 -0.4955  0.1816
  212MOL0     C28505   1.590   2.521   2.356  0.3296 -0.2602 -0.3527
  212MOL0     C28506   1.652   2.402   2.437  0.5843  0.1339  0.3361
  212MOL0     C28507   1.795   2.372   2.408 -0.1551  0.1062 -0.6369
  212MOL0     C28508   1.898   2.454   2.483 -0.2931  0.6809 -0.1542
  212MOL0     O28509   2.018   2.402   2.423 -0.1155  0.1470 -0.5995
  212MOL0     C28510   2.133   2.412   2.492 -0.2169 -0.1042 -0.5460
  212MOL0     C28511   2.156   2.498   2.600  0.2026 -0.2391  0.3033
  212MOL0     C28512   2.286   2.503   2.660  0.2393  0.8077 -0.8730
  212MOL0     C28513   2.396   2.432   2.605  0.0472  0.6805 -0.6515
  212MOL0     C28514   2.526   2.434   2.668 -0.6233 -0.6970 -0.3616
  212MOL0     O28515   2.618   2.328   2.644  0.0854  0.2563  0.5589
  212MOL0     C28516   2.736   2.303   2.710  0.0626  0.2131 -0.0338
  212MOL0     C28517   2.797   2.388   2.798  0.4018  0.0473 -0.0764
  212MOL0     C28518   2.923   2.359   2.845 -0.4146 -0.7493 -0.4673
  212MOL0     C28519   3.006   2.256   2.791 -0.1521  0.0686  0.5580
  212MOL0     O28520   3.130   2.255   2.830 -0.1418 -0.2162 -0.2122
  212MOL0     C28521   3.228   2.177   2.758 -0.2675 -0.6704 -0.1635
  212MOL0     C28522   3.365   2.247   2.780  0.0440 -0.5579  0.2585
  212MOL0     C28523   3.484   2.188   2.718  0.2925  0.4479 -0.3816
  212MOL0     C28524   3.522   2.063   2.796 -0.2207  0.0679  0.4996
  212MOL0     C28525   3.609   1.979   2.705  0.4694  1.0168 -0.5269
  212MOL0     C28526   3.659   1.852   2.779 -0.1182  0.2021  0.4023
  212MOL0     C28527   3.774   1.787   2.703  0.1971  1.0412  0.1213
  212MOL0     C28528   3.905   1.870   2.724  0.6755  0.2630 -0.2249
  212MOL0    Cl28529   4.035   1.786   2.647 -0.2648 -0.4415 -0.3050
  212MOL0     C28530   2.945   2.171   2.698  0.6547  0.1535  0.5201
  212MOL0     C28531   2.813   2.192   2.668  0.7109 -0.1316 -0.4045
  212MOL0     O28532   2.541   2.531   2.743 -0.8341  0.0151  0.1394
  212MOL0     C28533   2.370   2.342   2.497  0.1866  0.4856 -0.6571
  212MOL0     C28534   2.239   2.343   2.445 -0.6567  0.5044 -0.2078
  212MOL0     N28535   1.598   2.518   2.093 -0.4220 -0.1425  0.3822
  212MOL0     N28536   1.523   2.467   2.003 -0.3876 -0.1480  0.1227
  212MOL0     C28537   0.476   1.957   2.476  0.3757  0.5227  0.3159
  212MOL0     C28538   0.391   1.853   2.516 -0.8225  0.2845 -0.8948
  212MOL0     C28539   0.189   1.443   2.451  0.2314 -0.1917 -0.0574
  212MOL0     C28540   0.181   1.386   2.581 -0.4510 -0.1264  0.4403
  212MOL0     C28541   0.110   1.264   2.599 -0.7608  0.0447 -0.5213
  212MOL0     C28542   0.043   1.209   2.490 -0.5517 -0.2451 -0.5901
  212MOL0     O28543  -0.039   1.101   2.501 -0.0330  0.3202 -1.2701
  212MOL0     C28544  -0.079   1.044   2.624 -0.2371  0.2842  0.8454
  212MOL0     C28545  -0.222   0.996   2.591 -0.0740  0.4888 -0.5087
  212MOL0     C28546  -0.287   0.924   2.704  1.1154 -0.1610 -0.2787
  212MOL0     C28547  -0.412   0.845   2.661 -0.1181 -0.4267 -0.7594
  212MOL0     C28548  -0.484   0.786   2.775 -0.0775 -1.0418 -0.2844
  212MOL0     C28549  -0.548   0.732   2.864  0.4719 -0.3137 -0.1221
  212MOL0     C28550   0.044   1.268   2.371  0.3915 -0.2578  0.1093
  212MOL0     C28551   0.114   1.392   2.346 -0.5026  0.5095  0.2778
  212MOL0     C28552   0.110   1.444   2.208 -0.0883 -0.8151  0.7294
  212MOL0     H28553   0.609   1.604   2.433  1.4282  0.7019 -4.6299
  212MOL0     H28554   0.752   1.802   2.374 -0.4312  1.3228  0.4728
  212MOL0     H28555   0.544   2.175   2.322  0.5895 -2.3472 -1.1617
  212MOL0     H28556   0.637   2.211   2.471  2.7254  0.6347  0.0651
  212MOL0     H28557   0.839   2.227   2.362 -0.0205  1.1726  1.1368
  212MOL0     H28558   0.712   2.337   2.296 -0.5680 -0.0678 -1.9987
  212MOL0     H28559   0.689   2.199   2.090  1.9027 -0.5861 -2.1438
  212MOL0     H28560   0.828   2.089   2.151 -0.6482 -0.5199  2.6399
  212MOL0     H28561   0.805   2.375   2.062  1.8814  0.2731 -0.5180
  212MOL0     H28562   0.939   2.331   2.165 -1.2798  2.6886 -0.1874
  212MOL0     H28563   1.039   2.184   2.014 -1.1217 -1.0083 -1.5039
  212MOL0     H28564   0.910   2.206   1.896  0.9030 -2.9985  0.4076
  212MOL0     H28565   1.090   2.336   1.822  0.5008 -3.2041  0.8552
  212MOL0     H28566   0.985   2.459   1.903  0.5702 -0.0607  0.2839
  212MOL0     H28567   1.162   2.442   2.107  0.3062 -0.2248  0.4903
  212MOL0     H28568   1.205   2.515   1.953  0.6176 -0.3842 -0.6574
  212MOL0     H28569   1.288   2.240   2.049 -2.2038  0.2912 -0.7708
  212MOL0     H28570   1.338   2.304   1.891  1.6482 -1.0512  0.6667
  212MOL0     H28571   1.365   2.372   2.280 -0.3080 -1.3301  0.2884
  212MOL0     H28572   1.661   2.604   2.350  2.1981 -1.7461  0.4020
  212MOL0     H28573   1.500   2.551   2.411  0.5435  0.8629 -0.5793
  212MOL0     H28574   1.657   2.419   2.545  0.5767  0.1004  0.3416
  212MOL0     H28575   1.593   2.311   2.427  1.1758 -0.4046  1.5237
  212MOL0     H28576   1.810   2.371   2.299 -2.8406 -2.6265 -1.1102
  212MOL0     H28577   1.811   2.266   2.430 -1.2834 -0.0957 -0.7352
  212MOL0     H28578   1.888   2.442   2.591  2.8625 -0.0208  0.1428
  212MOL0     H28579   1.893   2.559   2.452  0.6174  0.0434 -2.7414
  212MOL0     H28580   2.081   2.565   2.639  0.7490  0.3420  0.3796
  212MOL0     H28581   2.302   2.559   2.751  0.7235  1.1032 -1.1395
  212MOL0     H28582   2.736   2.463   2.847 -0.7262 -0.8488 -0.0583
  212MOL0     H28583   2.970   2.426   2.917  0.6909 -2.0999  0.1173
  212MOL0     H28584   3.231   2.074   2.796 -0.0370 -0.5264  0.2116
  212MOL0     H28585   3.219   2.166   2.649  0.3495 -4.3587  0.0377
  212MOL0     H28586   3.357   2.349   2.742  2.7390 -1.2077 -2.4309
  212MOL0     H28587   3.382   2.253   2.888 -1.6757  1.3922  0.4749
  212MOL0     H28588   3.446   2.165   2.618 -1.6134 -1.0792  0.6286
  212MOL0     H28589   3.568   2.258   2.722  2.0228 -1.5744  2.0335
  212MOL0     H28590   3.445   1.998   2.838  1.1041 -0.9103  1.5202
  212MOL0     H28591   3.581   2.099   2.881 -2.3259  1.0089  1.6288
  212MOL0     H28592   3.695   2.039   2.674  3.4078 -0.9398  3.0754
  212MOL0     H28593   3.544   1.949   2.622  0.2503  2.4528 -0.9017
  212MOL0     H28594   3.693   1.886   2.877 -0.3843  2.3068 -0.1765
  212MOL0     H28595   3.583   1.777   2.802  2.7691 -2.8469  0.6739
  212MOL0     H28596   3.749   1.761   2.600 -0.9701  1.1161  0.3654
  212MOL0     H28597   3.774   1.693   2.760 -1.7932  0.5111 -0.6733
  212MOL0     H28598   3.893   1.964   2.669 -2.6774 -0.0635 -0.2380
  212MOL0     H28599   3.921   1.895   2.829 -3.2514 -2.1569  1.1777
  212MOL0     H28600   2.992   2.081   2.660 -2.4436 -1.3289 -0.1449
  212MOL0     H28601   2.761   2.133   2.593  0.3390  1.4624 -1.4319
  212MOL0     H28602   2.443   2.270   2.460 -2.1644 -1.9983 -0.7619
  212MOL0     H28603   2.217   2.282   2.358 -0.4261 -1.9341  1.3481
  212MOL0     H28604   0.433   2.056   2.486  1.8331  1.3420 -1.0663
  212MOL0     H28605   0.288   1.861   2.549 -0.4432  0.5765  0.2699
  212MOL0     H28606   0.230   1.446   2.656  1.7775  0.0696 -1.0700
  212MOL0     H28607   0.111   1.209   2.692  1.7374  1.7037  0.5346
  212MOL0     H28608  -0.088   1.115   2.706  1.2578 -0.0708  1.3546
  212MOL0     H28609  -0.016   0.965   2.667 -2.4302 -0.6848  2.5051
  212MOL0     H28610  -0.219   0.932   2.503 -0.8929  1.0947 -0.9951
  212MOL0     H28611  -0.291   1.078   2.571 -2.2392 -1.0379  0.2520
  212MOL0     H28612  -0.318   0.999   2.778 -0.7371 -0.6101 -0.5543
  212MOL0     H28613  -0.221   0.849   2.749  1.8849  1.8010  2.1341
  212MOL0     H28614  -0.473   0.918   2.606  1.1383  0.4175 -1.0632
  212MOL0     H28615  -0.373   0.776   2.586  0.6260  0.0118 -0.7788
  212MOL0     H28616  -0.598   0.685   2.946 -2.3919  1.7605 -0.5108
  212MOL0     H28617  -0.017   1.222   2.293  1.6151 -3.1788  0.7329
  212MOL0     H28618   0.031   1.518   2.195  2.3279  1.6904 -1.0449
  212MOL0     H28619   0.204   1.487   2.172 -0.7660 -0.0951 -0.2452
  212MOL0     H28620   0.086   1.367   2.135  0.8028 -0.1021 -0.3687
  213MOL0     O28621   6.036   3.273   4.465 -0.1357 -0.5042 -0.5927
  213MOL0     C28622   5.940   3.235   4.525  0.1707  0.2391 -0.8389
  213MOL0     O28623   5.927   3.105   4.586 -1.0644 -0.1252  0.7453
  213MOL0     C28624   6.029   3.016   4.554 -0.3188 -0.8524  0.4943
  213MOL0     C28625   5.997   2.917   4.470  0.0018  0.1969 -0.2137
  213MOL0     C28626   6.071   2.799   4.451 -0.0762 -0.2169  0.0177
  213MOL0     C28627   6.193   2.793   4.518  0.2931  0.8616  0.3799
  213MOL0     O28628   6.262   2.683   4.485 -0.3933  0.6109  0.1835
  213MOL0     C28629   6.388   2.661   4.546 -0.1758 -0.5509  0.4628
  213MOL0     C28630   6.439   2.526   4.492 -0.0878 -0.1078  0.7121
  213MOL0     C28631   6.580   2.477   4.557 -0.5761  0.5558  0.8290
  213MOL0     C28632   6.704   2.570   4.510  0.9311  0.7011  0.2141
  213MOL0     C28633   6.749   2.531   4.368 -0.2687 -0.7243  1.0397
  213MOL0     C28634   6.829   2.397   4.374  0.1187  0.1378 -0.3514
  213MOL0     C28635   6.972   2.407   4.329 -0.5843 -0.3184 -0.1917
  213MOL0     C28636   7.053   2.280   4.329  0.5383  0.1854 -0.3382
  213MOL0     N28637   7.202   2.290   4.323  0.2649 -0.4476 -0.1179
  213MOL0     C28638   7.276   2.360   4.229 -0.2286  0.2488  0.5761
  213MOL0     C28639   7.406   2.337   4.263 -0.0769 -0.6693 -0.6019
  213MOL0     C28640   7.521   2.393   4.191 -0.7770  0.9431 -0.9180
  213MOL0     C28641   7.622   2.275   4.168 -0.3077  0.1673 -0.8804
  213MOL0     C28642   7.742   2.332   4.087 -0.5691 -0.6435  0.1051
  213MOL0     C28643   7.851   2.231   4.076  0.0588  0.9001  0.6271
  213MOL0     O28644   7.956   2.293   4.000 -0.6632 -0.3523 -0.5275
  213MOL0     C28645   8.084   2.306   4.045  0.6891 -0.1022 -0.0885
  213MOL0     C28646   8.169   2.197   4.059  0.5632 -0.0091 -0.6039
  213MOL0     C28647   8.301   2.210   4.112  0.7387 -0.0368 -0.1840
  213MOL0     C28648   8.351   2.337   4.144 -0.2649  0.3363  1.0725
  213MOL0     C28649   8.487   2.353   4.197  0.0773 -0.3908  0.6880
  213MOL0     O28650   8.530   2.268   4.292  0.1087 -0.1774 -0.1424
  213MOL0     C28651   8.634   2.308   4.374  0.5881  0.2545 -0.1986
  213MOL0     C28652   8.696   2.199   4.434  0.3502 -0.7135 -0.0121
  213MOL0     C28653   8.796   2.221   4.526 -0.4587 -0.1773  0.0887
  213MOL0     C28654   8.834   2.355   4.566 -0.3505 -0.0208  0.1381
  213MOL0     O28655   8.933   2.384   4.652  0.4706  0.1632 -0.3664
  213MOL0     C28656   8.953   2.300   4.766 -0.4238 -0.6834  0.6946
  213MOL0     C28657   9.029   2.373   4.875  0.4748 -0.5912  0.8846
  213MOL0     C28658   8.953   2.506   4.908  0.4442 -0.8925 -0.4998
  213MOL0     C28659   9.007   2.553   5.042 -0.6098 -0.2903 -0.5125
  213MOL0     C28660   8.948   2.687   5.079  0.0427  0.4581  0.5452
  213MOL0     C28661   9.010   2.732   5.206  0.0672 -0.8811  0.1344
  213MOL0     C28662   8.936   2.859   5.246  0.1128 -0.6198  0.3684
  213MOL0     C28663   8.987   2.925   5.374 -0.3491  0.3506 -0.3714
  213MOL0    Cl28664   9.163   2.954   5.356  0.1879  0.2888  0.1758
  213MOL0     C28665   8.768   2.465   4.516 -0.2620 -0.3026 -0.3529
  213MOL0     C28666   8.666   2.440   4.424 -0.0778  0.1128  0.1083
  213MOL0     O28667   8.545   2.457   4.155  0.1360  0.2366  0.0464
  213MOL0     C28668   8.270   2.447   4.121 -0.8412  0.0421 -0.2918
  213MOL0     C28669   8.142   2.428   4.075  0.0026 -0.7261  0.7752
  213MOL0     N28670   7.406   2.262   4.374 -1.3438 -0.3904 -0.6902
  213MOL0     N28671   7.287   2.234   4.411 -0.6798  0.6311  0.1058
  213MOL0     C28672   6.238   2.902   4.590  0.0110  0.0120 -0.6441
  213MOL0     C28673   6.154   3.008   4.618 -0.0682  0.7521  0.2261
  213MOL0     C28674   5.822   3.307   4.552 -0.0537  0.3744 -1.0325
  213MOL0     C28675   5.707   3.278   4.473  0.5086 -0.2113  0.1262
  213MOL0     C28676   5.588   3.355   4.482 -0.5454  0.1907  0.3037
  213MOL0     C28677   5.586   3.458   4.575  0.4182 -0.5158 -0.0800
  213MOL0     O28678   5.474   3.533   4.593  0.1260 -0.0650  0.0587
  213MOL0     C28679   5.350   3.496   4.534  0.7534 -0.7002  0.0106
  213MOL0     C28680   5.252   3.615   4.564  0.4721  0.0595  0.7072
  213MOL0     C28681   5.265   3.704   4.442 -0.1832  0.7578  0.3769
  213MOL0     C28682   5.185   3.832   4.447  0.8905 -0.3521 -0.1877
  213MOL0     C28683   5.038   3.811   4.449 -0.2192 -0.2567 -0.1128
  213MOL0     C28684   4.924   3.771   4.448 -0.0787 -0.3240  0.7409
  213MOL0     C28685   5.689   3.491   4.655 -0.4546  0.0936 -0.1575
  213MOL0     C28686   5.810   3.410   4.651  0.3580 -0.0133  0.8317
  213MOL0     C28687   5.927   3.433   4.741  0.3942  0.0823  0.6550
  213MOL0     H28688   5.896   2.926   4.431  0.6098 -0.6310 -2.0874
  213MOL0     H28689   6.023   2.717   4.398 -2.3109 -0.2825  1.9807
  213MOL0     H28690   6.458   2.742   4.526  1.6974 -2.3336 -0.5083
  213MOL0     H28691   6.387   2.655   4.655  1.6016 -4.6874  0.4351
  213MOL0     H28692   6.447   2.529   4.383 -1.4707 -0.6877  0.5743
  213MOL0     H28693   6.365   2.451   4.519 -2.3554  1.4723 -0.7027
  213MOL0     H28694   6.601   2.375   4.525 -2.0558  0.5334 -0.1609
  213MOL0     H28695   6.578   2.471   4.667  3.4883 -1.5856  0.9674
  213MOL0     H28696   6.681   2.677   4.513 -0.7848  0.5076 -2.4473
  213MOL0     H28697   6.789   2.553   4.578  2.0796  0.0140 -1.3090
  213MOL0     H28698   6.664   2.515   4.301  0.3039  1.9823 -0.4842
  213MOL0     H28699   6.786   2.616   4.310 -1.9963  0.3317  1.3908
  213MOL0     H28700   6.816   2.359   4.475 -1.7102 -2.2596 -1.3658
  213MOL0     H28701   6.783   2.317   4.314  0.4221  0.2817 -0.7809
  213MOL0     H28702   7.011   2.469   4.410 -0.7852 -1.5372  0.8767
  213MOL0     H28703   6.988   2.463   4.236 -0.4557 -0.6332 -0.3618
  213MOL0     H28704   7.026   2.200   4.399 -0.1865 -1.2229 -2.1239
  213MOL0     H28705   7.031   2.239   4.230  0.2270 -0.9315  0.1759
  213MOL0     H28706   7.230   2.419   4.150 -0.5902 -0.4755  0.2389
  213MOL0     H28707   7.489   2.447   4.101 -1.2641  0.4073 -1.0740
  213MOL0     H28708   7.568   2.466   4.257 -1.9053  3.3226 -2.6056
  213MOL0     H28709   7.659   2.236   4.263 -1.2518  0.3477 -0.4351
  213MOL0     H28710   7.573   2.192   4.117 -1.9271  0.3323  0.3539
  213MOL0     H28711   7.767   2.430   4.129 -2.8625 -0.5754  1.4745
  213MOL0     H28712   7.709   2.350   3.984 -0.1543  1.6391  0.3219
  213MOL0     H28713   7.812   2.147   4.019 -1.2514  0.3402  2.2740
  213MOL0     H28714   7.892   2.208   4.175 -0.0947  0.3152  0.5577
  213MOL0     H28715   8.126   2.099   4.038  1.4860 -0.3537 -0.9491
  213MOL0     H28716   8.362   2.122   4.128 -2.8803 -2.5338  1.3661
  213MOL0     H28717   8.663   2.095   4.428  0.5277 -1.1065  3.6415
  213MOL0     H28718   8.842   2.138   4.578  0.9835  0.6852  0.2613
  213MOL0     H28719   8.862   2.266   4.818 -0.2992 -0.4365  1.0737
  213MOL0     H28720   9.023   2.222   4.737  3.7375  3.1725 -0.7229
  213MOL0     H28721   9.035   2.308   4.962  0.7363  0.4292  1.6396
  213MOL0     H28722   9.128   2.411   4.848  0.2313  1.8087  3.0171
  213MOL0     H28723   8.972   2.573   4.824  1.3270 -0.2420  0.1920
  213MOL0     H28724   8.845   2.492   4.913 -0.0546  2.3566  0.7815
  213MOL0     H28725   9.115   2.550   5.052 -0.3543  1.6247 -2.0335
  213MOL0     H28726   8.969   2.493   5.125 -1.1702  1.7476  0.7806
  213MOL0     H28727   8.840   2.677   5.097 -0.3107 -0.4013 -1.6588
  213MOL0     H28728   8.964   2.754   4.994  1.7346  0.3575  0.7486
  213MOL0     H28729   8.998   2.650   5.277 -2.3225 -0.3773  0.3913
  213MOL0     H28730   9.114   2.757   5.185 -0.7114  2.0401 -0.7676
  213MOL0     H28731   8.831   2.832   5.260 -0.9667  2.0266 -1.6752
  213MOL0     H28732   8.951   2.926   5.160  1.2115  0.6549  1.5156
  213MOL0     H28733   8.938   3.021   5.395  1.1058  0.7401  1.4893
  213MOL0     H28734   8.989   2.853   5.457  2.0355 -0.3654 -0.9876
  213MOL0     H28735   8.783   2.568   4.546  1.2484 -0.6056 -0.0271
  213MOL0     H28736   8.612   2.526   4.387  1.4324  0.3896 -1.5923
  213MOL0     H28737   8.317   2.542   4.143  3.0258 -1.1211 -2.4991
  213MOL0     H28738   8.083   2.516   4.053 -1.3551 -2.0782 -1.4409
  213MOL0     H28739   6.334   2.917   4.640  0.4799 -1.0562 -1.1963
  213MOL0     H28740   6.182   3.092   4.682 -0.9463  1.6187 -0.4948
  213MOL0     H28741   5.723   3.203   4.397 -0.3694 -1.0017  0.7083
  213MOL0     H28742   5.501   3.338   4.419 -1.6261  4.3026  0.3904
  213MOL0     H28743   5.311   3.404   4.579  0.7935  0.5154  2.7905
  213MOL0     H28744   5.351   3.485   4.426  0.8343 -2.4508  0.1628
  213MOL0     H28745   5.271   3.677   4.652 -1.3665  0.7164  0.6789
  213MOL0     H28746   5.151   3.575   4.572  0.2493  0.1509 -1.1378
  213MOL0     H28747   5.235   3.650   4.352  2.2907 -4.0812  2.0595
  213MOL0     H28748   5.371   3.726   4.428 -0.4784  1.4060 -0.9750
  213MOL0     H28749   5.203   3.881   4.544  0.0753  4.2672 -2.0852
  213MOL0     H28750   5.200   3.903   4.365 -4.3427 -1.7667 -2.7573
  213MOL0     H28751   4.822   3.738   4.462  0.1229 -0.8670  0.9600
  213MOL0     H28752   5.679   3.583   4.711 -3.3545  2.2219 -3.7259
  213MOL0     H28753   5.936   3.352   4.813  3.3742  0.3230  0.6995
  213MOL0     H28754   6.026   3.450   4.697  1.3634 -0.4437  2.5240
  213MOL0     H28755   5.917   3.529   4.794  0.7271  0.9782 -0.8392
  214MOL0     O28756   0.668  10.096  10.608  0.2230 -0.1192 -0.4983
  214MOL0     C28757   0.582  10.135  10.687  0.5299 -0.1494 -0.5218
  214MOL0     O28758   0.590  10.245  10.755  0.2553  0.0866  0.4183
  214MOL0     C28759   0.707  10.315  10.768 -0.3958 -0.6893 -0.6862
  214MOL0     C28760   0.685  10.450  10.796  0.4908 -0.7264 -0.1056
  214MOL0     C28761   0.793  10.538  10.817  0.3091  0.0872 -0.2332
  214MOL0     C28762   0.922  10.489  10.822 -0.3219 -0.0730  0.2350
  214MOL0     O28763   1.009  10.585  10.866  0.1797  0.3610  0.6484
  214MOL0     C28764   1.147  10.553  10.840 -0.6065  0.3671  0.3226
  214MOL0     C28765   1.219  10.681  10.880 -0.4411  0.3741  0.8411
  214MOL0     C28766   1.261  10.685  11.030 -0.0498 -0.1064  0.1075
  214MOL0     C28767   1.346  10.800  11.056  0.7867  0.6258  0.4463
  214MOL0     C28768   1.361  10.823  11.209  0.7392 -0.2837 -0.8509
  214MOL0     C28769   1.427  10.965  11.242 -0.8030  0.5270 -0.2411
  214MOL0     C28770   1.580  10.957  11.237 -0.1958 -0.3354  0.1311
  214MOL0     C28771   1.645  10.877  11.352 -0.7621  0.2490 -1.0317
  214MOL0     N28772   1.789  10.865  11.329 -1.3153 -0.0181 -0.3597
  214MOL0     C28773   1.855  10.784  11.419 -0.0684 -0.5088 -0.3150
  214MOL0     C28774   1.981  10.786  11.376 -0.0390 -0.5629 -0.2963
  214MOL0     C28775   2.079  10.691  11.433 -0.9412  0.2359 -0.3815
  214MOL0     C28776   2.205  10.779  11.457  0.0237  0.1429  0.1745
  214MOL0     C28777   2.187  10.878  11.575  0.1565 -1.2500 -0.8723
  214MOL0     C28778   2.311  10.970  11.613 -0.1404  0.0167 -0.4995
  214MOL0     O28779   2.408  10.891  11.684 -0.4460 -0.1157 -0.4969
  214MOL0     C28780   2.493  10.941  11.779  0.0267 -0.0717 -0.7448
  214MOL0     C28781   2.543  11.072  11.773  0.6383  0.3111  0.7865
  214MOL0     C28782   2.632  11.114  11.869 -0.1276 -0.6384  0.4803
  214MOL0     C28783   2.691  11.020  11.961  0.2023 -1.0536 -0.3619
  214MOL0     C28784   2.805  11.049  12.045 -0.5010 -0.2368  0.1078
  214MOL0     O28785   2.918  11.109  11.990  0.4672 -0.1258  0.2083
  214MOL0     C28786   3.021  11.160  12.072  0.0344 -0.0107  0.2272
  214MOL0     C28787   3.148  11.109  12.048  0.4729 -0.0915  0.2034
  214MOL0     C28788   3.259  11.137  12.130  0.2178  0.4904 -0.0656
  214MOL0     C28789   3.244  11.208  12.250  0.0525  0.7336  0.5643
  214MOL0     O28790   3.357  11.214  12.334 -0.3574 -0.7312 -0.6019
  214MOL0     C28791   3.352  11.296  12.450  0.0312  0.6297 -0.3009
  214MOL0     C28792   3.476  11.256  12.530 -0.1517 -0.1945 -0.1724
  214MOL0     C28793   3.494  11.364  12.638 -0.5561 -0.0560 -0.0661
  214MOL0     C28794   3.630  11.430  12.612 -0.1572  0.3797  0.3740
  214MOL0     C28795   3.657  11.528  12.725  0.2267 -0.2494  0.3833
  214MOL0     C28796   3.780  11.608  12.694  0.6751  0.4339 -0.6533
  214MOL0     C28797   3.841  11.650  12.824  0.2771 -0.6914 -0.3085
  214MOL0     C28798   3.934  11.769  12.810 -0.4055 -0.0305  0.2521
  214MOL0    Cl28799   4.041  11.752  12.667  0.2172 -0.1541 -0.1325
  214MOL0     C28800   3.120  11.262  12.276  0.0630  0.2639  1.0132
  214MOL0     C28801   3.015  11.240  12.188  0.0598 -1.0758  0.4118
  214MOL0     O28802   2.798  10.993  12.155 -0.3791  0.3041  0.1247
  214MOL0     C28803   2.636  10.892  11.966 -0.7894 -0.1439 -0.7057
  214MOL0     C28804   2.537  10.856  11.880  0.4215 -0.1752 -0.7235
  214MOL0     N28805   1.996  10.878  11.274 -0.2861 -0.2187  0.4102
  214MOL0     N28806   1.877  10.930  11.247 -0.3439 -0.1914 -0.0913
  214MOL0     C28807   0.949  10.351  10.790  1.1994 -0.5950 -0.3098
  214MOL0     C28808   0.837  10.264  10.771  0.1598 -0.0200  0.2748
  214MOL0     C28809   0.452  10.064  10.703 -0.2338 -0.3420  0.5550
  214MOL0     C28810   0.435   9.937  10.642 -0.7627 -0.2422  0.1831
  214MOL0     C28811   0.314   9.869  10.637 -0.1045  0.2050 -0.6755
  214MOL0     C28812   0.192   9.923  10.689 -0.1665 -0.4715 -0.2070
  214MOL0     O28813   0.071   9.859  10.701 -0.3307  0.3853 -0.1173
  214MOL0     C28814   0.076   9.717  10.701 -0.0616  0.4059  0.2167
  214MOL0     C28815  -0.042   9.653  10.777 -0.3362 -0.4793  0.2157
  214MOL0     C28816  -0.177   9.666  10.708  0.2397 -0.2968 -0.0587
  214MOL0     C28817  -0.238   9.797  10.745  0.7802 -0.5780  0.4213
  214MOL0     C28818  -0.277   9.815  10.884 -0.3393  0.7072 -0.4344
  214MOL0     C28819  -0.308   9.851  11.000 -0.5745 -0.4422  0.5540
  214MOL0     C28820   0.206  10.046  10.755 -0.5958  0.1849 -0.2161
  214MOL0     C28821   0.330  10.121  10.759 -0.8851  0.3787  0.2878
  214MOL0     C28822   0.316  10.258  10.802  0.4848  0.2890 -0.4771
  214MOL0     H28823   0.581  10.483  10.795  0.6122 -0.3104  0.7460
  214MOL0     H28824   0.777  10.644  10.831  0.8791 -0.0971  2.4332
  214MOL0     H28825   1.178  10.468  10.901 -1.6190 -0.2180  0.0419
  214MOL0     H28826   1.168  10.547  10.733  3.7075  0.4067  0.9945
  214MOL0     H28827   1.166  10.773  10.855  0.8509  0.7307 -0.6399
  214MOL0     H28828   1.317  10.690  10.835 -0.3807 -0.2370  0.8398
  214MOL0     H28829   1.322  10.596  11.041 -1.1944 -0.7107  2.1070
  214MOL0     H28830   1.170  10.679  11.091  0.4852 -0.8506  0.8460
  214MOL0     H28831   1.444  10.772  11.016 -0.2579 -4.2842  0.7986
  214MOL0     H28832   1.304  10.889  11.008 -0.9029  0.6835  1.9739
  214MOL0     H28833   1.265  10.830  11.260  1.4598 -1.8498  0.8147
  214MOL0     H28834   1.422  10.743  11.252  0.3859  0.1791  0.5691
  214MOL0     H28835   1.388  11.035  11.168 -0.5206  0.4981 -0.4201
  214MOL0     H28836   1.395  10.993  11.343  0.7299 -1.1502  0.7803
  214MOL0     H28837   1.615  11.060  11.247 -2.6105  1.0635 -3.6284
  214MOL0     H28838   1.616  10.925  11.139  1.2192  0.5316  0.3473
  214MOL0     H28839   1.633  10.912  11.455 -1.1089 -1.9041 -0.2950
  214MOL0     H28840   1.602  10.776  11.354  1.7728 -0.9049 -1.0040
  214MOL0     H28841   1.805  10.709  11.479  1.3464 -1.5698 -0.4272
  214MOL0     H28842   2.043  10.647  11.527  0.0961  0.6796  0.2442
  214MOL0     H28843   2.090  10.605  11.366  0.3835 -0.0770  0.2076
  214MOL0     H28844   2.294  10.717  11.471 -0.8024 -0.8158  1.4474
  214MOL0     H28845   2.228  10.837  11.367  0.1754  1.8734  1.2850
  214MOL0     H28846   2.150  10.819  11.660  0.8302 -0.7669 -0.2313
  214MOL0     H28847   2.107  10.950  11.553 -3.9174 -4.4463  1.8893
  214MOL0     H28848   2.288  11.057  11.676 -3.0266  0.3547 -1.8765
  214MOL0     H28849   2.358  11.005  11.521 -1.8586  2.3471 -0.5740
  214MOL0     H28850   2.501  11.141  11.701  0.1973 -0.4045  0.3369
  214MOL0     H28851   2.669  11.216  11.871  1.0328 -0.8338 -3.3259
  214MOL0     H28852   3.156  11.047  11.959 -0.5712  0.6182 -0.4081
  214MOL0     H28853   3.358  11.093  12.117  0.6544  1.2056  0.7170
  214MOL0     H28854   3.351  11.399  12.414 -1.5326 -0.0940 -2.5296
  214MOL0     H28855   3.265  11.283  12.515  0.4403  0.7464  0.2769
  214MOL0     H28856   3.454  11.161  12.579 -1.0499 -0.9136 -1.8792
  214MOL0     H28857   3.552  11.242  12.453 -0.1806 -1.4508  0.0116
  214MOL0     H28858   3.409  11.433  12.636 -0.7354 -0.2851 -1.5087
  214MOL0     H28859   3.498  11.313  12.734 -2.2897  0.4693  0.3176
  214MOL0     H28860   3.619  11.469  12.510  0.1048 -0.0403  0.1839
  214MOL0     H28861   3.705  11.351  12.607  2.3763  2.6809 -0.4421
  214MOL0     H28862   3.682  11.471  12.815 -1.0852  3.3936  3.3089
  214MOL0     H28863   3.573  11.596  12.744  0.1248 -0.5136  0.8950
  214MOL0     H28864   3.849  11.538  12.645  0.2020 -0.6359  0.1794
  214MOL0     H28865   3.768  11.694  12.627  1.0629  1.5504  0.6869
  214MOL0     H28866   3.913  11.574  12.855  1.2003  1.5131  3.6298
  214MOL0     H28867   3.764  11.664  12.901 -0.5829 -0.0735 -1.2377
  214MOL0     H28868   3.867  11.854  12.796 -1.5543 -1.1307 -1.3388
  214MOL0     H28869   3.995  11.764  12.901  0.5478 -1.0643 -0.4058
  214MOL0     H28870   3.093  11.319  12.363 -2.2748  0.6324  0.1061
  214MOL0     H28871   2.920  11.282  12.219 -1.0696 -2.6135 -0.7735
  214MOL0     H28872   2.687  10.817  12.025 -1.4073  0.4001  0.5572
  214MOL0     H28873   2.511  10.751  11.875  1.0499 -0.3491 -0.4659
  214MOL0     H28874   1.049  10.308  10.790  2.3921  1.9513 -1.0770
  214MOL0     H28875   0.852  10.159  10.748  2.2116 -0.5084  3.3078
  214MOL0     H28876   0.521   9.889  10.596  0.7071  1.6689  0.7936
  214MOL0     H28877   0.308   9.767  10.600 -0.6850  0.2540 -0.7272
  214MOL0     H28878   0.162   9.690  10.763  1.0272  0.2968 -1.2757
  214MOL0     H28879   0.084   9.686  10.597 -1.4298  3.0332 -0.7703
  214MOL0     H28880  -0.057   9.696  10.877  0.7505  0.7190 -0.0993
  214MOL0     H28881  -0.014   9.550  10.798 -1.9512 -0.7304  1.3010
  214MOL0     H28882  -0.242   9.582  10.733 -1.3032  0.6980 -0.5493
  214MOL0     H28883  -0.174   9.662  10.599  0.1403 -1.1516 -0.0375
  214MOL0     H28884  -0.170   9.876  10.711 -0.1680 -0.1816 -0.5986
  214MOL0     H28885  -0.330   9.810  10.686  0.7732 -1.0569  0.3231
  214MOL0     H28886  -0.346   9.914  11.077 -0.3242  1.1279 -0.5405
  214MOL0     H28887   0.120  10.094  10.801 -0.5697  1.0713 -1.0661
  214MOL0     H28888   0.380  10.279  10.889 -0.2363  0.7182 -0.0466
  214MOL0     H28889   0.330  10.322  10.715  1.8344 -3.0008 -2.9414
  214MOL0     H28890   0.213  10.275  10.833 -0.0998  1.6903 -2.9644
  215MOL0     O28891   6.536   2.258   8.773  0.2910  0.0163  0.4320
  215MOL0     C28892   6.600   2.355   8.727 -0.3196  0.6626 -0.4276
  215MOL0     O28893   6.580   2.482   8.765 -0.6213 -0.0620  0.3287
  215MOL0     C28894   6.528   2.495   8.896  0.2354  0.0147  0.6011
  215MOL0     C28895   6.614   2.528   8.994 -0.2372 -0.7481 -0.2140
  215MOL0     C28896   6.572   2.559   9.124  0.1931 -0.0571 -0.2568
  215MOL0     C28897   6.438   2.576   9.152  0.5754 -0.0808  0.2587
  215MOL0     O28898   6.401   2.603   9.280 -0.7891  0.3376  0.4221
  215MOL0     C28899   6.428   2.731   9.335 -0.3418 -0.7197  0.1720
  215MOL0     C28900   6.331   2.772   9.448  0.1535  1.2082 -0.8343
  215MOL0     C28901   6.181   2.796   9.413 -1.3119 -0.1157  0.3853
  215MOL0     C28902   6.088   2.786   9.535 -0.3223  0.4336 -0.1559
  215MOL0     C28903   5.936   2.789   9.487  0.1744  0.4738  0.3145
  215MOL0     C28904   5.884   2.646   9.470  0.5570 -0.3519 -0.5184
  215MOL0     C28905   5.736   2.636   9.504 -0.1576 -0.2470  0.2181
  215MOL0     C28906   5.647   2.634   9.371 -0.6945  0.3612 -0.0811
  215MOL0     N28907   5.510   2.597   9.397  0.5337 -0.3289 -0.3935
  215MOL0     C28908   5.418   2.663   9.473 -0.0190  1.8588 -0.7085
  215MOL0     C28909   5.310   2.582   9.486  0.3712  0.2934  0.7863
  215MOL0     C28910   5.185   2.598   9.565 -0.3302 -0.1870 -0.2690
  215MOL0     C28911   5.054   2.634   9.489 -0.3690 -0.2252 -0.0013
  215MOL0     C28912   5.045   2.782   9.443  0.8343 -0.3099  0.5417
  215MOL0     C28913   4.937   2.826   9.341  0.0553  0.0717 -0.1117
  215MOL0     O28914   4.820   2.867   9.414  0.0320  0.1263 -0.2609
  215MOL0     C28915   4.708   2.902   9.335 -0.0046  0.4820  0.0323
  215MOL0     C28916   4.586   2.888   9.405 -1.2429 -0.3414  0.2012
  215MOL0     C28917   4.468   2.886   9.344  0.7355 -0.5359  0.6047
  215MOL0     C28918   4.451   2.905   9.205  0.9597  0.1761  0.1279
  215MOL0     C28919   4.322   2.917   9.141  0.8303 -0.2255 -0.1332
  215MOL0     O28920   4.213   2.860   9.203  0.2207 -0.4663 -0.0340
  215MOL0     C28921   4.090   2.873   9.143 -1.2408  0.0713 -0.8373
  215MOL0     C28922   4.037   2.995   9.111 -0.1725  0.5504 -0.5084
  215MOL0     C28923   3.903   2.998   9.071  0.0386 -0.2185  0.0683
  215MOL0     C28924   3.820   2.878   9.060  0.1716 -0.3623  0.2832
  215MOL0     O28925   3.688   2.878   9.025 -0.0337 -0.0038  0.0308
  215MOL0     C28926   3.616   2.997   9.001 -0.3010  0.2892  0.5408
  215MOL0     C28927   3.504   2.952   8.903  0.5877 -0.2424  0.1769
  215MOL0     C28928   3.425   3.067   8.845 -0.4324 -0.0373  0.1150
  215MOL0     C28929   3.377   3.041   8.698 -0.1765  0.1376  0.2031
  215MOL0     C28930   3.257   2.939   8.702  0.7470 -0.3761  0.2485
  215MOL0     C28931   3.126   3.011   8.734  0.1419  0.3728  0.4189
  215MOL0     C28932   3.083   3.114   8.628 -0.5097 -0.3757 -0.2598
  215MOL0     C28933   2.952   3.180   8.665 -0.3458  0.3863 -0.6127
  215MOL0    Cl28934   2.803   3.060   8.675  0.0703 -0.3473 -0.1588
  215MOL0     C28935   3.884   2.763   9.101 -0.1586 -0.0845 -0.4888
  215MOL0     C28936   4.018   2.760   9.144 -0.0341  0.1069  0.1770
  215MOL0     O28937   4.321   2.991   9.039 -0.5817 -0.3343  1.0139
  215MOL0     C28938   4.571   2.907   9.131  0.5702  0.5700  0.2760
  215MOL0     C28939   4.691   2.901   9.197  0.6106  0.2378  0.2040
  215MOL0     N28940   5.336   2.468   9.413  0.3302  0.4799  0.3551
  215MOL0     N28941   5.452   2.477   9.366 -0.0566  0.2542  0.5295
  215MOL0     C28942   6.346   2.547   9.048 -0.1728 -0.1410 -0.0456
  215MOL0     C28943   6.392   2.511   8.918 -0.0381  0.4051  0.2183
  215MOL0     C28944   6.691   2.334   8.617  0.3602  0.0186  0.3844
  215MOL0     C28945   6.698   2.443   8.526 -0.1918 -0.1724  0.6436
  215MOL0     C28946   6.798   2.437   8.426 -1.1286  0.6710  0.9549
  215MOL0     C28947   6.890   2.334   8.414 -0.4194 -0.4814  0.1947
  215MOL0     O28948   6.984   2.345   8.320 -0.3141  0.3097  0.0646
  215MOL0     C28949   7.077   2.230   8.292  0.3527 -0.1797 -0.0209
  215MOL0     C28950   7.175   2.247   8.174  1.2547 -0.3477  1.0166
  215MOL0     C28951   7.316   2.298   8.205 -0.8181  0.0323  0.6295
  215MOL0     C28952   7.434   2.265   8.112  0.3254  0.4713  0.2404
  215MOL0     C28953   7.458   2.119   8.092 -0.0594  0.5812  0.5113
  215MOL0     C28954   7.468   2.007   8.053  0.0503 -0.1777  0.1342
  215MOL0     C28955   6.878   2.220   8.499 -0.6573 -0.5520  0.1664
  215MOL0     C28956   6.785   2.222   8.600  0.7156  0.0214 -0.0661
  215MOL0     C28957   6.781   2.101   8.692 -0.5931 -0.0891  0.1405
  215MOL0     H28958   6.717   2.548   8.965  0.5749 -3.1534  0.7295
  215MOL0     H28959   6.634   2.578   9.211  1.1279 -0.4724 -0.8143
  215MOL0     H28960   6.530   2.716   9.372 -1.3496 -1.1759  2.9491
  215MOL0     H28961   6.426   2.805   9.254 -0.9809  1.5343  2.1506
  215MOL0     H28962   6.372   2.860   9.499 -1.1958  1.3398  0.0730
  215MOL0     H28963   6.332   2.687   9.517 -2.4528 -0.8556 -3.1028
  215MOL0     H28964   6.150   2.710   9.352  1.9634 -0.8630 -0.4384
  215MOL0     H28965   6.181   2.891   9.359  0.1657 -0.6528 -0.6188
  215MOL0     H28966   6.110   2.690   9.583 -0.7694 -0.5334 -1.8089
  215MOL0     H28967   6.105   2.867   9.607 -2.3346  1.5499 -0.8670
  215MOL0     H28968   5.886   2.832   9.574  3.6119  0.9366  2.2449
  215MOL0     H28969   5.918   2.856   9.403 -1.0575  1.8936  1.6508
  215MOL0     H28970   5.907   2.600   9.374  2.3649 -3.7799  1.3962
  215MOL0     H28971   5.929   2.584   9.548  1.4368 -1.2575 -1.7123
  215MOL0     H28972   5.704   2.718   9.569 -1.2963  1.2526 -2.0903
  215MOL0     H28973   5.710   2.542   9.554  1.9066 -0.3603  1.1548
  215MOL0     H28974   5.648   2.734   9.326  2.3530 -0.8098 -3.0446
  215MOL0     H28975   5.695   2.559   9.308  1.9557  1.2122  0.8165
  215MOL0     H28976   5.431   2.755   9.529  0.4824 -0.1683  2.8223
  215MOL0     H28977   5.165   2.509   9.625 -3.6494  0.0641 -0.7969
  215MOL0     H28978   5.209   2.681   9.632  1.5004 -0.8586 -0.0301
  215MOL0     H28979   5.044   2.557   9.412 -1.1836  0.1050 -0.2350
  215MOL0     H28980   4.966   2.617   9.552 -1.5502 -1.4069 -1.8711
  215MOL0     H28981   5.140   2.811   9.398  0.0472  0.5388 -0.6413
  215MOL0     H28982   5.035   2.839   9.536 -1.9282  1.5909 -0.7686
  215MOL0     H28983   4.930   2.749   9.265 -2.2665  0.3019 -0.2294
  215MOL0     H28984   4.980   2.916   9.295 -0.7685 -0.9221 -2.9754
  215MOL0     H28985   4.599   2.879   9.512 -2.1432 -2.4018  0.1697
  215MOL0     H28986   4.378   2.896   9.404 -1.1975  0.0750 -2.1801
  215MOL0     H28987   4.095   3.086   9.126 -1.1818  0.8468  2.2126
  215MOL0     H28988   3.861   3.096   9.049  1.5402  0.3403 -0.4186
  215MOL0     H28989   3.580   3.033   9.098  2.8424 -0.1157  1.9844
  215MOL0     H28990   3.683   3.075   8.965 -1.7422  0.5892 -1.6615
  215MOL0     H28991   3.547   2.887   8.827 -1.8277 -0.9805 -0.6574
  215MOL0     H28992   3.440   2.890   8.967 -0.7147  1.6323  0.7865
  215MOL0     H28993   3.348   3.102   8.915 -1.6794 -3.6953  0.7896
  215MOL0     H28994   3.497   3.149   8.832  0.3867 -1.1460 -3.2142
  215MOL0     H28995   3.451   2.994   8.633 -1.3790  0.3519 -1.3599
  215MOL0     H28996   3.342   3.138   8.662 -0.6186 -0.3970 -0.8340
  215MOL0     H28997   3.265   2.862   8.779  1.0189 -0.1462  0.4477
  215MOL0     H28998   3.256   2.899   8.600  2.6740  0.5616 -0.1729
  215MOL0     H28999   3.043   2.942   8.747 -0.1420  0.2765 -1.6079
  215MOL0     H29000   3.133   3.056   8.833  3.1106  0.3262  0.3143
  215MOL0     H29001   3.078   3.069   8.528 -0.3911  0.7920 -0.8076
  215MOL0     H29002   3.151   3.199   8.631  1.1073 -1.6534  2.3037
  215MOL0     H29003   2.961   3.219   8.767 -0.5282 -0.0469 -0.4270
  215MOL0     H29004   2.937   3.266   8.599 -0.9970  1.8537  1.3409
  215MOL0     H29005   3.837   2.665   9.100  1.8578 -1.1083 -1.0823
  215MOL0     H29006   4.057   2.665   9.180 -0.4639 -0.9912 -2.0592
  215MOL0     H29007   4.565   2.906   9.023  1.3757 -0.3819  0.2299
  215MOL0     H29008   4.786   2.895   9.145  2.3535 -0.3993  3.2334
  215MOL0     H29009   6.242   2.574   9.062 -0.9653  0.3263 -5.0778
  215MOL0     H29010   6.320   2.491   8.840 -1.9065  0.1636  1.9412
  215MOL0     H29011   6.626   2.524   8.525 -2.2034 -1.6371 -4.2723
  215MOL0     H29012   6.804   2.528   8.367  0.0707  0.4982  0.7807
  215MOL0     H29013   7.018   2.142   8.268  1.2274 -1.1297  1.1996
  215MOL0     H29014   7.140   2.219   8.380 -2.1022 -0.4240  1.7956
  215MOL0     H29015   7.116   2.303   8.101 -1.0349 -0.9261  2.3428
  215MOL0     H29016   7.186   2.143   8.143 -0.1834 -0.7720  1.8256
  215MOL0     H29017   7.345   2.279   8.309  1.0013  0.9502  0.3276
  215MOL0     H29018   7.307   2.407   8.210  2.6127  0.4455 -0.0373
  215MOL0     H29019   7.412   2.296   8.009 -1.0836 -0.0220  0.3676
  215MOL0     H29020   7.526   2.313   8.146  0.1322  0.5142  0.7052
  215MOL0     H29021   7.472   1.904   8.023 -0.7225 -0.3466  0.5704
  215MOL0     H29022   6.936   2.131   8.476 -1.7978 -1.7988  1.9424
  215MOL0     H29023   6.883   2.062   8.702 -1.2344 -1.4253  1.9576
  215MOL0     H29024   6.744   2.121   8.793 -3.6098 -2.4696 -0.3266
  215MOL0     H29025   6.720   2.023   8.646  1.3301 -0.9045 -1.1538
  216MOL0     O29026   1.401  11.289   2.863  0.3351  0.8830 -0.4371
  216MOL0     C29027   1.311  11.261   2.938  0.0884 -0.6682  0.4106
  216MOL0     O29028   1.328  11.238   3.076 -0.4780  0.3135 -0.1171
  216MOL0     C29029   1.460  11.251   3.115 -0.3757  0.4066 -0.1368
  216MOL0     C29030   1.558  11.161   3.065 -0.7261 -0.6116  0.5037
  216MOL0     C29031   1.684  11.172   3.110 -0.6697  0.9947 -1.1750
  216MOL0     C29032   1.721  11.273   3.205  0.3654  0.0720  0.4954
  216MOL0     O29033   1.847  11.318   3.234 -0.1807 -0.9269 -0.3466
  216MOL0     C29034   1.955  11.245   3.176  0.2525  0.1119  0.5800
  216MOL0     C29035   2.086  11.284   3.243  0.9942 -0.0637 -0.1154
  216MOL0     C29036   2.091  11.223   3.385 -0.1670  0.7838  0.7680
  216MOL0     C29037   2.228  11.258   3.442  0.7858  0.1945 -0.7846
  216MOL0     C29038   2.221  11.216   3.584 -0.4234  0.4604  0.6817
  216MOL0     C29039   2.358  11.243   3.654  0.1592  0.4988 -0.9263
  216MOL0     C29040   2.368  11.184   3.796  0.0160 -0.0277 -0.1695
  216MOL0     C29041   2.499  11.220   3.857 -0.3747  1.1450  0.0949
  216MOL0     N29042   2.481  11.341   3.932 -1.1044 -0.3898  1.1536
  216MOL0     C29043   2.516  11.470   3.887  0.3393 -0.3630 -0.7800
  216MOL0     C29044   2.495  11.551   3.998 -0.1758  0.2050  0.6772
  216MOL0     C29045   2.528  11.700   3.991  0.4493  0.7102  0.9952
  216MOL0     C29046   2.617  11.750   4.104  0.5301  0.0849 -0.8889
  216MOL0     C29047   2.767  11.706   4.106  0.3962  0.4793 -0.4077
  216MOL0     C29048   2.783  11.549   4.082 -0.0015  0.1603 -0.4092
  216MOL0     O29049   2.904  11.499   4.151 -0.6637 -0.2913  0.4536
  216MOL0     C29050   2.959  11.382   4.106  0.3455  0.8748  0.5457
  216MOL0     C29051   2.901  11.288   4.010  0.2579 -0.5699 -1.0937
  216MOL0     C29052   2.962  11.175   3.963 -0.2899 -0.4451 -0.3834
  216MOL0     C29053   3.094  11.145   4.007 -0.3393 -0.4140  0.1443
  216MOL0     C29054   3.158  11.025   3.954 -0.2323 -0.1531 -0.1986
  216MOL0     O29055   3.249  10.966   4.040  0.2428  0.1670  0.1832
  216MOL0     C29056   3.270  10.829   4.037 -0.4906  0.1375  0.6851
  216MOL0     C29057   3.393  10.784   4.093  0.6898 -0.0679  0.5588
  216MOL0     C29058   3.417  10.642   4.108  0.1879 -0.1735 -0.2766
  216MOL0     C29059   3.330  10.551   4.057  0.3522 -0.3115  0.0763
  216MOL0     O29060   3.358  10.420   4.070 -0.5103  0.2588  0.2061
  216MOL0     C29061   3.332  10.339   3.951 -0.0995 -0.2650 -0.4888
  216MOL0     C29062   3.379  10.194   3.982  0.1417  0.2873  0.2643
  216MOL0     C29063   3.524  10.179   3.934  0.2035  0.0908  0.1070
  216MOL0     C29064   3.597  10.063   3.999  0.0589  0.4947  0.4963
  216MOL0     C29065   3.743  10.049   3.972  0.7696  0.3181 -0.0914
  216MOL0     C29066   3.790   9.912   4.032 -0.0954 -0.5681  0.2288
  216MOL0     C29067   3.938   9.889   4.020 -0.7805  0.4758  0.5445
  216MOL0     C29068   4.005   9.900   3.880  0.8991  0.3363 -0.2832
  216MOL0    Cl29069   4.180   9.851   3.903  0.0655  0.1586  0.3433
  216MOL0     C29070   3.215  10.599   4.003 -0.6648  0.4237 -0.3787
  216MOL0     C29071   3.182  10.730   3.993  0.3845 -1.3593 -0.1859
  216MOL0     O29072   3.113  10.981   3.849 -0.5056  0.6004 -0.1195
  216MOL0     C29073   3.159  11.234   4.102 -0.5253  0.3354 -0.2061
  216MOL0     C29074   3.096  11.349   4.138  0.3522  0.8415 -0.9089
  216MOL0     N29075   2.449  11.474   4.106 -0.4695 -0.3046 -0.0175
  216MOL0     N29076   2.437  11.352   4.060  0.3821 -0.0990 -0.3195
  216MOL0     C29077   1.622  11.363   3.249 -0.2353 -0.2314 -0.0133
  216MOL0     C29078   1.488  11.352   3.203 -0.5848  0.6300 -0.7482
  216MOL0     C29079   1.180  11.240   2.880  0.1424 -0.1932  0.0920
  216MOL0     C29080   1.109  11.127   2.927  0.2400  0.1079 -0.5363
  216MOL0     C29081   0.980  11.103   2.875  0.3249  0.1805 -0.5311
  216MOL0     C29082   0.916  11.183   2.788  0.5281 -0.5327  0.5217
  216MOL0     O29083   0.796  11.127   2.760 -0.1156 -0.1523  0.3215
  216MOL0     C29084   0.732  11.173   2.645 -0.1604 -0.2440  0.0806
  216MOL0     C29085   0.637  11.070   2.582  0.3919  1.2419 -0.4873
  216MOL0     C29086   0.516  11.052   2.675 -0.6722 -0.2452 -0.5994
  216MOL0     C29087   0.411  10.960   2.616 -0.7137  0.8485 -0.2758
  216MOL0     C29088   0.362  10.995   2.481 -0.5498  0.0517 -0.1328
  216MOL0     C29089   0.319  11.016   2.366  0.3459  0.1436  0.0686
  216MOL0     C29090   0.975  11.304   2.759 -0.2754  0.3870 -0.5745
  216MOL0     C29091   1.112  11.334   2.796 -0.6388 -0.2381 -0.1795
  216MOL0     C29092   1.157  11.468   2.763  0.2120  0.0289  0.4592
  216MOL0     H29093   1.535  11.093   2.984  2.9764  1.0521 -2.2405
  216MOL0     H29094   1.769  11.122   3.067  1.8796  1.4607  2.8477
  216MOL0     H29095   1.939  11.137   3.181  1.7489 -0.4759 -3.2020
  216MOL0     H29096   1.957  11.270   3.069 -1.0381 -1.9138  0.0329
  216MOL0     H29097   2.087  11.393   3.249  1.2130 -0.1263  1.3290
  216MOL0     H29098   2.173  11.257   3.182 -0.5137  0.3442 -2.5907
  216MOL0     H29099   2.094  11.113   3.383 -0.9069  0.7460  1.3678
  216MOL0     H29100   2.017  11.265   3.453  1.5710  1.9344  2.0538
  216MOL0     H29101   2.308  11.213   3.383  0.2757  1.5216 -2.5614
  216MOL0     H29102   2.236  11.367   3.449  0.0023  0.1974  0.5400
  216MOL0     H29103   2.135  11.255   3.637 -0.4202 -0.5844  1.4972
  216MOL0     H29104   2.210  11.107   3.585  0.5041  0.3552  2.2897
  216MOL0     H29105   2.427  11.187   3.591  1.3707  1.4714 -0.4859
  216MOL0     H29106   2.385  11.349   3.656 -2.6634  1.3161 -1.0341
  216MOL0     H29107   2.356  11.075   3.794 -2.1627  0.1598  0.6838
  216MOL0     H29108   2.291  11.216   3.866  1.0818 -0.0934  1.0782
  216MOL0     H29109   2.522  11.147   3.936 -1.5103  1.5753  0.8530
  216MOL0     H29110   2.580  11.215   3.785  0.1435 -2.1603  0.7248
  216MOL0     H29111   2.564  11.501   3.794  2.3800 -0.0581  0.3262
  216MOL0     H29112   2.572  11.718   3.892 -0.4521  1.6529  0.7391
  216MOL0     H29113   2.438  11.762   3.988 -0.2486 -0.1785  2.4956
  216MOL0     H29114   2.608  11.859   4.102  2.8448  0.3419 -3.6967
  216MOL0     H29115   2.574  11.709   4.196  0.1013 -0.7229 -1.4486
  216MOL0     H29116   2.809  11.731   4.204 -0.3068 -1.5536  0.4669
  216MOL0     H29117   2.819  11.759   4.025  0.0818  0.6555 -0.4945
  216MOL0     H29118   2.785  11.540   3.973  0.1968 -0.2638 -0.3724
  216MOL0     H29119   2.706  11.482   4.121  3.1834 -1.3499  4.3541
  216MOL0     H29120   2.797  11.302   3.981  0.1439 -0.3013 -0.5719
  216MOL0     H29121   2.899  11.116   3.898 -1.3479 -0.1981  0.3840
  216MOL0     H29122   3.460  10.861   4.127  1.5305 -0.3085 -0.5138
  216MOL0     H29123   3.509  10.608   4.155  1.4612  1.1195 -1.6846
  216MOL0     H29124   3.225  10.336   3.926 -0.0023  1.4385 -1.2149
  216MOL0     H29125   3.384  10.366   3.859 -1.1828  1.2371 -0.7024
  216MOL0     H29126   3.377  10.171   4.089 -2.9281  0.0036  0.2490
  216MOL0     H29127   3.323  10.113   3.935 -2.8034  2.2964  0.0362
  216MOL0     H29128   3.529  10.167   3.826  0.0206  1.9017 -0.1313
  216MOL0     H29129   3.573  10.273   3.960  0.9362 -0.6965  1.7340
  216MOL0     H29130   3.547   9.977   3.955 -0.7966  1.8142 -1.2525
  216MOL0     H29131   3.580  10.061   4.107 -2.1208  0.9737  0.2212
  216MOL0     H29132   3.797  10.127   4.027 -2.5577  1.8266  1.3094
  216MOL0     H29133   3.753  10.061   3.864 -2.4606  1.7448 -0.3527
  216MOL0     H29134   3.750   9.890   4.132  0.5018 -3.6696 -0.1056
  216MOL0     H29135   3.747   9.833   3.970  0.7795 -1.2557  0.4707
  216MOL0     H29136   3.956   9.789   4.061  2.4338  0.4952 -0.5695
  216MOL0     H29137   3.986   9.952   4.096 -1.0873 -1.5319  2.5204
  216MOL0     H29138   3.954   9.834   3.810 -0.2812  0.3091  0.5700
  216MOL0     H29139   3.998  10.006   3.855 -1.8872 -0.1165 -1.7749
  216MOL0     H29140   3.140  10.529   3.967 -0.1270 -1.9542  2.7324
  216MOL0     H29141   3.090  10.754   3.940  0.2065 -0.8923  0.3238
  216MOL0     H29142   3.258  11.211   4.140 -0.1952 -0.1237 -1.3111
  216MOL0     H29143   3.138  11.414   4.214 -0.1208  1.1616 -0.9195
  216MOL0     H29144   1.652  11.444   3.314 -2.8946  0.9703 -0.1620
  216MOL0     H29145   1.413  11.412   3.254  2.2728 -0.4670  5.7073
  216MOL0     H29146   1.156  11.055   2.993 -1.0261  0.0087  0.2835
  216MOL0     H29147   0.938  11.009   2.911  1.9542  0.1352  1.4225
  216MOL0     H29148   0.811  11.188   2.570 -0.3784  1.7579  0.1901
  216MOL0     H29149   0.686  11.267   2.675  2.9961  1.2757  0.5483
  216MOL0     H29150   0.690  10.975   2.573 -3.0520 -0.7762 -1.3828
  216MOL0     H29151   0.611  11.109   2.483 -0.2138  2.2363  0.0389
  216MOL0     H29152   0.479  11.151   2.703 -0.8205 -0.7971  1.3052
  216MOL0     H29153   0.555  11.014   2.770  1.1223  1.3165 -0.6634
  216MOL0     H29154   0.453  10.859   2.609 -2.9576 -0.0839 -5.1330
  216MOL0     H29155   0.335  10.945   2.693  0.3703  1.5846  0.9659
  216MOL0     H29156   0.289  11.045   2.267 -1.0357 -0.4548  0.2911
  216MOL0     H29157   0.922  11.374   2.695 -0.3898 -0.3868 -1.3563
  216MOL0     H29158   1.163  11.520   2.859  2.2043 -0.0308  0.3945
  216MOL0     H29159   1.259  11.470   2.725  0.2923 -0.4505  0.6516
  216MOL0     H29160   1.092  11.521   2.693  2.0630  0.3144 -1.1314
  217MOL0     O29161  10.797   4.115   4.228  0.6081  0.8361 -0.3068
  217MOL0     C29162  10.756   4.000   4.212  0.6350  0.0802  0.0027
  217MOL0     O29163  10.834   3.886   4.240 -0.0790 -0.1646 -0.1792
  217MOL0     C29164  10.952   3.899   4.309 -0.6246 -0.5435 -0.4336
  217MOL0     C29165  11.052   3.811   4.274 -0.9212  0.6182 -0.8164
  217MOL0     C29166  11.177   3.817   4.337 -0.6613 -1.1031  0.2065
  217MOL0     C29167  11.206   3.906   4.436 -0.2179 -0.0444 -0.7232
  217MOL0     O29168  11.339   3.902   4.484 -0.3367 -0.5314  0.0849
  217MOL0     C29169  11.356   3.941   4.622 -0.2633 -0.3360 -0.2081
  217MOL0     C29170  11.472   3.875   4.690 -0.4527  0.1231 -0.2310
  217MOL0     C29171  11.600   3.948   4.644 -0.1040 -0.2082 -0.3362
  217MOL0     C29172  11.730   3.877   4.699  0.9297  0.4735  0.1105
  217MOL0     C29173  11.843   3.977   4.673 -0.0751 -1.0434  0.6818
  217MOL0     C29174  11.987   3.927   4.716 -0.0703  0.2334 -0.0595
  217MOL0     C29175  12.079   4.050   4.717 -0.2965  0.6120  0.0980
  217MOL0     C29176  12.212   4.011   4.771  0.7664  0.2754 -0.6120
  217MOL0     N29177  12.319   4.113   4.766  0.4165 -0.6423 -0.7446
  217MOL0     C29178  12.322   4.233   4.824 -0.4760  0.0397  0.1922
  217MOL0     C29179  12.447   4.279   4.792 -0.1242 -0.2183 -0.2431
  217MOL0     C29180  12.508   4.409   4.847 -0.8508 -0.4345  0.0036
  217MOL0     C29181  12.647   4.392   4.917 -0.2440 -0.0954  0.6964
  217MOL0     C29182  12.752   4.414   4.807 -0.5063 -0.0577 -0.8392
  217MOL0     C29183  12.891   4.359   4.846 -0.3570  0.1778  0.0156
  217MOL0     O29184  12.933   4.429   4.966 -0.6571 -1.1856  0.9822
  217MOL0     C29185  13.006   4.364   5.057 -0.7284 -0.4521  0.0402
  217MOL0     C29186  12.972   4.250   5.129  0.0794 -0.6235 -0.7266
  217MOL0     C29187  13.059   4.192   5.228  0.2916  0.0180  0.1981
  217MOL0     C29188  13.181   4.255   5.265  0.1875 -0.7779 -0.4642
  217MOL0     C29189  13.266   4.213   5.384 -0.8923  0.4853  0.2795
  217MOL0     O29190  13.389   4.260   5.405 -0.3513  0.0003  0.0734
  217MOL0     C29191  13.467   4.213   5.510 -0.2239  0.0535  0.5825
  217MOL0     C29192  13.559   4.109   5.491  0.2848 -0.0215 -0.3605
  217MOL0     C29193  13.650   4.089   5.586 -0.6299  0.1585  0.2111
  217MOL0     C29194  13.650   4.159   5.713 -0.5662  0.6022 -0.0247
  217MOL0     O29195  13.757   4.148   5.795 -0.2154  0.0048  0.1795
  217MOL0     C29196  13.726   4.105   5.929 -0.8072 -0.2714 -0.5343
  217MOL0     C29197  13.856   4.104   6.014  0.3253  0.0419 -0.3700
  217MOL0     C29198  13.950   3.981   5.964  0.4907 -0.2284 -0.2131
  217MOL0     C29199  14.079   3.986   6.050  0.8341 -0.2983 -0.5914
  217MOL0     C29200  14.151   3.860   6.010  0.3149 -0.0755 -0.3154
  217MOL0     C29201  14.290   3.844   6.089  0.5148  0.1894  0.4049
  217MOL0     C29202  14.361   3.973   6.150  0.3927 -0.0672  0.6830
  217MOL0     C29203  14.495   3.944   6.207 -0.6912 -0.3761 -0.2859
  217MOL0    Cl29204  14.597   3.882   6.074 -0.1758 -0.2435 -0.0706
  217MOL0     C29205  13.549   4.259   5.731  0.0211  0.4744 -0.1817
  217MOL0     C29206  13.456   4.282   5.630 -0.0712  0.3391 -0.4868
  217MOL0     O29207  13.213   4.119   5.444 -0.0488  0.2050 -0.4552
  217MOL0     C29208  13.204   4.371   5.193 -0.2104 -0.5831  0.8249
  217MOL0     C29209  13.128   4.427   5.091  0.2166 -0.3447  0.4138
  217MOL0     N29210  12.523   4.191   4.718  0.2547 -0.1669 -0.8420
  217MOL0     N29211  12.440   4.092   4.704  0.1327  0.4473 -0.0112
  217MOL0     C29212  11.102   3.985   4.485  0.2640 -0.2335 -0.8962
  217MOL0     C29213  10.978   3.986   4.418  0.4794  0.2930  0.1522
  217MOL0     C29214  10.620   3.962   4.153 -0.1385  0.0667  0.4743
  217MOL0     C29215  10.585   3.826   4.132 -0.1342  0.9412 -1.0931
  217MOL0     C29216  10.459   3.787   4.085 -0.3943 -0.0053 -0.5014
  217MOL0     C29217  10.368   3.885   4.054  0.3924  0.8204  0.4543
  217MOL0     O29218  10.248   3.846   3.993  0.4427  0.1307  0.5088
  217MOL0     C29219  10.171   3.935   3.917  0.1798  0.3743  0.7380
  217MOL0     C29220  10.061   3.860   3.850  0.0272  0.1259  0.2236
  217MOL0     C29221  10.109   3.744   3.760 -0.5983 -0.5667  0.2771
  217MOL0     C29222  10.074   3.607   3.813 -0.4966 -0.5020  0.4183
  217MOL0     C29223   9.935   3.589   3.785 -0.3423  0.4276 -0.0101
  217MOL0     C29224   9.827   3.554   3.744  0.4826 -0.4906  0.3038
  217MOL0     C29225  10.394   4.025   4.083  0.7811  0.6752 -0.2171
  217MOL0     C29226  10.517   4.065   4.133 -0.9494 -0.3972  0.6689
  217MOL0     C29227  10.523   4.208   4.178 -0.1743  0.3252 -0.7640
  217MOL0     H29228  11.027   3.732   4.204  1.5221 -2.1426  1.2106
  217MOL0     H29229  11.263   3.758   4.307  2.5666  2.3490  1.8686
  217MOL0     H29230  11.363   4.049   4.636 -0.3357  0.0143 -2.5352
  217MOL0     H29231  11.265   3.904   4.670 -0.2128  0.2461  0.3487
  217MOL0     H29232  11.475   3.768   4.671 -0.7868  0.1036 -0.1888
  217MOL0     H29233  11.457   3.882   4.798 -1.8043 -3.2299 -0.1032
  217MOL0     H29234  11.595   4.052   4.679  2.1380  0.2494 -1.1942
  217MOL0     H29235  11.619   3.950   4.536  1.4271 -2.2834 -0.1680
  217MOL0     H29236  11.714   3.862   4.806  0.9472  2.5630  0.4554
  217MOL0     H29237  11.741   3.785   4.642  1.2570  0.2898  0.4706
  217MOL0     H29238  11.844   4.016   4.571  1.9719  2.2309  1.7952
  217MOL0     H29239  11.815   4.069   4.725  0.2390  0.0691 -1.0359
  217MOL0     H29240  11.990   3.872   4.810  0.4435 -1.5796 -1.0822
  217MOL0     H29241  12.022   3.855   4.641  2.6878  1.5587 -0.1601
  217MOL0     H29242  12.044   4.127   4.787  0.9406 -0.2547  1.7227
  217MOL0     H29243  12.095   4.087   4.615  0.9489  2.3939  0.8899
  217MOL0     H29244  12.210   3.978   4.875  0.6068 -2.8497 -1.4976
  217MOL0     H29245  12.260   3.935   4.710  1.0008  0.4043 -0.5899
  217MOL0     H29246  12.256   4.290   4.889  1.0925  3.7030 -1.1631
  217MOL0     H29247  12.510   4.476   4.760 -1.6198  0.4452  0.6386
  217MOL0     H29248  12.430   4.454   4.910 -1.3925 -1.0526 -0.2088
  217MOL0     H29249  12.659   4.473   4.990 -0.0961  0.4948  0.0302
  217MOL0     H29250  12.659   4.294   4.964  0.8174 -1.6468 -2.5133
  217MOL0     H29251  12.770   4.522   4.796  3.7154 -0.0617  3.0857
  217MOL0     H29252  12.716   4.371   4.713  0.8291 -3.8527  0.2279
  217MOL0     H29253  12.966   4.386   4.771  1.6094 -1.7074  1.2120
  217MOL0     H29254  12.885   4.251   4.864  0.3536  0.0488 -0.4850
  217MOL0     H29255  12.879   4.207   5.092 -0.1372 -0.1165 -0.7803
  217MOL0     H29256  13.034   4.095   5.270  0.3189 -0.7260 -1.4422
  217MOL0     H29257  13.551   4.075   5.389 -1.0090 -0.5674 -0.0971
  217MOL0     H29258  13.738   4.031   5.560 -2.1684 -1.4166 -1.8509
  217MOL0     H29259  13.652   4.175   5.969 -0.4609  0.5143 -1.2470
  217MOL0     H29260  13.684   4.004   5.927 -0.1050 -0.6345  1.1941
  217MOL0     H29261  13.903   4.201   6.034  0.8563 -0.8974  3.7903
  217MOL0     H29262  13.827   4.077   6.116  1.2226 -0.2990 -0.2017
  217MOL0     H29263  13.896   3.887   5.972  2.7856 -1.5482  0.5035
  217MOL0     H29264  13.976   3.997   5.859  0.4649  1.9626  0.0514
  217MOL0     H29265  14.070   3.993   6.159  0.7583  0.5575 -0.6397
  217MOL0     H29266  14.130   4.079   6.021  2.3263 -0.7673  0.4113
  217MOL0     H29267  14.168   3.864   5.902 -0.5177 -1.7289 -0.5430
  217MOL0     H29268  14.083   3.778   6.036 -0.7945  0.5787 -1.1203
  217MOL0     H29269  14.264   3.779   6.173 -1.1748 -0.5553 -0.6279
  217MOL0     H29270  14.359   3.785   6.028  0.8642  2.6852 -1.7744
  217MOL0     H29271  14.286   4.019   6.216 -1.9817 -0.5727 -1.5027
  217MOL0     H29272  14.384   4.045   6.071  1.2216 -0.8962  0.1494
  217MOL0     H29273  14.531   4.041   6.242 -0.5398 -0.8168  0.8223
  217MOL0     H29274  14.494   3.877   6.294  0.0400  1.1719  0.9680
  217MOL0     H29275  13.545   4.327   5.816 -1.4388  0.4399 -0.2104
  217MOL0     H29276  13.382   4.361   5.635  1.0891  1.4015  0.1203
  217MOL0     H29277  13.286   4.435   5.221 -0.8146  0.2456  0.7456
  217MOL0     H29278  13.157   4.519   5.040  1.0205 -0.1671  1.1496
  217MOL0     H29279  11.116   4.055   4.566 -0.1957 -0.9063 -0.2136
  217MOL0     H29280  10.896   4.046   4.456  1.8202  2.6235 -0.4263
  217MOL0     H29281  10.664   3.754   4.147  0.1255  1.6533  1.2667
  217MOL0     H29282  10.437   3.681   4.072 -2.5030  0.5264 -1.8044
  217MOL0     H29283  10.238   3.990   3.849 -0.8514  1.3308  0.4637
  217MOL0     H29284  10.122   4.009   3.981 -1.8141 -0.1445 -0.1159
  217MOL0     H29285  10.010   3.932   3.786  2.3485  4.3359  2.6110
  217MOL0     H29286   9.992   3.816   3.922 -0.3201  0.2458 -0.0373
  217MOL0     H29287  10.218   3.744   3.759 -0.5937  0.0520  0.4206
  217MOL0     H29288  10.084   3.755   3.654  3.2565 -1.2075 -0.8589
  217MOL0     H29289  10.134   3.538   3.752  0.4300  0.6923 -0.0827
  217MOL0     H29290  10.103   3.586   3.916 -2.0411 -0.7473  0.8261
  217MOL0     H29291   9.735   3.507   3.716  1.4972 -2.8646  0.6884
  217MOL0     H29292  10.318   4.103   4.078 -1.2011 -1.1984 -0.9474
  217MOL0     H29293  10.602   4.259   4.122 -0.5989 -0.6000 -2.2692
  217MOL0     H29294  10.427   4.259   4.162 -1.3680 -0.8461  2.0220
  217MOL0     H29295  10.547   4.215   4.285  0.8205 -0.0326 -0.9542
  218MOL0     O29296   4.563   3.071   4.863 -0.6170 -0.3588 -0.0062
  218MOL0     C29297   4.480   3.150   4.917 -0.5317  0.1883 -0.2333
  218MOL0     O29298   4.517   3.232   5.027 -0.5881  0.2764 -0.1769
  218MOL0     C29299   4.651   3.237   5.072  0.7126  0.0749 -0.6960
  218MOL0     C29300   4.738   3.328   5.018 -0.3641 -1.1197  0.0560
  218MOL0     C29301   4.871   3.334   5.068 -0.1303 -0.0986  0.3585
  218MOL0     C29302   4.917   3.256   5.181 -0.1451  0.2150  0.2082
  218MOL0     O29303   5.042   3.263   5.236 -0.2523 -0.3433  0.8810
  218MOL0     C29304   5.143   3.317   5.147  0.7729  0.1350  0.3242
  218MOL0     C29305   5.280   3.294   5.207  0.4016  0.2000 -0.3623
  218MOL0     C29306   5.383   3.343   5.111  0.2876 -0.0389 -0.7874
  218MOL0     C29307   5.520   3.350   5.180  0.0324 -0.2204 -0.5196
  218MOL0     C29308   5.649   3.333   5.091  0.3633  0.4847  1.0801
  218MOL0     C29309   5.778   3.368   5.154 -0.2761 -1.0167 -0.3036
  218MOL0     C29310   5.814   3.273   5.271  0.1696  0.4776  0.6543
  218MOL0     C29311   5.958   3.312   5.317  0.7601 -0.1908 -0.4452
  218MOL0     N29312   6.049   3.293   5.204 -0.5124 -0.0959  0.0741
  218MOL0     C29313   6.116   3.390   5.126 -0.5627 -0.8123 -0.6291
  218MOL0     C29314   6.185   3.326   5.023 -0.3916 -0.1486 -0.7380
  218MOL0     C29315   6.269   3.400   4.927 -0.2200  0.8849 -0.4369
  218MOL0     C29316   6.268   3.312   4.802 -0.6079  0.1864 -0.0936
  218MOL0     C29317   6.318   3.380   4.683 -0.4201 -0.1463  0.7301
  218MOL0     C29318   6.475   3.361   4.679 -0.5835 -0.1161  0.1081
  218MOL0     O29319   6.516   3.218   4.674 -0.1120  0.0742  0.1522
  218MOL0     C29320   6.647   3.194   4.661 -0.5182  0.3614 -0.1643
  218MOL0     C29321   6.735   3.220   4.771 -0.0556 -0.9067  0.7344
  218MOL0     C29322   6.868   3.230   4.746 -0.5226  0.0041  0.5446
  218MOL0     C29323   6.924   3.188   4.619  0.1036 -0.8022  0.5394
  218MOL0     C29324   7.072   3.191   4.595 -0.5807 -0.9655 -0.1281
  218MOL0     O29325   7.112   3.191   4.463 -0.0192 -0.2809  0.4581
  218MOL0     C29326   7.238   3.206   4.420 -0.4549 -0.3724 -0.2998
  218MOL0     C29327   7.251   3.236   4.283 -0.1693  0.3815  0.3830
  218MOL0     C29328   7.373   3.224   4.218 -0.5171 -0.1700  0.3267
  218MOL0     C29329   7.489   3.180   4.282  0.4628  0.3691 -1.2554
  218MOL0     O29330   7.608   3.175   4.216 -0.0374  0.2512  1.0024
  218MOL0     C29331   7.627   3.246   4.088  1.4413 -0.2840 -0.5683
  218MOL0     C29332   7.772   3.217   4.048  0.0112 -0.0818 -0.5302
  218MOL0     C29333   7.885   3.292   4.134  0.1646 -0.0998  0.5689
  218MOL0     C29334   8.030   3.278   4.094 -0.4342 -0.1867 -0.3160
  218MOL0     C29335   8.115   3.351   4.192  0.4942 -0.0496 -0.9914
  218MOL0     C29336   8.259   3.309   4.189 -1.2018  0.2458 -0.0729
  218MOL0     C29337   8.348   3.385   4.282  0.1857 -0.0278  0.0787
  218MOL0     C29338   8.482   3.317   4.291 -0.4841  0.5215 -0.1332
  218MOL0    Cl29339   8.594   3.439   4.355  0.2151  0.1861  0.2648
  218MOL0     C29340   7.473   3.145   4.424 -0.8098  0.0475 -0.2160
  218MOL0     C29341   7.347   3.155   4.488  0.5572  0.3244 -0.4594
  218MOL0     O29342   7.146   3.218   4.694  0.5857 -0.2979  0.1603
  218MOL0     C29343   6.837   3.146   4.520  0.0091 -0.0485  0.1877
  218MOL0     C29344   6.696   3.155   4.535 -0.9415  0.0027 -0.3083
  218MOL0     N29345   6.192   3.195   5.060 -0.4657  0.2015 -0.9044
  218MOL0     N29346   6.107   3.173   5.160  0.5608 -0.2377  0.1696
  218MOL0     C29347   4.821   3.163   5.226 -0.6166 -0.1781 -0.0641
  218MOL0     C29348   4.697   3.151   5.170  0.8386  0.3078  0.1325
  218MOL0     C29349   4.341   3.147   4.868 -0.4471  0.0322 -0.3450
  218MOL0     C29350   4.317   3.099   4.739  0.1247  0.4061 -0.3040
  218MOL0     C29351   4.187   3.087   4.690  0.0556  0.5396  0.3189
  218MOL0     C29352   4.083   3.127   4.771  0.3768 -0.4846  0.4165
  218MOL0     O29353   3.958   3.098   4.719 -0.0331 -0.3020 -0.0220
  218MOL0     C29354   3.842   3.135   4.809  0.3844  0.1405 -0.1873
  218MOL0     C29355   3.820   3.026   4.920 -1.1904 -0.3514  0.0207
  218MOL0     C29356   3.732   3.076   5.030  0.0575  1.2799 -0.1288
  218MOL0     C29357   3.636   2.971   5.086 -0.0451  0.3957 -0.1233
  218MOL0     C29358   3.698   2.873   5.173 -0.3512 -0.4664  0.3675
  218MOL0     C29359   3.766   2.823   5.254  0.6934 -0.4357 -0.4364
  218MOL0     C29360   4.099   3.189   4.892 -0.1504  0.7273 -0.3864
  218MOL0     C29361   4.223   3.202   4.942 -0.4284  0.0234 -0.4894
  218MOL0     C29362   4.228   3.250   5.085 -0.1126  0.6763  0.8364
  218MOL0     H29363   4.707   3.401   4.944  2.1701  1.7961  1.6410
  218MOL0     H29364   4.936   3.414   5.033 -0.2333 -0.5336 -0.8682
  218MOL0     H29365   5.145   3.264   5.052 -1.2295 -0.5791  0.6230
  218MOL0     H29366   5.116   3.420   5.120 -0.1459  0.4134  2.0783
  218MOL0     H29367   5.297   3.189   5.232 -0.9383  0.0922  0.1746
  218MOL0     H29368   5.286   3.345   5.304 -0.5764 -3.6900  1.9329
  218MOL0     H29369   5.340   3.441   5.087 -0.9399  0.4340  2.7905
  218MOL0     H29370   5.383   3.276   5.024 -2.3828 -0.1054 -0.8349
  218MOL0     H29371   5.527   3.448   5.228  1.1320 -0.6423  0.2319
  218MOL0     H29372   5.516   3.277   5.261  0.6127 -0.4931 -0.7277
  218MOL0     H29373   5.661   3.229   5.061 -1.0655  0.5449  0.1812
  218MOL0     H29374   5.636   3.399   5.004 -1.4790 -1.0557  0.1085
  218MOL0     H29375   5.850   3.347   5.074  1.7715 -2.7191  1.8402
  218MOL0     H29376   5.785   3.472   5.189 -0.7156 -1.2289  0.4385
  218MOL0     H29377   5.819   3.168   5.240  2.6624  0.5812  0.4818
  218MOL0     H29378   5.741   3.281   5.352  0.5836 -0.5688  1.1482
  218MOL0     H29379   5.967   3.414   5.353  0.2544 -0.6251  0.9574
  218MOL0     H29380   5.988   3.259   5.408  4.3114  1.5054 -0.4710
  218MOL0     H29381   6.107   3.497   5.143  0.3035 -0.4986 -2.0042
  218MOL0     H29382   6.229   3.500   4.907 -1.6868  0.5357  0.6263
  218MOL0     H29383   6.370   3.416   4.966  0.4607  2.1925 -2.5617
  218MOL0     H29384   6.322   3.222   4.832  0.5058  1.7094  2.8878
  218MOL0     H29385   6.163   3.295   4.775 -0.6353  0.3069 -0.0629
  218MOL0     H29386   6.287   3.485   4.685  0.0074  0.0703 -1.2848
  218MOL0     H29387   6.270   3.332   4.597  0.4371 -1.3945  0.9336
  218MOL0     H29388   6.523   3.404   4.767 -0.1277  2.9044 -1.4896
  218MOL0     H29389   6.516   3.400   4.586  0.6869 -2.4698 -0.4002
  218MOL0     H29390   6.690   3.230   4.869 -1.1147 -1.4019  0.3189
  218MOL0     H29391   6.939   3.255   4.825  2.3090 -1.5093 -1.3308
  218MOL0     H29392   7.167   3.258   4.219  1.0172  2.5341 -0.5441
  218MOL0     H29393   7.380   3.251   4.113 -0.5889 -1.5485 -0.0474
  218MOL0     H29394   7.563   3.206   4.009 -0.7872  1.7969  0.0542
  218MOL0     H29395   7.602   3.353   4.096 -1.7892 -1.0498  1.0432
  218MOL0     H29396   7.788   3.109   4.047 -1.0966 -0.3435 -4.3750
  218MOL0     H29397   7.770   3.252   3.944 -1.1112  0.8438 -0.2139
  218MOL0     H29398   7.860   3.398   4.126  2.2858  0.3623 -0.8961
  218MOL0     H29399   7.880   3.258   4.238  2.3355 -0.7124  0.5219
  218MOL0     H29400   8.038   3.317   3.992 -1.4456 -1.0082 -0.7173
  218MOL0     H29401   8.049   3.171   4.099  1.2419  0.1092  0.7088
  218MOL0     H29402   8.076   3.346   4.294 -2.3069 -1.6092 -2.0245
  218MOL0     H29403   8.118   3.457   4.165 -0.4189 -0.0268 -1.0266
  218MOL0     H29404   8.282   3.203   4.205  4.2304  1.4233  2.3363
  218MOL0     H29405   8.293   3.340   4.090  2.7373  0.4264  1.1592
  218MOL0     H29406   8.300   3.394   4.380  2.2687  0.8523  1.0804
  218MOL0     H29407   8.358   3.483   4.233 -0.7172 -0.4425 -0.9734
  218MOL0     H29408   8.487   3.231   4.357  2.3843  0.0289 -0.8551
  218MOL0     H29409   8.507   3.292   4.188  0.2798 -1.0152  0.3958
  218MOL0     H29410   7.561   3.110   4.477  2.3756  1.5914 -3.9710
  218MOL0     H29411   7.339   3.110   4.586 -0.5383 -3.2141 -2.0239
  218MOL0     H29412   6.865   3.116   4.419 -0.3020  1.3317 -0.3366
  218MOL0     H29413   6.635   3.132   4.449 -2.1338  0.9912  0.2391
  218MOL0     H29414   4.853   3.093   5.302  0.2449 -0.9870 -1.1390
  218MOL0     H29415   4.632   3.069   5.200  2.6115 -2.0018 -1.9486
  218MOL0     H29416   4.399   3.069   4.675  0.9564  0.8362  0.5296
  218MOL0     H29417   4.172   3.021   4.606 -1.1169  0.8834  0.2394
  218MOL0     H29418   3.753   3.135   4.746 -0.1893 -2.7307  0.4863
  218MOL0     H29419   3.860   3.235   4.849 -0.5862 -0.2659  1.3655
  218MOL0     H29420   3.918   3.002   4.963  0.2102  3.0347 -0.9498
  218MOL0     H29421   3.788   2.933   4.872  1.7610 -1.4959  0.0637
  218MOL0     H29422   3.664   3.149   4.985 -1.8003 -0.8364 -0.9748
  218MOL0     H29423   3.793   3.118   5.110  1.7269  0.6688 -1.0325
  218MOL0     H29424   3.568   3.018   5.158 -0.2195  0.2091 -0.1634
  218MOL0     H29425   3.579   2.930   5.002  3.1590  1.4350 -3.0239
  218MOL0     H29426   3.809   2.780   5.341 -3.3531 -0.0713  2.0218
  218MOL0     H29427   4.023   3.236   4.952 -1.7924 -2.4506  0.2607
  218MOL0     H29428   4.283   3.345   5.094 -0.3698  1.2904 -2.6185
  218MOL0     H29429   4.127   3.285   5.107 -0.9893  2.9753 -5.0283
  218MOL0     H29430   4.242   3.175   5.163  0.2756 -1.4187 -1.1556
  219MOL0     O29431  10.109  10.708   6.370 -0.2433 -0.0978  0.3150
  219MOL0     C29432  10.035  10.686   6.468 -0.1671  0.2253  0.7017
  219MOL0     O29433  10.074  10.618   6.577 -0.1387  0.3271 -0.3617
  219MOL0     C29434  10.208  10.575   6.588  0.4704 -0.8469  0.3565
  219MOL0     C29435  10.311  10.660   6.640  0.3685 -0.0180 -0.0634
  219MOL0     C29436  10.434  10.601   6.667  0.3524 -0.7442 -0.7944
  219MOL0     C29437  10.457  10.465   6.640  0.0880  0.3513  0.1767
  219MOL0     O29438  10.585  10.416   6.647 -0.5361 -0.2302  0.0422
  219MOL0     C29439  10.705  10.499   6.665  0.2696 -0.4892 -0.2507
  219MOL0     C29440  10.831  10.422   6.665 -0.5709  0.5362 -0.1735
  219MOL0     C29441  10.832  10.326   6.551 -0.5367  0.0902 -0.5379
  219MOL0     C29442  10.968  10.262   6.519 -0.5816  0.3521 -0.8565
  219MOL0     C29443  11.053  10.235   6.647  0.1746 -0.1229 -0.3278
  219MOL0     C29444  11.162  10.141   6.622 -0.4884  0.6045 -0.1141
  219MOL0     C29445  11.241  10.113   6.749  0.6585 -0.4254  0.1360
  219MOL0     C29446  11.310   9.973   6.742  0.1435 -0.1621  0.0209
  219MOL0     N29447  11.442   9.993   6.799  0.6479  0.3457  0.0504
  219MOL0     C29448  11.555  10.047   6.734  0.0066  0.3815 -0.1457
  219MOL0     C29449  11.657   9.997   6.807  0.0755 -0.3399  0.4544
  219MOL0     C29450  11.802  10.033   6.791 -0.0898  0.1014  0.5815
  219MOL0     C29451  11.900   9.953   6.875 -0.8457 -0.5754 -0.5706
  219MOL0     C29452  12.044   9.976   6.839 -0.0708 -0.1621  0.8233
  219MOL0     C29453  12.139   9.949   6.956 -0.4558  0.2131 -0.5809
  219MOL0     O29454  12.271   9.939   6.907  0.8253 -0.2201  0.1209
  219MOL0     C29455  12.371   9.907   6.996  0.3292 -0.0972  0.2560
  219MOL0     C29456  12.497   9.940   6.952  0.2573  0.1917 -0.2995
  219MOL0     C29457  12.602   9.923   7.037 -0.8285  0.4867  0.7506
  219MOL0     C29458  12.590   9.869   7.168 -0.9929 -0.3466  0.0592
  219MOL0     C29459  12.707   9.845   7.254  0.4478  0.3459  0.1350
  219MOL0     O29460  12.683   9.786   7.371  0.4889  0.0642  0.1156
  219MOL0     C29461  12.788   9.774   7.455  0.2547  0.4616 -0.4856
  219MOL0     C29462  12.792   9.869   7.554  0.8558 -0.8190  0.2663
  219MOL0     C29463  12.886   9.867   7.654 -0.2834  0.2414  0.1258
  219MOL0     C29464  12.969   9.748   7.669 -0.9841  0.0105  0.1879
  219MOL0     O29465  13.063   9.749   7.771  0.0897 -0.3926  0.6077
  219MOL0     C29466  13.114   9.623   7.816  0.1037  0.0917  0.0133
  219MOL0     C29467  13.181   9.663   7.944 -0.5388 -0.4431 -0.7829
  219MOL0     C29468  13.286   9.552   7.989  0.0572 -0.1953  0.3575
  219MOL0     C29469  13.370   9.588   8.110 -0.1862 -0.1132 -0.2369
  219MOL0     C29470  13.495   9.665   8.067  0.4395 -0.1316  0.2186
  219MOL0     C29471  13.612   9.658   8.175  0.2691 -0.0640 -0.1674
  219MOL0     C29472  13.552   9.706   8.317  0.9057 -0.4743  0.4251
  219MOL0     C29473  13.644   9.684   8.440  0.2882 -0.6082 -0.3607
  219MOL0    Cl29474  13.811   9.741   8.410  0.3393  0.6853 -0.0215
  219MOL0     C29475  12.964   9.648   7.577  0.1629  0.4021  0.9835
  219MOL0     C29476  12.883   9.666   7.463 -0.0972  0.0232 -0.1938
  219MOL0     O29477  12.817   9.876   7.216 -1.0609  0.1486 -0.1116
  219MOL0     C29478  12.464   9.838   7.218 -0.0463 -0.0461  0.3622
  219MOL0     C29479  12.354   9.845   7.125  0.2984 -0.0345 -0.9630
  219MOL0     N29480  11.607   9.929   6.918 -0.6900  0.5605  0.0525
  219MOL0     N29481  11.475   9.929   6.916 -0.1910  0.0780  0.6106
  219MOL0     C29482  10.347  10.379   6.592 -1.1464 -0.2657  0.1584
  219MOL0     C29483  10.229  10.441   6.575 -0.8274 -0.2418 -0.2644
  219MOL0     C29484   9.896  10.744   6.476  0.5099 -0.0076 -0.8526
  219MOL0     C29485   9.842  10.784   6.352 -0.1674  0.4420  0.1154
  219MOL0     C29486   9.715  10.840   6.345  0.1772  0.1248 -0.2600
  219MOL0     C29487   9.636  10.856   6.452 -0.9603 -0.4445 -1.2323
  219MOL0     O29488   9.511  10.913   6.439  0.8391 -0.6893 -0.0795
  219MOL0     C29489   9.429  10.938   6.555  0.2259  0.3685  0.5931
  219MOL0     C29490   9.289  10.978   6.513  0.4800 -0.3231 -0.5253
  219MOL0     C29491   9.206  10.872   6.439  0.5465 -0.1743  0.2717
  219MOL0     C29492   9.058  10.907   6.432  0.3313 -0.1075 -0.0841
  219MOL0     C29493   8.978  10.793   6.398  0.7524 -0.0191 -1.0506
  219MOL0     C29494   8.904  10.698   6.365  0.4308 -0.0682  0.4732
  219MOL0     C29495   9.694  10.816   6.579  0.1458  0.2598 -0.2580
  219MOL0     C29496   9.820  10.768   6.592 -0.4409  0.8572 -0.0090
  219MOL0     C29497   9.878  10.753   6.734 -0.0220  0.3395  0.6297
  219MOL0     H29498  10.293  10.761   6.675  0.7597 -0.1513  0.5542
  219MOL0     H29499  10.508  10.669   6.709  2.1815 -2.6152 -0.7625
  219MOL0     H29500  10.707  10.577   6.589 -1.6948 -1.7106 -1.6456
  219MOL0     H29501  10.701  10.546   6.763  4.5644 -1.1528  0.4755
  219MOL0     H29502  10.840  10.379   6.765 -0.6010  1.5675  0.2945
  219MOL0     H29503  10.914  10.494   6.665  0.3039 -0.4599 -0.4467
  219MOL0     H29504  10.792  10.364   6.456 -0.4497 -0.0824 -0.6442
  219MOL0     H29505  10.764  10.249   6.589 -0.3048 -1.0702 -2.3712
  219MOL0     H29506  10.953  10.159   6.485  1.6823 -0.0847 -0.7456
  219MOL0     H29507  11.022  10.317   6.442 -0.8591 -0.0873 -1.3691
  219MOL0     H29508  11.094  10.326   6.692 -0.2100  0.0392 -0.3038
  219MOL0     H29509  10.991  10.183   6.721 -0.9265  0.3898 -0.8608
  219MOL0     H29510  11.114  10.050   6.584  1.1980  0.3656 -1.8718
  219MOL0     H29511  11.227  10.178   6.541 -2.4110  2.1827 -1.0075
  219MOL0     H29512  11.172  10.101   6.834  0.1392 -1.2700 -0.3878
  219MOL0     H29513  11.306  10.198   6.774 -1.1838  1.1900 -0.2895
  219MOL0     H29514  11.246   9.903   6.795 -1.2679  0.2768 -1.0204
  219MOL0     H29515  11.306   9.925   6.643  1.5394  0.1191 -0.1970
  219MOL0     H29516  11.571  10.115   6.651 -0.3677  0.4689 -0.1463
  219MOL0     H29517  11.820  10.020   6.684 -0.8624  1.2535  0.2943
  219MOL0     H29518  11.820  10.140   6.802 -0.8392  0.6353 -2.4408
  219MOL0     H29519  11.881   9.984   6.978 -0.8159 -1.4553 -0.2882
  219MOL0     H29520  11.881   9.846   6.862  0.1732 -0.4919 -3.5687
  219MOL0     H29521  12.045  10.081   6.808 -1.0841  0.4930  2.8808
  219MOL0     H29522  12.066   9.908   6.755 -2.4661 -0.1124  0.0628
  219MOL0     H29523  12.104   9.864   7.014  5.2172 -1.0617  1.5159
  219MOL0     H29524  12.141  10.032   7.027  0.6559 -0.1899 -0.1322
  219MOL0     H29525  12.519   9.976   6.852  1.6444 -0.8680 -0.4122
  219MOL0     H29526  12.697   9.934   6.986 -0.2275 -2.3078  1.0991
  219MOL0     H29527  12.725   9.954   7.555  1.8200 -0.0362  0.5502
  219MOL0     H29528  12.896   9.952   7.721  1.2797  0.0716  0.1413
  219MOL0     H29529  13.026   9.560   7.834  0.9939 -1.1652  0.0702
  219MOL0     H29530  13.173   9.567   7.743 -1.5114 -0.6651 -0.7561
  219MOL0     H29531  13.236   9.757   7.936 -1.0131  0.0686  1.3604
  219MOL0     H29532  13.110   9.671   8.027 -0.2775  1.7329 -0.7277
  219MOL0     H29533  13.229   9.462   8.012  0.4360  0.1137  2.7633
  219MOL0     H29534  13.343   9.533   7.897 -0.5122  0.7888 -0.2086
  219MOL0     H29535  13.398   9.500   8.169 -1.1193  0.5748  1.2738
  219MOL0     H29536  13.308   9.652   8.173  0.8856 -0.3859  1.1370
  219MOL0     H29537  13.459   9.765   8.044 -1.4202 -1.0945 -1.2728
  219MOL0     H29538  13.530   9.630   7.970  1.1419  1.5662 -0.1856
  219MOL0     H29539  13.648   9.555   8.172 -0.8309 -0.4501 -0.9208
  219MOL0     H29540  13.689   9.720   8.128  0.4422 -1.0706 -1.2569
  219MOL0     H29541  13.456   9.656   8.338 -0.3701  0.5823 -2.3427
  219MOL0     H29542  13.531   9.813   8.313 -1.0323 -0.8147  0.2273
  219MOL0     H29543  13.604   9.735   8.528  2.3541  0.5553 -0.0188
  219MOL0     H29544  13.655   9.578   8.466 -2.0669  0.1179  4.9468
  219MOL0     H29545  13.014   9.552   7.588 -2.4496 -1.2119 -0.1034
  219MOL0     H29546  12.871   9.587   7.389  1.0025  0.0100 -0.3842
  219MOL0     H29547  12.443   9.794   7.315 -0.3595 -0.0686  0.2856
  219MOL0     H29548  12.257   9.814   7.161  0.6987  1.9386  2.1056
  219MOL0     H29549  10.361  10.274   6.568 -1.9201 -0.0070 -1.5508
  219MOL0     H29550  10.139  10.388   6.545 -1.0444 -0.7048  1.1215
  219MOL0     H29551   9.905  10.785   6.264  4.9892 -1.4912  3.2734
  219MOL0     H29552   9.678  10.875   6.248  2.3672 -1.5559 -1.7905
  219MOL0     H29553   9.479  11.027   6.594 -0.7148  1.0533  0.2835
  219MOL0     H29554   9.429  10.850   6.620 -1.1775  0.7866  1.1912
  219MOL0     H29555   9.305  11.058   6.441 -2.5634 -0.2302 -1.2221
  219MOL0     H29556   9.245  11.009   6.609  2.4345 -0.0356  0.3273
  219MOL0     H29557   9.221  10.778   6.494  1.2792 -1.0121 -1.3083
  219MOL0     H29558   9.233  10.865   6.334 -0.4858 -1.8837  0.0662
  219MOL0     H29559   9.013  10.945   6.524 -2.3781 -3.7775  0.3073
  219MOL0     H29560   9.051  10.980   6.350 -1.4038 -1.2310 -0.9775
  219MOL0     H29561   8.862  10.604   6.334  2.2877 -0.6182 -0.5563
  219MOL0     H29562   9.639  10.829   6.672  2.0052  0.7081  0.8324
  219MOL0     H29563   9.979  10.794   6.745  0.1443 -0.0924  0.7206
  219MOL0     H29564   9.816  10.812   6.803 -0.6652  0.4836 -0.0543
  219MOL0     H29565   9.880  10.646   6.756 -0.6755  0.4619  1.3395
  220MOL0     O29566  10.427   2.242   6.036 -0.4015  0.4962 -0.0135
  220MOL0     C29567  10.356   2.338   6.052  0.8014 -0.3662  1.0456
  220MOL0     O29568  10.397   2.462   6.096 -0.4663 -0.1383  0.0287
  220MOL0     C29569  10.528   2.500   6.082  0.1479 -0.6499  0.5853
  220MOL0     C29570  10.584   2.498   5.957 -0.2661 -0.8143 -0.5122
  220MOL0     C29571  10.720   2.539   5.945  0.6504 -0.7893 -0.1501
  220MOL0     C29572  10.795   2.580   6.050 -0.0483  0.9534  0.2160
  220MOL0     O29573  10.921   2.625   6.019  0.2841  0.1474  0.9032
  220MOL0     C29574  10.972   2.746   6.089 -0.5551 -0.2621  0.3617
  220MOL0     C29575  11.091   2.811   6.014 -0.0873 -0.0494 -0.4704
  220MOL0     C29576  11.200   2.702   6.017 -0.6853 -0.1080  0.5562
  220MOL0     C29577  11.280   2.709   6.148  0.3455  0.4916 -0.2455
  220MOL0     C29578  11.418   2.637   6.144  0.1443 -0.2693  0.8422
  220MOL0     C29579  11.432   2.485   6.169  0.1369  0.8151 -0.4697
  220MOL0     C29580  11.571   2.439   6.131  0.1540 -0.2240  0.5123
  220MOL0     C29581  11.576   2.289   6.125  0.3296  0.6440  0.5588
  220MOL0     N29582  11.702   2.233   6.067  0.2276 -0.0760 -0.2924
  220MOL0     C29583  11.763   2.260   5.950 -0.1065  0.7851  0.3878
  220MOL0     C29584  11.889   2.218   5.964  0.5567  0.1614 -0.0687
  220MOL0     C29585  11.998   2.250   5.864 -0.3811 -0.0171  0.1462
  220MOL0     C29586  12.131   2.265   5.936  0.6472  0.1499  0.4595
  220MOL0     C29587  12.134   2.396   6.013 -0.7423 -0.2658  0.0920
  220MOL0     C29588  12.284   2.437   6.022 -0.5022  0.3240  0.2948
  220MOL0     O29589  12.280   2.555   6.089  0.2550  0.4655 -0.2944
  220MOL0     C29590  12.399   2.604   6.146  0.1406 -0.2049 -0.4154
  220MOL0     C29591  12.389   2.680   6.260  0.5057  0.2291  0.5024
  220MOL0     C29592  12.500   2.714   6.338 -0.1616  0.2157  0.2219
  220MOL0     C29593  12.628   2.686   6.292  0.8565  0.5458 -0.0854
  220MOL0     C29594  12.752   2.712   6.367  0.0993  0.1351  0.2914
  220MOL0     O29595  12.871   2.702   6.294  0.7220 -0.3004  0.8910
  220MOL0     C29596  12.992   2.734   6.343 -0.2819 -0.2623 -0.6451
  220MOL0     C29597  13.096   2.770   6.253 -0.3754  0.6658 -0.2670
  220MOL0     C29598  13.225   2.808   6.296 -0.1876  0.4491 -0.3782
  220MOL0     C29599  13.271   2.797   6.433  0.6048 -0.2729  0.4041
  220MOL0     O29600  13.399   2.830   6.486 -0.1041 -0.0607  0.5355
  220MOL0     C29601  13.496   2.884   6.391 -0.4485 -0.3888 -0.4586
  220MOL0     C29602  13.612   2.956   6.473  0.3054  0.3261  0.0040
  220MOL0     C29603  13.549   3.043   6.585 -0.8529 -0.8001  0.9608
  220MOL0     C29604  13.434   3.132   6.526 -0.8579 -0.3470  0.4681
  220MOL0     C29605  13.356   3.199   6.640 -0.9186  0.2914 -0.3620
  220MOL0     C29606  13.228   3.259   6.586  0.3823 -0.1736  0.3054
  220MOL0     C29607  13.145   3.329   6.687 -0.3664  0.1164  0.0814
  220MOL0     C29608  13.040   3.419   6.618  0.5221 -0.4907  0.1120
  220MOL0    Cl29609  12.951   3.322   6.496 -0.2532  0.1915 -0.2448
  220MOL0     C29610  13.168   2.756   6.519 -0.0270 -0.0490  0.3038
  220MOL0     C29611  13.033   2.731   6.484 -0.3159 -0.0777  0.5109
  220MOL0     O29612  12.744   2.748   6.484 -0.0750  0.1641 -0.1428
  220MOL0     C29613  12.637   2.616   6.165 -0.3121 -1.3672  0.3653
  220MOL0     C29614  12.526   2.575   6.090  0.1807  0.5344 -0.2870
  220MOL0     N29615  11.898   2.154   6.089 -0.4962  0.4804 -0.2315
  220MOL0     N29616  11.788   2.172   6.149  0.1542  0.2029  0.2448
  220MOL0     C29617  10.744   2.564   6.174 -0.5500  0.5321 -0.5775
  220MOL0     C29618  10.606   2.536   6.192  0.1902 -0.0391 -0.4035
  220MOL0     C29619  10.211   2.328   6.015 -0.3043 -0.5778 -0.1942
  220MOL0     C29620  10.143   2.452   5.981 -0.7403 -0.0903 -0.5810
  220MOL0     C29621  10.008   2.447   5.952  1.0870  0.0139  0.5588
  220MOL0     C29622   9.928   2.324   5.964  0.6308 -0.4308  0.6095
  220MOL0     O29623   9.795   2.332   5.923 -0.2598 -0.2232 -0.2022
  220MOL0     C29624   9.695   2.248   5.989 -1.2526 -0.8811 -1.1315
  220MOL0     C29625   9.553   2.311   5.993 -0.7786  0.5589 -0.7650
  220MOL0     C29626   9.446   2.214   6.034  0.0210  0.8628 -0.3091
  220MOL0     C29627   9.451   2.177   6.186 -0.4296 -0.3332 -0.5179
  220MOL0     C29628   9.399   2.042   6.219 -0.4539 -0.7241 -0.6650
  220MOL0     C29629   9.377   1.927   6.250  0.6758 -0.7927 -0.0960
  220MOL0     C29630   9.993   2.214   5.994 -0.8637 -0.7600 -0.1655
  220MOL0     C29631  10.132   2.209   6.014 -0.7638 -0.1249 -0.0070
  220MOL0     C29632  10.203   2.070   6.042  0.3431 -0.4171 -0.5180
  220MOL0     H29633  10.524   2.474   5.870 -2.9655  2.4199  0.2485
  220MOL0     H29634  10.751   2.537   5.841 -0.1819 -2.0781 -0.3940
  220MOL0     H29635  10.888   2.816   6.096 -0.2913  0.3254 -1.5730
  220MOL0     H29636  11.009   2.719   6.188  2.2483  0.0839 -0.4957
  220MOL0     H29637  11.113   2.907   6.062  0.3290 -0.4119  0.0791
  220MOL0     H29638  11.073   2.831   5.908 -0.0044 -0.1222 -0.4989
  220MOL0     H29639  11.265   2.710   5.929 -0.1402 -2.0492  0.7582
  220MOL0     H29640  11.159   2.601   6.013  0.8250 -0.7510  0.7466
  220MOL0     H29641  11.282   2.811   6.187 -1.0807  0.0324  1.1269
  220MOL0     H29642  11.221   2.659   6.226  0.2858  0.2502 -0.4448
  220MOL0     H29643  11.466   2.660   6.049  3.6543 -4.0187  1.4239
  220MOL0     H29644  11.474   2.678   6.228 -0.0063  2.2004 -0.1825
  220MOL0     H29645  11.415   2.460   6.274  2.7779  1.4448  0.1915
  220MOL0     H29646  11.362   2.430   6.105 -0.3769  0.1455  0.6416
  220MOL0     H29647  11.649   2.483   6.194  2.4043  0.2993 -2.4337
  220MOL0     H29648  11.604   2.473   6.033 -0.2958  0.2187  0.5157
  220MOL0     H29649  11.567   2.251   6.227  0.4036  1.7458  0.9877
  220MOL0     H29650  11.502   2.247   6.055  2.5251 -1.9412 -0.3880
  220MOL0     H29651  11.744   2.316   5.859  0.4401  3.4148  1.7936
  220MOL0     H29652  12.003   2.169   5.791 -0.3669  0.4021 -0.3241
  220MOL0     H29653  11.968   2.337   5.804  0.6477  0.7886  0.7665
  220MOL0     H29654  12.147   2.182   6.005  1.5662 -1.2088 -1.2944
  220MOL0     H29655  12.206   2.268   5.856  2.6553 -0.7709  2.1887
  220MOL0     H29656  12.088   2.394   6.112  0.9571 -0.4020  0.9118
  220MOL0     H29657  12.090   2.473   5.949 -0.2945  0.5050  0.6958
  220MOL0     H29658  12.339   2.452   5.929 -1.0249 -0.0845 -0.0845
  220MOL0     H29659  12.338   2.359   6.077  0.7729  0.0997 -1.2002
  220MOL0     H29660  12.294   2.711   6.303  1.0182  1.0535  1.0783
  220MOL0     H29661  12.500   2.763   6.435  2.0245  3.0775 -1.0692
  220MOL0     H29662  13.090   2.779   6.145  3.4632  0.4717 -0.6349
  220MOL0     H29663  13.292   2.848   6.220 -0.5970  0.3626 -0.7920
  220MOL0     H29664  13.540   2.797   6.343 -0.6735 -0.4527 -0.5500
  220MOL0     H29665  13.446   2.943   6.314 -0.3850 -0.5683 -0.6372
  220MOL0     H29666  13.661   2.875   6.528  0.2537  1.1647  1.3393
  220MOL0     H29667  13.673   3.003   6.395 -1.0928 -2.5576 -3.0267
  220MOL0     H29668  13.511   2.984   6.668 -0.4223 -1.8924  0.4044
  220MOL0     H29669  13.626   3.103   6.635 -0.1757 -0.4931 -0.3782
  220MOL0     H29670  13.357   3.091   6.459 -0.6360  0.6813 -0.4554
  220MOL0     H29671  13.475   3.209   6.460  0.7337 -2.5065 -1.2294
  220MOL0     H29672  13.421   3.273   6.687  0.9114 -0.7859 -1.1075
  220MOL0     H29673  13.327   3.118   6.709 -0.7493  1.0598  0.6449
  220MOL0     H29674  13.249   3.336   6.511 -0.8769  0.5271  0.6245
  220MOL0     H29675  13.170   3.185   6.530 -0.6166 -0.3980  1.5783
  220MOL0     H29676  13.211   3.398   6.740 -0.2373 -1.4323  2.0357
  220MOL0     H29677  13.097   3.264   6.761 -1.9342  0.0893 -0.9201
  220MOL0     H29678  12.969   3.454   6.693 -0.3488 -1.3154 -0.3248
  220MOL0     H29679  13.096   3.497   6.565  0.2570  0.3061  0.9616
  220MOL0     H29680  13.185   2.754   6.626 -0.1525 -0.4649  0.3211
  220MOL0     H29681  12.953   2.710   6.553 -2.4831 -1.8020 -2.3165
  220MOL0     H29682  12.736   2.595   6.126  0.7029  1.4851  1.1421
  220MOL0     H29683  12.527   2.515   5.999 -4.0289  0.1798 -0.3004
  220MOL0     H29684  10.798   2.585   6.266  1.3102  1.7005 -1.8577
  220MOL0     H29685  10.582   2.527   6.297  1.0514  1.7738 -0.0142
  220MOL0     H29686  10.187   2.550   5.991 -2.3940  0.4672  2.0955
  220MOL0     H29687   9.951   2.534   5.920 -1.9910 -2.3459 -0.9354
  220MOL0     H29688   9.730   2.230   6.091 -0.3754  2.0515 -0.8186
  220MOL0     H29689   9.684   2.155   5.933  0.6597 -1.3080 -0.8733
  220MOL0     H29690   9.533   2.337   5.888  1.6415  0.7242 -1.2507
  220MOL0     H29691   9.556   2.393   6.066 -0.2589  1.3890 -1.6906
  220MOL0     H29692   9.453   2.124   5.972  0.3359  2.1045 -2.1159
  220MOL0     H29693   9.347   2.246   6.001 -0.0949 -3.2552 -5.1011
  220MOL0     H29694   9.552   2.185   6.227 -1.7284  1.7052  2.6288
  220MOL0     H29695   9.396   2.252   6.243  0.2672  1.1470 -1.7161
  220MOL0     H29696   9.355   1.825   6.274  1.9099 -1.0763 -0.0784
  220MOL0     H29697   9.941   2.121   6.012 -2.7076  0.8541  4.2865
  220MOL0     H29698  10.247   2.076   6.142  1.4092  5.0443 -1.0158
  220MOL0     H29699  10.134   1.985   6.041  0.1853 -0.2843 -0.7218
  220MOL0     H29700  10.265   2.051   5.954  1.1250 -1.2992  0.1977
  221MOL0     O29701   4.714   2.865   8.197  0.0406 -0.2501 -0.5224
  221MOL0     C29702   4.611   2.929   8.192  0.9528  0.0718  0.0248
  221MOL0     O29703   4.601   3.070   8.169 -0.2039  0.1573 -0.0070
  221MOL0     C29704   4.711   3.145   8.138  0.0438  0.3549  0.5908
  221MOL0     C29705   4.724   3.266   8.194  0.4651 -0.2003 -0.3448
  221MOL0     C29706   4.822   3.357   8.156  0.6107  0.2671 -0.5522
  221MOL0     C29707   4.923   3.317   8.058 -1.0214 -0.8869  0.2016
  221MOL0     O29708   5.028   3.392   8.020 -0.0503 -0.7255 -0.2421
  221MOL0     C29709   5.025   3.536   8.048  0.1744  0.7518 -0.1104
  221MOL0     C29710   5.148   3.593   7.982  0.1745  0.1078 -0.6741
  221MOL0     C29711   5.278   3.569   8.060 -0.2800 -1.0384  0.3178
  221MOL0     C29712   5.402   3.533   7.979 -0.1235 -0.5956  1.4450
  221MOL0     C29713   5.471   3.670   7.934  0.2364  0.5747 -0.2762
  221MOL0     C29714   5.589   3.643   7.847 -0.1111 -0.3084 -0.4934
  221MOL0     C29715   5.716   3.595   7.910 -0.2583  0.5416 -0.0148
  221MOL0     C29716   5.836   3.623   7.818 -0.1762 -0.1132  0.5307
  221MOL0     N29717   5.976   3.592   7.872  0.0007 -0.1063  0.4511
  221MOL0     C29718   6.044   3.675   7.958 -0.6609  0.1059  0.0500
  221MOL0     C29719   6.160   3.616   7.975 -0.0044  0.4259  0.4350
  221MOL0     C29720   6.276   3.667   8.064  1.4188 -0.7695  0.0077
  221MOL0     C29721   6.410   3.595   8.042 -0.3212 -0.5179 -0.8902
  221MOL0     C29722   6.527   3.674   8.123  0.5172  0.0939 -0.3700
  221MOL0     C29723   6.666   3.605   8.115  0.0191 -0.4142 -0.7192
  221MOL0     O29724   6.744   3.646   8.004 -0.4483 -0.4338  0.0782
  221MOL0     C29725   6.785   3.545   7.921  0.0068  0.2304  0.2848
  221MOL0     C29726   6.903   3.569   7.856 -0.2591 -0.7187 -0.2550
  221MOL0     C29727   6.952   3.476   7.759  0.4361 -0.1707  0.2696
  221MOL0     C29728   6.873   3.364   7.724 -0.4296  0.2421  0.5618
  221MOL0     C29729   6.910   3.265   7.615  0.2233 -0.0830  0.2300
  221MOL0     O29730   6.857   3.144   7.628  0.2347 -0.2984  0.2464
  221MOL0     C29731   6.879   3.046   7.529  0.7365  0.1000  0.8632
  221MOL0     C29732   6.920   2.911   7.542  0.2990 -0.2316  0.3255
  221MOL0     C29733   6.939   2.832   7.429 -0.1433  0.4186 -0.1649
  221MOL0     C29734   6.907   2.873   7.302 -0.1733 -0.2468  0.3856
  221MOL0     O29735   6.923   2.793   7.192 -0.5063 -0.1976  0.4026
  221MOL0     C29736   6.857   2.665   7.195 -0.8605 -1.4772  0.0229
  221MOL0     C29737   6.910   2.585   7.070  0.3026  1.0308 -1.2399
  221MOL0     C29738   6.877   2.652   6.940  0.1475  0.0544  0.2837
  221MOL0     C29739   6.732   2.617   6.897  0.1601  0.0033 -0.0458
  221MOL0     C29740   6.646   2.730   6.854  0.4787 -0.3320  0.4012
  221MOL0     C29741   6.575   2.799   6.976  0.1055 -0.6206  0.2269
  221MOL0     C29742   6.478   2.713   7.054 -0.2100 -0.6569 -0.3422
  221MOL0     C29743   6.378   2.786   7.148 -0.8131  0.9194 -0.4137
  221MOL0    Cl29744   6.269   2.665   7.210  0.3225  0.3540 -0.0001
  221MOL0     C29745   6.848   2.992   7.285  0.2367 -1.2611 -0.6261
  221MOL0     C29746   6.841   3.083   7.395  0.3559  0.0961  0.8739
  221MOL0     O29747   6.984   3.303   7.520 -0.0272  0.7409  0.1592
  221MOL0     C29748   6.745   3.347   7.780 -0.6383 -1.0240 -0.1356
  221MOL0     C29749   6.705   3.435   7.883  0.5670 -0.0256  0.5027
  221MOL0     N29750   6.156   3.488   7.918  0.2890 -0.5246 -0.1590
  221MOL0     N29751   6.042   3.473   7.856  0.1861  0.5454  0.4193
  221MOL0     C29752   4.915   3.189   8.001 -0.1029 -0.3056  0.1389
  221MOL0     C29753   4.806   3.110   8.036  0.5329 -0.1903  0.8727
  221MOL0     C29754   4.486   2.851   8.227 -0.7353  0.7579  0.1862
  221MOL0     C29755   4.390   2.926   8.298 -0.4165 -0.6687 -0.4540
  221MOL0     C29756   4.266   2.873   8.331  0.0150  0.6796  0.6350
  221MOL0     C29757   4.235   2.737   8.298 -0.2043 -0.4519  0.3611
  221MOL0     O29758   4.112   2.701   8.341  0.3406 -0.2366  0.6193
  221MOL0     C29759   4.077   2.562   8.353  0.6851  0.0410 -0.2023
  221MOL0     C29760   3.926   2.558   8.370  0.2793  0.3497 -0.6379
  221MOL0     C29761   3.849   2.515   8.244 -0.4005  0.5502 -0.2329
  221MOL0     C29762   3.716   2.572   8.227  0.3845 -0.4203 -0.9882
  221MOL0     C29763   3.630   2.521   8.331  0.0259  0.4327  0.3735
  221MOL0     C29764   3.541   2.480   8.399 -0.3498 -0.4039 -0.0739
  221MOL0     C29765   4.328   2.664   8.230 -0.8203 -0.0340 -0.5194
  221MOL0     C29766   4.455   2.724   8.196  0.8183 -0.5033  0.2298
  221MOL0     C29767   4.544   2.652   8.100 -0.0417  0.3413 -0.1888
  221MOL0     H29768   4.653   3.292   8.272  0.1404  1.0789 -1.0456
  221MOL0     H29769   4.809   3.459   8.192 -1.4804 -0.1006 -0.1335
  221MOL0     H29770   4.934   3.580   8.007  0.3661  3.5485  2.2082
  221MOL0     H29771   5.036   3.565   8.153  2.4346 -3.7270  1.1446
  221MOL0     H29772   5.133   3.700   7.971  1.9788  0.7137  1.9037
  221MOL0     H29773   5.141   3.554   7.879 -1.6027 -0.1750 -0.4702
  221MOL0     H29774   5.269   3.495   8.140 -2.1101  0.8681  1.9612
  221MOL0     H29775   5.298   3.657   8.121  0.5579 -0.6627 -0.4757
  221MOL0     H29776   5.474   3.471   8.032  1.0453  0.6481  1.3847
  221MOL0     H29777   5.377   3.476   7.889 -0.8080  1.9709 -0.1282
  221MOL0     H29778   5.401   3.724   7.869  2.0898  3.8666  0.2665
  221MOL0     H29779   5.491   3.722   8.028 -1.3296  1.2478 -0.2900
  221MOL0     H29780   5.555   3.570   7.774 -3.8437  0.7900 -0.0928
  221MOL0     H29781   5.605   3.744   7.806  0.0881  0.0587  0.4701
  221MOL0     H29782   5.704   3.491   7.943 -0.9733 -0.1128 -2.1877
  221MOL0     H29783   5.727   3.653   8.002  1.9312  0.3694 -0.1021
  221MOL0     H29784   5.814   3.567   7.726  0.3103  0.3981  0.0949
  221MOL0     H29785   5.842   3.730   7.798  0.3418 -0.3119 -0.4610
  221MOL0     H29786   6.036   3.779   7.987  1.2294  0.4883 -0.6647
  221MOL0     H29787   6.291   3.775   8.054  0.0752  0.0353  4.3490
  221MOL0     H29788   6.254   3.655   8.170  1.3011  2.3167  0.4497
  221MOL0     H29789   6.404   3.498   8.092 -0.9965  0.7661  1.6707
  221MOL0     H29790   6.443   3.585   7.938 -1.1999  0.8988 -1.3273
  221MOL0     H29791   6.502   3.674   8.229 -0.6062  2.4952 -0.5818
  221MOL0     H29792   6.543   3.778   8.096 -1.6844  0.8342  0.9214
  221MOL0     H29793   6.645   3.499   8.130 -1.2844 -0.2443 -1.1928
  221MOL0     H29794   6.725   3.639   8.200 -0.7261  1.7355 -0.9879
  221MOL0     H29795   6.951   3.665   7.872 -1.1799 -0.5734  2.0726
  221MOL0     H29796   7.048   3.496   7.712  0.6083 -2.2026 -0.3583
  221MOL0     H29797   6.949   2.884   7.643 -0.0485 -0.3345  0.3961
  221MOL0     H29798   6.994   2.739   7.436  0.4515  0.9135  3.5315
  221MOL0     H29799   6.892   2.612   7.284 -1.5275  0.2283  1.3784
  221MOL0     H29800   6.748   2.678   7.194 -0.8800 -1.6294  0.0943
  221MOL0     H29801   7.018   2.576   7.085  0.1792 -1.0157 -1.2936
  221MOL0     H29802   6.876   2.481   7.076 -2.2978  1.8717 -0.0418
  221MOL0     H29803   6.892   2.760   6.941 -0.6359  0.1697  1.4100
  221MOL0     H29804   6.939   2.608   6.862  0.8520 -3.1311  2.4265
  221MOL0     H29805   6.683   2.560   6.977  2.1490 -0.3013  1.0453
  221MOL0     H29806   6.733   2.551   6.810 -5.7817  0.3109 -0.7391
  221MOL0     H29807   6.570   2.698   6.783 -2.1941  0.8117  2.5571
  221MOL0     H29808   6.701   2.812   6.807  0.7774 -0.9868 -0.4161
  221MOL0     H29809   6.650   2.847   7.040 -0.7198 -0.3353  1.0051
  221MOL0     H29810   6.519   2.876   6.923  2.9597  1.6275  0.2285
  221MOL0     H29811   6.533   2.656   7.130 -2.4016 -2.0338  0.2940
  221MOL0     H29812   6.432   2.639   6.988  1.7649  1.5379 -4.6105
  221MOL0     H29813   6.426   2.835   7.233  0.6740 -2.1199  0.6523
  221MOL0     H29814   6.317   2.849   7.083  1.8210  3.7670 -0.3831
  221MOL0     H29815   6.820   3.023   7.185  0.5323  0.0086 -0.3275
  221MOL0     H29816   6.819   3.185   7.366 -0.3056 -1.1574 -3.9133
  221MOL0     H29817   6.669   3.271   7.760 -0.3950 -0.9765 -1.3232
  221MOL0     H29818   6.604   3.413   7.917 -0.0886 -0.4474 -1.5557
  221MOL0     H29819   4.990   3.147   7.934 -2.1966  0.2960 -2.7501
  221MOL0     H29820   4.796   3.015   7.985 -2.5279  0.8314 -0.6512
  221MOL0     H29821   4.416   3.030   8.317  2.2358 -1.2198 -0.6198
  221MOL0     H29822   4.187   2.929   8.381 -0.4358 -1.3472  2.3601
  221MOL0     H29823   4.121   2.520   8.445 -0.5329 -0.7271  0.0439
  221MOL0     H29824   4.100   2.497   8.268  0.5766  1.4608 -1.3497
  221MOL0     H29825   3.885   2.648   8.416  0.1750  0.6684 -1.3302
  221MOL0     H29826   3.910   2.481   8.445 -0.0395  0.4141 -0.6369
  221MOL0     H29827   3.855   2.407   8.228  0.5852  0.4156  0.8931
  221MOL0     H29828   3.907   2.547   8.156 -3.3655  0.8183 -2.2251
  221MOL0     H29829   3.713   2.681   8.216 -3.7212 -0.3469 -0.5807
  221MOL0     H29830   3.685   2.534   8.130 -2.0835 -2.3879  0.4377
  221MOL0     H29831   3.466   2.445   8.467 -0.2216 -1.2054 -0.3337
  221MOL0     H29832   4.312   2.562   8.196  1.4526 -1.4648  2.2992
  221MOL0     H29833   4.493   2.567   8.055 -0.7683  0.4113  0.4749
  221MOL0     H29834   4.574   2.707   8.011 -4.2359  1.0644 -1.3868
  221MOL0     H29835   4.634   2.616   8.150 -0.5360 -0.7695 -0.0796
  222MOL0     O29836   2.846   4.716  11.264  0.1616  0.1369 -0.1864
  222MOL0     C29837   2.801   4.615  11.323 -0.0907 -0.9238  0.1926
  222MOL0     O29838   2.862   4.546  11.419  0.5278  0.3524 -0.6121
  222MOL0     C29839   2.990   4.581  11.436 -0.2885 -0.3786  0.6426
  222MOL0     C29840   3.034   4.655  11.547 -0.5737  0.2680  0.3130
  222MOL0     C29841   3.168   4.700  11.557  0.3669 -0.1885  0.7594
  222MOL0     C29842   3.265   4.659  11.459 -0.1943  0.0586 -0.6021
  222MOL0     O29843   3.395   4.699  11.469 -0.0930  0.5989  0.2008
  222MOL0     C29844   3.431   4.757  11.591 -0.0187  0.3353 -0.4896
  222MOL0     C29845   3.583   4.772  11.607  0.9191 -0.4900  0.4373
  222MOL0     C29846   3.672   4.825  11.490  0.0786  0.2796  0.6514
  222MOL0     C29847   3.823   4.807  11.528 -0.6792  0.4478  0.0752
  222MOL0     C29848   3.912   4.855  11.416 -0.6473 -0.2175 -0.3634
  222MOL0     C29849   4.059   4.812  11.440 -0.3208 -0.4217 -0.2468
  222MOL0     C29850   4.111   4.849  11.582 -0.0487  0.0998 -0.0018
  222MOL0     C29851   4.268   4.846  11.581 -0.4797  0.6110 -0.2948
  222MOL0     N29852   4.331   4.969  11.529 -0.0911 -0.2503  0.8966
  222MOL0     C29853   4.258   5.083  11.501 -0.1667  0.7170  0.7921
  222MOL0     C29854   4.349   5.172  11.452  0.5735  0.9609  0.2098
  222MOL0     C29855   4.325   5.310  11.428  0.0858 -0.4320  0.0212
  222MOL0     C29856   4.417   5.368  11.317  0.1902 -0.2118 -0.9650
  222MOL0     C29857   4.557   5.414  11.369  0.0746  0.0870 -0.2656
  222MOL0     C29858   4.532   5.536  11.450  0.1791 -0.3063 -0.2195
  222MOL0     O29859   4.638   5.624  11.416 -0.2204 -0.1194  0.5906
  222MOL0     C29860   4.765   5.622  11.483  0.5021 -0.4224 -0.1406
  222MOL0     C29861   4.859   5.725  11.442 -0.8180  0.3060  0.8904
  222MOL0     C29862   4.981   5.739  11.504  0.2448  0.4534  0.5891
  222MOL0     C29863   5.018   5.658  11.605  0.2057  0.4665  0.3921
  222MOL0     C29864   5.147   5.676  11.654 -0.0579  0.5993  0.4742
  222MOL0     O29865   5.186   5.604  11.754 -0.3153  0.1739  0.3441
  222MOL0     C29866   5.318   5.587  11.772 -0.1534 -0.1418  0.3656
  222MOL0     C29867   5.368   5.626  11.888 -0.8539 -0.2061 -0.9603
  222MOL0     C29868   5.511   5.607  11.912 -0.4194  0.2798 -0.5443
  222MOL0     C29869   5.592   5.554  11.813  0.3104  1.2007 -0.1220
  222MOL0     O29870   5.727   5.568  11.828  0.2733  0.0644  0.1020
  222MOL0     C29871   5.812   5.510  11.730 -0.3723  0.7474  0.0646
  222MOL0     C29872   5.955   5.566  11.734 -0.8176 -0.1313  0.4101
  222MOL0     C29873   6.042   5.520  11.617  0.4144  0.1016 -0.2287
  222MOL0     C29874   6.090   5.379  11.641  0.3711 -0.4348  0.3534
  222MOL0     C29875   6.205   5.351  11.536  0.4330 -0.8507 -0.1536
  222MOL0     C29876   6.257   5.205  11.552  0.3022 -0.3413  0.1168
  222MOL0     C29877   6.365   5.174  11.440 -0.4565  0.3877  0.1492
  222MOL0     C29878   6.509   5.231  11.470  0.0751 -0.4028 -0.0070
  222MOL0    Cl29879   6.607   5.193  11.330 -0.2732  0.0709  0.6773
  222MOL0     C29880   5.535   5.486  11.705  0.5202 -0.5230 -0.1895
  222MOL0     C29881   5.395   5.508  11.684 -0.4736 -0.0746 -0.2476
  222MOL0     O29882   5.225   5.743  11.587  0.9803  0.0497 -0.5347
  222MOL0     C29883   4.924   5.567  11.653 -0.5384 -0.5252 -0.6239
  222MOL0     C29884   4.793   5.549  11.595 -0.3110  0.1180  0.0359
  222MOL0     N29885   4.472   5.106  11.454  0.6251 -0.0213 -0.0861
  222MOL0     N29886   4.458   4.987  11.506 -0.5382  0.4428  0.2246
  222MOL0     C29887   3.225   4.578  11.361  0.3293  0.6066  0.3747
  222MOL0     C29888   3.092   4.542  11.343  0.5402  0.0861  0.2309
  222MOL0     C29889   2.674   4.569  11.271 -0.0175  0.4024 -0.4094
  222MOL0     C29890   2.656   4.538  11.136 -0.2996 -0.1609 -0.4464
  222MOL0     C29891   2.526   4.507  11.080 -0.4534  0.3802  0.2382
  222MOL0     C29892   2.412   4.512  11.164  0.3948  0.6130  0.6774
  222MOL0     O29893   2.282   4.493  11.138  0.0073 -0.3153  0.7688
  222MOL0     C29894   2.239   4.499  11.000 -1.2608 -0.1535  0.2507
  222MOL0     C29895   2.094   4.451  10.994  0.2034 -0.2493 -0.3221
  222MOL0     C29896   2.037   4.443  10.843 -1.0970  0.6869 -0.1033
  222MOL0     C29897   2.090   4.557  10.755  0.0804 -0.3957  0.1285
  222MOL0     C29898   2.025   4.579  10.621 -1.1029  0.3868  0.7406
  222MOL0     C29899   1.998   4.595  10.506  0.4540  0.2856  1.0871
  222MOL0     C29900   2.434   4.548  11.295 -0.9744 -0.2912  0.8059
  222MOL0     C29901   2.561   4.569  11.351  0.3893  0.1827  0.3116
  222MOL0     C29902   2.571   4.598  11.497  1.1296 -1.0992  0.2483
  222MOL0     H29903   2.965   4.678  11.627  0.8950 -2.1285  2.3947
  222MOL0     H29904   3.178   4.766  11.643 -1.1045  0.6879  0.2838
  222MOL0     H29905   3.391   4.859  11.597 -0.7733  0.1848 -2.2978
  222MOL0     H29906   3.394   4.687  11.666 -0.8070  0.2546 -0.9443
  222MOL0     H29907   3.606   4.665  11.612  1.0755 -0.4672  0.2123
  222MOL0     H29908   3.595   4.824  11.703 -1.4984  3.6280 -1.2503
  222MOL0     H29909   3.647   4.928  11.462  0.9212 -0.0632 -1.5533
  222MOL0     H29910   3.650   4.767  11.400  0.5084 -0.8265  1.2451
  222MOL0     H29911   3.857   4.865  11.614 -0.8659  3.4560 -1.7140
  222MOL0     H29912   3.836   4.700  11.545 -0.8354  0.1518 -1.5192
  222MOL0     H29913   3.881   4.822  11.316 -0.0053 -1.8962 -0.0509
  222MOL0     H29914   3.915   4.964  11.412  3.0838 -0.0490  2.0724
  222MOL0     H29915   4.062   4.703  11.430  2.1804 -0.6782  2.0258
  222MOL0     H29916   4.120   4.859  11.362 -0.0528 -0.5217 -0.1003
  222MOL0     H29917   4.076   4.773  11.653  1.5359 -2.1064 -1.4758
  222MOL0     H29918   4.071   4.940  11.627 -3.1880 -0.9092 -0.4998
  222MOL0     H29919   4.303   4.828  11.683 -0.9509 -1.2119 -0.4138
  222MOL0     H29920   4.303   4.759  11.524  0.1568  1.5943 -1.4349
  222MOL0     H29921   4.153   5.098  11.524 -1.1707 -1.3700 -1.8903
  222MOL0     H29922   4.223   5.322  11.389  1.4321  1.4278 -3.5072
  222MOL0     H29923   4.323   5.363  11.524 -0.7405 -4.9695  2.7662
  222MOL0     H29924   4.441   5.298  11.236 -0.5190  0.3487 -1.6699
  222MOL0     H29925   4.366   5.449  11.266 -1.2917 -0.9921 -0.7839
  222MOL0     H29926   4.624   5.435  11.285  3.4435  0.4089  2.2723
  222MOL0     H29927   4.602   5.331  11.425  0.9894 -0.5082 -1.8139
  222MOL0     H29928   4.517   5.532  11.558  0.4984  1.1769 -0.0978
  222MOL0     H29929   4.444   5.590  11.414 -0.1213 -0.3345  0.4650
  222MOL0     H29930   4.829   5.788  11.359 -1.3906 -1.9773 -0.7371
  222MOL0     H29931   5.047   5.816  11.464  0.1727  1.9233  3.0833
  222MOL0     H29932   5.312   5.680  11.963 -0.2029 -2.2634  1.1352
  222MOL0     H29933   5.548   5.655  12.002  0.1040 -1.5243  0.2432
  222MOL0     H29934   5.808   5.402  11.745 -2.5414  0.6440 -0.8330
  222MOL0     H29935   5.772   5.541  11.633  1.6490 -0.4778 -1.2268
  222MOL0     H29936   5.956   5.675  11.729 -1.4953 -0.0895  1.0389
  222MOL0     H29937   5.996   5.538  11.831  0.3479  0.8850  0.2266
  222MOL0     H29938   5.986   5.523  11.523  1.4367  0.4722 -0.8337
  222MOL0     H29939   6.124   5.591  11.621 -0.1848  0.9292 -1.7695
  222MOL0     H29940   6.003   5.314  11.624 -0.6388  1.3479 -1.8492
  222MOL0     H29941   6.128   5.357  11.741  3.1396 -2.5063 -1.0194
  222MOL0     H29942   6.287   5.422  11.549 -0.9910  0.8263 -0.0468
  222MOL0     H29943   6.160   5.373  11.439 -1.7934  0.9259  1.1873
  222MOL0     H29944   6.296   5.182  11.651  4.8382  0.5232 -1.2342
  222MOL0     H29945   6.167   5.143  11.544 -1.1463  1.5473  1.0838
  222MOL0     H29946   6.335   5.209  11.341  0.3698 -0.7301 -0.5233
  222MOL0     H29947   6.375   5.065  11.428  0.6442  0.4747  0.1796
  222MOL0     H29948   6.502   5.340  11.482  0.4714 -0.2616 -0.9873
  222MOL0     H29949   6.554   5.192  11.562 -1.1938  0.3172  0.9736
  222MOL0     H29950   5.597   5.446  11.625  1.1186 -2.5243  1.2074
  222MOL0     H29951   5.356   5.483  11.586  3.0618  0.8102 -2.0506
  222MOL0     H29952   4.956   5.508  11.738 -0.9395  0.4245  0.2089
  222MOL0     H29953   4.717   5.490  11.645 -1.3555  2.6537  1.6541
  222MOL0     H29954   3.306   4.549  11.295 -0.1465 -0.5914  0.2944
  222MOL0     H29955   3.064   4.477  11.260 -0.9153  1.3249 -0.2924
  222MOL0     H29956   2.746   4.551  11.077 -1.1000 -1.2935 -1.9958
  222MOL0     H29957   2.514   4.496  10.973  2.0143 -0.3775 -0.0035
  222MOL0     H29958   2.301   4.435  10.936 -5.5338 -2.5565 -1.9107
  222MOL0     H29959   2.245   4.598  10.954  1.2508 -0.1382  0.4690
  222MOL0     H29960   2.027   4.516  11.051  2.0134  1.6351 -0.2378
  222MOL0     H29961   2.086   4.349  11.033 -1.4275  0.3363  1.0295
  222MOL0     H29962   1.930   4.465  10.847 -0.7952  2.3735 -0.7211
  222MOL0     H29963   2.054   4.342  10.805  1.3011  0.3519  1.5956
  222MOL0     H29964   2.077   4.640  10.825  1.6033 -2.0951  2.6067
  222MOL0     H29965   2.198   4.550  10.741  0.1166 -2.0490  0.9395
  222MOL0     H29966   1.973   4.602  10.402 -1.7580  1.4449  1.6287
  222MOL0     H29967   2.363   4.575  11.372 -1.0706  1.9242  0.0119
  222MOL0     H29968   2.479   4.613  11.555  0.3970 -1.4933 -0.7798
  222MOL0     H29969   2.626   4.517  11.548 -0.6577 -0.6843  3.0740
  222MOL0     H29970   2.624   4.692  11.514 -0.6119  0.1205 -0.7563
  223MOL0     O29971   9.374   2.177   2.045  0.2710  0.0221 -0.2168
  223MOL0     C29972   9.270   2.225   2.091 -0.8433 -0.8819 -0.2446
  223MOL0     O29973   9.262   2.271   2.221 -0.3351  0.2167 -0.4352
  223MOL0     C29974   9.353   2.234   2.319  0.4518  0.8057  0.3453
  223MOL0     C29975   9.290   2.154   2.414 -0.8287 -0.3000 -0.2369
  223MOL0     C29976   9.358   2.094   2.519 -0.5937  0.0869 -0.5007
  223MOL0     C29977   9.489   2.133   2.551  0.3467 -0.6921 -0.6150
  223MOL0     O29978   9.545   2.125   2.676  0.6912  0.3499 -0.7094
  223MOL0     C29979   9.527   2.002   2.744  0.4493 -0.2889 -0.7577
  223MOL0     C29980   9.528   2.040   2.894 -0.1011 -0.0783  0.0488
  223MOL0     C29981   9.656   2.100   2.936 -0.0418  0.7187  0.1754
  223MOL0     C29982   9.650   2.134   3.085 -0.2423 -0.5887  0.2374
  223MOL0     C29983   9.771   2.217   3.119  0.1387  0.4926 -0.7688
  223MOL0     C29984   9.750   2.265   3.256 -0.0071  0.3502  0.6718
  223MOL0     C29985   9.887   2.328   3.302 -0.8316 -0.1032  0.5553
  223MOL0     C29986   9.870   2.427   3.411  0.6924  0.5269 -0.1997
  223MOL0     N29987   9.995   2.482   3.462 -0.4671 -0.5258  0.1620
  223MOL0     C29988  10.011   2.563   3.581 -0.1604 -1.5883  0.1406
  223MOL0     C29989  10.139   2.611   3.574  1.2257 -0.0727  0.6020
  223MOL0     C29990  10.207   2.712   3.662  0.5117 -0.4589 -0.0827
  223MOL0     C29991  10.231   2.642   3.791 -0.1419 -0.6795 -0.0663
  223MOL0     C29992  10.274   2.733   3.908 -0.6978 -0.9068  0.5388
  223MOL0     C29993  10.426   2.727   3.949  0.1364  0.4432 -0.0514
  223MOL0     O29994  10.461   2.593   3.956  0.2698 -0.4771  0.2840
  223MOL0     C29995  10.596   2.575   3.984  0.0087 -0.3267  0.4968
  223MOL0     C29996  10.698   2.668   3.960  0.0023 -0.0326  0.4625
  223MOL0     C29997  10.838   2.634   3.964  0.2685 -0.0452 -0.1294
  223MOL0     C29998  10.881   2.506   4.001  0.3244  0.0102  0.4801
  223MOL0     C29999  11.019   2.473   4.004  0.8666 -0.4991 -0.4964
  223MOL0     O30000  11.114   2.540   3.934  0.3757 -0.2297  0.5247
  223MOL0     C30001  11.241   2.527   3.966  0.9849  0.5703  0.7749
  223MOL0     C30002  11.312   2.408   3.932  0.5780  0.1272  0.1756
  223MOL0     C30003  11.444   2.401   3.981 -0.5956 -0.0490 -0.1898
  223MOL0     C30004  11.492   2.495   4.070 -0.8645 -1.0481 -0.0547
  223MOL0     O30005  11.629   2.485   4.115 -0.4449 -0.0772  0.3192
  223MOL0     C30006  11.723   2.460   4.012 -0.1444  0.3596 -0.3515
  223MOL0     C30007  11.852   2.507   4.053 -0.2717 -0.0077  0.1266
  223MOL0     C30008  11.848   2.655   4.093 -0.4341 -0.5573  0.3530
  223MOL0     C30009  11.971   2.705   4.156  0.1449  0.0747  0.0925
  223MOL0     C30010  12.097   2.681   4.067  0.0152  0.6353 -0.0000
  223MOL0     C30011  12.222   2.684   4.154  0.3965  0.9437 -0.4407
  223MOL0     C30012  12.346   2.671   4.070  0.6107  0.0036 -0.7515
  223MOL0     C30013  12.352   2.785   3.965  0.1616  0.1474  0.0421
  223MOL0    Cl30014  12.517   2.831   3.955 -0.0708  0.4034 -0.2024
  223MOL0     C30015  11.410   2.602   4.116  0.8884 -0.2948  0.3234
  223MOL0     C30016  11.285   2.618   4.054 -0.2991  0.2877  0.4040
  223MOL0     O30017  11.039   2.387   4.091  0.2518 -0.1282 -0.0002
  223MOL0     C30018  10.770   2.418   4.025 -0.8399  0.4676  0.3423
  223MOL0     C30019  10.630   2.445   4.022 -0.2528 -1.0630 -0.4576
  223MOL0     N30020  10.193   2.571   3.453  0.6266  0.0186 -0.0625
  223MOL0     N30021  10.112   2.493   3.396  1.0667  0.5763  0.7130
  223MOL0     C30022   9.556   2.219   2.452  0.1792  0.7057  0.1810
  223MOL0     C30023   9.489   2.260   2.330 -0.5248  0.5772  0.3344
  223MOL0     C30024   9.142   2.217   2.021 -0.1029 -0.1448  0.1501
  223MOL0     C30025   9.026   2.232   2.094 -0.1966  0.3544  0.2233
  223MOL0     C30026   8.908   2.249   2.025 -0.2292  0.1787  0.6291
  223MOL0     C30027   8.904   2.267   1.884 -0.2124 -0.3080 -1.0510
  223MOL0     O30028   8.789   2.289   1.815  0.2027  0.7997  0.2553
  223MOL0     C30029   8.665   2.230   1.861  0.1142 -0.2148 -0.5841
  223MOL0     C30030   8.569   2.235   1.749  1.6112  0.6918 -0.0435
  223MOL0     C30031   8.614   2.133   1.637  0.9139  0.2051  1.0544
  223MOL0     C30032   8.546   2.153   1.496 -0.0794  0.3194  0.4719
  223MOL0     C30033   8.562   2.288   1.448  0.1561  0.0324  0.3895
  223MOL0     C30034   8.575   2.407   1.423 -0.3715  0.1734 -0.8844
  223MOL0     C30035   9.023   2.258   1.819 -0.9502 -0.0351  0.1029
  223MOL0     C30036   9.143   2.224   1.884 -1.0362 -0.5204  0.0501
  223MOL0     C30037   9.263   2.223   1.795 -0.6065  0.3656  0.0021
  223MOL0     H30038   9.187   2.121   2.400 -0.6190 -3.1622  3.3878
  223MOL0     H30039   9.304   2.039   2.595  1.2369  1.5371  1.9911
  223MOL0     H30040   9.430   1.955   2.726  0.1312  1.0310 -2.8175
  223MOL0     H30041   9.607   1.931   2.722  0.3467 -1.8805  3.1729
  223MOL0     H30042   9.500   1.951   2.951 -0.1330  0.2610  0.5668
  223MOL0     H30043   9.447   2.112   2.901 -0.1738  0.0482 -1.6013
  223MOL0     H30044   9.692   2.182   2.873 -3.3421  0.9837 -1.5877
  223MOL0     H30045   9.735   2.024   2.925  0.2924  1.0602  0.1933
  223MOL0     H30046   9.572   2.209   3.100  0.1300 -0.2469  0.4795
  223MOL0     H30047   9.637   2.044   3.146  1.7861 -2.5830 -2.0725
  223MOL0     H30048   9.869   2.170   3.109  0.6024  1.3759 -0.4476
  223MOL0     H30049   9.779   2.296   3.044 -1.1734  0.9871 -0.4182
  223MOL0     H30050   9.681   2.350   3.255  0.2949  0.6995 -3.0174
  223MOL0     H30051   9.718   2.179   3.315 -0.0893  1.2027  1.9243
  223MOL0     H30052   9.931   2.379   3.215 -0.4250 -3.0740 -1.1030
  223MOL0     H30053   9.955   2.247   3.329  1.7837  2.0700  1.0271
  223MOL0     H30054   9.817   2.512   3.367 -0.1177 -0.7519 -1.7786
  223MOL0     H30055   9.823   2.391   3.503  2.0006  1.2832  0.8079
  223MOL0     H30056   9.938   2.586   3.658  1.8692  3.0627  1.0445
  223MOL0     H30057  10.302   2.759   3.634 -1.1181  3.2616  0.0777
  223MOL0     H30058  10.133   2.792   3.673 -1.7152 -2.7535  5.0493
  223MOL0     H30059  10.139   2.592   3.821 -0.6925  0.1236 -0.4074
  223MOL0     H30060  10.309   2.567   3.771  1.8429  1.7089 -2.0412
  223MOL0     H30061  10.218   2.700   3.995 -0.8909 -0.3678  0.6180
  223MOL0     H30062  10.238   2.834   3.884  0.0498 -0.6258  0.5567
  223MOL0     H30063  10.444   2.776   4.046 -1.5174 -1.0748  1.1059
  223MOL0     H30064  10.484   2.779   3.872 -0.0684  0.8565  0.0659
  223MOL0     H30065  10.684   2.773   3.938  0.4910 -0.1430 -0.4352
  223MOL0     H30066  10.898   2.719   3.933 -2.0320  1.8741  0.3867
  223MOL0     H30067  11.277   2.337   3.858 -0.4390  2.6081 -1.8725
  223MOL0     H30068  11.521   2.331   3.951  1.2472  0.9618  1.8686
  223MOL0     H30069  11.725   2.354   3.984 -3.0986 -0.2670  1.3812
  223MOL0     H30070  11.711   2.516   3.919 -0.4562  0.9440  0.0333
  223MOL0     H30071  11.887   2.453   4.142 -0.2133  0.0393  0.1328
  223MOL0     H30072  11.928   2.486   3.976  1.3937  1.0349  1.4121
  223MOL0     H30073  11.845   2.712   4.000  2.9437  0.2167  0.5571
  223MOL0     H30074  11.771   2.675   4.169 -2.7663 -0.9566 -1.7928
  223MOL0     H30075  11.985   2.669   4.259 -0.5465 -0.5536 -0.0237
  223MOL0     H30076  11.951   2.812   4.158 -0.8553 -0.1007  0.0783
  223MOL0     H30077  12.107   2.757   3.989  1.3802 -0.5293 -1.0174
  223MOL0     H30078  12.101   2.586   4.012  2.7300  1.7747 -2.0422
  223MOL0     H30079  12.229   2.781   4.205  2.6750 -0.2433  1.7506
  223MOL0     H30080  12.221   2.604   4.229  1.3987  0.3519 -1.0393
  223MOL0     H30081  12.351   2.568   4.033 -0.8871 -0.2943 -0.1931
  223MOL0     H30082  12.423   2.677   4.148 -1.7803  0.6573  1.7254
  223MOL0     H30083  12.311   2.756   3.867 -1.5287 -2.7617  1.4664
  223MOL0     H30084  12.291   2.871   3.994 -2.8212 -1.7013 -0.2602
  223MOL0     H30085  11.463   2.677   4.174  0.2825  0.3973 -0.0066
  223MOL0     H30086  11.220   2.704   4.068  0.1901  0.3753  2.4583
  223MOL0     H30087  10.793   2.313   4.038 -0.7212  0.0922 -2.3049
  223MOL0     H30088  10.560   2.363   4.033 -1.7832  0.4793  2.3663
  223MOL0     H30089   9.661   2.239   2.470  0.8322 -2.0197 -0.1175
  223MOL0     H30090   9.535   2.320   2.252 -0.4861 -0.6609 -0.6486
  223MOL0     H30091   9.028   2.234   2.203 -0.6750  4.7686  0.3005
  223MOL0     H30092   8.817   2.262   2.082  0.2064 -0.3454  1.4639
  223MOL0     H30093   8.627   2.292   1.943 -4.0006 -1.5423 -1.2879
  223MOL0     H30094   8.695   2.131   1.897  4.0399  0.0785 -2.4694
  223MOL0     H30095   8.556   2.334   1.704 -0.9902 -0.1384 -1.2894
  223MOL0     H30096   8.469   2.203   1.782  1.7356  2.7695  2.7474
  223MOL0     H30097   8.589   2.031   1.668 -2.3853  0.6984  0.3642
  223MOL0     H30098   8.722   2.149   1.629  0.8932  0.1512  0.6826
  223MOL0     H30099   8.599   2.090   1.424  2.3291  3.5983 -0.8615
  223MOL0     H30100   8.441   2.125   1.495  0.1634 -0.6542 -0.1805
  223MOL0     H30101   8.585   2.510   1.399  0.8084  0.2138 -0.2707
  223MOL0     H30102   9.020   2.271   1.711  0.2037 -3.5745 -0.4973
  223MOL0     H30103   9.335   2.299   1.826  1.4958 -0.8478 -1.7030
  223MOL0     H30104   9.320   2.130   1.792  0.9071  1.2560 -2.6296
  223MOL0     H30105   9.234   2.243   1.691  0.8939 -0.0091 -0.5100
  224MOL0     O30106   5.635   7.475  10.542  0.4787  0.3385  0.4035
  224MOL0     C30107   5.668   7.461  10.659 -0.3064  0.0364  0.4189
  224MOL0     O30108   5.797   7.493  10.717  0.1246 -0.2458  0.4214
  224MOL0     C30109   5.901   7.515  10.620  0.7078 -0.2528 -0.1518
  224MOL0     C30110   5.980   7.633  10.636  0.0119  0.2767  0.4790
  224MOL0     C30111   6.075   7.664  10.541  0.1613  0.0950  0.5754
  224MOL0     C30112   6.095   7.571  10.432  0.4560 -0.1122  0.2252
  224MOL0     O30113   6.205   7.570  10.347  0.2308  0.0933 -0.5203
  224MOL0     C30114   6.337   7.527  10.388 -0.2281  0.8796 -0.0235
  224MOL0     C30115   6.444   7.606  10.317  0.4624  1.0071  0.1182
  224MOL0     C30116   6.573   7.539  10.354  0.0422  0.6249 -0.0530
  224MOL0     C30117   6.690   7.576  10.261  0.4378 -0.4156 -0.7249
  224MOL0     C30118   6.808   7.489  10.278 -0.6234 -0.0047 -0.7820
  224MOL0     C30119   6.935   7.532  10.208 -0.7690  0.3262 -0.0844
  224MOL0     C30120   7.045   7.437  10.232 -0.4909 -0.0738 -0.9772
  224MOL0     C30121   7.172   7.489  10.167  0.8639 -0.0273  0.4589
  224MOL0     N30122   7.288   7.398  10.188  0.8035  0.5612 -0.4231
  224MOL0     C30123   7.364   7.349  10.084  0.3868 -0.2654  0.6692
  224MOL0     C30124   7.456   7.275  10.148  0.6238 -0.2209  0.4408
  224MOL0     C30125   7.555   7.184  10.076 -0.7031 -0.2097 -0.1666
  224MOL0     C30126   7.498   7.071   9.977  0.6949 -0.2072  0.3781
  224MOL0     C30127   7.407   6.969  10.051 -0.4907 -0.7810 -0.5887
  224MOL0     C30128   7.308   6.898   9.959 -0.7176  0.3434 -1.2914
  224MOL0     O30129   7.236   6.800  10.036  0.1690  0.1364  0.3546
  224MOL0     C30130   7.104   6.772   9.996  0.3342  0.2114  0.5537
  224MOL0     C30131   7.003   6.843  10.051 -0.3482  0.1930  0.3470
  224MOL0     C30132   6.867   6.808  10.027 -0.1403  0.8500 -0.2369
  224MOL0     C30133   6.832   6.700   9.941  0.0598  0.9706 -1.3542
  224MOL0     C30134   6.693   6.643   9.924  0.4726  0.1576  0.0295
  224MOL0     O30135   6.681   6.529   9.845  0.3528 -0.4085  0.2390
  224MOL0     C30136   6.558   6.467   9.842 -0.5001  0.8241 -0.8086
  224MOL0     C30137   6.436   6.534   9.816  0.1781 -0.1885  0.7285
  224MOL0     C30138   6.321   6.465   9.785 -0.2565  0.7073 -0.4854
  224MOL0     C30139   6.319   6.327   9.794 -0.2909 -0.4205  0.5576
  224MOL0     O30140   6.211   6.248   9.755 -0.3717  0.5043  0.1814
  224MOL0     C30141   6.084   6.302   9.769  0.0682 -0.3228 -0.5739
  224MOL0     C30142   5.981   6.194   9.789 -0.5194  0.9326  0.5479
  224MOL0     C30143   5.972   6.070   9.696  0.0388  0.3487  0.2313
  224MOL0     C30144   5.851   5.983   9.739 -0.0768 -0.2277 -0.5788
  224MOL0     C30145   5.853   5.835   9.693 -0.0636  0.0020  0.1396
  224MOL0     C30146   5.717   5.752   9.688  0.8405 -0.4390 -0.2316
  224MOL0     C30147   5.642   5.782   9.817 -0.5511  0.5391 -0.5361
  224MOL0     C30148   5.509   5.698   9.816 -0.0588 -0.1968 -0.6085
  224MOL0    Cl30149   5.411   5.734   9.951 -0.0441 -0.2752 -0.2799
  224MOL0     C30150   6.435   6.261   9.839 -0.1871  1.0044  0.1452
  224MOL0     C30151   6.554   6.324   9.855  0.0165 -0.5204 -0.8072
  224MOL0     O30152   6.597   6.699   9.987 -0.7443  0.0588 -0.3107
  224MOL0     C30153   6.945   6.631   9.882 -0.7395  0.1065  0.0458
  224MOL0     C30154   7.076   6.667   9.910 -0.2515 -0.3300 -0.0985
  224MOL0     N30155   7.425   7.271  10.277  0.9353  0.2217  0.3923
  224MOL0     N30156   7.320   7.340  10.304 -0.7955  0.2684 -0.4338
  224MOL0     C30157   6.020   7.447  10.423  0.3320 -0.3051 -0.1700
  224MOL0     C30158   5.924   7.424  10.517 -0.6335  0.6025  0.4867
  224MOL0     C30159   5.561   7.427  10.751  0.2685 -0.4966  0.2142
  224MOL0     C30160   5.597   7.373  10.871  0.2040  0.8124  1.0356
  224MOL0     C30161   5.507   7.337  10.967  0.3092  0.7233 -1.1751
  224MOL0     C30162   5.371   7.337  10.948 -0.3731 -0.6023  0.5937
  224MOL0     O30163   5.295   7.299  11.053  0.2824 -0.1469 -0.3072
  224MOL0     C30164   5.156   7.295  11.026  0.2804  0.6619 -0.4173
  224MOL0     C30165   5.080   7.230  11.154 -0.9195 -0.3508  0.1692
  224MOL0     C30166   4.933   7.251  11.172 -0.1435  0.1793 -1.0374
  224MOL0     C30167   4.856   7.171  11.073  0.0517  0.1375 -0.6891
  224MOL0     C30168   4.840   7.240  10.944  0.0410  0.1390  0.5491
  224MOL0     C30169   4.838   7.320  10.852 -0.1976  0.2777  0.1611
  224MOL0     C30170   5.326   7.387  10.827 -0.4028 -1.1960  0.6407
  224MOL0     C30171   5.416   7.439  10.728 -0.7271  0.1217 -0.4115
  224MOL0     C30172   5.353   7.511  10.613  0.4235  0.5700  0.5332
  224MOL0     H30173   5.960   7.702  10.717 -1.9663  0.7523 -0.3328
  224MOL0     H30174   6.144   7.747  10.552 -0.0134  0.2680  0.3695
  224MOL0     H30175   6.347   7.540  10.496  0.3002  0.7031 -0.0480
  224MOL0     H30176   6.346   7.423  10.355  3.7910  1.2960 -0.7987
  224MOL0     H30177   6.441   7.710  10.353 -1.5708  0.3333  2.1086
  224MOL0     H30178   6.420   7.597  10.211 -0.3812 -5.9084  0.4619
  224MOL0     H30179   6.555   7.433  10.337  1.4218  0.0085  1.9220
  224MOL0     H30180   6.605   7.551  10.458  0.5023 -0.2722 -0.0855
  224MOL0     H30181   6.665   7.586  10.155  0.8933  1.7434 -0.6858
  224MOL0     H30182   6.719   7.675  10.298  0.6576 -1.0352  0.8339
  224MOL0     H30183   6.825   7.480  10.386  0.2813  0.2832 -0.8830
  224MOL0     H30184   6.789   7.390  10.236  0.7067 -1.5407  1.9700
  224MOL0     H30185   6.922   7.546  10.101  1.0399  2.5623 -0.0848
  224MOL0     H30186   6.958   7.633  10.244 -2.1897  0.4301  0.6325
  224MOL0     H30187   7.028   7.335  10.198 -0.3421 -0.2181 -0.6233
  224MOL0     H30188   7.063   7.430  10.340 -0.3536 -0.4868 -1.0290
  224MOL0     H30189   7.161   7.499  10.058  2.6027  0.1082  0.2638
  224MOL0     H30190   7.192   7.590  10.204  1.7680 -0.7228  1.9435
  224MOL0     H30191   7.364   7.358   9.976 -0.7995 -3.7947  0.2542
  224MOL0     H30192   7.630   7.246  10.026 -0.0013 -1.4803 -0.7150
  224MOL0     H30193   7.618   7.146  10.156 -0.7434 -0.6301 -0.3337
  224MOL0     H30194   7.443   7.116   9.893  2.5451  0.9587 -0.2768
  224MOL0     H30195   7.578   7.022   9.921 -1.3462 -0.6150 -2.4068
  224MOL0     H30196   7.344   7.013  10.129 -0.5402 -1.7632 -0.0594
  224MOL0     H30197   7.472   6.904  10.110 -0.6438 -0.2716  0.1560
  224MOL0     H30198   7.361   6.857   9.872  1.8810 -2.6502  1.4213
  224MOL0     H30199   7.236   6.976   9.932 -1.6348 -0.3358 -0.8546
  224MOL0     H30200   7.030   6.931  10.110 -1.1720  0.3392  0.5183
  224MOL0     H30201   6.786   6.867  10.068 -0.5910 -0.5829  1.0128
  224MOL0     H30202   6.420   6.641   9.807 -0.6195 -0.2870  0.8647
  224MOL0     H30203   6.233   6.523   9.760  0.3699  2.5848  1.4243
  224MOL0     H30204   6.073   6.378   9.846 -0.6084  1.9927 -2.7957
  224MOL0     H30205   6.061   6.345   9.670  0.4900  1.3670  0.0254
  224MOL0     H30206   6.000   6.162   9.892  0.5078  0.0932  0.1226
  224MOL0     H30207   5.880   6.236   9.793 -1.6484 -1.4820 -0.5962
  224MOL0     H30208   5.971   6.102   9.592  3.6657  1.6078  0.4559
  224MOL0     H30209   6.060   6.005   9.694 -0.5366 -0.4462 -1.1278
  224MOL0     H30210   5.756   6.026   9.705  0.4531  0.7728 -0.8249
  224MOL0     H30211   5.841   5.980   9.848  0.9876 -1.1449 -0.4900
  224MOL0     H30212   5.918   5.776   9.759  0.4385 -0.7190 -0.9763
  224MOL0     H30213   5.902   5.841   9.595 -0.6939  2.0873 -0.1041
  224MOL0     H30214   5.657   5.780   9.600  1.5561  2.0092 -0.0239
  224MOL0     H30215   5.732   5.644   9.683 -2.2321 -0.9837  0.0983
  224MOL0     H30216   5.609   5.885   9.833 -1.5379  0.1305  0.1648
  224MOL0     H30217   5.704   5.759   9.904  0.1780  2.0073 -0.6473
  224MOL0     H30218   5.461   5.717   9.720  1.2554  0.4253 -1.1613
  224MOL0     H30219   5.543   5.594   9.819  0.7377 -0.0481 -2.8939
  224MOL0     H30220   6.441   6.153   9.837  3.1351  1.0925 -0.0031
  224MOL0     H30221   6.636   6.258   9.879 -1.7532 -2.0863  1.3514
  224MOL0     H30222   6.933   6.539   9.826 -1.6766  0.0158  0.3834
  224MOL0     H30223   7.150   6.607   9.857 -0.7571 -1.3900  0.3580
  224MOL0     H30224   6.053   7.370  10.353  0.5970  0.3191 -0.7391
  224MOL0     H30225   5.866   7.332  10.526  2.3095 -1.2129  2.5455
  224MOL0     H30226   5.702   7.358  10.895  1.0941 -2.8239 -3.6081
  224MOL0     H30227   5.537   7.284  11.057 -0.0612  1.5782 -0.5374
  224MOL0     H30228   5.136   7.235  10.936 -2.3512 -1.6201  1.5075
  224MOL0     H30229   5.123   7.398  11.010  0.3555  1.1005  1.9614
  224MOL0     H30230   5.125   7.267  11.247  0.9089 -1.4886 -0.2053
  224MOL0     H30231   5.114   7.126  11.155 -0.4286 -0.3617 -3.3105
  224MOL0     H30232   4.914   7.358  11.160 -4.0343 -0.3010 -0.3726
  224MOL0     H30233   4.905   7.209  11.269 -3.3219  0.3365 -1.7700
  224MOL0     H30234   4.907   7.076  11.054 -1.6021 -0.6329 -1.4523
  224MOL0     H30235   4.752   7.150  11.097  0.1685 -1.4244 -1.4094
  224MOL0     H30236   4.827   7.391  10.773 -1.9952  0.5465  0.5974
  224MOL0     H30237   5.224   7.397  10.791 -0.2301 -0.4281  0.3350
  224MOL0     H30238   5.417   7.583  10.560  0.7160 -1.4322 -2.0869
  224MOL0     H30239   5.307   7.438  10.546 -0.0705  1.0121  0.3837
  224MOL0     H30240   5.264   7.567  10.640 -1.9800 -0.9562 -3.2959
  225MOL0     O30241   3.175   9.083   9.961 -0.2051  0.3096 -0.6648
  225MOL0     C30242   3.126   9.153   9.874  0.4747  0.5789  0.6716
  225MOL0     O30243   3.190   9.254   9.812  0.3974  0.3172 -0.4260
  225MOL0     C30244   3.311   9.304   9.872  0.2206  0.0911  0.7461
  225MOL0     C30245   3.316   9.437   9.919 -0.4867 -0.1490 -0.5035
  225MOL0     C30246   3.422   9.480   9.999  0.1961 -0.3972 -0.3352
  225MOL0     C30247   3.533   9.397  10.021 -0.3838 -0.0761 -0.2009
  225MOL0     O30248   3.641   9.439  10.090 -0.2136 -0.4241  0.0536
  225MOL0     C30249   3.684   9.569  10.067 -0.3158 -0.2796  0.6553
  225MOL0     C30250   3.823   9.589  10.122 -0.0406 -0.3983  0.5993
  225MOL0     C30251   3.868   9.731  10.105  0.1170 -0.1320  0.9757
  225MOL0     C30252   3.999   9.749  10.180 -0.7715 -0.8389  0.2168
  225MOL0     C30253   4.048   9.895  10.155  0.2615 -1.5407  0.2774
  225MOL0     C30254   4.145   9.953  10.262 -0.6188  0.8202  0.1747
  225MOL0     C30255   4.191  10.097  10.223 -0.2846 -0.7090 -0.0046
  225MOL0     C30256   4.244  10.166  10.353  0.0878 -0.0848  0.2152
  225MOL0     N30257   4.389  10.140  10.377  0.3313  0.6972  0.4587
  225MOL0     C30258   4.488  10.186  10.288  0.0339 -0.2586  0.1486
  225MOL0     C30259   4.608  10.153  10.347 -1.3031  0.4946 -0.1781
  225MOL0     C30260   4.761  10.179  10.318  0.3439 -0.1325  0.6542
  225MOL0     C30261   4.825  10.273  10.416 -0.5787 -0.8425 -1.0549
  225MOL0     C30262   4.975  10.284  10.378  0.2700  0.2685 -0.3164
  225MOL0     C30263   5.047  10.364  10.483  0.0047 -0.1107  0.9937
  225MOL0     O30264   5.180  10.334  10.442  0.0518  0.9111  0.7664
  225MOL0     C30265   5.286  10.398  10.500  0.1854  0.2003  0.3635
  225MOL0     C30266   5.405  10.333  10.470  0.3399  0.4079 -0.2465
  225MOL0     C30267   5.520  10.373  10.535 -0.7901  0.3744 -0.8200
  225MOL0     C30268   5.527  10.486  10.610  0.1382 -0.8397 -0.5469
  225MOL0     C30269   5.651  10.513  10.683 -0.3476 -0.2804 -0.2081
  225MOL0     O30270   5.654  10.632  10.742  0.8066 -0.5142  0.3369
  225MOL0     C30271   5.771  10.706  10.761 -0.4559 -0.2504  0.2275
  225MOL0     C30272   5.903  10.674  10.720  1.3069 -0.7525  0.5402
  225MOL0     C30273   6.019  10.752  10.761  0.1345  0.1624  0.0981
  225MOL0     C30274   6.001  10.862  10.848 -0.5400  0.2451 -0.1352
  225MOL0     O30275   6.122  10.922  10.879  0.1278 -0.3387  0.1727
  225MOL0     C30276   6.132  11.000  10.997 -0.4161  0.0261  0.2315
  225MOL0     C30277   6.272  11.053  11.015 -0.5408  0.0216 -0.0235
  225MOL0     C30278   6.377  10.953  11.015  0.3531 -0.2018  0.0544
  225MOL0     C30279   6.520  11.024  11.006  0.6030  0.3296  0.6130
  225MOL0     C30280   6.639  10.921  11.002 -0.6710  0.1877  0.1643
  225MOL0     C30281   6.664  10.854  11.147 -0.1387  0.0882 -0.5798
  225MOL0     C30282   6.784  10.758  11.144 -0.4045  0.3297 -0.4947
  225MOL0     C30283   6.842  10.713  11.279 -0.3820  0.8764 -0.4995
  225MOL0    Cl30284   6.729  10.603  11.368  0.1047 -0.4210  0.2167
  225MOL0     C30285   5.871  10.903  10.876  0.0615  0.5574  0.0919
  225MOL0     C30286   5.764  10.827  10.839  0.1094  0.1465 -0.6666
  225MOL0     O30287   5.734  10.422  10.689 -0.7874  0.0498  0.4630
  225MOL0     C30288   5.413  10.566  10.619 -0.4271 -1.2511  0.3175
  225MOL0     C30289   5.290  10.523  10.578  0.1912  0.6464  0.8997
  225MOL0     N30290   4.582  10.086  10.474 -0.3100 -0.2288  0.4783
  225MOL0     N30291   4.452  10.073  10.480 -0.4370 -0.2535 -0.1179
  225MOL0     C30292   3.537   9.271   9.949 -1.2243 -0.6872 -1.0621
  225MOL0     C30293   3.427   9.223   9.884  0.0693 -0.4790 -0.0817
  225MOL0     C30294   3.000   9.092   9.815 -0.0508 -0.2967 -0.3175
  225MOL0     C30295   2.971   8.956   9.847 -0.0701  0.2168 -0.8827
  225MOL0     C30296   2.857   8.894   9.800 -1.1464 -0.0488  0.2715
  225MOL0     C30297   2.772   8.962   9.706 -0.2027 -0.6167  0.0285
  225MOL0     O30298   2.649   8.909   9.663  0.6842  0.8628 -0.1832
  225MOL0     C30299   2.568   8.833   9.753  0.1030  0.5919  0.0466
  225MOL0     C30300   2.440   8.792   9.689  0.8970  0.0739 -0.5357
  225MOL0     C30301   2.349   8.903   9.638 -0.9144 -0.9512  0.0831
  225MOL0     C30302   2.280   8.986   9.751  0.0988  0.4662  0.7571
  225MOL0     C30303   2.213   9.107   9.698 -0.4929 -0.1558 -0.2181
  225MOL0     C30304   2.166   9.213   9.669  1.0883  0.2482  0.3696
  225MOL0     C30305   2.807   9.089   9.672  0.0036 -0.3356  0.1570
  225MOL0     C30306   2.915   9.160   9.725 -0.1752  0.5415 -0.2149
  225MOL0     C30307   2.931   9.304   9.682 -0.2088  0.5569  0.1503
  225MOL0     H30308   3.232   9.504   9.902 -1.1876 -1.2476 -1.5713
  225MOL0     H30309   3.417   9.576  10.050  2.1367 -0.8727  0.8246
  225MOL0     H30310   3.673   9.600   9.963 -3.3125 -1.2380  0.5677
  225MOL0     H30311   3.621   9.642  10.120  1.4753  0.6034  1.6387
  225MOL0     H30312   3.896   9.531  10.065 -1.2758 -1.5706  0.1762
  225MOL0     H30313   3.824   9.559  10.227 -0.7416 -0.6210  0.5473
  225MOL0     H30314   3.791   9.801  10.139 -1.6519 -1.5334  0.0201
  225MOL0     H30315   3.872   9.740   9.996  2.4926 -1.1608  0.9138
  225MOL0     H30316   3.984   9.740  10.288  0.6940 -2.9906  0.2981
  225MOL0     H30317   4.081   9.682  10.152 -1.5747 -0.7531 -2.5315
  225MOL0     H30318   4.108   9.893  10.063 -0.8500 -3.4374 -0.4745
  225MOL0     H30319   3.963   9.962  10.144  0.5899 -1.4318 -2.1289
  225MOL0     H30320   4.079   9.952  10.349 -0.1864 -0.2034  0.5009
  225MOL0     H30321   4.232   9.889  10.282 -0.2112  0.8390 -1.4473
  225MOL0     H30322   4.106  10.162  10.203 -1.5879 -1.6833  2.0434
  225MOL0     H30323   4.265  10.092  10.143  2.0713 -0.9117  2.0776
  225MOL0     H30324   4.231  10.274  10.341 -2.9458 -0.1866  1.5854
  225MOL0     H30325   4.189  10.129  10.440 -2.6606  1.5626 -0.6902
  225MOL0     H30326   4.470  10.240  10.196 -2.5583  1.6724  1.6539
  225MOL0     H30327   4.811  10.082  10.315  0.6393  0.0351 -1.3452
  225MOL0     H30328   4.780  10.225  10.220  0.5361 -0.6028  0.4705
  225MOL0     H30329   4.781  10.371  10.393 -0.8749 -1.5503 -3.9518
  225MOL0     H30330   4.798  10.247  10.519  0.1891 -0.6115 -0.7903
  225MOL0     H30331   4.991  10.315  10.274 -0.4741  2.4989  0.1890
  225MOL0     H30332   5.008  10.180  10.388 -0.3197  0.0949 -0.1425
  225MOL0     H30333   5.032  10.330  10.586 -0.7447 -0.6751  0.7030
  225MOL0     H30334   5.017  10.469  10.477  0.0221  0.0119  2.6740
  225MOL0     H30335   5.413  10.240  10.414  1.0385  0.0030  0.5010
  225MOL0     H30336   5.598  10.299  10.521 -1.1565 -0.2823  0.4802
  225MOL0     H30337   5.912  10.581  10.666 -1.1217 -1.3285  1.0437
  225MOL0     H30338   6.115  10.715  10.728  0.7169 -0.5172  2.4061
  225MOL0     H30339   6.061  11.084  10.992 -0.9170 -0.4160 -0.1961
  225MOL0     H30340   6.104  10.935  11.080  1.3841  1.3294  1.9411
  225MOL0     H30341   6.284  11.118  10.928 -2.6105 -1.1403 -1.2743
  225MOL0     H30342   6.290  11.120  11.100 -0.9899  0.9625 -0.6452
  225MOL0     H30343   6.368  10.901  11.111  1.7298 -0.7443 -0.0861
  225MOL0     H30344   6.361  10.888  10.929  0.3414  1.3105 -1.1093
  225MOL0     H30345   6.540  11.090  11.091  2.5265  2.9256 -1.6855
  225MOL0     H30346   6.527  11.083  10.914 -2.0451 -0.5940 -0.2841
  225MOL0     H30347   6.738  10.966  10.997  0.7632 -2.6932  0.6578
  225MOL0     H30348   6.630  10.846  10.923 -2.0826  1.3124 -0.7943
  225MOL0     H30349   6.692  10.928  11.223  2.7887 -1.9738  0.5029
  225MOL0     H30350   6.579  10.792  11.179  2.9147 -3.6733  0.9332
  225MOL0     H30351   6.866  10.813  11.096  0.7298  1.0260  2.1057
  225MOL0     H30352   6.756  10.663  11.099 -1.8607  0.6970 -0.4103
  225MOL0     H30353   6.931  10.650  11.264 -0.2404  1.1128 -0.6562
  225MOL0     H30354   6.878  10.798  11.338 -1.5541  1.5900 -0.7872
  225MOL0     H30355   5.857  10.992  10.936  0.5109  1.5288 -1.2154
  225MOL0     H30356   5.661  10.852  10.864 -0.9112 -3.6065 -0.4588
  225MOL0     H30357   5.402  10.656  10.679  0.3161 -0.5487 -0.5590
  225MOL0     H30358   5.202  10.579  10.607 -0.6572  0.0913 -0.4889
  225MOL0     H30359   3.614   9.199   9.972 -2.6738 -2.3049 -1.0763
  225MOL0     H30360   3.435   9.126   9.836  1.0940 -0.1661 -0.5804
  225MOL0     H30361   3.044   8.901   9.906 -1.3129 -0.8927 -0.3077
  225MOL0     H30362   2.829   8.796   9.838  0.8319 -0.9004 -0.3573
  225MOL0     H30363   2.551   8.897   9.840 -2.7646  0.3645 -0.2329
  225MOL0     H30364   2.622   8.742   9.783 -1.4259 -0.6042 -0.6791
  225MOL0     H30365   2.382   8.752   9.773 -0.5505  4.7094  0.9678
  225MOL0     H30366   2.449   8.718   9.609 -2.2243 -1.9037  0.7527
  225MOL0     H30367   2.271   8.872   9.568 -1.1740 -1.0175  0.4007
  225MOL0     H30368   2.417   8.969   9.581  0.8258 -1.9761  0.8900
  225MOL0     H30369   2.208   8.922   9.802 -0.6102 -0.7112 -1.5379
  225MOL0     H30370   2.354   9.025   9.821  2.2282 -1.0121 -0.5118
  225MOL0     H30371   2.116   9.306   9.652 -1.0195 -1.0615 -1.0301
  225MOL0     H30372   2.751   9.143   9.596 -1.9845 -0.4134  1.5023
  225MOL0     H30373   2.838   9.339   9.637  0.3956 -0.3755 -1.9256
  225MOL0     H30374   2.935   9.355   9.778 -4.0674 -0.4217  1.0027
  225MOL0     H30375   3.019   9.318   9.618 -0.4438 -0.0053 -0.3022
  226MOL0     O30376   3.859   3.801   9.268  0.1656 -0.0087  0.3072
  226MOL0     C30377   3.821   3.915   9.245 -0.9532 -0.4656  0.3280
  226MOL0     O30378   3.905   4.020   9.239  0.3789 -0.1110 -0.1605
  226MOL0     C30379   4.035   3.995   9.272 -0.0472 -0.7887  0.5499
  226MOL0     C30380   4.125   3.943   9.172  0.2242  0.4596  0.0077
  226MOL0     C30381   4.257   3.900   9.201 -0.0128  0.2563  0.2738
  226MOL0     C30382   4.300   3.908   9.333 -0.6057  0.2500  0.1993
  226MOL0     O30383   4.429   3.865   9.360  0.0794  0.1568 -0.7020
  226MOL0     C30384   4.520   3.972   9.335 -1.5125  0.3888  0.3947
  226MOL0     C30385   4.661   3.916   9.374  0.6322  0.3094  0.4533
  226MOL0     C30386   4.757   4.030   9.410 -0.3748 -0.0771 -0.0806
  226MOL0     C30387   4.831   4.062   9.282  0.4287 -0.1201  0.3987
  226MOL0     C30388   4.914   4.202   9.284 -0.2325  0.7362  0.2882
  226MOL0     C30389   4.941   4.244   9.135 -0.1238 -0.0756  0.5108
  226MOL0     C30390   5.076   4.320   9.120 -0.0954  0.6425  0.0531
  226MOL0     C30391   5.106   4.376   8.976 -0.9640  0.1864  0.3111
  226MOL0     N30392   5.221   4.476   8.992  0.8108 -0.4501  0.6036
  226MOL0     C30393   5.211   4.607   9.042  0.5267  0.1709  0.0909
  226MOL0     C30394   5.331   4.658   9.020 -0.1305 -0.2384  0.4282
  226MOL0     C30395   5.377   4.801   9.048  0.9411  0.1147  0.4982
  226MOL0     C30396   5.368   4.882   8.910  0.2038 -0.8434 -0.0827
  226MOL0     C30397   5.400   5.034   8.941  0.3165 -0.7048 -0.2969
  226MOL0     C30398   5.364   5.140   8.824 -0.2430  0.4032 -0.7642
  226MOL0     O30399   5.412   5.096   8.698  0.4468  0.1813 -0.1764
  226MOL0     C30400   5.544   5.099   8.670 -0.2433  0.0777 -0.8086
  226MOL0     C30401   5.572   5.044   8.542  1.0574  0.6661 -0.9565
  226MOL0     C30402   5.705   5.031   8.499  0.3374 -0.0293  0.3015
  226MOL0     C30403   5.809   5.075   8.584 -0.4064  0.2403 -0.9237
  226MOL0     C30404   5.952   5.063   8.554 -0.5028  1.0149 -0.6229
  226MOL0     O30405   6.036   5.113   8.640 -0.2070 -0.0545 -0.1884
  226MOL0     C30406   6.168   5.079   8.613  0.6751  0.0327 -0.0190
  226MOL0     C30407   6.242   4.995   8.687 -0.0979  0.6083 -0.6252
  226MOL0     C30408   6.369   4.961   8.661 -0.5084  0.5145  0.3585
  226MOL0     C30409   6.442   5.019   8.555  0.3928  0.0363 -0.4391
  226MOL0     O30410   6.578   4.984   8.538  0.0256  0.2034  0.0126
  226MOL0     C30411   6.650   5.037   8.426 -0.0254 -1.0658 -0.1316
  226MOL0     C30412   6.789   4.983   8.425 -0.0433  0.1774  0.3448
  226MOL0     C30413   6.881   5.082   8.348  0.4231  0.3921 -0.1032
  226MOL0     C30414   7.029   5.067   8.381 -0.3678 -0.0780  0.0131
  226MOL0     C30415   7.125   5.133   8.275 -0.3772  0.1294 -0.3462
  226MOL0     C30416   7.274   5.145   8.312  0.6890  0.4976  0.0439
  226MOL0     C30417   7.347   5.008   8.333 -1.3556 -0.5694  0.2902
  226MOL0     C30418   7.490   5.022   8.384 -0.2987  0.3813  0.2547
  226MOL0    Cl30419   7.578   4.866   8.384 -0.0572 -0.3193  0.3427
  226MOL0     C30420   6.372   5.119   8.477 -0.3506  0.2266 -0.1542
  226MOL0     C30421   6.239   5.136   8.504  0.0009 -0.3811 -0.4907
  226MOL0     O30422   5.982   5.004   8.452  0.1800 -0.1626  0.6784
  226MOL0     C30423   5.779   5.135   8.707 -0.5638  0.5379 -0.3887
  226MOL0     C30424   5.653   5.146   8.756  0.5536  0.5787 -0.1520
  226MOL0     N30425   5.417   4.568   8.958  1.3128 -0.0021  0.0179
  226MOL0     N30426   5.344   4.460   8.941 -0.0529 -0.9279  1.0687
  226MOL0     C30427   4.221   3.955   9.434 -0.5122  0.9010  0.6409
  226MOL0     C30428   4.088   3.995   9.409 -0.2325  1.0504  0.3309
  226MOL0     C30429   3.677   3.938   9.235  0.3513  0.7707  0.1515
  226MOL0     C30430   3.633   4.072   9.253 -0.4325  0.3755  0.4497
  226MOL0     C30431   3.506   4.110   9.229  0.0165 -0.4853 -0.1450
  226MOL0     C30432   3.405   4.022   9.195 -0.0533  0.5771  0.2591
  226MOL0     O30433   3.272   4.055   9.178 -0.3788  0.2614 -0.2412
  226MOL0     C30434   3.215   4.172   9.250  0.3479 -0.2322 -1.0496
  226MOL0     C30435   3.054   4.158   9.253  0.4079  0.2587 -0.0600
  226MOL0     C30436   3.008   4.044   9.338  0.1725  0.5121 -0.3069
  226MOL0     C30437   2.899   3.960   9.266 -0.0928  1.1215 -0.5280
  226MOL0     C30438   2.782   4.040   9.223  0.5717 -0.3595 -0.1881
  226MOL0     C30439   2.679   4.108   9.208  0.1545 -0.2179 -0.3145
  226MOL0     C30440   3.448   3.886   9.175  0.0234 -0.3001  0.7599
  226MOL0     C30441   3.579   3.840   9.191 -0.2672  1.1316  0.1818
  226MOL0     C30442   3.607   3.693   9.189  0.0008  0.5151  0.4245
  226MOL0     H30443   4.078   3.916   9.078  0.1283  2.8087 -0.6844
  226MOL0     H30444   4.326   3.858   9.129 -0.5407 -0.5261  0.2073
  226MOL0     H30445   4.516   4.015   9.234  0.6044 -0.8009 -0.2465
  226MOL0     H30446   4.498   4.053   9.406  1.3512  0.7744  0.9626
  226MOL0     H30447   4.677   3.845   9.292 -0.8669  2.8349 -2.2040
  226MOL0     H30448   4.647   3.856   9.464  0.9474  0.0570  0.3356
  226MOL0     H30449   4.817   3.996   9.495 -2.3456 -0.8791  1.0472
  226MOL0     H30450   4.700   4.115   9.449 -2.8285 -0.8460 -1.7634
  226MOL0     H30451   4.900   3.978   9.268 -0.1515 -0.5877  0.2767
  226MOL0     H30452   4.760   4.066   9.199  0.2915 -2.0105  0.3697
  226MOL0     H30453   4.862   4.282   9.337  0.6311  0.6798  1.2544
  226MOL0     H30454   5.012   4.187   9.332  0.7600 -0.1400 -1.8653
  226MOL0     H30455   4.951   4.150   9.078  0.5586  0.6750 -0.6542
  226MOL0     H30456   4.865   4.305   9.087 -0.5358  1.4934  2.9934
  226MOL0     H30457   5.152   4.255   9.163 -2.2901 -0.8958  1.8868
  226MOL0     H30458   5.079   4.412   9.180 -1.5829  3.6284 -3.9955
  226MOL0     H30459   5.132   4.303   8.899 -0.3542  1.9541 -1.2349
  226MOL0     H30460   5.015   4.431   8.947 -1.2190 -0.4108 -0.0291
  226MOL0     H30461   5.121   4.646   9.087 -0.5796 -2.1681  0.0358
  226MOL0     H30462   5.306   4.840   9.122  0.7289  2.2718 -0.7840
  226MOL0     H30463   5.479   4.799   9.085  2.3360  1.7942 -2.8416
  226MOL0     H30464   5.439   4.837   8.841  1.7120 -1.9213  2.0687
  226MOL0     H30465   5.272   4.891   8.858 -0.9511  1.6839  2.1950
  226MOL0     H30466   5.507   5.033   8.967 -0.1623  0.5014  2.0716
  226MOL0     H30467   5.343   5.063   9.030 -1.9393 -2.1717 -1.1741
  226MOL0     H30468   5.396   5.244   8.836  1.1244 -0.1217  0.4334
  226MOL0     H30469   5.256   5.154   8.820 -0.2022  1.1641  0.2571
  226MOL0     H30470   5.491   5.018   8.474  0.2875  1.1212 -0.2292
  226MOL0     H30471   5.731   4.991   8.402 -1.1199  0.7931 -0.4503
  226MOL0     H30472   6.199   4.941   8.771 -1.3570  1.9962 -0.3293
  226MOL0     H30473   6.415   4.890   8.729  0.7574  1.2178  0.2808
  226MOL0     H30474   6.604   5.018   8.329  2.3582  1.4180 -1.9237
  226MOL0     H30475   6.670   5.144   8.441  1.9969 -1.0947 -2.0554
  226MOL0     H30476   6.813   4.971   8.531 -0.2946  0.2435  0.4100
  226MOL0     H30477   6.799   4.889   8.370 -0.2086  1.0785 -1.3223
  226MOL0     H30478   6.877   5.058   8.241 -1.6547 -2.4148  0.4946
  226MOL0     H30479   6.860   5.188   8.367  0.2916  0.3898 -0.2315
  226MOL0     H30480   7.036   4.958   8.380 -0.8689 -0.1104 -0.0483
  226MOL0     H30481   7.048   5.100   8.484 -0.0799  1.7663 -0.5966
  226MOL0     H30482   7.089   5.235   8.259  1.5775  0.6801 -1.6389
  226MOL0     H30483   7.108   5.087   8.177 -1.2803  1.7664 -0.9997
  226MOL0     H30484   7.327   5.205   8.237 -0.3127  2.5966  0.9395
  226MOL0     H30485   7.295   5.199   8.404  0.5371  1.3977 -0.4367
  226MOL0     H30486   7.371   4.963   8.236  1.9462  1.6536 -0.0772
  226MOL0     H30487   7.282   4.937   8.385 -1.8477 -0.6848 -0.4639
  226MOL0     H30488   7.550   5.089   8.322 -1.2465  2.5389  1.5347
  226MOL0     H30489   7.486   5.059   8.487  1.5397  0.3178  0.3802
  226MOL0     H30490   6.423   5.179   8.402  0.1418  2.3014  1.7339
  226MOL0     H30491   6.183   5.213   8.452  2.0500 -0.3514 -2.8319
  226MOL0     H30492   5.854   5.157   8.782 -0.8065 -1.6903  0.5858
  226MOL0     H30493   5.625   5.199   8.846  0.4452 -0.7738  0.6520
  226MOL0     H30494   4.253   3.962   9.538  0.4396 -0.2043  0.4442
  226MOL0     H30495   4.027   4.018   9.496  0.0903  0.6736  0.6587
  226MOL0     H30496   3.701   4.148   9.290 -0.2078 -0.4220  1.7499
  226MOL0     H30497   3.486   4.214   9.252  1.5131 -0.1847 -0.0878
  226MOL0     H30498   3.229   4.260   9.187  0.8480  2.2685  2.2617
  226MOL0     H30499   3.266   4.184   9.346 -0.2492 -0.8740 -0.6390
  226MOL0     H30500   3.035   4.131   9.149  0.8050 -2.3014  0.4573
  226MOL0     H30501   3.022   4.257   9.286  2.5241  0.5184  1.5121
  226MOL0     H30502   2.958   4.086   9.426 -0.3687  0.9069 -0.7969
  226MOL0     H30503   3.087   3.987   9.388  0.3744  2.5995  1.9324
  226MOL0     H30504   2.945   3.909   9.181  1.8342  0.9071  0.5929
  226MOL0     H30505   2.861   3.880   9.330 -1.8914  3.6947  1.8942
  226MOL0     H30506   2.586   4.162   9.200  0.2474  0.0359  0.2794
  226MOL0     H30507   3.364   3.822   9.149 -0.5562  0.4991  0.6341
  226MOL0     H30508   3.685   3.670   9.116 -0.4787  1.3317 -0.3656
  226MOL0     H30509   3.633   3.647   9.285  0.6756 -0.3952 -0.1854
  226MOL0     H30510   3.517   3.638   9.161  0.7402  0.4314 -2.0015
  227MOL0     O30511   3.216  10.717   6.726 -0.2491  0.8208 -0.8597
  227MOL0     C30512   3.197  10.814   6.794 -0.0051  0.0840 -0.8691
  227MOL0     O30513   3.290  10.910   6.824 -0.5672  0.3512 -0.0931
  227MOL0     C30514   3.435  10.887   6.821  0.4925 -0.2850  0.3761
  227MOL0     C30515   3.508  10.769   6.775  0.7964  0.0353 -0.6116
  227MOL0     C30516   3.646  10.764   6.785  0.3535  0.2359 -0.9514
  227MOL0     C30517   3.717  10.859   6.854 -0.1572 -0.4834  0.3664
  227MOL0     O30518   3.854  10.862   6.865 -0.0210 -0.8597  0.0550
  227MOL0     C30519   3.923  10.734   6.865  0.0053 -0.1004  0.2768
  227MOL0     C30520   4.074  10.746   6.907  0.0137  0.7994 -0.5613
  227MOL0     C30521   4.154  10.839   6.806 -0.7318 -0.2363  0.0098
  227MOL0     C30522   4.292  10.865   6.857  1.0622  0.0555  0.3440
  227MOL0     C30523   4.367  10.982   6.776 -0.8104  0.3087 -0.0975
  227MOL0     C30524   4.518  10.971   6.795  0.6434  0.5169 -0.8377
  227MOL0     C30525   4.601  11.075   6.716  0.1308  0.1335 -0.2394
  227MOL0     C30526   4.567  11.076   6.566  0.6850 -0.1061 -0.6743
  227MOL0     N30527   4.605  10.950   6.503  0.3999  0.2084  0.3509
  227MOL0     C30528   4.729  10.904   6.487 -0.7393  0.6502  0.1309
  227MOL0     C30529   4.724  10.782   6.430 -0.0286  0.0393 -0.1636
  227MOL0     C30530   4.842  10.692   6.394  0.3260  0.1943 -1.0534
  227MOL0     C30531   4.909  10.642   6.524 -0.4425 -0.1790  0.4336
  227MOL0     C30532   5.042  10.575   6.515 -0.0093 -0.5654  0.5686
  227MOL0     C30533   5.081  10.523   6.647 -0.5590  0.1294 -0.9911
  227MOL0     O30534   5.126  10.629   6.733  0.1400 -0.0102  0.2282
  227MOL0     C30535   5.260  10.659   6.730  0.3462  0.0084 -0.4134
  227MOL0     C30536   5.297  10.748   6.824 -1.1950 -0.1450 -0.2253
  227MOL0     C30537   5.436  10.774   6.841 -0.7062 -0.5957  0.1935
  227MOL0     C30538   5.535  10.719   6.758 -0.2598  0.5434  0.1462
  227MOL0     C30539   5.679  10.748   6.780  0.7150 -0.1236 -0.0807
  227MOL0     O30540   5.768  10.654   6.728 -0.1033 -0.2908 -0.2697
  227MOL0     C30541   5.904  10.684   6.730  0.4664 -0.6161 -0.2476
  227MOL0     C30542   5.961  10.795   6.667  0.3081 -0.3846 -0.1641
  227MOL0     C30543   6.095  10.821   6.666  0.1446 -0.0028 -0.1646
  227MOL0     C30544   6.182  10.742   6.739 -0.4833  0.1272 -0.5453
  227MOL0     O30545   6.313  10.781   6.765  0.6934  0.4184 -1.1499
  227MOL0     C30546   6.357  10.920   6.743 -0.3998 -0.1104  0.4862
  227MOL0     C30547   6.500  10.944   6.778  1.0409  0.4826  0.2999
  227MOL0     C30548   6.564  11.080   6.733 -0.5230 -0.5812  0.1347
  227MOL0     C30549   6.706  11.085   6.787  0.0202 -0.0954 -0.0137
  227MOL0     C30550   6.796  11.189   6.724 -0.0852 -0.7734 -0.1517
  227MOL0     C30551   6.929  11.196   6.799  0.2264 -0.2883 -0.2586
  227MOL0     C30552   6.912  11.268   6.928  0.1574  0.1514 -0.2468
  227MOL0     C30553   7.047  11.300   6.996 -0.1183 -0.3648 -0.2277
  227MOL0    Cl30554   7.143  11.161   7.031 -0.7479  0.0179 -0.4098
  227MOL0     C30555   6.137  10.622   6.798 -0.3849 -0.0563  0.7955
  227MOL0     C30556   5.999  10.600   6.795 -1.3725  0.3655  0.0341
  227MOL0     O30557   5.711  10.844   6.844  0.7494 -0.1678  0.2059
  227MOL0     C30558   5.487  10.638   6.654  0.0397  0.2786 -0.9957
  227MOL0     C30559   5.358  10.612   6.636  0.8522 -0.1301  0.0785
  227MOL0     N30560   4.596  10.760   6.399  0.6528  0.7975 -0.2546
  227MOL0     N30561   4.528  10.864   6.434  0.7039 -0.2467  0.1003
  227MOL0     C30562   3.642  10.975   6.904  0.0554 -0.5670 -0.2971
  227MOL0     C30563   3.508  10.987   6.889  0.3295 -0.8192 -0.4765
  227MOL0     C30564   3.063  10.838   6.842 -0.0278 -0.5313 -0.2152
  227MOL0     C30565   3.038  10.902   6.963 -0.6754 -0.1631 -0.0854
  227MOL0     C30566   2.913  10.933   7.008  0.9582 -0.5278  0.1590
  227MOL0     C30567   2.801  10.906   6.929  0.7034 -0.9547 -0.1669
  227MOL0     O30568   2.676  10.947   6.980  0.1985 -0.6450 -0.2520
  227MOL0     C30569   2.562  10.950   6.886 -0.3002 -0.0868  0.3516
  227MOL0     C30570   2.446  10.989   6.968  0.1299  0.9512 -0.8781
  227MOL0     C30571   2.397  10.873   7.059 -0.3094 -0.0776  0.1280
  227MOL0     C30572   2.268  10.911   7.132 -0.1050  0.2897 -1.0243
  227MOL0     C30573   2.293  10.999   7.241 -0.4518 -0.8044 -0.1824
  227MOL0     C30574   2.301  11.069   7.339  0.7154  0.0334 -1.0539
  227MOL0     C30575   2.818  10.834   6.813 -0.4502 -0.2952 -0.0359
  227MOL0     C30576   2.950  10.797   6.768  0.0137 -0.0524  0.5387
  227MOL0     C30577   2.963  10.744   6.628  0.4683  0.0809  0.1249
  227MOL0     H30578   3.452  10.686   6.733  0.2619 -0.1367  0.4181
  227MOL0     H30579   3.695  10.683   6.733  1.1523 -1.7208  2.5407
  227MOL0     H30580   3.870  10.659   6.923 -1.3868  1.6529  1.3887
  227MOL0     H30581   3.933  10.705   6.760  2.6396  4.5301 -1.0671
  227MOL0     H30582   4.116  10.645   6.911 -2.4905 -0.2740  2.0155
  227MOL0     H30583   4.088  10.785   7.008  4.5887  0.4384 -0.8620
  227MOL0     H30584   4.090  10.928   6.812 -1.3756 -0.5814 -1.2867
  227MOL0     H30585   4.146  10.801   6.704  0.3364 -2.7644  0.8130
  227MOL0     H30586   4.293  10.882   6.965 -1.6648 -1.9607  0.7885
  227MOL0     H30587   4.345  10.770   6.842  0.2631 -0.6064  1.5873
  227MOL0     H30588   4.357  10.976   6.668  0.0836  0.7594 -0.2202
  227MOL0     H30589   4.337  11.083   6.805  0.1025  1.3705 -2.5949
  227MOL0     H30590   4.539  10.985   6.902 -0.6108  1.1198 -0.6520
  227MOL0     H30591   4.538  10.871   6.755 -0.1043  0.6883 -1.6572
  227MOL0     H30592   4.704  11.045   6.733  0.8185  1.4274 -1.8989
  227MOL0     H30593   4.588  11.176   6.755 -0.2734 -0.2769  0.7414
  227MOL0     H30594   4.465  11.106   6.541  1.4304  0.4700 -3.3328
  227MOL0     H30595   4.632  11.152   6.521  0.0154  1.5778  1.0972
  227MOL0     H30596   4.823  10.944   6.523 -1.6263  2.2393  0.8011
  227MOL0     H30597   4.804  10.603   6.343 -0.4347  0.0999 -0.3399
  227MOL0     H30598   4.918  10.744   6.335  1.2173 -3.2135 -3.1901
  227MOL0     H30599   4.919  10.731   6.586  3.4032 -0.8172  0.9722
  227MOL0     H30600   4.843  10.568   6.571 -2.3924  0.9523 -0.4016
  227MOL0     H30601   5.117  10.648   6.484 -2.4448  1.0785 -1.9225
  227MOL0     H30602   5.043  10.498   6.438  1.5175  0.2418 -0.2719
  227MOL0     H30603   5.157  10.445   6.640 -1.8584 -1.0636 -3.0174
  227MOL0     H30604   4.998  10.467   6.692 -1.0748  1.1348 -0.6754
  227MOL0     H30605   5.216  10.792   6.882 -0.5063  0.5610  0.2233
  227MOL0     H30606   5.464  10.850   6.913 -0.1874  1.0379 -1.6647
  227MOL0     H30607   5.901  10.874   6.625 -1.5218 -1.5626  0.1292
  227MOL0     H30608   6.121  10.919   6.626  3.0526  0.7828  3.1417
  227MOL0     H30609   6.349  10.942   6.637  1.1341  0.1049  0.4021
  227MOL0     H30610   6.289  10.983   6.802 -0.7590  0.8488 -0.9227
  227MOL0     H30611   6.508  10.949   6.887  1.2093  1.4860  0.2521
  227MOL0     H30612   6.555  10.861   6.732 -2.2214 -1.1194 -1.0427
  227MOL0     H30613   6.587  11.083   6.626  0.1208 -0.2457  0.2749
  227MOL0     H30614   6.504  11.154   6.786  1.1510  1.0198 -0.0806
  227MOL0     H30615   6.750  10.986   6.769 -1.9014 -0.8520 -0.8861
  227MOL0     H30616   6.708  11.092   6.896 -0.9637 -0.8625  0.0776
  227MOL0     H30617   6.748  11.288   6.721  1.5277  0.0249 -0.5326
  227MOL0     H30618   6.805  11.175   6.616  0.5499  4.9401 -1.1515
  227MOL0     H30619   6.957  11.091   6.815 -0.0781 -0.3827 -0.3359
  227MOL0     H30620   7.013  11.241   6.745  0.3079  0.4631  0.4845
  227MOL0     H30621   6.851  11.214   7.001  1.1320  0.7096  1.0131
  227MOL0     H30622   6.873  11.370   6.914 -1.2079 -0.1653  0.9857
  227MOL0     H30623   7.107  11.363   6.930  1.7698  0.2926  1.9796
  227MOL0     H30624   7.030  11.355   7.089 -0.8950 -0.1540 -0.4922
  227MOL0     H30625   6.205  10.551   6.845 -2.2272 -1.1159  1.9753
  227MOL0     H30626   5.967  10.515   6.855  0.3391 -2.2139 -2.5002
  227MOL0     H30627   5.563  10.597   6.589  2.3381 -1.3489  2.4205
  227MOL0     H30628   5.318  10.556   6.552  0.1638  0.0294  0.3006
  227MOL0     H30629   3.690  11.048   6.969  1.1310 -3.0189  1.8186
  227MOL0     H30630   3.444  11.066   6.927 -0.6574 -2.1520  0.7329
  227MOL0     H30631   3.116  10.923   7.036  0.0230 -2.2025 -0.1675
  227MOL0     H30632   2.906  10.998   7.095  1.3619 -1.0232  0.5632
  227MOL0     H30633   2.541  10.857   6.834 -1.4589  0.1969  0.2846
  227MOL0     H30634   2.587  11.026   6.812  1.7067  1.1637  2.1621
  227MOL0     H30635   2.369  11.032   6.903 -0.3199 -0.1929 -1.1315
  227MOL0     H30636   2.482  11.073   7.029 -0.0231  0.0475  0.5133
  227MOL0     H30637   2.473  10.844   7.132 -0.5195  0.2067  0.4645
  227MOL0     H30638   2.375  10.786   6.996  1.5575  0.4916 -1.3996
  227MOL0     H30639   2.202  10.952   7.054 -0.9960 -0.0729 -0.4665
  227MOL0     H30640   2.218  10.826   7.179  1.0694 -0.3543 -0.9062
  227MOL0     H30641   2.316  11.138   7.420  1.5449 -0.4862 -0.7482
  227MOL0     H30642   2.727  10.814   6.757 -1.7878 -0.7563  2.1741
  227MOL0     H30643   2.980  10.636   6.635 -0.6152 -0.3645 -2.9566
  227MOL0     H30644   2.870  10.767   6.576  1.0548  0.6195 -0.7120
  227MOL0     H30645   3.052  10.790   6.583  0.2493  1.3867  0.9660
  228MOL0     O30646   3.246   6.611   2.061 -0.1695  0.0358 -0.3668
  228MOL0     C30647   3.250   6.537   2.161  0.0596  0.3180  0.2644
  228MOL0     O30648   3.355   6.510   2.243 -0.0521 -0.0438  0.4162
  228MOL0     C30649   3.479   6.547   2.200  0.2225 -1.0029 -0.2718
  228MOL0     C30650   3.525   6.502   2.084 -0.7561 -0.1171  0.0460
  228MOL0     C30651   3.660   6.526   2.040 -0.8155  0.0901  1.2101
  228MOL0     C30652   3.749   6.597   2.121 -0.1507 -0.6370 -0.8628
  228MOL0     O30653   3.867   6.632   2.059  0.2475  0.3267 -0.6336
  228MOL0     C30654   3.976   6.690   2.141  1.2546  0.1132 -0.1853
  228MOL0     C30655   4.102   6.735   2.067  0.8650  1.2154  0.5500
  228MOL0     C30656   4.207   6.797   2.154 -0.4994  0.4465  0.1394
  228MOL0     C30657   4.342   6.795   2.080 -0.2051  0.1506 -0.0097
  228MOL0     C30658   4.460   6.824   2.172  0.0496 -0.1292 -0.3453
  228MOL0     C30659   4.585   6.819   2.095  0.1976  0.0004  0.1553
  228MOL0     C30660   4.709   6.853   2.169  0.6229 -0.2970  0.4492
  228MOL0     C30661   4.829   6.829   2.073 -0.2638  0.7525 -0.1562
  228MOL0     N30662   4.815   6.870   1.941  0.3435 -0.1416  0.7629
  228MOL0     C30663   4.784   6.789   1.834 -0.3668  0.8814 -0.8550
  228MOL0     C30664   4.760   6.877   1.733  0.9358 -0.5858  0.1569
  228MOL0     C30665   4.710   6.852   1.591 -0.6007 -0.7293 -0.4690
  228MOL0     C30666   4.570   6.889   1.562  0.1916  0.0781 -0.3269
  228MOL0     C30667   4.470   6.802   1.646  0.2577  0.0372 -0.2225
  228MOL0     C30668   4.456   6.649   1.601  0.6000  0.1153 -0.0609
  228MOL0     O30669   4.322   6.610   1.638  0.0758  0.6031  0.1203
  228MOL0     C30670   4.284   6.537   1.746 -0.4121 -0.2601  0.0911
  228MOL0     C30671   4.376   6.503   1.839  0.6390 -0.3133  0.4548
  228MOL0     C30672   4.332   6.431   1.951 -0.4392 -0.3483 -0.3650
  228MOL0     C30673   4.200   6.390   1.958  0.0770  1.1360 -0.0018
  228MOL0     C30674   4.150   6.311   2.061  0.1528 -0.8146 -0.3243
  228MOL0     O30675   4.022   6.287   2.063 -0.6937 -0.2407 -0.2697
  228MOL0     C30676   3.958   6.182   2.125 -0.5575  0.2971  0.0670
  228MOL0     C30677   4.020   6.059   2.148 -0.1381  0.6480  0.3164
  228MOL0     C30678   3.946   5.951   2.189 -0.0161  1.6500 -0.1767
  228MOL0     C30679   3.817   5.960   2.232  0.3320 -0.4650  0.9545
  228MOL0     O30680   3.764   5.845   2.283  0.3602  0.4694  0.4983
  228MOL0     C30681   3.628   5.848   2.319 -0.5872  0.8183  0.2599
  228MOL0     C30682   3.603   5.707   2.360 -0.1687 -0.1231 -0.4042
  228MOL0     C30683   3.450   5.689   2.379 -0.3461  0.3098 -0.1365
  228MOL0     C30684   3.412   5.553   2.441  0.0251  0.0627 -0.3830
  228MOL0     C30685   3.266   5.550   2.471 -0.5100 -0.0996 -0.0039
  228MOL0     C30686   3.201   5.407   2.495  0.0805  0.5659  0.6283
  228MOL0     C30687   3.066   5.408   2.555 -0.5154 -0.1370  0.2661
  228MOL0     C30688   3.016   5.270   2.607  0.5975 -0.5090 -0.1164
  228MOL0    Cl30689   2.943   5.160   2.487 -0.4820 -0.6360 -0.1905
  228MOL0     C30690   3.746   6.083   2.214  0.1434 -0.2987  0.1283
  228MOL0     C30691   3.823   6.190   2.155 -0.2588  0.1992 -0.1325
  228MOL0     O30692   4.232   6.271   2.138 -0.2958 -0.2719  0.5602
  228MOL0     C30693   4.104   6.439   1.862  0.0259 -0.0446  0.8341
  228MOL0     C30694   4.149   6.498   1.748 -0.7218 -0.8298  0.6751
  228MOL0     N30695   4.792   6.999   1.779  0.2209  1.1341 -0.0621
  228MOL0     N30696   4.829   6.996   1.899  0.1282 -0.3766 -0.1221
  228MOL0     C30697   3.706   6.628   2.246 -0.3909 -0.2788 -1.0164
  228MOL0     C30698   3.575   6.605   2.287 -0.3655  0.1524 -0.5035
  228MOL0     C30699   3.122   6.475   2.211  0.1510 -0.1947 -0.4417
  228MOL0     C30700   3.107   6.462   2.352 -0.0740  0.1328  1.6776
  228MOL0     C30701   2.997   6.418   2.408 -0.3606 -0.1614 -0.8430
  228MOL0     C30702   2.883   6.402   2.334 -0.3356  0.3137 -0.2546
  228MOL0     O30703   2.760   6.348   2.370 -0.0316 -0.2274 -0.2955
  228MOL0     C30704   2.762   6.242   2.464 -0.0305  0.1037 -0.1753
  228MOL0     C30705   2.703   6.292   2.600  0.3806 -0.3833 -0.2259
  228MOL0     C30706   2.551   6.318   2.596 -0.6692 -0.3838 -0.1483
  228MOL0     C30707   2.474   6.182   2.601  1.0402  0.1877 -0.1856
  228MOL0     C30708   2.331   6.199   2.569 -0.4084  0.1340 -0.0150
  228MOL0     C30709   2.222   6.230   2.529  0.4491 -0.1570 -0.2757
  228MOL0     C30710   2.886   6.444   2.202 -0.6525 -0.3547  0.4579
  228MOL0     C30711   3.002   6.485   2.139  0.3972 -0.6998  0.6269
  228MOL0     C30712   2.995   6.526   1.984  0.7197  0.2339 -1.1002
  228MOL0     H30713   3.455   6.452   2.017  0.1474 -1.5844  0.1599
  228MOL0     H30714   3.688   6.494   1.940  1.5260  0.0275  1.8496
  228MOL0     H30715   3.926   6.774   2.190 -0.5224 -1.8226  1.5264
  228MOL0     H30716   4.006   6.617   2.217 -0.3141 -1.7371 -1.2554
  228MOL0     H30717   4.078   6.809   1.991  0.8593  2.4137  1.6842
  228MOL0     H30718   4.134   6.649   2.008 -2.2081  0.2266  0.1426
  228MOL0     H30719   4.229   6.721   2.230  0.2659  1.8177  1.3246
  228MOL0     H30720   4.175   6.893   2.196 -0.5591  0.4668  0.0476
  228MOL0     H30721   4.363   6.703   2.026  1.7624  0.0233  0.8734
  228MOL0     H30722   4.335   6.882   2.013 -0.2084 -0.1463 -0.3967
  228MOL0     H30723   4.440   6.928   2.199 -1.4144 -0.2681 -0.8086
  228MOL0     H30724   4.453   6.759   2.259 -2.0720 -0.4656 -0.7154
  228MOL0     H30725   4.603   6.724   2.043  2.0152  0.6707 -0.5072
  228MOL0     H30726   4.582   6.890   2.011  1.4706 -1.5681 -1.2936
  228MOL0     H30727   4.718   6.788   2.256 -2.1916  1.4945  2.2327
  228MOL0     H30728   4.707   6.959   2.194 -0.7112 -0.1892 -0.0741
  228MOL0     H30729   4.915   6.881   2.117 -0.2211  1.4938 -1.0810
  228MOL0     H30730   4.840   6.721   2.069 -0.1769  0.7176  0.7329
  228MOL0     H30731   4.775   6.682   1.821 -1.2392  1.0971 -2.2481
  228MOL0     H30732   4.776   6.902   1.520 -0.6955  1.3516  0.8186
  228MOL0     H30733   4.724   6.744   1.587  1.0213 -0.8781  3.5873
  228MOL0     H30734   4.557   6.994   1.588  1.5032  0.4849 -1.2111
  228MOL0     H30735   4.547   6.876   1.456 -3.1150 -0.2674  0.3412
  228MOL0     H30736   4.374   6.851   1.632 -0.3146 -1.5215 -2.1526
  228MOL0     H30737   4.503   6.809   1.751 -0.6021  1.1657 -0.0087
  228MOL0     H30738   4.535   6.581   1.633  2.2579  2.1386  0.3317
  228MOL0     H30739   4.443   6.643   1.492  0.2175 -0.2029  0.0011
  228MOL0     H30740   4.479   6.539   1.841 -0.3937  3.1344 -0.6118
  228MOL0     H30741   4.403   6.425   2.033 -1.5787  0.1037  0.6896
  228MOL0     H30742   4.124   6.032   2.130 -0.7277 -1.4274 -0.1696
  228MOL0     H30743   3.993   5.854   2.199 -0.2981  1.6110  0.9742
  228MOL0     H30744   3.617   5.915   2.405 -2.8935 -1.7365  2.1341
  228MOL0     H30745   3.561   5.877   2.238 -0.0621  2.3657  0.3442
  228MOL0     H30746   3.628   5.643   2.275 -1.1948 -0.0708 -0.7595
  228MOL0     H30747   3.670   5.681   2.442  2.0187 -0.2355 -2.1459
  228MOL0     H30748   3.413   5.772   2.439 -0.5626 -0.0388  0.2260
  228MOL0     H30749   3.394   5.700   2.287 -1.6826  0.1092  0.6281
  228MOL0     H30750   3.474   5.552   2.531 -2.0877  0.5905  1.1635
  228MOL0     H30751   3.444   5.467   2.383  2.5408 -0.1409  1.1553
  228MOL0     H30752   3.215   5.590   2.383  0.7855 -4.3961 -3.0391
  228MOL0     H30753   3.242   5.613   2.557  0.2617 -1.4447  1.2547
  228MOL0     H30754   3.191   5.349   2.403  1.4815  2.7603 -1.0251
  228MOL0     H30755   3.269   5.348   2.556  2.0480  1.9579 -0.1069
  228MOL0     H30756   2.988   5.439   2.485 -1.2310 -0.8571  0.7198
  228MOL0     H30757   3.078   5.480   2.637 -0.0644  0.1480 -0.0471
  228MOL0     H30758   3.104   5.227   2.658  2.4867  1.2516 -1.7304
  228MOL0     H30759   2.939   5.290   2.682  0.2445 -3.2159  0.3709
  228MOL0     H30760   3.640   6.100   2.227 -0.0743 -2.1063  1.0929
  228MOL0     H30761   3.765   6.280   2.135 -1.5423 -0.2867  1.1856
  228MOL0     H30762   3.997   6.431   1.880  0.1218 -0.6966  1.1641
  228MOL0     H30763   4.077   6.538   1.677  1.1302  1.9802  0.2235
  228MOL0     H30764   3.776   6.677   2.313 -2.1166  1.1343 -0.1916
  228MOL0     H30765   3.550   6.614   2.392  3.3900 -1.3196  0.6508
  228MOL0     H30766   3.184   6.482   2.426 -1.3175 -1.6471  3.5498
  228MOL0     H30767   3.009   6.385   2.511 -0.2143  0.7740 -0.5442
  228MOL0     H30768   2.862   6.206   2.489 -0.5089 -1.4378 -0.3980
  228MOL0     H30769   2.697   6.163   2.425  0.3526 -0.1471 -0.3097
  228MOL0     H30770   2.750   6.384   2.635 -1.0869  0.5800 -0.6737
  228MOL0     H30771   2.720   6.215   2.676 -2.5287 -0.3220  0.6177
  228MOL0     H30772   2.525   6.376   2.508  1.8269 -1.0893 -1.4428
  228MOL0     H30773   2.521   6.365   2.690 -1.1976  0.3218 -0.6632
  228MOL0     H30774   2.512   6.105   2.533  0.3894 -1.6555  1.4433
  228MOL0     H30775   2.481   6.149   2.705  0.1362 -0.6896 -0.3906
  228MOL0     H30776   2.135   6.282   2.495  2.9456  4.0173 -0.9067
  228MOL0     H30777   2.793   6.429   2.148 -0.6617  0.4332  0.2363
  228MOL0     H30778   2.897   6.505   1.939 -0.3885  2.3803  0.1450
  228MOL0     H30779   3.008   6.632   1.961  2.0827  0.4061  0.2878
  228MOL0     H30780   3.080   6.476   1.937  2.1405  1.0473  0.5280
  229MOL0     O30781   3.551   4.813   1.024  0.2400  0.3720 -0.4181
  229MOL0     C30782   3.488   4.893   1.098 -0.0117  0.4019  0.4011
  229MOL0     O30783   3.533   5.013   1.143 -0.4284  0.2401  0.1268
  229MOL0     C30784   3.671   5.034   1.163 -0.2531  0.4503  0.2027
  229MOL0     C30785   3.715   5.169   1.177  0.0148  0.9705  0.3723
  229MOL0     C30786   3.859   5.201   1.196  0.5367 -0.4270  0.0340
  229MOL0     C30787   3.949   5.103   1.199  0.2760  0.3972 -0.9243
  229MOL0     O30788   4.078   5.140   1.215  0.1401  0.3895 -0.2339
  229MOL0     C30789   4.179   5.037   1.219 -0.0344 -0.0596  0.2576
  229MOL0     C30790   4.321   5.098   1.196  1.3996  1.1855  0.2608
  229MOL0     C30791   4.339   5.170   1.066 -0.4324 -0.1415  0.6067
  229MOL0     C30792   4.339   5.078   0.939 -0.1720 -0.0978  0.4884
  229MOL0     C30793   4.365   5.165   0.812 -0.1977  0.7934 -1.3419
  229MOL0     C30794   4.391   5.083   0.683 -0.7527 -0.0600 -0.0201
  229MOL0     C30795   4.512   4.980   0.698  0.4964 -0.6857  0.1405
  229MOL0     C30796   4.609   5.004   0.577  0.3656  0.2668  0.5068
  229MOL0     N30797   4.690   5.122   0.592  0.5696 -0.5093 -0.4509
  229MOL0     C30798   4.765   5.152   0.706  0.6601 -0.1218 -0.0927
  229MOL0     C30799   4.830   5.267   0.674 -0.7975  0.1760  0.3574
  229MOL0     C30800   4.921   5.343   0.770 -0.2895  0.5056 -0.4072
  229MOL0     C30801   5.074   5.333   0.711  0.8517 -0.2932  0.0876
  229MOL0     C30802   5.129   5.193   0.696 -0.1432  0.3048  0.0491
  229MOL0     C30803   5.282   5.199   0.690 -0.4736  0.7340  0.8116
  229MOL0     O30804   5.337   5.076   0.647  0.1252 -0.3430  0.2104
  229MOL0     C30805   5.470   5.051   0.616  0.2233 -0.2757  0.8632
  229MOL0     C30806   5.515   4.933   0.562  0.7313 -0.6772 -0.4724
  229MOL0     C30807   5.647   4.915   0.536  1.1911  1.2805 -0.6877
  229MOL0     C30808   5.737   5.019   0.539 -0.1562  0.7426  0.0472
  229MOL0     C30809   5.876   5.003   0.501 -0.3037 -0.0864 -0.2907
  229MOL0     O30810   5.910   4.897   0.424  0.0672 -0.6397 -0.6957
  229MOL0     C30811   6.045   4.876   0.397  0.3047  0.3093 -0.8186
  229MOL0     C30812   6.052   4.799   0.281 -0.0072 -0.4928 -0.3388
  229MOL0     C30813   6.172   4.758   0.235  0.8899 -0.9266  0.2988
  229MOL0     C30814   6.290   4.785   0.300 -0.7216  0.4616  0.0907
  229MOL0     O30815   6.405   4.747   0.244 -0.3450 -0.6676  0.1464
  229MOL0     C30816   6.525   4.777   0.315 -0.8332  1.0007 -0.0644
  229MOL0     C30817   6.649   4.736   0.238 -0.0672 -0.9728 -0.5386
  229MOL0     C30818   6.666   4.829   0.119  0.0460 -0.8649 -1.1003
  229MOL0     C30819   6.801   4.802   0.056  0.1297  0.5090  0.4082
  229MOL0     C30820   6.919   4.875   0.119 -0.2136 -0.1295 -0.1198
  229MOL0     C30821   7.060   4.833   0.059 -0.0527  0.0313  0.3008
  229MOL0     C30822   7.096   4.686   0.032  0.0713  0.3760  0.0898
  229MOL0     C30823   7.245   4.673   0.019  0.1654 -0.0640  0.6401
  229MOL0    Cl30824   7.296   4.516  -0.044 -0.3577 -0.3019 -0.0921
  229MOL0     C30825   6.282   4.857   0.421 -0.1049  0.2486  0.0820
  229MOL0     C30826   6.158   4.903   0.475  0.5447  0.3466  0.3329
  229MOL0     O30827   5.956   5.086   0.546  0.3301 -0.3429  0.7597
  229MOL0     C30828   5.698   5.145   0.586  0.6071  0.3952 -0.2532
  229MOL0     C30829   5.565   5.158   0.629 -0.2376  0.4620 -0.1068
  229MOL0     N30830   4.784   5.310   0.553  0.1147  0.7108 -0.2248
  229MOL0     N30831   4.694   5.229   0.508 -0.0421 -0.3638  0.1896
  229MOL0     C30832   3.902   4.974   1.198  0.0053  0.2344  0.4514
  229MOL0     C30833   3.769   4.937   1.182 -0.2916  0.5346  0.6556
  229MOL0     C30834   3.346   4.854   1.125  0.9028  0.3405  0.0300
  229MOL0     C30835   3.279   4.779   1.022  0.0287  0.0513 -0.2241
  229MOL0     C30836   3.149   4.737   1.034 -0.3335  0.3448 -0.7181
  229MOL0     C30837   3.073   4.765   1.150 -0.7773  0.2091  0.0113
  229MOL0     O30838   2.947   4.721   1.162 -0.1679  0.3345  0.5304
  229MOL0     C30839   2.858   4.766   1.257  0.2491  0.2170  0.7119
  229MOL0     C30840   2.724   4.703   1.222 -0.1690 -0.3026 -0.0120
  229MOL0     C30841   2.682   4.722   1.078 -0.1526  0.1606 -0.1318
  229MOL0     C30842   2.525   4.700   1.065 -0.0080  0.2676  0.3742
  229MOL0     C30843   2.505   4.558   1.094  0.7216  0.0466  0.0214
  229MOL0     C30844   2.489   4.442   1.102  0.8495 -0.2082  0.2561
  229MOL0     C30845   3.146   4.831   1.254  0.0787  0.4259  0.4997
  229MOL0     C30846   3.279   4.879   1.241 -0.1811 -0.1436  0.1746
  229MOL0     C30847   3.351   4.948   1.357 -0.0396  0.3888 -0.0473
  229MOL0     H30848   3.637   5.245   1.176  0.1297  1.1004 -0.8926
  229MOL0     H30849   3.898   5.302   1.196  0.1981 -0.2831 -0.9899
  229MOL0     H30850   4.169   4.988   1.316  0.0081  0.0390  0.3125
  229MOL0     H30851   4.170   4.967   1.136  0.6881  1.1119 -0.8595
  229MOL0     H30852   4.378   5.005   1.198 -1.3298 -0.6244 -0.7135
  229MOL0     H30853   4.351   5.164   1.278 -2.1838 -0.7303  3.4337
  229MOL0     H30854   4.436   5.220   1.063 -0.9884  1.0129  1.2154
  229MOL0     H30855   4.271   5.255   1.057 -1.9658 -1.0379  2.8821
  229MOL0     H30856   4.412   4.996   0.946  1.0381  0.7480 -1.5039
  229MOL0     H30857   4.241   5.029   0.941 -0.4455  0.3737 -0.9377
  229MOL0     H30858   4.277   5.227   0.791  0.6365  1.2541 -3.8087
  229MOL0     H30859   4.448   5.235   0.825  0.4856  0.6245 -4.2386
  229MOL0     H30860   4.301   5.022   0.667  0.0766 -2.2787  2.9213
  229MOL0     H30861   4.421   5.159   0.610  0.2595  2.2871  2.6506
  229MOL0     H30862   4.473   4.879   0.714 -3.2657  0.7130  0.8663
  229MOL0     H30863   4.556   5.006   0.795  0.8954 -0.8339 -0.0017
  229MOL0     H30864   4.666   4.912   0.554  1.5560  1.0887  0.0459
  229MOL0     H30865   4.547   5.019   0.489  1.6045  1.1355 -0.2511
  229MOL0     H30866   4.792   5.102   0.799  0.5512 -0.7980 -0.4166
  229MOL0     H30867   4.903   5.450   0.770 -0.1135  0.5397  0.0268
  229MOL0     H30868   4.910   5.313   0.875 -2.6385  4.6325  0.7610
  229MOL0     H30869   5.087   5.384   0.615  1.1908  0.8147  0.6972
  229MOL0     H30870   5.125   5.391   0.788 -1.9357  1.9819  0.4126
  229MOL0     H30871   5.090   5.146   0.605  0.5499  0.5272 -0.3738
  229MOL0     H30872   5.111   5.131   0.784  0.7570  1.1119  0.8276
  229MOL0     H30873   5.331   5.219   0.786  0.6667 -0.7956  0.5913
  229MOL0     H30874   5.317   5.273   0.617 -2.3279  0.0410 -0.8950
  229MOL0     H30875   5.433   4.865   0.543 -0.8410  1.2887 -1.0658
  229MOL0     H30876   5.663   4.809   0.518  0.0188  0.8043  0.8685
  229MOL0     H30877   5.964   4.777   0.221 -0.3243  0.1451 -0.1124
  229MOL0     H30878   6.185   4.705   0.141  3.5298  0.5422 -0.2819
  229MOL0     H30879   6.548   4.881   0.337  1.3045  0.3231  1.1594
  229MOL0     H30880   6.530   4.711   0.402  0.0864 -1.6374 -1.9829
  229MOL0     H30881   6.722   4.745   0.319 -0.8173 -2.7084  0.3933
  229MOL0     H30882   6.640   4.631   0.208 -0.8393 -0.4813 -2.1257
  229MOL0     H30883   6.586   4.811   0.046 -3.5651  2.5121  1.5252
  229MOL0     H30884   6.653   4.934   0.148  0.0718 -0.8733 -1.0584
  229MOL0     H30885   6.790   4.850  -0.042  1.6985  2.7391  1.2427
  229MOL0     H30886   6.818   4.694   0.050 -0.6773  0.4193 -0.5118
  229MOL0     H30887   6.898   4.851   0.224 -4.0442  0.5271 -0.5881
  229MOL0     H30888   6.904   4.983   0.121 -1.1402 -0.2633  1.1910
  229MOL0     H30889   7.089   4.889  -0.030  1.7601  0.3739  1.0562
  229MOL0     H30890   7.131   4.876   0.130  2.1462 -1.2941 -0.9905
  229MOL0     H30891   7.049   4.635  -0.052  1.5483  2.2149 -1.9690
  229MOL0     H30892   7.079   4.622   0.119  1.2249 -2.5864 -1.7162
  229MOL0     H30893   7.290   4.754  -0.040  1.8441 -1.8092 -0.6086
  229MOL0     H30894   7.293   4.694   0.115  2.9211 -0.2430 -0.5803
  229MOL0     H30895   6.370   4.877   0.482 -0.9282  1.1523  1.0152
  229MOL0     H30896   6.166   4.942   0.576  0.6613  0.9015  0.1172
  229MOL0     H30897   5.764   5.231   0.589  1.8945 -0.4992 -1.4932
  229MOL0     H30898   5.536   5.254   0.672  0.6799 -0.1972  2.0953
  229MOL0     H30899   3.962   4.892   1.235  0.5872  2.1163  4.1326
  229MOL0     H30900   3.736   4.834   1.187 -0.2400  0.4414 -0.6680
  229MOL0     H30901   3.317   4.768   0.921 -0.3559  0.0869 -0.3734
  229MOL0     H30902   3.100   4.688   0.950 -0.3350  1.6746 -1.5258
  229MOL0     H30903   2.850   4.875   1.261  0.5104  0.2814 -0.1880
  229MOL0     H30904   2.902   4.731   1.351  2.8215 -0.4703 -0.6303
  229MOL0     H30905   2.643   4.729   1.290  0.7400  2.9735 -0.0274
  229MOL0     H30906   2.741   4.599   1.251  1.4266  0.0078  0.2376
  229MOL0     H30907   2.735   4.644   1.023 -2.8116 -1.4190 -0.6162
  229MOL0     H30908   2.713   4.822   1.048 -0.2492 -0.5120 -2.6290
  229MOL0     H30909   2.463   4.758   1.134 -3.7277 -2.4765 -0.3852
  229MOL0     H30910   2.492   4.730   0.966  2.4779  2.4705  0.1119
  229MOL0     H30911   2.490   4.337   1.125  0.3580  0.0208  1.3358
  229MOL0     H30912   3.090   4.844   1.345  1.6410 -0.1152  1.5775
  229MOL0     H30913   3.387   5.048   1.332  5.2107 -1.1655  0.1965
  229MOL0     H30914   3.283   4.952   1.443  0.7316  1.2024  0.5353
  229MOL0     H30915   3.441   4.894   1.387  1.6606  1.8349 -2.2070
  230MOL0     O30916   5.064   1.135   7.020 -0.5571  0.1380 -0.5811
  230MOL0     C30917   4.986   1.129   7.111  0.4898 -0.3026  0.1532
  230MOL0     O30918   5.016   1.121   7.243  0.0154  0.4176  0.7034
  230MOL0     C30919   5.148   1.095   7.276 -0.9522  0.4738  0.1102
  230MOL0     C30920   5.230   1.198   7.320  0.4769  0.1883 -0.4851
  230MOL0     C30921   5.360   1.167   7.365  0.5385 -0.0669  0.4797
  230MOL0     C30922   5.409   1.034   7.369  0.4223 -0.2105 -1.6019
  230MOL0     O30923   5.542   1.014   7.411  0.0129  0.1748  0.0644
  230MOL0     C30924   5.597   0.887   7.418  0.8180 -0.2329  0.0707
  230MOL0     C30925   5.719   0.900   7.510 -0.5210 -0.2665  0.1076
  230MOL0     C30926   5.836   0.979   7.442 -0.1301 -0.6096 -0.1624
  230MOL0     C30927   5.956   1.001   7.544  0.2730  0.2514  0.1392
  230MOL0     C30928   6.048   1.119   7.500 -0.0531  0.0818  0.6594
  230MOL0     C30929   6.137   1.085   7.378  0.0254  0.0268  0.0135
  230MOL0     C30930   6.207   1.210   7.322  1.2248 -0.3220  0.2084
  230MOL0     C30931   6.113   1.315   7.260 -0.3371  1.1241  0.0704
  230MOL0     N30932   6.037   1.248   7.147  0.0602 -0.3257  1.2284
  230MOL0     C30933   5.901   1.238   7.143  0.5248  0.5629 -0.1087
  230MOL0     C30934   5.880   1.155   7.036 -0.3873  0.3440 -0.3396
  230MOL0     C30935   5.757   1.130   6.952  0.1312  0.1080  0.3568
  230MOL0     C30936   5.712   0.989   6.977 -0.3703  0.3700 -0.1282
  230MOL0     C30937   5.597   0.940   6.877  0.1880 -0.7739  1.0519
  230MOL0     C30938   5.470   1.023   6.870 -0.2400 -0.1257 -0.3133
  230MOL0     O30939   5.499   1.153   6.817 -0.8726 -0.0717  0.4925
  230MOL0     C30940   5.405   1.240   6.774  0.2910 -0.1598  0.6697
  230MOL0     C30941   5.266   1.226   6.790 -0.4956  0.0187  0.0488
  230MOL0     C30942   5.179   1.326   6.733 -0.0253  0.6749 -0.3726
  230MOL0     C30943   5.235   1.434   6.660 -0.3059 -1.0145  0.1387
  230MOL0     C30944   5.141   1.535   6.596 -1.1489  0.8238  0.9257
  230MOL0     O30945   5.019   1.493   6.605 -0.1794  0.2990 -0.2111
  230MOL0     C30946   4.909   1.559   6.564 -0.2162  0.7921  0.2423
  230MOL0     C30947   4.897   1.702   6.569 -0.2111  1.2886  1.3582
  230MOL0     C30948   4.785   1.761   6.519  0.5472  0.1319  0.1522
  230MOL0     C30949   4.679   1.691   6.464 -0.2126  0.3179 -0.0116
  230MOL0     O30950   4.568   1.756   6.421 -0.4984 -0.0884  0.2730
  230MOL0     C30951   4.451   1.679   6.390  0.1476  0.3383 -0.3150
  230MOL0     C30952   4.334   1.762   6.350  0.5819  0.8563  0.6173
  230MOL0     C30953   4.229   1.673   6.280 -0.0632 -0.5453 -0.7254
  230MOL0     C30954   4.127   1.764   6.215  0.0682 -0.3726  0.3334
  230MOL0     C30955   4.009   1.687   6.162  0.2855  0.0546 -0.4602
  230MOL0     C30956   3.941   1.758   6.043 -0.4247  1.1103  0.1959
  230MOL0     C30957   3.872   1.893   6.079 -0.4330 -0.0011 -0.3817
  230MOL0     C30958   3.779   1.932   5.975  0.5125  0.3527 -0.0144
  230MOL0    Cl30959   3.845   1.938   5.808  0.0023  0.1010  0.4453
  230MOL0     C30960   4.687   1.548   6.466 -0.0617 -0.4811  0.0909
  230MOL0     C30961   4.808   1.483   6.505 -0.1156  0.1457 -0.3291
  230MOL0     O30962   5.179   1.632   6.535 -0.4843  0.5220 -0.4153
  230MOL0     C30963   5.372   1.452   6.643 -0.0583 -0.4151 -0.0474
  230MOL0     C30964   5.458   1.351   6.702  0.0919 -0.0857  0.4702
  230MOL0     N30965   6.007   1.112   6.987 -0.5372  0.1045 -0.6304
  230MOL0     N30966   6.099   1.177   7.051 -0.3272  0.2576  0.6949
  230MOL0     C30967   5.319   0.932   7.334  0.9836  0.4915 -0.4125
  230MOL0     C30968   5.193   0.959   7.283  0.5291 -0.2478  0.8880
  230MOL0     C30969   4.839   1.139   7.082  0.2179  0.6942 -0.8808
  230MOL0     C30970   4.756   1.211   7.177 -0.1223 -0.3866 -1.0130
  230MOL0     C30971   4.621   1.241   7.145 -0.4267  0.0767 -0.9259
  230MOL0     C30972   4.574   1.201   7.030  0.1034 -0.5452  0.0590
  230MOL0     O30973   4.447   1.247   6.991 -0.1325  0.2350 -0.4320
  230MOL0     C30974   4.389   1.256   6.855  0.4219  0.8767 -0.3556
  230MOL0     C30975   4.280   1.147   6.842 -0.4618 -0.0604  0.4586
  230MOL0     C30976   4.169   1.151   6.944  0.5982 -0.0323  0.3962
  230MOL0     C30977   4.073   1.278   6.920  0.2772 -0.1415 -0.3450
  230MOL0     C30978   3.946   1.259   6.996 -0.3152  0.3651 -0.0424
  230MOL0     C30979   3.840   1.258   7.056  0.3997 -0.1748  0.1943
  230MOL0     C30980   4.646   1.121   6.943  0.4443 -0.5006 -0.2410
  230MOL0     C30981   4.777   1.084   6.971  0.5349  0.2168 -0.6445
  230MOL0     C30982   4.846   0.983   6.884 -0.4529 -0.6467 -0.5874
  230MOL0     H30983   5.192   1.299   7.331 -2.3625 -0.7114 -1.0797
  230MOL0     H30984   5.429   1.247   7.389 -0.9570  0.5482  3.2101
  230MOL0     H30985   5.530   0.811   7.458  0.2727  0.0060 -0.3836
  230MOL0     H30986   5.631   0.860   7.317  1.0659  0.7739 -0.1313
  230MOL0     H30987   5.750   0.796   7.526  0.5253 -0.3766 -2.2215
  230MOL0     H30988   5.687   0.949   7.602  0.5507 -1.6679  1.2641
  230MOL0     H30989   5.791   1.075   7.416 -0.3709 -0.6203  0.2033
  230MOL0     H30990   5.866   0.937   7.346  1.6332 -0.8681  0.4720
  230MOL0     H30991   5.920   1.020   7.646  0.2078  0.1251  0.1403
  230MOL0     H30992   6.019   0.913   7.560 -1.2551 -0.6932  1.2242
  230MOL0     H30993   5.991   1.209   7.475  2.1204  1.4710  0.3507
  230MOL0     H30994   6.115   1.143   7.584  1.5794 -2.0335  0.0516
  230MOL0     H30995   6.210   1.011   7.412  0.1316  0.0238 -0.2227
  230MOL0     H30996   6.073   1.035   7.305 -1.9826  1.2029  0.8659
  230MOL0     H30997   6.272   1.162   7.247 -0.7142 -2.3117 -0.3057
  230MOL0     H30998   6.259   1.268   7.398  0.1276  0.1896  0.5903
  230MOL0     H30999   6.033   1.361   7.317 -0.3792  2.3352 -0.9132
  230MOL0     H31000   6.169   1.402   7.225  0.9157  0.8367  1.2742
  230MOL0     H31001   5.826   1.287   7.203  1.5241  1.6400  0.2940
  230MOL0     H31002   5.681   1.201   6.983  1.1954  0.7979  1.4860
  230MOL0     H31003   5.789   1.152   6.849  0.0323 -0.4519  0.1995
  230MOL0     H31004   5.784   0.909   6.956  0.9159  2.0609 -2.6058
  230MOL0     H31005   5.683   0.978   7.082 -0.5618 -0.5898 -0.2683
  230MOL0     H31006   5.574   0.835   6.895 -0.7325 -0.8943 -0.6045
  230MOL0     H31007   5.630   0.946   6.773  0.7032  3.9089  1.2383
  230MOL0     H31008   5.414   1.024   6.964 -0.4694 -0.1963 -0.4490
  230MOL0     H31009   5.400   0.976   6.801  0.3822 -1.0737 -0.3154
  230MOL0     H31010   5.224   1.144   6.847 -0.6694  0.6909  0.9133
  230MOL0     H31011   5.072   1.318   6.750  0.1327 -1.0575  0.0276
  230MOL0     H31012   4.984   1.753   6.609  1.2856 -0.9664  1.1376
  230MOL0     H31013   4.788   1.869   6.528 -0.3591  0.1009  1.0536
  230MOL0     H31014   4.483   1.626   6.300  0.3637  0.6181 -0.4020
  230MOL0     H31015   4.417   1.599   6.457 -0.9799  0.8184 -0.2821
  230MOL0     H31016   4.280   1.813   6.430 -2.8822 -1.0714 -0.3029
  230MOL0     H31017   4.375   1.833   6.277  0.0977  0.9951  0.4781
  230MOL0     H31018   4.272   1.598   6.214  0.2760 -3.1579  2.2371
  230MOL0     H31019   4.166   1.619   6.353 -2.3281  0.3123 -1.9451
  230MOL0     H31020   4.176   1.821   6.136  1.4815 -0.4481  1.1158
  230MOL0     H31021   4.091   1.837   6.288  0.5341 -1.3925  1.6182
  230MOL0     H31022   3.937   1.678   6.244  0.2903 -0.1788 -0.4824
  230MOL0     H31023   4.046   1.593   6.120  0.1700 -0.6187  0.8918
  230MOL0     H31024   4.003   1.772   5.954 -0.0149  1.9584  0.6046
  230MOL0     H31025   3.865   1.686   6.009  1.6703 -0.4768 -1.4782
  230MOL0     H31026   3.936   1.981   6.082 -1.3054  0.6203  1.6955
  230MOL0     H31027   3.830   1.886   6.180  0.7526  0.9065  0.1898
  230MOL0     H31028   3.689   1.871   5.979  0.5321  0.2093 -1.3054
  230MOL0     H31029   3.755   2.036   5.999 -0.2716 -0.1970  1.7169
  230MOL0     H31030   4.605   1.484   6.438  0.7123 -1.7389  0.5940
  230MOL0     H31031   4.821   1.375   6.502 -0.6424 -0.0567  2.4460
  230MOL0     H31032   5.418   1.534   6.589  0.3351 -0.9030 -0.4668
  230MOL0     H31033   5.563   1.359   6.677 -0.0253  3.2691  0.5323
  230MOL0     H31034   5.349   0.828   7.339 -0.9194 -0.0484  2.6518
  230MOL0     H31035   5.133   0.876   7.246  3.1470 -3.2841  2.9003
  230MOL0     H31036   4.795   1.245   7.273 -2.1242 -3.0721  0.9115
  230MOL0     H31037   4.554   1.305   7.202  0.2624 -0.8553  1.0205
  230MOL0     H31038   4.465   1.242   6.778 -1.0518  0.8978 -1.8715
  230MOL0     H31039   4.352   1.358   6.840  0.3483  1.2887  2.2163
  230MOL0     H31040   4.326   1.048   6.839 -0.6310 -0.1381 -2.8261
  230MOL0     H31041   4.245   1.159   6.739  0.0886 -1.0896  0.1409
  230MOL0     H31042   4.221   1.160   7.040  1.5495  0.2931 -0.1424
  230MOL0     H31043   4.111   1.058   6.944  0.1611  0.2067 -1.7373
  230MOL0     H31044   4.110   1.370   6.965 -2.7360  1.3406 -0.6392
  230MOL0     H31045   4.060   1.295   6.813 -1.7003  2.6163  0.2217
  230MOL0     H31046   3.757   1.244   7.122  0.0591 -1.5171 -0.4891
  230MOL0     H31047   4.620   1.092   6.841 -0.8220 -1.8579  0.4264
  230MOL0     H31048   4.882   0.903   6.948 -1.3892 -3.0861 -2.9105
  230MOL0     H31049   4.777   0.945   6.807 -1.6958  0.9171 -0.3168
  230MOL0     H31050   4.934   1.026   6.835  0.0896  0.5154  1.3122
  231MOL0     O31051   4.333   3.956   6.040 -0.2239 -0.5736 -0.3846
  231MOL0     C31052   4.305   3.843   6.086 -0.3873 -0.1139 -0.0909
  231MOL0     O31053   4.386   3.740   6.123  0.8286  0.4741 -0.3117
  231MOL0     C31054   4.514   3.760   6.156  0.2203  0.0067 -0.1836
  231MOL0     C31055   4.601   3.865   6.105  0.4121  0.4082 -0.1820
  231MOL0     C31056   4.733   3.877   6.142 -0.1494  0.0500 -0.1202
  231MOL0     C31057   4.790   3.787   6.234  0.0441 -0.0115 -0.4781
  231MOL0     O31058   4.917   3.822   6.271 -0.3929  0.4450 -0.1230
  231MOL0     C31059   5.003   3.724   6.335 -0.5084 -0.4093  0.5467
  231MOL0     C31060   5.107   3.668   6.236 -0.4283 -0.0887  0.4572
  231MOL0     C31061   5.214   3.778   6.213 -0.6864 -0.2036  0.5885
  231MOL0     C31062   5.310   3.737   6.100  0.4938 -0.0186 -0.8782
  231MOL0     C31063   5.401   3.846   6.040 -0.8775  0.5096  0.4214
  231MOL0     C31064   5.461   3.796   5.905  0.0478  0.3493 -0.1619
  231MOL0     C31065   5.594   3.858   5.870 -1.2628 -1.2091 -0.1083
  231MOL0     C31066   5.582   4.005   5.821 -0.5104 -0.5011  0.0389
  231MOL0     N31067   5.707   4.063   5.765 -0.4509 -0.6641  0.5312
  231MOL0     C31068   5.766   4.182   5.804  0.4650 -0.2532  0.4260
  231MOL0     C31069   5.883   4.190   5.736 -0.2402  0.9206 -0.8409
  231MOL0     C31070   5.965   4.317   5.745  0.0449 -0.0261  0.4490
  231MOL0     C31071   6.071   4.313   5.633 -0.4179 -0.2309 -0.4758
  231MOL0     C31072   6.163   4.430   5.646 -1.2066  0.1205  0.6843
  231MOL0     C31073   6.302   4.429   5.575 -0.1612 -0.5714  0.0732
  231MOL0     O31074   6.382   4.367   5.682  0.3982 -0.2008  0.3736
  231MOL0     C31075   6.514   4.341   5.663  0.4603 -0.1853  0.4930
  231MOL0     C31076   6.595   4.283   5.767  0.4617 -0.8538  1.0314
  231MOL0     C31077   6.726   4.236   5.752  0.4274  0.3891 -0.3800
  231MOL0     C31078   6.785   4.257   5.629  0.5461  0.1106  0.2124
  231MOL0     C31079   6.921   4.213   5.611 -0.4896  0.3715  0.2609
  231MOL0     O31080   6.964   4.160   5.493  0.0922  0.4255 -0.0370
  231MOL0     C31081   7.094   4.147   5.465 -0.0990  0.1697  0.0798
  231MOL0     C31082   7.142   4.025   5.419  0.5920 -0.5396  0.0629
  231MOL0     C31083   7.273   4.001   5.393  0.2432  1.0329 -0.0378
  231MOL0     C31084   7.359   4.111   5.383 -0.7364  0.1515  0.1129
  231MOL0     O31085   7.484   4.093   5.339  0.3622  0.1484  0.2906
  231MOL0     C31086   7.547   3.965   5.351 -0.5629 -0.2793  0.4563
  231MOL0     C31087   7.703   3.981   5.324  0.1386 -0.3097  0.4414
  231MOL0     C31088   7.758   3.844   5.286  0.6134  0.1589 -1.4144
  231MOL0     C31089   7.765   3.747   5.407 -0.0291 -0.6271  1.0506
  231MOL0     C31090   7.663   3.629   5.389 -0.5748  0.1917 -0.3930
  231MOL0     C31091   7.662   3.534   5.516 -1.3085  0.3433  0.5411
  231MOL0     C31092   7.794   3.456   5.538  0.3554 -0.1406  0.1289
  231MOL0     C31093   7.771   3.326   5.614  0.2883 -0.4479  0.1647
  231MOL0    Cl31094   7.681   3.193   5.520  0.1761 -0.0278  0.0347
  231MOL0     C31095   7.318   4.237   5.416  0.2260  0.1278 -0.4607
  231MOL0     C31096   7.187   4.256   5.456  0.3623  0.3480  0.1427
  231MOL0     O31097   6.997   4.244   5.705  0.3028 -0.0803 -0.2151
  231MOL0     C31098   6.713   4.310   5.521  0.4464  0.8300 -0.2007
  231MOL0     C31099   6.583   4.350   5.545  0.4067  0.5034 -0.1748
  231MOL0     N31100   5.912   4.075   5.674 -0.1696 -0.0003  0.2421
  231MOL0     N31101   5.799   4.009   5.673  0.4358  0.0120 -0.0065
  231MOL0     C31102   4.712   3.678   6.287  0.0366 -0.2980 -0.6532
  231MOL0     C31103   4.576   3.670   6.237 -0.2192  0.0507 -0.0157
  231MOL0     C31104   4.157   3.800   6.090 -0.2016 -0.7708  1.0954
  231MOL0     C31105   4.121   3.663   6.082  0.2745  0.1268  0.0038
  231MOL0     C31106   3.990   3.618   6.084  0.5455 -0.1147  0.0925
  231MOL0     C31107   3.880   3.713   6.085 -0.2151  0.0564 -0.5363
  231MOL0     O31108   3.749   3.681   6.102  0.3599 -0.0376 -0.3086
  231MOL0     C31109   3.714   3.544   6.100 -0.1396 -0.0441 -0.2919
  231MOL0     C31110   3.567   3.516   6.115 -0.0445 -0.1255  0.4044
  231MOL0     C31111   3.514   3.590   6.242 -0.4767 -0.6493  0.0734
  231MOL0     C31112   3.371   3.546   6.278  0.0383  0.7314 -0.2726
  231MOL0     C31113   3.278   3.537   6.159  0.0061  0.9071  0.6202
  231MOL0     C31114   3.210   3.550   6.056  0.3892 -0.3708 -0.2492
  231MOL0     C31115   3.911   3.851   6.093  0.4961  0.5205  0.4333
  231MOL0     C31116   4.047   3.888   6.107  0.2781 -0.8455 -0.1975
  231MOL0     C31117   4.068   4.040   6.117 -0.1785  0.5999  0.5473
  231MOL0     H31118   4.573   3.941   6.032 -0.2618  1.8737  1.5324
  231MOL0     H31119   4.780   3.960   6.091  0.9608 -0.6915 -0.3351
  231MOL0     H31120   5.054   3.766   6.422  0.7553 -3.3869  1.3670
  231MOL0     H31121   4.942   3.650   6.388 -0.6404 -0.0954  0.8310
  231MOL0     H31122   5.052   3.645   6.144 -1.8948  3.4378  0.2873
  231MOL0     H31123   5.155   3.581   6.281  2.9301  1.4382  0.1923
  231MOL0     H31124   5.266   3.789   6.309  0.8196  3.8432 -0.4888
  231MOL0     H31125   5.163   3.868   6.179  0.6150 -0.1886 -1.5835
  231MOL0     H31126   5.373   3.655   6.135 -1.2798 -2.1767 -2.4116
  231MOL0     H31127   5.251   3.695   6.018  3.8223 -2.2699 -2.3432
  231MOL0     H31128   5.345   3.937   6.015 -0.5116  0.3631 -1.0517
  231MOL0     H31129   5.486   3.872   6.103  0.3339  0.1717 -1.0014
  231MOL0     H31130   5.482   3.689   5.893 -1.4848 -0.0268  0.3843
  231MOL0     H31131   5.383   3.806   5.829 -2.1761 -0.5540  1.8750
  231MOL0     H31132   5.645   3.803   5.790 -0.2268 -0.3944 -0.0228
  231MOL0     H31133   5.651   3.849   5.962 -4.2206 -1.2056  1.8742
  231MOL0     H31134   5.514   3.990   5.737 -3.1670 -2.9973  2.4172
  231MOL0     H31135   5.535   4.066   5.898  2.1842 -0.7652  2.0302
  231MOL0     H31136   5.718   4.254   5.870 -0.8323 -1.2707  0.6156
  231MOL0     H31137   5.896   4.402   5.737 -2.0659 -1.3951  2.9278
  231MOL0     H31138   6.023   4.320   5.838  2.0844  0.2641 -0.7543
  231MOL0     H31139   6.128   4.221   5.648  0.8441  0.8393  1.7371
  231MOL0     H31140   6.027   4.325   5.533 -1.6205  1.5330  0.2258
  231MOL0     H31141   6.166   4.461   5.751  2.2320 -0.3222  0.8144
  231MOL0     H31142   6.113   4.512   5.594 -1.6787 -1.4135 -1.4409
  231MOL0     H31143   6.333   4.526   5.533 -0.1237 -1.0964 -1.1697
  231MOL0     H31144   6.317   4.367   5.486  1.4081 -0.2900  0.1031
  231MOL0     H31145   6.553   4.269   5.866 -0.7386 -1.0262  0.5232
  231MOL0     H31146   6.776   4.195   5.838  0.9866  1.2694 -0.2707
  231MOL0     H31147   7.067   3.947   5.411 -0.3585  0.5413 -2.8626
  231MOL0     H31148   7.306   3.900   5.372 -0.0421  0.4553  2.0690
  231MOL0     H31149   7.521   3.914   5.444 -2.9958  0.3315  0.1793
  231MOL0     H31150   7.514   3.915   5.259  0.1689  0.8195 -0.4326
  231MOL0     H31151   7.726   4.059   5.251 -1.6513 -1.7328 -1.7967
  231MOL0     H31152   7.753   4.016   5.415 -0.3077  1.6457 -0.0195
  231MOL0     H31153   7.694   3.803   5.208 -1.7600 -1.3676  1.1337
  231MOL0     H31154   7.856   3.849   5.237  0.9677  0.0749 -0.7324
  231MOL0     H31155   7.736   3.783   5.506 -2.1885  0.3888  0.1261
  231MOL0     H31156   7.863   3.700   5.400  0.2524  0.1156 -0.2768
  231MOL0     H31157   7.685   3.573   5.298  0.5612  0.8257 -0.5298
  231MOL0     H31158   7.563   3.672   5.380  0.5395  3.0892 -0.0370
  231MOL0     H31159   7.638   3.589   5.607  0.9187  0.6912  0.9710
  231MOL0     H31160   7.584   3.458   5.504 -1.3133  0.6864 -2.4116
  231MOL0     H31161   7.866   3.524   5.585  1.1112 -1.8746  1.5759
  231MOL0     H31162   7.840   3.436   5.441  0.2994  1.1996 -0.1899
  231MOL0     H31163   7.866   3.290   5.654 -0.9584 -0.6925  3.1677
  231MOL0     H31164   7.714   3.352   5.704 -0.2533  0.6049 -0.4691
  231MOL0     H31165   7.393   4.315   5.408  1.5519 -1.0474  0.1563
  231MOL0     H31166   7.150   4.352   5.492  0.4237  0.3723  0.1398
  231MOL0     H31167   6.764   4.317   5.426  4.5385 -2.2094  1.4958
  231MOL0     H31168   6.542   4.391   5.454 -3.3102  0.9016  1.5160
  231MOL0     H31169   4.744   3.606   6.361 -0.5864  0.6348  0.5614
  231MOL0     H31170   4.521   3.586   6.277  1.8871 -1.5140 -0.2698
  231MOL0     H31171   4.197   3.589   6.062  0.4093  0.9651 -3.2180
  231MOL0     H31172   3.974   3.511   6.079 -0.1560  0.0230 -1.1580
  231MOL0     H31173   3.765   3.487   6.178 -2.6231 -1.4866  0.3564
  231MOL0     H31174   3.737   3.498   6.004  0.5464 -1.6162  0.5995
  231MOL0     H31175   3.555   3.408   6.126 -0.9472  0.0602  1.3628
  231MOL0     H31176   3.509   3.549   6.028 -1.1367  0.9850  1.4990
  231MOL0     H31177   3.515   3.699   6.229  2.3823 -0.4337  1.3281
  231MOL0     H31178   3.583   3.566   6.323  2.1664  1.8823 -1.2438
  231MOL0     H31179   3.382   3.449   6.327  0.5157  2.2030  2.7723
  231MOL0     H31180   3.320   3.621   6.338 -0.9334  0.7145 -1.0638
  231MOL0     H31181   3.161   3.592   5.971 -1.1771  2.4832  1.9182
  231MOL0     H31182   3.843   3.933   6.113 -0.4504 -0.6507  2.2553
  231MOL0     H31183   4.075   4.083   6.017  0.1361 -0.6456  0.0173
  231MOL0     H31184   3.979   4.073   6.172 -0.7524 -3.2326  2.2495
  231MOL0     H31185   4.150   4.067   6.184 -0.8422  3.4940  0.3082
  232MOL0     O31186   8.610  11.035   0.207  0.3566 -0.0771 -0.7535
  232MOL0     C31187   8.595  10.965   0.307  0.0685  0.5567  0.6501
  232MOL0     O31188   8.688  10.875   0.350 -0.3461  0.6874  0.4846
  232MOL0     C31189   8.812  10.858   0.295  0.6349 -0.2221 -0.2100
  232MOL0     C31190   8.867  10.725   0.305 -0.2311 -0.2105 -0.0565
  232MOL0     C31191   8.992  10.701   0.237 -0.6290  0.3765 -0.5616
  232MOL0     C31192   9.059  10.798   0.171  0.1764 -0.3354  0.8283
  232MOL0     O31193   9.174  10.777   0.104 -0.0868 -0.0106  0.0802
  232MOL0     C31194   9.281  10.866   0.141 -0.7916  0.3068 -0.9626
  232MOL0     C31195   9.414  10.782   0.112  0.6486 -0.5810  0.9364
  232MOL0     C31196   9.530  10.873   0.085  0.5102  0.4760  0.4382
  232MOL0     C31197   9.645  10.788   0.039 -0.3458 -0.0028 -0.0307
  232MOL0     C31198   9.757  10.871  -0.009 -0.7113 -0.3466 -0.8722
  232MOL0     C31199   9.848  10.804  -0.119  0.4150 -0.3214 -0.0448
  232MOL0     C31200   9.927  10.687  -0.075 -0.0480  0.0663  0.0507
  232MOL0     C31201   9.992  10.613  -0.192  0.6193  0.1929 -0.3096
  232MOL0     N31202   9.898  10.574  -0.294 -0.0404 -0.9315  0.6119
  232MOL0     C31203   9.834  10.453  -0.296  0.2236  0.0168  0.5190
  232MOL0     C31204   9.760  10.457  -0.410  0.1097 -0.0882  0.4573
  232MOL0     C31205   9.663  10.351  -0.452  0.0986 -0.3137 -0.4028
  232MOL0     C31206   9.519  10.407  -0.451 -0.4318  0.3567  0.0820
  232MOL0     C31207   9.485  10.463  -0.314  0.4340 -0.0331 -0.8068
  232MOL0     C31208   9.443  10.614  -0.324  0.4386  0.2346 -0.4911
  232MOL0     O31209   9.326  10.633  -0.403 -0.0900  0.0836 -0.4375
  232MOL0     C31210   9.204  10.625  -0.334 -0.1018  0.3650 -0.6590
  232MOL0     C31211   9.099  10.692  -0.398 -0.1803 -0.6457 -0.1959
  232MOL0     C31212   8.970  10.700  -0.349 -0.1688 -0.2400 -0.5451
  232MOL0     C31213   8.939  10.639  -0.227  0.6068 -0.3649 -0.8966
  232MOL0     C31214   8.793  10.648  -0.179 -0.6817 -0.2452  0.1670
  232MOL0     O31215   8.715  10.743  -0.240 -0.3440  0.0977 -0.2032
  232MOL0     C31216   8.589  10.737  -0.182 -0.0882 -0.1477 -0.6317
  232MOL0     C31217   8.563  10.801  -0.062 -0.1294 -0.6746 -0.0500
  232MOL0     C31218   8.435  10.791  -0.011 -0.2391  0.0568  0.8008
  232MOL0     C31219   8.339  10.705  -0.071 -0.1465  0.3098 -0.3226
  232MOL0     O31220   8.221  10.695  -0.004  0.7124 -0.5161  0.7583
  232MOL0     C31221   8.100  10.711  -0.079  0.0955  0.4572 -0.6337
  232MOL0     C31222   7.978  10.724   0.015  1.1955  0.2541 -0.6006
  232MOL0     C31223   7.844  10.740  -0.064  0.0525  0.5819 -0.4485
  232MOL0     C31224   7.725  10.775   0.020  0.4858  0.2232 -0.4967
  232MOL0     C31225   7.593  10.770  -0.068 -0.5922  0.2170  0.1954
  232MOL0     C31226   7.460  10.784   0.011  0.3940 -0.6088 -0.1663
  232MOL0     C31227   7.336  10.804  -0.085  0.4402 -1.0449  0.2955
  232MOL0     C31228   7.205  10.855  -0.019 -1.0886 -0.9763  1.2902
  232MOL0    Cl31229   7.160  10.730   0.098  0.1535  0.0288  0.0663
  232MOL0     C31230   8.369  10.650  -0.201  0.1566 -0.4536 -0.4017
  232MOL0     C31231   8.493  10.671  -0.252 -0.3431  0.1204 -0.3408
  232MOL0     O31232   8.762  10.558  -0.112  0.2039  0.8520  0.1248
  232MOL0     C31233   9.045  10.570  -0.153 -0.2301 -0.1636  1.1361
  232MOL0     C31234   9.178  10.563  -0.207  0.5992 -0.3155 -0.3120
  232MOL0     N31235   9.774  10.581  -0.473  0.1428  0.9148  0.2646
  232MOL0     N31236   9.866  10.646  -0.407 -0.1387 -0.6766 -0.2595
  232MOL0     C31237   9.007  10.932   0.163  0.0883 -0.5945  0.2045
  232MOL0     C31238   8.889  10.964   0.226  0.4999  1.2344 -0.4071
  232MOL0     C31239   8.474  10.990   0.386 -0.2554  0.5834 -0.2076
  232MOL0     C31240   8.388  11.103   0.352  0.3406  0.6383 -0.3391
  232MOL0     C31241   8.286  11.141   0.431  0.1160 -0.1401  0.2110
  232MOL0     C31242   8.250  11.071   0.546  0.2458  0.3820 -0.9776
  232MOL0     O31243   8.138  11.099   0.627 -0.1479  0.3057 -0.3790
  232MOL0     C31244   8.104  11.028   0.747  0.1516  0.0440  0.0566
  232MOL0     C31245   7.959  10.986   0.755 -0.2195 -0.1058 -0.4605
  232MOL0     C31246   7.922  10.912   0.629 -1.1584  0.5317  0.2611
  232MOL0     C31247   7.810  10.807   0.653 -0.1039  0.2075  0.3789
  232MOL0     C31248   7.687  10.850   0.724 -0.2978  0.4610  0.6094
  232MOL0     C31249   7.584  10.879   0.785  0.2795  0.1741  0.2558
  232MOL0     C31250   8.324  10.958   0.567  0.4752  0.7597 -1.3760
  232MOL0     C31251   8.434  10.918   0.497  0.0298  0.1129 -0.3282
  232MOL0     C31252   8.510  10.788   0.534  0.4305  0.4591 -0.4350
  232MOL0     H31253   8.826  10.638   0.354  1.0829 -1.3010 -0.8179
  232MOL0     H31254   9.032  10.600   0.240 -0.1274  0.5815 -0.2432
  232MOL0     H31255   9.281  10.951   0.073 -1.5772  0.7661 -0.3989
  232MOL0     H31256   9.286  10.893   0.247  1.8909 -1.7043 -0.4434
  232MOL0     H31257   9.394  10.722   0.022  2.4399  0.5903 -0.3263
  232MOL0     H31258   9.434  10.711   0.193 -2.6559 -2.9790 -0.1351
  232MOL0     H31259   9.551  10.929   0.177 -3.1054  1.7779  0.6534
  232MOL0     H31260   9.510  10.943   0.004 -1.8512  2.1740  2.3348
  232MOL0     H31261   9.675  10.710   0.109 -0.0020  0.3640  0.2298
  232MOL0     H31262   9.604  10.747  -0.054  0.5554 -1.2809  0.1176
  232MOL0     H31263   9.731  10.972  -0.043 -2.8340  0.2523  2.0914
  232MOL0     H31264   9.817  10.892   0.080 -1.5144  1.1202 -0.6342
  232MOL0     H31265   9.788  10.777  -0.206 -0.9076  0.3973  0.6184
  232MOL0     H31266   9.917  10.882  -0.153 -1.5912  1.6418  0.1692
  232MOL0     H31267   9.862  10.608  -0.038  0.4246 -0.6002 -0.4977
  232MOL0     H31268  10.002  10.715   0.000 -1.6723 -1.7867  2.4837
  232MOL0     H31269  10.077  10.673  -0.226 -0.1200  1.4778  0.0209
  232MOL0     H31270  10.035  10.519  -0.156  1.8015 -0.0677 -2.3041
  232MOL0     H31271   9.851  10.383  -0.215  1.5902  1.3375  1.4476
  232MOL0     H31272   9.684  10.325  -0.556  0.0645  0.1504 -0.5321
  232MOL0     H31273   9.668  10.264  -0.386 -0.6254  0.3347  0.5296
  232MOL0     H31274   9.504  10.484  -0.528 -2.8482 -1.5775 -1.5606
  232MOL0     H31275   9.453  10.325  -0.481 -1.2624  1.2084 -0.4728
  232MOL0     H31276   9.557  10.446  -0.233 -2.6020 -2.0344  1.7207
  232MOL0     H31277   9.398  10.407  -0.281  0.0102  0.9050 -0.2911
  232MOL0     H31278   9.528  10.666  -0.369 -0.8336 -0.0557 -3.5002
  232MOL0     H31279   9.432  10.653  -0.222  1.1234  0.5602 -0.5367
  232MOL0     H31280   9.113  10.727  -0.500 -0.6283 -0.2696 -0.1320
  232MOL0     H31281   8.892  10.752  -0.405 -1.7884 -3.3448 -1.3891
  232MOL0     H31282   8.632  10.859  -0.002 -1.5530  1.4467 -0.3648
  232MOL0     H31283   8.412  10.836   0.085  0.1450  1.2219  0.3574
  232MOL0     H31284   8.107  10.791  -0.154  1.1978  0.0386 -0.9880
  232MOL0     H31285   8.091  10.617  -0.134  1.5809  1.0711 -2.0003
  232MOL0     H31286   7.985  10.636   0.080 -3.0070  0.9117  1.0275
  232MOL0     H31287   7.990  10.815   0.073  0.8591  0.0222 -0.1592
  232MOL0     H31288   7.867  10.821  -0.134  2.7792 -0.5427 -0.9648
  232MOL0     H31289   7.822  10.645  -0.113 -1.2012  0.8849 -0.5010
  232MOL0     H31290   7.747  10.870   0.071  0.0445 -0.7228  1.5801
  232MOL0     H31291   7.714  10.703   0.102  1.3446  1.3407  0.6426
  232MOL0     H31292   7.594  10.676  -0.124 -1.1289  0.5841 -0.4534
  232MOL0     H31293   7.612  10.849  -0.141  0.1189 -0.9427 -0.9225
  232MOL0     H31294   7.462  10.690   0.067 -0.1733  0.6326  2.0776
  232MOL0     H31295   7.460  10.862   0.088 -1.5514 -1.7702  1.1175
  232MOL0     H31296   7.312  10.714  -0.143  2.1346 -1.9790  1.0039
  232MOL0     H31297   7.370  10.884  -0.152  1.5267 -1.2667  0.5768
  232MOL0     H31298   7.213  10.949   0.036 -2.7779 -0.8869  1.4431
  232MOL0     H31299   7.132  10.856  -0.100 -1.9431 -0.4280  2.0476
  232MOL0     H31300   8.292  10.599  -0.257  0.6949  2.7845 -4.5761
  232MOL0     H31301   8.514  10.631  -0.350 -0.2686  0.0251 -0.2865
  232MOL0     H31302   9.017  10.527  -0.058  0.5200  0.0523  1.4632
  232MOL0     H31303   9.250  10.507  -0.148 -0.1397  0.1582  1.0779
  232MOL0     H31304   9.046  11.016   0.106 -2.4255  1.3039  1.0674
  232MOL0     H31305   8.841  11.060   0.210 -1.3034  0.3217 -0.7756
  232MOL0     H31306   8.400  11.168   0.265  0.0915  0.6927 -0.3331
  232MOL0     H31307   8.226  11.230   0.417 -0.5853 -0.4268  1.2909
  232MOL0     H31308   8.134  11.096   0.827 -0.0911 -0.0229  0.2054
  232MOL0     H31309   8.160  10.937   0.768  1.3429  0.7938  0.2192
  232MOL0     H31310   7.896  11.073   0.775  0.1254 -0.2791  1.5592
  232MOL0     H31311   7.955  10.913   0.836 -2.0835 -1.5369 -1.7759
  232MOL0     H31312   8.005  10.859   0.583 -3.5485 -0.4258 -3.4025
  232MOL0     H31313   7.902  10.989   0.555 -0.4327 -0.0736 -0.5800
  232MOL0     H31314   7.773  10.774   0.556 -2.1168  0.5434  0.9812
  232MOL0     H31315   7.844  10.718   0.708 -1.0259  0.2229  0.9991
  232MOL0     H31316   7.492  10.907   0.833 -0.0858  0.6122 -0.6793
  232MOL0     H31317   8.299  10.879   0.638  1.2084 -0.6614 -2.6553
  232MOL0     H31318   8.610  10.807   0.573  0.2139 -0.8828  0.8353
  232MOL0     H31319   8.453  10.734   0.610  2.2063  0.0782  0.6749
  232MOL0     H31320   8.516  10.718   0.450  1.7796  0.9027 -0.7348
  233MOL0     O31321   7.347   3.650   9.883 -0.2348 -0.4573  0.6102
  233MOL0     C31322   7.302   3.763   9.915  0.1299 -0.7696  0.3360
  233MOL0     O31323   7.343   3.885   9.862 -0.7871 -0.0384 -0.1371
  233MOL0     C31324   7.464   3.882   9.802  0.9164  0.4884 -0.4491
  233MOL0     C31325   7.579   3.863   9.877 -0.5255 -0.1029 -0.9510
  233MOL0     C31326   7.702   3.860   9.817  0.0791 -0.2557 -0.4343
  233MOL0     C31327   7.721   3.868   9.680  0.2546 -0.5715 -0.2812
  233MOL0     O31328   7.849   3.860   9.631 -0.2179  0.3204  0.1079
  233MOL0     C31329   7.861   3.876   9.486 -0.1467  0.3350 -0.3329
  233MOL0     C31330   8.013   3.864   9.470 -1.0717  0.4045  1.1992
  233MOL0     C31331   8.038   3.868   9.319 -0.2526  0.2016 -0.3684
  233MOL0     C31332   8.189   3.848   9.286 -0.1397 -0.4767  0.5663
  233MOL0     C31333   8.227   3.701   9.284  0.5564  0.3546 -0.2604
  233MOL0     C31334   8.324   3.656   9.174  0.6560 -0.2332  0.0574
  233MOL0     C31335   8.452   3.732   9.171  0.6407 -0.2816 -0.3028
  233MOL0     C31336   8.560   3.676   9.074 -0.2536  0.2673 -0.3899
  233MOL0     N31337   8.523   3.706   8.943  0.8451  0.5181 -0.2384
  233MOL0     C31338   8.465   3.604   8.862 -0.8979  0.1686 -1.1998
  233MOL0     C31339   8.480   3.653   8.737 -0.9593  0.1826  0.8675
  233MOL0     C31340   8.452   3.588   8.599  0.3263  0.4042  0.1766
  233MOL0     C31341   8.304   3.575   8.577 -0.2220 -0.2063 -0.0786
  233MOL0     C31342   8.266   3.498   8.446 -0.1342 -0.1720 -0.4322
  233MOL0     C31343   8.116   3.473   8.443  0.7769  0.7421 -0.1115
  233MOL0     O31344   8.073   3.375   8.543  1.4504  0.2876  0.9958
  233MOL0     C31345   8.037   3.244   8.501 -0.0469 -0.7981  0.5223
  233MOL0     C31346   8.028   3.204   8.363 -0.1705 -0.6178  0.6480
  233MOL0     C31347   8.018   3.070   8.338 -0.2658 -0.5076  0.6011
  233MOL0     C31348   7.994   2.972   8.440  0.0099 -0.2889  0.6504
  233MOL0     C31349   7.970   2.830   8.421  0.3531  0.2017  1.1458
  233MOL0     O31350   7.954   2.743   8.520  0.0461 -0.0801 -0.4295
  233MOL0     C31351   7.924   2.610   8.512  0.2641 -0.1873 -0.7158
  233MOL0     C31352   7.871   2.543   8.624  0.4339  0.0028 -0.5544
  233MOL0     C31353   7.842   2.409   8.623 -0.3779  0.6460  0.2056
  233MOL0     C31354   7.858   2.335   8.509 -0.6394  0.4981 -0.6940
  233MOL0     O31355   7.833   2.203   8.517 -0.1352  0.0007  0.6137
  233MOL0     C31356   7.728   2.162   8.428 -0.3760 -0.0346 -0.0723
  233MOL0     C31357   7.768   2.062   8.320 -0.1639 -0.0426 -0.1846
  233MOL0     C31358   7.838   1.931   8.383 -0.6141  0.3563  0.3556
  233MOL0     C31359   7.845   1.823   8.284  0.4996 -0.4631  0.2018
  233MOL0     C31360   7.868   1.691   8.360  0.0178 -0.1497  0.2829
  233MOL0     C31361   7.869   1.580   8.257 -0.8757  0.5855 -0.8899
  233MOL0     C31362   7.948   1.472   8.334  0.2534 -0.4189 -0.4410
  233MOL0     C31363   8.003   1.368   8.238 -1.0056  0.7055 -0.4499
  233MOL0    Cl31364   7.878   1.281   8.152 -0.3113  0.1793 -0.1874
  233MOL0     C31365   7.921   2.397   8.399  0.4756 -0.7299 -0.3487
  233MOL0     C31366   7.953   2.535   8.402 -0.1812  0.2395  0.3205
  233MOL0     O31367   7.955   2.796   8.303 -0.4735 -0.8431  0.0072
  233MOL0     C31368   7.992   3.020   8.573 -0.4183  0.5684 -0.9726
  233MOL0     C31369   8.016   3.151   8.602 -0.2045  0.2842 -0.5227
  233MOL0     N31370   8.550   3.776   8.742  0.7015  0.2083  0.1741
  233MOL0     N31371   8.568   3.806   8.868 -0.2739 -0.0033  0.7838
  233MOL0     C31372   7.603   3.881   9.607  0.7548 -0.1158 -0.5083
  233MOL0     C31373   7.475   3.868   9.663  0.2666 -0.4822 -0.5522
  233MOL0     C31374   7.176   3.761   9.998 -0.9929 -0.0502 -0.8835
  233MOL0     C31375   7.118   3.887  10.018  0.8096 -0.2610 -0.1612
  233MOL0     C31376   6.997   3.901  10.094  0.0844 -0.0964 -0.0581
  233MOL0     C31377   6.931   3.788  10.145 -0.1985 -0.0160  0.0999
  233MOL0     O31378   6.821   3.805  10.224 -0.0231  0.0134 -1.2349
  233MOL0     C31379   6.764   3.691  10.296 -0.4388  0.0210  0.4757
  233MOL0     C31380   6.664   3.747  10.398  0.2714 -1.0970 -0.1360
  233MOL0     C31381   6.547   3.648  10.418 -0.1982  0.6735  0.6918
  233MOL0     C31382   6.441   3.696  10.522  0.2409  0.4854  0.5563
  233MOL0     C31383   6.353   3.584  10.534  0.2280 -0.1865  0.4212
  233MOL0     C31384   6.285   3.479  10.547 -0.0182  0.2771  0.0587
  233MOL0     C31385   6.988   3.663  10.111  0.8251 -0.0320 -0.0890
  233MOL0     C31386   7.107   3.650  10.044  0.2999  0.6337  0.0841
  233MOL0     C31387   7.142   3.511  10.001  0.3835 -0.1885 -0.4051
  233MOL0     H31388   7.597   3.847   9.983  3.4117 -2.1308 -1.7125
  233MOL0     H31389   7.784   3.852   9.888 -1.7392  1.9935  2.1230
  233MOL0     H31390   7.821   3.791   9.431  1.0394  1.2863 -2.7818
  233MOL0     H31391   7.819   3.972   9.458 -1.1911 -0.0370 -0.0828
  233MOL0     H31392   8.038   3.764   9.509  0.2311  0.2390  0.0029
  233MOL0     H31393   8.065   3.934   9.536 -0.6623 -0.5256  1.9021
  233MOL0     H31394   8.003   3.963   9.279  0.0334 -0.6958 -2.8834
  233MOL0     H31395   7.989   3.783   9.270  1.3559 -0.5186 -0.8035
  233MOL0     H31396   8.203   3.890   9.186 -1.5498 -0.7605  0.2324
  233MOL0     H31397   8.245   3.904   9.362 -0.8370  0.4143  0.4273
  233MOL0     H31398   8.262   3.665   9.381  0.7241  0.6538 -0.2067
  233MOL0     H31399   8.133   3.649   9.263  0.3897  1.3161 -2.0513
  233MOL0     H31400   8.341   3.548   9.176  1.6466 -0.0898 -0.0656
  233MOL0     H31401   8.276   3.679   9.079  0.3670 -0.7137  0.0827
  233MOL0     H31402   8.503   3.723   9.267 -0.1660 -0.3486  0.1229
  233MOL0     H31403   8.433   3.838   9.153  0.0774 -0.7314 -2.7348
  233MOL0     H31404   8.659   3.723   9.083 -0.4815  0.8498 -0.8480
  233MOL0     H31405   8.571   3.568   9.067  1.0331  0.4327 -1.4480
  233MOL0     H31406   8.446   3.499   8.884  3.8284 -0.6715  0.1680
  233MOL0     H31407   8.494   3.658   8.526 -0.1100  0.3175 -0.1606
  233MOL0     H31408   8.510   3.496   8.589  1.1963  1.0913 -1.4184
  233MOL0     H31409   8.257   3.523   8.661 -0.6624 -0.8083 -0.6933
  233MOL0     H31410   8.269   3.678   8.589  2.2050  0.7606 -0.5813
  233MOL0     H31411   8.310   3.398   8.443 -1.3720 -0.7414 -0.3522
  233MOL0     H31412   8.298   3.557   8.359  0.1151  0.5333  0.1252
  233MOL0     H31413   8.097   3.450   8.338 -0.3248 -1.7935  0.5551
  233MOL0     H31414   8.058   3.565   8.454  1.0306  1.3806 -3.3652
  233MOL0     H31415   8.056   3.275   8.285 -0.6686  0.5985  1.5457
  233MOL0     H31416   8.024   3.039   8.234 -0.4309 -1.6676  0.9236
  233MOL0     H31417   7.854   2.600   8.715  1.8238  1.5110 -1.1964
  233MOL0     H31418   7.801   2.352   8.705 -0.5499  1.6858  0.8594
  233MOL0     H31419   7.654   2.109   8.488  2.0376 -3.5331  0.0988
  233MOL0     H31420   7.686   2.247   8.373  0.7058  0.6134  0.0803
  233MOL0     H31421   7.680   2.036   8.261 -1.1489  3.8505 -0.7673
  233MOL0     H31422   7.833   2.111   8.245  1.7408  2.7275  2.9785
  233MOL0     H31423   7.940   1.959   8.409  0.0432 -1.4980 -0.1222
  233MOL0     H31424   7.790   1.906   8.478  0.9590  0.2674  1.1487
  233MOL0     H31425   7.928   1.839   8.215 -0.9219  1.1917 -1.2175
  233MOL0     H31426   7.749   1.816   8.233 -0.0344  1.2734  0.9032
  233MOL0     H31427   7.790   1.672   8.434 -0.5039 -3.1359 -0.8721
  233MOL0     H31428   7.958   1.712   8.418 -2.1946  0.7135  3.7013
  233MOL0     H31429   7.772   1.534   8.237 -0.4521 -0.5832 -0.3635
  233MOL0     H31430   7.924   1.603   8.165 -0.3919 -0.4467 -0.8765
  233MOL0     H31431   7.890   1.429   8.416  0.0531 -0.8675 -0.8122
  233MOL0     H31432   8.035   1.517   8.383  1.5299 -2.6311 -0.5207
  233MOL0     H31433   8.060   1.429   8.167 -0.9153 -2.0906 -2.9986
  233MOL0     H31434   8.062   1.289   8.283 -1.1173  1.4053  0.9678
  233MOL0     H31435   7.935   2.336   8.310 -0.6567 -0.2373 -0.8928
  233MOL0     H31436   7.996   2.566   8.307  0.1496 -2.3799 -0.4894
  233MOL0     H31437   7.967   2.957   8.657  0.6477  3.3833  1.6283
  233MOL0     H31438   8.022   3.193   8.701 -2.2287  0.3094 -0.3718
  233MOL0     H31439   7.616   3.897   9.500  0.1035  1.2197 -0.3953
  233MOL0     H31440   7.388   3.886   9.601  0.0353 -1.0372 -0.3945
  233MOL0     H31441   7.154   3.979   9.975 -1.3171  0.7636  0.1033
  233MOL0     H31442   6.959   4.002  10.103  0.5218  0.2866 -2.0147
  233MOL0     H31443   6.845   3.631  10.338  0.8616  1.9283  0.8440
  233MOL0     H31444   6.714   3.630  10.221  0.2051  2.1267 -1.7745
  233MOL0     H31445   6.619   3.837  10.356 -2.4663 -1.6959  1.2480
  233MOL0     H31446   6.706   3.767  10.497 -0.5250 -0.8938  0.1759
  233MOL0     H31447   6.603   3.560  10.450  0.3806  0.5239 -0.6573
  233MOL0     H31448   6.496   3.612  10.328  0.3022 -0.3070  0.7852
  233MOL0     H31449   6.487   3.717  10.619 -2.2367 -1.2699  2.2404
  233MOL0     H31450   6.394   3.781  10.473  0.7918  1.2830  1.3831
  233MOL0     H31451   6.230   3.388  10.556 -1.6311  1.3874  2.0602
  233MOL0     H31452   6.930   3.576  10.140 -1.1276  1.2805  0.1078
  233MOL0     H31453   7.063   3.443  10.034 -0.9046  1.0591 -0.8134
  233MOL0     H31454   7.140   3.509   9.891  0.2856 -0.6179 -0.3970
  233MOL0     H31455   7.235   3.473  10.045 -0.2486 -3.1522 -1.4353
  234MOL0     O31456   5.684   1.534   7.249 -0.1574  0.3828  1.1507
  234MOL0     C31457   5.596   1.574   7.331 -0.3519 -0.4465 -0.1816
  234MOL0     O31458   5.623   1.634   7.452 -0.2014 -0.3285  0.1114
  234MOL0     C31459   5.760   1.648   7.472  0.0201 -0.2291  0.7409
  234MOL0     C31460   5.817   1.551   7.556  0.3822  0.1021 -1.0164
  234MOL0     C31461   5.947   1.553   7.591 -0.3433 -0.4241  0.6917
  234MOL0     C31462   6.035   1.649   7.533  0.6819  0.2951  0.6661
  234MOL0     O31463   6.163   1.628   7.557 -0.6030 -0.2626  0.0115
  234MOL0     C31464   6.261   1.693   7.484 -0.3372 -0.1348  0.1048
  234MOL0     C31465   6.411   1.660   7.509  0.6535 -0.5064  0.2641
  234MOL0     C31466   6.414   1.510   7.514 -1.1775  0.4918  0.3460
  234MOL0     C31467   6.555   1.455   7.514  0.6222 -0.3335 -0.2177
  234MOL0     C31468   6.565   1.306   7.496  0.0627 -0.4833  0.5863
  234MOL0     C31469   6.714   1.257   7.465  0.8761  0.1287 -0.2751
  234MOL0     C31470   6.723   1.109   7.510 -0.2783  0.2403  0.5307
  234MOL0     C31471   6.855   1.039   7.482  0.0119 -0.4344 -0.1554
  234MOL0     N31472   6.960   1.113   7.553  1.3486  0.1132  0.1730
  234MOL0     C31473   7.095   1.122   7.503  0.2923 -0.1204 -0.6880
  234MOL0     C31474   7.158   1.163   7.619  0.5237  0.8783 -0.4338
  234MOL0     C31475   7.299   1.194   7.633 -0.7518  1.0906 -0.7309
  234MOL0     C31476   7.324   1.345   7.637 -0.4987 -0.4770 -0.2634
  234MOL0     C31477   7.477   1.369   7.609 -0.1820  0.7166 -0.1254
  234MOL0     C31478   7.501   1.519   7.626  0.9650  0.3852  0.5605
  234MOL0     O31479   7.494   1.549   7.770 -0.0146 -0.5084  0.9493
  234MOL0     C31480   7.574   1.657   7.812  0.5193 -0.2841 -0.8904
  234MOL0     C31481   7.559   1.781   7.749 -0.5957 -0.1573  0.0466
  234MOL0     C31482   7.640   1.890   7.770 -0.1264  0.0206  0.3710
  234MOL0     C31483   7.739   1.878   7.874  0.1346 -0.0771 -0.0599
  234MOL0     C31484   7.827   1.998   7.897 -0.0783 -0.6421  0.4219
  234MOL0     O31485   7.885   2.020   8.017  0.3597  0.7381 -0.1910
  234MOL0     C31486   7.962   2.126   8.016  0.3547  0.4062 -0.0185
  234MOL0     C31487   8.101   2.113   7.996 -0.1783 -0.1140  0.0606
  234MOL0     C31488   8.190   2.227   8.007  0.4720  0.0533  0.5702
  234MOL0     C31489   8.131   2.350   8.028 -0.8101  0.1893  0.0131
  234MOL0     O31490   8.211   2.461   8.050  0.8356 -0.0903  0.0151
  234MOL0     C31491   8.148   2.590   8.038 -0.4243  0.0897 -0.0994
  234MOL0     C31492   8.246   2.704   8.026  0.2297  0.6287 -0.5019
  234MOL0     C31493   8.177   2.840   8.042 -0.4002  0.5189 -0.4885
  234MOL0     C31494   8.285   2.942   7.984  0.1153  1.1063 -0.1812
  234MOL0     C31495   8.239   3.085   8.023 -0.0946  0.9809 -0.0050
  234MOL0     C31496   8.323   3.208   7.969  0.0691 -0.1479 -0.0076
  234MOL0     C31497   8.386   3.216   7.834 -0.9978  0.1427 -0.3723
  234MOL0     C31498   8.328   3.310   7.742 -0.1911 -0.0276  0.7782
  234MOL0    Cl31499   8.167   3.246   7.689  0.0751 -0.1897  0.0030
  234MOL0     C31500   8.001   2.363   8.045 -0.1358 -0.5352  0.5852
  234MOL0     C31501   7.914   2.256   8.044  0.6567  0.4456 -0.1379
  234MOL0     O31502   7.853   2.067   7.802 -0.5752 -0.2066  0.2735
  234MOL0     C31503   7.750   1.756   7.946 -0.4174  0.2685 -0.1768
  234MOL0     C31504   7.673   1.652   7.911  0.5346  0.4590  0.4976
  234MOL0     N31505   7.064   1.172   7.725  0.1580 -1.0021 -0.0428
  234MOL0     N31506   6.949   1.149   7.688  0.5022  0.5332  0.2815
  234MOL0     C31507   5.983   1.738   7.441  0.3479 -0.1481  0.1112
  234MOL0     C31508   5.845   1.750   7.414  0.6492  0.9918  0.3203
  234MOL0     C31509   5.451   1.580   7.287  0.2319  0.6361  0.6686
  234MOL0     C31510   5.364   1.671   7.348  0.4895 -0.3918  0.6323
  234MOL0     C31511   5.227   1.658   7.328 -0.0669  0.7277 -0.8808
  234MOL0     C31512   5.180   1.581   7.223  0.4108  0.3681  0.1531
  234MOL0     O31513   5.051   1.573   7.192  0.7208 -0.0637  0.1438
  234MOL0     C31514   5.003   1.501   7.073 -1.1650 -0.4039 -0.7506
  234MOL0     C31515   4.865   1.563   7.048 -0.5017 -0.0176  1.0285
  234MOL0     C31516   4.805   1.523   6.910  0.2124 -1.3375  0.6602
  234MOL0     C31517   4.680   1.615   6.877 -0.3612  0.0767 -0.4255
  234MOL0     C31518   4.574   1.589   6.970  0.1485 -0.1559  0.1453
  234MOL0     C31519   4.482   1.563   7.047  0.7029  0.0563 -0.1177
  234MOL0     C31520   5.267   1.499   7.150  0.1605 -0.1893  0.0731
  234MOL0     C31521   5.400   1.483   7.192  0.8927  0.0940 -0.1904
  234MOL0     C31522   5.484   1.380   7.115  0.3007  0.8172  0.1670
  234MOL0     H31523   5.754   1.473   7.597 -1.1192  0.9641 -1.6063
  234MOL0     H31524   5.993   1.473   7.649  1.1293 -0.1114 -0.0010
  234MOL0     H31525   6.239   1.649   7.386  0.3031 -1.9619  0.7304
  234MOL0     H31526   6.249   1.800   7.501 -1.2665 -0.4217  1.4249
  234MOL0     H31527   6.439   1.709   7.602 -1.3758  1.8415 -0.2380
  234MOL0     H31528   6.468   1.710   7.430 -0.9917  0.3350 -0.4607
  234MOL0     H31529   6.366   1.469   7.425  0.3988  1.4934 -1.0189
  234MOL0     H31530   6.366   1.474   7.606 -0.0969  0.1524  0.7937
  234MOL0     H31531   6.607   1.504   7.432  0.9304 -1.3007 -0.6078
  234MOL0     H31532   6.610   1.481   7.605  2.2666  0.1365 -1.3056
  234MOL0     H31533   6.530   1.255   7.587  2.2221 -2.7563  0.2377
  234MOL0     H31534   6.498   1.282   7.412 -1.1291 -0.5647  1.5258
  234MOL0     H31535   6.732   1.274   7.359  0.0612  0.7745 -0.3234
  234MOL0     H31536   6.787   1.312   7.525  0.9998  0.5215 -0.7743
  234MOL0     H31537   6.647   1.049   7.459  0.6161 -0.9177  0.5088
  234MOL0     H31538   6.693   1.089   7.613 -2.1524  2.3213  0.4769
  234MOL0     H31539   6.844   0.938   7.522 -0.1446 -0.5802 -0.5603
  234MOL0     H31540   6.874   1.030   7.375 -1.4788  2.5118 -0.7667
  234MOL0     H31541   7.136   1.108   7.404 -1.0793 -0.3034 -1.2626
  234MOL0     H31542   7.337   1.142   7.722  0.8082  0.4208 -1.7484
  234MOL0     H31543   7.353   1.156   7.546 -0.3524 -0.2029  0.0353
  234MOL0     H31544   7.261   1.394   7.563  1.6843 -0.6945 -2.4115
  234MOL0     H31545   7.295   1.388   7.733 -0.2601  0.0569 -0.4293
  234MOL0     H31546   7.513   1.343   7.509  2.1077 -2.5636  1.3425
  234MOL0     H31547   7.542   1.310   7.675  1.2910  3.1635  0.7728
  234MOL0     H31548   7.421   1.572   7.573  1.6656  0.7581 -0.1316
  234MOL0     H31549   7.603   1.540   7.592  1.6040 -1.9413  0.9077
  234MOL0     H31550   7.490   1.782   7.665  0.2036  0.6643 -0.6180
  234MOL0     H31551   7.631   1.982   7.713 -0.5084  1.2398  2.3034
  234MOL0     H31552   8.142   2.015   7.976  1.2553  0.4336  0.1968
  234MOL0     H31553   8.295   2.212   7.987  0.6356  1.0448  0.6376
  234MOL0     H31554   8.075   2.603   7.957  0.3914  0.8988 -0.7270
  234MOL0     H31555   8.096   2.609   8.132 -0.6224  0.6630 -0.3154
  234MOL0     H31556   8.327   2.688   8.098 -0.9435  0.3789  0.8065
  234MOL0     H31557   8.294   2.697   7.928  1.3057 -1.0396  0.1123
  234MOL0     H31558   8.081   2.853   7.990 -0.9894 -1.8971 -0.0954
  234MOL0     H31559   8.158   2.851   8.149  1.1029 -0.7705 -0.0654
  234MOL0     H31560   8.281   2.920   7.877  0.3340 -2.8439  0.4745
  234MOL0     H31561   8.386   2.918   8.019 -0.7462  0.2083  1.8504
  234MOL0     H31562   8.227   3.103   8.131  2.9005 -0.2833  0.6396
  234MOL0     H31563   8.136   3.098   7.989 -0.3742  1.5067  1.0020
  234MOL0     H31564   8.263   3.295   7.998  0.4546 -1.2566  5.0248
  234MOL0     H31565   8.404   3.217   8.041  0.1999  1.3359 -0.3091
  234MOL0     H31566   8.389   3.119   7.782  1.8287 -0.2576  0.3838
  234MOL0     H31567   8.489   3.247   7.852 -1.5462  2.6469 -1.1904
  234MOL0     H31568   8.312   3.410   7.784 -0.9136  0.6860 -1.1099
  234MOL0     H31569   8.393   3.322   7.655  2.4297  0.5390  2.7000
  234MOL0     H31570   7.949   2.455   8.069  0.8565  0.1116  0.3032
  234MOL0     H31571   7.810   2.253   8.074  1.2502 -0.7272  2.0768
  234MOL0     H31572   7.819   1.745   8.029 -1.5683  1.8704  1.0491
  234MOL0     H31573   7.685   1.561   7.970  0.5005 -0.7982 -1.3713
  234MOL0     H31574   6.051   1.809   7.396  3.4075 -1.6336  2.0507
  234MOL0     H31575   5.804   1.810   7.334  1.7017  1.2527 -0.0431
  234MOL0     H31576   5.379   1.736   7.434 -3.7213 -0.2566  1.4471
  234MOL0     H31577   5.155   1.719   7.381 -0.8895 -0.2587 -0.8320
  234MOL0     H31578   5.009   1.394   7.092  1.5112  0.3682  4.1067
  234MOL0     H31579   5.060   1.528   6.983  1.4716 -1.2240  0.6018
  234MOL0     H31580   4.880   1.671   7.046  0.6181 -0.0974 -3.2181
  234MOL0     H31581   4.794   1.537   7.128 -0.2075  0.7837  1.5558
  234MOL0     H31582   4.770   1.419   6.907  0.5587 -1.6548  3.9727
  234MOL0     H31583   4.882   1.546   6.836 -1.0487  2.2177  0.2807
  234MOL0     H31584   4.699   1.722   6.879 -2.1742  0.4180  0.8988
  234MOL0     H31585   4.649   1.591   6.775  2.1496  0.4968 -1.3648
  234MOL0     H31586   4.401   1.539   7.113  0.4467  0.0677 -0.4299
  234MOL0     H31587   5.237   1.425   7.077  2.8808 -3.1130  1.6549
  234MOL0     H31588   5.532   1.436   7.035 -3.6416  1.3918 -2.0553
  234MOL0     H31589   5.548   1.325   7.184  1.4320 -0.6782 -1.9808
  234MOL0     H31590   5.425   1.296   7.079  4.9357 -0.6768 -5.2035
  235MOL0     O31591   2.301   5.242   9.451  0.3675 -0.6145 -0.0832
  235MOL0     C31592   2.241   5.339   9.408  0.1413  0.2062 -0.4699
  235MOL0     O31593   2.293   5.452   9.341  0.2680 -0.0795  0.0940
  235MOL0     C31594   2.421   5.448   9.298  0.6882 -0.0341  0.3306
  235MOL0     C31595   2.470   5.349   9.214  0.5652 -0.2261  0.4405
  235MOL0     C31596   2.607   5.334   9.183 -0.5919 -1.0802  0.3160
  235MOL0     C31597   2.701   5.425   9.237  0.8385 -0.1657 -0.1502
  235MOL0     O31598   2.835   5.426   9.221 -0.6168  0.6379  0.7815
  235MOL0     C31599   2.892   5.346   9.119 -0.3093  0.1695  0.4014
  235MOL0     C31600   3.046   5.329   9.135 -0.3937  0.2491  0.2017
  235MOL0     C31601   3.081   5.293   9.273 -0.4874 -0.6166 -0.1957
  235MOL0     C31602   3.237   5.257   9.284  0.7529 -0.5482 -0.1619
  235MOL0     C31603   3.276   5.227   9.430  0.4079  0.4801 -0.5775
  235MOL0     C31604   3.275   5.361   9.516  1.3523 -0.5087  0.3019
  235MOL0     C31605   3.348   5.329   9.648  0.3213  0.0599  0.5739
  235MOL0     C31606   3.251   5.288   9.762  0.1239  0.3376 -0.3220
  235MOL0     N31607   3.319   5.215   9.872 -0.4619 -0.1054 -0.5649
  235MOL0     C31608   3.371   5.282   9.980  0.7786 -0.4770 -0.4534
  235MOL0     C31609   3.419   5.195  10.065 -0.0859 -0.0431  0.6859
  235MOL0     C31610   3.459   5.227  10.207 -0.3946  0.0607  0.4836
  235MOL0     C31611   3.612   5.234  10.239  0.3388  0.4554 -0.0379
  235MOL0     C31612   3.639   5.212  10.388  0.5696  0.1140  0.3693
  235MOL0     C31613   3.790   5.232  10.429  1.8132  0.2049  0.1621
  235MOL0     O31614   3.836   5.369  10.428 -0.4496  0.1273 -0.4708
  235MOL0     C31615   3.957   5.402  10.483 -0.0018 -0.6631  0.3165
  235MOL0     C31616   4.000   5.535  10.454 -1.1051 -0.3571  0.6245
  235MOL0     C31617   4.127   5.583  10.498  0.6650  0.7741 -0.5723
  235MOL0     C31618   4.214   5.485  10.569  0.5388 -0.3350 -0.1891
  235MOL0     C31619   4.348   5.538  10.610  0.0794  0.6249 -0.9100
  235MOL0     O31620   4.440   5.436  10.630  0.6484  0.0284  0.6329
  235MOL0     C31621   4.574   5.461  10.644  0.2790 -0.7947 -0.1723
  235MOL0     C31622   4.650   5.579  10.669  0.7915 -0.2797  0.3795
  235MOL0     C31623   4.792   5.585  10.676  0.0282 -0.3572  0.2083
  235MOL0     C31624   4.863   5.472  10.638 -0.4382  0.0707 -0.2322
  235MOL0     O31625   5.001   5.471  10.647  0.6712  0.1793  0.0428
  235MOL0     C31626   5.065   5.532  10.536  0.1899  0.0749  0.9450
  235MOL0     C31627   5.218   5.550  10.561 -0.1322 -0.6031 -0.0372
  235MOL0     C31628   5.296   5.594  10.436 -0.0978  0.0195 -0.3686
  235MOL0     C31629   5.239   5.718  10.372  0.4053  0.0674  0.4490
  235MOL0     C31630   5.346   5.807  10.309 -0.3043  0.8021  0.6812
  235MOL0     C31631   5.287   5.932  10.238  0.2744  0.0016 -0.7141
  235MOL0     C31632   5.385   6.023  10.158  0.5606 -0.2990  1.0990
  235MOL0     C31633   5.487   6.088  10.254 -0.4946 -0.0475  0.2099
  235MOL0    Cl31634   5.603   6.200  10.167 -0.4793 -0.0376  0.1262
  235MOL0     C31635   4.789   5.352  10.617  0.0049 -0.0881 -0.0196
  235MOL0     C31636   4.652   5.348  10.626 -0.8844 -0.0787 -0.2606
  235MOL0     O31637   4.370   5.657  10.615  0.3178 -0.2922  0.6942
  235MOL0     C31638   4.168   5.363  10.589 -0.1902 -0.5994 -0.4374
  235MOL0     C31639   4.045   5.320  10.547  0.6581 -1.2824 -0.3722
  235MOL0     N31640   3.407   5.070   9.999  0.2641 -0.5063 -0.1678
  235MOL0     N31641   3.341   5.087   9.891  0.3743  0.5171  0.8092
  235MOL0     C31642   2.657   5.529   9.314  0.6335  0.0721 -0.0233
  235MOL0     C31643   2.520   5.541   9.338 -0.1066 -0.2550 -0.6606
  235MOL0     C31644   2.094   5.342   9.432  0.3126 -0.4861  0.2544
  235MOL0     C31645   2.049   5.250   9.524  0.1851  0.0730 -0.1975
  235MOL0     C31646   1.906   5.237   9.548  0.2172 -0.2606 -0.2877
  235MOL0     C31647   1.812   5.318   9.493  0.0145  0.3706 -0.0401
  235MOL0     O31648   1.681   5.286   9.518 -0.4415 -0.0089 -0.4266
  235MOL0     C31649   1.578   5.357   9.442  0.2201  0.0589 -0.8010
  235MOL0     C31650   1.447   5.274   9.469 -0.4065 -1.1102  1.1950
  235MOL0     C31651   1.418   5.252   9.613  0.0735  0.1196 -0.7626
  235MOL0     C31652   1.274   5.199   9.632  0.1281 -0.3496 -0.3473
  235MOL0     C31653   1.231   5.241   9.765 -0.2499  0.1457 -0.9111
  235MOL0     C31654   1.206   5.274   9.883  0.6188 -0.5243 -0.5317
  235MOL0     C31655   1.857   5.403   9.395 -0.4776 -0.4398 -0.4027
  235MOL0     C31656   1.997   5.426   9.365  0.2013 -0.2037  0.2938
  235MOL0     C31657   2.024   5.538   9.261  0.3297 -0.1182  0.2969
  235MOL0     H31658   2.395   5.277   9.181 -0.7909  0.0589  2.6851
  235MOL0     H31659   2.640   5.254   9.117  2.0556  1.6843 -1.9955
  235MOL0     H31660   2.848   5.247   9.131  0.4552 -0.3113 -0.5992
  235MOL0     H31661   2.861   5.380   9.019  0.2084  0.3957  0.3153
  235MOL0     H31662   3.100   5.422   9.114 -0.1495 -0.2200 -1.3535
  235MOL0     H31663   3.089   5.259   9.065  0.1610  1.3973 -0.6357
  235MOL0     H31664   3.011   5.221   9.315  0.1014 -1.4326 -0.5872
  235MOL0     H31665   3.059   5.383   9.331 -1.5547 -1.4523  0.7408
  235MOL0     H31666   3.254   5.168   9.222 -1.1854 -0.2409 -1.1979
  235MOL0     H31667   3.300   5.329   9.232  0.7282 -0.4117 -0.0047
  235MOL0     H31668   3.213   5.154   9.481  0.2908  2.6431  2.6186
  235MOL0     H31669   3.382   5.198   9.424  1.4884  3.2072  2.4705
  235MOL0     H31670   3.327   5.442   9.464 -2.8402  0.0196 -3.7433
  235MOL0     H31671   3.174   5.397   9.534  1.8398  1.1391 -0.0370
  235MOL0     H31672   3.417   5.409   9.676  1.5254 -0.8969  0.4213
  235MOL0     H31673   3.418   5.248   9.623 -0.6224 -0.7454  0.4470
  235MOL0     H31674   3.194   5.375   9.797 -0.3778 -0.2478  0.3313
  235MOL0     H31675   3.182   5.210   9.729  0.9447  0.5198 -2.7224
  235MOL0     H31676   3.371   5.389   9.999  0.0818  0.1304 -3.3449
  235MOL0     H31677   3.420   5.326  10.230  1.2730  0.8832 -0.0905
  235MOL0     H31678   3.401   5.163  10.275 -0.4853 -0.3134  0.0594
  235MOL0     H31679   3.665   5.162  10.177  0.2803  0.7653 -0.4534
  235MOL0     H31680   3.643   5.330  10.196  0.1304 -0.6718 -2.9355
  235MOL0     H31681   3.614   5.109  10.417  0.9527  0.5829  2.5283
  235MOL0     H31682   3.570   5.273  10.446 -1.6530 -0.1133 -1.8466
  235MOL0     H31683   3.844   5.166  10.360 -2.7705 -2.6870 -1.1165
  235MOL0     H31684   3.796   5.190  10.529  1.9718  0.5280  0.2889
  235MOL0     H31685   3.932   5.596  10.396 -5.1091 -2.2357  2.9250
  235MOL0     H31686   4.146   5.690  10.488 -0.4256  1.0401  0.0844
  235MOL0     H31687   4.593   5.669  10.690 -0.9045 -1.4847  1.2192
  235MOL0     H31688   4.845   5.675  10.706  0.5302 -0.5261 -0.1646
  235MOL0     H31689   5.034   5.478  10.447  1.2260 -0.5397  0.9522
  235MOL0     H31690   5.024   5.633  10.523 -0.7025 -0.6237 -2.5611
  235MOL0     H31691   5.233   5.619  10.644 -3.0811 -0.1775  0.2524
  235MOL0     H31692   5.269   5.459  10.597  1.4453  1.2817  2.9473
  235MOL0     H31693   5.402   5.604  10.461  0.6349  1.4173 -3.5222
  235MOL0     H31694   5.306   5.516  10.361 -3.2719 -0.7718 -0.0899
  235MOL0     H31695   5.186   5.779  10.447  0.2093 -1.2016  1.3639
  235MOL0     H31696   5.166   5.682  10.299 -0.9667 -0.8321  2.1848
  235MOL0     H31697   5.396   5.744  10.235 -1.1560  0.6596  0.2159
  235MOL0     H31698   5.419   5.843  10.382 -0.7422 -0.4619  1.7720
  235MOL0     H31699   5.205   5.903  10.171 -0.5551  1.8790 -0.5966
  235MOL0     H31700   5.241   5.994  10.316  2.5407  0.2360  0.4990
  235MOL0     H31701   5.324   6.107  10.123 -2.2254 -2.0665  1.4190
  235MOL0     H31702   5.428   5.973  10.071 -1.3181  2.0579 -1.3942
  235MOL0     H31703   5.438   6.154  10.327  2.5149 -0.7268  3.0884
  235MOL0     H31704   5.547   6.014  10.306  0.5510  1.7902  1.7187
  235MOL0     H31705   4.848   5.262  10.600  1.0800  0.5699  0.0964
  235MOL0     H31706   4.607   5.252  10.601 -0.0417 -0.0433 -2.1876
  235MOL0     H31707   4.240   5.300  10.641  0.1379  1.0252  1.1976
  235MOL0     H31708   4.023   5.214  10.557 -0.2170 -1.1371 -0.6629
  235MOL0     H31709   2.727   5.608   9.340  3.3812 -1.0472 -3.2963
  235MOL0     H31710   2.479   5.625   9.394 -1.8280 -1.4435 -0.0311
  235MOL0     H31711   2.097   5.170   9.579 -2.6165 -1.3751  0.3089
  235MOL0     H31712   1.863   5.166   9.617  0.1294  1.4567  1.5022
  235MOL0     H31713   1.591   5.349   9.333  3.3876 -2.1081 -0.4290
  235MOL0     H31714   1.569   5.460   9.476 -0.4363 -0.1359 -0.3712
  235MOL0     H31715   1.463   5.179   9.418  1.4639  0.4001 -1.2139
  235MOL0     H31716   1.374   5.337   9.417  3.0572  1.6629 -0.7287
  235MOL0     H31717   1.434   5.347   9.663  0.1790 -0.8866  1.2076
  235MOL0     H31718   1.493   5.183   9.652 -0.0253 -0.8022 -2.1135
  235MOL0     H31719   1.201   5.241   9.562  2.0567  1.3243 -1.4636
  235MOL0     H31720   1.254   5.091   9.635 -1.2068 -0.0941  1.1641
  235MOL0     H31721   1.170   5.296   9.981  0.6732  0.0762 -0.6389
  235MOL0     H31722   1.785   5.459   9.336 -0.1424 -1.7936 -2.2101
  235MOL0     H31723   2.087   5.618   9.300  0.8095 -0.3047 -0.0948
  235MOL0     H31724   2.084   5.492   9.182  0.9299  2.0040 -0.5400
  235MOL0     H31725   1.935   5.587   9.220 -0.2891 -0.9688  0.5838
  236MOL0     O31726   3.116   6.122   6.815 -0.0675  0.0420  0.3911
  236MOL0     C31727   3.099   6.237   6.859 -0.5391 -0.7435  0.6929
  236MOL0     O31728   3.192   6.341   6.856 -0.5198  0.5937 -0.4500
  236MOL0     C31729   3.321   6.305   6.844 -0.7167  0.3590 -0.0336
  236MOL0     C31730   3.404   6.298   6.953  0.1640 -0.2164  0.3753
  236MOL0     C31731   3.542   6.291   6.933  0.8933  0.1884  0.2261
  236MOL0     C31732   3.598   6.284   6.811  0.3575 -1.0400  0.3326
  236MOL0     O31733   3.736   6.274   6.801  0.1491  0.4389 -0.3413
  236MOL0     C31734   3.802   6.293   6.678  0.2743  0.0264  0.0096
  236MOL0     C31735   3.946   6.241   6.689 -0.2710 -0.7073  0.4704
  236MOL0     C31736   4.028   6.305   6.799 -0.6568 -0.1757  0.6948
  236MOL0     C31737   4.160   6.226   6.818 -0.7253 -0.3765 -0.6159
  236MOL0     C31738   4.260   6.310   6.895 -0.1233 -0.4561 -0.8091
  236MOL0     C31739   4.340   6.418   6.821  0.6797  0.7297 -0.2172
  236MOL0     C31740   4.384   6.528   6.915  0.0917  0.6113  0.1998
  236MOL0     C31741   4.457   6.484   7.041 -0.1833  0.4821  0.4039
  236MOL0     N31742   4.574   6.399   7.014  0.2751  0.7068  0.2506
  236MOL0     C31743   4.675   6.436   6.922 -0.2520  0.3696 -0.9545
  236MOL0     C31744   4.766   6.330   6.922  0.0655 -0.3343  0.0854
  236MOL0     C31745   4.901   6.319   6.858 -1.0951  0.1061 -0.5844
  236MOL0     C31746   5.012   6.324   6.976  0.6689  0.8887  0.9790
  236MOL0     C31747   5.145   6.331   6.904  0.5083  0.6557  0.0752
  236MOL0     C31748   5.265   6.325   6.999  1.0823 -0.6969 -0.1615
  236MOL0     O31749   5.383   6.294   6.923  0.0881  0.0514 -0.1789
  236MOL0     C31750   5.509   6.311   6.972 -0.0698  0.7377 -0.2750
  236MOL0     C31751   5.625   6.278   6.896 -0.2510  1.0805  0.4050
  236MOL0     C31752   5.757   6.317   6.957 -0.4775  0.6263 -0.7255
  236MOL0     C31753   5.774   6.381   7.079 -0.1056 -0.6136  0.0534
  236MOL0     C31754   5.909   6.425   7.123  0.3401  0.2665  0.0421
  236MOL0     O31755   6.014   6.361   7.064  0.0148  0.3898  0.2022
  236MOL0     C31756   6.143   6.406   7.083 -0.8569 -0.1425  0.5259
  236MOL0     C31757   6.173   6.535   7.066 -0.2801 -0.1362 -0.1458
  236MOL0     C31758   6.306   6.583   7.100  0.4945  0.0089  0.1461
  236MOL0     C31759   6.407   6.485   7.132  0.7171  0.4846  0.0110
  236MOL0     O31760   6.545   6.508   7.137  0.9245  0.3260  0.6373
  236MOL0     C31761   6.580   6.635   7.181  0.6997 -0.0834 -0.3547
  236MOL0     C31762   6.729   6.656   7.180  0.3558  0.4876  0.0448
  236MOL0     C31763   6.760   6.793   7.240  0.1392 -0.9954 -0.3455
  236MOL0     C31764   6.910   6.819   7.260 -0.1284 -0.6938  0.6960
  236MOL0     C31765   6.981   6.843   7.122 -1.3683 -0.3243  0.1858
  236MOL0     C31766   7.137   6.854   7.134 -0.3921  0.6965 -0.2358
  236MOL0     C31767   7.201   6.919   7.002 -0.2325  0.6504 -0.2280
  236MOL0     C31768   7.360   6.934   7.016  0.1335 -0.4027 -0.6025
  236MOL0    Cl31769   7.395   7.027   7.162 -0.2596 -0.2014  0.2581
  236MOL0     C31770   6.367   6.354   7.157 -0.0522 -0.1842  0.8034
  236MOL0     C31771   6.240   6.315   7.124 -0.2914 -0.1795  0.2331
  236MOL0     O31772   5.914   6.511   7.206 -0.0481 -0.8276 -0.2585
  236MOL0     C31773   5.657   6.395   7.149 -0.2514 -0.2855  0.6862
  236MOL0     C31774   5.533   6.363   7.098  0.2804  0.6750 -0.1255
  236MOL0     N31775   4.715   6.240   7.004 -0.2857 -0.1114  0.2820
  236MOL0     N31776   4.607   6.274   7.056 -0.4171 -0.8025  0.3316
  236MOL0     C31777   3.509   6.278   6.700 -0.2728 -0.6064  0.1322
  236MOL0     C31778   3.368   6.287   6.717 -0.2292  0.1399 -0.0610
  236MOL0     C31779   2.955   6.284   6.870  0.7179 -0.1530 -0.3589
  236MOL0     C31780   2.934   6.425   6.889  0.6648 -0.0321  0.0707
  236MOL0     C31781   2.806   6.478   6.920 -0.6436 -0.1066  0.0357
  236MOL0     C31782   2.683   6.402   6.908 -0.1044 -0.9300 -0.6752
  236MOL0     O31783   2.565   6.477   6.926  0.1200 -0.2151 -0.3201
  236MOL0     C31784   2.437   6.423   6.890  0.0156  0.2708 -0.1462
  236MOL0     C31785   2.395   6.452   6.746  0.1875  0.4148  0.0378
  236MOL0     C31786   2.255   6.388   6.713 -0.7368 -0.0915  0.1994
  236MOL0     C31787   2.227   6.404   6.561  0.7251  0.3452 -0.0735
  236MOL0     C31788   2.096   6.339   6.540 -0.2663 -0.4351  0.1613
  236MOL0     C31789   1.999   6.266   6.541  0.3860  0.2968  0.7189
  236MOL0     C31790   2.702   6.262   6.867 -0.2256 -0.0307  0.5978
  236MOL0     C31791   2.834   6.208   6.852  0.4701 -0.4235 -0.2532
  236MOL0     C31792   2.842   6.060   6.819 -0.8837 -0.5401  0.3031
  236MOL0     H31793   3.366   6.306   7.054  0.1918 -2.7068  0.6395
  236MOL0     H31794   3.609   6.292   7.019  0.1315  1.1342  0.8283
  236MOL0     H31795   3.765   6.254   6.583  1.9278  0.7571 -0.9905
  236MOL0     H31796   3.822   6.400   6.662  2.2040 -0.2414  0.3317
  236MOL0     H31797   4.002   6.266   6.598  1.2061  0.3736  1.6334
  236MOL0     H31798   3.945   6.132   6.705  0.1020 -0.3937  3.1012
  236MOL0     H31799   3.969   6.295   6.891 -1.1555 -1.0833  0.2830
  236MOL0     H31800   4.038   6.412   6.777 -1.3839 -0.7577 -3.0614
  236MOL0     H31801   4.140   6.126   6.857  0.1085 -0.6875 -0.9750
  236MOL0     H31802   4.200   6.210   6.718 -0.0211 -2.2839 -0.0738
  236MOL0     H31803   4.212   6.348   6.986  1.4782 -0.4776  0.0733
  236MOL0     H31804   4.318   6.235   6.951  0.5471  1.7563  1.6522
  236MOL0     H31805   4.427   6.368   6.777 -1.3087 -1.6601 -1.7414
  236MOL0     H31806   4.283   6.468   6.742 -0.0401 -2.3841 -1.8447
  236MOL0     H31807   4.293   6.584   6.939 -0.3005 -0.7498  2.1552
  236MOL0     H31808   4.453   6.593   6.861 -1.4747 -0.2306 -3.0966
  236MOL0     H31809   4.503   6.561   7.103  0.1608 -1.0079  2.1031
  236MOL0     H31810   4.391   6.428   7.108  1.6740 -0.0894  1.8254
  236MOL0     H31811   4.694   6.525   6.863  2.0998  0.7393  0.2225
  236MOL0     H31812   4.899   6.218   6.816  1.4203 -0.7043  1.0302
  236MOL0     H31813   4.930   6.385   6.775  0.1501  0.1800 -0.1100
  236MOL0     H31814   4.987   6.415   7.030 -0.8369  0.0394  1.7883
  236MOL0     H31815   5.002   6.238   7.044 -1.7395  0.0179 -0.3179
  236MOL0     H31816   5.162   6.413   6.833  2.0866  0.1941 -0.1374
  236MOL0     H31817   5.144   6.243   6.838 -2.3005 -1.7293  2.9686
  236MOL0     H31818   5.252   6.272   7.094  0.1733  1.3514  0.9180
  236MOL0     H31819   5.273   6.430   7.028 -0.0562  0.5584 -3.7612
  236MOL0     H31820   5.624   6.224   6.801 -0.6774 -1.1400  1.5991
  236MOL0     H31821   5.840   6.284   6.895 -1.0027 -0.4072 -0.9050
  236MOL0     H31822   6.104   6.611   7.031  2.6368  1.9048 -1.9796
  236MOL0     H31823   6.327   6.687   7.075 -0.1381 -0.0729 -0.7736
  236MOL0     H31824   6.541   6.706   7.107 -1.5887  3.3575  3.7447
  236MOL0     H31825   6.536   6.648   7.280 -0.9336  3.3557 -1.3790
  236MOL0     H31826   6.778   6.578   7.240  1.8178  0.6209 -0.9147
  236MOL0     H31827   6.769   6.652   7.078  0.8140  0.6225  0.2156
  236MOL0     H31828   6.725   6.877   7.179  0.6382 -0.5179  0.0167
  236MOL0     H31829   6.714   6.796   7.339  0.5626  0.8103 -0.1547
  236MOL0     H31830   6.961   6.737   7.311 -0.4725 -0.5698  1.2503
  236MOL0     H31831   6.919   6.905   7.328 -2.2685  0.1204  0.0233
  236MOL0     H31832   6.952   6.940   7.081  1.0073  1.3082  2.1046
  236MOL0     H31833   6.959   6.767   7.046 -1.3852 -1.6680  1.4973
  236MOL0     H31834   7.141   6.934   7.207  1.2869  2.2649 -1.9469
  236MOL0     H31835   7.182   6.759   7.164 -3.3831 -0.9996 -0.6708
  236MOL0     H31836   7.157   7.018   6.987  1.4596  1.2523 -1.5560
  236MOL0     H31837   7.177   6.859   6.913 -2.8001  0.9032  0.2458
  236MOL0     H31838   7.409   6.836   7.019 -0.3167 -0.6035  0.4955
  236MOL0     H31839   7.395   6.987   6.927  0.1373 -0.6263 -0.7356
  236MOL0     H31840   6.434   6.277   7.194 -1.8311 -1.2071  2.0258
  236MOL0     H31841   6.213   6.210   7.131 -1.5469 -0.1028 -2.2903
  236MOL0     H31842   5.670   6.439   7.248  0.1613  3.1972 -0.7657
  236MOL0     H31843   5.446   6.385   7.160  0.6618  0.6628  0.4255
  236MOL0     H31844   3.549   6.263   6.600 -2.3140 -2.9687 -0.4283
  236MOL0     H31845   3.308   6.277   6.627 -1.0940 -1.2206  0.6229
  236MOL0     H31846   3.016   6.495   6.902  0.0185  0.3807  2.3931
  236MOL0     H31847   2.798   6.582   6.952 -0.8530 -1.1952  4.1553
  236MOL0     H31848   2.360   6.454   6.962  1.4715  1.8069  0.8447
  236MOL0     H31849   2.435   6.314   6.896 -2.8435  0.3043  1.1640
  236MOL0     H31850   2.474   6.412   6.681  0.0830  0.8895 -0.3889
  236MOL0     H31851   2.400   6.561   6.731 -0.0242  0.5487  0.8627
  236MOL0     H31852   2.185   6.451   6.769 -0.2822 -0.1500  0.8526
  236MOL0     H31853   2.258   6.286   6.752 -0.7032 -0.2891 -0.3080
  236MOL0     H31854   2.225   6.508   6.527 -0.3737  0.3673  0.0177
  236MOL0     H31855   2.297   6.347   6.500 -1.4749 -2.9015  0.1749
  236MOL0     H31856   1.909   6.208   6.530 -0.4642  0.8113  3.9448
  236MOL0     H31857   2.615   6.198   6.865  1.2048 -2.4268  4.4913
  236MOL0     H31858   2.895   6.054   6.724  2.7796 -1.2695  2.1696
  236MOL0     H31859   2.898   6.003   6.894  0.5927  0.7220  0.2235
  236MOL0     H31860   2.744   6.012   6.812 -1.8948  1.4688  0.1963
  237MOL0     O31861   0.915   5.890   4.003  1.0172  0.0203  0.1647
  237MOL0     C31862   0.954   5.866   3.888  0.9928 -0.0898 -0.1769
  237MOL0     O31863   1.084   5.885   3.839  0.6484  0.5136  0.0351
  237MOL0     C31864   1.185   5.929   3.919 -0.4930 -0.5553 -0.2594
  237MOL0     C31865   1.309   5.887   3.873 -1.4046  0.3361  0.1039
  237MOL0     C31866   1.426   5.938   3.937 -0.1155 -0.6250 -0.2760
  237MOL0     C31867   1.409   6.037   4.042 -0.1435 -0.0253  1.0954
  237MOL0     O31868   1.517   6.085   4.113 -0.3619  0.1505 -0.2351
  237MOL0     C31869   1.620   5.991   4.146  0.5289 -0.7038  0.1333
  237MOL0     C31870   1.720   6.033   4.257  0.1000  0.1527  0.8336
  237MOL0     C31871   1.829   5.927   4.259 -0.6642 -0.4599 -0.0571
  237MOL0     C31872   1.947   5.971   4.353 -0.9228  0.2602 -0.7136
  237MOL0     C31873   2.042   5.850   4.345 -0.3513 -1.1225  0.8456
  237MOL0     C31874   2.163   5.864   4.440  0.0611 -0.3552  0.1211
  237MOL0     C31875   2.272   5.774   4.392  0.7242 -0.3826  0.4072
  237MOL0     C31876   2.245   5.629   4.410  0.0387  0.6016 -0.3520
  237MOL0     N31877   2.345   5.546   4.343 -0.6176 -0.3317  0.2436
  237MOL0     C31878   2.345   5.411   4.343 -0.3864  0.6659 -0.0982
  237MOL0     C31879   2.462   5.370   4.303 -0.0193  0.2001 -0.6828
  237MOL0     C31880   2.518   5.232   4.286  1.0551 -0.1783  0.2971
  237MOL0     C31881   2.663   5.227   4.320 -0.5679  0.2074  0.3672
  237MOL0     C31882   2.718   5.096   4.359 -0.6008  0.4570  0.3418
  237MOL0     C31883   2.701   4.986   4.249 -0.4317 -0.7309  0.3978
  237MOL0     O31884   2.778   5.016   4.134  0.5536 -0.1455  0.0054
  237MOL0     C31885   2.920   5.023   4.137 -0.1926  0.0345 -0.6910
  237MOL0     C31886   3.006   4.985   4.240  0.4873 -1.2417 -1.0305
  237MOL0     C31887   3.145   5.003   4.237 -0.6300 -0.0828  0.6454
  237MOL0     C31888   3.209   5.049   4.123 -1.0680 -0.2649  0.7921
  237MOL0     C31889   3.356   5.048   4.120  0.2576  0.3959  0.0289
  237MOL0     O31890   3.420   5.021   4.236 -0.4280 -0.5212 -0.5740
  237MOL0     C31891   3.559   5.012   4.222 -0.3057 -0.1507 -0.1883
  237MOL0     C31892   3.635   5.126   4.212 -0.2790 -0.7961  0.0265
  237MOL0     C31893   3.780   5.109   4.200  0.1759 -0.7305 -0.2212
  237MOL0     C31894   3.837   4.986   4.209 -0.2354  0.4439 -0.6361
  237MOL0     O31895   3.970   4.960   4.203 -0.0822  0.3734  0.2418
  237MOL0     C31896   4.057   5.024   4.292  0.2444  0.2560 -0.3896
  237MOL0     C31897   4.143   5.134   4.220 -0.9632 -0.1627 -0.2627
  237MOL0     C31898   4.291   5.159   4.269 -0.0973 -0.2841 -0.1480
  237MOL0     C31899   4.391   5.048   4.220  0.9663  0.7484 -0.0396
  237MOL0     C31900   4.535   5.090   4.247  0.6445 -0.1748 -0.4095
  237MOL0     C31901   4.621   4.985   4.188 -0.2811  0.3661 -0.2481
  237MOL0     C31902   4.768   5.020   4.172  0.1821  0.1615 -0.3233
  237MOL0     C31903   4.855   4.900   4.204 -0.7090  0.0221  0.0365
  237MOL0    Cl31904   5.014   4.958   4.159  0.0545 -0.0605  0.0604
  237MOL0     C31905   3.752   4.871   4.212  0.0202 -0.2476  0.0387
  237MOL0     C31906   3.618   4.886   4.232  0.1287 -0.0541 -0.1020
  237MOL0     O31907   3.413   5.073   4.017  0.8276  0.9529  0.0964
  237MOL0     C31908   3.125   5.086   4.012 -0.4716 -0.2797 -0.2945
  237MOL0     C31909   2.982   5.081   4.023 -0.3635  0.3502 -0.2793
  237MOL0     N31910   2.535   5.482   4.272 -0.6267  0.6407 -0.5524
  237MOL0     N31911   2.464   5.585   4.286  0.0076  0.5974 -0.8458
  237MOL0     C31912   1.290   6.094   4.070  0.0420  0.5690 -0.0982
  237MOL0     C31913   1.171   6.035   4.014 -0.2877 -0.5062  0.6168
  237MOL0     C31914   0.848   5.829   3.790  0.2971  0.1520  0.2119
  237MOL0     C31915   0.892   5.845   3.654  0.6709 -0.3649  0.5963
  237MOL0     C31916   0.797   5.814   3.556 -0.2229  0.0295  0.5003
  237MOL0     C31917   0.677   5.750   3.583 -0.0718  0.1622 -0.5582
  237MOL0     O31918   0.573   5.718   3.501 -0.0989 -0.2740  0.5583
  237MOL0     C31919   0.587   5.763   3.366  0.0654 -0.8936 -0.0088
  237MOL0     C31920   0.444   5.752   3.304  0.4656  0.1432  0.1833
  237MOL0     C31921   0.378   5.608   3.324 -0.3942 -0.7026 -0.4151
  237MOL0     C31922   0.235   5.603   3.248  0.0178  0.5561 -0.1805
  237MOL0     C31923   0.123   5.685   3.295  1.3884  0.1766  0.1126
  237MOL0     C31924   0.027   5.752   3.330  0.0825  0.2006  0.7561
  237MOL0     C31925   0.649   5.722   3.711  0.5358  0.3692  0.2272
  237MOL0     C31926   0.726   5.762   3.818 -0.2584 -0.3880 -0.7661
  237MOL0     C31927   0.679   5.728   3.958  0.3374  0.3155  0.0008
  237MOL0     H31928   1.322   5.803   3.804  0.5788 -1.3014  2.3001
  237MOL0     H31929   1.523   5.911   3.898  0.1076  1.2659 -1.1140
  237MOL0     H31930   1.571   5.899   4.179  1.3840 -0.2325  3.0588
  237MOL0     H31931   1.683   5.976   4.058  1.9975  0.1972  0.9762
  237MOL0     H31932   1.666   6.057   4.349  2.2161 -0.0618  2.1889
  237MOL0     H31933   1.766   6.124   4.217  2.8922 -1.1216  0.9578
  237MOL0     H31934   1.868   5.910   4.159 -1.9442 -4.1668 -0.0606
  237MOL0     H31935   1.780   5.840   4.304  3.6196 -2.4788  1.2942
  237MOL0     H31936   1.986   6.067   4.316  1.8272 -0.6457 -0.3988
  237MOL0     H31937   1.920   5.988   4.458 -0.6380  0.2794 -0.6435
  237MOL0     H31938   1.981   5.761   4.364 -0.7728 -0.6355  1.8544
  237MOL0     H31939   2.077   5.838   4.242 -0.9845 -2.4217  0.7522
  237MOL0     H31940   2.201   5.967   4.444  1.9960 -1.0750  2.0700
  237MOL0     H31941   2.131   5.839   4.541  2.2085 -3.4907  0.1604
  237MOL0     H31942   2.359   5.798   4.454  0.7967  2.7584 -0.7029
  237MOL0     H31943   2.308   5.803   4.293 -0.1770 -1.9388 -0.4192
  237MOL0     H31944   2.243   5.608   4.518 -1.8090  3.3807  0.2875
  237MOL0     H31945   2.146   5.602   4.372  1.0744 -0.8108 -2.1384
  237MOL0     H31946   2.273   5.341   4.383  1.1737 -1.8137 -1.3198
  237MOL0     H31947   2.459   5.166   4.350 -0.1204  0.7897  0.2443
  237MOL0     H31948   2.501   5.200   4.183 -2.4541  2.2795 -0.0592
  237MOL0     H31949   2.720   5.268   4.236 -2.0809  1.5352 -0.0776
  237MOL0     H31950   2.691   5.289   4.405  0.9182  0.2178 -0.1063
  237MOL0     H31951   2.662   5.052   4.442 -0.9384 -2.6775 -1.3635
  237MOL0     H31952   2.822   5.114   4.388 -0.6240  2.0112 -0.4788
  237MOL0     H31953   2.594   4.971   4.231 -0.9341  1.3029  1.3678
  237MOL0     H31954   2.739   4.893   4.293  1.0755 -0.0646  0.5618
  237MOL0     H31955   2.952   4.949   4.327  2.3120 -0.0087  0.6926
  237MOL0     H31956   3.204   4.955   4.315  1.4901  1.3835  0.0317
  237MOL0     H31957   3.575   5.215   4.202  1.4387  0.3162 -1.0191
  237MOL0     H31958   3.846   5.196   4.203  0.3629 -0.8818  1.8248
  237MOL0     H31959   3.995   5.079   4.364 -0.9871  2.5909 -3.0276
  237MOL0     H31960   4.135   4.963   4.338  2.4242  3.8137  0.9772
  237MOL0     H31961   4.147   5.109   4.114 -0.7879  1.8918 -0.7921
  237MOL0     H31962   4.088   5.229   4.222  0.2759  0.5626  0.9128
  237MOL0     H31963   4.329   5.253   4.225 -0.2890 -0.1263  0.0239
  237MOL0     H31964   4.303   5.171   4.377  2.4788 -0.5221 -0.3412
  237MOL0     H31965   4.374   5.024   4.115  2.0767 -0.3203  0.0039
  237MOL0     H31966   4.387   4.950   4.269  0.5177  0.9544  0.3456
  237MOL0     H31967   4.545   5.088   4.356  0.3104  1.1476 -0.3350
  237MOL0     H31968   4.561   5.187   4.204 -0.0211  1.7153  3.1223
  237MOL0     H31969   4.607   4.900   4.256 -0.0083 -0.8601 -1.6522
  237MOL0     H31970   4.589   4.950   4.089  0.4475 -0.7607 -0.1167
  237MOL0     H31971   4.789   5.107   4.234  1.1305  0.3880 -0.9416
  237MOL0     H31972   4.785   5.044   4.066  2.4271 -1.0004 -0.2970
  237MOL0     H31973   4.853   4.879   4.311  0.9352  1.2102  0.3393
  237MOL0     H31974   4.820   4.815   4.144 -0.2661 -0.5429  0.5691
  237MOL0     H31975   3.797   4.773   4.215  1.1615  0.2883  2.5369
  237MOL0     H31976   3.544   4.806   4.229  0.0205  0.0415  0.0013
  237MOL0     H31977   3.164   5.107   3.913 -3.7554 -1.5718 -2.0161
  237MOL0     H31978   2.914   5.107   3.942  0.0518 -1.5080 -1.2725
  237MOL0     H31979   1.281   6.185   4.129  0.8218  2.1115 -2.2233
  237MOL0     H31980   1.072   6.071   4.039 -0.4259 -1.2840  1.2190
  237MOL0     H31981   0.986   5.888   3.618  0.0174  2.0700  1.5838
  237MOL0     H31982   0.820   5.835   3.452  1.3135 -4.0385 -0.1739
  237MOL0     H31983   0.650   5.682   3.329  1.4879  0.4464 -0.6089
  237MOL0     H31984   0.632   5.861   3.348 -0.7501 -0.3539  0.7853
  237MOL0     H31985   0.460   5.766   3.196  2.7090 -1.4221  0.2350
  237MOL0     H31986   0.379   5.827   3.349  1.7522  1.0720  0.5357
  237MOL0     H31987   0.377   5.577   3.429  1.1809 -1.1842 -0.5242
  237MOL0     H31988   0.444   5.539   3.271  0.3521  0.0122 -0.4288
  237MOL0     H31989   0.256   5.624   3.143  1.9585 -0.0075  0.0442
  237MOL0     H31990   0.195   5.502   3.242 -3.6239  1.5855  3.0696
  237MOL0     H31991  -0.051   5.821   3.356 -0.9506 -0.5651 -0.2106
  237MOL0     H31992   0.568   5.652   3.728  0.4273  0.0180 -1.5208
  237MOL0     H31993   0.593   5.660   3.950  0.9772 -0.3003 -3.2491
  237MOL0     H31994   0.759   5.687   4.020 -1.2606  0.1075  2.0236
  237MOL0     H31995   0.636   5.813   4.011 -0.9005  0.1930 -0.7501
  238MOL0     O31996   6.534   2.494   8.268 -0.4629 -0.3622 -0.3061
  238MOL0     C31997   6.492   2.526   8.162  0.4696  0.6093  0.1364
  238MOL0     O31998   6.546   2.617   8.074  0.4804 -0.0417 -0.0231
  238MOL0     C31999   6.677   2.644   8.090 -0.3009 -0.0471 -0.7054
  238MOL0     C32000   6.779   2.563   8.039 -1.1753  0.0005 -0.7132
  238MOL0     C32001   6.913   2.597   8.058  0.2000  0.0410 -0.2903
  238MOL0     C32002   6.950   2.708   8.137  0.2062  0.1880 -0.8672
  238MOL0     O32003   7.078   2.749   8.154  0.7453  0.2062  0.5297
  238MOL0     C32004   7.192   2.666   8.133 -0.2427 -0.6026  0.6349
  238MOL0     C32005   7.299   2.739   8.228 -0.4840  0.2495  0.5719
  238MOL0     C32006   7.249   2.771   8.371  1.2297  0.0433 -0.1395
  238MOL0     C32007   7.181   2.648   8.431  0.0146  0.4275 -0.0449
  238MOL0     C32008   7.162   2.685   8.579 -0.1167  0.0335 -0.7917
  238MOL0     C32009   7.061   2.595   8.648  0.0900  0.5341  0.5526
  238MOL0     C32010   7.043   2.633   8.801  0.4107 -0.2293  0.2366
  238MOL0     C32011   6.961   2.529   8.879 -0.0548  1.1150 -0.1147
  238MOL0     N32012   7.040   2.411   8.917 -0.1415  0.7058  0.0972
  238MOL0     C32013   7.160   2.406   8.982  0.1760  0.2803  0.3484
  238MOL0     C32014   7.173   2.278   9.023 -0.4176 -0.2148  0.5669
  238MOL0     C32015   7.266   2.228   9.124 -0.0668  0.3751  0.2762
  238MOL0     C32016   7.411   2.285   9.121 -0.9007  0.3590 -0.2041
  238MOL0     C32017   7.472   2.222   9.245  0.1995 -0.2733 -0.6254
  238MOL0     C32018   7.600   2.298   9.277  0.4291  0.9160  0.1353
  238MOL0     O32019   7.701   2.248   9.191  0.7413 -0.3220 -0.2297
  238MOL0     C32020   7.822   2.314   9.204 -0.3964 -0.0023 -1.0724
  238MOL0     C32021   7.933   2.260   9.131 -0.1163 -0.4480 -1.2561
  238MOL0     C32022   8.058   2.330   9.145  0.1121  0.8413 -0.2437
  238MOL0     C32023   8.080   2.441   9.229 -0.1298  0.4318 -0.3486
  238MOL0     C32024   8.210   2.512   9.236 -0.7223  0.0819  0.1821
  238MOL0     O32025   8.240   2.598   9.342  0.2987  0.4561 -0.2363
  238MOL0     C32026   8.360   2.659   9.358 -0.1096  0.4963  1.1966
  238MOL0     C32027   8.458   2.615   9.449  0.0050 -0.0224 -0.4857
  238MOL0     C32028   8.573   2.692   9.474 -0.2871 -0.1168 -0.0312
  238MOL0     C32029   8.590   2.817   9.414 -0.1796  0.0262  0.4927
  238MOL0     O32030   8.707   2.897   9.435 -0.3941  0.2491  0.5349
  238MOL0     C32031   8.821   2.834   9.469 -0.1915 -0.4889 -0.3083
  238MOL0     C32032   8.930   2.939   9.473 -0.6819  0.1125 -0.0947
  238MOL0     C32033   9.072   2.878   9.519  0.2417 -0.1700  0.0376
  238MOL0     C32034   9.190   2.985   9.506 -0.9934  0.9792 -0.1637
  238MOL0     C32035   9.320   2.925   9.559  0.4122 -0.1760  0.3152
  238MOL0     C32036   9.433   3.020   9.528  0.6850  0.6709  0.0595
  238MOL0     C32037   9.558   2.962   9.592 -0.9713 -0.1324  0.6112
  238MOL0     C32038   9.672   3.025   9.513  0.6368 -0.2651  0.0613
  238MOL0    Cl32039   9.840   2.974   9.564 -0.3050 -0.7911  0.0030
  238MOL0     C32040   8.492   2.859   9.331  0.2439 -0.4881 -1.0986
  238MOL0     C32041   8.379   2.782   9.303 -0.1815 -0.5796 -0.1049
  238MOL0     O32042   8.289   2.483   9.149  0.0101  0.1575  0.7940
  238MOL0     C32043   7.975   2.481   9.312 -0.8871 -0.0976 -0.1048
  238MOL0     C32044   7.852   2.425   9.287 -0.4399 -0.7884 -0.1156
  238MOL0     N32045   7.072   2.208   8.971 -0.0859 -0.6407 -0.4021
  238MOL0     N32046   6.988   2.291   8.919  0.4859  0.1847  0.7543
  238MOL0     C32047   6.848   2.789   8.188 -0.7058 -0.3200  0.2707
  238MOL0     C32048   6.714   2.759   8.167  0.5132  0.5015 -0.0467
  238MOL0     C32049   6.371   2.452   8.107 -0.5294  1.1855 -0.6400
  238MOL0     C32050   6.293   2.513   8.010 -0.7815  0.6994  0.3124
  238MOL0     C32051   6.186   2.458   7.950 -0.0003 -0.9395  0.3907
  238MOL0     C32052   6.131   2.343   7.998 -0.1993  0.5017  0.0843
  238MOL0     O32053   6.019   2.307   7.931  0.0228 -0.0434 -0.5320
  238MOL0     C32054   5.996   2.166   7.902 -0.1934 -0.0428 -0.2066
  238MOL0     C32055   6.100   2.121   7.795 -0.0129  0.4523  0.6915
  238MOL0     C32056   6.063   1.981   7.750 -0.6649  0.4411 -0.7495
  238MOL0     C32057   6.163   1.869   7.798  0.4754 -0.7861 -0.7190
  238MOL0     C32058   6.189   1.886   7.935  0.2238 -0.7066 -0.6087
  238MOL0     C32059   6.221   1.910   8.050  0.1286  0.5208 -0.2305
  238MOL0     C32060   6.200   2.276   8.100  0.0485 -0.5495 -0.2369
  238MOL0     C32061   6.320   2.327   8.150 -0.0815  0.1900 -0.8968
  238MOL0     C32062   6.396   2.242   8.253 -0.3895 -0.1104  0.2259
  238MOL0     H32063   6.755   2.484   7.969  0.2430 -0.5713 -0.5776
  238MOL0     H32064   6.994   2.531   8.028  2.3738  2.2537  0.3110
  238MOL0     H32065   7.178   2.561   8.161 -3.2594 -0.8153 -1.1996
  238MOL0     H32066   7.223   2.672   8.028  0.3581 -2.0395  0.7063
  238MOL0     H32067   7.332   2.833   8.184  0.1057 -1.2706 -2.4487
  238MOL0     H32068   7.383   2.672   8.248 -0.3482 -0.6998 -2.6677
  238MOL0     H32069   7.171   2.848   8.361 -1.5542 -2.1679  2.5058
  238MOL0     H32070   7.332   2.802   8.435  0.1606  2.4689  0.1840
  238MOL0     H32071   7.083   2.626   8.386  1.4602 -3.4661 -1.6795
  238MOL0     H32072   7.239   2.557   8.413  0.2445  0.5241  0.2037
  238MOL0     H32073   7.249   2.683   8.645 -0.7690 -1.6507  0.0884
  238MOL0     H32074   7.121   2.784   8.602 -0.7961 -0.1805 -1.0545
  238MOL0     H32075   6.962   2.607   8.601  1.4555 -0.6287 -3.0043
  238MOL0     H32076   7.082   2.488   8.642  1.5501  0.7857  0.8824
  238MOL0     H32077   6.995   2.731   8.814  1.9369  0.2250  3.5318
  238MOL0     H32078   7.143   2.648   8.842 -0.2836  2.2125  1.2264
  238MOL0     H32079   6.928   2.578   8.971 -2.0316 -0.4082  0.0591
  238MOL0     H32080   6.876   2.497   8.818  1.0477 -1.1105 -0.5620
  238MOL0     H32081   7.220   2.495   9.003 -3.7684  3.3404 -0.1955
  238MOL0     H32082   7.222   2.264   9.218 -0.0047  0.1681  0.3840
  238MOL0     H32083   7.272   2.119   9.126  1.0310  0.4021 -0.8454
  238MOL0     H32084   7.458   2.244   9.031  3.1582  0.6969  1.5238
  238MOL0     H32085   7.418   2.394   9.114 -1.2713  0.3837 -0.1782
  238MOL0     H32086   7.513   2.123   9.221  1.3414  0.1197 -0.3926
  238MOL0     H32087   7.408   2.224   9.333 -1.6649 -1.6673 -1.8610
  238MOL0     H32088   7.638   2.277   9.378  1.5368  0.4817 -0.3604
  238MOL0     H32089   7.585   2.406   9.265  0.1178  0.9674  0.9168
  238MOL0     H32090   7.936   2.176   9.064 -0.2985 -2.9447  1.6321
  238MOL0     H32091   8.138   2.304   9.077  0.5060  0.4493  0.3687
  238MOL0     H32092   8.457   2.531   9.517 -0.0909 -0.1678 -0.6655
  238MOL0     H32093   8.646   2.662   9.548 -0.5038  1.6139  0.9364
  238MOL0     H32094   8.822   2.790   9.569 -1.1119  1.2096  0.5076
  238MOL0     H32095   8.838   2.760   9.390 -0.4067 -0.2669 -0.5649
  238MOL0     H32096   8.946   2.974   9.370 -1.0003  2.1656  0.5079
  238MOL0     H32097   8.902   3.028   9.530 -2.2872 -0.5005  0.1226
  238MOL0     H32098   9.084   2.839   9.621  2.1577 -1.2988 -0.5635
  238MOL0     H32099   9.085   2.790   9.455  0.8617 -0.6514  0.7968
  238MOL0     H32100   9.178   3.081   9.558  1.3310 -0.2604  2.9529
  238MOL0     H32101   9.208   3.012   9.402 -1.5420  1.7924 -0.0660
  238MOL0     H32102   9.340   2.833   9.504 -0.8913  0.0280 -0.5542
  238MOL0     H32103   9.310   2.907   9.667 -1.2273  1.1317  0.4298
  238MOL0     H32104   9.441   3.045   9.422  1.9354  0.9678  0.2095
  238MOL0     H32105   9.418   3.116   9.577 -2.3749  0.3554 -0.0843
  238MOL0     H32106   9.563   2.854   9.576  3.8700  0.2353 -2.2636
  238MOL0     H32107   9.561   2.997   9.695  1.3739 -0.0772  0.5715
  238MOL0     H32108   9.668   2.998   9.407  2.5622 -2.2901  0.4287
  238MOL0     H32109   9.664   3.134   9.510  1.1762 -0.2340 -2.3242
  238MOL0     H32110   8.496   2.958   9.287 -1.9377 -1.2390 -3.1668
  238MOL0     H32111   8.300   2.815   9.236 -0.2623  0.6991  0.6006
  238MOL0     H32112   7.987   2.565   9.380  0.7706 -1.4257  1.3525
  238MOL0     H32113   7.771   2.478   9.336  0.7030  1.4581 -0.4826
  238MOL0     H32114   6.883   2.873   8.247  0.3766 -1.2503  0.9979
  238MOL0     H32115   6.644   2.835   8.201  0.5675  0.5435 -0.0287
  238MOL0     H32116   6.332   2.607   7.971  1.6630 -1.5237 -3.1111
  238MOL0     H32117   6.131   2.504   7.869  3.6629  0.2080 -1.6788
  238MOL0     H32118   5.895   2.153   7.862  0.0076  0.5815 -0.9278
  238MOL0     H32119   5.992   2.103   7.992 -0.4846 -0.2822 -0.3894
  238MOL0     H32120   6.204   2.131   7.827 -0.4124  2.2767  1.5285
  238MOL0     H32121   6.080   2.184   7.708 -0.3928 -0.2549  0.2490
  238MOL0     H32122   6.059   1.977   7.641 -0.3928 -1.3314 -0.7161
  238MOL0     H32123   5.966   1.952   7.791  0.2338 -0.2970  0.9650
  238MOL0     H32124   6.115   1.774   7.774  0.7812 -1.0829 -0.1651
  238MOL0     H32125   6.257   1.864   7.742  0.0206  1.1694 -1.7564
  238MOL0     H32126   6.249   1.924   8.152  1.6328 -4.7077  0.3768
  238MOL0     H32127   6.161   2.180   8.134  0.4727 -0.7158 -0.2117
  238MOL0     H32128   6.369   2.136   8.254 -1.9948  0.1362  4.5166
  238MOL0     H32129   6.505   2.240   8.237 -0.4255 -0.0770 -0.0320
  238MOL0     H32130   6.374   2.289   8.349  1.3003 -4.5253  3.0659
  239MOL0     O32131   4.283   8.494   3.126 -0.3036 -0.4404  1.0264
  239MOL0     C32132   4.237   8.451   3.020 -0.4445  0.2714  0.0972
  239MOL0     O32133   4.314   8.399   2.924 -0.1891  0.2532  0.2538
  239MOL0     C32134   4.450   8.422   2.937 -0.2114  0.3207 -0.2986
  239MOL0     C32135   4.500   8.526   2.864  0.1843  0.8460  0.5469
  239MOL0     C32136   4.646   8.546   2.855  0.2767 -0.1133  0.0768
  239MOL0     C32137   4.727   8.463   2.927 -0.5925  0.3272  0.3917
  239MOL0     O32138   4.865   8.480   2.934  0.3776  0.1399  0.2555
  239MOL0     C32139   4.930   8.593   2.874  0.1259  0.1916  0.0882
  239MOL0     C32140   5.057   8.636   2.946  0.5322  0.5734  0.6018
  239MOL0     C32141   5.182   8.572   2.883 -0.7226  0.3824 -1.3713
  239MOL0     C32142   5.262   8.685   2.809  0.2377 -0.5076 -1.2851
  239MOL0     C32143   5.389   8.639   2.736 -0.7172 -0.1551 -0.1493
  239MOL0     C32144   5.488   8.559   2.835  0.1633 -0.4337 -0.2307
  239MOL0     C32145   5.614   8.507   2.758  0.4819 -0.3351 -0.2421
  239MOL0     C32146   5.740   8.602   2.786 -0.2179 -0.1458  0.3083
  239MOL0     N32147   5.859   8.569   2.699 -0.0959  0.2237  0.5624
  239MOL0     C32148   5.916   8.443   2.684  0.0667  0.0890  0.5218
  239MOL0     C32149   6.002   8.465   2.578  0.5897  0.8592 -0.4498
  239MOL0     C32150   6.069   8.354   2.509  0.7288  0.1088  0.7080
  239MOL0     C32151   6.211   8.338   2.546 -0.5484 -0.5449  0.0573
  239MOL0     C32152   6.309   8.423   2.460 -0.5472  0.1385 -0.1027
  239MOL0     C32153   6.452   8.370   2.479 -0.1908  0.2976 -0.5914
  239MOL0     O32154   6.544   8.465   2.417  0.1082  0.5769 -0.4247
  239MOL0     C32155   6.650   8.403   2.354 -0.7239 -0.5444 -0.5568
  239MOL0     C32156   6.682   8.451   2.227  0.5632  0.0126 -0.2044
  239MOL0     C32157   6.803   8.409   2.173  0.5310 -0.1119 -0.5412
  239MOL0     C32158   6.889   8.319   2.234  0.7307 -0.8690  0.8223
  239MOL0     C32159   7.018   8.295   2.184 -0.8702  0.1018  0.5964
  239MOL0     O32160   7.103   8.230   2.266 -0.0164 -0.3308 -0.7307
  239MOL0     C32161   7.242   8.223   2.239 -0.2589 -0.1264  0.1883
  239MOL0     C32162   7.322   8.329   2.212 -0.6320 -0.1493 -0.5204
  239MOL0     C32163   7.465   8.306   2.185  0.0451  0.2934  0.2852
  239MOL0     C32164   7.519   8.178   2.182  0.9097  0.2958  0.3839
  239MOL0     O32165   7.650   8.167   2.154  0.0927  0.2218  0.6443
  239MOL0     C32166   7.705   8.036   2.126  0.3592 -0.8729  0.0539
  239MOL0     C32167   7.859   8.050   2.097  0.5554  0.1309 -1.1743
  239MOL0     C32168   7.920   8.113   2.214 -0.3966  0.1570  0.6062
  239MOL0     C32169   8.070   8.079   2.216 -0.1284  0.3521 -0.0965
  239MOL0     C32170   8.135   8.096   2.362 -0.5426 -1.0945  0.8815
  239MOL0     C32171   8.258   8.019   2.354 -0.8091  0.0583  0.4523
  239MOL0     C32172   8.345   8.035   2.480 -0.5484 -0.1725  0.0079
  239MOL0     C32173   8.482   7.964   2.462 -0.1162 -0.0835  0.2739
  239MOL0    Cl32174   8.582   7.982   2.615 -0.5732 -0.1308 -0.4732
  239MOL0     C32175   7.434   8.074   2.222  0.7267 -0.8789 -0.4539
  239MOL0     C32176   7.298   8.098   2.243  0.4494 -0.4701 -0.1718
  239MOL0     O32177   7.049   8.333   2.069  0.3817 -0.4440 -0.1697
  239MOL0     C32178   6.850   8.265   2.360  0.7385  0.4516  0.2682
  239MOL0     C32179   6.735   8.318   2.426 -0.7654  0.0868 -0.6129
  239MOL0     N32180   5.993   8.589   2.527 -0.0306  0.5013  0.6294
  239MOL0     N32181   5.913   8.647   2.607 -0.5397 -0.8640 -1.3396
  239MOL0     C32182   4.669   8.346   2.985 -0.5452  0.1229 -0.2237
  239MOL0     C32183   4.533   8.326   3.000 -0.1405  0.1317  0.6755
  239MOL0     C32184   4.088   8.472   2.991 -0.0246 -0.4412 -0.6556
  239MOL0     C32185   4.006   8.505   3.099 -0.0384 -0.3243 -0.2744
  239MOL0     C32186   3.872   8.521   3.075  0.8936  0.3004 -0.7667
  239MOL0     C32187   3.814   8.517   2.948 -0.0861 -0.5552 -1.1634
  239MOL0     O32188   3.682   8.532   2.929  0.9752 -0.0110  0.0818
  239MOL0     C32189   3.643   8.669   2.951 -0.2442 -0.0453 -0.3253
  239MOL0     C32190   3.538   8.658   3.062  0.4814  0.2665  0.0055
  239MOL0     C32191   3.479   8.794   3.083  0.3787  0.2833  0.7910
  239MOL0     C32192   3.363   8.790   3.187  0.4647 -0.2388 -0.0159
  239MOL0     C32193   3.311   8.923   3.233 -0.3951 -0.0442  0.2298
  239MOL0     C32194   3.266   9.020   3.286  0.1131 -0.2723  0.5353
  239MOL0     C32195   3.902   8.495   2.838  0.9956 -0.3924 -0.1553
  239MOL0     C32196   4.036   8.472   2.862 -0.2563 -0.7812  0.2604
  239MOL0     C32197   4.117   8.438   2.734  0.0426 -0.0541  0.0027
  239MOL0     H32198   4.433   8.593   2.812  0.2105  0.1594 -0.4001
  239MOL0     H32199   4.671   8.624   2.784 -2.0539 -0.2810 -1.0009
  239MOL0     H32200   4.948   8.577   2.767  0.3851 -1.4893  0.3556
  239MOL0     H32201   4.874   8.685   2.892 -1.1819 -0.8529  1.6452
  239MOL0     H32202   5.046   8.619   3.053 -1.4307 -0.6679  0.2502
  239MOL0     H32203   5.070   8.744   2.934  2.1969  0.2056 -1.4216
  239MOL0     H32204   5.159   8.484   2.823  1.6053 -2.1890  1.2165
  239MOL0     H32205   5.243   8.532   2.964 -0.2394 -0.2419 -2.0233
  239MOL0     H32206   5.202   8.738   2.735  0.5676 -0.8011 -1.7734
  239MOL0     H32207   5.293   8.760   2.882 -0.5181 -0.0875 -1.3926
  239MOL0     H32208   5.358   8.571   2.656  0.2497  0.4141 -1.0244
  239MOL0     H32209   5.446   8.724   2.698 -1.6050  0.3349 -0.3998
  239MOL0     H32210   5.513   8.605   2.931  1.6228 -1.7213  0.0568
  239MOL0     H32211   5.432   8.467   2.851  0.5976 -0.8133 -0.8409
  239MOL0     H32212   5.580   8.512   2.655 -0.6234 -0.4167  0.1068
  239MOL0     H32213   5.626   8.404   2.792 -1.2757 -0.5984 -0.3420
  239MOL0     H32214   5.695   8.701   2.772 -1.5526 -0.5695  1.4555
  239MOL0     H32215   5.770   8.612   2.891 -0.8171 -1.0735  0.5740
  239MOL0     H32216   5.882   8.354   2.736  0.1014 -0.7507 -0.8666
  239MOL0     H32217   6.019   8.265   2.548  0.2500 -0.5057 -1.2173
  239MOL0     H32218   6.048   8.347   2.402  0.2965 -1.3318  0.8736
  239MOL0     H32219   6.228   8.367   2.650  0.1739  2.2048 -0.7393
  239MOL0     H32220   6.236   8.233   2.534 -0.5975 -0.3914 -1.6454
  239MOL0     H32221   6.303   8.527   2.491  0.5101  0.2979 -0.3644
  239MOL0     H32222   6.277   8.407   2.357  0.2533 -0.2465 -0.3035
  239MOL0     H32223   6.464   8.270   2.437 -0.4304  0.0596 -0.1041
  239MOL0     H32224   6.473   8.355   2.586 -0.6948 -0.8747 -0.6472
  239MOL0     H32225   6.611   8.514   2.174  0.8249 -0.7369 -1.4939
  239MOL0     H32226   6.831   8.464   2.084  2.4909 -0.4641 -0.1930
  239MOL0     H32227   7.296   8.433   2.225 -0.9687 -0.2357 -0.4835
  239MOL0     H32228   7.535   8.389   2.182  0.7287 -0.0891  3.3178
  239MOL0     H32229   7.687   7.973   2.214 -1.8953  0.4596  0.6363
  239MOL0     H32230   7.648   7.991   2.044 -0.7217  0.5640 -0.0267
  239MOL0     H32231   7.895   7.951   2.070 -1.6583 -0.2430 -3.1115
  239MOL0     H32232   7.884   8.105   2.005  1.3085 -1.0461 -1.6963
  239MOL0     H32233   7.905   8.221   2.203  1.2927  0.1977 -2.5829
  239MOL0     H32234   7.875   8.089   2.311 -3.9298  0.3514 -0.8043
  239MOL0     H32235   8.126   8.130   2.138  2.4055 -0.1953  1.2443
  239MOL0     H32236   8.074   7.971   2.199 -0.2873  0.4751 -0.9516
  239MOL0     H32237   8.067   8.058   2.438  1.2105  1.2933  3.8671
  239MOL0     H32238   8.153   8.204   2.363 -3.2110 -0.3081 -3.7796
  239MOL0     H32239   8.234   7.915   2.328  4.7910 -1.3407 -0.5837
  239MOL0     H32240   8.313   8.070   2.274  0.8022 -0.1549  1.3768
  239MOL0     H32241   8.297   7.994   2.569 -0.6959 -0.0605 -0.0199
  239MOL0     H32242   8.364   8.142   2.494  1.4460 -0.3231 -1.1561
  239MOL0     H32243   8.469   7.859   2.433 -0.2389 -0.4727  1.6706
  239MOL0     H32244   8.528   8.017   2.378  0.5760  0.5612  1.0447
  239MOL0     H32245   7.475   7.974   2.225  0.6769 -0.8883  1.6208
  239MOL0     H32246   7.231   8.019   2.277 -1.0612  1.6083  1.9719
  239MOL0     H32247   6.918   8.194   2.405  0.2766 -0.2302 -0.0902
  239MOL0     H32248   6.713   8.275   2.523 -2.4424  0.5695 -0.7566
  239MOL0     H32249   4.742   8.274   3.020 -1.3694 -0.8166 -0.3833
  239MOL0     H32250   4.490   8.236   3.040 -4.2732 -0.2019 -3.6340
  239MOL0     H32251   4.046   8.522   3.198 -1.1340  0.4196  0.0584
  239MOL0     H32252   3.812   8.533   3.165  1.2442  0.1418 -0.5086
  239MOL0     H32253   3.586   8.697   2.863  0.4882 -4.0533 -2.3036
  239MOL0     H32254   3.721   8.743   2.970  0.6398 -0.8213 -0.8308
  239MOL0     H32255   3.581   8.624   3.156  2.1955  0.9275 -0.4970
  239MOL0     H32256   3.460   8.585   3.036  0.4180  0.7147 -1.1079
  239MOL0     H32257   3.443   8.842   2.992  2.0885 -1.5423 -0.9556
  239MOL0     H32258   3.552   8.863   3.127  0.5879  2.2084 -2.2900
  239MOL0     H32259   3.285   8.736   3.132  2.4168 -0.7579 -2.4623
  239MOL0     H32260   3.395   8.736   3.277  0.3467  1.0119  0.8001
  239MOL0     H32261   3.217   9.100   3.337  2.3327 -0.9087  4.0916
  239MOL0     H32262   3.861   8.473   2.740  0.3471 -0.7505  0.1949
  239MOL0     H32263   4.159   8.337   2.732  1.8938  0.6473 -2.8469
  239MOL0     H32264   4.060   8.452   2.642 -0.1644  0.1018  0.1553
  239MOL0     H32265   4.206   8.501   2.726 -1.0537  1.6240  0.5333
  240MOL0     O32266  10.678  10.127   8.290 -0.3674 -0.5398  0.0527
  240MOL0     C32267  10.680  10.090   8.172 -0.2253  0.6502  0.1578
  240MOL0     O32268  10.786  10.035   8.111 -0.3801  0.7358  0.1168
  240MOL0     C32269  10.910  10.038   8.174 -0.5098  0.1687 -0.1428
  240MOL0     C32270  10.959   9.922   8.231  0.8440  0.2905 -0.7920
  240MOL0     C32271  11.082   9.920   8.295  0.5315 -1.1291 -0.1704
  240MOL0     C32272  11.170  10.040   8.296 -0.5999  0.2940 -0.0475
  240MOL0     O32273  11.293  10.038   8.350 -0.5266  0.1672  0.5053
  240MOL0     C32274  11.386  10.146   8.329 -0.2103  0.2094  0.3316
  240MOL0     C32275  11.392  10.259   8.436 -1.1325  0.9314  1.3542
  240MOL0     C32276  11.423  10.187   8.569  0.1237  0.1768 -0.0995
  240MOL0     C32277  11.423  10.275   8.696  0.4019  0.6922 -0.4302
  240MOL0     C32278  11.445  10.192   8.818  0.3875 -0.8118 -0.2222
  240MOL0     C32279  11.576  10.128   8.827 -0.2724  0.7949  0.0341
  240MOL0     C32280  11.613  10.071   8.969 -0.2767 -0.3812  0.0385
  240MOL0     C32281  11.726   9.977   8.964  0.4500  0.7021  0.5414
  240MOL0     N32282  11.762   9.940   9.104  0.7044 -0.3944  0.0500
  240MOL0     C32283  11.830  10.039   9.175 -0.6181 -0.3328 -0.7625
  240MOL0     C32284  11.899   9.970   9.271 -0.3460 -0.9190  0.4875
  240MOL0     C32285  12.002  10.025   9.371 -0.1006 -0.5655  0.2495
  240MOL0     C32286  12.138  10.048   9.296 -0.8719 -0.0686  0.0382
  240MOL0     C32287  12.247  10.101   9.386  0.3169 -0.0781  0.2286
  240MOL0     C32288  12.377  10.103   9.301  0.5554  0.0200 -1.0523
  240MOL0     O32289  12.489  10.122   9.386 -0.2371 -0.3474  0.3074
  240MOL0     C32290  12.603  10.158   9.317 -0.7082  0.1684 -0.1386
  240MOL0     C32291  12.721  10.142   9.386  0.1717  0.9182 -0.8468
  240MOL0     C32292  12.845  10.182   9.338  0.0963 -0.4364  0.4200
  240MOL0     C32293  12.858  10.244   9.210 -0.2648  1.2340  0.2776
  240MOL0     C32294  12.991  10.285   9.163  0.0002 -0.0761  0.4074
  240MOL0     O32295  12.986  10.315   9.029  0.6772 -0.1812 -0.1976
  240MOL0     C32296  13.101  10.361   8.975  0.0104  0.0648  1.0451
  240MOL0     C32297  13.237  10.311   9.002  0.3248 -0.1138  0.0099
  240MOL0     C32298  13.337  10.364   8.929 -0.2915 -0.0387  1.2934
  240MOL0     C32299  13.319  10.454   8.821 -0.6794  0.0994  1.0700
  240MOL0     O32300  13.422  10.502   8.744 -0.0972  0.6482  0.0989
  240MOL0     C32301  13.440  10.403   8.638  0.5566  0.3492 -0.5087
  240MOL0     C32302  13.566  10.431   8.558  0.0567 -0.1460  0.2370
  240MOL0     C32303  13.685  10.428   8.645 -0.6045 -0.0543  0.0187
  240MOL0     C32304  13.815  10.458   8.563 -0.0488 -0.4170  0.0868
  240MOL0     C32305  13.939  10.500   8.643  0.7741 -0.7714  0.1364
  240MOL0     C32306  14.057  10.484   8.548  0.3697 -0.1390  0.3262
  240MOL0     C32307  14.178  10.571   8.596  0.3467  0.5086  0.3872
  240MOL0     C32308  14.311  10.510   8.542  0.4070  0.3115  0.2435
  240MOL0    Cl32309  14.432  10.635   8.567  0.2320  0.2898  0.2600
  240MOL0     C32310  13.193  10.519   8.808 -0.4722  0.6762  0.1276
  240MOL0     C32311  13.087  10.468   8.885 -0.1031  0.5242 -0.1297
  240MOL0     O32312  13.091  10.275   9.225 -0.5655 -0.4579  0.3891
  240MOL0     C32313  12.736  10.246   9.134  0.5565 -0.6113  1.1797
  240MOL0     C32314  12.614  10.204   9.187  0.0730  0.3917 -1.1311
  240MOL0     N32315  11.879   9.830   9.250 -0.0895 -0.4073  0.5353
  240MOL0     N32316  11.790   9.818   9.152  0.2008 -0.1857 -0.0279
  240MOL0     C32317  11.122  10.150   8.226 -0.2551 -0.4434 -0.0530
  240MOL0     C32318  10.989  10.151   8.169 -0.6700  1.0306  0.2841
  240MOL0     C32319  10.558  10.105   8.089  0.2475 -0.3988  0.7754
  240MOL0     C32320  10.473  10.215   8.123  0.4041  0.1815 -0.4392
  240MOL0     C32321  10.352  10.229   8.050 -0.2663  0.1988 -0.2945
  240MOL0     C32322  10.317  10.154   7.939  0.4651 -0.3783  0.3010
  240MOL0     O32323  10.202  10.193   7.872  0.2325  0.5681  0.1425
  240MOL0     C32324  10.074  10.195   7.951 -0.0948 -0.4344  0.2323
  240MOL0     C32325   9.961  10.121   7.873  0.5166  0.9697  0.2270
  240MOL0     C32326   9.817  10.158   7.924  0.3481  0.1382  0.0269
  240MOL0     C32327   9.779  10.301   7.884 -0.7737 -1.0654  0.2370
  240MOL0     C32328   9.636  10.325   7.871 -0.7187  0.0610 -0.3564
  240MOL0     C32329   9.517  10.340   7.849  0.5064  0.0470  0.0702
  240MOL0     C32330  10.404  10.052   7.908  0.8768 -0.3344 -0.2653
  240MOL0     C32331  10.522  10.023   7.975  0.0292 -0.1055 -1.1157
  240MOL0     C32332  10.597   9.900   7.915  0.1115  0.2713  0.4680
  240MOL0     H32333  10.897   9.832   8.230  1.0337  0.1570 -0.7006
  240MOL0     H32334  11.127   9.836   8.347  4.0172  0.4985 -0.2766
  240MOL0     H32335  11.485  10.103   8.345 -0.9621 -0.6308  3.3436
  240MOL0     H32336  11.374  10.184   8.227 -2.0720 -3.4835 -1.0100
  240MOL0     H32337  11.291  10.298   8.453 -1.5107  1.6466 -1.7888
  240MOL0     H32338  11.472  10.331   8.418  0.2863 -0.0929  3.2552
  240MOL0     H32339  11.525  10.149   8.561 -0.0959 -0.4033 -0.1345
  240MOL0     H32340  11.358  10.100   8.580  1.1816 -0.6311 -0.0440
  240MOL0     H32341  11.492  10.359   8.685  0.9439  0.1544 -1.2569
  240MOL0     H32342  11.320  10.312   8.693 -0.2831 -1.1551 -1.6477
  240MOL0     H32343  11.434  10.261   8.902  3.8478 -1.0046  0.5254
  240MOL0     H32344  11.366  10.120   8.842 -0.9534  0.6516 -0.0550
  240MOL0     H32345  11.586  10.047   8.754 -0.6528  1.0071 -0.2614
  240MOL0     H32346  11.648  10.205   8.799 -0.7135 -0.0994 -4.1099
  240MOL0     H32347  11.526  10.021   9.011  0.1290 -0.1916  1.1289
  240MOL0     H32348  11.636  10.156   9.034 -2.4344 -0.7746  1.4218
  240MOL0     H32349  11.692   9.889   8.909 -1.3688  1.1317  0.9032
  240MOL0     H32350  11.813  10.021   8.916  1.3249 -2.5610 -1.1360
  240MOL0     H32351  11.815  10.146   9.170 -1.2898 -0.3439  0.5791
  240MOL0     H32352  11.965  10.119   9.415  2.3344 -0.8851  3.3247
  240MOL0     H32353  12.012   9.962   9.460  2.1164  0.0462  0.4966
  240MOL0     H32354  12.186   9.954   9.267  0.4100  0.0797  1.5853
  240MOL0     H32355  12.120  10.112   9.209 -2.5583  0.9822  1.0943
  240MOL0     H32356  12.246  10.032   9.471 -3.0411 -2.4510 -1.4655
  240MOL0     H32357  12.229  10.203   9.420 -2.2948 -0.7166  0.9570
  240MOL0     H32358  12.367  10.195   9.241  3.6320  1.3673  0.3051
  240MOL0     H32359  12.387  10.010   9.244  0.7000 -1.3013  1.0366
  240MOL0     H32360  12.723  10.092   9.482  1.1697  0.5305 -1.0529
  240MOL0     H32361  12.938  10.165   9.392 -1.2373  0.7630  3.3302
  240MOL0     H32362  13.267  10.242   9.080  0.0761  1.7689  1.8404
  240MOL0     H32363  13.438  10.326   8.939 -0.6638 -1.6475 -0.4499
  240MOL0     H32364  13.444  10.299   8.673 -0.8567  0.8678  1.3177
  240MOL0     H32365  13.352  10.418   8.574 -2.0535  0.9690  2.9294
  240MOL0     H32366  13.569  10.352   8.482 -2.7596 -0.1975  0.0996
  240MOL0     H32367  13.563  10.531   8.515  2.4851 -0.3143 -0.5088
  240MOL0     H32368  13.687  10.498   8.729 -0.5382  1.7441 -1.4219
  240MOL0     H32369  13.706  10.326   8.681  0.2616  0.3798  0.7884
  240MOL0     H32370  13.795  10.544   8.499  0.6325 -1.4595 -1.5756
  240MOL0     H32371  13.832  10.375   8.494  1.2882  0.7420 -1.0282
  240MOL0     H32372  13.948  10.441   8.734 -1.6131  0.2986  1.1541
  240MOL0     H32373  13.918  10.598   8.687 -2.1551 -1.6362  0.9327
  240MOL0     H32374  14.075  10.376   8.556 -0.7403 -0.5888 -2.3808
  240MOL0     H32375  14.018  10.509   8.449 -1.6968 -0.1884  1.0863
  240MOL0     H32376  14.187  10.557   8.704 -1.5513 -2.5713  0.2400
  240MOL0     H32377  14.171  10.678   8.575  1.9874  0.3976 -0.9752
  240MOL0     H32378  14.341  10.433   8.614  1.2020  1.6639  1.4213
  240MOL0     H32379  14.302  10.486   8.436 -1.5627 -0.0246  0.4494
  240MOL0     H32380  13.183  10.598   8.734 -0.6656 -0.2745 -0.8885
  240MOL0     H32381  12.985  10.500   8.867  0.2190  0.8550 -1.4254
  240MOL0     H32382  12.761  10.283   9.035 -1.1895  2.7668  1.8487
  240MOL0     H32383  12.524  10.196   9.126  0.2079 -3.8648 -1.0766
  240MOL0     H32384  11.172  10.245   8.207 -1.2465  0.6059  2.1853
  240MOL0     H32385  10.949  10.237   8.116  0.0912  1.8126  0.9353
  240MOL0     H32386  10.497  10.274   8.211 -0.5388  1.6620 -1.1301
  240MOL0     H32387  10.297  10.320   8.075  0.6652  0.2408  1.9132
  240MOL0     H32388  10.038  10.297   7.965 -0.5455 -0.7305  1.4082
  240MOL0     H32389  10.094  10.156   8.052  0.4596 -2.4684 -0.6004
  240MOL0     H32390   9.972  10.014   7.893 -0.6785  0.4430 -1.7188
  240MOL0     H32391   9.959  10.138   7.765  0.4654  2.4168  0.4398
  240MOL0     H32392   9.831  10.148   8.032 -0.2588 -2.8899 -0.0939
  240MOL0     H32393   9.736  10.089   7.895 -1.0938  1.8263 -0.1286
  240MOL0     H32394   9.807  10.358   7.973  0.2154 -1.3574  0.1156
  240MOL0     H32395   9.827  10.340   7.794 -0.0220 -0.1575  1.0087
  240MOL0     H32396   9.412  10.357   7.835  0.0678  0.1152  2.8623
  240MOL0     H32397  10.374   9.989   7.825 -1.5172  1.0351 -0.5137
  240MOL0     H32398  10.703   9.924   7.906 -0.0271  0.1428 -2.6700
  240MOL0     H32399  10.601   9.816   7.985  0.7592  1.6280  2.1343
  240MOL0     H32400  10.557   9.871   7.817  3.5418 -0.4140 -0.8772
  241MOL0     O32401   3.446   6.981   9.935 -0.0787 -0.7671  0.8547
  241MOL0     C32402   3.451   6.866   9.979 -0.2193  0.3164 -0.2541
  241MOL0     O32403   3.562   6.804  10.035  0.1569 -0.4811  0.4951
  241MOL0     C32404   3.677   6.879  10.071  0.4592  0.0696  0.1669
  241MOL0     C32405   3.803   6.820  10.040  0.3536  0.6569 -0.1386
  241MOL0     C32406   3.913   6.896  10.070 -0.0693  0.3818 -0.1268
  241MOL0     C32407   3.904   7.030  10.113  0.7193  0.0674 -0.4457
  241MOL0     O32408   4.023   7.100  10.115  0.2409 -0.0561 -0.5202
  241MOL0     C32409   4.065   7.127   9.985  0.0518  0.6380 -0.1413
  241MOL0     C32410   4.213   7.160   9.990  0.5525  0.6174 -0.3488
  241MOL0     C32411   4.291   7.046  10.065 -0.2329  0.1933  0.8517
  241MOL0     C32412   4.444   7.068  10.048  0.1343  0.4596 -0.9192
  241MOL0     C32413   4.497   7.186  10.144 -0.3077  0.5004  0.6466
  241MOL0     C32414   4.643   7.198  10.177 -0.2473  0.2758  0.1085
  241MOL0     C32415   4.674   7.315  10.270 -0.8709  0.4642 -0.1005
  241MOL0     C32416   4.828   7.295  10.302  0.2654 -0.5393 -0.1952
  241MOL0     N32417   4.869   7.410  10.382 -0.6892  0.2195 -0.2131
  241MOL0     C32418   4.877   7.540  10.342  0.2267  0.8254  0.0365
  241MOL0     C32419   4.882   7.614  10.452  0.7034 -0.0744 -0.1626
  241MOL0     C32420   4.890   7.760  10.445 -0.4055 -0.1938  0.4246
  241MOL0     C32421   5.030   7.801  10.476  0.0668 -0.2275 -0.2497
  241MOL0     C32422   5.061   7.944  10.420  0.8327  0.5918  0.0197
  241MOL0     C32423   5.210   7.982  10.431 -0.2522  0.4974  0.1437
  241MOL0     O32424   5.236   8.110  10.375  0.2982  0.6451  0.7000
  241MOL0     C32425   5.356   8.169  10.394  0.0911  0.1716  0.0152
  241MOL0     C32426   5.472   8.109  10.439 -0.0711 -0.8093 -0.9443
  241MOL0     C32427   5.584   8.177  10.481 -0.0791  0.3072  0.5248
  241MOL0     C32428   5.593   8.319  10.469  0.0098 -0.1569 -0.1668
  241MOL0     C32429   5.724   8.386  10.482 -0.8425  0.1093 -0.1017
  241MOL0     O32430   5.828   8.325  10.564  0.0451 -0.3454 -0.0637
  241MOL0     C32431   5.955   8.376  10.551 -0.0305  0.3363 -0.3432
  241MOL0     C32432   6.009   8.425  10.663 -0.3215  0.2848  0.4365
  241MOL0     C32433   6.145   8.461  10.661  0.2348 -0.5327 -0.4080
  241MOL0     C32434   6.217   8.465  10.539  0.1310  0.3826  0.3906
  241MOL0     O32435   6.346   8.504  10.554  0.2345 -0.0649  0.3396
  241MOL0     C32436   6.438   8.487  10.447  0.7696  0.2300 -0.2701
  241MOL0     C32437   6.577   8.496  10.504  0.6950 -0.1985 -0.0725
  241MOL0     C32438   6.696   8.466  10.411  0.6999  0.4639  0.1733
  241MOL0     C32439   6.836   8.496  10.474  0.0808  0.3680  0.2396
  241MOL0     C32440   6.955   8.443  10.396 -0.1411  0.4639 -0.2063
  241MOL0     C32441   7.075   8.541  10.412  1.0963  0.6696 -0.3378
  241MOL0     C32442   7.204   8.478  10.349  0.4285  0.1754 -0.2134
  241MOL0     C32443   7.327   8.572  10.381 -0.1012  0.0281  0.0899
  241MOL0    Cl32444   7.347   8.696  10.255 -0.3350  0.0759 -0.4268
  241MOL0     C32445   6.152   8.434  10.419 -0.5038  0.0760  0.0299
  241MOL0     C32446   6.027   8.374  10.429 -0.4332 -0.3080 -0.3938
  241MOL0     O32447   5.745   8.489  10.423 -0.6622 -0.2513 -0.4924
  241MOL0     C32448   5.484   8.378  10.406  1.4051 -0.1720  0.1116
  241MOL0     C32449   5.370   8.307  10.367 -1.1110 -0.4759  0.5165
  241MOL0     N32450   4.891   7.529  10.558  0.2169 -0.3076 -0.1827
  241MOL0     N32451   4.879   7.411  10.515 -0.0482  0.3260 -0.3801
  241MOL0     C32452   3.777   7.077  10.148 -0.2118  0.0600 -0.9225
  241MOL0     C32453   3.663   7.004  10.132  0.1655  0.0347 -0.0792
  241MOL0     C32454   3.320   6.799   9.974  0.3005 -0.6686  0.0063
  241MOL0     C32455   3.209   6.867  10.031  0.3983  0.4308  0.1754
  241MOL0     C32456   3.080   6.793  10.031  0.2032 -0.3015  0.2084
  241MOL0     C32457   3.061   6.671   9.982 -0.0363 -0.1484 -0.1996
  241MOL0     O32458   2.927   6.619   9.989 -0.3431  0.3653  0.2649
  241MOL0     C32459   2.919   6.478  10.006  0.0597  0.3931 -0.6346
  241MOL0     C32460   2.771   6.443   9.984 -0.5672 -0.2781  0.4669
  241MOL0     C32461   2.746   6.396   9.839 -0.5687  0.1820 -0.3999
  241MOL0     C32462   2.631   6.482   9.767  0.1159 -0.7668 -0.2982
  241MOL0     C32463   2.601   6.432   9.633  0.6974 -0.1704  0.4088
  241MOL0     C32464   2.588   6.412   9.509  0.1535 -0.1537  0.6872
  241MOL0     C32465   3.180   6.606   9.943  0.2948  0.2249  0.3631
  241MOL0     C32466   3.309   6.666   9.935  0.3442 -0.1450  0.5220
  241MOL0     C32467   3.420   6.585   9.871  0.8168  0.6597 -0.9193
  241MOL0     H32468   3.812   6.719  10.000  1.1084  0.5903  0.1910
  241MOL0     H32469   4.011   6.852  10.055  0.3704  1.0317  0.7264
  241MOL0     H32470   4.056   7.041   9.918  1.0719  1.8875 -1.9915
  241MOL0     H32471   4.012   7.216   9.948  0.2724  1.7426  2.0503
  241MOL0     H32472   4.235   7.253  10.042  0.8333  0.4452 -0.1573
  241MOL0     H32473   4.240   7.169   9.884 -0.3697  1.3780 -0.5290
  241MOL0     H32474   4.272   6.946  10.025  0.5264  1.0046 -1.7215
  241MOL0     H32475   4.264   7.047  10.171 -0.0852  0.7682  0.8901
  241MOL0     H32476   4.499   6.973  10.054  1.6174  1.3271 -0.0252
  241MOL0     H32477   4.458   7.096   9.943  0.6955  1.5110 -0.5804
  241MOL0     H32478   4.455   7.279  10.104 -1.5184 -0.3219 -0.0283
  241MOL0     H32479   4.455   7.173  10.244  0.2639  1.9318  1.0968
  241MOL0     H32480   4.683   7.100  10.206  1.8644  1.1278  0.2783
  241MOL0     H32481   4.705   7.220  10.090 -0.2204  0.6403  0.2145
  241MOL0     H32482   4.608   7.313  10.358 -0.1671  1.7384  0.4837
  241MOL0     H32483   4.660   7.416  10.232 -1.9004 -0.0924 -1.2709
  241MOL0     H32484   4.842   7.207  10.364 -0.5701  0.1256  0.9598
  241MOL0     H32485   4.892   7.287  10.213  1.0364 -0.1196  0.3063
  241MOL0     H32486   4.858   7.574  10.241 -2.0145 -0.6387 -0.0876
  241MOL0     H32487   4.862   7.796  10.346 -0.1375  0.7084  0.6587
  241MOL0     H32488   4.813   7.803  10.511 -0.4936 -2.1599  1.6664
  241MOL0     H32489   5.044   7.807  10.585  3.2689  0.3949 -0.6022
  241MOL0     H32490   5.099   7.729  10.433  0.0938 -1.6439  2.0268
  241MOL0     H32491   4.995   8.021  10.462 -2.4864 -0.9354 -1.9476
  241MOL0     H32492   5.035   7.941  10.314  3.1738  0.8681 -0.6127
  241MOL0     H32493   5.276   7.910  10.383  0.0962  0.3748  0.7972
  241MOL0     H32494   5.247   7.980  10.534  2.9508  1.5989 -0.8887
  241MOL0     H32495   5.471   8.003  10.461 -1.1741 -0.2808  2.0248
  241MOL0     H32496   5.671   8.116  10.506  0.2487  0.5438 -0.0165
  241MOL0     H32497   5.944   8.428  10.750  0.0664  1.1334  0.7130
  241MOL0     H32498   6.195   8.488  10.753  0.1982  0.2460 -0.6063
  241MOL0     H32499   6.409   8.394  10.397 -0.3468  0.3303  0.1638
  241MOL0     H32500   6.430   8.564  10.370  2.0568 -2.0168 -2.8581
  241MOL0     H32501   6.593   8.600  10.534 -1.5640 -0.0502  0.8338
  241MOL0     H32502   6.576   8.428  10.590  0.5602 -1.0452 -0.7254
  241MOL0     H32503   6.685   8.359  10.390 -0.4131  0.9513 -2.0130
  241MOL0     H32504   6.681   8.518  10.316  0.3313 -0.1230 -0.0969
  241MOL0     H32505   6.844   8.444  10.570 -1.2954  3.2920  2.0920
  241MOL0     H32506   6.849   8.603  10.492 -0.6822  0.9572 -2.3897
  241MOL0     H32507   6.924   8.433  10.291  1.5691 -1.0788 -0.6073
  241MOL0     H32508   6.982   8.342  10.427  1.4734  0.8511 -0.3053
  241MOL0     H32509   7.053   8.628  10.349 -0.4553 -2.2400 -4.2280
  241MOL0     H32510   7.084   8.568  10.517  0.1139 -1.2339  0.2674
  241MOL0     H32511   7.189   8.451  10.244 -3.9323  1.7945 -0.2195
  241MOL0     H32512   7.214   8.382  10.401  1.7040  0.6672  0.4788
  241MOL0     H32513   7.315   8.610  10.483 -0.5066 -0.5838  0.2742
  241MOL0     H32514   7.414   8.509  10.400 -2.3706 -3.1552  0.7404
  241MOL0     H32515   6.195   8.443  10.320 -0.0288  1.2810  0.3337
  241MOL0     H32516   5.977   8.340  10.339 -0.6664 -0.2043 -0.3026
  241MOL0     H32517   5.491   8.483  10.379 -2.4562 -0.5137 -3.1923
  241MOL0     H32518   5.307   8.363  10.298  0.5933  0.1648 -0.5806
  241MOL0     H32519   3.759   7.176  10.190  0.9959 -0.1653  0.1854
  241MOL0     H32520   3.568   7.051  10.155  1.1660  1.9115  0.4655
  241MOL0     H32521   3.215   6.967  10.072  1.2610  0.7556 -0.7024
  241MOL0     H32522   3.002   6.855  10.074  3.3717  5.6879 -1.5203
  241MOL0     H32523   2.946   6.467  10.111  1.3971 -2.8992 -1.1886
  241MOL0     H32524   2.993   6.428   9.942  0.3015  0.4684 -0.4132
  241MOL0     H32525   2.705   6.520  10.025  0.4297  1.0214 -0.3058
  241MOL0     H32526   2.751   6.357  10.050 -1.9721  2.0210  3.2583
  241MOL0     H32527   2.708   6.294   9.844  0.2495 -0.0773  0.7642
  241MOL0     H32528   2.828   6.402   9.766 -0.5229 -0.4106 -0.3986
  241MOL0     H32529   2.543   6.485   9.831  0.9693  1.0858  0.8761
  241MOL0     H32530   2.685   6.577   9.763 -0.9153 -0.1448  0.1486
  241MOL0     H32531   2.578   6.407   9.403  0.5455 -1.7728  0.7058
  241MOL0     H32532   3.172   6.505   9.904  3.5149  0.3236 -0.8046
  241MOL0     H32533   3.383   6.503   9.808  0.4114  1.0248 -1.1692
  241MOL0     H32534   3.484   6.654   9.814  1.6309  0.8069  0.1601
  241MOL0     H32535   3.482   6.546   9.952 -1.9007  1.2396  1.6168
  242MOL0     O32536   4.027   3.006   5.933 -0.3024  0.6798  0.3129
  242MOL0     C32537   3.944   3.086   5.966 -0.0862 -0.4362 -0.6275
  242MOL0     O32538   3.976   3.198   6.043 -0.3791 -0.2448  0.5160
  242MOL0     C32539   4.107   3.234   6.063  0.0238 -0.1323  0.0117
  242MOL0     C32540   4.195   3.263   5.961 -0.0170 -0.5075 -0.6852
  242MOL0     C32541   4.330   3.306   5.981 -0.0654  0.3156  0.3800
  242MOL0     C32542   4.371   3.309   6.112 -0.3435  0.8733 -0.1258
  242MOL0     O32543   4.502   3.328   6.151  0.4030  0.0315 -0.1967
  242MOL0     C32544   4.603   3.354   6.060  0.8514 -0.1225  0.6447
  242MOL0     C32545   4.727   3.318   6.131  0.3906 -0.6052  0.1590
  242MOL0     C32546   4.845   3.343   6.033  1.8291 -0.5633  0.9757
  242MOL0     C32547   4.984   3.329   6.084 -0.4764  0.0118 -0.2521
  242MOL0     C32548   5.091   3.353   5.968  0.2422 -0.1469  0.2119
  242MOL0     C32549   5.232   3.343   6.024  0.7069 -0.4395  0.5102
  242MOL0     C32550   5.329   3.368   5.906  0.0750  1.5387  0.3999
  242MOL0     C32551   5.478   3.370   5.946  0.2219  0.5418  0.0296
  242MOL0     N32552   5.532   3.243   5.996  0.6010 -0.5427  0.4090
  242MOL0     C32553   5.595   3.147   5.924 -0.3954  0.7503  0.6971
  242MOL0     C32554   5.651   3.063   6.022 -0.5913  0.2726  0.3252
  242MOL0     C32555   5.711   2.927   6.016 -0.7889  0.8998 -1.0473
  242MOL0     C32556   5.868   2.937   5.995  0.0911 -0.2905 -0.5351
  242MOL0     C32557   5.941   2.831   6.075  0.1553 -0.1219  0.3574
  242MOL0     C32558   6.094   2.852   6.078 -0.3941  0.6382 -0.5004
  242MOL0     O32559   6.145   2.900   5.952  0.2530 -0.1273 -0.3648
  242MOL0     C32560   6.285   2.888   5.939  0.1536  0.0278  0.0274
  242MOL0     C32561   6.341   2.950   5.829  0.4729 -0.6379  0.3093
  242MOL0     C32562   6.479   2.959   5.804  0.0769 -0.3837 -0.1399
  242MOL0     C32563   6.565   2.896   5.885  0.2889 -0.7632 -0.4066
  242MOL0     C32564   6.709   2.908   5.861  0.3341  0.2948 -0.2181
  242MOL0     O32565   6.752   2.964   5.739 -0.6356  0.5384 -0.7306
  242MOL0     C32566   6.884   2.984   5.741 -0.7741  0.8546 -0.4499
  242MOL0     C32567   6.953   2.876   5.683  0.2990 -0.1508 -0.7653
  242MOL0     C32568   7.094   2.862   5.696  0.7474  0.1173  0.7937
  242MOL0     C32569   7.157   2.968   5.757 -0.5816  0.1643  0.0127
  242MOL0     O32570   7.291   2.977   5.774 -0.2344  0.1127  0.3406
  242MOL0     C32571   7.383   2.877   5.728  1.2456  0.5946 -0.9865
  242MOL0     C32572   7.522   2.905   5.784 -0.0012 -0.5711  0.1613
  242MOL0     C32573   7.607   2.781   5.793 -0.4092  0.2682 -0.9033
  242MOL0     C32574   7.747   2.804   5.855  0.2489  1.2161  0.5143
  242MOL0     C32575   7.830   2.672   5.853  0.5729 -0.5779 -0.2497
  242MOL0     C32576   7.946   2.694   5.940  0.7049  0.2220  0.6053
  242MOL0     C32577   8.013   2.561   5.959 -0.8943 -0.7047 -0.7381
  242MOL0     C32578   8.149   2.586   6.022 -0.2130  0.1202  0.6063
  242MOL0    Cl32579   8.192   2.463   6.139  0.1589 -0.0958 -0.0336
  242MOL0     C32580   7.093   3.080   5.800  0.8493  0.9390  0.7007
  242MOL0     C32581   6.951   3.089   5.803 -0.3826 -1.0004  0.0650
  242MOL0     O32582   6.784   2.896   5.960  0.1509 -0.5472  0.0830
  242MOL0     C32583   6.514   2.819   5.998  0.3159 -0.2504  0.2422
  242MOL0     C32584   6.374   2.821   6.027 -0.1016  0.7898  0.3166
  242MOL0     N32585   5.617   3.119   6.143  1.2642 -0.1016 -0.2524
  242MOL0     N32586   5.549   3.231   6.126  0.3591 -0.1784 -0.3305
  242MOL0     C32587   4.282   3.300   6.220 -0.0295 -0.3707 -0.5722
  242MOL0     C32588   4.149   3.261   6.198  0.9183 -0.1165 -0.0303
  242MOL0     C32589   3.798   3.067   5.948 -0.2008  0.4049 -0.4762
  242MOL0     C32590   3.718   3.176   5.926  0.3162 -0.3598  0.1679
  242MOL0     C32591   3.580   3.166   5.902  0.5391 -0.4562 -0.1523
  242MOL0     C32592   3.516   3.038   5.921  0.4543 -0.1504 -0.1231
  242MOL0     O32593   3.377   3.014   5.907 -0.0817 -0.1501 -0.1441
  242MOL0     C32594   3.285   3.128   5.911 -0.4830  0.3050 -0.0617
  242MOL0     C32595   3.275   3.197   6.053  0.4338  0.1265 -1.2145
  242MOL0     C32596   3.249   3.097   6.162  0.6404 -0.0179 -0.8756
  242MOL0     C32597   3.233   3.161   6.310 -0.9974 -0.4265  0.1165
  242MOL0     C32598   3.109   3.231   6.318  0.4945 -0.4172  0.1835
  242MOL0     C32599   2.999   3.281   6.319 -0.0224 -0.8590 -0.8241
  242MOL0     C32600   3.595   2.924   5.933 -0.1883 -1.0680 -0.7085
  242MOL0     C32601   3.733   2.943   5.963  0.3379 -0.1809 -0.1775
  242MOL0     C32602   3.810   2.821   5.993 -0.6068 -0.1297 -0.6044
  242MOL0     H32603   4.150   3.259   5.862 -2.6789 -1.1282  0.4583
  242MOL0     H32604   4.403   3.317   5.901  2.2062 -4.5365  1.4026
  242MOL0     H32605   4.585   3.293   5.972 -4.9136  0.1263  1.2646
  242MOL0     H32606   4.604   3.459   6.032  1.2512 -0.3387 -0.1753
  242MOL0     H32607   4.724   3.210   6.152 -4.2094 -0.6944  0.2112
  242MOL0     H32608   4.745   3.377   6.221 -0.8946 -1.7001  1.1920
  242MOL0     H32609   4.846   3.449   6.006  2.9270 -0.8511 -0.2042
  242MOL0     H32610   4.831   3.271   5.952 -3.1791 -2.3929  3.0344
  242MOL0     H32611   5.005   3.393   6.170  0.3543  1.0708 -1.2135
  242MOL0     H32612   4.994   3.230   6.128  1.5141  0.6778  0.8986
  242MOL0     H32613   5.073   3.266   5.904  0.4584 -0.8665  1.1100
  242MOL0     H32614   5.072   3.437   5.901  0.2685 -1.8570 -2.0889
  242MOL0     H32615   5.250   3.417   6.102  0.8229  0.7935 -0.6476
  242MOL0     H32616   5.255   3.244   6.066  1.1322  0.4628  2.5315
  242MOL0     H32617   5.300   3.464   5.864  0.8791  1.5492 -0.1350
  242MOL0     H32618   5.314   3.284   5.837 -0.4144  0.8469  1.3195
  242MOL0     H32619   5.536   3.399   5.858  0.1006  0.5028 -0.0626
  242MOL0     H32620   5.498   3.448   6.020 -0.8405  1.6684 -0.8275
  242MOL0     H32621   5.613   3.136   5.818  0.4124 -2.2914  1.0437
  242MOL0     H32622   5.679   2.876   6.108 -1.3663  0.7472 -1.3274
  242MOL0     H32623   5.663   2.866   5.939 -0.7582 -0.3152 -0.1381
  242MOL0     H32624   5.899   2.935   5.890 -0.4219 -3.0759 -0.7177
  242MOL0     H32625   5.898   3.037   6.029 -0.9244 -0.1697  0.0371
  242MOL0     H32626   5.920   2.739   6.020  0.7336  0.6442 -1.1982
  242MOL0     H32627   5.903   2.824   6.177  3.2070  2.1912  1.8095
  242MOL0     H32628   6.125   2.750   6.105 -1.3215  0.9583  2.0550
  242MOL0     H32629   6.134   2.909   6.163  1.5154 -0.2600 -0.7393
  242MOL0     H32630   6.277   2.991   5.752  1.7549  1.5421  0.3357
  242MOL0     H32631   6.509   3.019   5.718  1.4603  1.7388  1.7210
  242MOL0     H32632   6.897   2.797   5.635 -1.2064  0.3840  0.0707
  242MOL0     H32633   7.152   2.787   5.643 -1.9577 -0.6896 -1.2403
  242MOL0     H32634   7.355   2.776   5.759  0.8783 -0.0619 -3.3119
  242MOL0     H32635   7.387   2.879   5.619  0.3464  1.7273 -1.0123
  242MOL0     H32636   7.580   2.977   5.726 -0.9063 -0.5876 -0.7882
  242MOL0     H32637   7.521   2.948   5.885  0.0774 -0.6641  0.2021
  242MOL0     H32638   7.560   2.704   5.854 -1.4248  0.9297 -0.8317
  242MOL0     H32639   7.615   2.737   5.694 -0.5193  0.5006 -1.0176
  242MOL0     H32640   7.727   2.824   5.961  2.4445  0.8664  1.0377
  242MOL0     H32641   7.800   2.892   5.817 -0.7831  0.5362 -2.8256
  242MOL0     H32642   7.865   2.643   5.754  0.6282 -2.3379  0.2440
  242MOL0     H32643   7.769   2.591   5.893  3.1268 -1.4002  2.3234
  242MOL0     H32644   8.001   2.770   5.884 -0.7507 -1.3608 -3.3321
  242MOL0     H32645   7.920   2.727   6.041 -0.2016  0.0811  0.4266
  242MOL0     H32646   8.023   2.497   5.871 -1.6986  1.3245 -2.3909
  242MOL0     H32647   7.954   2.509   6.035  0.6681 -1.2707  0.1256
  242MOL0     H32648   8.223   2.609   5.945 -1.1726  0.0723 -0.3552
  242MOL0     H32649   8.144   2.678   6.081  3.8594 -0.0447  1.5396
  242MOL0     H32650   7.155   3.156   5.846  2.8858 -2.2934  3.8267
  242MOL0     H32651   6.908   3.178   5.847 -2.5142 -2.5701  1.3799
  242MOL0     H32652   6.587   2.770   6.061 -0.2793  0.6292  1.6491
  242MOL0     H32653   6.329   2.770   6.112  0.1734 -0.9264 -0.5288
  242MOL0     H32654   4.316   3.326   6.320  0.7887 -2.8971 -0.1302
  242MOL0     H32655   4.087   3.249   6.287 -2.0141  1.6753 -1.6648
  242MOL0     H32656   3.759   3.274   5.907  0.0720 -0.2213  0.3460
  242MOL0     H32657   3.524   3.258   5.885 -0.2923 -0.9409 -0.0946
  242MOL0     H32658   3.184   3.102   5.879 -1.2954  1.4369  1.4252
  242MOL0     H32659   3.312   3.209   5.843  1.8986  0.5677  1.0902
  242MOL0     H32660   3.207   3.282   6.065 -2.0997 -2.0211  0.3579
  242MOL0     H32661   3.370   3.244   6.080  0.2148  0.2621 -0.6802
  242MOL0     H32662   3.338   3.034   6.174  0.8031  0.5982  2.0707
  242MOL0     H32663   3.164   3.032   6.137  0.6115 -0.2403 -0.2280
  242MOL0     H32664   3.232   3.089   6.392 -1.5684 -1.1165 -0.4879
  242MOL0     H32665   3.312   3.233   6.333 -0.0238 -1.2885 -0.4609
  242MOL0     H32666   2.903   3.326   6.334  0.1310 -0.8840  0.3380
  242MOL0     H32667   3.559   2.822   5.920  0.5120 -1.2723 -1.0731
  242MOL0     H32668   3.743   2.738   6.016 -0.5531  0.2917  1.1891
  242MOL0     H32669   3.869   2.807   5.901  0.3977  0.1913 -0.0230
  242MOL0     H32670   3.876   2.838   6.079 -3.1053  5.3806  0.6906
  243MOL0     O32671   3.488   0.227   2.846 -0.4360 -0.2505 -0.5462
  243MOL0     C32672   3.425   0.159   2.927  0.0909 -0.4173 -0.1894
  243MOL0     O32673   3.459   0.157   3.058  0.1094  0.2394  0.3697
  243MOL0     C32674   3.556   0.247   3.100  0.4772  0.3217 -0.8854
  243MOL0     C32675   3.511   0.376   3.142 -0.6634 -0.4004 -0.0612
  243MOL0     C32676   3.602   0.479   3.180  0.3303 -0.0858 -0.6496
  243MOL0     C32677   3.738   0.451   3.175  0.2286  0.3323  0.4934
  243MOL0     O32678   3.832   0.551   3.190 -0.0303  0.1108 -0.4507
  243MOL0     C32679   3.916   0.557   3.078 -0.5361 -0.5811 -1.0809
  243MOL0     C32680   4.041   0.631   3.125 -0.5936  0.0147  0.1731
  243MOL0     C32681   4.127   0.537   3.207 -0.6490 -1.0181  0.2903
  243MOL0     C32682   4.232   0.613   3.295 -0.6171 -0.2825  0.1806
  243MOL0     C32683   4.280   0.542   3.425 -0.8670 -0.3508  0.1459
  243MOL0     C32684   4.353   0.414   3.385 -0.1687  0.1793  0.2883
  243MOL0     C32685   4.395   0.352   3.515 -0.2715 -0.0934 -0.1169
  243MOL0     C32686   4.307   0.247   3.574  0.2179 -0.0575  0.1480
  243MOL0     N32687   4.169   0.299   3.598  0.7888 -0.8600 -0.5329
  243MOL0     C32688   4.069   0.288   3.502 -0.7432  0.2479  0.2571
  243MOL0     C32689   3.966   0.365   3.553  0.6440 -0.5382 -0.5950
  243MOL0     C32690   3.833   0.373   3.495  0.1996 -0.3945 -0.5812
  243MOL0     C32691   3.713   0.347   3.589 -0.3541  0.4933  0.1608
  243MOL0     C32692   3.582   0.340   3.505 -0.0977  0.6299  0.5974
  243MOL0     C32693   3.479   0.308   3.608 -0.5099 -0.1483  0.1824
  243MOL0     O32694   3.348   0.306   3.553 -0.0835  0.0882 -0.0375
  243MOL0     C32695   3.316   0.182   3.512  0.0134  0.1418 -0.6077
  243MOL0     C32696   3.313   0.146   3.372  0.1273 -0.5381 -0.0299
  243MOL0     C32697   3.263   0.024   3.324 -0.9871  0.4577  0.3773
  243MOL0     C32698   3.224  -0.070   3.414  0.0917  0.4499  1.0872
  243MOL0     C32699   3.187  -0.209   3.372  0.4143 -0.1104  0.4459
  243MOL0     O32700   3.142  -0.211   3.239 -0.3788  0.0244 -0.5287
  243MOL0     C32701   3.093  -0.333   3.207 -0.8123  0.6565 -0.2646
  243MOL0     C32702   3.159  -0.416   3.116 -1.0703  0.6282  0.5891
  243MOL0     C32703   3.101  -0.542   3.080 -0.0210 -0.6018 -0.3198
  243MOL0     C32704   2.972  -0.588   3.133  0.1632 -0.7325  0.1182
  243MOL0     O32705   2.907  -0.710   3.112 -0.4946  0.9065 -0.4178
  243MOL0     C32706   2.938  -0.799   2.996 -0.4009  0.7916 -0.4906
  243MOL0     C32707   3.022  -0.919   3.050  0.0992 -0.0038 -0.0436
  243MOL0     C32708   3.162  -0.885   3.112  0.2839  0.8123 -0.3592
  243MOL0     C32709   3.258  -1.009   3.111 -0.1764  0.1685 -0.7814
  243MOL0     C32710   3.226  -1.100   3.228 -0.4977  0.6392  0.4337
  243MOL0     C32711   3.312  -1.066   3.354  0.1813  0.3434 -0.4661
  243MOL0     C32712   3.296  -1.176   3.457  0.1566  0.6333 -0.1137
  243MOL0     C32713   3.297  -1.123   3.597 -1.0640 -1.7683  0.6662
  243MOL0    Cl32714   3.236  -1.246   3.705  0.3147 -0.1612  0.0147
  243MOL0     C32715   2.909  -0.500   3.231 -0.1345  0.1576 -0.1088
  243MOL0     C32716   2.973  -0.380   3.260  0.6113 -0.4276  1.0906
  243MOL0     O32717   3.172  -0.293   3.457  0.2755  0.2156  0.3400
  243MOL0     C32718   3.220  -0.035   3.557 -0.2027  0.5759 -1.0163
  243MOL0     C32719   3.266   0.092   3.603 -0.3216  0.7026 -0.6132
  243MOL0     N32720   4.003   0.409   3.683 -0.1211  0.0869 -0.3015
  243MOL0     N32721   4.127   0.379   3.698 -0.0243 -0.4493 -0.7081
  243MOL0     C32722   3.781   0.316   3.148  0.3125 -0.3199 -0.3232
  243MOL0     C32723   3.686   0.219   3.108 -0.3685 -0.2006  1.2811
  243MOL0     C32724   3.306   0.083   2.884 -0.2038  0.6847 -0.9957
  243MOL0     C32725   3.195   0.138   2.837  0.8849 -0.3812  0.6101
  243MOL0     C32726   3.084   0.052   2.812  0.0797  0.2492  0.7009
  243MOL0     C32727   3.080  -0.080   2.844 -0.4230 -0.3392  1.1244
  243MOL0     O32728   2.965  -0.158   2.811 -0.3434 -0.6438 -0.5494
  243MOL0     C32729   2.950  -0.290   2.863 -0.4968  0.7168  0.2410
  243MOL0     C32730   2.813  -0.346   2.809 -0.1332 -1.1543 -0.0108
  243MOL0     C32731   2.789  -0.492   2.848  0.4115  0.2833  0.3984
  243MOL0     C32732   2.668  -0.557   2.773 -0.5768  0.2182 -0.3347
  243MOL0     C32733   2.688  -0.575   2.630  1.7764  0.4166 -0.1180
  243MOL0     C32734   2.691  -0.612   2.513  0.1399  0.0412  0.5968
  243MOL0     C32735   3.197  -0.146   2.893  0.0126  0.7784  0.5254
  243MOL0     C32736   3.308  -0.060   2.925 -0.8790  0.0769 -0.2478
  243MOL0     C32737   3.428  -0.115   3.001 -0.1041  0.2369 -0.4997
  243MOL0     H32738   3.403   0.388   3.135 -0.6450 -0.3483 -0.2483
  243MOL0     H32739   3.570   0.581   3.196 -1.3658 -0.7933  0.8277
  243MOL0     H32740   3.942   0.460   3.035  0.1856 -1.5375  1.3468
  243MOL0     H32741   3.876   0.618   2.997  0.3286 -0.5270 -1.4745
  243MOL0     H32742   4.007   0.715   3.186  2.1058  0.2813  1.4533
  243MOL0     H32743   4.104   0.669   3.044 -0.2717  3.1536  1.7701
  243MOL0     H32744   4.161   0.459   3.138  0.7033 -1.0392  0.9498
  243MOL0     H32745   4.064   0.480   3.276 -0.1455  1.3000  2.8447
  243MOL0     H32746   4.321   0.631   3.233 -0.1254 -0.8692  0.7070
  243MOL0     H32747   4.187   0.708   3.325  0.2662  0.1008  0.3222
  243MOL0     H32748   4.356   0.601   3.477  0.9784 -1.5315 -1.1108
  243MOL0     H32749   4.199   0.512   3.492 -2.0192 -0.2012 -1.1266
  243MOL0     H32750   4.293   0.349   3.321  1.5551 -0.0486 -1.1710
  243MOL0     H32751   4.443   0.436   3.326  0.2216 -0.6129  0.5826
  243MOL0     H32752   4.409   0.434   3.587  2.3349  1.7245 -2.5103
  243MOL0     H32753   4.494   0.310   3.499  0.2941  1.1848 -0.1148
  243MOL0     H32754   4.309   0.162   3.506  0.3046  0.0387  0.0303
  243MOL0     H32755   4.345   0.209   3.670  0.6957 -1.1862 -0.4702
  243MOL0     H32756   4.061   0.231   3.410  1.2170 -2.9504  1.8929
  243MOL0     H32757   3.810   0.476   3.464 -0.2506 -0.7445 -1.4539
  243MOL0     H32758   3.829   0.300   3.414 -0.0525  1.5150 -2.3806
  243MOL0     H32759   3.735   0.256   3.646 -1.5343  1.2482  1.9180
  243MOL0     H32760   3.709   0.429   3.662 -1.4507 -0.7487  1.5676
  243MOL0     H32761   3.592   0.265   3.425  2.7431  3.1134 -1.6150
  243MOL0     H32762   3.566   0.433   3.449 -0.7562 -1.1263 -2.3375
  243MOL0     H32763   3.488   0.368   3.699  0.9527 -2.9190  2.0173
  243MOL0     H32764   3.508   0.208   3.640 -2.5187 -0.5760  0.8016
  243MOL0     H32765   3.351   0.216   3.299 -0.1779 -2.1943 -1.8849
  243MOL0     H32766   3.256  -0.012   3.222  1.5438  1.7362 -0.3354
  243MOL0     H32767   3.249  -0.376   3.070 -2.5595  2.7801 -0.6335
  243MOL0     H32768   3.159  -0.607   3.016  2.3709  0.1631  0.9732
  243MOL0     H32769   2.853  -0.841   2.941  0.6372 -3.1708  0.5828
  243MOL0     H32770   2.990  -0.747   2.914  0.9684  0.6469  0.2537
  243MOL0     H32771   2.955  -0.974   3.117 -1.2530 -0.6654 -1.8589
  243MOL0     H32772   3.045  -0.981   2.963  0.8452  1.4173 -0.9014
  243MOL0     H32773   3.207  -0.801   3.059 -2.2463  1.3644 -1.7855
  243MOL0     H32774   3.142  -0.850   3.214 -1.6717 -1.8009  0.2545
  243MOL0     H32775   3.360  -0.976   3.132 -0.9796  2.0693  0.3567
  243MOL0     H32776   3.255  -1.063   3.016 -3.3402 -3.1802  0.9419
  243MOL0     H32777   3.262  -1.200   3.201 -0.7711  0.8111 -0.5844
  243MOL0     H32778   3.124  -1.108   3.266 -0.0666 -1.5616  1.2793
  243MOL0     H32779   3.420  -1.072   3.334  0.6249 -1.9813  2.0246
  243MOL0     H32780   3.290  -0.966   3.393  3.4044  0.8652  0.3360
  243MOL0     H32781   3.374  -1.250   3.439 -0.9677 -0.4838 -0.5461
  243MOL0     H32782   3.205  -1.233   3.437  1.3803 -0.7046 -2.2658
  243MOL0     H32783   3.392  -1.085   3.633  0.0289 -0.9269 -2.6864
  243MOL0     H32784   3.222  -1.044   3.602  0.8996  0.2204  0.0642
  243MOL0     H32785   2.812  -0.536   3.263  0.0359 -0.4406 -0.2467
  243MOL0     H32786   2.935  -0.309   3.332 -0.7421  2.2728 -2.0722
  243MOL0     H32787   3.194  -0.114   3.627  1.8649 -2.8572 -3.7608
  243MOL0     H32788   3.254   0.112   3.710 -0.6221  0.2167 -0.5523
  243MOL0     H32789   3.884   0.283   3.159  0.8095 -0.3814 -3.9468
  243MOL0     H32790   3.718   0.121   3.072 -2.1808 -0.4483  0.2403
  243MOL0     H32791   3.192   0.240   2.800 -2.2653 -0.5210  0.1851
  243MOL0     H32792   2.995   0.080   2.756  0.1188 -0.8217  0.0854
  243MOL0     H32793   2.945  -0.292   2.972 -0.8335  1.0776  0.2324
  243MOL0     H32794   3.026  -0.363   2.833  1.0884  2.6827 -0.6894
  243MOL0     H32795   2.808  -0.348   2.700 -0.9504  0.3596 -0.0320
  243MOL0     H32796   2.737  -0.282   2.855  1.7114 -0.1956  1.8593
  243MOL0     H32797   2.780  -0.503   2.957  1.3212 -0.7208  0.3877
  243MOL0     H32798   2.878  -0.546   2.814 -0.6322 -0.8245 -0.6815
  243MOL0     H32799   2.655  -0.654   2.822 -1.3844  0.3906 -0.2064
  243MOL0     H32800   2.578  -0.498   2.789 -0.4801  0.7548 -1.6706
  243MOL0     H32801   2.693  -0.624   2.407  1.0259  1.0095  0.4763
  243MOL0     H32802   3.207  -0.251   2.921  0.2836  0.3819 -0.9847
  243MOL0     H32803   3.519  -0.067   2.963  0.3201 -0.1028  0.0712
  243MOL0     H32804   3.440  -0.093   3.107  0.8675  0.2344 -0.6011
  243MOL0     H32805   3.447  -0.221   2.984  2.6482  0.5696  0.0420
  244MOL0     O32806   4.364  10.696   4.031  0.0770  0.5308 -0.0237
  244MOL0     C32807   4.294  10.695   4.130  0.3015  0.6746  0.3053
  244MOL0     O32808   4.344  10.660   4.257  0.7897 -0.1618 -0.0345
  244MOL0     C32809   4.474  10.625   4.275 -0.3733  0.7294  0.6318
  244MOL0     C32810   4.516  10.494   4.242 -0.0336 -0.2557 -0.3140
  244MOL0     C32811   4.648  10.460   4.282 -0.2723  0.2322  0.1641
  244MOL0     C32812   4.742  10.558   4.324 -0.4140 -0.9759  0.5442
  244MOL0     O32813   4.877  10.524   4.347  0.1882 -0.1661 -0.0356
  244MOL0     C32814   4.978  10.626   4.363  0.3197  0.3989  0.2055
  244MOL0     C32815   5.118  10.577   4.337 -0.3341  0.9683 -0.2479
  244MOL0     C32816   5.216  10.701   4.318 -0.3256 -0.6617 -0.4958
  244MOL0     C32817   5.345  10.650   4.255  0.3642  0.4085  0.0202
  244MOL0     C32818   5.465  10.747   4.281 -0.8263 -0.5289  0.3201
  244MOL0     C32819   5.604  10.707   4.244 -0.1491 -0.4012  0.5923
  244MOL0     C32820   5.645  10.594   4.338 -0.2689 -0.1589  0.0674
  244MOL0     C32821   5.770  10.516   4.298  0.4147 -0.4687  0.1319
  244MOL0     N32822   5.891  10.578   4.342  0.6733 -0.0926  0.2117
  244MOL0     C32823   5.962  10.666   4.267  0.7638 -0.5483  0.2240
  244MOL0     C32824   6.068  10.698   4.345 -0.6474 -0.3250 -0.2844
  244MOL0     C32825   6.183  10.786   4.321  0.6610  0.0538 -0.2920
  244MOL0     C32826   6.295  10.780   4.431 -0.6109 -0.4826 -0.4462
  244MOL0     C32827   6.399  10.889   4.427  0.6553 -0.9592 -0.1163
  244MOL0     C32828   6.476  10.896   4.299  0.7161  0.3608 -0.1246
  244MOL0     O32829   6.583  10.981   4.320 -0.5375  0.2599  0.2718
  244MOL0     C32830   6.696  10.936   4.364 -0.8249  0.1084  0.3797
  244MOL0     C32831   6.792  11.033   4.374 -0.0408  0.6928 -0.0616
  244MOL0     C32832   6.917  10.998   4.425  0.3024  0.5188  0.8923
  244MOL0     C32833   6.945  10.865   4.461 -0.9513  0.5551  0.3471
  244MOL0     C32834   7.090  10.831   4.509  0.3924 -0.3842 -0.1705
  244MOL0     O32835   7.180  10.925   4.501 -0.4113  1.2073  0.6388
  244MOL0     C32836   7.306  10.889   4.529 -0.2523 -0.3105  0.2510
  244MOL0     C32837   7.372  10.784   4.455  0.4040 -0.7328 -0.2091
  244MOL0     C32838   7.509  10.754   4.479  0.1525 -0.9180  0.0242
  244MOL0     C32839   7.584  10.837   4.567  0.5876 -0.2692 -0.6831
  244MOL0     O32840   7.718  10.807   4.573  0.0867 -0.0990 -0.0781
  244MOL0     C32841   7.802  10.904   4.644 -0.1350  0.2043  0.4008
  244MOL0     C32842   7.950  10.865   4.623  0.6147 -0.1958 -0.2733
  244MOL0     C32843   7.999  10.903   4.479  0.3314  0.1190 -0.7286
  244MOL0     C32844   8.007  10.780   4.399  0.4877  0.9524  0.2657
  244MOL0     C32845   8.088  10.805   4.264 -0.0741  1.2236  0.1976
  244MOL0     C32846   8.133  10.675   4.184 -0.6076  0.1551 -0.6221
  244MOL0     C32847   8.209  10.569   4.285 -0.6895  0.4728 -0.4495
  244MOL0     C32848   8.345  10.624   4.313 -0.2129 -0.2052 -0.3700
  244MOL0    Cl32849   8.408  10.556   4.469  0.1977  0.2157 -0.0777
  244MOL0     C32850   7.516  10.950   4.628  0.4924  0.7303 -0.3192
  244MOL0     C32851   7.377  10.971   4.617 -0.3703 -0.5136  0.0273
  244MOL0     O32852   7.105  10.717   4.553  0.9097  0.0554 -0.3983
  244MOL0     C32853   6.848  10.764   4.455  0.7197 -0.0552  0.4202
  244MOL0     C32854   6.720  10.799   4.403 -0.4048 -0.4100 -0.6698
  244MOL0     N32855   6.056  10.630   4.468 -0.3654  0.1748  0.7995
  244MOL0     N32856   5.953  10.554   4.461 -0.3129  0.1050 -0.6948
  244MOL0     C32857   4.699  10.693   4.339  0.2589  0.8911  0.3050
  244MOL0     C32858   4.561  10.718   4.331 -0.2881 -0.3231 -0.3263
  244MOL0     C32859   4.158  10.767   4.118 -0.5300  0.2978 -0.1317
  244MOL0     C32860   4.089  10.820   4.232 -0.0613  0.3379  0.4138
  244MOL0     C32861   3.968  10.886   4.219  0.3296  0.8544  0.4737
  244MOL0     C32862   3.916  10.928   4.095  0.1669 -0.0165 -1.0208
  244MOL0     O32863   3.816  11.023   4.094 -0.2884  0.2038  0.2288
  244MOL0     C32864   3.746  11.047   3.968 -0.5659  0.6260 -0.3159
  244MOL0     C32865   3.626  11.145   3.985  0.6901 -0.7922  0.4251
  244MOL0     C32866   3.556  11.188   3.856 -0.0894 -0.4105 -0.6435
  244MOL0     C32867   3.487  11.075   3.770  0.0419 -0.3159 -0.1573
  244MOL0     C32868   3.590  11.007   3.691 -0.4169 -0.6720 -0.2059
  244MOL0     C32869   3.670  10.946   3.629 -0.4626  0.8578 -0.0059
  244MOL0     C32870   3.969  10.862   3.983 -0.4973  0.3710  0.4299
  244MOL0     C32871   4.083  10.773   3.992 -0.9183 -0.2967  0.5585
  244MOL0     C32872   4.128  10.710   3.866  0.3360  0.2237 -0.0537
  244MOL0     H32873   4.443  10.426   4.199 -1.1379  1.0404 -0.5654
  244MOL0     H32874   4.666  10.354   4.274 -2.4697 -0.3543  1.9004
  244MOL0     H32875   4.955  10.694   4.281 -2.1999 -0.1173  0.3971
  244MOL0     H32876   4.987  10.676   4.460  0.7538  4.6037 -1.8115
  244MOL0     H32877   5.118  10.506   4.253  3.7553  0.3584  0.0619
  244MOL0     H32878   5.159  10.522   4.422  2.5153 -0.6568 -2.4894
  244MOL0     H32879   5.236  10.739   4.419 -0.2326  0.0117 -0.7634
  244MOL0     H32880   5.176  10.790   4.267 -2.2178  0.8313  3.1776
  244MOL0     H32881   5.360  10.547   4.285 -0.7621 -0.9313 -3.4263
  244MOL0     H32882   5.333  10.649   4.146  1.6363  2.1721 -0.1867
  244MOL0     H32883   5.449  10.836   4.219 -1.0334 -0.9935 -0.2938
  244MOL0     H32884   5.461  10.773   4.387  1.3116 -3.1239  1.1487
  244MOL0     H32885   5.606  10.672   4.141 -0.2885 -0.3387  0.5687
  244MOL0     H32886   5.672  10.793   4.242  0.0725 -0.5824 -1.0877
  244MOL0     H32887   5.566  10.519   4.334  1.9922 -2.6166 -0.8346
  244MOL0     H32888   5.665  10.632   4.439  0.9117 -0.1834 -0.1468
  244MOL0     H32889   5.762  10.417   4.344  1.8069  0.5456  2.7491
  244MOL0     H32890   5.770  10.501   4.190  2.4786 -1.2250  0.1983
  244MOL0     H32891   5.939  10.714   4.173 -0.9685  2.0482  1.8439
  244MOL0     H32892   6.231  10.756   4.228  2.8131  0.9286  0.4627
  244MOL0     H32893   6.144  10.888   4.315 -1.2052 -0.2918  3.2707
  244MOL0     H32894   6.241  10.798   4.524 -1.0504  3.6971 -1.2988
  244MOL0     H32895   6.341  10.681   4.437  1.2822  0.3382 -0.8257
  244MOL0     H32896   6.470  10.855   4.503  0.1723 -1.4325  0.1366
  244MOL0     H32897   6.360  10.988   4.449  2.0364 -0.5976  0.8670
  244MOL0     H32898   6.407  10.933   4.222  1.4771  1.3585 -0.3487
  244MOL0     H32899   6.501  10.799   4.254 -1.6222 -0.5561  0.3942
  244MOL0     H32900   6.765  11.119   4.313 -2.7847 -2.0024 -3.0615
  244MOL0     H32901   6.999  11.068   4.421  0.4890  0.5003  2.9475
  244MOL0     H32902   7.308  10.731   4.384 -0.6142  0.8557 -0.5296
  244MOL0     H32903   7.566  10.674   4.432  2.1649 -0.2121  1.1353
  244MOL0     H32904   7.778  11.007   4.620 -0.9722 -0.0649  0.0381
  244MOL0     H32905   7.779  10.897   4.751 -3.2688  0.6654 -0.1483
  244MOL0     H32906   7.998  10.924   4.701 -1.5075  0.5763  0.5259
  244MOL0     H32907   7.971  10.759   4.640 -1.4383 -0.4491  0.9934
  244MOL0     H32908   7.938  10.976   4.425  1.0617 -1.1477 -3.4351
  244MOL0     H32909   8.098  10.948   4.491 -0.8913  2.1847  3.3145
  244MOL0     H32910   7.906  10.744   4.380  0.9316 -0.1627 -0.0634
  244MOL0     H32911   8.053  10.701   4.460  2.0870 -0.9597 -3.1267
  244MOL0     H32912   8.179  10.864   4.277 -0.1340  1.7877 -1.6905
  244MOL0     H32913   8.023  10.872   4.207 -0.6234  0.7110  0.2038
  244MOL0     H32914   8.041  10.623   4.156 -0.4996 -1.9122  2.3416
  244MOL0     H32915   8.195  10.711   4.101  1.0511  0.1201  0.5354
  244MOL0     H32916   8.223  10.468   4.246  0.4990  0.0734  0.9333
  244MOL0     H32917   8.162  10.560   4.384 -1.3471 -2.7252 -0.9335
  244MOL0     H32918   8.416  10.587   4.239  0.7831 -2.6590  1.6459
  244MOL0     H32919   8.344  10.733   4.315  0.9640 -0.1532  2.3348
  244MOL0     H32920   7.571  11.022   4.686  1.0597  0.2776 -0.2873
  244MOL0     H32921   7.333  11.054   4.670  2.5626  0.6436  0.8852
  244MOL0     H32922   6.863  10.660   4.481 -0.9837 -0.5825 -0.5602
  244MOL0     H32923   6.644  10.723   4.390 -1.8812  1.2798 -2.6422
  244MOL0     H32924   4.764  10.766   4.387  2.7761 -1.6411  0.9951
  244MOL0     H32925   4.526  10.818   4.354 -0.3046 -0.8791  2.4260
  244MOL0     H32926   4.137  10.831   4.329 -2.0112  0.8755  1.3686
  244MOL0     H32927   3.917  10.918   4.309 -3.7157  0.9304 -1.6484
  244MOL0     H32928   3.715  10.948   3.935  0.4378 -0.2575  1.2780
  244MOL0     H32929   3.816  11.087   3.894 -0.8980 -0.0109 -0.9819
  244MOL0     H32930   3.658  11.234   4.041 -2.0341 -0.8040  2.1861
  244MOL0     H32931   3.553  11.104   4.055 -0.1018  0.4753  0.3591
  244MOL0     H32932   3.635  11.249   3.812 -0.2075  0.1587 -0.0882
  244MOL0     H32933   3.476  11.253   3.892  0.0083 -0.7033  0.1379
  244MOL0     H32934   3.443  10.996   3.831 -0.9314 -0.1669 -0.6574
  244MOL0     H32935   3.406  11.108   3.705 -0.2058 -0.6816 -0.0375
  244MOL0     H32936   3.746  10.900   3.568 -0.1353 -1.4386  1.9859
  244MOL0     H32937   3.915  10.875   3.890  0.4825  0.8081 -0.0972
  244MOL0     H32938   4.040  10.686   3.805  1.2948 -3.2483 -0.3269
  244MOL0     H32939   4.196  10.781   3.819 -2.6074  3.4096  0.1139
  244MOL0     H32940   4.165  10.608   3.881 -1.4822 -0.5074 -0.2148
  245MOL0     O32941   2.812   8.194   3.157  0.6571 -0.3619  0.2437
  245MOL0     C32942   2.778   8.262   3.057 -0.4620 -0.6025  0.8297
  245MOL0     O32943   2.869   8.312   2.967  0.6447 -0.6607  0.5450
  245MOL0     C32944   3.006   8.274   2.979  1.0167  0.3283 -0.1434
  245MOL0     C32945   3.057   8.151   2.918 -0.0007 -0.6438  0.1186
  245MOL0     C32946   3.195   8.132   2.925  0.0573 -0.3024  0.5892
  245MOL0     C32947   3.283   8.227   2.978 -0.3695 -0.3228  0.1986
  245MOL0     O32948   3.416   8.206   2.991  0.3286 -0.9790 -0.5375
  245MOL0     C32949   3.471   8.075   3.007 -0.1115  0.4666  0.0803
  245MOL0     C32950   3.622   8.091   3.033  0.3622 -0.3131 -0.0316
  245MOL0     C32951   3.639   8.161   3.175  0.2575 -0.8999  0.6811
  245MOL0     C32952   3.792   8.175   3.195 -0.7208 -0.1242 -0.4873
  245MOL0     C32953   3.823   8.199   3.340 -0.1516  0.6715  0.2523
  245MOL0     C32954   3.973   8.235   3.380 -0.3027  0.0688 -0.6309
  245MOL0     C32955   4.058   8.113   3.357 -0.6337 -1.0193 -0.5770
  245MOL0     C32956   4.209   8.157   3.347 -0.0929 -0.3705  0.2503
  245MOL0     N32957   4.266   8.209   3.469 -0.5680 -0.4714 -0.7805
  245MOL0     C32958   4.337   8.330   3.473  0.0963 -0.8874 -0.2397
  245MOL0     C32959   4.349   8.361   3.601 -0.8008  0.5378 -1.1239
  245MOL0     C32960   4.426   8.478   3.660  0.2004 -0.1519 -0.1275
  245MOL0     C32961   4.569   8.476   3.618 -0.6790  0.7882 -0.3838
  245MOL0     C32962   4.659   8.377   3.700  0.4199 -0.2631  0.3281
  245MOL0     C32963   4.659   8.386   3.855 -1.0317  0.3717 -0.1675
  245MOL0     O32964   4.707   8.523   3.890 -0.0951 -0.6519 -0.1136
  245MOL0     C32965   4.848   8.549   3.897  0.4708 -0.5398  0.4807
  245MOL0     C32966   4.944   8.447   3.895  0.1510  0.8121  0.4014
  245MOL0     C32967   5.076   8.474   3.884  0.6772  0.3485  0.7046
  245MOL0     C32968   5.128   8.603   3.883  0.4664  0.5861 -0.8756
  245MOL0     C32969   5.268   8.638   3.880 -0.0900  0.2947  0.1269
  245MOL0     O32970   5.307   8.766   3.917  0.3595  0.1084  0.4188
  245MOL0     C32971   5.440   8.787   3.905 -0.3954  0.1657  0.4634
  245MOL0     C32972   5.501   8.812   3.783  0.2294  0.2803  0.5330
  245MOL0     C32973   5.642   8.821   3.773  0.5967  0.5381  0.1025
  245MOL0     C32974   5.729   8.803   3.881 -0.3727 -0.4114  0.1877
  245MOL0     O32975   5.858   8.831   3.853 -0.0321  0.4619 -0.1292
  245MOL0     C32976   5.949   8.789   3.956 -0.3829 -0.0319 -0.1518
  245MOL0     C32977   6.094   8.823   3.924  0.2218 -0.4688  0.0591
  245MOL0     C32978   6.164   8.723   3.825  0.2624 -0.0033 -0.7800
  245MOL0     C32979   6.297   8.785   3.780  0.2148  0.2874  1.0403
  245MOL0     C32980   6.386   8.687   3.718 -0.1914 -0.5058 -0.6616
  245MOL0     C32981   6.318   8.602   3.618 -0.2739 -1.5449  0.2569
  245MOL0     C32982   6.408   8.513   3.536  0.3517  0.2480 -0.5610
  245MOL0     C32983   6.335   8.429   3.432  1.2804  0.0398 -0.5482
  245MOL0    Cl32984   6.294   8.525   3.281 -0.3759  0.3596  0.0966
  245MOL0     C32985   5.667   8.772   4.004  0.6636 -0.4352  0.0366
  245MOL0     C32986   5.526   8.758   4.016 -1.4407 -0.2540 -0.3504
  245MOL0     O32987   5.346   8.544   3.850  0.0662 -0.5902 -0.6782
  245MOL0     C32988   5.029   8.707   3.893  0.2695 -0.0938  0.3260
  245MOL0     C32989   4.893   8.683   3.904 -0.5596 -0.1064  1.1246
  245MOL0     N32990   4.288   8.261   3.677 -0.4387  0.2163  0.0253
  245MOL0     N32991   4.249   8.166   3.600  0.4566  0.3613  0.3923
  245MOL0     C32992   3.231   8.335   3.042 -0.5962 -0.3952  0.1766
  245MOL0     C32993   3.088   8.361   3.048  0.8169 -0.5084  0.6089
  245MOL0     C32994   2.638   8.292   3.028  0.3203  0.2471  0.0117
  245MOL0     C32995   2.586   8.423   2.993 -0.4714  0.2731 -0.3403
  245MOL0     C32996   2.459   8.460   2.958 -0.2611  0.9858 -0.1144
  245MOL0     C32997   2.359   8.365   2.955 -0.2727 -0.1208  0.2243
  245MOL0     O32998   2.233   8.400   2.907  0.3173  0.4317  0.3978
  245MOL0     C32999   2.127   8.393   3.007  0.6134 -0.6222 -0.6444
  245MOL0     C33000   1.987   8.440   2.950 -0.5311 -0.0286 -0.4679
  245MOL0     C33001   1.889   8.488   3.054  0.5437 -0.5727  0.1906
  245MOL0     C33002   1.781   8.586   2.998 -0.2594  0.0610 -1.4215
  245MOL0     C33003   1.692   8.519   2.903  0.0148 -0.8816  0.3639
  245MOL0     C33004   1.622   8.455   2.827  0.3519  0.4146 -0.1338
  245MOL0     C33005   2.391   8.234   2.990 -0.3119  0.1140 -0.2689
  245MOL0     C33006   2.528   8.196   3.032  0.5678 -0.4270  1.2905
  245MOL0     C33007   2.537   8.051   3.070  0.0398 -0.6541  0.5832
  245MOL0     H33008   3.002   8.079   2.859  1.4725 -3.2725  1.7536
  245MOL0     H33009   3.232   8.036   2.892  0.6391 -0.7019  2.3029
  245MOL0     H33010   3.424   8.028   3.094 -2.5466  2.2776 -0.1865
  245MOL0     H33011   3.448   8.016   2.917  2.1569  0.7233 -0.7414
  245MOL0     H33012   3.671   8.143   2.950  1.1378 -0.3906  0.3721
  245MOL0     H33013   3.661   7.989   3.029 -0.4725 -0.6072 -1.1254
  245MOL0     H33014   3.576   8.122   3.256  0.0316  2.3142  2.1983
  245MOL0     H33015   3.600   8.261   3.155 -0.9387 -1.6617 -0.9799
  245MOL0     H33016   3.843   8.086   3.158  0.4466  0.8368 -1.2886
  245MOL0     H33017   3.840   8.254   3.136  3.8041 -2.5207 -0.4848
  245MOL0     H33018   3.755   8.278   3.372  0.5158  0.6329  1.8654
  245MOL0     H33019   3.784   8.109   3.389 -0.8833  1.2565  0.7526
  245MOL0     H33020   3.996   8.327   3.325 -0.2444 -0.6593 -1.8579
  245MOL0     H33021   3.975   8.264   3.485  1.7458  0.0318 -0.6098
  245MOL0     H33022   4.032   8.067   3.261  1.5388 -0.5380 -1.4671
  245MOL0     H33023   4.041   8.036   3.433 -2.9890  0.6077  0.6656
  245MOL0     H33024   4.276   8.073   3.329 -0.2070 -0.2783 -0.6343
  245MOL0     H33025   4.220   8.229   3.266 -2.7437 -1.7603 -1.4804
  245MOL0     H33026   4.368   8.387   3.385  0.6642  1.6283  1.4788
  245MOL0     H33027   4.364   8.556   3.615 -0.4074 -1.2019 -1.1875
  245MOL0     H33028   4.408   8.481   3.768  2.6010 -0.6742  0.3466
  245MOL0     H33029   4.568   8.450   3.511 -3.1005 -3.3829  0.4177
  245MOL0     H33030   4.609   8.577   3.634 -0.8786  0.7966  0.0500
  245MOL0     H33031   4.761   8.384   3.662  0.4395 -1.4385  0.1470
  245MOL0     H33032   4.626   8.275   3.682  0.7550 -0.0784 -1.4895
  245MOL0     H33033   4.730   8.314   3.897  1.1559  2.1660 -0.5881
  245MOL0     H33034   4.558   8.380   3.897 -1.5827 -1.7644 -1.6373
  245MOL0     H33035   4.929   8.339   3.897  0.3646  0.7870  0.6497
  245MOL0     H33036   5.148   8.393   3.881  0.9210  0.5984 -0.4289
  245MOL0     H33037   5.437   8.809   3.696  1.4758  1.6450 -0.4687
  245MOL0     H33038   5.690   8.854   3.681 -0.3712  1.0229 -0.2506
  245MOL0     H33039   5.917   8.835   4.050 -1.1771 -0.6592 -0.1031
  245MOL0     H33040   5.937   8.682   3.975  0.8860 -0.6509 -2.5318
  245MOL0     H33041   6.107   8.923   3.881  1.6439 -1.5691 -2.3406
  245MOL0     H33042   6.151   8.828   4.017  0.0347 -1.5245  0.2315
  245MOL0     H33043   6.184   8.639   3.892  1.6833  1.8337  1.2143
  245MOL0     H33044   6.097   8.692   3.744 -2.5458  0.5048  1.2388
  245MOL0     H33045   6.344   8.830   3.868 -0.6567 -0.6928  2.0404
  245MOL0     H33046   6.276   8.872   3.717  0.2804 -0.1820  0.3649
  245MOL0     H33047   6.435   8.619   3.788 -0.9409 -1.6971 -1.2710
  245MOL0     H33048   6.464   8.747   3.669 -0.8849 -1.1046 -2.5838
  245MOL0     H33049   6.252   8.541   3.680 -0.6067  1.4372  3.0881
  245MOL0     H33050   6.255   8.662   3.551 -0.0997 -1.9209 -0.2576
  245MOL0     H33051   6.459   8.444   3.604  0.3523  0.5743 -0.2281
  245MOL0     H33052   6.486   8.575   3.492  2.4401 -0.5843  1.7208
  245MOL0     H33053   6.382   8.334   3.408 -1.6656 -2.6131  2.9528
  245MOL0     H33054   6.235   8.408   3.471  1.2775  0.7674 -0.1418
  245MOL0     H33055   5.724   8.759   4.096  1.7006  0.0596 -0.5178
  245MOL0     H33056   5.478   8.737   4.111 -0.0501 -1.1195  0.1710
  245MOL0     H33057   5.060   8.811   3.894 -1.7692  0.6109 -1.7868
  245MOL0     H33058   4.826   8.768   3.915  0.2276  0.6688  0.1111
  245MOL0     H33059   3.299   8.413   3.078 -0.0738 -1.2363  1.0852
  245MOL0     H33060   3.051   8.457   3.082  1.7378  0.1068 -0.0453
  245MOL0     H33061   2.655   8.505   2.973  0.1431 -0.0054  0.5676
  245MOL0     H33062   2.438   8.561   2.925 -0.4402  0.8387 -0.4553
  245MOL0     H33063   2.166   8.460   3.083 -1.3265 -0.3286  0.1357
  245MOL0     H33064   2.120   8.294   3.054 -2.4224 -0.0295  0.3310
  245MOL0     H33065   1.949   8.364   2.881 -0.2496 -1.8544  1.3181
  245MOL0     H33066   2.007   8.524   2.882  0.7092  0.4246  0.4163
  245MOL0     H33067   1.940   8.537   3.138  0.5810  0.7910 -0.6079
  245MOL0     H33068   1.839   8.399   3.093 -0.9663 -0.1658 -0.7168
  245MOL0     H33069   1.715   8.622   3.077  0.7745 -0.5062 -0.2693
  245MOL0     H33070   1.813   8.673   2.939 -0.1307 -0.8327 -2.7144
  245MOL0     H33071   1.562   8.387   2.771 -1.2373  0.8218  1.0031
  245MOL0     H33072   2.306   8.167   3.000 -1.3680  1.2884 -1.0904
  245MOL0     H33073   2.464   7.991   3.015  0.8643 -0.0098 -1.3078
  245MOL0     H33074   2.633   7.999   3.063  1.3101  1.6384 -0.1097
  245MOL0     H33075   2.509   8.053   3.176 -0.0104 -0.0019  0.5650
  246MOL0     O33076   3.861   4.434   0.688 -0.2438  0.2217 -0.6208
  246MOL0     C33077   3.818   4.403   0.577 -0.1349 -0.9994  0.3568
  246MOL0     O33078   3.895   4.378   0.470  0.4388 -0.4042  0.1776
  246MOL0     C33079   4.030   4.388   0.471 -0.8332  0.2227  0.2031
  246MOL0     C33080   4.113   4.314   0.563 -0.1043  0.0182  0.2422
  246MOL0     C33081   4.252   4.334   0.556  0.7149 -0.4430 -0.2841
  246MOL0     C33082   4.320   4.415   0.460  0.3824 -0.0216 -0.0750
  246MOL0     O33083   4.458   4.423   0.457  0.0973 -0.6744 -0.3344
  246MOL0     C33084   4.526   4.530   0.381  0.3456  0.5390  0.1234
  246MOL0     C33085   4.621   4.610   0.467 -0.2178 -0.1265  0.4926
  246MOL0     C33086   4.746   4.535   0.517 -0.4007 -0.1162 -0.5822
  246MOL0     C33087   4.859   4.625   0.564 -0.2665  0.0391  0.0122
  246MOL0     C33088   4.972   4.549   0.633 -1.0807 -0.3621 -0.1352
  246MOL0     C33089   5.117   4.606   0.614  0.0035 -0.4263  0.5805
  246MOL0     C33090   5.131   4.753   0.630  0.2372  0.0043 -1.0061
  246MOL0     C33091   5.145   4.806   0.776 -0.1670 -0.2574 -0.9163
  246MOL0     N33092   5.023   4.816   0.853  0.7236  0.5306  0.2986
  246MOL0     C33093   4.985   4.725   0.944  0.3878  0.3171 -0.2735
  246MOL0     C33094   4.871   4.777   1.001 -0.1392  1.0409  0.4427
  246MOL0     C33095   4.783   4.710   1.108 -0.5172  0.1042 -0.0632
  246MOL0     C33096   4.635   4.711   1.080 -0.2388  0.7020 -0.4247
  246MOL0     C33097   4.563   4.625   1.189  0.6755 -0.4385 -0.6707
  246MOL0     C33098   4.431   4.695   1.228 -0.0192  0.2777  0.3676
  246MOL0     O33099   4.358   4.617   1.332 -0.1002  0.4300  0.8750
  246MOL0     C33100   4.273   4.518   1.281 -0.1295  0.0789 -0.3143
  246MOL0     C33101   4.144   4.554   1.229  0.6762  0.8682 -0.0398
  246MOL0     C33102   4.048   4.453   1.193  0.2471  0.0282 -0.5033
  246MOL0     C33103   4.077   4.311   1.211  0.7775  0.4485 -0.2218
  246MOL0     C33104   3.991   4.205   1.169  0.0348 -0.1425  0.2075
  246MOL0     O33105   3.865   4.241   1.118  0.1066 -0.0963 -0.3276
  246MOL0     C33106   3.771   4.147   1.069  0.5278 -0.4634  0.0133
  246MOL0     C33107   3.701   4.180   0.954 -0.0380  0.3244  0.2500
  246MOL0     C33108   3.589   4.111   0.911 -0.6981  0.3253  0.4953
  246MOL0     C33109   3.560   3.989   0.973 -0.3070 -0.7692 -0.8145
  246MOL0     O33110   3.451   3.929   0.924 -0.2063 -0.0504  0.2532
  246MOL0     C33111   3.390   3.825   0.991  0.4027  0.0852  0.2627
  246MOL0     C33112   3.336   3.866   1.131 -0.4410  0.0988  0.6145
  246MOL0     C33113   3.178   3.873   1.131  0.1445 -0.1486  0.9013
  246MOL0     C33114   3.135   3.923   1.273  0.8676  0.5620  0.8045
  246MOL0     C33115   2.982   3.926   1.286 -0.1024  0.6756  0.0688
  246MOL0     C33116   2.909   3.786   1.279 -0.0541 -0.1426 -0.6710
  246MOL0     C33117   2.749   3.791   1.300 -0.3182 -0.0794  0.4727
  246MOL0     C33118   2.708   3.648   1.313 -0.0690 -0.2351 -0.0437
  246MOL0    Cl33119   2.642   3.609   1.155 -0.1211 -0.2400 -0.2758
  246MOL0     C33120   3.637   3.947   1.088  0.3604  0.1548  0.3243
  246MOL0     C33121   3.739   4.025   1.135  0.4171  0.1872 -0.3222
  246MOL0     O33122   4.028   4.092   1.175  0.4655  0.1264  0.7125
  246MOL0     C33123   4.209   4.283   1.254  0.4716 -0.2624 -0.1884
  246MOL0     C33124   4.308   4.381   1.292  1.1825  0.7013 -0.8921
  246MOL0     N33125   4.833   4.888   0.934 -0.0490  0.0725  0.2819
  246MOL0     N33126   4.924   4.912   0.849  0.1863  0.0993  0.0588
  246MOL0     C33127   4.237   4.468   0.357 -0.1933  0.5045  0.5815
  246MOL0     C33128   4.091   4.469   0.372 -0.1828 -0.5250  0.5206
  246MOL0     C33129   3.663   4.402   0.573 -0.1741 -0.5758 -0.3077
  246MOL0     C33130   3.606   4.339   0.466  0.5142  0.5983  0.3009
  246MOL0     C33131   3.474   4.346   0.445 -0.8684 -0.4642  0.7074
  246MOL0     C33132   3.386   4.409   0.526 -0.6290  0.2996  0.3180
  246MOL0     O33133   3.249   4.405   0.506  0.2906 -0.0544 -0.0064
  246MOL0     C33134   3.194   4.271   0.505 -0.0838 -0.8248 -0.3888
  246MOL0     C33135   3.204   4.210   0.646  0.1458  0.2329 -0.6986
  246MOL0     C33136   3.122   4.084   0.657  0.3785 -0.6992 -0.0524
  246MOL0     C33137   3.104   4.027   0.800 -0.3068  0.9005 -0.3895
  246MOL0     C33138   3.021   3.908   0.799 -0.1939 -0.0356  0.1850
  246MOL0     C33139   2.956   3.814   0.794 -0.2066 -0.8764 -0.3721
  246MOL0     C33140   3.438   4.473   0.635 -0.8783 -0.7025 -0.3275
  246MOL0     C33141   3.578   4.480   0.659 -1.1811  0.1695 -0.0699
  246MOL0     C33142   3.621   4.567   0.779  0.2254 -0.5363  0.8163
  246MOL0     H33143   4.063   4.253   0.637 -0.0550 -0.2012  0.0966
  246MOL0     H33144   4.321   4.276   0.617  2.2541  1.0624 -0.5116
  246MOL0     H33145   4.589   4.475   0.309 -0.7598 -0.8194  0.1447
  246MOL0     H33146   4.463   4.601   0.327 -0.3018  0.1396  0.3498
  246MOL0     H33147   4.560   4.631   0.556 -0.6248 -0.7191  0.3559
  246MOL0     H33148   4.638   4.697   0.402 -2.1885 -1.0397 -1.3623
  246MOL0     H33149   4.786   4.482   0.430  1.0567 -0.2086  0.1215
  246MOL0     H33150   4.719   4.462   0.594 -1.0268 -0.8613 -1.4804
  246MOL0     H33151   4.903   4.656   0.468  0.7531 -0.4690  0.2958
  246MOL0     H33152   4.815   4.716   0.606 -3.2828 -1.6206  0.7471
  246MOL0     H33153   4.947   4.529   0.738 -1.1040 -2.0885 -0.4333
  246MOL0     H33154   4.984   4.451   0.585  1.8941  0.9160 -2.3269
  246MOL0     H33155   5.174   4.549   0.688  1.0315  0.2490  0.3252
  246MOL0     H33156   5.147   4.579   0.512  1.6012  1.3146  0.5445
  246MOL0     H33157   5.056   4.816   0.580 -0.3022  0.3976  0.2585
  246MOL0     H33158   5.232   4.760   0.589  1.1802  0.3787  1.2680
  246MOL0     H33159   5.214   4.741   0.829 -1.0409 -0.6977 -0.2928
  246MOL0     H33160   5.185   4.907   0.761 -3.0211  0.9503 -1.1469
  246MOL0     H33161   5.038   4.633   0.965  0.5993  0.1656 -1.4420
  246MOL0     H33162   4.825   4.609   1.109 -0.1194  0.2614 -0.3904
  246MOL0     H33163   4.812   4.763   1.199  0.0342  0.1927 -0.2823
  246MOL0     H33164   4.605   4.816   1.073 -2.2435  0.1881  0.0080
  246MOL0     H33165   4.617   4.665   0.982 -0.0863  0.2261 -0.2289
  246MOL0     H33166   4.629   4.620   1.276 -1.0620  2.5337  0.9953
  246MOL0     H33167   4.549   4.524   1.150 -0.3504 -0.1350 -1.1299
  246MOL0     H33168   4.366   4.709   1.141 -1.0433  0.4926  1.1623
  246MOL0     H33169   4.450   4.796   1.266 -1.5843  0.1546  1.5580
  246MOL0     H33170   4.120   4.660   1.216 -0.3360  0.4187 -2.3927
  246MOL0     H33171   3.955   4.486   1.149 -0.2465  1.4007  1.4464
  246MOL0     H33172   3.726   4.269   0.896 -1.9240  1.0825  0.5266
  246MOL0     H33173   3.530   4.140   0.825  0.0216 -3.6330 -1.5400
  246MOL0     H33174   3.321   3.792   0.912  2.0565 -0.6576 -0.9465
  246MOL0     H33175   3.467   3.748   0.997  2.3543  1.8978 -0.3758
  246MOL0     H33176   3.369   3.782   1.193 -0.4100 -0.2124  0.1765
  246MOL0     H33177   3.382   3.950   1.185 -1.5338  0.6955  0.6308
  246MOL0     H33178   3.139   3.941   1.055 -0.1054 -1.5210 -0.2437
  246MOL0     H33179   3.138   3.774   1.107  1.3723 -0.3949 -0.2562
  246MOL0     H33180   3.179   4.022   1.287 -0.0749  0.9630  1.0660
  246MOL0     H33181   3.169   3.859   1.355 -2.4328 -0.6944  1.3496
  246MOL0     H33182   2.936   3.981   1.203 -1.1278  0.1697  0.2887
  246MOL0     H33183   2.966   3.972   1.384 -1.2621 -2.3072  1.3878
  246MOL0     H33184   2.933   3.752   1.178  0.4557 -1.3815 -0.1451
  246MOL0     H33185   2.955   3.723   1.355 -0.4918  0.8319  0.4403
  246MOL0     H33186   2.699   3.845   1.220 -0.5196 -0.2140  0.5060
  246MOL0     H33187   2.715   3.850   1.386 -0.8278 -0.7523  0.7500
  246MOL0     H33188   2.793   3.582   1.331  1.3580  0.6904 -2.8601
  246MOL0     H33189   2.634   3.620   1.388 -0.4274 -1.8439 -0.9594
  246MOL0     H33190   3.601   3.864   1.149 -2.0695  1.7796  1.2428
  246MOL0     H33191   3.796   3.997   1.223  0.0775 -1.4748 -0.5917
  246MOL0     H33192   4.225   4.178   1.277  1.9127  0.3157  1.7130
  246MOL0     H33193   4.405   4.346   1.326  1.9757 -0.1555 -3.7377
  246MOL0     H33194   4.278   4.507   0.265  0.9631 -2.8639 -0.4985
  246MOL0     H33195   4.030   4.523   0.300  3.1039  0.7282 -1.5679
  246MOL0     H33196   3.667   4.270   0.409 -1.5597 -0.2527 -1.0181
  246MOL0     H33197   3.439   4.284   0.363 -1.1046  0.0544  0.4152
  246MOL0     H33198   3.260   4.210   0.443  2.3615  0.0539  1.1927
  246MOL0     H33199   3.090   4.271   0.472  0.0316  0.6601 -0.8119
  246MOL0     H33200   3.166   4.288   0.714 -1.1499 -0.3410 -0.7373
  246MOL0     H33201   3.309   4.187   0.668 -0.0384 -1.2847 -1.2679
  246MOL0     H33202   3.158   4.007   0.587  1.1622  0.5702 -1.1042
  246MOL0     H33203   3.020   4.101   0.622 -1.0317 -2.8427  2.6315
  246MOL0     H33204   3.206   4.014   0.839 -1.1628  1.7958  2.3373
  246MOL0     H33205   3.061   4.100   0.868  0.5543  1.3197 -0.2842
  246MOL0     H33206   2.893   3.727   0.794  0.6030 -1.4705 -0.8045
  246MOL0     H33207   3.363   4.510   0.705  1.5241 -0.3382  2.2148
  246MOL0     H33208   3.676   4.514   0.858  4.2455  0.3278 -1.1380
  246MOL0     H33209   3.686   4.648   0.744  0.9581 -1.3739  0.1871
  246MOL0     H33210   3.530   4.608   0.823 -1.5196 -2.7291 -0.4885
  247MOL0     O33211   2.343   0.441   3.645  0.4377  0.2423  0.0436
  247MOL0     C33212   2.282   0.417   3.537 -0.6379  0.1315 -0.9979
  247MOL0     O33213   2.344   0.425   3.413 -0.7402 -0.7945  0.7472
  247MOL0     C33214   2.443   0.520   3.392  0.9237 -0.0315 -0.4956
  247MOL0     C33215   2.415   0.655   3.418 -0.0995  0.8751  0.2824
  247MOL0     C33216   2.507   0.744   3.362  0.0578  0.0309  0.3730
  247MOL0     C33217   2.615   0.708   3.293 -0.2020  0.4068  0.1963
  247MOL0     O33218   2.693   0.812   3.249 -0.0126  0.0651 -0.5164
  247MOL0     C33219   2.742   0.808   3.107  0.1583 -0.1218 -0.6699
  247MOL0     C33220   2.803   0.940   3.068  0.5160 -0.3837 -0.1223
  247MOL0     C33221   2.930   0.967   3.157 -0.4409 -0.3647  0.2173
  247MOL0     C33222   2.910   1.087   3.255 -0.8407  0.0531  0.0696
  247MOL0     C33223   3.043   1.131   3.318  0.1358 -0.3680 -0.1202
  247MOL0     C33224   3.163   1.162   3.227  0.7159  0.0859  0.6126
  247MOL0     C33225   3.290   1.188   3.308  0.3926 -0.8791  0.3240
  247MOL0     C33226   3.414   1.182   3.218 -0.5022 -0.1245 -0.1514
  247MOL0     N33227   3.537   1.192   3.296 -0.6751 -0.2303 -0.3402
  247MOL0     C33228   3.658   1.125   3.269 -0.1850 -0.5495  0.1026
  247MOL0     C33229   3.752   1.196   3.335 -0.3488 -0.2603 -0.2255
  247MOL0     C33230   3.904   1.168   3.318  0.1684  0.5260 -0.1141
  247MOL0     C33231   3.974   1.271   3.395 -0.8219 -0.1619 -0.4976
  247MOL0     C33232   4.118   1.268   3.348 -0.6580  0.9781 -0.0321
  247MOL0     C33233   4.196   1.140   3.372 -0.9744  0.2905 -0.2973
  247MOL0     O33234   4.334   1.176   3.401  0.2311  0.4536  0.2572
  247MOL0     C33235   4.437   1.082   3.398  0.2495 -0.9695 -0.3040
  247MOL0     C33236   4.562   1.131   3.382 -0.1707 -0.3031 -0.2382
  247MOL0     C33237   4.675   1.051   3.407  0.3902 -0.3803  0.5783
  247MOL0     C33238   4.653   0.918   3.461 -0.3171  0.4723 -0.3726
  247MOL0     C33239   4.763   0.842   3.516  0.4991 -0.3110 -0.5090
  247MOL0     O33240   4.893   0.898   3.521  0.4350  0.2502  0.6493
  247MOL0     C33241   5.000   0.838   3.571  0.3157 -0.0156 -0.9841
  247MOL0     C33242   5.110   0.918   3.562  0.3498 -0.3093  0.2041
  247MOL0     C33243   5.232   0.868   3.611  0.9728 -1.0669  0.1662
  247MOL0     C33244   5.248   0.733   3.646  0.2044 -0.6210 -0.4516
  247MOL0     O33245   5.376   0.696   3.669  0.0139  0.4722 -0.2702
  247MOL0     C33246   5.399   0.561   3.730 -0.3002 -0.0064  0.5731
  247MOL0     C33247   5.549   0.529   3.770  0.7397 -1.6912 -0.4357
  247MOL0     C33248   5.584   0.595   3.900 -0.3099 -0.0478  0.4863
  247MOL0     C33249   5.714   0.540   3.958  0.8024 -0.3473  0.7965
  247MOL0     C33250   5.773   0.628   4.068  0.6944  0.3526 -0.1979
  247MOL0     C33251   5.923   0.603   4.104  1.0066  0.2885 -0.5849
  247MOL0     C33252   6.024   0.644   3.993  0.7386 -0.6093  0.2665
  247MOL0     C33253   6.155   0.655   4.062  0.4063  0.2467  0.4990
  247MOL0    Cl33254   6.255   0.724   3.934 -0.2927 -0.1173 -0.0549
  247MOL0     C33255   5.129   0.657   3.653  0.5628 -0.0707 -0.9021
  247MOL0     C33256   5.007   0.707   3.623 -0.2254 -0.2685  0.5261
  247MOL0     O33257   4.730   0.724   3.541 -0.0715  0.7600  0.0537
  247MOL0     C33258   4.521   0.865   3.464  0.0259 -0.4537  0.0757
  247MOL0     C33259   4.411   0.948   3.430 -0.6230  0.3419 -0.7597
  247MOL0     N33260   3.692   1.291   3.412  0.6636 -0.0268 -0.0056
  247MOL0     N33261   3.565   1.293   3.386  0.4753 -0.9381  0.2525
  247MOL0     C33262   2.646   0.580   3.275 -0.2624  0.0701 -0.8820
  247MOL0     C33263   2.557   0.480   3.323 -0.4391 -0.6834  0.6424
  247MOL0     C33264   2.144   0.364   3.536 -0.4550  0.0324 -0.9578
  247MOL0     C33265   2.065   0.378   3.420 -0.1329 -0.2297 -0.2158
  247MOL0     C33266   1.935   0.309   3.417 -0.5436 -0.6385  0.9677
  247MOL0     C33267   1.880   0.262   3.530  0.8382  0.2032 -0.0346
  247MOL0     O33268   1.755   0.205   3.527 -0.2368  0.0237 -0.4250
  247MOL0     C33269   1.661   0.271   3.615  0.3768  0.4201 -0.7465
  247MOL0     C33270   1.620   0.413   3.568  0.1373  0.9173 -0.0441
  247MOL0     C33271   1.524   0.494   3.659  0.3544  0.4051  0.5118
  247MOL0     C33272   1.393   0.437   3.646 -0.1881  0.2797 -0.3264
  247MOL0     C33273   1.293   0.501   3.733  0.1403  0.4800  0.4942
  247MOL0     C33274   1.203   0.557   3.795  0.3286 -0.3770 -0.3342
  247MOL0     C33275   1.957   0.253   3.647 -0.2050 -0.3830 -0.6550
  247MOL0     C33276   2.083   0.304   3.657 -0.3288  0.0061  0.0504
  247MOL0     C33277   2.155   0.268   3.783  0.0602 -0.2917 -0.9969
  247MOL0     H33278   2.320   0.682   3.464 -0.5289  1.0794 -0.6991
  247MOL0     H33279   2.488   0.851   3.369 -1.0082  0.0814 -2.1232
  247MOL0     H33280   2.820   0.732   3.097  1.8699  1.4245  0.2249
  247MOL0     H33281   2.664   0.779   3.036 -1.9170  2.6881  0.2700
  247MOL0     H33282   2.738   1.028   3.077 -0.3447 -0.8717 -1.3735
  247MOL0     H33283   2.830   0.936   2.962 -0.4618  1.4224 -0.4839
  247MOL0     H33284   2.994   0.989   3.071 -0.4696  0.3362  0.3725
  247MOL0     H33285   2.959   0.871   3.200  1.0546 -1.3190 -2.6338
  247MOL0     H33286   2.879   1.167   3.187  1.4792 -0.0049 -1.1530
  247MOL0     H33287   2.837   1.070   3.334 -0.7002 -1.3358 -0.0790
  247MOL0     H33288   3.033   1.221   3.379 -0.5383  0.1451 -0.9576
  247MOL0     H33289   3.068   1.052   3.389 -1.9537  0.5130  1.7100
  247MOL0     H33290   3.189   1.072   3.170  1.5924  0.2269  0.7752
  247MOL0     H33291   3.146   1.248   3.162 -0.6747 -0.5471  0.0907
  247MOL0     H33292   3.295   1.112   3.387 -0.1048 -2.0508 -0.7517
  247MOL0     H33293   3.294   1.290   3.346 -0.4443  0.1427 -2.1395
  247MOL0     H33294   3.410   1.087   3.163 -1.2748 -2.9545  4.2439
  247MOL0     H33295   3.412   1.264   3.146  2.2718 -0.7279 -1.0424
  247MOL0     H33296   3.684   1.042   3.205  0.1330 -0.0036 -0.4950
  247MOL0     H33297   3.918   1.071   3.368 -3.3165 -1.1754 -2.0296
  247MOL0     H33298   3.937   1.150   3.215  0.7996 -0.6587  0.2690
  247MOL0     H33299   3.930   1.370   3.380 -1.2862 -0.0422  1.4416
  247MOL0     H33300   3.965   1.251   3.502 -4.0398  0.2007 -0.6300
  247MOL0     H33301   4.175   1.345   3.401  2.5869 -1.6578  0.6856
  247MOL0     H33302   4.113   1.297   3.243 -1.1216 -3.6138 -1.5081
  247MOL0     H33303   4.204   1.083   3.278 -1.0112 -3.2810  1.6747
  247MOL0     H33304   4.155   1.073   3.448 -1.4788  0.6076 -0.2830
  247MOL0     H33305   4.555   1.238   3.362 -1.3984  0.2454  2.6051
  247MOL0     H33306   4.770   1.103   3.408  0.6239 -0.7637 -0.5034
  247MOL0     H33307   5.102   1.022   3.532 -2.3653 -0.2321  0.8503
  247MOL0     H33308   5.311   0.942   3.608 -0.4231  0.4551 -3.0537
  247MOL0     H33309   5.344   0.544   3.823  1.4170  1.4798  1.9183
  247MOL0     H33310   5.355   0.486   3.663 -2.0849  0.2446  1.3849
  247MOL0     H33311   5.557   0.420   3.774  2.1378 -1.5784  1.3040
  247MOL0     H33312   5.614   0.575   3.695  0.3954  2.9159  1.7164
  247MOL0     H33313   5.600   0.703   3.891  1.6968 -0.4009 -0.9699
  247MOL0     H33314   5.510   0.569   3.976 -1.7037 -2.1744 -1.4709
  247MOL0     H33315   5.783   0.531   3.874  0.3652  3.0899 -0.0716
  247MOL0     H33316   5.684   0.443   3.999 -2.4961  0.1560 -0.1324
  247MOL0     H33317   5.708   0.611   4.155  0.5859  0.9766 -0.1498
  247MOL0     H33318   5.766   0.735   4.047 -3.1356  0.2224 -0.4169
  247MOL0     H33319   5.947   0.655   4.198 -2.4705 -0.5723  0.9542
  247MOL0     H33320   5.942   0.498   4.128 -1.9844  0.2016  2.1867
  247MOL0     H33321   5.992   0.744   3.962 -0.2300 -1.0134 -0.1102
  247MOL0     H33322   6.032   0.571   3.911  2.5836  2.5485 -2.6562
  247MOL0     H33323   6.148   0.728   4.143 -1.2799  0.4830  0.1667
  247MOL0     H33324   6.192   0.556   4.089 -0.0753  0.1765  0.9148
  247MOL0     H33325   5.139   0.554   3.685 -3.0939  0.4524  2.7616
  247MOL0     H33326   4.918   0.656   3.658 -1.5875  2.7259  1.7859
  247MOL0     H33327   4.498   0.777   3.525  0.3876 -0.2866  0.4595
  247MOL0     H33328   4.310   0.914   3.451 -0.1110 -2.2403 -2.1121
  247MOL0     H33329   2.738   0.543   3.230 -0.7995 -0.9559 -1.1690
  247MOL0     H33330   2.565   0.375   3.294 -2.2768 -0.5074 -0.6623
  247MOL0     H33331   2.115   0.432   3.340 -0.9376  0.2191 -0.4281
  247MOL0     H33332   1.875   0.297   3.327  0.1098 -2.0201  0.6914
  247MOL0     H33333   1.706   0.273   3.715  0.6897 -0.6997 -0.8525
  247MOL0     H33334   1.579   0.198   3.616  1.4597 -0.8359  0.3385
  247MOL0     H33335   1.571   0.401   3.472 -1.3514  0.5609  0.7382
  247MOL0     H33336   1.716   0.465   3.556  1.2141 -0.9745 -0.0142
  247MOL0     H33337   1.522   0.597   3.622 -0.1198  0.5373  0.8925
  247MOL0     H33338   1.560   0.507   3.761 -1.2623  0.6382  1.0879
  247MOL0     H33339   1.361   0.456   3.543  3.3537  2.0239 -1.2796
  247MOL0     H33340   1.386   0.329   3.665 -1.9587  0.6834  1.6386
  247MOL0     H33341   1.134   0.613   3.854  1.6417  2.5602 -1.3830
  247MOL0     H33342   1.919   0.219   3.743  0.9629  3.1699  1.2195
  247MOL0     H33343   2.094   0.220   3.860 -0.3539  2.4522  0.4870
  247MOL0     H33344   2.249   0.211   3.783  0.2718 -0.1495  2.3586
  247MOL0     H33345   2.184   0.359   3.835 -3.3598 -0.2908  1.1882
  248MOL0     O33346   2.055   9.091  10.509  0.2688  0.0363 -0.2395
  248MOL0     C33347   1.973   9.032  10.581 -0.1216  0.1004 -0.0774
  248MOL0     O33348   1.993   8.972  10.701  0.6247 -0.3405 -0.4830
  248MOL0     C33349   2.112   8.993  10.763 -0.6578 -0.0279 -0.1762
  248MOL0     C33350   2.125   9.096  10.854  0.3493 -0.2249 -0.3966
  248MOL0     C33351   2.248   9.127  10.912  1.2256 -0.3486  0.0610
  248MOL0     C33352   2.364   9.057  10.880  0.0120  0.5104  0.0343
  248MOL0     O33353   2.476   9.103  10.944  0.3466 -0.2805 -0.6311
  248MOL0     C33354   2.603   9.041  10.914 -0.1662  0.0278 -0.3124
  248MOL0     C33355   2.721   9.113  10.982  0.4050 -0.2161  0.1381
  248MOL0     C33356   2.841   9.027  10.965  0.6987 -0.2401 -0.2443
  248MOL0     C33357   2.959   9.065  11.057 -0.1458 -0.1343  0.6132
  248MOL0     C33358   3.068   8.962  11.024  0.6136 -0.4814  0.0492
  248MOL0     C33359   3.187   8.963  11.128 -0.4126 -0.3983 -0.3327
  248MOL0     C33360   3.306   8.871  11.090  0.2587 -0.0797 -0.0606
  248MOL0     C33361   3.421   8.882  11.189  0.3478 -0.5363  0.3195
  248MOL0     N33362   3.500   9.005  11.180 -0.4969  0.8003 -0.1488
  248MOL0     C33363   3.565   9.062  11.079  0.2202 -0.0731 -0.7727
  248MOL0     C33364   3.639   9.164  11.136  0.2402  0.3309 -0.4447
  248MOL0     C33365   3.743   9.247  11.074  0.0309  0.6518 -0.3212
  248MOL0     C33366   3.881   9.234  11.144 -0.0377  0.0903 -0.2569
  248MOL0     C33367   3.986   9.289  11.053 -0.1114 -0.2588  0.6737
  248MOL0     C33368   4.121   9.290  11.125  0.4190  0.6597  0.0846
  248MOL0     O33369   4.143   9.412  11.194 -0.4550 -0.4886  0.6415
  248MOL0     C33370   4.272   9.448  11.194 -0.4132  0.8744 -0.2568
  248MOL0     C33371   4.332   9.474  11.314 -0.0992  0.1657  0.0759
  248MOL0     C33372   4.453   9.543  11.313  0.3815  0.3945 -0.4695
  248MOL0     C33373   4.516   9.582  11.191  0.1716 -0.3373 -0.1628
  248MOL0     C33374   4.635   9.657  11.200 -1.1096  0.1628  0.5131
  248MOL0     O33375   4.705   9.653  11.317 -0.4045  0.5194 -0.2075
  248MOL0     C33376   4.828   9.714  11.318 -0.1411 -0.5136  0.5696
  248MOL0     C33377   4.943   9.638  11.295 -0.2915  1.1145  0.2188
  248MOL0     C33378   5.067   9.688  11.298 -0.2953  0.0604 -0.1823
  248MOL0     C33379   5.083   9.825  11.319 -0.1999  0.0871  1.8779
  248MOL0     O33380   5.213   9.868  11.329  0.5506 -0.4658  0.2167
  248MOL0     C33381   5.245   9.967  11.436 -0.4438 -0.4606 -0.0908
  248MOL0     C33382   5.390   9.947  11.495  0.0020 -0.4956  0.2034
  248MOL0     C33383   5.418  10.050  11.608 -0.3368 -0.8065  0.5620
  248MOL0     C33384   5.538  10.144  11.585  0.1636  0.4190  0.4542
  248MOL0     C33385   5.573  10.227  11.719 -0.3330  0.0354  0.2321
  248MOL0     C33386   5.712  10.290  11.687  0.4118  0.7150 -0.0786
  248MOL0     C33387   5.756  10.373  11.807 -0.2481  0.2498 -0.0661
  248MOL0     C33388   5.881  10.472  11.769 -0.1554 -0.2555  0.3022
  248MOL0    Cl33389   6.010  10.374  11.712  0.0304  0.2351 -0.0462
  248MOL0     C33390   4.974   9.906  11.344 -0.1859 -0.5639 -0.3512
  248MOL0     C33391   4.842   9.850  11.342  0.4382  0.0002 -0.2090
  248MOL0     O33392   4.669   9.720  11.099 -0.1680  0.0167 -0.6982
  248MOL0     C33393   4.457   9.554  11.068  0.2106  0.3986 -0.2304
  248MOL0     C33394   4.334   9.493  11.072  0.9090  0.7779  0.3751
  248MOL0     N33395   3.620   9.172  11.273  0.4953 -0.0667 -0.2659
  248MOL0     N33396   3.523   9.082  11.290  0.2137 -0.2501 -0.2377
  248MOL0     C33397   2.357   8.952  10.785 -0.1609 -0.0268  0.2414
  248MOL0     C33398   2.233   8.924  10.732  1.0671  0.3048  0.8328
  248MOL0     C33399   1.836   9.037  10.523  0.2732  0.0390  1.0277
  248MOL0     C33400   1.815   9.036  10.381  0.0004  0.8029 -0.2031
  248MOL0     C33401   1.696   9.000  10.322 -0.1105 -0.0243  0.9694
  248MOL0     C33402   1.587   8.973  10.408 -0.0467 -0.0141  0.7214
  248MOL0     O33403   1.458   8.945  10.375  0.5549 -0.4418 -0.5868
  248MOL0     C33404   1.426   8.942  10.237  0.4667 -0.2773  0.2796
  248MOL0     C33405   1.278   8.912  10.217 -0.2034  0.9662 -0.0502
  248MOL0     C33406   1.241   8.882  10.064  0.5060  0.0395  0.2222
  248MOL0     C33407   1.093   8.905  10.028 -0.0881  0.3120  0.1861
  248MOL0     C33408   1.013   8.785  10.068  0.5547 -1.0925  0.2215
  248MOL0     C33409   0.929   8.697  10.080  0.1154  0.2036  0.2240
  248MOL0     C33410   1.600   8.982  10.546  0.3920  0.2638  0.2849
  248MOL0     C33411   1.721   9.013  10.606 -0.0331 -0.8970 -0.4088
  248MOL0     C33412   1.723   9.025  10.761  0.0199  0.2598  0.1101
  248MOL0     H33413   2.036   9.149  10.883 -0.6017 -1.1966 -1.4302
  248MOL0     H33414   2.246   9.215  10.975  0.3240  0.7211 -1.3959
  248MOL0     H33415   2.598   8.940  10.956  3.1075 -0.3852 -0.6298
  248MOL0     H33416   2.627   9.041  10.807 -1.9131 -1.2967 -0.7510
  248MOL0     H33417   2.694   9.124  11.087  0.9818 -0.8799  0.3644
  248MOL0     H33418   2.748   9.212  10.944  1.2784 -1.0241 -1.4617
  248MOL0     H33419   2.852   9.021  10.856 -6.3658  0.6317 -1.4656
  248MOL0     H33420   2.810   8.926  10.992 -2.1885 -0.1355 -2.6923
  248MOL0     H33421   2.992   9.164  11.024 -1.2436 -0.4103 -1.5118
  248MOL0     H33422   2.920   9.064  11.159  1.0931  0.3954  1.1140
  248MOL0     H33423   3.026   8.862  11.010 -2.8687  0.8582  0.0811
  248MOL0     H33424   3.105   8.989  10.924 -0.9829 -2.1249 -1.0647
  248MOL0     H33425   3.226   9.062  11.153 -2.0203  0.3188 -0.5626
  248MOL0     H33426   3.151   8.928  11.226  1.6761  0.0523  0.6565
  248MOL0     H33427   3.343   8.881  10.988  3.7008 -2.9791  0.7070
  248MOL0     H33428   3.254   8.775  11.098 -3.1037  1.6644  0.7139
  248MOL0     H33429   3.373   8.884  11.287 -1.9103 -1.6739 -0.6924
  248MOL0     H33430   3.479   8.789  11.184  0.6922 -0.2888 -0.3717
  248MOL0     H33431   3.560   9.025  10.977  1.6010 -2.0239 -0.1916
  248MOL0     H33432   3.750   9.202  10.975  1.2396 -1.6009  0.7167
  248MOL0     H33433   3.714   9.353  11.074  1.0436  1.0034  1.9388
  248MOL0     H33434   3.876   9.288  11.239 -2.7806 -0.2798 -0.0975
  248MOL0     H33435   3.900   9.128  11.166 -2.0913 -0.3219 -0.2518
  248MOL0     H33436   3.968   9.389  11.013  1.4709 -0.5413 -0.8798
  248MOL0     H33437   3.987   9.210  10.977 -3.1083 -1.3375  1.6175
  248MOL0     H33438   4.199   9.260  11.055  0.5976 -0.0610  0.5854
  248MOL0     H33439   4.114   9.209  11.197 -1.5488  1.0366  0.3770
  248MOL0     H33440   4.289   9.458  11.412  0.3638  0.7276  0.3809
  248MOL0     H33441   4.490   9.562  11.414  1.3753  0.2309 -0.7965
  248MOL0     H33442   4.936   9.534  11.264  3.8415  1.1177 -1.3048
  248MOL0     H33443   5.152   9.625  11.273 -0.2667 -0.1728  0.4752
  248MOL0     H33444   5.235  10.070  11.400  1.2037 -0.8487 -1.8305
  248MOL0     H33445   5.174   9.955  11.518 -1.4691  1.7752 -0.5559
  248MOL0     H33446   5.403   9.855  11.552 -0.1368  1.7893  4.3002
  248MOL0     H33447   5.461   9.941  11.411 -1.2402 -3.2394 -0.7558
  248MOL0     H33448   5.323  10.101  11.627  0.7210  0.6132  2.4431
  248MOL0     H33449   5.440   9.992  11.699  1.9227  0.9677  1.2504
  248MOL0     H33450   5.492  10.210  11.512 -1.2877  0.1484  1.0859
  248MOL0     H33451   5.623  10.087  11.545  0.2376  1.3652 -0.7810
  248MOL0     H33452   5.582  10.157  11.802 -2.9525 -0.0604  0.5279
  248MOL0     H33453   5.495  10.296  11.753  1.1854  2.7212 -1.3453
  248MOL0     H33454   5.793  10.220  11.664  1.2177  0.9006  2.0304
  248MOL0     H33455   5.703  10.351  11.596 -0.8160  0.2140 -0.3180
  248MOL0     H33456   5.791  10.309  11.889 -0.1623  2.3850  1.6538
  248MOL0     H33457   5.675  10.425  11.860 -1.4268 -1.2718 -0.3113
  248MOL0     H33458   5.847  10.540  11.690 -0.2909 -1.3922 -0.6403
  248MOL0     H33459   5.925  10.532  11.849 -0.1217  0.0940  0.0245
  248MOL0     H33460   4.985  10.011  11.366  2.2843 -1.2788  2.7430
  248MOL0     H33461   4.757   9.916  11.354  2.4840  2.7524  0.2025
  248MOL0     H33462   4.496   9.599  10.978 -1.5092  3.0111  0.2136
  248MOL0     H33463   4.284   9.470  10.978 -1.8296 -0.9369  2.0910
  248MOL0     H33464   2.444   8.892  10.759  1.0951  1.4949  0.7495
  248MOL0     H33465   2.226   8.845  10.658  1.7166  0.0961  0.9918
  248MOL0     H33466   1.898   9.056  10.314  1.1837 -2.4455  0.1323
  248MOL0     H33467   1.707   9.009  10.214  2.0938  1.7400  1.2532
  248MOL0     H33468   1.495   8.880  10.179  1.4814 -0.4580  1.6378
  248MOL0     H33469   1.442   9.043  10.198  0.0384 -0.5527 -0.6428
  248MOL0     H33470   1.221   8.999  10.252 -1.2915  1.8778 -3.6612
  248MOL0     H33471   1.239   8.830  10.279  0.4767  1.3453  0.9107
  248MOL0     H33472   1.257   8.779  10.032  0.4622  0.2016 -0.3304
  248MOL0     H33473   1.297   8.950   9.998 -0.9304  2.3448  1.2413
  248MOL0     H33474   1.047   8.998  10.064 -3.0989 -0.2107 -1.8855
  248MOL0     H33475   1.089   8.917   9.919 -0.6204  1.9641  0.3633
  248MOL0     H33476   0.841   8.638  10.064  2.0389 -1.9832 -3.4559
  248MOL0     H33477   1.510   8.967  10.605 -0.4158 -1.3012 -1.2442
  248MOL0     H33478   1.776   9.113  10.800 -0.5733  1.0922 -0.9117
  248MOL0     H33479   1.621   9.029  10.802  0.7239 -1.7011  2.2792
  248MOL0     H33480   1.771   8.934  10.797 -1.4134 -0.2317  0.8911
  249MOL0     O33481   1.584  10.654   0.368  0.0885  0.6827 -0.1802
  249MOL0     C33482   1.531  10.618   0.472  0.8875  1.0867  0.6994
  249MOL0     O33483   1.582  10.614   0.603  0.6858  0.5221 -0.2507
  249MOL0     C33484   1.717  10.621   0.619 -0.4134  0.4872 -0.1874
  249MOL0     C33485   1.783  10.521   0.690 -0.1448 -0.4701  0.4225
  249MOL0     C33486   1.925  10.534   0.708  0.2102 -0.0506  0.7108
  249MOL0     C33487   1.993  10.648   0.666  0.1967  0.5674  0.9558
  249MOL0     O33488   2.126  10.663   0.693  0.9547  0.0465 -0.3889
  249MOL0     C33489   2.183  10.604   0.813 -0.0054  0.6303 -0.3289
  249MOL0     C33490   2.330  10.642   0.815 -0.3414  1.2324  0.4404
  249MOL0     C33491   2.384  10.624   0.952 -0.6607 -0.3994 -0.2581
  249MOL0     C33492   2.525  10.680   0.969  0.2624 -0.0082 -0.1868
  249MOL0     C33493   2.559  10.666   1.116 -0.0500 -0.4072 -0.5383
  249MOL0     C33494   2.673  10.756   1.152  0.1001 -0.1267 -0.1749
  249MOL0     C33495   2.796  10.738   1.060 -0.4935 -0.2902 -0.0093
  249MOL0     C33496   2.890  10.615   1.084 -0.4751 -0.3406 -0.6283
  249MOL0     N33497   2.952  10.614   1.218  0.1650  0.1995 -0.6222
  249MOL0     C33498   2.934  10.530   1.328 -0.1948  0.6996  0.1825
  249MOL0     C33499   3.024  10.577   1.427 -0.1197  0.7253  0.0705
  249MOL0     C33500   3.042  10.520   1.570 -0.3118  0.4154 -0.0392
  249MOL0     C33501   3.137  10.396   1.568 -0.1907 -0.2772  0.2662
  249MOL0     C33502   3.284  10.450   1.543 -0.5111  0.5856  0.6410
  249MOL0     C33503   3.392  10.329   1.545  0.2500  0.4334 -0.1767
  249MOL0     O33504   3.403  10.258   1.670 -0.3460  0.6687 -0.1314
  249MOL0     C33505   3.526  10.235   1.734  0.1019  0.9134 -0.1455
  249MOL0     C33506   3.641  10.200   1.666  0.4932  0.1196 -0.5617
  249MOL0     C33507   3.755  10.157   1.734 -0.0840  0.4734 -0.5807
  249MOL0     C33508   3.758  10.153   1.876  0.4917  0.2526 -0.0911
  249MOL0     C33509   3.885  10.112   1.948  0.2869 -0.3164 -0.9910
  249MOL0     O33510   3.881  10.070   2.076 -0.0283  0.1007 -0.9319
  249MOL0     C33511   3.996  10.071   2.145  0.2953 -0.4009 -0.0732
  249MOL0     C33512   4.013  10.166   2.245 -0.1690 -0.0444  0.8843
  249MOL0     C33513   4.140  10.165   2.311  0.4503 -0.3645  0.3964
  249MOL0     C33514   4.237  10.070   2.281 -0.6900  0.8761  0.8362
  249MOL0     O33515   4.349  10.059   2.355 -0.2122 -0.1790 -1.0133
  249MOL0     C33516   4.376  10.143   2.468  0.2382  0.0743 -0.2030
  249MOL0     C33517   4.506  10.105   2.545  0.5156 -0.4606  0.2246
  249MOL0     C33518   4.468   9.992   2.647  0.1841  0.6216 -0.8303
  249MOL0     C33519   4.599   9.972   2.738 -0.1994  0.4635 -1.1889
  249MOL0     C33520   4.591   9.844   2.818  0.4506  0.7205  0.4343
  249MOL0     C33521   4.697   9.841   2.921  0.9774 -0.1734  0.2043
  249MOL0     C33522   4.832   9.808   2.868 -0.1455  0.3106 -0.0085
  249MOL0     C33523   4.937   9.816   2.972 -0.5397  0.4780 -1.0736
  249MOL0    Cl33524   4.910   9.682   3.104  0.0987  0.5276  0.1824
  249MOL0     C33525   4.207   9.973   2.193 -0.2441  0.5939 -0.4814
  249MOL0     C33526   4.085   9.966   2.119  0.1418 -0.5751 -0.0360
  249MOL0     O33527   3.979  10.111   1.876  0.0692  0.6155 -0.1158
  249MOL0     C33528   3.640  10.171   1.944  0.8328 -0.0098  0.0195
  249MOL0     C33529   3.526  10.219   1.871  0.2103 -0.1006  0.0914
  249MOL0     N33530   3.094  10.682   1.374  0.4008 -0.5963 -0.2230
  249MOL0     N33531   3.053  10.703   1.250 -0.4408  0.3663 -0.8460
  249MOL0     C33532   1.922  10.753   0.607 -0.2618  0.4816  0.6864
  249MOL0     C33533   1.782  10.735   0.582 -0.1944  0.1889  0.2429
  249MOL0     C33534   1.399  10.554   0.454 -0.5423 -0.3342  0.1982
  249MOL0     C33535   1.344  10.475   0.563  0.1052  0.3870  0.8097
  249MOL0     C33536   1.221  10.424   0.558 -0.3444 -0.4169 -0.5000
  249MOL0     C33537   1.143  10.423   0.442 -0.2386  0.6395 -0.2493
  249MOL0     O33538   1.025  10.350   0.426  0.2014 -0.3788  0.1112
  249MOL0     C33539   0.986  10.231   0.492  0.3307 -0.4596 -0.2407
  249MOL0     C33540   0.934  10.125   0.397  0.3063  0.5279 -0.7424
  249MOL0     C33541   0.786  10.157   0.365  0.9858 -0.0804 -0.0351
  249MOL0     C33542   0.736  10.056   0.260  0.2060 -0.2918  0.2291
  249MOL0     C33543   0.710   9.921   0.312 -0.1203  0.4852  0.1641
  249MOL0     C33544   0.671   9.825   0.370 -1.3246 -0.1965 -0.6582
  249MOL0     C33545   1.190  10.494   0.339 -0.5230  0.0374  0.2140
  249MOL0     C33546   1.314  10.563   0.335 -0.1266 -0.7060 -0.1406
  249MOL0     C33547   1.336  10.634   0.205 -0.3517  0.2892 -0.0523
  249MOL0     H33548   1.718  10.436   0.708 -0.2650 -0.5901 -0.5564
  249MOL0     H33549   1.972  10.443   0.745  0.5892 -1.3875 -2.7302
  249MOL0     H33550   2.124  10.635   0.900 -2.2214  0.0746 -1.5575
  249MOL0     H33551   2.179  10.496   0.796 -0.8340  1.2697 -6.3405
  249MOL0     H33552   2.330  10.749   0.796  0.3177  1.5752  2.2572
  249MOL0     H33553   2.387  10.580   0.744  0.9720  1.2647  1.4306
  249MOL0     H33554   2.385  10.517   0.978  0.8597 -0.8212 -1.8864
  249MOL0     H33555   2.310  10.668   1.020 -0.6729 -0.7928 -0.0065
  249MOL0     H33556   2.592  10.624   0.903 -2.2553  0.6486 -3.5654
  249MOL0     H33557   2.530  10.786   0.940  2.6782  0.4688  1.6461
  249MOL0     H33558   2.468  10.684   1.173  0.1093  0.1124 -0.4498
  249MOL0     H33559   2.582  10.561   1.137  0.0682  0.0249  1.7094
  249MOL0     H33560   2.640  10.860   1.145 -1.0411 -0.5895 -2.6911
  249MOL0     H33561   2.701  10.740   1.257 -0.4214  0.5878  0.0836
  249MOL0     H33562   2.852  10.830   1.077  5.1082 -3.0949 -0.8350
  249MOL0     H33563   2.770  10.744   0.954  1.5566  1.8596 -0.4449
  249MOL0     H33564   2.842  10.517   1.078  2.3468 -2.0762  2.0057
  249MOL0     H33565   2.969  10.606   1.008 -0.4953 -0.4465 -0.6372
  249MOL0     H33566   2.870  10.443   1.339  2.2050 -1.5890 -2.4119
  249MOL0     H33567   3.079  10.595   1.641 -1.2392 -1.5364  2.6841
  249MOL0     H33568   2.945  10.484   1.604  0.1449 -2.4790 -1.4975
  249MOL0     H33569   3.150  10.326   1.651  3.8851 -2.1509 -1.6380
  249MOL0     H33570   3.099  10.327   1.492  2.4333  1.6451 -3.0943
  249MOL0     H33571   3.316  10.522   1.619 -1.6397  2.2160 -0.3695
  249MOL0     H33572   3.297  10.499   1.446  1.8568 -3.2076 -1.2139
  249MOL0     H33573   3.485  10.382   1.522 -0.4371  1.4078 -0.7951
  249MOL0     H33574   3.358  10.256   1.471 -3.4019 -0.9267  2.5700
  249MOL0     H33575   3.640  10.192   1.558  0.3241 -0.6661 -0.5081
  249MOL0     H33576   3.841  10.124   1.676  0.2277  2.1876 -1.1737
  249MOL0     H33577   3.932  10.235   2.267 -0.9681 -1.1532  1.5453
  249MOL0     H33578   4.157  10.231   2.395  1.5796 -3.1540  2.4795
  249MOL0     H33579   4.386  10.243   2.425 -0.8623 -0.6675 -2.3704
  249MOL0     H33580   4.301  10.137   2.548 -0.2149 -0.2869 -0.6495
  249MOL0     H33581   4.577  10.064   2.472 -0.2368  0.6302 -1.1720
  249MOL0     H33582   4.550  10.188   2.600  0.1726 -2.1142  3.1558
  249MOL0     H33583   4.391  10.027   2.717  3.1837  3.5594  1.3064
  249MOL0     H33584   4.429   9.903   2.597 -0.8939  1.0603 -0.8142
  249MOL0     H33585   4.617  10.059   2.801 -1.7601 -1.0421  1.5791
  249MOL0     H33586   4.691   9.970   2.680  2.7613  0.5616  3.0586
  249MOL0     H33587   4.597   9.757   2.751 -2.6260 -1.1509  2.3155
  249MOL0     H33588   4.494   9.840   2.868  0.5231 -0.0885  0.5196
  249MOL0     H33589   4.699   9.937   2.975 -2.1837  1.2730 -1.9464
  249MOL0     H33590   4.666   9.760   2.988 -0.9890 -2.2902 -3.0110
  249MOL0     H33591   4.867   9.872   2.787 -0.9239 -0.2810 -0.8311
  249MOL0     H33592   4.833   9.703   2.836 -0.9113  0.8913 -2.0745
  249MOL0     H33593   5.028   9.782   2.921  1.1991  2.2913  0.6753
  249MOL0     H33594   4.942   9.915   3.017  0.7155 -0.0769  0.0640
  249MOL0     H33595   4.282   9.897   2.173 -1.0202 -0.3203  0.0010
  249MOL0     H33596   4.069   9.887   2.046  0.3062 -0.7702  0.1361
  249MOL0     H33597   3.638  10.163   2.052 -2.3785 -1.8280 -0.0577
  249MOL0     H33598   3.434  10.220   1.928 -0.6822  0.9055 -1.2965
  249MOL0     H33599   1.978  10.840   0.576 -1.5046  1.6831  1.6661
  249MOL0     H33600   1.732  10.815   0.529  0.2162  1.3673  1.5683
  249MOL0     H33601   1.394  10.462   0.658 -0.2945  0.9630  1.1061
  249MOL0     H33602   1.185  10.362   0.639  0.5029  1.1376  1.1346
  249MOL0     H33603   0.921  10.252   0.578  1.1535 -1.1896  0.5766
  249MOL0     H33604   1.082  10.202   0.535  1.7933  5.4724  1.4257
  249MOL0     H33605   0.946  10.027   0.445  0.4093  1.4715  1.2367
  249MOL0     H33606   0.998  10.118   0.308 -2.5694  2.3752 -3.1704
  249MOL0     H33607   0.776  10.254   0.316 -0.5992 -1.2301 -2.1986
  249MOL0     H33608   0.717  10.148   0.450  1.0107  0.8914  0.0989
  249MOL0     H33609   0.640  10.088   0.218  0.8305  0.2888 -0.8013
  249MOL0     H33610   0.808  10.048   0.178  0.5225  0.7402  0.3928
  249MOL0     H33611   0.621   9.753   0.432 -0.5328  0.5455  0.9113
  249MOL0     H33612   1.116  10.511   0.262  0.5531 -0.9008 -1.0750
  249MOL0     H33613   1.277  10.591   0.124  4.1459 -4.2119 -1.3891
  249MOL0     H33614   1.319  10.742   0.219  1.0303  0.3371  1.5943
  249MOL0     H33615   1.438  10.605   0.179 -0.7071  0.0303 -1.1731
  250MOL0     O33616   2.719   9.659   2.148 -0.6745  0.1610 -0.5679
  250MOL0     C33617   2.671   9.719   2.055  0.6017  0.0531 -1.1522
  250MOL0     O33618   2.733   9.814   1.978 -0.6218  0.8557 -0.0923
  250MOL0     C33619   2.860   9.841   2.018 -1.0822 -0.2127  0.7503
  250MOL0     C33620   2.970   9.773   1.968 -0.1819  0.5505  0.9727
  250MOL0     C33621   3.099   9.808   1.997 -0.7848  0.1272 -0.0252
  250MOL0     C33622   3.127   9.922   2.080  0.5727  0.5118 -0.1938
  250MOL0     O33623   3.254   9.956   2.113  0.2587  0.1930 -0.0518
  250MOL0     C33624   3.331   9.840   2.147  0.3334 -0.2493 -0.0020
  250MOL0     C33625   3.467   9.892   2.193  0.4182  0.1309 -0.4135
  250MOL0     C33626   3.578   9.777   2.219 -0.2260  0.2146  0.3613
  250MOL0     C33627   3.706   9.831   2.271  0.0980  0.1595  0.7917
  250MOL0     C33628   3.802   9.713   2.303  0.4459  0.1554  0.0643
  250MOL0     C33629   3.922   9.760   2.381  0.1808  0.2213 -0.3269
  250MOL0     C33630   4.043   9.666   2.375 -0.6206 -0.2926 -0.0007
  250MOL0     C33631   4.165   9.721   2.449  0.7157 -0.0480 -0.5580
  250MOL0     N33632   4.294   9.653   2.414 -0.2083 -0.7617  0.3624
  250MOL0     C33633   4.367   9.660   2.295  0.4974  0.6123  0.2690
  250MOL0     C33634   4.485   9.600   2.322 -0.2704  0.4293  0.9036
  250MOL0     C33635   4.584   9.576   2.210 -0.4076 -0.1974 -0.3757
  250MOL0     C33636   4.562   9.435   2.149  0.2202  0.7405 -0.2103
  250MOL0     C33637   4.651   9.410   2.022 -1.1980  0.3945 -0.4085
  250MOL0     C33638   4.800   9.389   2.063  0.6038 -0.4816 -0.7274
  250MOL0     O33639   4.879   9.399   1.949  0.2131  0.1029  0.2615
  250MOL0     C33640   5.016   9.391   1.954 -0.5000 -0.1681 -1.0144
  250MOL0     C33641   5.085   9.388   1.834  0.2738  0.5426  1.0588
  250MOL0     C33642   5.223   9.386   1.838  0.5493  0.4949  0.5665
  250MOL0     C33643   5.295   9.377   1.961 -0.2209  0.1112  0.0916
  250MOL0     C33644   5.442   9.397   1.961  0.2678  0.5924 -0.1449
  250MOL0     O33645   5.496   9.393   1.842 -1.0316 -0.1744 -0.0209
  250MOL0     C33646   5.628   9.407   1.835 -0.1183  0.6450 -1.0126
  250MOL0     C33647   5.675   9.519   1.761  0.1886 -0.8596  1.1546
  250MOL0     C33648   5.809   9.551   1.757 -0.0827  0.9365  0.8970
  250MOL0     C33649   5.904   9.475   1.826 -0.0769 -0.7310 -0.7628
  250MOL0     O33650   6.039   9.505   1.837  0.1238  0.4607  0.6495
  250MOL0     C33651   6.108   9.539   1.712 -0.4475  0.0899 -0.6015
  250MOL0     C33652   6.238   9.461   1.706  0.1893  0.1200  0.1281
  250MOL0     C33653   6.294   9.434   1.568  0.8577 -0.7315  0.1186
  250MOL0     C33654   6.443   9.406   1.577 -0.2067 -0.3530  0.7305
  250MOL0     C33655   6.508   9.400   1.435  0.9565 -0.1909 -0.8546
  250MOL0     C33656   6.652   9.372   1.453 -0.4950 -0.8362 -0.0172
  250MOL0     C33657   6.739   9.390   1.328 -0.0534 -0.0755  0.1928
  250MOL0     C33658   6.706   9.282   1.230 -0.0631 -0.3739  0.8539
  250MOL0    Cl33659   6.850   9.298   1.113  0.2493 -0.1755 -0.2728
  250MOL0     C33660   5.865   9.370   1.901 -0.4763 -0.1523 -0.1132
  250MOL0     C33661   5.731   9.332   1.905 -0.1138 -0.4807 -0.2299
  250MOL0     O33662   5.503   9.400   2.065 -0.3580 -0.1741  0.3320
  250MOL0     C33663   5.221   9.363   2.077  0.8082 -0.0094 -0.4185
  250MOL0     C33664   5.080   9.364   2.076 -0.7031 -0.6530 -0.5223
  250MOL0     N33665   4.491   9.568   2.454 -0.7723 -0.4638  0.5328
  250MOL0     N33666   4.379   9.599   2.507  0.6025 -0.5569 -0.1902
  250MOL0     C33667   3.013   9.986   2.136 -1.1444 -0.6300  0.1839
  250MOL0     C33668   2.881   9.954   2.095  0.5202  0.9310 -0.0280
  250MOL0     C33669   2.527   9.690   2.012 -0.1260 -0.7414  0.1486
  250MOL0     C33670   2.506   9.712   1.877  0.8970 -0.7560 -0.2336
  250MOL0     C33671   2.374   9.681   1.827  0.0084  0.0486 -0.3826
  250MOL0     C33672   2.267   9.657   1.908 -0.3445  0.6008  0.3919
  250MOL0     O33673   2.147   9.618   1.850 -0.6248  0.5025  0.3697
  250MOL0     C33674   2.029   9.589   1.926  0.1491 -0.4968 -0.3038
  250MOL0     C33675   1.912   9.537   1.841 -1.1816 -0.1621  0.3965
  250MOL0     C33676   1.950   9.411   1.764 -0.3256 -0.3992 -1.0518
  250MOL0     C33677   1.837   9.363   1.683  0.8581 -0.1496  0.2877
  250MOL0     C33678   1.739   9.282   1.754  0.3393 -0.0317  0.7302
  250MOL0     C33679   1.631   9.236   1.792 -0.0114 -0.2861  0.0121
  250MOL0     C33680   2.297   9.636   2.043  0.2426 -0.4665 -0.5179
  250MOL0     C33681   2.425   9.653   2.095 -0.8305 -0.1307  0.3460
  250MOL0     C33682   2.444   9.650   2.252  0.6004  0.2357  0.0867
  250MOL0     H33683   2.940   9.680   1.921 -1.0903  0.2886  2.0337
  250MOL0     H33684   3.180   9.748   1.958 -1.4812 -2.7402  2.5648
  250MOL0     H33685   3.290   9.784   2.232 -0.9389 -1.8278 -1.5666
  250MOL0     H33686   3.348   9.772   2.062  1.8043  0.3566 -0.2121
  250MOL0     H33687   3.446   9.942   2.288  2.7621  4.3439 -1.8528
  250MOL0     H33688   3.520   9.960   2.127  1.1937 -0.2096 -0.1645
  250MOL0     H33689   3.597   9.707   2.138 -0.1190 -2.0562  2.2577
  250MOL0     H33690   3.531   9.722   2.300 -2.1809  3.9035  1.9838
  250MOL0     H33691   3.756   9.896   2.198  3.2507 -3.6399 -0.7841
  250MOL0     H33692   3.683   9.892   2.358 -0.9883 -0.9283  1.2800
  250MOL0     H33693   3.749   9.640   2.365 -3.0521  2.5010  0.1389
  250MOL0     H33694   3.831   9.673   2.206 -1.7299  2.5870 -1.7205
  250MOL0     H33695   3.956   9.854   2.337 -2.6950  2.9058  2.6405
  250MOL0     H33696   3.885   9.769   2.484  1.4488 -1.1295  0.2894
  250MOL0     H33697   4.083   9.652   2.274  1.8927  0.0012  0.8790
  250MOL0     H33698   4.003   9.576   2.422 -3.0284  1.0316  0.6516
  250MOL0     H33699   4.173   9.826   2.418  0.1567  0.4230  0.8266
  250MOL0     H33700   4.154   9.717   2.558 -0.2000 -0.4421 -0.6606
  250MOL0     H33701   4.332   9.689   2.196 -1.2367 -0.5470  0.4897
  250MOL0     H33702   4.571   9.649   2.130  1.6720 -0.6802 -1.2201
  250MOL0     H33703   4.685   9.579   2.253 -0.6739  1.8286  0.2323
  250MOL0     H33704   4.573   9.365   2.233 -0.7338  1.8107  0.8425
  250MOL0     H33705   4.456   9.429   2.120  0.1821 -1.9678  0.1949
  250MOL0     H33706   4.644   9.487   1.944  0.4757 -0.3839 -1.3824
  250MOL0     H33707   4.615   9.317   1.977 -1.3932  0.6804 -0.8586
  250MOL0     H33708   4.805   9.296   2.122 -1.6257  0.2597  0.7807
  250MOL0     H33709   4.820   9.472   2.132 -1.4315  0.5180 -1.2637
  250MOL0     H33710   5.040   9.397   1.736  0.2009  1.9149  1.1894
  250MOL0     H33711   5.269   9.397   1.740  0.4669 -0.2620  0.4401
  250MOL0     H33712   5.612   9.585   1.701  2.0694 -1.6768 -1.9383
  250MOL0     H33713   5.862   9.625   1.698  1.1700  0.1249  0.9829
  250MOL0     H33714   6.047   9.527   1.622  1.8160  2.4319 -2.6053
  250MOL0     H33715   6.125   9.646   1.724 -0.4384  0.1586 -1.2094
  250MOL0     H33716   6.323   9.504   1.760  2.5725 -3.3734 -0.5154
  250MOL0     H33717   6.222   9.358   1.740  1.0193 -0.3427 -0.8485
  250MOL0     H33718   6.247   9.352   1.512  0.9347  2.0604 -4.5414
  250MOL0     H33719   6.285   9.524   1.507  2.8607 -0.0996  0.6883
  250MOL0     H33720   6.467   9.305   1.614  2.0314  0.7703  2.5877
  250MOL0     H33721   6.490   9.476   1.646 -1.3934  0.7973  0.4099
  250MOL0     H33722   6.492   9.500   1.393  0.8732 -0.4608 -1.4697
  250MOL0     H33723   6.460   9.330   1.366 -0.9656  0.3604 -0.1469
  250MOL0     H33724   6.692   9.445   1.524 -0.1017  1.0939 -2.1040
  250MOL0     H33725   6.671   9.270   1.489 -0.0994 -1.1921 -1.2119
  250MOL0     H33726   6.846   9.380   1.352  1.0441  2.7320 -2.6924
  250MOL0     H33727   6.741   9.492   1.288  2.9962 -1.1009 -2.7616
  250MOL0     H33728   6.696   9.182   1.273 -1.2984 -0.6153  0.0558
  250MOL0     H33729   6.613   9.299   1.175  2.2385  3.2393 -2.4632
  250MOL0     H33730   5.938   9.307   1.950  1.3843 -3.1521 -5.8479
  250MOL0     H33731   5.720   9.243   1.966  0.4619 -0.4051 -0.0091
  250MOL0     H33732   5.282   9.346   2.165 -0.9729 -1.7442  0.5631
  250MOL0     H33733   5.028   9.347   2.170  0.8481  0.1946  0.5431
  250MOL0     H33734   3.038  10.070   2.200  0.8963 -1.2220  0.2198
  250MOL0     H33735   2.793  10.011   2.123 -0.3621 -0.2045 -0.3896
  250MOL0     H33736   2.584   9.756   1.815  0.7366  0.4465  0.3789
  250MOL0     H33737   2.364   9.688   1.719  1.0160  2.2626 -0.3787
  250MOL0     H33738   2.002   9.674   1.990  0.9144  0.9146 -1.8027
  250MOL0     H33739   2.049   9.507   1.996  0.1357  1.2865  1.9377
  250MOL0     H33740   1.875   9.616   1.775  1.3341  0.9680  0.2028
  250MOL0     H33741   1.833   9.519   1.915 -2.0977 -0.2063 -0.5704
  250MOL0     H33742   1.982   9.338   1.840  0.1319  0.1744 -0.6871
  250MOL0     H33743   2.033   9.435   1.697 -1.2208  0.0892 -2.0135
  250MOL0     H33744   1.780   9.442   1.633 -1.9677 -2.5588 -0.6075
  250MOL0     H33745   1.882   9.300   1.605  2.0544 -1.7750  2.1854
  250MOL0     H33746   1.538   9.190   1.820 -0.3979 -0.0793 -0.9062
  250MOL0     H33747   2.215   9.636   2.113 -0.2645  2.0819 -1.0113
  250MOL0     H33748   2.367   9.593   2.305  1.0556 -0.1513  0.3410
  250MOL0     H33749   2.536   9.594   2.271  0.8314  0.6386  0.1735
  250MOL0     H33750   2.462   9.752   2.288 -0.3993  0.3062  0.4203
  251MOL0     O33751   0.456   6.839   5.789  0.1637  0.3161 -0.6605
  251MOL0     C33752   0.379   6.775   5.715  0.1954  0.6820 -0.3106
  251MOL0     O33753   0.407   6.648   5.668 -0.6272  0.0018  0.1998
  251MOL0     C33754   0.537   6.593   5.675  0.3645 -0.3163 -0.3103
  251MOL0     C33755   0.570   6.504   5.783 -0.1334  0.1769  0.0899
  251MOL0     C33756   0.705   6.456   5.805 -0.3886 -0.4863  0.3503
  251MOL0     C33757   0.809   6.486   5.708  0.2362 -0.4811  0.0234
  251MOL0     O33758   0.937   6.427   5.726 -0.0792 -0.2502  0.2812
  251MOL0     C33759   1.049   6.485   5.651  0.5604  0.7197  0.9659
  251MOL0     C33760   1.178   6.400   5.653  0.9283 -1.1283  0.2806
  251MOL0     C33761   1.245   6.443   5.783 -0.7439 -0.5047 -0.5191
  251MOL0     C33762   1.361   6.349   5.811 -0.9441  0.2896  0.1269
  251MOL0     C33763   1.446   6.400   5.938 -0.4425  0.5130  0.4740
  251MOL0     C33764   1.575   6.482   5.896 -0.0850  1.0290 -0.3346
  251MOL0     C33765   1.679   6.401   5.818  1.1122 -0.7802  0.0989
  251MOL0     C33766   1.805   6.492   5.820  0.5657  0.7250 -0.0738
  251MOL0     N33767   1.913   6.397   5.773 -0.5358  0.4177  0.5330
  251MOL0     C33768   1.983   6.308   5.853  0.0365  0.4971 -0.2506
  251MOL0     C33769   2.078   6.261   5.772 -0.2357  0.3935 -0.7509
  251MOL0     C33770   2.182   6.151   5.801  1.0888  1.0197  0.4554
  251MOL0     C33771   2.218   6.066   5.678  0.1751  0.2535  0.2400
  251MOL0     C33772   2.310   6.144   5.579  0.7849  0.0965 -0.7599
  251MOL0     C33773   2.456   6.134   5.611 -0.7109 -0.5280 -0.7279
  251MOL0     O33774   2.499   6.000   5.578  0.1946 -0.4014  0.3311
  251MOL0     C33775   2.619   5.977   5.645  0.1172  0.2959 -0.7720
  251MOL0     C33776   2.750   5.981   5.585 -0.1499 -0.4422  0.8904
  251MOL0     C33777   2.862   5.960   5.658 -0.3708  0.2804 -0.0561
  251MOL0     C33778   2.856   5.928   5.800 -0.1183  0.1498 -0.2364
  251MOL0     C33779   2.978   5.886   5.875  0.5000 -1.1650  0.8785
  251MOL0     O33780   2.962   5.880   6.019  0.5536 -0.3807 -0.3678
  251MOL0     C33781   3.068   5.823   6.092  0.0572  0.0114 -0.3366
  251MOL0     C33782   3.038   5.735   6.204 -0.3451 -0.6127 -0.1204
  251MOL0     C33783   3.133   5.666   6.274  0.3981  1.1813  0.3473
  251MOL0     C33784   3.269   5.673   6.239 -0.4861 -0.1684  0.4733
  251MOL0     O33785   3.369   5.604   6.313 -0.5349 -0.3902  0.9125
  251MOL0     C33786   3.338   5.466   6.355 -0.3927 -0.4706  0.2137
  251MOL0     C33787   3.441   5.385   6.418  0.7197  0.1344 -0.3888
  251MOL0     C33788   3.588   5.412   6.366 -0.3214 -0.0555 -0.2943
  251MOL0     C33789   3.685   5.297   6.379 -0.2246  0.1107  0.3730
  251MOL0     C33790   3.698   5.251   6.525 -0.7416 -0.3402  0.7792
  251MOL0     C33791   3.789   5.132   6.529 -0.9109  0.5229 -0.3532
  251MOL0     C33792   3.834   5.103   6.675 -0.0114  0.2953 -0.9485
  251MOL0     C33793   3.882   4.959   6.697 -0.6574  0.0376  0.1026
  251MOL0    Cl33794   3.913   4.930   6.869  0.1805  0.3493 -0.5602
  251MOL0     C33795   3.305   5.781   6.155  0.1877 -0.5491  0.0286
  251MOL0     C33796   3.207   5.849   6.078  0.2097 -0.2839 -0.4626
  251MOL0     O33797   3.081   5.864   5.814  0.6205 -0.0776 -0.3477
  251MOL0     C33798   2.732   5.931   5.857 -0.3092 -0.7116  0.6966
  251MOL0     C33799   2.610   5.943   5.780 -0.1550 -0.7082  0.2969
  251MOL0     N33800   2.067   6.327   5.649 -0.7349  0.6735  0.3846
  251MOL0     N33801   1.969   6.403   5.647 -0.3026  0.1121 -0.1272
  251MOL0     C33802   0.769   6.573   5.603  0.5648  0.4234 -0.4648
  251MOL0     C33803   0.635   6.625   5.587 -0.4918 -0.0458  0.6145
  251MOL0     C33804   0.262   6.852   5.642 -0.5607  0.5612 -0.2000
  251MOL0     C33805   0.233   6.809   5.514  0.3156 -0.7037  0.2732
  251MOL0     C33806   0.153   6.892   5.443 -0.0576 -0.1039 -0.4751
  251MOL0     C33807   0.088   6.999   5.497 -0.5101 -0.0564 -0.0427
  251MOL0     O33808   0.018   7.079   5.416 -0.0896 -0.1234  0.5099
  251MOL0     C33809   0.020   7.073   5.272  0.2959 -0.2359  0.5997
  251MOL0     C33810  -0.055   7.191   5.204 -0.7429 -0.6228 -0.0515
  251MOL0     C33811  -0.204   7.181   5.224 -0.3134 -0.4295 -1.2674
  251MOL0     C33812  -0.278   7.089   5.124  1.2301 -0.8750 -0.5060
  251MOL0     C33813  -0.417   7.126   5.122  1.0184 -0.2628  0.2878
  251MOL0     C33814  -0.531   7.148   5.106  0.3690  0.5992  0.0417
  251MOL0     C33815   0.093   7.026   5.630  0.1438  0.1278 -0.9005
  251MOL0     C33816   0.193   6.955   5.711  0.3388  0.1306  0.7110
  251MOL0     C33817   0.228   7.015   5.845 -0.9269 -1.5237  0.3737
  251MOL0     H33818   0.498   6.496   5.864 -0.0489 -0.8015  0.0694
  251MOL0     H33819   0.734   6.384   5.881 -0.4722 -0.1792  0.6745
  251MOL0     H33820   1.032   6.505   5.545 -0.8386  1.1671  1.2560
  251MOL0     H33821   1.063   6.590   5.680  4.9981  0.7553 -0.4875
  251MOL0     H33822   1.222   6.433   5.558  0.1264 -0.0252  0.2603
  251MOL0     H33823   1.150   6.295   5.662 -2.9978 -0.1794  1.1188
  251MOL0     H33824   1.178   6.430   5.868 -0.4677  0.4334 -0.1539
  251MOL0     H33825   1.269   6.549   5.774 -2.4468 -0.2399 -3.0551
  251MOL0     H33826   1.327   6.247   5.828  2.6380 -1.2842 -1.0477
  251MOL0     H33827   1.429   6.346   5.725 -0.1722 -1.0970  0.7511
  251MOL0     H33828   1.377   6.454   6.003 -0.6783  2.1797 -1.0732
  251MOL0     H33829   1.477   6.310   5.991 -0.5879  0.7355  0.9419
  251MOL0     H33830   1.543   6.576   5.850 -1.1999  1.2345  0.7769
  251MOL0     H33831   1.618   6.503   5.995 -2.4088  2.0646  0.5460
  251MOL0     H33832   1.645   6.383   5.715 -1.3364  0.2579  0.6697
  251MOL0     H33833   1.690   6.301   5.860  0.6094 -1.1233 -0.5735
  251MOL0     H33834   1.796   6.569   5.744  0.4939 -0.1054 -0.9229
  251MOL0     H33835   1.828   6.533   5.919 -1.6025 -0.1553  0.8569
  251MOL0     H33836   1.974   6.304   5.961 -1.4044 -2.5160 -0.4039
  251MOL0     H33837   2.280   6.182   5.838  1.7693  1.4037 -1.5019
  251MOL0     H33838   2.140   6.087   5.879  0.1283  0.2651 -0.6380
  251MOL0     H33839   2.274   5.978   5.710 -0.6431 -0.4010 -0.1022
  251MOL0     H33840   2.127   6.020   5.639 -0.7057 -0.7813  3.2342
  251MOL0     H33841   2.287   6.251   5.569  3.2691  0.8346  0.6963
  251MOL0     H33842   2.287   6.101   5.481 -2.0674 -1.2932  0.3978
  251MOL0     H33843   2.480   6.158   5.715  3.2449 -1.2465 -1.3014
  251MOL0     H33844   2.518   6.210   5.561  0.0952  0.7328  2.0022
  251MOL0     H33845   2.751   5.989   5.477  0.5924  2.0461  1.0221
  251MOL0     H33846   2.952   5.934   5.603 -1.7878  0.6248 -2.6727
  251MOL0     H33847   2.936   5.715   6.234 -0.7313  0.6863 -0.4934
  251MOL0     H33848   3.106   5.600   6.356  1.5681 -2.0373 -1.6552
  251MOL0     H33849   3.254   5.468   6.424  0.2978 -0.9702  1.0918
  251MOL0     H33850   3.318   5.401   6.269  0.5419  0.6134 -0.8632
  251MOL0     H33851   3.436   5.385   6.527  4.3470  0.3505 -0.0856
  251MOL0     H33852   3.410   5.284   6.392  0.2852  0.9235 -3.3658
  251MOL0     H33853   3.585   5.438   6.260  1.3889 -1.8317 -0.8306
  251MOL0     H33854   3.631   5.498   6.419  1.1021 -0.8642 -0.0919
  251MOL0     H33855   3.787   5.325   6.351 -0.5142 -0.6941 -1.6628
  251MOL0     H33856   3.655   5.212   6.317 -1.7107  2.1740 -1.9090
  251MOL0     H33857   3.599   5.231   6.567 -1.6067  1.7998 -0.0889
  251MOL0     H33858   3.736   5.337   6.581  0.7386 -1.7541  2.0437
  251MOL0     H33859   3.735   5.049   6.481 -0.2788  0.8378 -1.6543
  251MOL0     H33860   3.881   5.139   6.470 -2.3089  0.9611 -2.6366
  251MOL0     H33861   3.755   5.122   6.749  2.3127  0.0810  1.7597
  251MOL0     H33862   3.920   5.164   6.706 -0.5291 -0.5299  2.6241
  251MOL0     H33863   3.812   4.881   6.669  0.5370 -1.0590  0.0946
  251MOL0     H33864   3.972   4.948   6.636 -0.5704 -0.4123  0.3053
  251MOL0     H33865   3.405   5.816   6.134  0.7809 -0.1859  3.0819
  251MOL0     H33866   3.240   5.921   6.004  0.3807  0.0164 -0.0952
  251MOL0     H33867   2.719   5.909   5.963 -2.6736  3.1150  1.3647
  251MOL0     H33868   2.516   5.939   5.834  0.4746 -1.0834  1.4126
  251MOL0     H33869   0.845   6.602   5.531  1.5489 -2.7159 -0.8272
  251MOL0     H33870   0.610   6.693   5.506  0.0352 -2.2378 -1.5253
  251MOL0     H33871   0.279   6.718   5.479  1.7495 -0.2986  0.9886
  251MOL0     H33872   0.140   6.859   5.341 -1.4659  0.7426 -0.5947
  251MOL0     H33873  -0.022   6.976   5.244  0.3209  0.2831 -1.3168
  251MOL0     H33874   0.124   7.071   5.238 -1.1181 -0.7040 -4.3296
  251MOL0     H33875  -0.038   7.193   5.096 -1.3489  1.3442 -0.1550
  251MOL0     H33876  -0.012   7.287   5.235  0.1352 -0.5762 -1.3309
  251MOL0     H33877  -0.248   7.279   5.245 -0.4941 -1.0542  1.8172
  251MOL0     H33878  -0.213   7.136   5.324 -1.4004  1.4301 -0.4749
  251MOL0     H33879  -0.231   7.094   5.025 -0.8345  2.0071 -1.4950
  251MOL0     H33880  -0.274   6.983   5.151  0.4022 -0.9609 -0.6679
  251MOL0     H33881  -0.633   7.160   5.076 -0.4084 -0.4636  2.0405
  251MOL0     H33882   0.043   7.111   5.676  1.0940 -0.0649  0.5384
  251MOL0     H33883   0.154   7.088   5.878 -0.7315 -1.8544  1.5845
  251MOL0     H33884   0.245   6.932   5.914  5.0779 -0.2465  1.0066
  251MOL0     H33885   0.325   7.066   5.842 -1.3867 -0.6647 -1.1390
  252MOL0     O33886   9.637   3.022   5.692  0.3750  0.3431  0.1702
  252MOL0     C33887   9.528   3.001   5.644 -0.1799  0.2372  0.3511
  252MOL0     O33888   9.462   3.077   5.560 -0.3591  0.5641  0.2877
  252MOL0     C33889   9.528   3.190   5.519 -0.1387 -0.3647  0.0084
  252MOL0     C33890   9.654   3.187   5.451  0.4078  0.4953 -0.8323
  252MOL0     C33891   9.713   3.303   5.404 -0.4734  0.0592  0.1941
  252MOL0     C33892   9.659   3.429   5.438 -0.7031 -0.3035  0.7361
  252MOL0     O33893   9.723   3.541   5.388  0.0097 -0.5258  0.2734
  252MOL0     C33894   9.696   3.663   5.463  0.2004 -0.6411  0.6402
  252MOL0     C33895   9.801   3.769   5.428  0.2008 -0.5613  0.7083
  252MOL0     C33896   9.799   3.908   5.491  0.2972  0.4432 -1.1957
  252MOL0     C33897   9.919   3.991   5.457 -0.4492 -0.3907 -0.2977
  252MOL0     C33898   9.912   4.134   5.495 -0.9127 -0.5733  0.7112
  252MOL0     C33899  10.039   4.210   5.437 -1.2684 -0.3501  0.4505
  252MOL0     C33900  10.181   4.171   5.482 -0.4204  0.4152  0.3507
  252MOL0     C33901  10.200   4.187   5.637 -0.0714  0.3993  0.4160
  252MOL0     N33902  10.340   4.186   5.664 -1.4840 -0.0596 -0.7329
  252MOL0     C33903  10.394   4.272   5.763 -0.0782 -0.6716 -0.2579
  252MOL0     C33904  10.513   4.226   5.798  0.1549 -0.6964  0.2065
  252MOL0     C33905  10.590   4.299   5.901  0.6242 -0.2370  0.2885
  252MOL0     C33906  10.677   4.418   5.850 -0.2434  0.8542  0.2590
  252MOL0     C33907  10.742   4.388   5.713  0.3489  0.1986 -0.3306
  252MOL0     C33908  10.862   4.470   5.676 -0.2845 -0.9127  0.3222
  252MOL0     O33909  10.830   4.610   5.669  0.5518  0.5627  0.9727
  252MOL0     C33910  10.935   4.712   5.663 -0.0992 -0.0644 -0.2494
  252MOL0     C33911  10.898   4.849   5.658  0.4179 -0.1880 -0.2623
  252MOL0     C33912  10.991   4.949   5.649 -0.7003  0.5147  0.0722
  252MOL0     C33913  11.127   4.916   5.634  0.3278  0.5255 -0.2146
  252MOL0     C33914  11.225   5.027   5.635 -1.1093 -0.2372 -0.0854
  252MOL0     O33915  11.358   4.994   5.662  0.1914 -0.7726  0.3494
  252MOL0     C33916  11.470   5.079   5.638  0.4663 -0.4438  0.9793
  252MOL0     C33917  11.594   5.018   5.662  0.1024  0.7068  0.3300
  252MOL0     C33918  11.707   5.094   5.656  0.0776 -0.7780 -0.4150
  252MOL0     C33919  11.713   5.232   5.613  0.6972 -0.1443 -0.7772
  252MOL0     O33920  11.825   5.307   5.579 -0.1936 -0.0343  0.1340
  252MOL0     C33921  11.950   5.240   5.609 -0.3151  0.5426  0.5419
  252MOL0     C33922  12.060   5.316   5.539  0.0409  0.2416  0.1260
  252MOL0     C33923  12.187   5.233   5.557 -0.1614 -0.6432  0.3845
  252MOL0     C33924  12.309   5.314   5.522  0.6264  0.0953  0.4193
  252MOL0     C33925  12.429   5.213   5.537 -0.2337  0.0871 -0.2296
  252MOL0     C33926  12.569   5.274   5.520 -0.0980  0.1845  0.7897
  252MOL0     C33927  12.681   5.169   5.538 -0.0212 -0.5876  0.2458
  252MOL0     C33928  12.828   5.219   5.565 -0.3695 -0.4315  0.3361
  252MOL0    Cl33929  12.925   5.068   5.596 -0.0851  0.1328  0.2674
  252MOL0     C33930  11.581   5.286   5.596  0.0027  0.0003 -0.0884
  252MOL0     C33931  11.461   5.214   5.600  0.4906  0.1728  0.2109
  252MOL0     O33932  11.181   5.145   5.622 -0.5353  0.0684 -0.1087
  252MOL0     C33933  11.166   4.781   5.618 -0.1083  0.1655 -0.0522
  252MOL0     C33934  11.073   4.685   5.638  0.2913  0.5401 -0.8439
  252MOL0     N33935  10.537   4.111   5.724 -0.1290 -0.1675  0.1953
  252MOL0     N33936  10.430   4.076   5.650  1.9361 -0.5982 -0.7153
  252MOL0     C33937   9.533   3.435   5.499  0.9882 -0.1562 -0.6489
  252MOL0     C33938   9.465   3.319   5.536 -0.3708 -0.4364  0.0641
  252MOL0     C33939   9.479   2.861   5.652  0.2124 -1.1009 -0.3252
  252MOL0     C33940   9.345   2.841   5.628 -0.1610 -0.3883  0.3483
  252MOL0     C33941   9.280   2.717   5.610  0.0551  0.5170  0.5584
  252MOL0     C33942   9.348   2.601   5.647 -0.0159  0.2331 -0.6601
  252MOL0     O33943   9.295   2.476   5.629 -0.5031  0.5556  0.7724
  252MOL0     C33944   9.154   2.461   5.606 -0.4362  0.3535 -0.1291
  252MOL0     C33945   9.110   2.320   5.626 -0.1560  0.2679 -0.0066
  252MOL0     C33946   9.171   2.243   5.743  0.3482 -0.2337  0.0816
  252MOL0     C33947   9.064   2.141   5.792  0.3236 -0.7663  0.2084
  252MOL0     C33948   9.093   2.067   5.916  0.5491 -0.6129  0.2330
  252MOL0     C33949   9.113   2.009   6.022 -0.3284  0.2377 -0.2225
  252MOL0     C33950   9.484   2.610   5.676  0.5628  0.4618  0.0984
  252MOL0     C33951   9.551   2.739   5.683 -0.5627 -0.4043  0.2054
  252MOL0     C33952   9.694   2.745   5.720 -0.2224  0.3381 -0.1014
  252MOL0     H33953   9.704   3.094   5.425  0.9019  0.7789 -0.9125
  252MOL0     H33954   9.802   3.290   5.344 -1.2287 -1.5627 -0.6449
  252MOL0     H33955   9.600   3.700   5.428 -0.5858 -0.2421  3.0753
  252MOL0     H33956   9.688   3.644   5.570 -4.0532 -1.9011  0.2702
  252MOL0     H33957   9.800   3.778   5.319  1.1051  2.3632  0.8652
  252MOL0     H33958   9.898   3.723   5.453  0.8729  0.9291  0.9406
  252MOL0     H33959   9.792   3.889   5.599 -1.0057  0.2143 -1.3015
  252MOL0     H33960   9.710   3.965   5.463 -0.8786 -1.0838 -0.7508
  252MOL0     H33961  10.003   3.935   5.500  0.5159  1.6068  0.5473
  252MOL0     H33962   9.928   3.982   5.348 -0.5565 -3.2185 -0.1541
  252MOL0     H33963   9.830   4.180   5.440  0.5014 -0.3031 -1.2971
  252MOL0     H33964   9.903   4.137   5.604 -0.2371  0.5463  0.7558
  252MOL0     H33965  10.041   4.208   5.328 -0.4467  2.9330  0.2827
  252MOL0     H33966  10.031   4.316   5.465  0.2768  0.9003 -3.2611
  252MOL0     H33967  10.261   4.234   5.443  0.6366  0.2360  2.1106
  252MOL0     H33968  10.195   4.070   5.444  4.4527  1.0568 -0.2585
  252MOL0     H33969  10.152   4.277   5.676 -3.2235  0.5769 -3.2374
  252MOL0     H33970  10.162   4.103   5.695 -1.3898  1.0257  0.4836
  252MOL0     H33971  10.346   4.359   5.807  1.1158  0.5800 -1.3188
  252MOL0     H33972  10.521   4.341   5.975 -0.8037  0.2879 -1.2727
  252MOL0     H33973  10.654   4.220   5.943  0.2148 -0.4596  0.5002
  252MOL0     H33974  10.629   4.515   5.835  1.8255  2.3660  2.5485
  252MOL0     H33975  10.760   4.441   5.917 -1.9512  0.3681  2.6783
  252MOL0     H33976  10.668   4.399   5.633 -0.7601  0.7990  0.7439
  252MOL0     H33977  10.779   4.285   5.710 -0.8961 -0.2646 -0.3672
  252MOL0     H33978  10.900   4.425   5.584 -1.5316  0.5050 -0.9434
  252MOL0     H33979  10.953   4.466   5.735  0.4037  0.1085 -0.6348
  252MOL0     H33980  10.793   4.865   5.676  0.1926 -1.5681 -0.1856
  252MOL0     H33981  10.965   5.054   5.649  1.0916  0.9914  0.0289
  252MOL0     H33982  11.601   4.920   5.708 -0.6188 -0.0405 -1.0679
  252MOL0     H33983  11.795   5.043   5.692 -1.1790 -2.2881  0.6541
  252MOL0     H33984  11.972   5.244   5.716 -1.5942 -0.6014  0.8770
  252MOL0     H33985  11.958   5.137   5.575 -1.0830  0.6832 -0.1051
  252MOL0     H33986  12.027   5.328   5.436  0.7104  3.7013  0.1962
  252MOL0     H33987  12.061   5.418   5.577  0.3278  0.3193 -0.0844
  252MOL0     H33988  12.192   5.203   5.662 -0.4316 -1.2157  0.2395
  252MOL0     H33989  12.181   5.145   5.492  0.9660  1.0721 -2.2020
  252MOL0     H33990  12.344   5.394   5.588  3.4374 -0.0415 -0.7663
  252MOL0     H33991  12.280   5.342   5.420  0.3450  0.1968  0.5290
  252MOL0     H33992  12.417   5.129   5.469 -0.6113 -1.3592  1.5484
  252MOL0     H33993  12.422   5.173   5.639 -0.1917  0.8679  0.0892
  252MOL0     H33994  12.566   5.324   5.422 -1.6305 -1.5615 -0.1241
  252MOL0     H33995  12.593   5.352   5.593  1.6919 -0.6057  1.1024
  252MOL0     H33996  12.680   5.094   5.458 -0.5397 -0.2128 -0.1071
  252MOL0     H33997  12.650   5.105   5.621 -0.1066 -1.8413 -0.7146
  252MOL0     H33998  12.880   5.265   5.480 -0.6193  0.0654  0.4532
  252MOL0     H33999  12.838   5.287   5.649 -1.1081  1.4959 -1.0731
  252MOL0     H34000  11.572   5.385   5.551  0.7010  0.6756  1.1879
  252MOL0     H34001  11.368   5.261   5.572  0.3406  0.4241  1.1119
  252MOL0     H34002  11.273   4.762   5.609 -0.1165 -0.0024  0.2072
  252MOL0     H34003  11.112   4.584   5.641 -1.8647 -0.3268 -0.1735
  252MOL0     H34004   9.473   3.523   5.521 -2.4555 -2.4954  0.1537
  252MOL0     H34005   9.374   3.337   5.591 -0.5081 -1.7724  0.3191
  252MOL0     H34006   9.278   2.925   5.612  0.5378 -0.1694 -1.6731
  252MOL0     H34007   9.181   2.729   5.568 -0.6615  0.3278  2.1437
  252MOL0     H34008   9.120   2.501   5.510  1.0855 -0.2208 -0.9353
  252MOL0     H34009   9.097   2.520   5.679  0.0781  3.6479 -2.1552
  252MOL0     H34010   9.125   2.253   5.541 -1.6319  0.1374 -0.1985
  252MOL0     H34011   9.001   2.314   5.624 -0.1072 -1.1560  0.5300
  252MOL0     H34012   9.193   2.306   5.830  2.9547 -0.0928 -0.6178
  252MOL0     H34013   9.261   2.191   5.710  0.1039 -0.7577  0.2284
  252MOL0     H34014   8.963   2.184   5.799  0.7184  0.4721 -1.1178
  252MOL0     H34015   9.060   2.067   5.711 -0.8421 -0.7714  0.2474
  252MOL0     H34016   9.143   1.949   6.105  2.3051  1.6816 -0.0279
  252MOL0     H34017   9.534   2.516   5.694  0.3462  0.0174 -1.5402
  252MOL0     H34018   9.729   2.824   5.786  0.5684 -0.7311  0.8144
  252MOL0     H34019   9.725   2.644   5.749 -0.9924 -0.8263 -2.9694
  252MOL0     H34020   9.749   2.764   5.628 -2.4076  0.8239 -1.3816
  253MOL0     O34021   5.886   6.941   7.299  0.7487  0.0159  0.2397
  253MOL0     C34022   5.846   6.891   7.199 -0.0007  0.6102  0.1537
  253MOL0     O34023   5.914   6.871   7.084  0.0282 -0.5656  0.8494
  253MOL0     C34024   6.049   6.895   7.074  0.1300 -0.4278 -0.1586
  253MOL0     C34025   6.142   6.913   7.183 -0.0497  0.0834  1.4278
  253MOL0     C34026   6.282   6.934   7.161 -0.0240 -0.7987  0.1756
  253MOL0     C34027   6.329   6.951   7.028  0.3958  0.5078  0.0656
  253MOL0     O34028   6.461   6.983   7.007 -0.0662  0.1523  0.5742
  253MOL0     C34029   6.512   6.993   6.877 -0.0841  0.1604  1.2614
  253MOL0     C34030   6.657   7.016   6.874  0.1434 -0.1559  0.1097
  253MOL0     C34031   6.695   7.160   6.888 -0.9624 -1.1596 -0.3010
  253MOL0     C34032   6.847   7.183   6.928  0.2396 -0.0806 -0.4447
  253MOL0     C34033   6.941   7.144   6.818 -0.0986 -0.7723 -0.0500
  253MOL0     C34034   6.932   7.241   6.693  0.9208  0.4210 -0.0929
  253MOL0     C34035   7.060   7.234   6.611  0.1285 -0.2427 -0.3703
  253MOL0     C34036   7.061   7.353   6.514  0.0900  0.5179  1.0288
  253MOL0     N34037   7.118   7.302   6.386 -0.0120 -0.4243  0.3698
  253MOL0     C34038   7.252   7.317   6.359 -0.0585  0.8102 -0.5563
  253MOL0     C34039   7.253   7.329   6.223 -0.6550  0.1550 -0.0100
  253MOL0     C34040   7.373   7.350   6.133  0.5019 -1.1041  0.5041
  253MOL0     C34041   7.443   7.491   6.148  0.2040  0.0656 -0.0504
  253MOL0     C34042   7.363   7.604   6.095  0.9719 -0.5986  0.6045
  253MOL0     C34043   7.455   7.713   6.037 -0.9666 -0.0519 -0.0072
  253MOL0     O34044   7.550   7.766   6.135  0.4835  0.3581 -0.2206
  253MOL0     C34045   7.657   7.836   6.084  0.1018  0.1828  0.4632
  253MOL0     C34046   7.679   7.875   5.955  0.1274 -0.7238 -0.6617
  253MOL0     C34047   7.805   7.930   5.923  0.7300 -0.5559 -0.7572
  253MOL0     C34048   7.903   7.957   6.021 -0.3749 -0.1031 -0.3008
  253MOL0     C34049   8.038   8.000   5.992  0.1954  0.1742  0.1931
  253MOL0     O34050   8.120   8.025   6.090  0.2275 -0.2216 -0.2847
  253MOL0     C34051   8.239   8.071   6.059 -0.4221 -0.5792  0.4711
  253MOL0     C34052   8.342   7.992   6.101 -0.6922  0.0678 -0.6332
  253MOL0     C34053   8.473   8.046   6.105  0.6646  0.0475  1.1530
  253MOL0     C34054   8.498   8.170   6.044 -0.1877  0.8372  0.1174
  253MOL0     O34055   8.623   8.226   6.040 -0.2245  0.6043 -0.6746
  253MOL0     C34056   8.669   8.304   5.929 -0.5736  0.4070 -0.6060
  253MOL0     C34057   8.701   8.447   5.973  0.2086  0.6347 -0.0555
  253MOL0     C34058   8.801   8.449   6.091 -0.9811  0.0172  0.0016
  253MOL0     C34059   8.938   8.393   6.047 -0.0903  0.3860  0.0696
  253MOL0     C34060   9.039   8.404   6.165  0.2157  0.1625 -0.5146
  253MOL0     C34061   9.181   8.382   6.112  1.0070 -0.1173  0.5456
  253MOL0     C34062   9.283   8.395   6.227 -0.0489  0.1398 -0.2187
  253MOL0     C34063   9.430   8.358   6.200  0.0584 -0.7435 -0.2056
  253MOL0    Cl34064   9.531   8.407   6.344 -0.4469 -0.0464  0.2044
  253MOL0     C34065   8.394   8.240   5.991  0.9238  0.6631 -0.1171
  253MOL0     C34066   8.266   8.192   6.001  0.0311  0.4583  0.5396
  253MOL0     O34067   8.063   8.019   5.872  0.5526 -0.1161 -0.4355
  253MOL0     C34068   7.863   7.942   6.157  0.5138  0.0112 -0.1908
  253MOL0     C34069   7.740   7.882   6.183  0.1497  0.6137 -0.2317
  253MOL0     N34070   7.120   7.316   6.175  0.8820 -0.2706 -0.0567
  253MOL0     N34071   7.041   7.307   6.276 -0.0269 -0.1037  0.0140
  253MOL0     C34072   6.236   6.935   6.924 -0.4642  0.0727 -0.0627
  253MOL0     C34073   6.099   6.911   6.939 -0.7457  1.2624 -0.4653
  253MOL0     C34074   5.703   6.845   7.192  0.6865 -0.1968  0.2370
  253MOL0     C34075   5.669   6.750   7.100  0.2312  0.5718  0.2677
  253MOL0     C34076   5.543   6.705   7.081  0.4607  0.4886  0.1146
  253MOL0     C34077   5.430   6.749   7.154 -0.1061 -0.4068  0.7658
  253MOL0     O34078   5.303   6.697   7.132 -0.0195  0.0299 -0.4057
  253MOL0     C34079   5.194   6.757   7.210  1.0440 -0.4076  0.2857
  253MOL0     C34080   5.066   6.684   7.178 -0.6378  0.5689 -0.0770
  253MOL0     C34081   4.952   6.762   7.236  0.2116 -0.4013 -0.0813
  253MOL0     C34082   4.812   6.709   7.208  0.5843  0.7706 -0.6582
  253MOL0     C34083   4.753   6.602   7.300  0.0422  0.5463  1.0696
  253MOL0     C34084   4.706   6.527   7.384 -0.4109 -0.2361  0.1939
  253MOL0     C34085   5.459   6.853   7.242 -0.6778 -0.0185 -0.1194
  253MOL0     C34086   5.594   6.906   7.258 -0.5312 -0.6471  0.2187
  253MOL0     C34087   5.601   7.022   7.353 -0.4154 -0.5388  0.4160
  253MOL0     H34088   6.113   6.906   7.288  1.1505 -1.5471  1.6917
  253MOL0     H34089   6.344   6.940   7.249  1.1738 -1.5953 -0.5813
  253MOL0     H34090   6.494   6.902   6.819 -0.7542  1.4905 -0.7062
  253MOL0     H34091   6.455   7.073   6.829  0.3702 -0.8118 -1.0298
  253MOL0     H34092   6.690   6.984   6.775 -4.2031  0.6748 -1.8432
  253MOL0     H34093   6.715   6.959   6.947  1.4839  2.5472  1.3295
  253MOL0     H34094   6.638   7.200   6.973 -1.0696 -4.7050  1.4904
  253MOL0     H34095   6.669   7.210   6.794 -1.4489 -1.0915 -0.1318
  253MOL0     H34096   6.863   7.288   6.955  2.3989 -0.4247 -0.2159
  253MOL0     H34097   6.868   7.129   7.020  0.0434  1.7116  0.6940
  253MOL0     H34098   7.042   7.142   6.859  0.8991 -0.0264 -2.2832
  253MOL0     H34099   6.920   7.044   6.778 -1.8643 -1.3954  2.2366
  253MOL0     H34100   6.851   7.198   6.633 -0.2337  0.8377  1.1126
  253MOL0     H34101   6.913   7.344   6.723  1.9910  1.3066 -2.2544
  253MOL0     H34102   7.055   7.136   6.563  0.7696  0.6562 -2.3705
  253MOL0     H34103   7.145   7.238   6.680 -0.5453 -1.0365  0.5296
  253MOL0     H34104   6.958   7.390   6.505  0.2486  0.7853  0.1577
  253MOL0     H34105   7.122   7.437   6.548  0.5230  0.9713 -0.7307
  253MOL0     H34106   7.330   7.307   6.434 -1.6229 -0.0459  1.0343
  253MOL0     H34107   7.440   7.269   6.161  0.9742 -0.8864  0.0178
  253MOL0     H34108   7.347   7.337   6.027 -1.8043  0.3624  0.8109
  253MOL0     H34109   7.481   7.513   6.249  2.7542  2.0167 -1.3250
  253MOL0     H34110   7.532   7.491   6.084  1.1184 -0.0026  1.1757
  253MOL0     H34111   7.314   7.646   6.183 -0.5837 -1.6740  0.2778
  253MOL0     H34112   7.284   7.570   6.028 -0.8382  1.7226  1.4162
  253MOL0     H34113   7.404   7.801   5.995  0.6687 -0.2089 -2.5191
  253MOL0     H34114   7.491   7.673   5.942 -0.0702  1.7095 -0.4666
  253MOL0     H34115   7.597   7.862   5.885 -1.6936 -1.9063  1.5604
  253MOL0     H34116   7.831   7.953   5.820  1.7425 -1.4827 -0.7210
  253MOL0     H34117   8.313   7.901   6.154  0.7166  1.2282  2.3311
  253MOL0     H34118   8.556   7.995   6.152  2.2895  0.1585 -1.3683
  253MOL0     H34119   8.762   8.257   5.894 -1.0199 -0.5626 -0.5245
  253MOL0     H34120   8.605   8.309   5.841  1.0984  1.7736 -1.7969
  253MOL0     H34121   8.753   8.502   5.894  0.1925  2.7674  1.3294
  253MOL0     H34122   8.609   8.505   5.986  0.3499  0.9636 -0.4913
  253MOL0     H34123   8.811   8.556   6.112  1.3310  0.3959 -2.4675
  253MOL0     H34124   8.761   8.392   6.175 -0.5542 -0.8558 -0.3728
  253MOL0     H34125   8.981   8.461   5.973  2.3100 -0.9177  0.1485
  253MOL0     H34126   8.938   8.289   6.012 -1.5770  0.1482  0.7029
  253MOL0     H34127   9.020   8.333   6.246  0.5402  0.3421 -0.2787
  253MOL0     H34128   9.033   8.504   6.209 -3.8279  0.9361 -2.3615
  253MOL0     H34129   9.177   8.284   6.064 -0.7130 -0.7369  1.8516
  253MOL0     H34130   9.200   8.458   6.036  0.5978 -4.4110 -4.3781
  253MOL0     H34131   9.246   8.333   6.309  1.1072  0.6355  0.7035
  253MOL0     H34132   9.289   8.501   6.256  0.3743 -0.0760  0.4892
  253MOL0     H34133   9.452   8.251   6.198  4.2518 -0.0214 -1.8024
  253MOL0     H34134   9.459   8.403   6.104 -1.3120 -0.6047 -0.5793
  253MOL0     H34135   8.406   8.335   5.941  1.3019 -0.5523 -2.4921
  253MOL0     H34136   8.178   8.238   5.957 -1.0962 -3.7548 -2.1950
  253MOL0     H34137   7.930   7.983   6.232  0.8554  0.8511 -0.9412
  253MOL0     H34138   7.724   7.861   6.288  0.7357 -0.2744 -0.3117
  253MOL0     H34139   6.282   6.959   6.829  3.1501  2.3972  2.0402
  253MOL0     H34140   6.031   6.914   6.854  0.6355  2.9853 -1.5867
  253MOL0     H34141   5.757   6.705   7.054  0.7118  2.2786 -0.5630
  253MOL0     H34142   5.538   6.624   7.009  2.3309  1.0572 -0.7082
  253MOL0     H34143   5.181   6.861   7.181 -0.8236 -0.6902 -0.0083
  253MOL0     H34144   5.209   6.748   7.318 -1.0295 -1.1929  0.5508
  253MOL0     H34145   5.068   6.587   7.229  0.1827 -1.2644 -3.3182
  253MOL0     H34146   5.054   6.663   7.071 -2.5421 -2.6002  0.6234
  253MOL0     H34147   4.946   6.866   7.203  2.5490  0.5490  2.1759
  253MOL0     H34148   4.965   6.768   7.344  0.2887 -0.6388 -0.0755
  253MOL0     H34149   4.751   6.798   7.225 -4.1622 -2.6420  2.7949
  253MOL0     H34150   4.807   6.678   7.103 -0.5373 -0.6705 -0.2197
  253MOL0     H34151   4.658   6.469   7.461  0.4272 -2.8705 -1.1680
  253MOL0     H34152   5.378   6.896   7.301 -0.1098 -0.3433  0.9259
  253MOL0     H34153   5.687   7.087   7.332 -1.7489  0.9125 -0.7824
  253MOL0     H34154   5.513   7.085   7.339  0.9981  1.1462 -1.5431
  253MOL0     H34155   5.603   6.996   7.459 -0.3403  2.0420  1.1327
  254MOL0     O34156   0.177   2.339  10.852 -0.0450 -0.6374 -0.0725
  254MOL0     C34157   0.172   2.429  10.764  0.8960  0.0662  0.2131
  254MOL0     O34158   0.279   2.474  10.693  0.6119  0.2647 -0.6179
  254MOL0     C34159   0.399   2.451  10.750  0.3813 -0.0972  0.0616
  254MOL0     C34160   0.476   2.356  10.685 -0.3705  0.6107 -0.8212
  254MOL0     C34161   0.609   2.333  10.717  0.0839  0.2478  0.5670
  254MOL0     C34162   0.660   2.391  10.836  0.4228  0.8092  0.8403
  254MOL0     O34163   0.796   2.367  10.859  0.6087  0.0763 -0.0948
  254MOL0     C34164   0.871   2.483  10.879  0.2622 -0.4157 -0.1114
  254MOL0     C34165   1.020   2.453  10.907 -0.0001 -0.2330 -0.9703
  254MOL0     C34166   1.024   2.381  11.043 -0.3533  0.2781 -0.6230
  254MOL0     C34167   1.163   2.326  11.078 -0.1212  0.9345 -0.1903
  254MOL0     C34168   1.253   2.436  11.123 -0.2193  0.6274 -0.0140
  254MOL0     C34169   1.403   2.396  11.108 -0.3737 -0.4083  0.5388
  254MOL0     C34170   1.510   2.466  11.196  0.4016  0.4912  0.6663
  254MOL0     C34171   1.546   2.594  11.134  0.8439  0.1969  0.2434
  254MOL0     N34172   1.678   2.645  11.170  0.3165  0.6587 -0.5088
  254MOL0     C34173   1.718   2.773  11.171 -0.1484 -1.0121 -0.8611
  254MOL0     C34174   1.843   2.776  11.211  0.2550 -0.0540 -0.3968
  254MOL0     C34175   1.929   2.908  11.209  0.0671 -0.0020 -0.2070
  254MOL0     C34176   2.061   2.887  11.266  0.0230 -0.1151 -0.2045
  254MOL0     C34177   2.155   3.005  11.231  0.2681  0.3087 -0.7872
  254MOL0     C34178   2.284   2.992  11.314 -0.7125 -0.3008  0.3734
  254MOL0     O34179   2.363   3.112  11.286  0.6551  0.5131  0.1164
  254MOL0     C34180   2.502   3.106  11.306 -0.8570  0.0059 -0.0716
  254MOL0     C34181   2.553   3.202  11.393  0.2054 -0.4722 -0.6010
  254MOL0     C34182   2.680   3.194  11.449 -0.7687 -0.6220  0.4638
  254MOL0     C34183   2.772   3.088  11.413 -0.1604 -0.0589  0.0931
  254MOL0     C34184   2.916   3.075  11.457 -0.2924  0.9277  0.4868
  254MOL0     O34185   2.947   3.162  11.554 -0.3580 -0.2210  0.7514
  254MOL0     C34186   3.069   3.148  11.608  0.0345 -0.2602 -0.3521
  254MOL0     C34187   3.085   3.072  11.722 -0.5779  0.2731 -0.1463
  254MOL0     C34188   3.206   3.060  11.789 -0.1951 -0.6339  0.4107
  254MOL0     C34189   3.325   3.125  11.736 -0.7672 -0.3727  0.1604
  254MOL0     O34190   3.450   3.114  11.796  0.4288  0.6461 -0.2746
  254MOL0     C34191   3.488   2.991  11.868  1.5716  0.0999 -0.9061
  254MOL0     C34192   3.643   2.974  11.863 -0.8053  0.2995 -0.6624
  254MOL0     C34193   3.718   3.074  11.960  0.0617 -0.2200  0.9283
  254MOL0     C34194   3.871   3.043  11.965 -0.7103 -0.1400 -0.5944
  254MOL0     C34195   3.947   3.161  12.033  0.6576 -0.9543  0.7992
  254MOL0     C34196   4.089   3.133  12.031 -0.0221 -0.6431  0.1523
  254MOL0     C34197   4.157   3.257  12.086 -0.3287  0.2100  0.5835
  254MOL0     C34198   4.307   3.226  12.071 -0.6616 -0.5706 -0.0815
  254MOL0    Cl34199   4.370   3.085  12.149 -0.7395  0.0063 -0.6117
  254MOL0     C34200   3.314   3.200  11.621 -0.3041 -0.1363  0.2184
  254MOL0     C34201   3.187   3.213  11.560  0.6014  0.7278 -0.5360
  254MOL0     O34202   2.989   2.980  11.424 -0.3425 -0.0186 -0.2016
  254MOL0     C34203   2.722   2.993  11.317  0.8225  0.4512  0.3030
  254MOL0     C34204   2.584   2.993  11.275 -0.2391  0.2331 -0.4953
  254MOL0     N34205   1.878   2.649  11.244  0.0458 -0.2974  0.2369
  254MOL0     N34206   1.781   2.566  11.212 -0.8727 -0.5352 -0.0573
  254MOL0     C34207   0.579   2.479  10.910 -0.1157  0.6161  0.1972
  254MOL0     C34208   0.449   2.514  10.870 -0.1807  0.4309  0.4509
  254MOL0     C34209   0.049   2.492  10.724  0.4018  1.0347 -0.1922
  254MOL0     C34210   0.024   2.545  10.602  1.0845  0.1823  0.1670
  254MOL0     C34211  -0.103   2.607  10.566 -1.0528  0.6901 -0.1401
  254MOL0     C34212  -0.198   2.626  10.664 -0.6835  0.2964  0.1426
  254MOL0     O34213  -0.317   2.696  10.641 -0.1504 -0.0370  0.1377
  254MOL0     C34214  -0.427   2.680  10.732  0.0007 -0.3044 -0.2230
  254MOL0     C34215  -0.547   2.767  10.692 -0.1060 -0.0172 -0.1674
  254MOL0     C34216  -0.673   2.709  10.767 -0.7759 -0.1268 -0.3466
  254MOL0     C34217  -0.806   2.748  10.709 -1.1156 -1.3226 -0.0909
  254MOL0     C34218  -0.919   2.692  10.786 -0.7928  0.1250 -0.7274
  254MOL0     C34219  -1.008   2.657  10.844  0.3367  0.7859  0.4777
  254MOL0     C34220  -0.161   2.579  10.795  0.0689 -0.4996 -0.0616
  254MOL0     C34221  -0.040   2.520  10.830  0.1693 -0.2350 -0.2587
  254MOL0     C34222  -0.020   2.505  10.980 -0.6412 -0.1127 -0.1034
  254MOL0     H34223   0.443   2.291  10.605  2.4574 -0.1983 -1.4735
  254MOL0     H34224   0.672   2.270  10.655  0.0053  0.0033  0.7367
  254MOL0     H34225   0.859   2.550  10.793 -3.7899 -0.8473 -0.1133
  254MOL0     H34226   0.829   2.553  10.952 -1.1468  0.3034 -1.5164
  254MOL0     H34227   1.080   2.544  10.910  0.8302 -0.7787 -0.4448
  254MOL0     H34228   1.055   2.382  10.831  2.3105  1.0867 -1.2277
  254MOL0     H34229   0.956   2.295  11.039 -0.8625  0.6473 -0.0483
  254MOL0     H34230   0.983   2.440  11.125 -0.0942 -0.9800  0.4517
  254MOL0     H34231   1.155   2.260  11.165  1.1954  1.9623  0.7663
  254MOL0     H34232   1.206   2.271  10.994 -0.3729 -1.7688  1.3274
  254MOL0     H34233   1.232   2.529  11.069  1.3762  0.4756 -0.9777
  254MOL0     H34234   1.231   2.447  11.230 -0.7864 -0.6931  0.0109
  254MOL0     H34235   1.426   2.291  11.123  2.3203 -0.1093 -0.9744
  254MOL0     H34236   1.427   2.408  11.002 -0.3415 -1.4309  0.4281
  254MOL0     H34237   1.597   2.402  11.207 -0.3213 -0.7641 -0.5755
  254MOL0     H34238   1.470   2.469  11.297  0.8956  0.3307  0.8650
  254MOL0     H34239   1.545   2.595  11.025  1.6948  0.2440  0.2328
  254MOL0     H34240   1.468   2.660  11.173  0.4577 -1.0787  1.7482
  254MOL0     H34241   1.674   2.864  11.132 -2.7037 -2.2337 -1.0180
  254MOL0     H34242   1.940   2.934  11.104 -1.1689 -0.8633 -0.5640
  254MOL0     H34243   1.874   2.991  11.253 -2.3857 -1.1826 -0.9156
  254MOL0     H34244   2.054   2.880  11.375  2.1550  3.7653  0.3995
  254MOL0     H34245   2.098   2.788  11.239 -4.2001 -1.6503 -1.1291
  254MOL0     H34246   2.115   3.106  11.238  1.3697  0.8333 -1.6308
  254MOL0     H34247   2.182   2.994  11.125  1.1556 -0.7875 -0.4670
  254MOL0     H34248   2.335   2.898  11.293 -1.5990 -0.8251  0.4952
  254MOL0     H34249   2.268   2.988  11.422 -3.1503 -4.7317  0.0908
  254MOL0     H34250   2.499   3.285  11.439  2.7671  0.1627  1.5669
  254MOL0     H34251   2.691   3.282  11.512 -0.5176 -2.2341  2.8148
  254MOL0     H34252   2.995   3.016  11.746 -1.6720  2.0905  0.1992
  254MOL0     H34253   3.198   2.994  11.875 -2.5960 -1.6437 -0.5058
  254MOL0     H34254   3.440   2.987  11.966  1.7876 -1.8652 -0.8383
  254MOL0     H34255   3.451   2.898  11.823  2.5758 -0.0124 -1.5357
  254MOL0     H34256   3.669   2.877  11.907  2.8817  0.9741 -0.9651
  254MOL0     H34257   3.680   2.973  11.760 -1.8345  1.9336 -1.0806
  254MOL0     H34258   3.703   3.173  11.917  1.2461 -0.7486 -0.7847
  254MOL0     H34259   3.676   3.085  12.061  2.4326  1.1929  1.8635
  254MOL0     H34260   3.917   3.034  11.867 -0.9136 -0.1680 -0.6868
  254MOL0     H34261   3.888   2.953  12.025  2.3874 -0.0545 -1.2137
  254MOL0     H34262   3.919   3.188  12.136  0.6135  0.3589  0.4513
  254MOL0     H34263   3.933   3.251  11.973  3.8268  0.7273  2.3468
  254MOL0     H34264   4.111   3.043  12.089 -2.7827 -1.2611  0.3748
  254MOL0     H34265   4.121   3.124  11.926 -2.2337 -0.1993 -0.6123
  254MOL0     H34266   4.133   3.273  12.192 -2.3978  0.9031  0.0406
  254MOL0     H34267   4.137   3.349  12.031 -0.1578 -1.1956 -1.9651
  254MOL0     H34268   4.333   3.231  11.965 -0.2585 -0.3610  0.0244
  254MOL0     H34269   4.365   3.306  12.118  2.2885 -2.1150 -0.8254
  254MOL0     H34270   3.402   3.226  11.562 -0.0379 -1.4185  0.0263
  254MOL0     H34271   3.157   3.273  11.475 -2.3158  1.1217  0.6659
  254MOL0     H34272   2.777   2.908  11.277  0.0267  1.2714 -2.8638
  254MOL0     H34273   2.549   2.913  11.210  2.9592 -0.8152 -1.0774
  254MOL0     H34274   0.632   2.514  10.998  5.1583 -1.4724 -1.7653
  254MOL0     H34275   0.392   2.590  10.923  1.1718  0.7786  1.4835
  254MOL0     H34276   0.102   2.517  10.532  0.8289  0.7238 -0.3444
  254MOL0     H34277  -0.134   2.632  10.466  1.7586  0.7361 -1.0827
  254MOL0     H34278  -0.406   2.714  10.833  1.0736 -0.3037 -0.4382
  254MOL0     H34279  -0.454   2.574  10.743  0.5412 -0.3447  0.8073
  254MOL0     H34280  -0.565   2.774  10.584 -3.5283  0.1052  0.3113
  254MOL0     H34281  -0.525   2.866  10.734 -0.9825  0.3787 -0.6228
  254MOL0     H34282  -0.671   2.735  10.873 -0.1725  0.3076 -0.4580
  254MOL0     H34283  -0.664   2.600  10.770 -0.4560 -0.0867  3.1084
  254MOL0     H34284  -0.810   2.858  10.716  2.9156 -1.1340  3.3240
  254MOL0     H34285  -0.816   2.711  10.607 -2.6884 -1.8330  0.2188
  254MOL0     H34286  -1.096   2.617  10.890  0.1674 -0.1827 -0.6261
  254MOL0     H34287  -0.237   2.596  10.871  0.4668  0.1690  0.1921
  254MOL0     H34288  -0.058   2.406  11.008  0.6865 -1.4862 -2.8052
  254MOL0     H34289   0.083   2.517  11.014 -0.9085 -0.2970  0.7976
  254MOL0     H34290  -0.081   2.571  11.042 -2.0712 -1.1388 -0.3705
  255MOL0     O34291   7.470   7.859   1.877  0.3437  0.0740  0.1614
  255MOL0     C34292   7.412   7.861   1.768 -0.2866 -0.4136  0.3280
  255MOL0     O34293   7.470   7.833   1.651 -0.0075  0.2646  0.2030
  255MOL0     C34294   7.601   7.798   1.641 -0.1228 -0.4964  0.6885
  255MOL0     C34295   7.709   7.840   1.718 -0.1961  0.2964 -0.8931
  255MOL0     C34296   7.841   7.823   1.673  0.1153  0.3056  0.3095
  255MOL0     C34297   7.868   7.753   1.554 -0.2627 -0.1268 -0.4424
  255MOL0     O34298   7.994   7.740   1.501 -0.0521 -0.3705 -0.5934
  255MOL0     C34299   8.092   7.685   1.586  0.2695  0.6915  0.1489
  255MOL0     C34300   8.230   7.678   1.522 -0.1385  0.1875  0.9583
  255MOL0     C34301   8.335   7.622   1.619 -0.1976  0.2810 -0.7330
  255MOL0     C34302   8.473   7.653   1.568 -0.5451  0.3709 -0.4827
  255MOL0     C34303   8.580   7.605   1.668 -0.8612 -0.5102 -0.3211
  255MOL0     C34304   8.718   7.648   1.623 -1.0384 -0.1017 -1.5086
  255MOL0     C34305   8.827   7.623   1.734  0.6596 -0.5362  0.2002
  255MOL0     C34306   8.809   7.724   1.860  0.8733  0.4992  0.6422
  255MOL0     N34307   8.933   7.716   1.942 -0.6300 -0.4356  0.4045
  255MOL0     C34308   8.978   7.610   2.018  0.1384 -0.5858 -0.3864
  255MOL0     C34309   9.094   7.654   2.075 -0.1931 -1.2294  0.7505
  255MOL0     C34310   9.177   7.580   2.176 -0.9701 -0.6181 -0.4287
  255MOL0     C34311   9.295   7.501   2.104  0.2052 -0.3988  0.3903
  255MOL0     C34312   9.375   7.425   2.207  0.5474  0.3818  0.8452
  255MOL0     C34313   9.499   7.340   2.168 -0.3493  0.9409  0.2898
  255MOL0     O34314   9.564   7.398   2.058 -0.5545 -0.4792  0.5465
  255MOL0     C34315   9.677   7.479   2.078 -0.1468 -0.5704  0.1240
  255MOL0     C34316   9.720   7.536   2.197  0.2847 -0.0622  1.5668
  255MOL0     C34317   9.839   7.605   2.209 -0.2710  0.3337 -0.2627
  255MOL0     C34318   9.930   7.605   2.099 -0.0389  0.4947  0.8503
  255MOL0     C34319  10.062   7.664   2.117 -0.0962 -0.5836  1.1268
  255MOL0     O34320  10.152   7.629   2.019 -0.2901  0.4171 -0.6166
  255MOL0     C34321  10.287   7.639   2.026  0.3558  0.4123  0.4181
  255MOL0     C34322  10.361   7.725   2.110  0.3576 -0.6233 -0.2419
  255MOL0     C34323  10.502   7.729   2.093 -0.1689 -0.3490  1.0807
  255MOL0     C34324  10.566   7.664   1.988 -0.3020  0.2494 -0.3322
  255MOL0     O34325  10.699   7.668   1.978 -0.9380  0.3777 -0.5959
  255MOL0     C34326  10.755   7.721   1.856 -0.4163 -0.7325 -0.1593
  255MOL0     C34327  10.717   7.868   1.822  0.2428  0.6899  0.0932
  255MOL0     C34328  10.780   7.906   1.686  0.6094 -0.2238 -0.6839
  255MOL0     C34329  10.932   7.910   1.682 -1.0490 -0.1093 -0.8340
  255MOL0     C34330  11.022   7.977   1.575  0.5189 -0.2113 -0.5182
  255MOL0     C34331  11.084   8.098   1.644  0.9960  0.1287 -0.0992
  255MOL0     C34332  11.156   8.188   1.540  0.0848 -0.0808  0.5912
  255MOL0     C34333  11.304   8.138   1.509  0.4072  0.0587  0.3589
  255MOL0    Cl34334  11.315   7.980   1.435 -0.1527 -0.0500  0.1648
  255MOL0     C34335  10.493   7.577   1.910  1.3209  0.1503  0.3121
  255MOL0     C34336  10.357   7.572   1.918 -0.2586  0.3192 -0.2876
  255MOL0     O34337  10.090   7.749   2.206  0.7825  0.9248  0.2467
  255MOL0     C34338   9.891   7.562   1.973 -0.2370  0.2798 -0.2371
  255MOL0     C34339   9.759   7.499   1.971  0.3883 -0.5139  0.3755
  255MOL0     N34340   9.119   7.779   2.033  0.1159 -0.3148  0.2552
  255MOL0     N34341   9.021   7.813   1.951 -0.5375  0.6254 -0.0438
  255MOL0     C34342   7.760   7.703   1.485 -0.2472 -0.3529  1.0866
  255MOL0     C34343   7.631   7.724   1.529 -0.6926 -0.0722 -0.0165
  255MOL0     C34344   7.278   7.921   1.759 -0.3330 -0.1125  0.4695
  255MOL0     C34345   7.176   7.855   1.690  0.1085  0.5637  0.2787
  255MOL0     C34346   7.045   7.901   1.686  0.1974  0.8192 -0.1919
  255MOL0     C34347   7.006   8.024   1.739 -0.0185 -0.7662 -1.2885
  255MOL0     O34348   6.879   8.064   1.729  0.0529  0.5022 -0.1105
  255MOL0     C34349   6.831   8.171   1.817  0.1038  0.4612 -0.3221
  255MOL0     C34350   6.674   8.181   1.826  0.1859 -0.3149 -0.2020
  255MOL0     C34351   6.600   8.048   1.854  0.3720  0.0542 -0.2421
  255MOL0     C34352   6.455   8.059   1.832  0.0063 -0.3032  0.0623
  255MOL0     C34353   6.393   8.152   1.927 -0.2137 -0.5286 -0.3083
  255MOL0     C34354   6.351   8.233   2.006 -0.0389 -0.2020 -0.1698
  255MOL0     C34355   7.112   8.102   1.803  0.8499  0.4949 -0.5021
  255MOL0     C34356   7.239   8.045   1.815  0.0417  0.1398 -0.0404
  255MOL0     C34357   7.340   8.138   1.880  0.3582 -0.3520  0.4179
  255MOL0     H34358   7.703   7.906   1.804 -2.4102 -2.3611  1.2038
  255MOL0     H34359   7.931   7.859   1.721 -0.0998  0.2914  0.7299
  255MOL0     H34360   8.099   7.739   1.680  0.5562 -1.0588  1.1752
  255MOL0     H34361   8.066   7.580   1.603  0.2688  0.6189 -0.2769
  255MOL0     H34362   8.259   7.779   1.492  1.4744  0.0255  1.8558
  255MOL0     H34363   8.219   7.617   1.432  0.1712  0.7672  0.5227
  255MOL0     H34364   8.324   7.518   1.652  1.9645  0.6968  1.6755
  255MOL0     H34365   8.311   7.672   1.714 -2.8848 -0.7892 -0.7725
  255MOL0     H34366   8.495   7.621   1.466  1.1377  0.5914 -0.2117
  255MOL0     H34367   8.484   7.762   1.565  1.1365  0.1983 -1.9849
  255MOL0     H34368   8.573   7.642   1.770 -1.2898 -0.7310 -0.2658
  255MOL0     H34369   8.578   7.495   1.669  0.2140 -0.5491 -0.9624
  255MOL0     H34370   8.750   7.588   1.538  3.6423 -2.8341  1.7516
  255MOL0     H34371   8.719   7.753   1.594 -0.4082 -0.0177 -1.1861
  255MOL0     H34372   8.919   7.657   1.686  1.9417  1.2856  3.5488
  255MOL0     H34373   8.836   7.519   1.767 -3.3314 -0.7888  0.9947
  255MOL0     H34374   8.790   7.828   1.833 -0.6987 -0.0400 -0.4705
  255MOL0     H34375   8.720   7.694   1.915 -1.3501 -0.5032 -3.1200
  255MOL0     H34376   8.917   7.524   2.040 -1.5800  1.0667  1.8244
  255MOL0     H34377   9.212   7.662   2.239 -0.2705 -1.5899  0.4956
  255MOL0     H34378   9.115   7.511   2.233 -1.0708  0.3299  0.6361
  255MOL0     H34379   9.243   7.443   2.027 -0.7025  2.7187 -1.5206
  255MOL0     H34380   9.343   7.578   2.044 -1.4078  1.3440  1.2297
  255MOL0     H34381   9.308   7.350   2.249 -0.9699 -1.3823 -4.0036
  255MOL0     H34382   9.418   7.505   2.268  0.4695  2.1657 -1.2895
  255MOL0     H34383   9.470   7.238   2.140 -0.5862  0.7404  1.2253
  255MOL0     H34384   9.573   7.329   2.248  1.7521  4.2474 -1.0045
  255MOL0     H34385   9.650   7.526   2.280 -2.7930 -0.0464 -0.8626
  255MOL0     H34386   9.876   7.643   2.304  1.9409 -0.1330 -0.8716
  255MOL0     H34387  10.310   7.785   2.184 -2.1184  0.1376 -2.4288
  255MOL0     H34388  10.558   7.797   2.156 -0.7525 -0.2994  1.5513
  255MOL0     H34389  10.863   7.733   1.869 -0.2007 -1.7547 -0.8507
  255MOL0     H34390  10.717   7.657   1.776 -0.2236  0.9412 -1.6502
  255MOL0     H34391  10.608   7.883   1.819  0.2403  0.9387 -3.5347
  255MOL0     H34392  10.765   7.931   1.897 -0.5727 -1.1740  2.2892
  255MOL0     H34393  10.751   7.834   1.610  0.9172  0.5786 -1.5736
  255MOL0     H34394  10.737   8.004   1.664 -0.3831 -0.4375  0.1694
  255MOL0     H34395  10.956   7.805   1.663 -2.5578 -0.1219 -3.0583
  255MOL0     H34396  10.963   7.943   1.782 -0.7196  1.3943 -1.4189
  255MOL0     H34397  10.952   8.016   1.501  0.5429  1.3673  0.2488
  255MOL0     H34398  11.090   7.914   1.517  1.3429 -0.1289  0.3208
  255MOL0     H34399  11.007   8.161   1.690 -1.2903 -1.2242 -1.8764
  255MOL0     H34400  11.146   8.072   1.730 -1.9671  0.4869  2.3223
  255MOL0     H34401  11.159   8.291   1.576 -0.7319  0.8004 -1.6573
  255MOL0     H34402  11.090   8.195   1.453  2.1319 -1.7047 -1.2094
  255MOL0     H34403  11.359   8.214   1.451  2.6449 -2.5260 -1.1557
  255MOL0     H34404  11.353   8.136   1.607  2.7739  1.4832 -0.6811
  255MOL0     H34405  10.542   7.503   1.847  0.5262 -1.9436  2.0598
  255MOL0     H34406  10.300   7.517   1.844  0.8809 -0.6840 -0.4402
  255MOL0     H34407   9.954   7.550   1.885  3.9607 -2.2743  2.7777
  255MOL0     H34408   9.718   7.460   1.878  0.8654  1.3078 -0.6618
  255MOL0     H34409   7.784   7.639   1.401 -0.0975 -1.6865  2.1133
  255MOL0     H34410   7.556   7.686   1.460 -0.4502  1.4706 -1.1705
  255MOL0     H34411   7.190   7.754   1.652  2.2851  1.2528 -0.9514
  255MOL0     H34412   6.975   7.844   1.626  1.3611 -1.6562  0.6683
  255MOL0     H34413   6.869   8.268   1.781 -0.1334  0.5980 -0.2075
  255MOL0     H34414   6.872   8.164   1.919 -0.6674  1.3546  0.0698
  255MOL0     H34415   6.648   8.207   1.722 -0.1339 -0.0732 -0.0661
  255MOL0     H34416   6.638   8.256   1.898  1.3894 -0.0995  0.1863
  255MOL0     H34417   6.619   8.030   1.960 -2.5428  1.8066  0.6941
  255MOL0     H34418   6.645   7.971   1.791  3.0266  0.9766  0.3565
  255MOL0     H34419   6.445   8.102   1.732 -0.1492 -1.1268 -0.2773
  255MOL0     H34420   6.416   7.957   1.834 -1.3638  0.1488 -1.6180
  255MOL0     H34421   6.311   8.320   2.054  3.3488  1.9902 -0.9956
  255MOL0     H34422   7.101   8.192   1.862  3.1729  1.1991 -1.0718
  255MOL0     H34423   7.295   8.192   1.964  1.8606 -0.3470  1.2550
  255MOL0     H34424   7.426   8.098   1.934  1.2615  1.8584  0.7061
  255MOL0     H34425   7.381   8.209   1.807  0.0603 -1.1684 -0.5694
  256MOL0     O34426   4.038   2.862  11.023  0.0476  0.1070 -0.1628
  256MOL0     C34427   3.978   2.937  11.096 -1.1317 -0.0191 -0.4567
  256MOL0     O34428   4.025   3.059  11.143 -0.0120  0.4906  0.0351
  256MOL0     C34429   4.146   3.102  11.109 -0.4814  0.0654 -0.0277
  256MOL0     C34430   4.255   3.041  11.161 -0.3915  0.0362 -0.3652
  256MOL0     C34431   4.375   3.095  11.126  0.1713 -1.2226 -0.6790
  256MOL0     C34432   4.384   3.207  11.043  0.6578  0.0407  0.5110
  256MOL0     O34433   4.503   3.260  11.015  0.3407 -0.5233 -0.6878
  256MOL0     C34434   4.603   3.168  10.963 -0.2339 -0.3551  0.0359
  256MOL0     C34435   4.713   3.244  10.900 -0.3815  0.3437  0.4015
  256MOL0     C34436   4.835   3.293  10.989  0.2328  0.0528 -0.5224
  256MOL0     C34437   4.938   3.349  10.898 -1.2422 -0.0081  0.6011
  256MOL0     C34438   5.049   3.397  10.976  0.3085 -0.1998 -0.3010
  256MOL0     C34439   5.159   3.429  10.876  0.2551  0.4147 -0.5894
  256MOL0     C34440   5.285   3.488  10.942  0.3755 -1.0357  0.0321
  256MOL0     C34441   5.404   3.495  10.848 -0.6300  0.0294 -0.5139
  256MOL0     N34442   5.379   3.578  10.729  0.4184  0.4337  0.2124
  256MOL0     C34443   5.369   3.522  10.603 -0.5057  0.1083 -0.2998
  256MOL0     C34444   5.373   3.632  10.519  0.3416  0.2928  0.1954
  256MOL0     C34445   5.349   3.636  10.365  0.0663 -1.4051  0.4198
  256MOL0     C34446   5.441   3.540  10.272 -0.3532  0.0107 -0.5588
  256MOL0     C34447   5.568   3.610  10.242  0.0660 -0.0532  0.3665
  256MOL0     C34448   5.669   3.522  10.162 -0.4247  0.6329 -0.0720
  256MOL0     O34449   5.794   3.594  10.179  0.0175 -0.5519  0.4198
  256MOL0     C34450   5.910   3.534  10.134  0.7769 -0.1808 -0.8092
  256MOL0     C34451   5.916   3.434  10.037 -0.0649  0.1491 -0.4377
  256MOL0     C34452   6.040   3.385   9.993  0.4042 -0.0733 -0.0980
  256MOL0     C34453   6.164   3.421  10.049 -0.1311  0.7643  0.5749
  256MOL0     C34454   6.293   3.362  10.000 -0.3638  0.0576 -0.2916
  256MOL0     O34455   6.405   3.372  10.081 -0.0615 -0.0225  0.0123
  256MOL0     C34456   6.533   3.330  10.046 -0.2794 -0.6482 -0.4044
  256MOL0     C34457   6.574   3.266   9.924 -0.4248 -0.8207  0.3752
  256MOL0     C34458   6.706   3.227   9.899 -0.6035 -0.6774 -0.6431
  256MOL0     C34459   6.806   3.252   9.998 -0.1752 -1.4449 -0.4911
  256MOL0     O34460   6.928   3.200   9.992 -0.0998 -0.2808 -0.0254
  256MOL0     C34461   6.949   3.085   9.917 -0.0297  0.2797  0.3931
  256MOL0     C34462   7.057   3.000   9.989 -0.4501  0.2752 -0.2197
  256MOL0     C34463   7.190   3.087   9.990 -0.5575 -0.3807  0.0831
  256MOL0     C34464   7.318   2.998   9.998 -0.1423 -0.1638 -0.1168
  256MOL0     C34465   7.446   3.079   9.960  0.3785  0.2044  0.6265
  256MOL0     C34466   7.562   2.977   9.962 -0.0853  0.3506  0.0752
  256MOL0     C34467   7.690   3.049   9.907  0.4072 -0.5464  0.3908
  256MOL0     C34468   7.667   3.110   9.765 -0.2539  0.3994 -0.3906
  256MOL0    Cl34469   7.831   3.128   9.688 -0.0159  0.3061 -0.0490
  256MOL0     C34470   6.764   3.308  10.120 -0.0251  0.4699  0.2395
  256MOL0     C34471   6.628   3.350  10.139 -0.6135 -0.5449 -0.1800
  256MOL0     O34472   6.292   3.323   9.885 -0.3955  0.6605  0.2059
  256MOL0     C34473   6.155   3.512  10.152 -0.7420 -0.4264  0.1811
  256MOL0     C34474   6.036   3.571  10.194  0.2688  0.2262  0.0524
  256MOL0     N34475   5.379   3.744  10.602 -0.4846  0.1255 -0.7310
  256MOL0     N34476   5.392   3.711  10.722 -0.1092 -0.2096  0.6911
  256MOL0     C34477   4.266   3.271  10.992  0.6199  0.4168 -0.5165
  256MOL0     C34478   4.146   3.213  11.034  0.0779 -0.1461 -0.0375
  256MOL0     C34479   3.860   2.876  11.160 -0.3201 -0.1687 -1.0105
  256MOL0     C34480   3.835   2.914  11.296 -0.1496 -0.1779  0.6608
  256MOL0     C34481   3.706   2.893  11.348  0.2861 -0.1847 -0.3202
  256MOL0     C34482   3.607   2.810  11.291  0.0213  0.2085  0.3091
  256MOL0     O34483   3.483   2.779  11.343 -0.3406 -0.2937 -0.0876
  256MOL0     C34484   3.444   2.823  11.473 -0.7926  0.2391  0.2856
  256MOL0     C34485   3.299   2.801  11.514 -0.4299 -0.4502 -0.1347
  256MOL0     C34486   3.262   2.648  11.490  0.0665  0.0564 -0.1040
  256MOL0     C34487   3.113   2.629  11.535  0.1968 -0.3150 -0.8945
  256MOL0     C34488   3.107   2.638  11.681 -0.2578  0.1911 -0.3354
  256MOL0     C34489   3.090   2.652  11.799 -1.0029 -0.8802  0.2602
  256MOL0     C34490   3.643   2.762  11.164 -0.5640  0.4317  0.6735
  256MOL0     C34491   3.760   2.801  11.094 -0.0447  0.3532  0.0243
  256MOL0     C34492   3.768   2.766  10.945 -0.0285  0.2684 -0.1519
  256MOL0     H34493   4.249   2.952  11.222 -0.0870  0.5945  0.4851
  256MOL0     H34494   4.468   3.057  11.167 -0.0359 -1.4408 -0.4057
  256MOL0     H34495   4.651   3.111  11.044  1.7898  2.4419  0.9764
  256MOL0     H34496   4.564   3.102  10.885  0.4406 -0.1604 -0.4778
  256MOL0     H34497   4.668   3.327  10.845  0.6686  0.5297 -0.1977
  256MOL0     H34498   4.751   3.175  10.825 -2.7900 -0.0627 -0.5410
  256MOL0     H34499   4.872   3.215  11.056 -0.3215 -0.1737 -0.4709
  256MOL0     H34500   4.791   3.377  11.044 -1.6606 -1.8671  1.1155
  256MOL0     H34501   4.967   3.275  10.823 -3.5384 -0.3442 -0.0213
  256MOL0     H34502   4.888   3.427  10.839 -0.9975 -0.8220 -0.7426
  256MOL0     H34503   5.026   3.485  11.037  2.1225  1.8705 -2.3944
  256MOL0     H34504   5.083   3.315  11.041  1.1695  0.8148  0.5749
  256MOL0     H34505   5.190   3.335  10.830  0.1248  0.5195 -0.8952
  256MOL0     H34506   5.114   3.496  10.802  0.5884  3.2306  1.5859
  256MOL0     H34507   5.312   3.440  11.037 -1.2230 -1.8583  0.1169
  256MOL0     H34508   5.263   3.593  10.966  0.4661 -1.0524  0.1913
  256MOL0     H34509   5.492   3.534  10.901  0.7582 -0.2531 -2.5196
  256MOL0     H34510   5.427   3.391  10.822 -1.7561 -0.2601 -0.3990
  256MOL0     H34511   5.362   3.422  10.561 -1.6986  0.4510 -0.9704
  256MOL0     H34512   5.246   3.608  10.340  0.2457  0.8655 -3.6085
  256MOL0     H34513   5.347   3.739  10.330 -0.1181 -1.2824  0.7930
  256MOL0     H34514   5.466   3.449  10.328 -1.7596 -0.6167 -0.8912
  256MOL0     H34515   5.380   3.509  10.187  0.0788 -1.4420 -0.3608
  256MOL0     H34516   5.611   3.641  10.338  1.4412 -1.7869  0.3394
  256MOL0     H34517   5.549   3.695  10.176 -2.5886 -1.6935 -1.1375
  256MOL0     H34518   5.636   3.506  10.059 -1.0182  0.2881  0.1647
  256MOL0     H34519   5.684   3.424  10.208 -0.1293  0.3934 -0.6697
  256MOL0     H34520   5.825   3.401   9.988 -0.6433 -2.3319  2.0234
  256MOL0     H34521   6.035   3.304   9.922 -0.7286 -0.4292  0.3794
  256MOL0     H34522   6.496   3.246   9.852  1.8787 -0.2636 -2.4422
  256MOL0     H34523   6.735   3.176   9.807  0.0191 -1.6256  0.0593
  256MOL0     H34524   6.864   3.018   9.905  0.2938  0.3915 -4.0222
  256MOL0     H34525   6.987   3.116   9.819  3.1674  1.5563  1.8795
  256MOL0     H34526   7.016   2.968  10.085 -3.5084  1.3955 -1.0193
  256MOL0     H34527   7.065   2.910   9.926  0.8437  1.0674 -1.2220
  256MOL0     H34528   7.199   3.150   9.901  0.2306  1.2541  1.2677
  256MOL0     H34529   7.183   3.152  10.077 -0.5303 -2.1521  1.4541
  256MOL0     H34530   7.310   2.913   9.930  1.7663  0.0013 -0.6079
  256MOL0     H34531   7.325   2.956  10.099  1.9721 -2.1919 -1.0137
  256MOL0     H34532   7.445   3.160  10.034  0.1855 -1.7103  2.8020
  256MOL0     H34533   7.430   3.122   9.860 -1.4915  1.1060  1.2626
  256MOL0     H34534   7.594   2.949  10.062  2.0041  2.8694  0.2124
  256MOL0     H34535   7.540   2.890   9.899 -2.1937  2.0067 -1.6374
  256MOL0     H34536   7.772   2.977   9.907  1.8659  1.0339  0.1977
  256MOL0     H34537   7.714   3.132   9.975  0.6452  1.5910 -2.1274
  256MOL0     H34538   7.610   3.046   9.697 -3.1281  2.7064 -0.3798
  256MOL0     H34539   7.618   3.207   9.774 -2.3384 -0.4046 -2.2727
  256MOL0     H34540   6.830   3.309  10.206  1.9604 -1.7701 -1.1446
  256MOL0     H34541   6.594   3.384  10.237 -2.6654 -1.2788 -0.5854
  256MOL0     H34542   6.245   3.550  10.198 -2.6593  1.4847  2.6384
  256MOL0     H34543   6.060   3.642  10.272  2.6224  0.4470 -0.7945
  256MOL0     H34544   4.279   3.359  10.931 -1.9942  2.0658  1.0763
  256MOL0     H34545   4.052   3.255  11.002 -0.0133 -1.0077 -0.9455
  256MOL0     H34546   3.905   2.983  11.342  0.6273  1.3562 -2.5562
  256MOL0     H34547   3.677   2.940  11.442  1.5740 -1.1457  0.5950
  256MOL0     H34548   3.458   2.932  11.472  1.3300 -0.0020 -0.0588
  256MOL0     H34549   3.509   2.779  11.549 -0.6878 -0.3911 -0.1719
  256MOL0     H34550   3.245   2.863  11.442  0.3869 -0.9973 -1.2378
  256MOL0     H34551   3.281   2.837  11.616  1.2749 -0.3078  0.1421
  256MOL0     H34552   3.321   2.575  11.546  0.0926  0.1202 -0.0498
  256MOL0     H34553   3.263   2.628  11.383 -6.0959 -4.4025  0.1242
  256MOL0     H34554   3.044   2.697  11.484  0.3316  0.7557  0.2985
  256MOL0     H34555   3.080   2.529  11.506  0.8122 -0.6559 -0.4429
  256MOL0     H34556   3.070   2.667  11.903 -0.2658  1.7022  0.0905
  256MOL0     H34557   3.565   2.720  11.101  0.0574  0.5584 -0.1899
  256MOL0     H34558   3.836   2.681  10.932  1.9660  1.3687  2.2787
  256MOL0     H34559   3.666   2.750  10.909 -0.5571  0.5842  1.1303
  256MOL0     H34560   3.812   2.852  10.894  0.6681 -0.8540 -1.4991
  257MOL0     O34561   0.591   9.029   3.425  0.5250  0.0024  0.1752
  257MOL0     C34562   0.587   9.144   3.465 -0.9272 -0.0359  0.0643
  257MOL0     O34563   0.684   9.193   3.548  0.7218 -0.2612  0.2071
  257MOL0     C34564   0.767   9.111   3.612  0.3805 -0.1464 -0.3623
  257MOL0     C34565   0.739   8.974   3.662  1.1399 -0.4918 -0.9918
  257MOL0     C34566   0.839   8.902   3.730 -0.0393  0.0197  0.2390
  257MOL0     C34567   0.973   8.954   3.760 -0.4465  0.0368 -0.5243
  257MOL0     O34568   1.080   8.886   3.820 -0.0544  0.7581 -0.1334
  257MOL0     C34569   1.054   8.807   3.945 -0.4399 -0.2364 -0.2751
  257MOL0     C34570   1.007   8.666   3.920  0.0501  0.4076 -0.3605
  257MOL0     C34571   1.090   8.562   3.836 -0.0646 -0.4959  0.1190
  257MOL0     C34572   1.245   8.581   3.837 -0.7699 -0.1478  0.0951
  257MOL0     C34573   1.315   8.485   3.737  0.2977  0.1419 -0.6871
  257MOL0     C34574   1.469   8.514   3.746  0.5789  0.1244 -0.3487
  257MOL0     C34575   1.550   8.428   3.652  0.0164  0.1344 -0.7154
  257MOL0     C34576   1.706   8.460   3.676  0.8298 -0.3493 -0.2803
  257MOL0     N34577   1.789   8.408   3.565 -0.0052  0.1362  0.4847
  257MOL0     C34578   1.846   8.282   3.554 -0.1842  0.2659 -0.3888
  257MOL0     C34579   1.895   8.278   3.428  0.2789  0.6015  0.3122
  257MOL0     C34580   1.974   8.153   3.379 -0.4338 -0.2884 -0.2219
  257MOL0     C34581   2.091   8.120   3.463 -0.6498 -0.1562 -0.2118
  257MOL0     C34582   2.192   8.036   3.390 -1.2354 -0.4258 -0.5229
  257MOL0     C34583   2.301   7.986   3.486 -0.8146 -0.3054 -0.5355
  257MOL0     O34584   2.411   8.083   3.475  0.4118  0.5470 -0.3881
  257MOL0     C34585   2.543   8.039   3.513 -0.6581  0.3067 -0.2028
  257MOL0     C34586   2.573   7.937   3.606  0.0387 -0.0753  0.1885
  257MOL0     C34587   2.699   7.908   3.654 -0.0777  0.0015 -0.0433
  257MOL0     C34588   2.808   7.973   3.586  0.0782 -0.4473 -0.5716
  257MOL0     C34589   2.948   7.939   3.628 -0.1767 -0.3427  0.6089
  257MOL0     O34590   3.043   8.003   3.539 -0.1348  0.5972 -0.2353
  257MOL0     C34591   3.177   7.985   3.568  0.8692 -0.0125 -0.5291
  257MOL0     C34592   3.247   8.097   3.626 -0.1515 -0.5556  0.4099
  257MOL0     C34593   3.370   8.064   3.687 -0.2925 -0.8261 -0.4358
  257MOL0     C34594   3.423   7.942   3.692  0.3129  0.3281  0.5438
  257MOL0     O34595   3.547   7.902   3.737  0.7680 -0.7896 -0.7843
  257MOL0     C34596   3.632   8.005   3.771 -0.1643  0.1336 -0.3953
  257MOL0     C34597   3.779   7.948   3.774 -0.5074 -0.1041  0.0318
  257MOL0     C34598   3.875   8.034   3.849  1.0709 -0.9539 -1.0744
  257MOL0     C34599   4.009   7.956   3.865  0.2329  0.4945 -0.1851
  257MOL0     C34600   4.109   8.009   3.970 -0.6244  0.3401 -0.3654
  257MOL0     C34601   4.258   7.978   3.934  0.0812  0.5706  0.2922
  257MOL0     C34602   4.357   8.041   4.039  0.0861  0.1499  0.2799
  257MOL0     C34603   4.488   8.061   3.971  0.2531  0.2333  0.4192
  257MOL0    Cl34604   4.600   8.142   4.091 -0.1111  0.4167 -0.2715
  257MOL0     C34605   3.352   7.840   3.627 -0.4778 -0.4725 -0.2840
  257MOL0     C34606   3.230   7.857   3.567 -0.1111 -0.1319  0.4822
  257MOL0     O34607   2.971   7.866   3.726 -1.3403 -0.0533 -0.3828
  257MOL0     C34608   2.785   8.071   3.489  0.8191  0.1339  0.3030
  257MOL0     C34609   2.656   8.116   3.464 -0.1274  0.1637 -0.4958
  257MOL0     N34610   1.871   8.388   3.359  0.0128 -0.4612 -0.3936
  257MOL0     N34611   1.807   8.468   3.443  0.6929 -0.9318  0.0354
  257MOL0     C34612   1.003   9.086   3.707 -0.3494 -0.0443  0.4101
  257MOL0     C34613   0.900   9.162   3.641 -0.3795  0.3583 -0.6018
  257MOL0     C34614   0.484   9.239   3.422 -0.4703  0.1146  0.0350
  257MOL0     C34615   0.511   9.374   3.453  0.8150  0.2623 -1.0906
  257MOL0     C34616   0.424   9.471   3.403 -0.4203 -0.2366 -0.0407
  257MOL0     C34617   0.321   9.438   3.330  0.9612  0.6337 -0.2638
  257MOL0     O34618   0.263   9.546   3.268  0.8274 -0.3050  0.2450
  257MOL0     C34619   0.157   9.592   3.347  0.7171 -0.1303  0.3692
  257MOL0     C34620   0.074   9.708   3.281 -0.4340  0.0103  0.0183
  257MOL0     C34621   0.057   9.683   3.132 -0.1945 -0.0442  0.7903
  257MOL0     C34622  -0.025   9.791   3.051 -1.3354 -0.1632  0.3440
  257MOL0     C34623  -0.152   9.823   3.106 -0.2576 -0.4373 -0.4174
  257MOL0     C34624  -0.262   9.852   3.152 -0.6604  0.3434  0.0451
  257MOL0     C34625   0.293   9.299   3.295 -0.5302 -0.2525 -0.0098
  257MOL0     C34626   0.371   9.195   3.350  0.4946  0.2447  0.3662
  257MOL0     C34627   0.336   9.054   3.303  0.3254  0.4072 -0.5825
  257MOL0     H34628   0.641   8.929   3.658  1.0546 -0.2474 -1.9060
  257MOL0     H34629   0.813   8.802   3.762  0.9261 -0.4530 -0.4337
  257MOL0     H34630   1.141   8.796   4.010  0.4064  0.9921 -1.1373
  257MOL0     H34631   0.978   8.859   4.004 -1.3472 -3.7578  1.9308
  257MOL0     H34632   0.901   8.671   3.893 -0.2248 -0.7044  0.4247
  257MOL0     H34633   1.008   8.627   4.022  1.3565 -0.3071 -0.6165
  257MOL0     H34634   1.059   8.576   3.732 -2.7659 -0.9382  0.7849
  257MOL0     H34635   1.067   8.457   3.858  0.9640 -0.5125  1.1780
  257MOL0     H34636   1.263   8.687   3.820  0.9339  0.2739  3.5027
  257MOL0     H34637   1.278   8.563   3.940  1.7987 -0.1306 -0.6719
  257MOL0     H34638   1.280   8.384   3.759  1.1343 -0.1399 -0.6498
  257MOL0     H34639   1.291   8.501   3.631 -0.5836 -2.6040 -0.9748
  257MOL0     H34640   1.503   8.618   3.739 -0.7572  0.6436  0.2828
  257MOL0     H34641   1.498   8.476   3.844  1.7396 -0.2289 -0.8195
  257MOL0     H34642   1.527   8.458   3.549 -2.9340  0.0907 -0.1576
  257MOL0     H34643   1.530   8.322   3.672 -0.7775  0.8725  3.1935
  257MOL0     H34644   1.710   8.566   3.699  1.0321 -0.6130  1.0150
  257MOL0     H34645   1.736   8.402   3.764 -1.6612  1.4839  1.9276
  257MOL0     H34646   1.843   8.197   3.622  0.8663 -2.2706 -3.2789
  257MOL0     H34647   1.908   8.067   3.365  0.8541 -1.3387 -0.0117
  257MOL0     H34648   2.018   8.176   3.282  0.1834 -1.4733 -0.2401
  257MOL0     H34649   2.147   8.211   3.485  1.9252 -1.1026 -2.3740
  257MOL0     H34650   2.062   8.069   3.556 -0.7271 -1.5127 -0.9654
  257MOL0     H34651   2.246   8.077   3.304 -0.5991 -1.8197 -0.8149
  257MOL0     H34652   2.127   7.957   3.350  0.9933 -3.5477  1.5020
  257MOL0     H34653   2.341   7.890   3.451 -0.5693  0.5318 -2.6667
  257MOL0     H34654   2.268   7.982   3.591  1.5985  0.4938  0.3147
  257MOL0     H34655   2.489   7.894   3.660 -0.4548  0.8404  0.1765
  257MOL0     H34656   2.713   7.836   3.734  0.4764  0.8050  0.6009
  257MOL0     H34657   3.213   8.198   3.642 -2.3650 -0.8782 -1.8021
  257MOL0     H34658   3.410   8.150   3.740 -1.6476 -0.3587 -0.1116
  257MOL0     H34659   3.631   8.090   3.702 -1.0716 -0.1305 -0.7236
  257MOL0     H34660   3.599   8.043   3.868  1.9427  0.9955  0.0318
  257MOL0     H34661   3.773   7.849   3.820 -0.5647 -0.8855 -1.5844
  257MOL0     H34662   3.816   7.938   3.672 -1.1139  0.3931 -0.2448
  257MOL0     H34663   3.889   8.122   3.787 -0.8195 -0.8789 -1.4367
  257MOL0     H34664   3.833   8.053   3.948 -0.1865 -2.1183 -1.3553
  257MOL0     H34665   4.053   7.941   3.766 -1.8970 -0.3467 -1.0772
  257MOL0     H34666   3.980   7.855   3.897 -1.5481 -0.2810 -3.7742
  257MOL0     H34667   4.083   7.961   4.065  2.0679 -1.5382 -0.4874
  257MOL0     H34668   4.116   8.118   3.979 -2.8501  0.4863  0.3535
  257MOL0     H34669   4.274   7.869   3.932  2.8777  0.8645  1.5744
  257MOL0     H34670   4.268   8.014   3.831  0.4280 -2.3238 -0.8028
  257MOL0     H34671   4.361   7.963   4.116  1.0449 -0.8571 -0.7531
  257MOL0     H34672   4.319   8.136   4.079 -1.5347  0.1771 -1.1932
  257MOL0     H34673   4.531   7.966   3.937 -0.8614  0.5351 -1.9994
  257MOL0     H34674   4.474   8.127   3.885 -2.6354 -1.8691 -0.8811
  257MOL0     H34675   3.404   7.745   3.633  0.0682 -0.1908 -0.5403
  257MOL0     H34676   3.189   7.771   3.515  1.1678 -1.0982  0.9989
  257MOL0     H34677   2.860   8.123   3.430  0.4645 -1.4777 -1.6830
  257MOL0     H34678   2.636   8.205   3.406  1.3709  1.2099  0.5432
  257MOL0     H34679   1.099   9.136   3.722 -1.4765  1.5120  3.1179
  257MOL0     H34680   0.927   9.252   3.587 -1.3247 -1.2158 -4.0139
  257MOL0     H34681   0.594   9.400   3.518 -1.3281 -0.7748  2.2900
  257MOL0     H34682   0.434   9.577   3.419  3.4697 -0.2784 -1.1972
  257MOL0     H34683   0.192   9.623   3.446  0.4158 -1.6493  0.9837
  257MOL0     H34684   0.091   9.509   3.372  1.0317 -1.5875 -3.0632
  257MOL0     H34685   0.126   9.804   3.290 -1.4696  0.8304 -2.2009
  257MOL0     H34686  -0.023   9.720   3.331  0.3956  1.2284  1.4109
  257MOL0     H34687   0.005   9.588   3.117 -1.4671  0.5307  1.4120
  257MOL0     H34688   0.156   9.676   3.086  0.0695  3.1108  0.6472
  257MOL0     H34689   0.029   9.885   3.032 -1.3300 -0.8660 -4.1964
  257MOL0     H34690  -0.033   9.743   2.953 -0.5143 -2.0582  1.1719
  257MOL0     H34691  -0.357   9.859   3.201 -0.4000  2.4463  0.3425
  257MOL0     H34692   0.220   9.291   3.216  0.6565  3.3166 -1.6657
  257MOL0     H34693   0.238   9.062   3.256 -0.2593 -2.5650 -0.0821
  257MOL0     H34694   0.390   9.002   3.223  0.2609 -1.6836  0.6346
  257MOL0     H34695   0.324   8.997   3.396  1.2184  2.5479  0.9145
  258MOL0     O34696   4.061   9.119   7.828 -0.3031 -0.1206  0.4015
  258MOL0     C34697   4.055   9.192   7.732  0.1484 -0.0619 -0.0844
  258MOL0     O34698   4.154   9.246   7.661  0.4309 -0.0874 -0.2091
  258MOL0     C34699   4.292   9.218   7.679  0.1319  0.6107  0.0275
  258MOL0     C34700   4.387   9.314   7.698  0.6323 -0.4295 -0.3977
  258MOL0     C34701   4.520   9.285   7.726 -0.8656 -0.0983  0.8472
  258MOL0     C34702   4.570   9.154   7.703 -0.2956 -0.5796 -0.0761
  258MOL0     O34703   4.707   9.131   7.709  0.9316 -0.3826  1.1194
  258MOL0     C34704   4.762   9.099   7.584 -0.0382  0.2405 -0.5457
  258MOL0     C34705   4.918   9.131   7.587  0.3420  0.2767  0.4308
  258MOL0     C34706   5.005   9.012   7.625  0.2872  0.4833  0.0544
  258MOL0     C34707   4.984   8.970   7.773 -0.2446 -0.2077  0.4280
  258MOL0     C34708   5.064   8.843   7.819  0.2749 -0.5104  0.2396
  258MOL0     C34709   5.209   8.891   7.827 -0.2870  0.2751 -0.2300
  258MOL0     C34710   5.285   8.805   7.935  0.4004 -0.2420  0.2300
  258MOL0     C34711   5.290   8.664   7.881  0.7043  0.0652  0.3979
  258MOL0     N34712   5.380   8.585   7.974  0.2084 -0.1236  0.1842
  258MOL0     C34713   5.512   8.570   7.958  0.2166  0.4691  0.2325
  258MOL0     C34714   5.547   8.489   8.069  0.3309  0.0198  0.4865
  258MOL0     C34715   5.686   8.435   8.084  1.2980  0.1960 -0.1173
  258MOL0     C34716   5.688   8.297   8.153 -0.2747 -0.4701 -0.2987
  258MOL0     C34717   5.825   8.227   8.129 -0.0084  0.8579  0.4461
  258MOL0     C34718   5.955   8.273   8.207 -0.0424 -0.1289 -0.1292
  258MOL0     O34719   5.997   8.402   8.151  0.0980  0.2359 -0.8468
  258MOL0     C34720   6.127   8.450   8.156 -0.5308 -0.4892  0.0090
  258MOL0     C34721   6.236   8.399   8.228 -0.5062 -0.2172  0.7005
  258MOL0     C34722   6.363   8.458   8.222  0.8446  0.2200 -0.4587
  258MOL0     C34723   6.389   8.573   8.144  0.2662  0.6853  0.6884
  258MOL0     C34724   6.520   8.644   8.139  0.2905 -0.2578 -0.2243
  258MOL0     O34725   6.544   8.775   8.098 -0.7950  0.7381 -0.5847
  258MOL0     C34726   6.677   8.804   8.081 -0.2340 -0.6319 -0.3317
  258MOL0     C34727   6.772   8.722   8.020 -0.1497 -0.1187 -0.1335
  258MOL0     C34728   6.908   8.776   8.004 -0.4764  0.3595 -0.8844
  258MOL0     C34729   6.944   8.900   8.031 -0.2753  0.0058  0.0880
  258MOL0     O34730   7.059   8.967   7.997 -0.0473 -0.6221 -0.2047
  258MOL0     C34731   7.170   8.892   7.950  0.6782  0.7219  0.4549
  258MOL0     C34732   7.309   8.961   7.989  0.1166  0.0275 -0.6582
  258MOL0     C34733   7.429   8.885   7.949  0.7105  0.5507  0.1578
  258MOL0     C34734   7.564   8.962   7.953 -0.8830  0.5223  0.1626
  258MOL0     C34735   7.672   8.888   7.869  0.2401  0.3077  0.5221
  258MOL0     C34736   7.767   8.984   7.794  0.0702  0.2629  0.0136
  258MOL0     C34737   7.853   8.913   7.682  0.6636 -1.0901  0.3502
  258MOL0     C34738   7.959   8.814   7.718 -0.6394 -0.0627 -0.0370
  258MOL0    Cl34739   8.099   8.896   7.788 -0.4846 -0.2646 -0.4721
  258MOL0     C34740   6.847   8.979   8.087 -0.3397  0.8426  0.0168
  258MOL0     C34741   6.721   8.930   8.121  0.1670  0.5172 -0.5455
  258MOL0     O34742   6.599   8.567   8.183 -0.1504  0.2635  0.3137
  258MOL0     C34743   6.285   8.622   8.067  0.0904 -0.3555  0.1886
  258MOL0     C34744   6.153   8.564   8.075  0.3355  0.9137 -0.2481
  258MOL0     N34745   5.433   8.467   8.149  0.7069  0.3644  0.1682
  258MOL0     N34746   5.339   8.530   8.090 -0.7443  0.2109 -0.9718
  258MOL0     C34747   4.472   9.054   7.680  0.2935 -0.4970 -0.1354
  258MOL0     C34748   4.335   9.086   7.673  0.1710  0.0793 -0.0523
  258MOL0     C34749   3.916   9.212   7.685  1.1252  0.7367  0.2712
  258MOL0     C34750   3.901   9.219   7.543 -0.5221 -1.3643 -0.7455
  258MOL0     C34751   3.774   9.219   7.482  0.4183  0.5768 -0.1508
  258MOL0     C34752   3.659   9.208   7.571 -1.2283 -0.7373  0.0331
  258MOL0     O34753   3.530   9.194   7.538 -0.0609 -0.5879 -0.3140
  258MOL0     C34754   3.498   9.199   7.398  0.3992 -0.4377  1.5240
  258MOL0     C34755   3.504   9.342   7.334 -0.9214 -0.3921 -0.5230
  258MOL0     C34756   3.395   9.424   7.389  0.5392 -0.2367 -0.5360
  258MOL0     C34757   3.394   9.561   7.321  0.1596 -0.7172 -0.1826
  258MOL0     C34758   3.295   9.658   7.368  0.6840 -0.6790  0.8168
  258MOL0     C34759   3.233   9.748   7.421 -0.7985 -0.1770  0.3686
  258MOL0     C34760   3.688   9.205   7.708  1.2556 -0.8913  0.2172
  258MOL0     C34761   3.811   9.216   7.766 -0.0579  0.2746 -0.4665
  258MOL0     C34762   3.808   9.238   7.920 -0.5066  0.3864  0.0366
  258MOL0     H34763   4.360   9.419   7.695  1.6822 -0.1710 -1.4119
  258MOL0     H34764   4.593   9.365   7.735  0.8367 -1.1349 -2.1610
  258MOL0     H34765   4.740   8.996   7.556  0.7601  0.1719 -0.9537
  258MOL0     H34766   4.713   9.174   7.521 -3.0540 -1.5221 -0.4544
  258MOL0     H34767   4.938   9.217   7.652  2.7732  0.8841 -1.0011
  258MOL0     H34768   4.958   9.168   7.492 -2.0377  0.7631 -0.4499
  258MOL0     H34769   5.111   9.039   7.626  1.0240 -2.1029 -1.1815
  258MOL0     H34770   4.984   8.939   7.547 -2.2807  3.2715 -2.1368
  258MOL0     H34771   5.002   9.052   7.842  0.0916  2.1127 -2.2301
  258MOL0     H34772   4.876   8.954   7.781 -0.0746 -0.8921  1.5817
  258MOL0     H34773   5.020   8.810   7.914 -2.7595  1.6946 -0.2587
  258MOL0     H34774   5.054   8.761   7.747 -1.2793  0.0755 -0.2603
  258MOL0     H34775   5.257   8.875   7.731  1.7630 -0.7049  0.8840
  258MOL0     H34776   5.209   8.999   7.845 -0.4734  0.6076 -2.1122
  258MOL0     H34777   5.217   8.809   8.021 -3.7036  2.4337 -2.7475
  258MOL0     H34778   5.386   8.847   7.948  2.7982 -4.6772 -1.9598
  258MOL0     H34779   5.190   8.620   7.888  0.8837 -0.3536  0.3918
  258MOL0     H34780   5.325   8.661   7.778  1.1128 -0.5338  0.5428
  258MOL0     H34781   5.573   8.600   7.873  0.5260 -0.7815 -0.0111
  258MOL0     H34782   5.741   8.417   7.992  2.3060 -1.8458  0.8090
  258MOL0     H34783   5.746   8.503   8.145  2.0958 -0.6597  0.0789
  258MOL0     H34784   5.678   8.319   8.260  0.0669 -1.0480 -0.1457
  258MOL0     H34785   5.605   8.234   8.118 -0.8650 -0.3257  0.7940
  258MOL0     H34786   5.843   8.242   8.023 -4.7522 -0.5307 -0.7802
  258MOL0     H34787   5.813   8.119   8.141 -1.4309  1.1263  1.8604
  258MOL0     H34788   6.034   8.197   8.209  0.7963  0.7020 -0.9448
  258MOL0     H34789   5.928   8.300   8.310  1.1454  1.2047 -0.1391
  258MOL0     H34790   6.210   8.314   8.291 -2.9335 -0.3112 -0.3346
  258MOL0     H34791   6.442   8.412   8.281  0.0637 -0.6849 -0.0932
  258MOL0     H34792   6.753   8.624   7.978  0.5962 -0.1428 -0.4384
  258MOL0     H34793   6.982   8.717   7.950  3.2785  2.5850  1.3225
  258MOL0     H34794   7.172   8.794   7.999  1.2061  1.5981  2.2643
  258MOL0     H34795   7.160   8.876   7.843  1.9954 -0.5176  0.4887
  258MOL0     H34796   7.319   9.057   7.936  2.9457 -0.6244 -1.5236
  258MOL0     H34797   7.287   8.978   8.094 -0.3836 -1.1618 -0.5587
  258MOL0     H34798   7.439   8.800   8.017 -0.9507 -1.0369 -1.4940
  258MOL0     H34799   7.421   8.841   7.850  2.9494 -1.2043  0.6496
  258MOL0     H34800   7.597   8.968   8.057  5.0737  0.1122 -1.3274
  258MOL0     H34801   7.561   9.068   7.927  2.7108  1.1684  1.7651
  258MOL0     H34802   7.618   8.827   7.796 -0.2158  1.6641 -0.3247
  258MOL0     H34803   7.727   8.816   7.929  1.0267  0.4456 -0.0089
  258MOL0     H34804   7.715   9.060   7.735 -0.6040 -2.3011 -2.9638
  258MOL0     H34805   7.831   9.029   7.871  1.6575  0.5375 -1.3968
  258MOL0     H34806   7.907   8.996   7.635  0.9876 -1.1697  0.5734
  258MOL0     H34807   7.790   8.860   7.610 -1.7797 -1.0870  2.3788
  258MOL0     H34808   7.920   8.738   7.786 -2.1766 -1.5068 -2.4289
  258MOL0     H34809   7.997   8.767   7.628  1.0873  1.8895 -0.4136
  258MOL0     H34810   6.870   9.084   8.102  0.7674  0.8325 -1.4591
  258MOL0     H34811   6.646   8.999   8.159  0.4498 -0.0853  1.1865
  258MOL0     H34812   6.292   8.711   8.004  3.8183 -0.7916 -0.2260
  258MOL0     H34813   6.069   8.610   8.024 -0.8318 -1.8600 -1.0421
  258MOL0     H34814   4.501   8.949   7.686 -1.0437 -0.8944 -0.3512
  258MOL0     H34815   4.260   9.010   7.659 -0.8030  1.0806 -0.4071
  258MOL0     H34816   3.986   9.211   7.475  1.0518 -0.9400  1.0678
  258MOL0     H34817   3.764   9.206   7.375 -0.5669  1.9103 -0.2464
  258MOL0     H34818   3.400   9.152   7.384  0.0894  0.4412  0.5579
  258MOL0     H34819   3.569   9.138   7.341  0.3312  1.1144 -0.3565
  258MOL0     H34820   3.488   9.334   7.226 -0.2036  0.2589 -0.6855
  258MOL0     H34821   3.594   9.402   7.351 -0.4723 -1.4288  0.9923
  258MOL0     H34822   3.408   9.423   7.498  1.0396  1.2933 -0.5704
  258MOL0     H34823   3.301   9.375   7.364 -0.8369  3.4902 -3.3937
  258MOL0     H34824   3.495   9.600   7.335 -0.0460  0.9161 -2.5552
  258MOL0     H34825   3.378   9.552   7.213  0.8538  3.1840 -0.7594
  258MOL0     H34826   3.162   9.823   7.450 -2.3630 -1.3995 -0.2034
  258MOL0     H34827   3.598   9.223   7.766  1.9965  0.4214  1.0205
  258MOL0     H34828   3.792   9.344   7.941 -1.2457  0.1259  0.8311
  258MOL0     H34829   3.748   9.167   7.978 -0.4647  0.4148  0.1145
  258MOL0     H34830   3.906   9.227   7.968 -0.4624  1.9198  0.3414
  259MOL0     O34831   8.081   2.812   2.593  0.5342  0.4469 -1.0706
  259MOL0     C34832   7.999   2.865   2.524 -0.8583  0.0548 -0.3994
  259MOL0     O34833   8.013   2.909   2.398  0.2662  0.3130 -0.3549
  259MOL0     C34834   8.141   2.917   2.339  0.1952  0.6596 -0.4761
  259MOL0     C34835   8.168   3.027   2.260 -0.2278 -0.1065  0.5469
  259MOL0     C34836   8.281   3.037   2.174  0.1627  1.2181 -0.5579
  259MOL0     C34837   8.376   2.928   2.183 -0.6269  0.5142  0.1924
  259MOL0     O34838   8.486   2.938   2.107 -0.7509  0.2844 -0.3762
  259MOL0     C34839   8.613   2.875   2.157  0.0647  0.7687  0.9065
  259MOL0     C34840   8.702   2.985   2.212  0.9072  0.3433 -1.3786
  259MOL0     C34841   8.836   2.936   2.276  0.5598 -0.5125 -0.5852
  259MOL0     C34842   8.918   3.061   2.327 -0.1367  0.3260 -0.5509
  259MOL0     C34843   9.047   3.016   2.399 -0.1107 -0.5511  0.7733
  259MOL0     C34844   9.164   2.971   2.300  0.3965 -0.0851 -0.4913
  259MOL0     C34845   9.291   2.943   2.374  0.8711 -0.4612 -0.2968
  259MOL0     C34846   9.405   2.903   2.288 -0.5726 -0.2635  0.5343
  259MOL0     N34847   9.521   2.860   2.371 -0.6718  0.0585  0.7033
  259MOL0     C34848   9.570   2.729   2.385 -0.0690  0.5882 -0.2077
  259MOL0     C34849   9.687   2.739   2.448 -0.0985  0.8100  0.3109
  259MOL0     C34850   9.791   2.628   2.459  0.2885  0.0917 -0.2739
  259MOL0     C34851   9.759   2.552   2.579 -0.4632 -0.4245 -1.8510
  259MOL0     C34852   9.839   2.427   2.609  0.1074  0.3668  1.0297
  259MOL0     C34853   9.981   2.464   2.640 -0.2014  0.2788  0.2676
  259MOL0     O34854   9.986   2.461   2.786  0.4241  0.1932 -0.5915
  259MOL0     C34855  10.117   2.494   2.841  0.3593  0.9881 -0.4187
  259MOL0     C34856  10.119   2.508   2.976  0.6736  0.8461 -0.5960
  259MOL0     C34857  10.234   2.527   3.048 -0.2871 -0.4776  0.2787
  259MOL0     C34858  10.361   2.541   2.979 -0.5137 -0.2649 -0.0054
  259MOL0     C34859  10.483   2.582   3.059 -0.2286  0.2537 -0.0535
  259MOL0     O34860  10.601   2.586   2.997 -0.3957 -0.0828  0.3926
  259MOL0     C34861  10.709   2.633   3.064  1.0713 -0.0875 -0.5338
  259MOL0     C34862  10.784   2.536   3.130 -0.5641 -0.9289 -0.0971
  259MOL0     C34863  10.893   2.574   3.211 -1.0812 -0.7038 -0.9310
  259MOL0     C34864  10.935   2.708   3.217 -0.4985 -0.9555  0.5160
  259MOL0     O34865  11.043   2.760   3.289  0.3601  0.2820 -0.2266
  259MOL0     C34866  11.162   2.674   3.297 -1.3043 -0.0178 -0.4691
  259MOL0     C34867  11.291   2.746   3.253  0.4731 -0.4678 -0.9208
  259MOL0     C34868  11.350   2.834   3.362  0.6806 -0.0250  0.2426
  259MOL0     C34869  11.489   2.873   3.307  0.8011  0.2740  0.2592
  259MOL0     C34870  11.571   2.945   3.420  1.2881 -0.3553  0.5474
  259MOL0     C34871  11.689   3.008   3.361  0.3020 -0.4160 -0.1063
  259MOL0     C34872  11.768   3.082   3.469 -0.2473  0.1810  0.1786
  259MOL0     C34873  11.870   3.177   3.405  1.0932 -0.5128  0.2714
  259MOL0    Cl34874  11.784   3.321   3.349  0.0234  0.1079 -0.0914
  259MOL0     C34875  10.857   2.810   3.150  0.4335 -0.3580 -1.3533
  259MOL0     C34876  10.749   2.769   3.076 -0.5881 -0.2136 -0.5449
  259MOL0     O34877  10.465   2.614   3.176  0.5833  0.6827 -0.0897
  259MOL0     C34878  10.364   2.535   2.838  0.2601 -0.6400 -0.7948
  259MOL0     C34879  10.239   2.516   2.769  0.0230  0.4769  0.5352
  259MOL0     N34880   9.711   2.872   2.479 -0.3330  0.2898  0.0646
  259MOL0     N34881   9.609   2.940   2.444  0.0500 -0.7150  0.2018
  259MOL0     C34882   8.342   2.812   2.259  0.1071  0.7541  0.0296
  259MOL0     C34883   8.224   2.805   2.338 -0.1541 -0.4165 -0.8142
  259MOL0     C34884   7.866   2.885   2.591  0.4037 -0.4918 -0.1032
  259MOL0     C34885   7.755   2.936   2.523  0.1776  0.2375  0.9356
  259MOL0     C34886   7.628   2.942   2.573 -0.5312  0.8698 -0.7495
  259MOL0     C34887   7.602   2.905   2.709 -0.2340  0.2354  0.1336
  259MOL0     O34888   7.468   2.913   2.741 -0.0053 -0.2578  0.2901
  259MOL0     C34889   7.431   2.891   2.881  0.8453  0.0024  0.4658
  259MOL0     C34890   7.282   2.911   2.916 -0.7797  0.7869 -0.3532
  259MOL0     C34891   7.243   3.059   2.917 -0.1790 -0.5195 -0.0001
  259MOL0     C34892   7.105   3.080   2.982 -0.9047 -0.3939 -0.0541
  259MOL0     C34893   7.072   3.220   2.951 -0.3968 -0.1193 -0.4947
  259MOL0     C34894   7.061   3.337   2.916  0.9048  0.2632  0.5786
  259MOL0     C34895   7.707   2.854   2.784 -0.0005  0.2004 -0.3263
  259MOL0     C34896   7.834   2.843   2.726 -0.2886 -0.4434 -0.4208
  259MOL0     C34897   7.936   2.791   2.823  0.0517  0.1377  0.4024
  259MOL0     H34898   8.091   3.103   2.251  0.0576  0.4799  2.5806
  259MOL0     H34899   8.296   3.112   2.098  1.2530 -0.4187 -2.0343
  259MOL0     H34900   8.598   2.796   2.231  0.3712 -0.6290 -0.4685
  259MOL0     H34901   8.663   2.822   2.075 -3.6588  0.1216 -1.1563
  259MOL0     H34902   8.641   3.037   2.287 -0.7897  1.0686 -3.1731
  259MOL0     H34903   8.725   3.065   2.141  3.6410  0.4759 -0.4379
  259MOL0     H34904   8.880   2.866   2.205  1.0248 -1.1047  0.2582
  259MOL0     H34905   8.819   2.880   2.369  2.3299  0.2806  0.2697
  259MOL0     H34906   8.950   3.118   2.239  1.3668 -1.2333 -1.0571
  259MOL0     H34907   8.856   3.127   2.387  2.2162  1.2340  1.0056
  259MOL0     H34908   9.093   3.103   2.445  0.3058 -2.0954  3.4824
  259MOL0     H34909   9.027   2.927   2.460  2.0988 -1.0379  0.8696
  259MOL0     H34910   9.136   2.878   2.251  0.2554 -2.1205  3.0674
  259MOL0     H34911   9.179   3.046   2.222  0.0186  0.1052 -0.3806
  259MOL0     H34912   9.260   2.865   2.444 -1.9477  1.6488  1.0129
  259MOL0     H34913   9.325   3.036   2.421  1.6395 -0.0843 -1.5416
  259MOL0     H34914   9.370   2.828   2.217 -0.0982  1.9257 -2.1797
  259MOL0     H34915   9.436   2.991   2.231 -3.1673  2.1859  2.6095
  259MOL0     H34916   9.535   2.632   2.352 -0.7373  1.4596 -2.2760
  259MOL0     H34917   9.778   2.562   2.374 -1.5264  0.7291 -0.5366
  259MOL0     H34918   9.894   2.665   2.458  0.6097 -0.5730  1.9966
  259MOL0     H34919   9.764   2.638   2.647 -2.1125 -1.4328 -0.3531
  259MOL0     H34920   9.652   2.530   2.568 -0.5393  0.1347 -2.2997
  259MOL0     H34921   9.841   2.358   2.525  2.0376 -0.6374  1.8267
  259MOL0     H34922   9.791   2.367   2.687 -1.9994 -1.3425 -1.4065
  259MOL0     H34923  10.003   2.564   2.601 -1.7523 -0.8215 -3.9639
  259MOL0     H34924  10.058   2.397   2.601  1.0286  1.1651  1.0983
  259MOL0     H34925  10.028   2.505   3.035  1.4485 -1.6103  0.5956
  259MOL0     H34926  10.226   2.525   3.157 -0.2304  0.0030  0.2913
  259MOL0     H34927  10.746   2.435   3.122  0.5616 -1.2096 -3.4509
  259MOL0     H34928  10.933   2.504   3.284 -0.7894  0.4049  0.0002
  259MOL0     H34929  11.172   2.635   3.399 -0.3399 -0.0201 -0.5545
  259MOL0     H34930  11.150   2.592   3.226 -0.4338  1.0230 -1.8821
  259MOL0     H34931  11.364   2.672   3.219  0.2366 -1.1004 -0.0866
  259MOL0     H34932  11.265   2.806   3.165  0.7080 -0.9670 -1.3349
  259MOL0     H34933  11.282   2.919   3.363  0.0152 -0.4243 -2.6002
  259MOL0     H34934  11.353   2.791   3.462  2.8210 -0.4557  0.0301
  259MOL0     H34935  11.477   2.929   3.213 -0.7521  1.2069  0.9650
  259MOL0     H34936  11.553   2.787   3.289  3.2268  2.4758 -2.7737
  259MOL0     H34937  11.595   2.869   3.495 -2.6568 -1.3302  1.0842
  259MOL0     H34938  11.511   3.019   3.473 -1.1460 -0.9022 -1.2238
  259MOL0     H34939  11.756   2.933   3.318  3.0292  1.6196  0.3181
  259MOL0     H34940  11.655   3.075   3.282  0.5915 -0.0993  0.0334
  259MOL0     H34941  11.818   3.000   3.520  0.3833  2.0098  2.7249
  259MOL0     H34942  11.722   3.128   3.557 -2.1238 -2.0464  0.4500
  259MOL0     H34943  11.946   3.211   3.476 -0.4181 -0.4881  1.9372
  259MOL0     H34944  11.921   3.123   3.325 -1.6979 -2.2922 -0.4471
  259MOL0     H34945  10.874   2.917   3.159 -1.0477  0.1059 -3.4573
  259MOL0     H34946  10.696   2.843   3.017 -1.4507 -1.5201 -1.4585
  259MOL0     H34947  10.446   2.566   2.774  0.2407 -1.1075 -1.0444
  259MOL0     H34948  10.235   2.511   2.661 -3.3215  0.5668  0.5575
  259MOL0     H34949   8.396   2.718   2.259 -1.7618 -0.5517 -3.9218
  259MOL0     H34950   8.181   2.715   2.382 -1.7379  0.9013  0.4535
  259MOL0     H34951   7.759   2.968   2.419 -1.6485 -2.0567  0.0861
  259MOL0     H34952   7.549   2.981   2.510  0.3796  1.6084 -1.4675
  259MOL0     H34953   7.486   2.948   2.956  1.7675 -0.4851  0.1747
  259MOL0     H34954   7.451   2.788   2.910  1.3160  0.2172  0.9027
  259MOL0     H34955   7.277   2.884   3.022 -1.3942  2.3608  0.0524
  259MOL0     H34956   7.217   2.851   2.851  0.2395  0.9690 -1.5780
  259MOL0     H34957   7.242   3.095   2.814 -0.7882  1.3091  0.6114
  259MOL0     H34958   7.312   3.119   2.978 -2.2731  0.9988  0.9857
  259MOL0     H34959   7.026   3.020   2.936  0.0239  0.5440 -3.1079
  259MOL0     H34960   7.111   3.055   3.088 -0.4245 -1.4733 -0.3217
  259MOL0     H34961   7.056   3.443   2.903 -0.7869  0.7295  3.8134
  259MOL0     H34962   7.690   2.811   2.883 -0.0067 -0.7429 -0.7309
  259MOL0     H34963   8.001   2.878   2.837  0.0279  0.6058 -1.9929
  259MOL0     H34964   7.896   2.755   2.918  1.8396 -1.3267  0.6559
  259MOL0     H34965   7.990   2.702   2.791 -2.0021 -0.6876 -0.9604
  260MOL0     O34966   1.146   6.873   5.648 -0.4410  0.2093  0.1052
  260MOL0     C34967   1.140   6.900   5.531  0.5435  0.4842  0.5657
  260MOL0     O34968   1.239   6.888   5.439  0.1330 -0.2444 -0.3029
  260MOL0     C34969   1.362   6.860   5.494  0.3182  0.1610 -0.8514
  260MOL0     C34970   1.466   6.945   5.459  0.1610 -0.1857  0.1070
  260MOL0     C34971   1.597   6.906   5.483  0.3523  0.5752  0.2465
  260MOL0     C34972   1.625   6.792   5.552  0.4461 -0.2238 -0.1755
  260MOL0     O34973   1.753   6.766   5.597  0.1691  1.2252  0.4606
  260MOL0     C34974   1.868   6.833   5.541  0.3590  0.0539 -0.3674
  260MOL0     C34975   1.988   6.758   5.582  0.1489  0.4316  0.2481
  260MOL0     C34976   2.117   6.826   5.536 -0.6683 -0.6511 -1.2429
  260MOL0     C34977   2.229   6.740   5.595 -0.2299 -0.2189 -0.1584
  260MOL0     C34978   2.360   6.804   5.556 -0.8595 -0.0884  0.5308
  260MOL0     C34979   2.472   6.761   5.651  0.1635  0.2560  0.4267
  260MOL0     C34980   2.609   6.819   5.616 -0.5040  0.2186 -0.2280
  260MOL0     C34981   2.715   6.793   5.725 -0.6509 -1.0417  0.0044
  260MOL0     N34982   2.724   6.651   5.750 -0.0491  0.4246  0.1953
  260MOL0     C34983   2.790   6.563   5.668  0.3987 -0.0643 -0.4594
  260MOL0     C34984   2.797   6.456   5.753 -0.6129  1.2834  0.0672
  260MOL0     C34985   2.850   6.321   5.726 -0.4724 -0.6761 -0.0864
  260MOL0     C34986   3.004   6.321   5.727  0.8146 -0.3115  0.1866
  260MOL0     C34987   3.059   6.359   5.862 -0.2554  0.9096  0.2250
  260MOL0     C34988   3.206   6.310   5.870 -0.3303  0.4518 -0.0362
  260MOL0     O34989   3.248   6.361   6.000  0.0488  0.7381  0.4959
  260MOL0     C34990   3.379   6.344   6.047 -0.0238 -0.5064  0.9287
  260MOL0     C34991   3.406   6.391   6.174 -0.7404 -0.4275 -0.3647
  260MOL0     C34992   3.539   6.392   6.224 -0.5195 -1.1303 -0.6090
  260MOL0     C34993   3.638   6.323   6.156 -0.1029  0.8790  0.1468
  260MOL0     C34994   3.772   6.305   6.213  0.2026  0.1826 -0.2544
  260MOL0     O34995   3.867   6.250   6.130  0.0697  0.0604  0.3167
  260MOL0     C34996   3.994   6.214   6.158  1.3473 -0.3550  0.0872
  260MOL0     C34997   4.063   6.179   6.042 -1.2526  0.0387  0.3238
  260MOL0     C34998   4.174   6.098   6.053  0.5834  0.0889 -0.4825
  260MOL0     C34999   4.218   6.049   6.179 -0.0303 -0.0730 -0.9242
  260MOL0     O35000   4.342   5.989   6.178  0.1827 -0.0319  0.1178
  260MOL0     C35001   4.390   5.941   6.306 -0.5622  0.1333  0.4485
  260MOL0     C35002   4.518   5.856   6.279 -0.6693 -0.1724 -0.3543
  260MOL0     C35003   4.642   5.946   6.288  1.1015 -0.3854  0.6342
  260MOL0     C35004   4.761   5.880   6.237  0.4244 -0.4448 -0.0252
  260MOL0     C35005   4.887   5.970   6.247  0.3603  0.0760  0.2650
  260MOL0     C35006   5.018   5.892   6.213 -1.4285  0.5136  0.4491
  260MOL0     C35007   5.013   5.812   6.080  0.1415 -0.4360 -0.2210
  260MOL0     C35008   5.155   5.809   6.016  0.5468  0.2975 -0.0220
  260MOL0    Cl35009   5.262   5.728   6.143  0.1800 -0.4791  0.3362
  260MOL0     C35010   4.154   6.093   6.296  0.1734 -0.2572  0.3903
  260MOL0     C35011   4.044   6.174   6.278  0.4511  0.4793 -0.7541
  260MOL0     O35012   3.786   6.329   6.331  0.0118 -0.1684 -0.4282
  260MOL0     C35013   3.607   6.266   6.026 -0.4899 -0.5227  0.1727
  260MOL0     C35014   3.479   6.279   5.975 -0.2455 -0.4895  0.0075
  260MOL0     N35015   2.720   6.474   5.870 -0.8535 -0.1603 -0.5165
  260MOL0     N35016   2.671   6.591   5.861 -0.2300 -0.2799 -0.2074
  260MOL0     C35017   1.515   6.710   5.595 -0.5869 -1.2944  0.1132
  260MOL0     C35018   1.389   6.741   5.563  0.2164 -0.4299  0.4666
  260MOL0     C35019   1.006   6.945   5.481 -0.1943  1.7087  0.1806
  260MOL0     C35020   0.986   6.999   5.352 -0.5129  0.0603  0.5492
  260MOL0     C35021   0.866   7.042   5.296  0.7269  0.3518  0.2176
  260MOL0     C35022   0.746   7.002   5.364 -0.4164  0.1864  0.0229
  260MOL0     O35023   0.627   7.034   5.299 -0.2240 -1.3697 -0.4812
  260MOL0     C35024   0.497   6.997   5.353 -0.4832  0.3170  0.4577
  260MOL0     C35025   0.451   7.104   5.454  0.1274  0.4321  0.1855
  260MOL0     C35026   0.446   7.248   5.392 -0.2129 -0.7326 -0.0530
  260MOL0     C35027   0.355   7.339   5.472 -0.2273  0.2763 -0.0897
  260MOL0     C35028   0.388   7.343   5.614 -0.7912  0.3312 -0.4059
  260MOL0     C35029   0.410   7.347   5.733  0.3858 -0.1463  0.1036
  260MOL0     C35030   0.761   6.950   5.495 -0.1825 -0.0569 -0.5432
  260MOL0     C35031   0.883   6.927   5.561 -0.1890 -0.5120  0.2651
  260MOL0     C35032   0.887   6.875   5.711  0.7324 -0.2438  0.5760
  260MOL0     H35033   1.446   7.025   5.388  1.2965 -0.2429 -0.2977
  260MOL0     H35034   1.677   6.963   5.436 -0.8164  0.3668 -2.1359
  260MOL0     H35035   1.861   6.841   5.432  0.5511  0.0077 -0.3824
  260MOL0     H35036   1.865   6.932   5.586  0.3025 -1.5474  3.5687
  260MOL0     H35037   1.972   6.662   5.531 -0.3029  0.8629 -0.4284
  260MOL0     H35038   1.987   6.737   5.689  1.2693  0.8099  0.3437
  260MOL0     H35039   2.132   6.929   5.570  2.4694 -0.1015 -3.7780
  260MOL0     H35040   2.127   6.840   5.428 -0.6371  2.9271 -0.9072
  260MOL0     H35041   2.216   6.738   5.703  2.5169  0.5075  0.2707
  260MOL0     H35042   2.223   6.634   5.567 -1.0477  0.6269 -3.7069
  260MOL0     H35043   2.388   6.768   5.456  1.6542 -1.1213  1.5496
  260MOL0     H35044   2.345   6.912   5.547 -3.1355 -0.3457  0.6396
  260MOL0     H35045   2.436   6.798   5.748  0.9199 -1.1965  1.2888
  260MOL0     H35046   2.469   6.652   5.647 -3.0671  0.1596  1.9458
  260MOL0     H35047   2.590   6.927   5.618 -3.4764 -0.2101 -0.2467
  260MOL0     H35048   2.642   6.797   5.514 -1.4891  0.1655 -0.5534
  260MOL0     H35049   2.812   6.832   5.693 -0.8092 -0.8954 -0.2947
  260MOL0     H35050   2.689   6.851   5.814  1.6386  2.0529 -1.1697
  260MOL0     H35051   2.837   6.577   5.571 -2.3130  0.8690 -1.7518
  260MOL0     H35052   2.816   6.253   5.805 -1.5382  0.5132  0.5117
  260MOL0     H35053   2.818   6.283   5.629 -0.2782 -0.1317 -0.3665
  260MOL0     H35054   3.052   6.228   5.698  0.9498 -0.1730 -0.0361
  260MOL0     H35055   3.038   6.391   5.650  2.4439 -1.4938 -0.2129
  260MOL0     H35056   2.997   6.316   5.942 -1.0011 -0.2403 -0.9247
  260MOL0     H35057   3.058   6.466   5.886 -1.4538  0.6109  1.6248
  260MOL0     H35058   3.267   6.349   5.789  1.3072 -0.5910  0.6365
  260MOL0     H35059   3.212   6.201   5.857  2.1909  0.2625  1.8244
  260MOL0     H35060   3.335   6.445   6.237  0.4277 -0.4745  1.0507
  260MOL0     H35061   3.564   6.443   6.317  1.0493 -3.3086  0.2792
  260MOL0     H35062   4.035   6.203   5.940 -0.4868 -1.8320 -0.3734
  260MOL0     H35063   4.233   6.071   5.966  2.1463  2.0651 -0.1047
  260MOL0     H35064   4.419   6.020   6.376  0.3143  0.3621 -0.1539
  260MOL0     H35065   4.312   5.881   6.353 -0.6399 -2.8625 -3.0950
  260MOL0     H35066   4.523   5.779   6.356 -0.0612  1.1146  0.9355
  260MOL0     H35067   4.519   5.812   6.179  0.9121 -0.4419 -0.2422
  260MOL0     H35068   4.623   6.042   6.238 -1.0112 -1.1639 -0.1540
  260MOL0     H35069   4.661   5.971   6.393 -1.9477 -0.0462  1.2242
  260MOL0     H35070   4.740   5.854   6.132 -3.0590  1.5840 -0.0108
  260MOL0     H35071   4.791   5.797   6.302  1.9670  1.9270  2.4617
  260MOL0     H35072   4.889   6.018   6.346 -0.0297 -0.0459  0.3338
  260MOL0     H35073   4.863   6.048   6.174  0.1916 -0.2143  0.0088
  260MOL0     H35074   5.100   5.964   6.209  0.1095 -1.1128 -4.5750
  260MOL0     H35075   5.034   5.831   6.302  0.3348 -0.8396 -0.7275
  260MOL0     H35076   4.949   5.872   6.015  0.2228 -0.2452 -0.1258
  260MOL0     H35077   4.963   5.715   6.094 -1.7413  0.7312  1.9347
  260MOL0     H35078   5.150   5.754   5.921 -0.9073 -0.5121  0.4874
  260MOL0     H35079   5.192   5.907   5.985 -1.4852  1.3671  0.7185
  260MOL0     H35080   4.179   6.062   6.397 -1.2088 -3.8092 -0.2147
  260MOL0     H35081   3.989   6.189   6.371 -0.5300 -1.2255 -1.0133
  260MOL0     H35082   3.677   6.203   5.972 -0.7478 -0.2377 -0.5100
  260MOL0     H35083   3.469   6.228   5.880  2.6875 -0.4920 -0.4052
  260MOL0     H35084   1.520   6.618   5.652 -0.3722  0.0326  2.3775
  260MOL0     H35085   1.320   6.668   5.605  2.3350 -2.7418  0.1326
  260MOL0     H35086   1.074   7.027   5.295 -1.4230  0.2744 -0.7888
  260MOL0     H35087   0.850   7.095   5.202 -4.6754  1.5634  1.4714
  260MOL0     H35088   0.519   6.902   5.401 -0.5899  0.2326  0.3409
  260MOL0     H35089   0.423   6.975   5.275 -0.4310 -1.5975  0.9153
  260MOL0     H35090   0.514   7.101   5.544  1.5217 -1.3820 -0.7832
  260MOL0     H35091   0.351   7.073   5.487 -0.4354  1.9073 -0.0896
  260MOL0     H35092   0.412   7.254   5.289 -1.6615 -2.7655  0.2469
  260MOL0     H35093   0.551   7.280   5.395  0.4161 -2.5685 -0.5685
  260MOL0     H35094   0.379   7.441   5.440  0.2755  0.0855 -0.3404
  260MOL0     H35095   0.255   7.299   5.450  1.2929 -4.0491 -0.1866
  260MOL0     H35096   0.422   7.351   5.839 -2.4805 -2.2657  0.6264
  260MOL0     H35097   0.674   6.934   5.558 -0.2780  1.2179 -0.3105
  260MOL0     H35098   0.788   6.865   5.756  1.2930  0.6309  2.0609
  260MOL0     H35099   0.935   6.777   5.714 -1.3569 -1.3431  0.0358
  260MOL0     H35100   0.943   6.940   5.779  0.5065 -0.8416  1.3389
  261MOL0     O35101   4.683   9.735   7.068  0.8459 -0.4969  0.0491
  261MOL0     C35102   4.651   9.849   7.105 -0.3278  0.2157 -0.4305
  261MOL0     O35103   4.734   9.956   7.122  0.4199  0.0663 -0.6384
  261MOL0     C35104   4.854   9.925   7.183  0.2711  0.3753 -0.0883
  261MOL0     C35105   4.960   9.866   7.119  0.0330 -0.0008  1.4142
  261MOL0     C35106   5.081   9.858   7.186 -0.1314 -0.2624 -0.3660
  261MOL0     C35107   5.101   9.894   7.320 -0.6082  0.0977  0.0904
  261MOL0     O35108   5.226   9.878   7.389  0.5200 -0.0700  0.0202
  261MOL0     C35109   5.309   9.780   7.331  0.4471  0.7149 -1.1198
  261MOL0     C35110   5.440   9.770   7.403 -0.1034  1.1196 -0.2300
  261MOL0     C35111   5.543   9.693   7.308  0.2520 -0.1030  0.7957
  261MOL0     C35112   5.673   9.668   7.388 -0.7640 -0.0394  1.1243
  261MOL0     C35113   5.775   9.598   7.294 -0.1369  0.2039  0.2252
  261MOL0     C35114   5.905   9.552   7.360  0.3591  0.4186 -0.2472
  261MOL0     C35115   5.965   9.434   7.284 -0.0308  0.1353  0.0463
  261MOL0     C35116   6.051   9.348   7.378 -0.3988 -0.0197 -0.5980
  261MOL0     N35117   6.112   9.239   7.308 -0.0452 -0.0576  0.3251
  261MOL0     C35118   6.142   9.111   7.351 -0.0068  0.0638  0.4432
  261MOL0     C35119   6.213   9.051   7.259 -1.2960  0.5373  0.0055
  261MOL0     C35120   6.284   8.917   7.264  0.1398 -0.3438  0.3545
  261MOL0     C35121   6.416   8.923   7.184 -0.4468  0.3538  0.0303
  261MOL0     C35122   6.411   8.871   7.042  0.0273 -0.3128  0.4668
  261MOL0     C35123   6.435   8.726   7.056 -0.1903  0.2586  0.3140
  261MOL0     O35124   6.564   8.687   7.107  0.6062 -0.2789  0.2585
  261MOL0     C35125   6.681   8.725   7.047 -0.3589 -0.1932 -0.2613
  261MOL0     C35126   6.693   8.775   6.918 -0.0712 -1.5862  0.1952
  261MOL0     C35127   6.819   8.818   6.870 -0.1331  0.0996  0.2314
  261MOL0     C35128   6.937   8.813   6.951  0.8598 -0.2926  0.6015
  261MOL0     C35129   7.068   8.858   6.899  0.0301 -0.0451  0.0838
  261MOL0     O35130   7.171   8.841   6.979 -0.1098  0.2085  0.5485
  261MOL0     C35131   7.286   8.898   6.947  0.3221  0.1297  1.2674
  261MOL0     C35132   7.374   8.816   6.877 -0.3505  0.3509 -0.1167
  261MOL0     C35133   7.498   8.872   6.834  0.0366 -0.0993 -0.7181
  261MOL0     C35134   7.545   9.003   6.858 -0.2950  0.0031 -0.3363
  261MOL0     O35135   7.657   9.071   6.810  0.0684  0.3135 -0.2012
  261MOL0     C35136   7.727   8.993   6.716  0.6899 -0.4661 -0.3079
  261MOL0     C35137   7.833   9.081   6.661 -0.9810  0.1165  1.3161
  261MOL0     C35138   7.928   9.131   6.761 -0.4593 -0.5926 -0.2612
  261MOL0     C35139   8.042   9.198   6.688 -0.1592 -0.3568  0.0970
  261MOL0     C35140   8.162   9.227   6.776 -0.8566  0.1555  0.1940
  261MOL0     C35141   8.290   9.261   6.698  0.6219  0.0856  0.4835
  261MOL0     C35142   8.289   9.365   6.586  0.4461 -0.0633  0.1489
  261MOL0     C35143   8.432   9.411   6.544 -0.2386  0.0087 -0.3131
  261MOL0    Cl35144   8.433   9.532   6.410 -0.5448  0.1089  0.0670
  261MOL0     C35145   7.458   9.074   6.946 -0.3015  0.1416  0.3633
  261MOL0     C35146   7.327   9.031   6.975  0.5330 -0.2674  0.1978
  261MOL0     O35147   7.076   8.895   6.781 -0.1078 -0.3208 -0.9886
  261MOL0     C35148   6.926   8.766   7.083  1.0404 -0.1824 -0.5491
  261MOL0     C35149   6.794   8.730   7.127 -0.7170 -0.3621 -0.1198
  261MOL0     N35150   6.228   9.137   7.148 -0.3998  0.9140 -0.5506
  261MOL0     N35151   6.162   9.246   7.180 -0.5892 -0.2425  1.2761
  261MOL0     C35152   4.999   9.962   7.384  0.4519 -0.7814 -0.1672
  261MOL0     C35153   4.870   9.966   7.318  1.0922 -0.6537 -0.5395
  261MOL0     C35154   4.504   9.861   7.147 -0.3349 -0.0376  0.3685
  261MOL0     C35155   4.466   9.922   7.269  0.0562 -0.6591  0.1562
  261MOL0     C35156   4.332   9.925   7.311  0.3223 -0.2814  0.8852
  261MOL0     C35157   4.232   9.865   7.226 -0.1795 -0.0751 -0.8696
  261MOL0     O35158   4.110   9.844   7.287 -0.8278 -0.2437  0.3453
  261MOL0     C35159   4.025   9.732   7.258 -0.2764 -0.0010  0.3355
  261MOL0     C35160   3.884   9.786   7.244 -0.9448 -0.8201  0.3161
  261MOL0     C35161   3.771   9.689   7.202  0.2101 -1.1690  0.1815
  261MOL0     C35162   3.786   9.632   7.061  0.5536  0.2075 -0.2877
  261MOL0     C35163   3.810   9.731   6.962 -0.0439 -0.2686 -0.3311
  261MOL0     C35164   3.837   9.815   6.880  0.4004 -0.2120  1.2333
  261MOL0     C35165   4.265   9.810   7.098 -0.5312 -0.4743 -0.3062
  261MOL0     C35166   4.400   9.804   7.060 -0.4012 -1.0703  0.7965
  261MOL0     C35167   4.405   9.750   6.921 -0.1719  0.6482  0.6313
  261MOL0     H35168   4.955   9.843   7.013 -0.0813 -0.5526  1.5401
  261MOL0     H35169   5.155   9.807   7.124 -0.6912 -1.8230  0.1962
  261MOL0     H35170   5.263   9.681   7.329  0.1643  0.8542 -2.8484
  261MOL0     H35171   5.343   9.810   7.231  3.7983 -0.6755 -0.5520
  261MOL0     H35172   5.437   9.715   7.498  0.5736  2.1260  0.3885
  261MOL0     H35173   5.475   9.872   7.420 -1.9814  2.5876 -4.0016
  261MOL0     H35174   5.569   9.748   7.217  0.0906  3.4735  2.7394
  261MOL0     H35175   5.496   9.601   7.271 -1.2208  1.6822 -2.0720
  261MOL0     H35176   5.718   9.761   7.421 -1.2326  1.0949 -1.2297
  261MOL0     H35177   5.648   9.606   7.475 -2.6826 -1.1327 -0.1306
  261MOL0     H35178   5.723   9.514   7.247 -1.1362  0.5917  0.6016
  261MOL0     H35179   5.797   9.669   7.214 -1.0589  0.1422 -0.0871
  261MOL0     H35180   5.972   9.635   7.385 -2.4576  2.2940  1.6951
  261MOL0     H35181   5.862   9.522   7.456 -0.2790  2.3754  0.1361
  261MOL0     H35182   6.024   9.472   7.201  1.6595  0.8818  1.5213
  261MOL0     H35183   5.892   9.362   7.246  0.8781 -0.4453 -0.6503
  261MOL0     H35184   6.122   9.417   7.422  1.0445 -0.7741 -1.6589
  261MOL0     H35185   5.982   9.317   7.458  0.7543 -0.5167  0.2234
  261MOL0     H35186   6.111   9.064   7.444 -0.0543 -1.6965 -0.4084
  261MOL0     H35187   6.311   8.887   7.365  0.9239  2.6220  1.1080
  261MOL0     H35188   6.226   8.836   7.218 -2.6260  2.3854 -1.3227
  261MOL0     H35189   6.451   9.027   7.175 -0.4561  0.3689  0.1694
  261MOL0     H35190   6.500   8.890   7.245  0.2419  2.3876  0.2859
  261MOL0     H35191   6.494   8.913   6.984 -0.7523  1.1037  0.3343
  261MOL0     H35192   6.317   8.895   6.991 -0.5887 -4.6044 -0.8627
  261MOL0     H35193   6.416   8.682   6.958 -0.5225 -1.3688  1.0632
  261MOL0     H35194   6.358   8.674   7.115  0.0398  0.7375  1.0444
  261MOL0     H35195   6.606   8.789   6.854  1.9852  0.4343 -2.3914
  261MOL0     H35196   6.830   8.863   6.772 -4.8871 -0.7254 -0.9122
  261MOL0     H35197   7.357   8.710   6.861  0.9659 -0.4282  3.0046
  261MOL0     H35198   7.567   8.807   6.780  1.3603 -0.5921  1.4005
  261MOL0     H35199   7.767   8.900   6.757  0.8859 -1.2323 -2.1205
  261MOL0     H35200   7.666   8.974   6.627 -0.9568  0.7616  0.5150
  261MOL0     H35201   7.885   9.022   6.585 -0.6445  2.8358 -0.7548
  261MOL0     H35202   7.781   9.166   6.615 -4.3450 -2.2278  0.4671
  261MOL0     H35203   7.886   9.200   6.835 -0.6634 -1.4321  0.4185
  261MOL0     H35204   7.968   9.041   6.808  1.6548 -0.4118 -1.5801
  261MOL0     H35205   7.996   9.291   6.652  0.2788 -0.1239  0.1195
  261MOL0     H35206   8.072   9.140   6.600 -1.4227 -0.2395 -0.4307
  261MOL0     H35207   8.187   9.149   6.849 -0.7730  0.6651  0.7130
  261MOL0     H35208   8.138   9.313   6.838 -2.1236  1.0498 -1.4614
  261MOL0     H35209   8.371   9.292   6.765  1.4964  0.2404 -0.6249
  261MOL0     H35210   8.333   9.167   6.663  1.3133  0.7206 -0.4218
  261MOL0     H35211   8.234   9.447   6.634 -0.2316 -1.0990  1.1878
  261MOL0     H35212   8.225   9.331   6.505  1.0535  0.7984 -0.7118
  261MOL0     H35213   8.483   9.460   6.627 -3.0451  0.0497  1.5046
  261MOL0     H35214   8.494   9.325   6.515  2.2588  1.0755  1.4803
  261MOL0     H35215   7.510   9.164   6.977  2.4377 -1.7705  1.8121
  261MOL0     H35216   7.255   9.082   7.039 -0.7818  0.2692 -1.6278
  261MOL0     H35217   7.007   8.779   7.155 -0.4355  0.5948  1.0551
  261MOL0     H35218   6.778   8.700   7.230 -2.7833 -0.8035 -0.5148
  261MOL0     H35219   5.028  10.003   7.480 -0.2381 -1.2843  0.2664
  261MOL0     H35220   4.789  10.008   7.376  1.3518  1.5491 -1.6484
  261MOL0     H35221   4.542   9.960   7.337  0.8482 -1.4437 -0.2827
  261MOL0     H35222   4.303   9.959   7.410  0.5649 -0.1750  0.9212
  261MOL0     H35223   4.049   9.669   7.343  1.3834 -2.3024 -1.6848
  261MOL0     H35224   4.060   9.667   7.177 -0.4696 -1.7197  1.5899
  261MOL0     H35225   3.892   9.866   7.169  1.7999 -0.9532  0.3840
  261MOL0     H35226   3.856   9.822   7.344 -0.3437 -2.4995  1.1130
  261MOL0     H35227   3.672   9.734   7.217  0.2423 -0.7249 -0.8729
  261MOL0     H35228   3.769   9.605   7.272  1.4985 -0.0137  1.6958
  261MOL0     H35229   3.865   9.557   7.056 -0.9902 -1.4882 -0.5847
  261MOL0     H35230   3.691   9.582   7.039  0.8032 -0.7251  0.6771
  261MOL0     H35231   3.876   9.888   6.812 -1.5999  1.9961  2.2995
  261MOL0     H35232   4.181   9.766   7.046 -1.0981 -0.7755  0.8164
  261MOL0     H35233   4.429   9.643   6.924 -1.0621  0.4570  1.0956
  261MOL0     H35234   4.312   9.763   6.866  1.0829  2.6593 -1.1995
  261MOL0     H35235   4.471   9.824   6.875 -1.7235  0.3679 -2.3311
  262MOL0     O35236   6.002   5.470  10.672 -0.0785  0.8517 -0.4366
  262MOL0     C35237   5.917   5.546  10.718 -0.8687 -0.4263 -0.4643
  262MOL0     O35238   5.939   5.678  10.750 -0.0368  0.1339 -0.0458
  262MOL0     C35239   6.048   5.751  10.717 -0.7274  0.5515 -0.2724
  262MOL0     C35240   6.172   5.695  10.670 -0.2151 -0.0306  1.1655
  262MOL0     C35241   6.275   5.778  10.624  0.0585  0.2002  0.0587
  262MOL0     C35242   6.249   5.919  10.613  0.2816  0.0374  0.3464
  262MOL0     O35243   6.357   5.988  10.559  0.7175  0.6336  0.7391
  262MOL0     C35244   6.375   6.122  10.604 -0.2707  0.7169  0.1367
  262MOL0     C35245   6.503   6.186  10.550 -0.2316  0.0557  0.6340
  262MOL0     C35246   6.628   6.097  10.584  0.3839  0.5139  0.2565
  262MOL0     C35247   6.763   6.154  10.535  0.8980  0.5526 -0.2348
  262MOL0     C35248   6.868   6.053  10.558 -0.5106  0.0047 -0.5418
  262MOL0     C35249   7.011   6.108  10.561  0.2546 -0.8812 -0.7375
  262MOL0     C35250   7.117   6.007  10.520  0.0459  0.3599  0.5836
  262MOL0     C35251   7.260   6.068  10.536 -0.0884  0.1303  0.1634
  262MOL0     N35252   7.357   5.977  10.601  0.2570 -0.6121 -0.5299
  262MOL0     C35253   7.430   5.877  10.542  0.3249  0.6284  0.3363
  262MOL0     C35254   7.522   5.849  10.635 -0.5470  0.0977 -0.2721
  262MOL0     C35255   7.630   5.752  10.618 -0.4275 -0.1603  0.4821
  262MOL0     C35256   7.775   5.801  10.650 -0.2834  0.1358 -0.0921
  262MOL0     C35257   7.816   5.922  10.555  0.3925  0.4554 -0.5306
  262MOL0     C35258   7.818   5.889  10.411 -0.0729 -0.9570  0.0803
  262MOL0     O35259   7.878   5.993  10.332  0.1174  0.5103 -0.3006
  262MOL0     C35260   8.016   5.999  10.318  0.2980  0.3891 -0.5142
  262MOL0     C35261   8.112   5.918  10.391  0.2793  0.3661  0.3442
  262MOL0     C35262   8.247   5.918  10.358 -0.7940  0.0887  0.6554
  262MOL0     C35263   8.292   5.990  10.250 -0.0906  0.4464  0.9668
  262MOL0     C35264   8.432   5.970  10.214 -0.1634 -0.1212 -0.1705
  262MOL0     O35265   8.517   5.898  10.292 -0.0057 -0.0988 -0.2497
  262MOL0     C35266   8.648   5.885  10.258 -0.3480  0.8251  0.4836
  262MOL0     C35267   8.704   5.813  10.148 -0.9330 -0.2544 -1.0272
  262MOL0     C35268   8.843   5.813  10.130 -0.1969  0.9881 -0.2276
  262MOL0     C35269   8.939   5.877  10.216 -0.4050  0.1429  0.5422
  262MOL0     O35270   9.069   5.870  10.182 -0.0916 -0.7957 -0.2457
  262MOL0     C35271   9.120   5.735  10.177  0.3326 -0.4314  0.1921
  262MOL0     C35272   9.258   5.719  10.244  0.0798  1.1649  0.0648
  262MOL0     C35273   9.282   5.568  10.245 -0.6977 -0.8393  0.1622
  262MOL0     C35274   9.433   5.545  10.282 -0.3172 -0.7876 -0.1021
  262MOL0     C35275   9.453   5.387  10.313 -0.6571 -0.4732 -0.5815
  262MOL0     C35276   9.596   5.344  10.330 -0.3526 -0.3225  0.7530
  262MOL0     C35277   9.605   5.190  10.329 -0.8053 -0.1448 -0.0689
  262MOL0     C35278   9.504   5.115  10.416 -0.6648 -0.4188 -0.2849
  262MOL0    Cl35279   9.547   4.945  10.431  0.5942  0.4242 -0.2968
  262MOL0     C35280   8.883   5.950  10.318 -0.1374  0.4838  0.5669
  262MOL0     C35281   8.748   5.951  10.341  0.3538  0.7553 -0.2246
  262MOL0     O35282   8.476   6.020  10.112  0.0650  0.0212 -0.0183
  262MOL0     C35283   8.200   6.076  10.175 -0.2791 -0.3770 -0.3478
  262MOL0     C35284   8.065   6.080  10.208 -0.4439  0.0096 -0.7433
  262MOL0     N35285   7.498   5.915  10.756 -0.2102  0.4953  0.1269
  262MOL0     N35286   7.394   5.988  10.729  0.3380  0.3143  0.7235
  262MOL0     C35287   6.137   5.972  10.681  0.0415 -0.7461 -0.8632
  262MOL0     C35288   6.041   5.890  10.739  1.0755 -0.8098  0.7575
  262MOL0     C35289   5.786   5.489  10.750  1.2790  0.1827 -0.8444
  262MOL0     C35290   5.768   5.348  10.737 -0.5570 -0.2937 -0.3251
  262MOL0     C35291   5.648   5.293  10.770  0.2071  0.8234  0.3738
  262MOL0     C35292   5.535   5.357  10.810  0.5356 -0.5418 -0.8241
  262MOL0     O35293   5.411   5.292  10.819  0.2546  0.3231  0.0192
  262MOL0     C35294   5.299   5.354  10.880 -0.5805 -0.2826 -0.6437
  262MOL0     C35295   5.213   5.248  10.941  0.0104 -0.5938  0.6517
  262MOL0     C35296   5.110   5.200  10.842  0.2146  1.0998  1.6041
  262MOL0     C35297   5.155   5.085  10.750 -0.2753  0.8723  0.0860
  262MOL0     C35298   5.041   5.016  10.687 -0.1936  0.4488 -0.1500
  262MOL0     C35299   4.948   4.961  10.637  0.1670  0.5015  0.2817
  262MOL0     C35300   5.539   5.497  10.815  0.2308  0.3174 -0.0621
  262MOL0     C35301   5.667   5.561  10.798 -0.3866  0.0738 -0.0681
  262MOL0     C35302   5.680   5.704  10.837  1.0019 -0.5446  0.8028
  262MOL0     H35303   6.201   5.591  10.674  1.9097  0.2074 -2.7970
  262MOL0     H35304   6.366   5.731  10.588 -0.8062 -1.0514 -0.5821
  262MOL0     H35305   6.301   6.197  10.576 -0.3795  0.4397 -0.3266
  262MOL0     H35306   6.387   6.117  10.713  2.6480 -4.0382 -0.1298
  262MOL0     H35307   6.513   6.283  10.600  1.4420  0.7428 -0.9044
  262MOL0     H35308   6.489   6.186  10.441 -1.4597 -4.3687  0.6223
  262MOL0     H35309   6.626   5.992  10.552  0.6725  0.4191  0.5452
  262MOL0     H35310   6.642   6.096  10.692 -2.0233  1.1956  0.6360
  262MOL0     H35311   6.766   6.177  10.428  0.6865  2.1885  0.0723
  262MOL0     H35312   6.781   6.244  10.595 -0.9264  0.1164  1.0439
  262MOL0     H35313   6.851   5.988  10.645 -0.6430 -0.4092 -0.8721
  262MOL0     H35314   6.876   5.993  10.467  0.9697  1.0264 -1.1057
  262MOL0     H35315   7.015   6.199  10.500 -1.2016 -0.7909 -0.7332
  262MOL0     H35316   7.031   6.146  10.661 -1.0594  1.4803 -1.2961
  262MOL0     H35317   7.111   5.993  10.412 -0.1444  0.5686  0.5649
  262MOL0     H35318   7.110   5.918  10.582 -2.4050  0.5723  0.7031
  262MOL0     H35319   7.295   6.099  10.437  1.4180 -2.1682 -0.1107
  262MOL0     H35320   7.250   6.153  10.605 -3.6767 -0.2147  0.2416
  262MOL0     H35321   7.416   5.841  10.441 -1.3546  0.2128  0.6841
  262MOL0     H35322   7.601   5.665  10.678 -1.1522 -0.3664 -0.1476
  262MOL0     H35323   7.630   5.701  10.521  0.0717 -1.3231  1.0681
  262MOL0     H35324   7.776   5.837  10.753  2.2561 -1.3631  0.5032
  262MOL0     H35325   7.851   5.723  10.640  0.2798  0.4588  1.4271
  262MOL0     H35326   7.915   5.961  10.581  1.2643 -0.5788 -2.1678
  262MOL0     H35327   7.747   6.005  10.574 -0.6884 -0.0598 -2.0394
  262MOL0     H35328   7.718   5.864  10.375 -0.2095 -0.0325 -0.1911
  262MOL0     H35329   7.873   5.797  10.390  1.0440  0.0453 -1.6461
  262MOL0     H35330   8.072   5.855  10.469 -1.3683 -0.9051 -1.4116
  262MOL0     H35331   8.312   5.855  10.419 -2.6373  0.6581  3.3591
  262MOL0     H35332   8.640   5.774  10.070  0.9399  2.5206 -4.1886
  262MOL0     H35333   8.885   5.775  10.038 -4.9320 -1.1928 -1.7893
  262MOL0     H35334   9.048   5.665  10.221 -2.8253 -0.3131 -4.1778
  262MOL0     H35335   9.131   5.710  10.071 -0.9326  2.2063 -0.6523
  262MOL0     H35336   9.332   5.775  10.186 -0.5082 -0.9227 -2.9525
  262MOL0     H35337   9.248   5.759  10.346 -2.5297  0.7254  0.0466
  262MOL0     H35338   9.216   5.532  10.324 -1.9764  2.4310  0.7471
  262MOL0     H35339   9.269   5.522  10.146  1.5108  0.2645 -0.7130
  262MOL0     H35340   9.452   5.607  10.370 -1.5233 -0.2511 -0.2004
  262MOL0     H35341   9.499   5.575  10.200  0.7824 -0.1885  0.9679
  262MOL0     H35342   9.415   5.349  10.218  0.8594  0.0285 -1.4272
  262MOL0     H35343   9.390   5.354  10.396 -4.7090  0.8773 -2.8742
  262MOL0     H35344   9.668   5.388  10.261 -1.9232  2.0122  0.4885
  262MOL0     H35345   9.623   5.390  10.426  0.8614  1.6190 -0.4378
  262MOL0     H35346   9.708   5.169  10.361 -0.0044 -0.8684 -2.8318
  262MOL0     H35347   9.593   5.144  10.231 -0.0158  0.1465 -0.3177
  262MOL0     H35348   9.508   5.155  10.518 -3.8232 -1.4791  0.3353
  262MOL0     H35349   9.401   5.129  10.382 -1.7633 -0.5652  2.7121
  262MOL0     H35350   8.946   6.002  10.390  0.3902 -1.1744  1.3341
  262MOL0     H35351   8.702   6.001  10.425 -3.4773 -0.1492 -1.5627
  262MOL0     H35352   8.234   6.151  10.104 -0.2436  0.0035  0.0753
  262MOL0     H35353   8.009   6.150  10.147 -0.5930 -0.4265 -1.1178
  262MOL0     H35354   6.122   6.079  10.690 -2.0138 -1.1003  0.5348
  262MOL0     H35355   5.951   5.940  10.773  1.9473  2.4307 -1.1751
  262MOL0     H35356   5.851   5.282  10.715  1.8244  2.5503 -0.4849
  262MOL0     H35357   5.635   5.188  10.748 -0.3563  1.4289 -2.5555
  262MOL0     H35358   5.249   5.415  10.804  0.8970  2.2908  0.3250
  262MOL0     H35359   5.334   5.418  10.961  1.0478 -3.1215  1.0885
  262MOL0     H35360   5.167   5.298  11.027 -0.8324  2.2418 -1.3135
  262MOL0     H35361   5.279   5.172  10.984  0.8022 -0.6578 -0.6390
  262MOL0     H35362   5.075   5.275  10.770 -0.9980 -0.0265  0.9745
  262MOL0     H35363   5.019   5.169  10.893  0.3853 -2.3633  0.0802
  262MOL0     H35364   5.220   5.122  10.670  1.4371 -2.1505 -0.0822
  262MOL0     H35365   5.221   5.017  10.804 -0.9781 -1.0932 -1.4175
  262MOL0     H35366   4.872   4.911  10.581 -2.6870  1.3442  3.1520
  262MOL0     H35367   5.452   5.551  10.849 -0.3124 -1.6500  1.8995
  262MOL0     H35368   5.726   5.760  10.755 -0.1844  0.2994  0.6850
  262MOL0     H35369   5.584   5.748  10.864  0.4736 -2.2271  1.8529
  262MOL0     H35370   5.738   5.707  10.930 -0.2020 -1.4145  1.6218
  263MOL0     O35371   4.723   8.240   0.395 -0.1862 -0.2043  0.3176
  263MOL0     C35372   4.729   8.362   0.390  0.3829 -0.7468  0.1193
  263MOL0     O35373   4.841   8.439   0.390  0.0493  0.2837 -0.1110
  263MOL0     C35374   4.970   8.385   0.397  0.7516 -0.1691  0.1092
  263MOL0     C35375   5.030   8.336   0.510 -0.1346 -0.4756 -0.4795
  263MOL0     C35376   5.150   8.263   0.494  0.4913  0.2249  0.1205
  263MOL0     C35377   5.223   8.262   0.376  0.4846  0.3252 -0.2017
  263MOL0     O35378   5.357   8.221   0.384 -0.3889 -0.4467 -0.0042
  263MOL0     C35379   5.444   8.222   0.265  0.5515 -0.8348  0.5576
  263MOL0     C35380   5.591   8.192   0.310  0.2939  0.9134 -0.0107
  263MOL0     C35381   5.685   8.233   0.203 -0.2635  0.3784  0.5358
  263MOL0     C35382   5.834   8.190   0.231  0.2658 -0.3476  0.7515
  263MOL0     C35383   5.921   8.252   0.120  0.2832 -0.0168  0.5880
  263MOL0     C35384   6.064   8.201   0.118 -0.6650 -0.4615  0.2800
  263MOL0     C35385   6.170   8.296   0.054  0.3248  0.7570 -0.1409
  263MOL0     C35386   6.128   8.337  -0.081 -0.2672  0.1940 -0.7802
  263MOL0     N35387   6.242   8.369  -0.165  1.6636  0.4125  0.5845
  263MOL0     C35388   6.314   8.282  -0.238  0.0280 -0.0289  0.6592
  263MOL0     C35389   6.409   8.354  -0.303 -0.0898  0.5440 -0.3560
  263MOL0     C35390   6.520   8.309  -0.399 -1.4133 -0.1885 -0.7861
  263MOL0     C35391   6.665   8.309  -0.348  0.2051 -0.0406  0.7095
  263MOL0     C35392   6.758   8.258  -0.463 -0.9533 -0.4126 -0.0732
  263MOL0     C35393   6.904   8.273  -0.417  0.0885 -0.2350  0.0803
  263MOL0     O35394   6.986   8.242  -0.532  0.3166 -0.4476  0.3024
  263MOL0     C35395   7.121   8.253  -0.513  0.7691 -0.6896 -0.6398
  263MOL0     C35396   7.206   8.211  -0.619  0.5021  0.1427  0.4879
  263MOL0     C35397   7.342   8.197  -0.604 -0.0048 -0.0829 -0.1917
  263MOL0     C35398   7.408   8.218  -0.483  0.9985 -0.4795  0.4718
  263MOL0     C35399   7.554   8.212  -0.473 -0.2509 -0.5817 -0.0703
  263MOL0     O35400   7.597   8.193  -0.350 -1.1909  0.3962 -0.0581
  263MOL0     C35401   7.723   8.193  -0.301 -0.0178  0.1292 -0.2116
  263MOL0     C35402   7.734   8.124  -0.179  0.3805  0.3668  0.1372
  263MOL0     C35403   7.854   8.088  -0.115 -0.7979  0.0192  0.5927
  263MOL0     C35404   7.970   8.140  -0.164 -0.3204 -0.2909  0.4502
  263MOL0     O35405   8.092   8.119  -0.117  0.0384  0.0491  0.0592
  263MOL0     C35406   8.114   8.167   0.017  0.2454  1.2863 -0.3108
  263MOL0     C35407   8.263   8.168   0.039  0.2622  0.3036 -0.5809
  263MOL0     C35408   8.341   8.038   0.029 -0.8424  0.0254  0.4909
  263MOL0     C35409   8.495   8.078   0.042 -0.5744 -0.1378  0.6787
  263MOL0     C35410   8.584   7.951   0.043  0.2767  0.6239  0.7716
  263MOL0     C35411   8.734   7.988   0.045  0.7725  0.0703 -0.2335
  263MOL0     C35412   8.794   8.018  -0.096  1.1052 -0.3242  0.4112
  263MOL0     C35413   8.916   8.117  -0.105 -0.2727  0.2962  0.0525
  263MOL0    Cl35414   8.847   8.278  -0.073 -0.7334 -0.1978  0.1358
  263MOL0     C35415   7.965   8.214  -0.281 -0.2181 -1.0206  0.0160
  263MOL0     C35416   7.838   8.247  -0.350 -0.0392  0.4283  0.9485
  263MOL0     O35417   7.623   8.232  -0.567  0.6078 -0.3066  0.2406
  263MOL0     C35418   7.322   8.250  -0.379 -0.3467 -1.1521 -0.9893
  263MOL0     C35419   7.182   8.278  -0.394 -0.4277  0.4558 -0.2099
  263MOL0     N35420   6.376   8.489  -0.277 -0.0660 -0.6400 -0.4745
  263MOL0     N35421   6.283   8.491  -0.189  0.8663 -0.7416 -0.1127
  263MOL0     C35422   5.162   8.310   0.260  0.3644 -1.0976  0.3545
  263MOL0     C35423   5.033   8.370   0.269  0.0200 -0.1234  0.0965
  263MOL0     C35424   4.598   8.436   0.368  0.2703  0.2684  0.7352
  263MOL0     C35425   4.602   8.571   0.339  0.2324  0.1039 -0.2945
  263MOL0     C35426   4.483   8.645   0.325 -0.2865  0.3850  0.6085
  263MOL0     C35427   4.361   8.591   0.339 -0.2614 -0.6045 -0.3409
  263MOL0     O35428   4.242   8.662   0.336  0.0729 -0.3246 -0.1012
  263MOL0     C35429   4.219   8.726   0.211 -0.1311 -0.3491  0.0948
  263MOL0     C35430   4.096   8.664   0.143 -0.2225  0.3742  0.3425
  263MOL0     C35431   3.987   8.620   0.243 -0.8635  0.1061  0.9285
  263MOL0     C35432   3.927   8.743   0.319 -0.2089  0.3922 -0.1138
  263MOL0     C35433   3.889   8.851   0.232  0.1672  0.9656  1.7178
  263MOL0     C35434   3.859   8.944   0.158 -0.0512 -0.2803 -0.4034
  263MOL0     C35435   4.357   8.457   0.366 -0.0574  0.5190  0.5191
  263MOL0     C35436   4.469   8.372   0.367 -0.8074  0.1730  0.5137
  263MOL0     C35437   4.436   8.227   0.377 -0.4393 -0.0268 -0.1797
  263MOL0     H35438   4.976   8.348   0.603  0.5407 -2.2334  0.1790
  263MOL0     H35439   5.190   8.224   0.588 -1.0168  1.5218  1.3615
  263MOL0     H35440   5.427   8.134   0.203  0.9555 -0.0975 -0.6261
  263MOL0     H35441   5.424   8.310   0.204  0.4214 -0.5265  1.0333
  263MOL0     H35442   5.600   8.087   0.339  1.1125  0.9018 -0.2958
  263MOL0     H35443   5.609   8.254   0.399 -1.9398  1.2570  0.2556
  263MOL0     H35444   5.666   8.340   0.189 -0.3173  0.3499  0.3856
  263MOL0     H35445   5.658   8.182   0.110 -0.1387  0.2448  0.5724
  263MOL0     H35446   5.869   8.240   0.322 -1.8534  3.1678 -0.1917
  263MOL0     H35447   5.850   8.082   0.242  0.7721 -0.3150  0.3612
  263MOL0     H35448   5.881   8.221   0.022  2.5914 -1.4589  0.0118
  263MOL0     H35449   5.918   8.360   0.132 -0.5478 -0.1091  1.3404
  263MOL0     H35450   6.092   8.185   0.223 -2.3796  0.0964  0.8565
  263MOL0     H35451   6.061   8.108   0.059 -3.2944  0.5206 -1.3102
  263MOL0     H35452   6.269   8.249   0.046  0.0930  0.3575 -0.6995
  263MOL0     H35453   6.183   8.386   0.115  2.3368  0.3717  0.0898
  263MOL0     H35454   6.086   8.244  -0.120  2.8250 -3.4210  3.4397
  263MOL0     H35455   6.050   8.413  -0.086 -0.5547 -0.0946 -0.7932
  263MOL0     H35456   6.299   8.174  -0.242  0.4604 -0.0671 -2.1052
  263MOL0     H35457   6.500   8.206  -0.432 -3.8984  0.2141 -0.7232
  263MOL0     H35458   6.514   8.375  -0.486 -0.8371  2.9042  1.3822
  263MOL0     H35459   6.693   8.414  -0.332  0.1537  0.4085 -1.7683
  263MOL0     H35460   6.675   8.260  -0.251 -1.0200 -2.2735 -0.2220
  263MOL0     H35461   6.751   8.326  -0.548  1.3419  1.2231  0.9426
  263MOL0     H35462   6.731   8.154  -0.483 -3.8908  0.1205  0.6811
  263MOL0     H35463   6.924   8.195  -0.343 -0.7202 -0.2658  0.2764
  263MOL0     H35464   6.920   8.369  -0.368  0.2733  0.2481 -0.8960
  263MOL0     H35465   7.166   8.184  -0.716  1.8856  1.6530 -0.5491
  263MOL0     H35466   7.407   8.173  -0.688 -0.5059 -1.2132 -0.2779
  263MOL0     H35467   7.644   8.076  -0.143 -1.2299  1.5943 -1.9752
  263MOL0     H35468   7.851   8.014  -0.035  0.5426 -0.0408  0.6169
  263MOL0     H35469   8.084   8.272   0.022 -2.5743  0.8352 -3.8069
  263MOL0     H35470   8.065   8.109   0.095  0.4720  2.1945  0.5276
  263MOL0     H35471   8.306   8.234  -0.037 -1.6129 -1.6761 -3.5853
  263MOL0     H35472   8.294   8.210   0.135 -1.0385 -1.0262  0.4630
  263MOL0     H35473   8.320   7.970   0.112  3.9025 -1.1922  0.9809
  263MOL0     H35474   8.323   7.989  -0.067  1.2207 -1.4186  0.7590
  263MOL0     H35475   8.501   8.124   0.141  3.8985 -0.3646  0.7155
  263MOL0     H35476   8.528   8.143  -0.039  3.6244  0.0183  2.2591
  263MOL0     H35477   8.562   7.900  -0.051  2.6981  0.9126 -0.0279
  263MOL0     H35478   8.554   7.888   0.127 -0.5253 -0.5281 -0.3459
  263MOL0     H35479   8.740   8.082   0.100  0.5322 -0.3200  0.4698
  263MOL0     H35480   8.794   7.912   0.095 -0.5544 -0.6728  0.2749
  263MOL0     H35481   8.715   8.057  -0.160  2.2326 -0.2173 -0.9879
  263MOL0     H35482   8.832   7.922  -0.135 -0.2700  0.7213 -4.1519
  263MOL0     H35483   8.999   8.097  -0.036  0.8555 -1.4916 -1.7353
  263MOL0     H35484   8.951   8.116  -0.209 -2.0647 -0.9713 -0.5792
  263MOL0     H35485   8.055   8.249  -0.331 -0.7973  0.0882 -0.2910
  263MOL0     H35486   7.844   8.302  -0.443  1.0919 -2.1479 -0.6167
  263MOL0     H35487   7.369   8.287  -0.288 -0.0857 -0.3587 -1.4340
  263MOL0     H35488   7.128   8.308  -0.304  1.3779  0.0787  1.0493
  263MOL0     H35489   5.210   8.309   0.162 -1.3472  0.5879 -0.5719
  263MOL0     H35490   4.974   8.412   0.188  1.1675 -0.2002 -0.8071
  263MOL0     H35491   4.696   8.620   0.315 -1.2187  1.8510 -2.9046
  263MOL0     H35492   4.482   8.749   0.294  0.2688 -0.1011 -1.1667
  263MOL0     H35493   4.303   8.726   0.141 -0.8128 -1.2554 -0.7421
  263MOL0     H35494   4.204   8.835   0.218 -1.5958 -0.3893 -1.7472
  263MOL0     H35495   4.118   8.582   0.073 -0.9047  1.4901 -1.2526
  263MOL0     H35496   4.052   8.731   0.069  2.3360 -0.3551 -2.0582
  263MOL0     H35497   4.026   8.544   0.311 -0.1775 -0.3264  0.0678
  263MOL0     H35498   3.906   8.567   0.192 -1.0403  0.5491  0.7386
  263MOL0     H35499   3.843   8.707   0.379  0.8182 -2.1785 -0.0839
  263MOL0     H35500   4.003   8.779   0.390 -0.3126  0.9115 -0.2674
  263MOL0     H35501   3.850   9.034   0.100  2.1480  0.1970 -0.0987
  263MOL0     H35502   4.258   8.420   0.389  0.5963 -1.0971  0.8700
  263MOL0     H35503   4.481   8.194   0.471  0.7493  1.4589 -0.1920
  263MOL0     H35504   4.329   8.218   0.394 -0.4464  2.0554  1.0912
  263MOL0     H35505   4.477   8.174   0.290  2.7362  2.1070 -0.1636
  264MOL0     O35506   3.581   4.644   5.879 -0.4086  0.0036 -0.3527
  264MOL0     C35507   3.551   4.542   5.828  0.0991  1.0207 -0.6268
  264MOL0     O35508   3.632   4.427   5.832  0.4651 -0.4368 -0.0449
  264MOL0     C35509   3.741   4.415   5.914  0.4938 -0.6962 -0.1510
  264MOL0     C35510   3.734   4.423   6.055  0.3371 -0.3964  0.2008
  264MOL0     C35511   3.851   4.420   6.134 -0.6703 -0.7758 -0.5035
  264MOL0     C35512   3.981   4.400   6.078  0.9114 -0.5854 -0.1202
  264MOL0     O35513   4.084   4.397   6.173  0.6049 -0.3801  0.5008
  264MOL0     C35514   4.214   4.365   6.127  0.0757  0.1076 -0.6576
  264MOL0     C35515   4.290   4.325   6.246 -0.4792 -0.3199 -0.5590
  264MOL0     C35516   4.434   4.297   6.220 -0.0346  0.1684 -0.5324
  264MOL0     C35517   4.494   4.262   6.359 -0.0621  0.2909  0.4850
  264MOL0     C35518   4.646   4.249   6.355 -0.5191  0.2458  0.6451
  264MOL0     C35519   4.709   4.187   6.477 -1.0943  0.8283  0.2033
  264MOL0     C35520   4.857   4.222   6.469  0.6540 -0.1057  0.1399
  264MOL0     C35521   4.943   4.169   6.587  0.3905 -0.0821 -0.3619
  264MOL0     N35522   5.082   4.178   6.553  0.2852  0.3526 -0.2984
  264MOL0     C35523   5.179   4.261   6.605  1.2115 -0.0442  0.3827
  264MOL0     C35524   5.293   4.220   6.549  0.7971  0.2395  0.1927
  264MOL0     C35525   5.430   4.282   6.566 -0.5849 -0.3661  0.6092
  264MOL0     C35526   5.526   4.176   6.634 -0.2014 -0.2362 -0.2234
  264MOL0     C35527   5.651   4.242   6.687 -0.0672  0.1188  0.7025
  264MOL0     C35528   5.729   4.140   6.770  0.2671 -0.0757  0.2200
  264MOL0     O35529   5.767   4.037   6.679 -0.2003 -0.0273  0.2575
  264MOL0     C35530   5.897   4.033   6.641  0.1765  0.4522  0.7325
  264MOL0     C35531   5.981   4.138   6.604 -0.3623  0.8033  1.0705
  264MOL0     C35532   6.100   4.109   6.529  0.5893  0.0293 -0.4879
  264MOL0     C35533   6.123   3.972   6.489 -1.0417 -0.0425 -0.5969
  264MOL0     C35534   6.243   3.931   6.416  0.1130 -0.6884  0.8076
  264MOL0     O35535   6.330   4.034   6.391 -0.2726  0.2456 -0.4607
  264MOL0     C35536   6.445   4.016   6.321  0.0998  0.0621 -0.5697
  264MOL0     C35537   6.462   3.963   6.196 -0.1218 -0.5681 -0.4164
  264MOL0     C35538   6.578   3.960   6.117 -0.2743 -0.2398 -0.4997
  264MOL0     C35539   6.693   4.017   6.181 -0.6713 -0.2245 -0.1323
  264MOL0     O35540   6.819   4.030   6.120 -0.2162  0.6516 -0.0538
  264MOL0     C35541   6.836   3.967   5.996  0.4716 -0.2044  0.4651
  264MOL0     C35542   6.977   4.000   5.946  0.5155 -0.1428 -0.4873
  264MOL0     C35543   7.012   3.888   5.834 -0.2505 -0.6299  0.4004
  264MOL0     C35544   7.154   3.914   5.783  0.3785 -0.5324  1.2497
  264MOL0     C35545   7.210   3.796   5.700  0.0126  0.3363  0.1192
  264MOL0     C35546   7.227   3.661   5.764  0.5179 -0.5416  0.0234
  264MOL0     C35547   7.319   3.570   5.689  0.6303 -0.4964 -0.2471
  264MOL0     C35548   7.297   3.429   5.745  0.2988  0.4950  0.0007
  264MOL0    Cl35549   7.412   3.310   5.655  0.1528  0.2712 -0.4691
  264MOL0     C35550   6.681   4.080   6.306  0.5294 -0.6168  0.4579
  264MOL0     C35551   6.556   4.082   6.373  0.1341 -0.2222  0.3428
  264MOL0     O35552   6.251   3.818   6.368 -0.3079  0.4729  0.0740
  264MOL0     C35553   6.035   3.868   6.530 -0.6010  0.2040  0.0910
  264MOL0     C35554   5.926   3.896   6.609  1.0351 -0.7450 -0.1166
  264MOL0     N35555   5.261   4.116   6.462 -1.1539  0.3283  0.1744
  264MOL0     N35556   5.138   4.099   6.462  0.4321 -0.3578 -0.6245
  264MOL0     C35557   3.989   4.379   5.945 -0.0252  1.3178 -0.0699
  264MOL0     C35558   3.874   4.400   5.865  0.9193 -0.0436 -0.0706
  264MOL0     C35559   3.439   4.537   5.735  0.0249 -0.9250 -0.0902
  264MOL0     C35560   3.443   4.443   5.630  0.0857 -0.3219  0.0867
  264MOL0     C35561   3.332   4.432   5.539  0.2800 -0.5495 -0.3445
  264MOL0     C35562   3.225   4.517   5.559 -0.1932  0.5159  0.2392
  264MOL0     O35563   3.123   4.503   5.466  0.3724 -0.8340 -0.2980
  264MOL0     C35564   3.017   4.599   5.474  0.3703  0.8635 -0.6652
  264MOL0     C35565   2.914   4.557   5.367 -0.1326 -0.8104 -0.0201
  264MOL0     C35566   2.802   4.666   5.370 -0.8329 -0.3927 -0.0266
  264MOL0     C35567   2.725   4.677   5.232  0.5067 -0.1618 -0.3725
  264MOL0     C35568   2.818   4.710   5.131  0.6036 -0.2660  1.0289
  264MOL0     C35569   2.902   4.737   5.044 -0.0771  0.6198  0.2086
  264MOL0     C35570   3.223   4.610   5.663 -0.5588 -0.0483 -0.0278
  264MOL0     C35571   3.326   4.618   5.759  0.4581 -0.1065 -0.2389
  264MOL0     C35572   3.312   4.731   5.864  0.3138 -0.1033 -0.0047
  264MOL0     H35573   3.639   4.440   6.104 -0.4680  3.3198 -2.2543
  264MOL0     H35574   3.842   4.428   6.242 -0.6152  2.4622 -0.6438
  264MOL0     H35575   4.207   4.281   6.058  2.5501  1.2994 -2.5414
  264MOL0     H35576   4.252   4.445   6.063 -4.0808  1.3375 -1.8621
  264MOL0     H35577   4.243   4.240   6.296  0.3705  0.2444  1.2908
  264MOL0     H35578   4.285   4.404   6.322  3.0551  0.4394 -0.9624
  264MOL0     H35579   4.495   4.379   6.182  0.8206  0.1467  0.7431
  264MOL0     H35580   4.444   4.211   6.153 -1.3133  2.1797 -3.5277
  264MOL0     H35581   4.469   4.332   6.439 -1.1615 -0.8984  1.2099
  264MOL0     H35582   4.460   4.164   6.391  1.8075  0.0278  1.8535
  264MOL0     H35583   4.673   4.181   6.273  3.0008  1.6877  0.4182
  264MOL0     H35584   4.684   4.351   6.345  0.5752 -0.0586  1.4398
  264MOL0     H35585   4.671   4.227   6.571 -1.9005  0.7447 -0.0815
  264MOL0     H35586   4.693   4.079   6.486 -2.8804  0.8577 -1.7488
  264MOL0     H35587   4.881   4.328   6.461 -1.4254  0.5931  2.0406
  264MOL0     H35588   4.894   4.179   6.376  0.3412 -3.4245  1.4217
  264MOL0     H35589   4.914   4.217   6.681  2.0245  1.3218 -0.5399
  264MOL0     H35590   4.929   4.061   6.597 -0.8366  0.1089  0.2592
  264MOL0     H35591   5.158   4.337   6.679 -0.9876  0.4424 -0.6809
  264MOL0     H35592   5.476   4.306   6.470 -1.4044  1.4193  0.6168
  264MOL0     H35593   5.414   4.375   6.621 -0.2142 -0.0022  0.1117
  264MOL0     H35594   5.474   4.148   6.726 -2.0441  0.7322 -0.9043
  264MOL0     H35595   5.537   4.090   6.567 -2.3704 -1.2500  0.6259
  264MOL0     H35596   5.620   4.331   6.742 -0.2741  1.8145 -1.9686
  264MOL0     H35597   5.717   4.282   6.609 -2.2425  4.2684  0.7613
  264MOL0     H35598   5.666   4.102   6.852  0.4069 -1.2719 -0.2014
  264MOL0     H35599   5.813   4.192   6.816  1.1727 -1.7819  0.5651
  264MOL0     H35600   5.946   4.240   6.616 -1.5254  0.2782  2.4365
  264MOL0     H35601   6.170   4.184   6.495  1.5198  0.1981  1.6271
  264MOL0     H35602   6.375   3.924   6.144 -2.3430  0.7325  2.0484
  264MOL0     H35603   6.577   3.919   6.017  1.5029 -1.5663 -0.0191
  264MOL0     H35604   6.831   3.860   6.019 -2.7142 -0.7051 -1.9211
  264MOL0     H35605   6.768   3.986   5.913  0.7518 -1.6788 -0.1367
  264MOL0     H35606   6.994   4.097   5.900  2.4534  0.5104  1.3966
  264MOL0     H35607   7.055   3.995   6.024  0.8578 -2.4975 -0.8867
  264MOL0     H35608   7.005   3.785   5.871  0.6579 -1.2230 -0.9930
  264MOL0     H35609   6.943   3.901   5.751 -1.9077 -0.2429  1.7856
  264MOL0     H35610   7.218   3.929   5.871 -2.5615  1.0833  3.2470
  264MOL0     H35611   7.150   4.008   5.728 -0.6049 -1.6884 -0.7590
  264MOL0     H35612   7.309   3.834   5.673 -0.2551  0.0787 -1.3195
  264MOL0     H35613   7.148   3.785   5.611  0.0647 -1.2951  0.2585
  264MOL0     H35614   7.273   3.674   5.862  0.9331  1.7512 -0.4187
  264MOL0     H35615   7.131   3.609   5.764 -0.5916  1.3686 -1.2254
  264MOL0     H35616   7.423   3.599   5.700  2.1732 -3.0314 -5.1339
  264MOL0     H35617   7.293   3.567   5.582 -1.7043 -3.7478  0.2796
  264MOL0     H35618   7.312   3.427   5.854 -0.8084  0.0311  0.1568
  264MOL0     H35619   7.193   3.400   5.724  1.5890 -1.9414 -4.0077
  264MOL0     H35620   6.769   4.133   6.341  0.7404 -0.0149 -0.9012
  264MOL0     H35621   6.546   4.144   6.462 -2.1592 -1.5207  1.0875
  264MOL0     H35622   6.065   3.765   6.518  2.4504  1.0460 -0.5217
  264MOL0     H35623   5.857   3.817   6.635 -0.3274 -0.0360 -1.4510
  264MOL0     H35624   4.085   4.360   5.897 -1.6029 -0.4587 -2.7436
  264MOL0     H35625   3.895   4.392   5.759 -0.3699 -1.3947 -0.2613
  264MOL0     H35626   3.534   4.384   5.626  2.3246  2.9364 -1.3112
  264MOL0     H35627   3.326   4.362   5.457  0.1873 -1.3716  0.3543
  264MOL0     H35628   3.052   4.700   5.453 -1.8472  1.7434 -0.4682
  264MOL0     H35629   2.977   4.585   5.575  2.2778 -1.2252 -0.1335
  264MOL0     H35630   2.863   4.465   5.397 -0.0717 -0.6600  0.5433
  264MOL0     H35631   2.966   4.555   5.270 -1.3463  2.0387 -0.8433
  264MOL0     H35632   2.835   4.766   5.400  1.0303 -1.4503  1.6587
  264MOL0     H35633   2.727   4.636   5.444 -2.1988 -1.2518 -1.6774
  264MOL0     H35634   2.662   4.590   5.212 -1.6649  1.6541 -1.9990
  264MOL0     H35635   2.657   4.763   5.241  2.1077  1.2374 -1.2165
  264MOL0     H35636   2.966   4.770   4.964  1.5793  0.7906  1.5676
  264MOL0     H35637   3.138   4.677   5.679 -1.9395 -1.9955  1.2030
  264MOL0     H35638   3.379   4.813   5.837  0.6090  0.8241  3.1296
  264MOL0     H35639   3.207   4.755   5.885 -0.2699  0.0183 -2.6752
  264MOL0     H35640   3.346   4.698   5.962 -2.6535 -0.4597  1.0239
  265MOL0     O35641   0.242   4.054   5.236 -0.3929 -0.6524  1.0210
  265MOL0     C35642   0.274   3.941   5.197  0.5183 -0.6039  0.1420
  265MOL0     O35643   0.404   3.898   5.204  0.0626 -0.2588 -0.2383
  265MOL0     C35644   0.508   3.990   5.216 -0.0519  0.4823  0.3666
  265MOL0     C35645   0.558   4.057   5.106 -0.2579  0.1204 -0.1451
  265MOL0     C35646   0.680   4.120   5.114 -0.5925 -0.7146 -0.0697
  265MOL0     C35647   0.739   4.151   5.234 -0.1598 -0.2512 -0.5362
  265MOL0     O35648   0.842   4.234   5.244 -0.0383 -0.5424  1.1481
  265MOL0     C35649   0.959   4.213   5.337 -0.2075  0.2338 -0.2407
  265MOL0     C35650   1.059   4.324   5.283 -0.7300 -0.4559 -0.7935
  265MOL0     C35651   1.192   4.302   5.354 -0.3088  0.3806  0.6582
  265MOL0     C35652   1.305   4.375   5.285  0.5125  0.0122  0.3341
  265MOL0     C35653   1.308   4.523   5.323 -0.1585 -0.4363 -0.0284
  265MOL0     C35654   1.427   4.608   5.285  0.2063  0.3138  0.1003
  265MOL0     C35655   1.556   4.584   5.372  0.3234 -0.0637 -1.0394
  265MOL0     C35656   1.655   4.689   5.327  0.9517  0.6925  0.6000
  265MOL0     N35657   1.777   4.682   5.414  0.8293 -0.0468  0.5055
  265MOL0     C35658   1.873   4.775   5.424  0.0459  0.0795  0.1201
  265MOL0     C35659   1.971   4.711   5.489  0.8052  0.4546  0.3041
  265MOL0     C35660   2.113   4.755   5.499 -1.3866 -0.9365 -0.3624
  265MOL0     C35661   2.199   4.645   5.569 -0.6721 -0.3693  0.4190
  265MOL0     C35662   2.337   4.703   5.601  0.6707  0.6445 -0.2225
  265MOL0     C35663   2.420   4.611   5.682 -0.7463 -0.3086  0.3931
  265MOL0     O35664   2.540   4.678   5.732  0.3542 -0.3692  0.1976
  265MOL0     C35665   2.647   4.611   5.772 -0.2024  0.1385 -0.1148
  265MOL0     C35666   2.755   4.686   5.820  0.6622  0.4462 -0.5985
  265MOL0     C35667   2.867   4.623   5.868  0.4398 -0.8302  0.1921
  265MOL0     C35668   2.883   4.487   5.883  0.4770  0.5930 -0.0137
  265MOL0     C35669   2.990   4.431   5.960  0.0870 -0.1323 -0.0994
  265MOL0     O35670   3.111   4.499   5.984 -0.1625 -0.3917  0.1153
  265MOL0     C35671   3.213   4.423   6.043  0.1552  0.5663  0.7151
  265MOL0     C35672   3.274   4.460   6.160  0.1135  0.1463 -0.0234
  265MOL0     C35673   3.377   4.386   6.212  0.9410 -0.0825  0.3925
  265MOL0     C35674   3.413   4.267   6.143  0.3419  0.0754 -0.8807
  265MOL0     O35675   3.517   4.185   6.169  0.0557 -1.0415 -0.3791
  265MOL0     C35676   3.547   4.156   6.307 -0.2545  0.6132 -0.0058
  265MOL0     C35677   3.672   4.067   6.308  0.2060  1.2386 -0.0849
  265MOL0     C35678   3.692   3.997   6.435  0.5880 -0.3228  0.3568
  265MOL0     C35679   3.817   3.917   6.426 -0.7018 -0.0839  0.0904
  265MOL0     C35680   3.839   3.835   6.555  0.0132  0.3328 -0.6421
  265MOL0     C35681   3.740   3.718   6.565  0.0416  0.3656 -0.0047
  265MOL0     C35682   3.794   3.627   6.678  0.4477  0.1133  0.8018
  265MOL0     C35683   3.806   3.488   6.635 -0.2115 -0.1889 -0.2239
  265MOL0    Cl35684   3.924   3.473   6.496  0.4713  0.0312  0.4256
  265MOL0     C35685   3.362   4.238   6.018  0.2576 -0.4040 -0.1727
  265MOL0     C35686   3.255   4.312   5.971  0.2805  0.1202 -0.3635
  265MOL0     O35687   2.964   4.324   6.007  0.2018  0.5964  0.0706
  265MOL0     C35688   2.777   4.407   5.837  0.4906 -0.6146 -0.0984
  265MOL0     C35689   2.657   4.468   5.788 -0.3431 -0.4688  0.1328
  265MOL0     N35690   1.933   4.575   5.503 -0.1969  0.3647  0.0495
  265MOL0     N35691   1.815   4.564   5.466  0.0657 -0.1738  0.0221
  265MOL0     C35692   0.678   4.096   5.347 -0.1886  0.0473  0.7717
  265MOL0     C35693   0.571   4.009   5.341  1.2227  0.5157  0.2298
  265MOL0     C35694   0.177   3.851   5.119  0.2647 -0.1087  0.1882
  265MOL0     C35695   0.235   3.749   5.045  0.2010 -0.5935  0.1243
  265MOL0     C35696   0.154   3.667   4.959  0.0425 -0.0748  0.4715
  265MOL0     C35697   0.015   3.681   4.945  0.2901 -0.1524 -0.3088
  265MOL0     O35698  -0.056   3.595   4.871  0.1888  0.2339  1.2254
  265MOL0     C35699  -0.133   3.664   4.767 -0.3611  0.8634  0.4448
  265MOL0     C35700  -0.230   3.564   4.706 -0.6633 -0.3487  0.2616
  265MOL0     C35701  -0.321   3.634   4.608  0.7719 -0.6074 -0.0258
  265MOL0     C35702  -0.426   3.543   4.548 -0.4701 -0.6438  0.3883
  265MOL0     C35703  -0.528   3.506   4.647 -0.7044  1.1145  0.7404
  265MOL0     C35704  -0.618   3.471   4.721  0.2985  0.7726  0.0768
  265MOL0     C35705  -0.040   3.792   5.018  0.2677  0.8121 -0.5506
  265MOL0     C35706   0.034   3.873   5.102  0.2607 -0.2285 -0.2540
  265MOL0     C35707  -0.047   3.974   5.182 -0.0673  0.1698 -0.1699
  265MOL0     H35708   0.516   4.035   5.008  0.4909  0.4525 -0.5496
  265MOL0     H35709   0.719   4.164   5.022  0.6582  1.3229  1.3470
  265MOL0     H35710   0.938   4.215   5.444 -0.2052  0.2280 -0.2403
  265MOL0     H35711   1.006   4.117   5.314  0.1794  0.4228 -0.2441
  265MOL0     H35712   1.021   4.425   5.305 -1.9521 -1.0485 -0.0464
  265MOL0     H35713   1.074   4.311   5.175 -0.1398  0.7695 -0.8776
  265MOL0     H35714   1.202   4.193   5.352 -2.8340  0.0850 -1.2082
  265MOL0     H35715   1.179   4.344   5.454  0.1633  3.0427 -0.3323
  265MOL0     H35716   1.393   4.316   5.309 -1.1692 -1.5699  3.1084
  265MOL0     H35717   1.291   4.374   5.176  1.3106 -2.8433  0.1915
  265MOL0     H35718   1.223   4.576   5.279  1.1433  0.9349 -1.0328
  265MOL0     H35719   1.303   4.532   5.432  0.8322 -0.9933  0.0788
  265MOL0     H35720   1.445   4.580   5.181 -1.5437  0.9904 -0.4108
  265MOL0     H35721   1.394   4.712   5.289 -0.3245  0.1894 -0.9382
  265MOL0     H35722   1.595   4.484   5.351  0.3510 -0.5142  0.9196
  265MOL0     H35723   1.535   4.595   5.479  2.3159 -1.7364 -0.4020
  265MOL0     H35724   1.675   4.665   5.222  2.3071  0.1666  0.9524
  265MOL0     H35725   1.613   4.790   5.328 -1.0217 -0.0876  1.9265
  265MOL0     H35726   1.885   4.868   5.369  1.0053  0.5651  1.1126
  265MOL0     H35727   2.148   4.781   5.399  0.4508  3.1732  1.1015
  265MOL0     H35728   2.120   4.847   5.558  0.2169  0.7176 -2.9454
  265MOL0     H35729   2.160   4.627   5.670 -0.3529  0.3914  0.6880
  265MOL0     H35730   2.207   4.550   5.516 -1.8968 -0.8625  1.0906
  265MOL0     H35731   2.327   4.799   5.654 -1.9510 -0.0303  0.6706
  265MOL0     H35732   2.388   4.709   5.505  1.4807 -0.6795  0.1020
  265MOL0     H35733   2.455   4.534   5.613  0.4928  0.5304  0.0282
  265MOL0     H35734   2.348   4.576   5.756 -0.7584  0.5704  0.8115
  265MOL0     H35735   2.754   4.794   5.826  0.3996  0.3980  4.1570
  265MOL0     H35736   2.950   4.690   5.888 -0.4010  0.4528 -0.4384
  265MOL0     H35737   3.244   4.547   6.217 -1.4178  0.7124 -1.6074
  265MOL0     H35738   3.425   4.414   6.305 -0.2180 -2.6933  1.8843
  265MOL0     H35739   3.574   4.244   6.366  0.3188 -0.1088  0.8384
  265MOL0     H35740   3.456   4.112   6.349 -0.2490  0.9262  0.3420
  265MOL0     H35741   3.651   3.988   6.234 -1.0854 -0.3310  1.8639
  265MOL0     H35742   3.766   4.109   6.272 -0.4957  0.4519 -3.1307
  265MOL0     H35743   3.698   4.073   6.513 -2.1368  0.9523 -0.5615
  265MOL0     H35744   3.609   3.930   6.458  0.5352 -0.3748  0.0181
  265MOL0     H35745   3.904   3.983   6.418  0.5601 -1.0426  3.8513
  265MOL0     H35746   3.821   3.854   6.336 -2.7778  0.5885 -0.5273
  265MOL0     H35747   3.835   3.900   6.643 -0.1475 -1.5527  0.7808
  265MOL0     H35748   3.941   3.796   6.548  0.4419  1.0018  1.2729
  265MOL0     H35749   3.641   3.755   6.594  0.5995  1.1038  1.0272
  265MOL0     H35750   3.719   3.675   6.467 -2.2853  0.7419  0.2772
  265MOL0     H35751   3.722   3.635   6.760  0.9848  0.2342  1.2715
  265MOL0     H35752   3.889   3.667   6.715 -0.6186  4.2704 -0.4482
  265MOL0     H35753   3.850   3.431   6.717 -1.0218 -0.5006  0.0103
  265MOL0     H35754   3.708   3.447   6.609 -0.8868  1.4852 -0.4849
  265MOL0     H35755   3.391   4.153   5.957 -1.0611  1.0230 -2.9828
  265MOL0     H35756   3.199   4.298   5.879 -3.8498  1.3252  1.7018
  265MOL0     H35757   2.784   4.300   5.848  2.3649 -0.6964 -1.6218
  265MOL0     H35758   2.577   4.396   5.778 -2.1723  1.5532 -0.5224
  265MOL0     H35759   0.711   4.130   5.445  2.1573  2.4683 -0.7156
  265MOL0     H35760   0.526   3.971   5.432 -1.1723  2.0473 -0.2180
  265MOL0     H35761   0.340   3.721   5.053  0.6384  1.1046  0.8680
  265MOL0     H35762   0.200   3.580   4.913 -2.1825 -0.9266 -0.2672
  265MOL0     H35763  -0.076   3.702   4.682  0.8931 -0.6619  0.5645
  265MOL0     H35764  -0.191   3.748   4.806 -2.5013 -0.7924  1.0596
  265MOL0     H35765  -0.297   3.518   4.780 -0.9446 -0.0221  0.2140
  265MOL0     H35766  -0.181   3.484   4.649  1.2277  0.6175  0.4878
  265MOL0     H35767  -0.260   3.677   4.527  2.2883  0.8943  1.8224
  265MOL0     H35768  -0.363   3.718   4.664 -0.2414  0.1666 -1.8542
  265MOL0     H35769  -0.473   3.592   4.462  0.8541 -0.1047 -0.0462
  265MOL0     H35770  -0.385   3.447   4.515 -1.2663 -1.0948  0.6851
  265MOL0     H35771  -0.690   3.453   4.798  0.9478  1.4028  0.8500
  265MOL0     H35772  -0.147   3.807   5.005 -0.4471 -2.4779  0.4220
  265MOL0     H35773  -0.150   3.980   5.144  0.8841 -1.0821 -3.2156
  265MOL0     H35774  -0.053   3.946   5.288 -1.9694  0.0768 -0.2578
  265MOL0     H35775  -0.006   4.075   5.174 -0.9250  0.9460  3.3364
  266MOL0     O35776   2.625   7.867   7.561 -0.2758  0.0460 -0.0672
  266MOL0     C35777   2.548   7.943   7.503 -0.4958 -0.5473  0.1734
  266MOL0     O35778   2.580   8.066   7.456 -0.3629 -0.1771  0.5221
  266MOL0     C35779   2.693   8.137   7.493  0.0986  0.5512  0.2171
  266MOL0     C35780   2.775   8.208   7.400  0.4016 -0.3722  0.3808
  266MOL0     C35781   2.885   8.290   7.438 -0.0628  0.0844  0.0812
  266MOL0     C35782   2.905   8.312   7.579  0.4368 -0.4305 -0.0068
  266MOL0     O35783   3.005   8.402   7.616 -0.0883 -0.1470 -0.3158
  266MOL0     C35784   2.948   8.496   7.710  0.0496 -0.0649  0.5200
  266MOL0     C35785   3.050   8.615   7.716  0.6810  0.4144  1.0952
  266MOL0     C35786   3.170   8.590   7.817  1.0040  0.3801  0.7804
  266MOL0     C35787   3.249   8.730   7.833  0.4311  0.4239  0.0556
  266MOL0     C35788   3.334   8.734   7.960  0.3780 -0.4101  0.0300
  266MOL0     C35789   3.446   8.836   7.933  0.2120  0.5728 -0.0620
  266MOL0     C35790   3.535   8.855   8.051  0.2244 -0.5491 -0.1401
  266MOL0     C35791   3.677   8.785   8.036 -0.4481 -0.1165 -0.8187
  266MOL0     N35792   3.670   8.644   7.998 -0.3573 -0.1050  0.0995
  266MOL0     C35793   3.631   8.534   8.072 -0.3058 -0.7623 -0.3902
  266MOL0     C35794   3.606   8.433   7.990  0.2535  0.1854 -0.1430
  266MOL0     C35795   3.543   8.300   8.016  0.1152 -0.5645 -0.5588
  266MOL0     C35796   3.390   8.316   8.002  0.2866 -0.6589  0.1625
  266MOL0     C35797   3.334   8.177   8.021  1.3965  0.0015  0.7929
  266MOL0     C35798   3.183   8.161   7.995 -0.5011 -0.8814 -0.2193
  266MOL0     O35799   3.111   8.276   8.052  0.1081 -0.5676 -0.3118
  266MOL0     C35800   2.973   8.272   8.046 -1.8227  0.3801 -1.0099
  266MOL0     C35801   2.904   8.155   8.012 -0.1353 -0.1013  0.1890
  266MOL0     C35802   2.768   8.161   8.020  0.3258 -0.0259  0.4568
  266MOL0     C35803   2.695   8.274   8.062 -0.1473 -0.1286  0.2300
  266MOL0     C35804   2.546   8.274   8.056 -0.5438 -0.2741  0.5746
  266MOL0     O35805   2.485   8.208   7.957  0.0771 -0.3515 -0.8368
  266MOL0     C35806   2.349   8.203   7.945 -0.0371  0.2547 -0.0454
  266MOL0     C35807   2.317   8.184   7.815 -0.3060 -0.7565  0.1448
  266MOL0     C35808   2.185   8.148   7.783  0.8234  0.5203  1.0000
  266MOL0     C35809   2.086   8.123   7.884  0.6203 -0.2404 -0.6643
  266MOL0     O35810   1.962   8.071   7.863 -0.0864  0.1531  0.1594
  266MOL0     C35811   1.905   8.107   7.739  0.1505 -0.3342 -0.2097
  266MOL0     C35812   1.753   8.098   7.736 -0.4281  1.2102 -1.0756
  266MOL0     C35813   1.694   7.950   7.749  0.3377 -0.2606  0.0647
  266MOL0     C35814   1.537   7.944   7.748 -0.3449 -0.2552 -0.5070
  266MOL0     C35815   1.482   7.799   7.729  0.5449 -0.5084 -0.7071
  266MOL0     C35816   1.331   7.789   7.738  0.1710  0.5428 -1.2864
  266MOL0     C35817   1.273   7.650   7.698  0.4352  0.1939 -0.1227
  266MOL0     C35818   1.309   7.536   7.787 -0.2134 -0.3050  0.2038
  266MOL0    Cl35819   1.231   7.568   7.944 -0.1393  0.3065  0.1108
  266MOL0     C35820   2.129   8.129   8.015 -0.4915  0.2174  0.3758
  266MOL0     C35821   2.261   8.158   8.046 -0.1097  0.3720  0.2452
  266MOL0     O35822   2.488   8.312   8.154  0.2364  0.2290 -0.3683
  266MOL0     C35823   2.767   8.391   8.099 -0.6893  0.0954 -0.3172
  266MOL0     C35824   2.903   8.389   8.088 -0.2870  0.4668  0.4597
  266MOL0     N35825   3.653   8.477   7.864  0.2447 -0.5716  0.1884
  266MOL0     N35826   3.685   8.600   7.866 -0.1787  0.0481  0.3869
  266MOL0     C35827   2.817   8.249   7.668 -0.2965 -0.3407 -0.9197
  266MOL0     C35828   2.715   8.165   7.626  0.6431  0.0255 -0.7667
  266MOL0     C35829   2.412   7.883   7.475 -0.6784 -0.5860 -0.4138
  266MOL0     C35830   2.316   7.981   7.440 -1.0485  0.7042 -1.0377
  266MOL0     C35831   2.178   7.942   7.420 -0.2362 -0.0630  0.0066
  266MOL0     C35832   2.142   7.808   7.411  1.6928  0.9095 -0.0657
  266MOL0     O35833   2.021   7.757   7.360  0.1469 -0.9091 -0.4217
  266MOL0     C35834   1.907   7.840   7.337  0.4329  0.1000 -0.6477
  266MOL0     C35835   1.826   7.775   7.215 -0.6079 -0.1544 -0.1884
  266MOL0     C35836   1.769   7.629   7.256 -0.0380 -0.9581  0.3715
  266MOL0     C35837   1.620   7.646   7.309  0.9653  0.4716  0.1623
  266MOL0     C35838   1.574   7.513   7.340 -0.5683 -0.0064 -0.6035
  266MOL0     C35839   1.545   7.403   7.385  0.2025  0.0870  0.5674
  266MOL0     C35840   2.246   7.716   7.442 -0.2380  0.2126  0.1281
  266MOL0     C35841   2.376   7.749   7.483 -0.2210 -0.2296  0.1118
  266MOL0     C35842   2.461   7.640   7.537 -0.2211 -0.0464 -0.0268
  266MOL0     H35843   2.735   8.194   7.300  1.9714  0.9471 -0.5003
  266MOL0     H35844   2.945   8.339   7.361 -0.8055  0.0516 -0.5195
  266MOL0     H35845   2.853   8.524   7.664  1.5002 -0.3739 -3.0519
  266MOL0     H35846   2.942   8.446   7.807  0.9863 -2.4852 -0.5863
  266MOL0     H35847   2.996   8.699   7.759  0.7569  1.1701 -0.2492
  266MOL0     H35848   3.084   8.632   7.614 -2.1291  0.8741  0.1536
  266MOL0     H35849   3.248   8.517   7.793  0.5372  0.1128  0.0591
  266MOL0     H35850   3.122   8.561   7.912 -0.6017  0.8753  0.1634
  266MOL0     H35851   3.300   8.764   7.742 -0.4509  2.7784  0.3606
  266MOL0     H35852   3.174   8.808   7.846  0.0761  0.1850 -0.5356
  266MOL0     H35853   3.263   8.773   8.033  0.3742  1.5192 -0.9354
  266MOL0     H35854   3.384   8.638   7.977 -0.1378 -0.5896  0.5373
  266MOL0     H35855   3.499   8.807   7.841 -1.8384 -1.0259 -0.8198
  266MOL0     H35856   3.398   8.933   7.916  0.9104  0.4693 -3.4114
  266MOL0     H35857   3.477   8.824   8.138  2.5126  0.2102  1.7661
  266MOL0     H35858   3.545   8.961   8.072 -2.7899 -0.0724 -0.6727
  266MOL0     H35859   3.737   8.831   7.958  0.9261 -2.3777 -1.1769
  266MOL0     H35860   3.731   8.792   8.131  2.3579 -0.2316 -2.3188
  266MOL0     H35861   3.601   8.542   8.176  1.0348  4.6785 -0.1184
  266MOL0     H35862   3.580   8.229   7.941  0.7767 -1.5244  0.6439
  266MOL0     H35863   3.564   8.273   8.120 -1.1021  1.1546  0.1790
  266MOL0     H35864   3.358   8.386   8.080 -0.1991 -1.2242  0.4819
  266MOL0     H35865   3.358   8.345   7.901 -0.6194  3.3826  1.4498
  266MOL0     H35866   3.359   8.154   8.125  2.7062  0.1615  0.5209
  266MOL0     H35867   3.387   8.106   7.957  0.0227  0.3225 -0.7715
  266MOL0     H35868   3.166   8.073   8.057  0.5678  0.5282  2.2558
  266MOL0     H35869   3.160   8.142   7.890 -0.1882 -0.8395 -0.2952
  266MOL0     H35870   2.955   8.067   7.973 -0.0699  0.7936 -1.8757
  266MOL0     H35871   2.712   8.077   7.979  0.1455  0.0021  0.6441
  266MOL0     H35872   2.390   8.220   7.742  1.5722 -1.8933  1.3740
  266MOL0     H35873   2.150   8.142   7.680 -3.9034 -0.4578  2.3890
  266MOL0     H35874   1.932   8.213   7.726  0.3698 -0.0293  2.3366
  266MOL0     H35875   1.950   8.049   7.658 -0.9245 -3.6394  1.4169
  266MOL0     H35876   1.705   8.149   7.820 -1.3027 -2.6053  0.9609
  266MOL0     H35877   1.726   8.144   7.640 -3.8055 -0.7499 -1.2439
  266MOL0     H35878   1.730   7.888   7.667  1.2096 -1.4500  1.2950
  266MOL0     H35879   1.737   7.908   7.841  3.9829  0.9710 -0.9123
  266MOL0     H35880   1.504   8.004   7.663 -0.5469  0.0992 -0.1856
  266MOL0     H35881   1.506   7.989   7.843 -0.1306 -0.4950 -0.3200
  266MOL0     H35882   1.528   7.737   7.806 -2.6188 -2.0590  0.0800
  266MOL0     H35883   1.515   7.762   7.632 -0.3930 -0.9572 -0.8599
  266MOL0     H35884   1.292   7.811   7.838 -2.2944 -2.7676 -1.3463
  266MOL0     H35885   1.290   7.868   7.675 -1.1548  2.8762  2.2121
  266MOL0     H35886   1.300   7.626   7.595  0.6903  0.6530 -0.1621
  266MOL0     H35887   1.163   7.654   7.694  0.2165 -2.5809  0.5704
  266MOL0     H35888   1.264   7.441   7.756 -1.2060  0.6009 -1.2270
  266MOL0     H35889   1.413   7.510   7.807 -0.5060 -1.6908  0.0625
  266MOL0     H35890   2.065   8.108   8.100 -0.6333  0.3073  0.2925
  266MOL0     H35891   2.286   8.171   8.151  1.7351  0.5858 -0.1898
  266MOL0     H35892   2.720   8.486   8.125  0.5630  1.4040 -2.5085
  266MOL0     H35893   2.959   8.478   8.117  0.0195  0.0281  1.2643
  266MOL0     H35894   2.842   8.250   7.774  1.2955 -0.2661 -1.2706
  266MOL0     H35895   2.650   8.128   7.705 -2.6369  2.3827 -2.1186
  266MOL0     H35896   2.337   8.088   7.438 -1.6703  0.8732  0.4288
  266MOL0     H35897   2.106   8.018   7.391 -1.7445 -1.4352  0.0215
  266MOL0     H35898   1.930   7.945   7.319  0.3280  0.2075 -0.1436
  266MOL0     H35899   1.841   7.831   7.424  0.2428 -1.5200 -0.9184
  266MOL0     H35900   1.902   7.769   7.137 -1.4579  1.3005 -1.1606
  266MOL0     H35901   1.745   7.839   7.179 -0.6068  0.4200  0.8058
  266MOL0     H35902   1.831   7.590   7.338 -0.4323 -1.2340  0.5435
  266MOL0     H35903   1.763   7.560   7.172 -2.3199  0.4266 -0.7093
  266MOL0     H35904   1.636   7.708   7.398  2.8314 -0.7271  0.7229
  266MOL0     H35905   1.558   7.698   7.236 -0.2754 -3.9583 -2.2485
  266MOL0     H35906   1.532   7.300   7.413  0.7775 -0.4019 -0.8396
  266MOL0     H35907   2.208   7.615   7.453 -2.6448  0.8059 -1.8404
  266MOL0     H35908   2.399   7.550   7.526 -2.1222  0.7699  2.8982
  266MOL0     H35909   2.558   7.625   7.490  0.3214  1.1811  0.6395
  266MOL0     H35910   2.480   7.651   7.644  2.2093 -0.2211 -0.3820
  267MOL0     O35911   3.597   6.924   9.451  0.1973  0.0215  0.3157
  267MOL0     C35912   3.591   6.799   9.438 -0.8107  0.5059 -0.1713
  267MOL0     O35913   3.680   6.721   9.374  0.1468 -0.7647  0.0209
  267MOL0     C35914   3.795   6.780   9.319 -0.2120 -0.6891  0.7549
  267MOL0     C35915   3.906   6.699   9.333 -0.9119  0.0388 -0.0476
  267MOL0     C35916   4.035   6.747   9.294 -0.5979 -0.4810  0.2564
  267MOL0     C35917   4.052   6.876   9.240  0.1401 -1.0762 -0.3934
  267MOL0     O35918   4.176   6.918   9.191 -0.0721  0.6101  0.5166
  267MOL0     C35919   4.289   6.889   9.270  0.2229 -0.2622  0.0464
  267MOL0     C35920   4.411   6.928   9.185  0.4296  0.4767 -0.5764
  267MOL0     C35921   4.542   6.892   9.266  0.4330  0.4842 -0.3584
  267MOL0     C35922   4.654   6.843   9.155  0.3334  0.2073 -0.1282
  267MOL0     C35923   4.784   6.791   9.216  0.1497 -0.6793  0.0227
  267MOL0     C35924   4.849   6.910   9.288 -0.3979  0.6689  0.0612
  267MOL0     C35925   4.996   6.885   9.338 -0.6108  0.1098  0.1728
  267MOL0     C35926   5.114   6.921   9.248  0.4233  0.2450 -0.2544
  267MOL0     N35927   5.238   6.888   9.310 -0.2621  0.4858  0.3937
  267MOL0     C35928   5.314   6.773   9.284  0.2075 -0.2772 -1.8465
  267MOL0     C35929   5.389   6.762   9.403  0.3522 -0.1115 -0.1233
  267MOL0     C35930   5.477   6.649   9.412  0.3358  0.2008 -0.2621
  267MOL0     C35931   5.596   6.654   9.515  0.4271 -0.1739  0.3950
  267MOL0     C35932   5.667   6.517   9.517  0.6592 -0.1243 -0.2418
  267MOL0     C35933   5.769   6.504   9.632  0.2753 -0.6871  0.3407
  267MOL0     O35934   5.866   6.607   9.614 -0.0816  0.2597  0.0329
  267MOL0     C35935   5.980   6.583   9.545 -0.5954  0.3766  0.5014
  267MOL0     C35936   6.089   6.663   9.560  0.2577 -0.3378 -0.7342
  267MOL0     C35937   6.212   6.653   9.494  0.3681 -0.0901 -1.0095
  267MOL0     C35938   6.234   6.541   9.413 -0.1566  0.0567 -0.6337
  267MOL0     C35939   6.357   6.509   9.353 -1.0139  0.3327  0.5916
  267MOL0     O35940   6.470   6.539   9.419  0.8616 -0.1494  0.9698
  267MOL0     C35941   6.596   6.515   9.391  0.2595  0.4948 -0.1525
  267MOL0     C35942   6.674   6.440   9.477 -0.6776 -0.4401 -0.1639
  267MOL0     C35943   6.814   6.430   9.453 -0.4713  0.4837  0.3468
  267MOL0     C35944   6.871   6.488   9.344  0.0150  0.1748  0.1675
  267MOL0     O35945   7.007   6.476   9.341 -0.2641  0.0305 -0.0243
  267MOL0     C35946   7.078   6.569   9.258  1.0064 -0.8120 -0.3096
  267MOL0     C35947   7.226   6.560   9.289  0.3783  0.1447  0.0326
  267MOL0     C35948   7.309   6.667   9.214  0.2738  0.0380  0.0984
  267MOL0     C35949   7.442   6.688   9.274  0.5125 -0.7497 -0.5265
  267MOL0     C35950   7.535   6.776   9.186  0.5463 -0.0617 -0.1596
  267MOL0     C35951   7.667   6.806   9.260  0.2186  0.0982  0.8905
  267MOL0     C35952   7.761   6.891   9.174 -0.0909  1.1162  0.3665
  267MOL0     C35953   7.709   7.029   9.133 -0.5553 -0.0271  0.1262
  267MOL0    Cl35954   7.831   7.101   9.020  0.2335  0.1592 -0.2266
  267MOL0     C35955   6.795   6.544   9.246  0.1462 -1.1358 -0.0327
  267MOL0     C35956   6.657   6.561   9.272 -0.0231 -0.0447 -0.3215
  267MOL0     O35957   6.365   6.451   9.244 -0.3048  0.5580 -1.0888
  267MOL0     C35958   6.114   6.457   9.383 -0.4412 -0.6175 -0.2844
  267MOL0     C35959   5.992   6.482   9.443 -0.7074  1.0480 -0.3827
  267MOL0     N35960   5.355   6.859   9.490  0.8650 -0.2049 -0.0464
  267MOL0     N35961   5.260   6.933   9.436  0.5079  0.1368  0.4370
  267MOL0     C35962   3.929   6.952   9.216 -1.1395  0.3357 -0.6108
  267MOL0     C35963   3.805   6.901   9.255 -0.7403 -0.1217  0.6487
  267MOL0     C35964   3.469   6.721   9.483 -0.4453 -0.0197  0.5137
  267MOL0     C35965   3.474   6.583   9.459  0.5163  0.1871  0.7798
  267MOL0     C35966   3.367   6.499   9.487  0.2517 -0.4197 -0.4250
  267MOL0     C35967   3.245   6.550   9.531 -0.2950  0.4935 -0.5030
  267MOL0     O35968   3.138   6.478   9.522  0.3478  0.4956  0.6427
  267MOL0     C35969   3.006   6.525   9.538  0.4267 -0.5429  0.2192
  267MOL0     C35970   2.950   6.611   9.426 -0.3976  0.0281  0.5120
  267MOL0     C35971   2.915   6.502   9.319 -0.2085  0.4527 -0.2737
  267MOL0     C35972   2.845   6.549   9.192 -0.1225  0.3894 -0.0365
  267MOL0     C35973   2.927   6.643   9.115 -0.6794 -0.3735  0.0149
  267MOL0     C35974   3.006   6.721   9.068 -0.4427  0.1829  1.3133
  267MOL0     C35975   3.245   6.690   9.569 -0.4851 -0.2007 -0.4783
  267MOL0     C35976   3.357   6.771   9.545 -0.3106  0.3523 -0.3300
  267MOL0     C35977   3.341   6.906   9.589  0.1662 -1.6186  0.5204
  267MOL0     H35978   3.896   6.598   9.369 -0.4201  0.3412  0.9711
  267MOL0     H35979   4.110   6.670   9.309 -1.9372 -1.9587 -0.3046
  267MOL0     H35980   4.277   6.957   9.355  0.5647 -0.4987  0.2853
  267MOL0     H35981   4.297   6.784   9.301 -1.7276 -0.3571  0.3661
  267MOL0     H35982   4.385   7.030   9.156 -2.7709  0.4701  1.6955
  267MOL0     H35983   4.418   6.867   9.094  3.1349 -1.1653  0.5981
  267MOL0     H35984   4.528   6.832   9.357 -0.2901  1.3145  0.0855
  267MOL0     H35985   4.591   6.985   9.295  3.3332 -1.4529  1.4926
  267MOL0     H35986   4.606   6.771   9.088 -5.0852  1.5891  1.7187
  267MOL0     H35987   4.681   6.931   9.095 -0.6175 -0.8213 -2.1459
  267MOL0     H35988   4.755   6.722   9.296  0.8981  0.2148  1.1154
  267MOL0     H35989   4.861   6.745   9.154  0.6142 -2.2341  1.6418
  267MOL0     H35990   4.843   7.005   9.233 -3.2189 -0.3575 -1.5840
  267MOL0     H35991   4.795   6.924   9.383 -0.1711 -0.4442  0.3597
  267MOL0     H35992   5.010   6.784   9.377 -1.4378 -0.4481 -0.8830
  267MOL0     H35993   5.002   6.955   9.421  1.5700  1.5131 -1.0756
  267MOL0     H35994   5.106   6.861   9.157  0.9481 -0.6427  0.2684
  267MOL0     H35995   5.107   7.024   9.213  0.3445  0.0278 -0.8874
  267MOL0     H35996   5.300   6.696   9.209 -0.6682 -1.2981 -0.6760
  267MOL0     H35997   5.421   6.560   9.441 -1.0615  1.7982  2.3861
  267MOL0     H35998   5.519   6.622   9.315  0.7494 -0.8305  0.1882
  267MOL0     H35999   5.665   6.733   9.487  0.0715  0.1992  0.5643
  267MOL0     H36000   5.557   6.683   9.613 -2.2760  2.7069 -1.3588
  267MOL0     H36001   5.714   6.508   9.419  1.3828 -2.8345  0.2658
  267MOL0     H36002   5.593   6.436   9.524  1.6578 -0.9418  1.5103
  267MOL0     H36003   5.823   6.409   9.631 -0.8757 -1.4792  3.3139
  267MOL0     H36004   5.739   6.508   9.738 -0.2429  1.4209  0.1525
  267MOL0     H36005   6.085   6.747   9.630 -0.7646 -0.0005 -1.1832
  267MOL0     H36006   6.294   6.720   9.517  1.4521 -2.3444  2.4917
  267MOL0     H36007   6.630   6.384   9.559  1.0391  0.2837  1.3154
  267MOL0     H36008   6.886   6.373   9.511  0.4025 -0.2386 -1.4033
  267MOL0     H36009   7.057   6.552   9.152 -1.3361 -2.4768  0.3309
  267MOL0     H36010   7.042   6.667   9.291 -1.0115 -1.6260  0.0695
  267MOL0     H36011   7.239   6.588   9.394 -1.0212 -2.1687  0.9129
  267MOL0     H36012   7.262   6.459   9.267 -0.9561 -0.3988  0.2794
  267MOL0     H36013   7.340   6.620   9.120  3.3692  1.1740  0.4320
  267MOL0     H36014   7.252   6.757   9.193  0.4999 -0.3323 -2.3530
  267MOL0     H36015   7.496   6.595   9.292  0.7139 -0.8061 -1.3701
  267MOL0     H36016   7.424   6.723   9.376 -3.2985 -2.3042 -0.5182
  267MOL0     H36017   7.491   6.875   9.169 -0.6018 -0.5229  0.0163
  267MOL0     H36018   7.555   6.731   9.088 -0.5098 -0.3088 -0.2788
  267MOL0     H36019   7.647   6.873   9.345  2.3583  0.5173  1.1321
  267MOL0     H36020   7.711   6.711   9.292 -1.2161 -1.4206 -1.3585
  267MOL0     H36021   7.793   6.834   9.086  0.4088  2.0448 -0.0602
  267MOL0     H36022   7.851   6.902   9.235 -0.5358  0.5080  1.1666
  267MOL0     H36023   7.616   7.014   9.077  0.5156 -1.6463 -1.2923
  267MOL0     H36024   7.689   7.088   9.224  3.5686 -1.3848  2.1293
  267MOL0     H36025   6.828   6.593   9.155  0.2453  0.5787  0.8834
  267MOL0     H36026   6.596   6.612   9.199  1.4989 -1.2362 -2.5318
  267MOL0     H36027   6.125   6.375   9.313  2.8429  0.2011 -0.9045
  267MOL0     H36028   5.902   6.427   9.416  1.3528 -2.4865 -0.6837
  267MOL0     H36029   3.935   7.051   9.171  1.7565  0.8518  0.6575
  267MOL0     H36030   3.717   6.963   9.238 -1.0041 -1.3564 -3.7755
  267MOL0     H36031   3.562   6.534   9.417 -0.3971  0.7364 -2.0361
  267MOL0     H36032   3.381   6.394   9.464 -2.1385 -1.2129  1.3370
  267MOL0     H36033   2.995   6.590   9.626  2.2525  2.7222 -1.7514
  267MOL0     H36034   2.937   6.442   9.553 -0.9885 -0.4111 -4.1050
  267MOL0     H36035   3.020   6.684   9.383  1.0157 -1.8800 -0.6086
  267MOL0     H36036   2.865   6.667   9.465  0.4498  0.8905  1.1750
  267MOL0     H36037   2.858   6.424   9.372  0.2554  1.4411  1.7790
  267MOL0     H36038   2.998   6.444   9.279 -0.8242  1.1223 -2.6813
  267MOL0     H36039   2.825   6.459   9.133  0.3830  0.3385 -0.1346
  267MOL0     H36040   2.749   6.594   9.219 -0.2852 -0.6191  1.1658
  267MOL0     H36041   3.063   6.792   9.013 -2.3309 -1.1229 -2.6763
  267MOL0     H36042   3.149   6.734   9.592 -0.3836 -0.7265  1.0071
  267MOL0     H36043   3.352   6.975   9.505 -0.5483  0.2807  1.9086
  267MOL0     H36044   3.244   6.926   9.635 -0.6183 -1.9073 -0.9426
  267MOL0     H36045   3.420   6.936   9.659  0.2470  0.9157 -0.5553
  268MOL0     O36046   1.143   5.828   0.064  0.0881 -0.4915 -0.2821
  268MOL0     C36047   1.063   5.788  -0.026 -0.1364 -0.5393  0.1613
  268MOL0     O36048   1.098   5.719  -0.137  0.7527  0.1758  0.8101
  268MOL0     C36049   1.232   5.669  -0.126  0.5553 -1.2242  0.5313
  268MOL0     C36050   1.335   5.739  -0.189  0.5100 -0.3183 -0.4552
  268MOL0     C36051   1.461   5.698  -0.179  0.1077  0.0127 -0.8186
  268MOL0     C36052   1.499   5.583  -0.101 -0.3903  0.5086 -0.0233
  268MOL0     O36053   1.628   5.553  -0.073 -0.0938 -0.4190 -0.1343
  268MOL0     C36054   1.655   5.414  -0.064  0.4988 -0.6073 -0.3231
  268MOL0     C36055   1.793   5.385  -0.113 -0.8870 -0.1935  0.4850
  268MOL0     C36056   1.897   5.439  -0.023 -0.5927  0.6013 -0.3658
  268MOL0     C36057   2.017   5.504  -0.106  0.1575  0.4151  0.4031
  268MOL0     C36058   2.133   5.548  -0.013 -2.2077  0.0386  0.4901
  268MOL0     C36059   2.277   5.508  -0.066  0.2707 -0.7372  0.3162
  268MOL0     C36060   2.307   5.358  -0.059 -0.2771 -0.4414 -0.3068
  268MOL0     C36061   2.412   5.308  -0.161  0.2498  0.6306  0.5341
  268MOL0     N36062   2.539   5.378  -0.145  0.5653  0.0569  0.8292
  268MOL0     C36063   2.605   5.451  -0.240 -0.2551  0.0494  0.7438
  268MOL0     C36064   2.719   5.488  -0.189  0.3773 -0.4445 -0.9876
  268MOL0     C36065   2.828   5.560  -0.255 -0.1225 -0.9603  0.2979
  268MOL0     C36066   2.919   5.460  -0.334 -0.2719 -1.3071  0.2581
  268MOL0     C36067   3.026   5.362  -0.273 -0.5536  0.2586 -0.2506
  268MOL0     C36068   3.138   5.429  -0.197 -0.0668 -0.0004  1.3044
  268MOL0     O36069   3.213   5.532  -0.274  0.3021  0.1033  0.4817
  268MOL0     C36070   3.340   5.575  -0.231  0.4774  0.3684 -0.2297
  268MOL0     C36071   3.390   5.534  -0.112 -0.7737  0.7281 -0.0737
  268MOL0     C36072   3.517   5.587  -0.071 -0.0461 -0.2787 -0.5130
  268MOL0     C36073   3.594   5.675  -0.145  0.4431 -0.3057  1.2893
  268MOL0     C36074   3.708   5.744  -0.078  0.7894  0.0317  0.1007
  268MOL0     O36075   3.744   5.726   0.049 -0.2776 -0.2350  0.0106
  268MOL0     C36076   3.871   5.760   0.089 -0.3035 -1.0971  0.0597
  268MOL0     C36077   3.884   5.881   0.162 -0.5150 -0.2001  0.1432
  268MOL0     C36078   3.998   5.918   0.231 -0.2617  0.4892 -0.8268
  268MOL0     C36079   4.114   5.835   0.206 -0.3509  0.0862 -0.4880
  268MOL0     O36080   4.235   5.872   0.270 -0.2286  0.3394  0.0831
  268MOL0     C36081   4.274   6.012   0.283 -0.3839 -0.1909 -0.2930
  268MOL0     C36082   4.422   6.031   0.328  0.1832  0.3406 -0.6600
  268MOL0     C36083   4.537   5.964   0.243 -0.6450  0.2311 -0.2994
  268MOL0     C36084   4.688   5.993   0.297  0.3170  0.1576  0.3491
  268MOL0     C36085   4.703   6.137   0.330 -0.0771 -0.0956  0.0558
  268MOL0     C36086   4.856   6.153   0.349 -0.0250 -0.3520  0.3034
  268MOL0     C36087   4.892   6.303   0.358 -0.4076  0.0254  1.4423
  268MOL0     C36088   5.033   6.336   0.385 -0.4927 -0.2543 -0.0499
  268MOL0    Cl36089   5.095   6.282   0.538 -0.5351 -0.1436  0.0767
  268MOL0     C36090   4.105   5.713   0.133 -0.0382  0.0116  0.0505
  268MOL0     C36091   3.985   5.676   0.081  0.9162 -0.3882 -0.0243
  268MOL0     O36092   3.767   5.820  -0.158  0.1236 -0.6232 -0.5982
  268MOL0     C36093   3.537   5.711  -0.267 -0.6678 -0.1905 -0.2913
  268MOL0     C36094   3.411   5.674  -0.303  0.1095  0.2340 -0.6018
  268MOL0     N36095   2.720   5.459  -0.053  0.7357  0.0293 -0.6614
  268MOL0     N36096   2.615   5.385  -0.029  0.0402 -0.3260  0.1802
  268MOL0     C36097   1.392   5.500  -0.037  0.1409  0.0373  0.1868
  268MOL0     C36098   1.264   5.544  -0.057  0.2366  0.7062  0.4627
  268MOL0     C36099   0.917   5.835  -0.019  0.3196 -1.4978 -0.7889
  268MOL0     C36100   0.862   5.835   0.117  1.1570 -0.2758  0.0551
  268MOL0     C36101   0.727   5.847   0.139 -0.2584 -0.3480  0.2569
  268MOL0     C36102   0.644   5.868   0.032  0.8253 -0.4581  0.0094
  268MOL0     O36103   0.508   5.893   0.048  0.0250  0.8074  0.0488
  268MOL0     C36104   0.463   5.976   0.152 -0.3480  0.0266  0.4309
  268MOL0     C36105   0.311   5.953   0.154 -0.0451 -0.2561  0.3697
  268MOL0     C36106   0.269   5.815   0.188 -0.7853 -0.4893 -0.2860
  268MOL0     C36107   0.122   5.788   0.163 -0.0299 -0.8188  0.3930
  268MOL0     C36108   0.027   5.870   0.245 -0.9070  0.0440 -0.2497
  268MOL0     C36109  -0.040   5.949   0.309 -0.0619 -0.5341 -0.4221
  268MOL0     C36110   0.690   5.877  -0.099 -0.2901  0.4287  0.3491
  268MOL0     C36111   0.833   5.871  -0.129 -0.4490  0.4574 -0.3201
  268MOL0     C36112   0.885   5.893  -0.264  0.7828  0.0106  0.6379
  268MOL0     H36113   1.306   5.835  -0.230  1.8674  0.2119 -0.2199
  268MOL0     H36114   1.540   5.757  -0.225 -1.6214  1.4274 -2.1422
  268MOL0     H36115   1.652   5.395   0.044  0.3425 -0.6764 -0.3388
  268MOL0     H36116   1.579   5.351  -0.112 -1.2854  0.0473  1.5030
  268MOL0     H36117   1.799   5.440  -0.207  0.5233  1.6681  1.6056
  268MOL0     H36118   1.806   5.279  -0.137  3.8925  0.2338  0.1525
  268MOL0     H36119   1.922   5.356   0.043 -1.9119 -0.4623 -1.1329
  268MOL0     H36120   1.857   5.517   0.042 -3.2463 -1.6050  0.8645
  268MOL0     H36121   2.051   5.428  -0.177 -0.6642  0.9875 -0.6304
  268MOL0     H36122   1.977   5.590  -0.161  0.6523  0.6578  0.4136
  268MOL0     H36123   2.135   5.656   0.002 -0.3433 -0.0197  0.9941
  268MOL0     H36124   2.122   5.510   0.089  0.6387 -1.1412  0.4606
  268MOL0     H36125   2.292   5.542  -0.169 -0.2892  1.8891  1.0487
  268MOL0     H36126   2.355   5.554  -0.005  1.5382 -0.5642 -1.3315
  268MOL0     H36127   2.218   5.299  -0.086  0.4601 -0.6966 -2.3456
  268MOL0     H36128   2.338   5.333   0.042 -0.4497 -0.4029 -0.2429
  268MOL0     H36129   2.442   5.204  -0.144  0.8770  0.7885  0.4469
  268MOL0     H36130   2.365   5.323  -0.259 -0.6921  3.1887  1.2884
  268MOL0     H36131   2.569   5.464  -0.342  1.0791 -3.2305 -0.2894
  268MOL0     H36132   2.785   5.642  -0.313 -1.5044 -0.9399  1.2940
  268MOL0     H36133   2.882   5.606  -0.171 -0.6573 -2.3894  1.4662
  268MOL0     H36134   2.849   5.405  -0.398 -0.5641  1.3465 -1.9031
  268MOL0     H36135   2.980   5.531  -0.390 -0.3321  0.9688  2.8670
  268MOL0     H36136   3.074   5.311  -0.357 -0.6963 -0.8543  0.3295
  268MOL0     H36137   2.982   5.283  -0.212  3.0515 -1.5023  0.3019
  268MOL0     H36138   3.205   5.345  -0.178  0.2114 -0.6036 -1.7839
  268MOL0     H36139   3.089   5.478  -0.113  1.1150  2.6556  0.5504
  268MOL0     H36140   3.343   5.461  -0.047 -1.0398  0.4786 -0.5467
  268MOL0     H36141   3.553   5.558   0.027 -0.8352  0.3983 -0.0157
  268MOL0     H36142   3.798   5.937   0.199  0.3990  1.1013  0.3567
  268MOL0     H36143   4.006   6.013   0.284  1.7033  0.1612 -0.4648
  268MOL0     H36144   4.254   6.070   0.192 -3.7573 -1.7948 -0.7361
  268MOL0     H36145   4.210   6.055   0.361  0.1604 -0.1288  0.1252
  268MOL0     H36146   4.448   6.137   0.335 -1.0902  0.7073 -1.0978
  268MOL0     H36147   4.430   5.986   0.427  1.0922 -0.3100 -1.0123
  268MOL0     H36148   4.511   5.858   0.254 -1.6688  0.7519  3.9394
  268MOL0     H36149   4.535   5.992   0.137  0.9753  0.6591 -0.2326
  268MOL0     H36150   4.757   5.965   0.217 -2.1446  0.2697 -1.9388
  268MOL0     H36151   4.708   5.932   0.386  2.3230 -2.5547 -1.8073
  268MOL0     H36152   4.647   6.178   0.415  0.7857 -0.9419  1.0739
  268MOL0     H36153   4.686   6.195   0.239  3.7877 -0.0777 -0.8374
  268MOL0     H36154   4.892   6.102   0.439 -1.2727  2.2707  2.4450
  268MOL0     H36155   4.907   6.120   0.258 -1.4368  2.5862 -1.7126
  268MOL0     H36156   4.834   6.348   0.440 -0.9063  0.3542  0.9206
  268MOL0     H36157   4.867   6.347   0.261  1.2363  1.2030  1.5119
  268MOL0     H36158   5.093   6.287   0.308 -0.7527 -2.2949  0.9798
  268MOL0     H36159   5.051   6.444   0.374 -1.9396 -0.0227 -0.4286
  268MOL0     H36160   4.183   5.643   0.106 -1.2973 -0.4196 -2.8260
  268MOL0     H36161   3.963   5.574   0.052 -0.4694 -0.1286  0.0575
  268MOL0     H36162   3.600   5.772  -0.331 -2.3390  1.6775 -0.2758
  268MOL0     H36163   3.363   5.706  -0.395 -2.7774  1.4891  1.1939
  268MOL0     H36164   1.403   5.406   0.015 -0.2553 -0.9055 -1.3627
  268MOL0     H36165   1.184   5.475  -0.034  3.1062 -3.2015 -0.2522
  268MOL0     H36166   0.923   5.845   0.206 -0.8955  0.2672  1.4587
  268MOL0     H36167   0.692   5.851   0.241 -1.4877  0.0571 -0.1544
  268MOL0     H36168   0.488   6.081   0.129 -1.7721  0.2309 -0.2551
  268MOL0     H36169   0.492   5.936   0.249 -2.2365  0.8909  1.4013
  268MOL0     H36170   0.280   5.975   0.051  1.3846  0.0867 -0.0063
  268MOL0     H36171   0.261   6.022   0.223 -0.1690 -2.7821  2.9686
  268MOL0     H36172   0.288   5.794   0.294 -2.5158  0.3646  0.2446
  268MOL0     H36173   0.331   5.749   0.127  1.3023 -1.2475  2.4502
  268MOL0     H36174   0.094   5.818   0.062 -3.3841 -1.5237  0.9782
  268MOL0     H36175   0.100   5.680   0.170 -1.3111 -0.7276 -1.3949
  268MOL0     H36176  -0.090   6.019   0.373 -2.8523 -2.4381 -0.3482
  268MOL0     H36177   0.621   5.888  -0.182 -0.1850 -2.3216 -0.1812
  268MOL0     H36178   0.810   5.943  -0.326 -0.8647 -1.4485  1.3497
  268MOL0     H36179   0.982   5.943  -0.269  0.5827  0.3604  0.1179
  268MOL0     H36180   0.907   5.802  -0.321 -1.2013 -0.4107  0.4706
  269MOL0     O36181   5.822  10.047   8.179  0.2953 -1.3193  0.8301
  269MOL0     C36182   5.715  10.097   8.143 -0.0479 -0.8536 -0.3653
  269MOL0     O36183   5.693  10.166   8.022  0.4178  0.2882  0.4063
  269MOL0     C36184   5.787  10.190   7.930  0.5466 -0.4862 -0.4321
  269MOL0     C36185   5.898  10.274   7.964 -0.0280 -0.4956  0.0122
  269MOL0     C36186   5.995  10.297   7.866  0.6983  0.0033  0.2605
  269MOL0     C36187   5.978  10.254   7.733  0.0083  0.5980 -0.4211
  269MOL0     O36188   6.081  10.265   7.643  0.4349  0.1002  0.2707
  269MOL0     C36189   6.214  10.238   7.687  0.9164 -0.4550 -0.2278
  269MOL0     C36190   6.307  10.212   7.569  0.6276 -0.1988 -0.4222
  269MOL0     C36191   6.288  10.326   7.469  0.1029 -1.1865  0.2328
  269MOL0     C36192   6.423  10.346   7.395 -0.0389  0.0451 -0.2008
  269MOL0     C36193   6.460  10.224   7.300  0.0993 -0.1457  0.2575
  269MOL0     C36194   6.580  10.255   7.218 -0.1430 -0.2820  0.0022
  269MOL0     C36195   6.582  10.148   7.104 -0.4627  0.3276  0.3983
  269MOL0     C36196   6.705  10.168   7.009  0.0859 -0.0174  0.0995
  269MOL0     N36197   6.842  10.180   7.068  0.6470 -0.2351  0.8565
  269MOL0     C36198   6.892  10.085   7.161  0.8325  0.3235  0.6321
  269MOL0     C36199   7.024  10.115   7.177 -0.3760 -0.5288 -0.1338
  269MOL0     C36200   7.113  10.041   7.279  0.8173 -0.2412  0.2069
  269MOL0     C36201   7.225   9.964   7.216 -0.6086 -0.4331  0.0383
  269MOL0     C36202   7.302   9.883   7.323 -0.5692  0.0844  0.2015
  269MOL0     C36203   7.446   9.862   7.278 -0.3002  0.2167 -0.0458
  269MOL0     O36204   7.506   9.757   7.359 -0.2421  0.8287 -0.3809
  269MOL0     C36205   7.633   9.719   7.336  0.1602 -0.3785 -0.3433
  269MOL0     C36206   7.715   9.761   7.224  0.2552  0.5921 -1.0439
  269MOL0     C36207   7.850   9.747   7.226 -0.1525  0.3193 -0.6057
  269MOL0     C36208   7.916   9.674   7.327 -0.1243  0.1121  0.2110
  269MOL0     C36209   8.064   9.651   7.309 -0.3056  0.7123  0.8173
  269MOL0     O36210   8.131   9.607   7.419 -0.4710  0.6093  0.8483
  269MOL0     C36211   8.269   9.599   7.409 -0.4488 -0.2572 -0.0254
  269MOL0     C36212   8.333   9.493   7.464  0.5994  0.6781 -0.1288
  269MOL0     C36213   8.466   9.482   7.464 -0.4992 -0.0014 -0.2861
  269MOL0     C36214   8.545   9.580   7.399  0.7427  0.0449  1.0163
  269MOL0     O36215   8.681   9.550   7.402 -0.4874 -0.5292 -0.1040
  269MOL0     C36216   8.769   9.630   7.324  0.0286 -0.0322 -0.2095
  269MOL0     C36217   8.907   9.588   7.360  0.3788 -0.5137 -0.0684
  269MOL0     C36218   9.010   9.687   7.282  0.3613 -0.1134  0.2685
  269MOL0     C36219   9.153   9.686   7.311  0.0166 -0.7884 -1.3581
  269MOL0     C36220   9.242   9.672   7.190 -0.5831  0.0135  0.2665
  269MOL0     C36221   9.379   9.624   7.228  0.3496  0.0638  0.0167
  269MOL0     C36222   9.458   9.610   7.106  0.3197 -0.8615 -0.0774
  269MOL0     C36223   9.600   9.558   7.132 -0.3691  0.4731  0.0033
  269MOL0    Cl36224   9.694   9.668   7.232  0.1824 -0.7556 -0.2865
  269MOL0     C36225   8.487   9.701   7.352  0.5671 -0.2843 -1.1796
  269MOL0     C36226   8.349   9.704   7.362 -0.3429 -0.6949 -0.0232
  269MOL0     O36227   8.113   9.668   7.199 -0.5508  0.3248  0.2982
  269MOL0     C36228   7.840   9.627   7.434  0.0253  0.4367  0.5568
  269MOL0     C36229   7.697   9.658   7.440 -0.4631  1.0137 -0.9546
  269MOL0     N36230   7.051  10.221   7.097 -0.2119 -0.2503  0.1216
  269MOL0     N36231   6.946  10.247   7.021  0.7674  0.8516  0.3232
  269MOL0     C36232   5.862  10.174   7.704 -0.6014  0.4860 -0.3094
  269MOL0     C36233   5.769  10.143   7.801 -0.1792 -0.1390 -0.2130
  269MOL0     C36234   5.602  10.103   8.241  0.2817  0.4679 -1.0028
  269MOL0     C36235   5.629  10.062   8.372 -0.0987 -0.1676 -0.4805
  269MOL0     C36236   5.542  10.070   8.474  0.3256  0.0501  0.4455
  269MOL0     C36237   5.410  10.094   8.453  0.8399 -0.0195  0.1187
  269MOL0     O36238   5.322  10.082   8.556 -0.5300 -0.3059 -0.4602
  269MOL0     C36239   5.187  10.130   8.539 -0.5407  1.3887 -0.0878
  269MOL0     C36240   5.125  10.124   8.671  1.2781  0.1593 -0.1521
  269MOL0     C36241   5.194  10.217   8.780  0.4321  0.1364 -0.4613
  269MOL0     C36242   5.113  10.220   8.912  0.5707 -0.3472  0.0077
  269MOL0     C36243   4.989  10.292   8.904  0.8303  0.1013  1.1235
  269MOL0     C36244   4.878  10.358   8.900 -0.2144  0.2876 -0.1797
  269MOL0     C36245   5.372  10.136   8.329  0.4700 -0.0921  0.0817
  269MOL0     C36246   5.466  10.138   8.221  0.5381  0.0075  0.0316
  269MOL0     C36247   5.409  10.191   8.096 -1.0482  0.1437  0.2556
  269MOL0     H36248   5.909  10.315   8.064  1.5275  0.2031 -0.4191
  269MOL0     H36249   6.086  10.355   7.878 -1.0564  3.1599 -0.5084
  269MOL0     H36250   6.254  10.321   7.746 -0.7512 -0.2276  0.6169
  269MOL0     H36251   6.221  10.148   7.748 -3.4266 -0.8506 -0.0618
  269MOL0     H36252   6.265  10.125   7.518 -2.1845  0.5900  0.3990
  269MOL0     H36253   6.412  10.192   7.595  1.2755  0.2967 -2.4375
  269MOL0     H36254   6.257  10.420   7.515 -0.6431 -1.2559 -0.1226
  269MOL0     H36255   6.208  10.294   7.403  0.6908 -0.4947 -0.8451
  269MOL0     H36256   6.428  10.436   7.333  3.6895 -0.5995 -1.0784
  269MOL0     H36257   6.501  10.363   7.469  0.3313 -0.6199 -0.4303
  269MOL0     H36258   6.476  10.131   7.354 -0.0916 -0.2042  0.2133
  269MOL0     H36259   6.379  10.213   7.228  0.4383 -0.4166 -0.0885
  269MOL0     H36260   6.572  10.356   7.176  0.4343 -0.3264 -0.2242
  269MOL0     H36261   6.674  10.256   7.274  0.6039  1.1164 -1.1960
  269MOL0     H36262   6.487  10.136   7.052  0.3503  1.7654 -1.5226
  269MOL0     H36263   6.610  10.052   7.148 -0.1755 -0.6481 -1.7787
  269MOL0     H36264   6.700  10.086   6.936  0.7637 -2.4134  2.5546
  269MOL0     H36265   6.684  10.262   6.957  1.3056 -0.5562 -1.4584
  269MOL0     H36266   6.839   9.995   7.188 -2.1813  1.2572 -1.6520
  269MOL0     H36267   7.152  10.117   7.348  0.3780  0.8278 -0.6921
  269MOL0     H36268   7.050   9.975   7.340  1.1725 -0.6232  0.1665
  269MOL0     H36269   7.204   9.905   7.126  1.9417 -0.9823 -0.2779
  269MOL0     H36270   7.294  10.044   7.190  0.1732 -0.6614  1.3166
  269MOL0     H36271   7.260   9.783   7.336  0.0920 -0.2414 -0.1395
  269MOL0     H36272   7.285   9.934   7.419  3.6528 -0.7570  1.5956
  269MOL0     H36273   7.496   9.959   7.283  1.1049 -0.5053  0.2497
  269MOL0     H36274   7.448   9.835   7.172 -1.3634  0.5973 -0.1715
  269MOL0     H36275   7.662   9.812   7.145 -0.7634  1.2589  0.0385
  269MOL0     H36276   7.907   9.777   7.139 -0.0871  0.3272 -0.5602
  269MOL0     H36277   8.264   9.420   7.505 -1.9339  1.4178 -2.7570
  269MOL0     H36278   8.515   9.390   7.493 -0.5369  0.0831  0.0467
  269MOL0     H36279   8.755   9.622   7.216  0.6805 -0.9836 -0.2387
  269MOL0     H36280   8.752   9.737   7.336  2.6885  0.8788 -3.1466
  269MOL0     H36281   8.921   9.586   7.469 -1.8338  1.9026  0.3381
  269MOL0     H36282   8.926   9.491   7.311 -0.8645 -0.4323 -0.7392
  269MOL0     H36283   9.003   9.660   7.176  3.1463 -0.4465  0.0998
  269MOL0     H36284   8.975   9.790   7.288 -0.8494 -0.3481 -1.7164
  269MOL0     H36285   9.166   9.607   7.386 -2.2245  0.4784  0.5237
  269MOL0     H36286   9.181   9.776   7.367 -0.3569 -2.3618  1.5597
  269MOL0     H36287   9.247   9.765   7.133  0.5370  0.4670  1.0742
  269MOL0     H36288   9.209   9.597   7.117  0.3685  0.6347 -0.8380
  269MOL0     H36289   9.427   9.686   7.305  0.9060 -0.9607  0.5256
  269MOL0     H36290   9.376   9.530   7.284  1.2177  0.4652  0.7695
  269MOL0     H36291   9.465   9.703   7.048  1.4445  0.1932  1.6491
  269MOL0     H36292   9.413   9.528   7.049 -4.0346  0.9425  0.3885
  269MOL0     H36293   9.604   9.460   7.180 -0.2421  0.0649 -0.8288
  269MOL0     H36294   9.656   9.553   7.039  2.2167  0.8569  1.4459
  269MOL0     H36295   8.540   9.786   7.311  2.4601 -2.2195 -3.0562
  269MOL0     H36296   8.293   9.790   7.330  0.5794 -0.1852 -0.3021
  269MOL0     H36297   7.887   9.568   7.512  1.3562 -0.0294 -0.5412
  269MOL0     H36298   7.636   9.627   7.525  0.5917 -0.6905 -0.7493
  269MOL0     H36299   5.852  10.125   7.608  1.5024  0.2005 -0.4333
  269MOL0     H36300   5.683  10.083   7.773  0.4375 -0.6900 -0.9553
  269MOL0     H36301   5.730  10.038   8.406 -0.8995 -4.2465 -0.4400
  269MOL0     H36302   5.568  10.039   8.575 -1.5235  0.1366  0.9864
  269MOL0     H36303   5.137  10.069   8.464 -0.7739  0.1824  1.0215
  269MOL0     H36304   5.192  10.234   8.504  0.7259  1.3510 -0.0402
  269MOL0     H36305   5.130  10.018   8.697 -1.2960 -0.9366 -3.5162
  269MOL0     H36306   5.018  10.147   8.670  0.2188 -3.7884  1.8891
  269MOL0     H36307   5.205  10.321   8.748 -0.5456  0.7651  1.0821
  269MOL0     H36308   5.294  10.182   8.806 -0.4379 -0.0563  3.2301
  269MOL0     H36309   5.080  10.122   8.947  2.2385 -1.4370 -1.3123
  269MOL0     H36310   5.178  10.266   8.988 -2.7649  3.2806  0.9729
  269MOL0     H36311   4.778  10.397   8.907  0.0140  0.5414  2.7491
  269MOL0     H36312   5.274  10.168   8.294  1.1662  1.6953 -0.3651
  269MOL0     H36313   5.448  10.136   8.010 -0.6188 -1.8544  1.6547
  269MOL0     H36314   5.301  10.183   8.081 -0.8242  1.0254 -2.2570
  269MOL0     H36315   5.442  10.295   8.095  0.0613 -0.1298  2.2540
  270MOL0     O36316   1.492   8.871   5.765  0.5696  0.6599  0.1675
  270MOL0     C36317   1.468   8.785   5.682  0.8084  0.7957  0.1474
  270MOL0     O36318   1.551   8.733   5.592  0.0406 -0.0635 -1.0661
  270MOL0     C36319   1.685   8.753   5.604 -0.7506 -0.3012 -0.0657
  270MOL0     C36320   1.767   8.639   5.605 -0.0144 -1.1618  0.6026
  270MOL0     C36321   1.906   8.657   5.627 -0.0896 -0.1471  0.4862
  270MOL0     C36322   1.966   8.782   5.639  1.2536  0.1442  0.0022
  270MOL0     O36323   2.095   8.804   5.663  0.1192  0.4013  0.2483
  270MOL0     C36324   2.170   8.712   5.746  0.0054  0.0302  0.5031
  270MOL0     C36325   2.305   8.762   5.774 -0.6672 -0.5941 -0.4535
  270MOL0     C36326   2.386   8.797   5.650  0.4562 -0.4597  0.6685
  270MOL0     C36327   2.539   8.801   5.668  0.9079  0.8571  0.5423
  270MOL0     C36328   2.588   8.912   5.757 -0.2879 -0.1686  0.5672
  270MOL0     C36329   2.565   9.056   5.694 -0.3311 -0.1896  0.5155
  270MOL0     C36330   2.642   9.172   5.773  0.0096 -0.6402  0.3540
  270MOL0     C36331   2.796   9.158   5.766  0.5161  0.0882  0.2256
  270MOL0     N36332   2.855   9.283   5.802  0.9117 -0.7600  1.0599
  270MOL0     C36333   2.806   9.381   5.887  0.0223  0.0766  0.4253
  270MOL0     C36334   2.911   9.469   5.902  0.2549  0.9945 -1.3513
  270MOL0     C36335   2.905   9.589   5.996  0.0415  0.4452  0.1797
  270MOL0     C36336   2.884   9.715   5.906 -0.6288 -0.4995  1.0249
  270MOL0     C36337   2.870   9.859   5.960  0.8335  0.4000 -0.7585
  270MOL0     C36338   2.782   9.855   6.091  0.5324  0.0850  0.2456
  270MOL0     O36339   2.652   9.788   6.048 -0.1831  0.0170  0.6486
  270MOL0     C36340   2.550   9.755   6.139  0.4157  0.3174  0.1441
  270MOL0     C36341   2.561   9.777   6.275  0.4376 -0.2535  0.2105
  270MOL0     C36342   2.449   9.772   6.355  0.1633 -0.1317  0.0557
  270MOL0     C36343   2.334   9.713   6.312 -0.1383 -0.3725  0.1820
  270MOL0     C36344   2.213   9.698   6.402 -0.2058  0.4416 -0.0698
  270MOL0     O36345   2.220   9.747   6.534 -0.1478  0.5891  0.1069
  270MOL0     C36346   2.108   9.722   6.616 -1.2342  0.2637  0.6231
  270MOL0     C36347   2.063   9.831   6.688  0.1532  0.1396  0.1113
  270MOL0     C36348   1.960   9.811   6.780  0.0378 -0.1051  0.1673
  270MOL0     C36349   1.899   9.684   6.805  0.7456 -1.1899  0.1767
  270MOL0     O36350   1.795   9.670   6.884  0.5322  0.1632 -0.5043
  270MOL0     C36351   1.770   9.759   6.996  0.1082  0.1879  0.4562
  270MOL0     C36352   1.768   9.665   7.119  0.7101 -0.3062  0.7683
  270MOL0     C36353   1.898   9.585   7.141  0.1654  0.4256 -0.2097
  270MOL0     C36354   1.915   9.556   7.283 -0.5027  0.1091 -0.2926
  270MOL0     C36355   2.057   9.493   7.297 -0.7386 -0.1781  0.3297
  270MOL0     C36356   2.101   9.504   7.443  0.3463 -0.0717  0.4052
  270MOL0     C36357   2.250   9.474   7.437  0.0139  0.2692  0.4141
  270MOL0     C36358   2.302   9.432   7.570  0.2873  0.1767 -0.0006
  270MOL0    Cl36359   2.296   9.548   7.704 -0.2036  0.3869 -0.1460
  270MOL0     C36360   1.954   9.581   6.734 -0.1636 -0.9807 -0.4481
  270MOL0     C36361   2.059   9.595   6.644 -0.4182  0.3312  0.0287
  270MOL0     O36362   2.119   9.630   6.352 -0.5745  0.4355 -0.0844
  270MOL0     C36363   2.328   9.661   6.179  0.4746  0.3929 -0.5425
  270MOL0     C36364   2.434   9.691   6.095 -0.5516 -0.7836  1.1762
  270MOL0     N36365   3.010   9.432   5.811 -0.3263 -0.4032 -0.4530
  270MOL0     N36366   2.969   9.327   5.751  0.4838 -0.3482 -0.7612
  270MOL0     C36367   1.884   8.893   5.635  0.4325 -0.3240 -0.5054
  270MOL0     C36368   1.743   8.883   5.618  0.6168 -0.6814  0.1518
  270MOL0     C36369   1.324   8.735   5.685 -0.5331  0.1324 -0.3834
  270MOL0     C36370   1.248   8.775   5.798  0.3192 -0.8975  0.2181
  270MOL0     C36371   1.116   8.733   5.812 -0.1388 -0.8295 -0.1956
  270MOL0     C36372   1.058   8.657   5.713 -0.7399 -0.7100  0.2554
  270MOL0     O36373   0.933   8.615   5.708  1.0345 -0.2307  1.1273
  270MOL0     C36374   0.847   8.652   5.821  0.5072  0.5799 -0.4695
  270MOL0     C36375   0.710   8.590   5.806 -0.0729 -0.4551  0.5662
  270MOL0     C36376   0.721   8.437   5.813 -0.1635 -0.3510  0.8459
  270MOL0     C36377   0.640   8.361   5.700  0.3559 -0.4841  0.0750
  270MOL0     C36378   0.635   8.213   5.714 -0.2161 -0.0766 -0.2055
  270MOL0     C36379   0.633   8.095   5.730 -0.8617  0.6213  0.4532
  270MOL0     C36380   1.133   8.614   5.607 -0.3120 -0.1238 -0.0637
  270MOL0     C36381   1.268   8.651   5.588  0.1115  0.9413  0.4318
  270MOL0     C36382   1.332   8.574   5.474  0.6629  0.0043 -0.3145
  270MOL0     H36383   1.718   8.544   5.590 -0.8422 -0.5454 -0.8338
  270MOL0     H36384   1.972   8.571   5.625  1.5780  1.0800 -1.9498
  270MOL0     H36385   2.116   8.714   5.842  0.5224  2.8057  0.8210
  270MOL0     H36386   2.173   8.614   5.697  1.0412  0.9511 -1.3918
  270MOL0     H36387   2.358   8.687   5.834 -0.3030 -0.4433 -0.5833
  270MOL0     H36388   2.294   8.851   5.836 -0.0391 -1.6179  1.2111
  270MOL0     H36389   2.352   8.893   5.612  0.2150 -0.3813  1.0786
  270MOL0     H36390   2.372   8.720   5.573 -0.6839 -0.7682  1.1651
  270MOL0     H36391   2.579   8.709   5.712 -0.7860 -0.4519 -0.5365
  270MOL0     H36392   2.587   8.813   5.571 -0.0186  1.4069  0.1435
  270MOL0     H36393   2.540   8.906   5.855 -2.4758 -0.3614 -0.4659
  270MOL0     H36394   2.696   8.901   5.771 -0.0713 -2.3847 -2.0036
  270MOL0     H36395   2.595   9.054   5.589 -1.0807 -1.2698  0.3127
  270MOL0     H36396   2.461   9.089   5.704 -1.2444 -2.3286 -1.2059
  270MOL0     H36397   2.608   9.186   5.876  1.5103 -0.0427  0.7898
  270MOL0     H36398   2.614   9.265   5.723 -2.4557 -0.1208  2.4655
  270MOL0     H36399   2.832   9.088   5.843 -1.7489 -0.0546  1.2373
  270MOL0     H36400   2.834   9.125   5.669  1.0008 -0.9302  0.7326
  270MOL0     H36401   2.713   9.366   5.940  0.3256  0.7817  1.1830
  270MOL0     H36402   2.823   9.571   6.067  1.4441  0.6499  1.9013
  270MOL0     H36403   2.995   9.581   6.056  0.6804  1.0411 -0.6767
  270MOL0     H36404   2.963   9.718   5.830 -1.2347  2.4636  0.3730
  270MOL0     H36405   2.797   9.703   5.841 -2.1792  2.1258  2.4522
  270MOL0     H36406   2.821   9.917   5.881  3.1600  1.1452 -1.7218
  270MOL0     H36407   2.966   9.906   5.985  0.3910  0.5328  0.8382
  270MOL0     H36408   2.769   9.952   6.138 -0.4281 -0.5283  1.3103
  270MOL0     H36409   2.840   9.799   6.164  1.4703 -0.2641 -0.7372
  270MOL0     H36410   2.649   9.827   6.314 -1.6135  2.5078  1.6466
  270MOL0     H36411   2.466   9.807   6.457 -3.0969  0.5924  0.4476
  270MOL0     H36412   2.098   9.933   6.675  0.7884 -0.1428 -0.4233
  270MOL0     H36413   1.918   9.899   6.826 -1.9601 -0.9666  0.0875
  270MOL0     H36414   1.852   9.831   7.002  1.4460 -1.2910  0.4801
  270MOL0     H36415   1.673   9.808   6.984  0.3537  0.6402  0.3017
  270MOL0     H36416   1.752   9.719   7.213  0.5033 -1.6278  1.5199
  270MOL0     H36417   1.683   9.597   7.129  0.0593  0.0728 -1.6988
  270MOL0     H36418   1.901   9.493   7.082 -0.1226  0.8087 -0.8275
  270MOL0     H36419   1.980   9.636   7.091 -0.2051  0.5257 -0.7257
  270MOL0     H36420   1.844   9.486   7.328  3.0318 -2.4463  1.9721
  270MOL0     H36421   1.900   9.647   7.340 -1.6844  1.4213 -2.5723
  270MOL0     H36422   2.123   9.554   7.234 -1.8436 -0.5677 -1.2488
  270MOL0     H36423   2.068   9.390   7.263  0.5070 -0.3124  1.0704
  270MOL0     H36424   2.086   9.604   7.485 -0.3339  0.1345 -0.3013
  270MOL0     H36425   2.036   9.428   7.487 -0.0545 -0.2842 -0.5220
  270MOL0     H36426   2.305   9.560   7.400  0.5707  0.4802  1.6829
  270MOL0     H36427   2.266   9.401   7.357  4.7104  1.8229 -0.3291
  270MOL0     H36428   2.256   9.343   7.614  1.8294 -1.9521 -2.4086
  270MOL0     H36429   2.402   9.397   7.541 -0.5716 -1.0651 -1.6100
  270MOL0     H36430   1.902   9.489   6.760  1.5402 -1.8175  0.1712
  270MOL0     H36431   2.098   9.504   6.600 -0.6291 -0.0302  0.5917
  270MOL0     H36432   2.236   9.619   6.140  0.0380  2.3867 -1.8374
  270MOL0     H36433   2.428   9.665   5.990 -1.3322  0.8793  0.7877
  270MOL0     H36434   1.926   8.992   5.644  0.4084 -0.3711  0.1614
  270MOL0     H36435   1.694   8.979   5.614  4.5339  1.5099  0.1196
  270MOL0     H36436   1.289   8.835   5.879  0.0195  0.2735 -0.4672
  270MOL0     H36437   1.059   8.764   5.899  1.7689 -2.5156  1.7515
  270MOL0     H36438   0.842   8.760   5.833 -0.3074  0.4281  0.7397
  270MOL0     H36439   0.891   8.617   5.915 -1.9662 -1.2101  0.1368
  270MOL0     H36440   0.671   8.610   5.705  0.9264 -1.5893 -0.0734
  270MOL0     H36441   0.643   8.623   5.885 -0.6035 -1.5974  0.6187
  270MOL0     H36442   0.687   8.408   5.913 -0.0987  0.5825  1.1498
  270MOL0     H36443   0.824   8.401   5.804  0.1189  0.8901 -1.9487
  270MOL0     H36444   0.536   8.396   5.692  0.8984  0.7870 -3.0906
  270MOL0     H36445   0.698   8.378   5.609  0.9556 -0.0775  0.5227
  270MOL0     H36446   0.643   7.988   5.733  1.6362  0.7845  0.5051
  270MOL0     H36447   1.081   8.541   5.547 -0.9409  0.1226  0.1753
  270MOL0     H36448   1.381   8.646   5.409 -0.2692 -1.1907 -2.4467
  270MOL0     H36449   1.410   8.511   5.517  1.9285  1.6252 -0.1281
  270MOL0     H36450   1.266   8.514   5.411 -0.1123  2.4925 -2.0469
  271MOL0     O36451   5.243   8.972   6.502 -0.1610  0.0306 -0.0677
  271MOL0     C36452   5.206   8.969   6.620 -0.0177 -0.3207  0.5076
  271MOL0     O36453   5.277   9.026   6.722  0.2891  0.0051 -1.0086
  271MOL0     C36454   5.400   9.084   6.690 -0.6056  0.6882 -0.0711
  271MOL0     C36455   5.420   9.219   6.684 -0.4379  0.2170  0.1124
  271MOL0     C36456   5.544   9.283   6.648 -0.2704  0.6264  0.5382
  271MOL0     C36457   5.651   9.196   6.613 -0.0434  0.0169  0.7239
  271MOL0     O36458   5.783   9.234   6.599 -0.9801 -0.2389 -0.9391
  271MOL0     C36459   5.810   9.353   6.527  0.5656  0.4603 -0.0876
  271MOL0     C36460   5.953   9.366   6.489  0.0405  0.4663 -0.6633
  271MOL0     C36461   5.993   9.279   6.367 -0.0385  0.4207  0.2886
  271MOL0     C36462   6.142   9.244   6.383 -0.8706  0.0225 -0.5141
  271MOL0     C36463   6.201   9.177   6.257  0.5509  0.3774  0.1736
  271MOL0     C36464   6.345   9.139   6.272  1.1439 -0.4928  0.2245
  271MOL0     C36465   6.409   9.122   6.139 -0.3930  0.6927 -0.2600
  271MOL0     C36466   6.550   9.065   6.125 -0.9695  0.2645  0.1016
  271MOL0     N36467   6.575   8.992   6.003  0.2764  0.5560  1.2194
  271MOL0     C36468   6.631   9.040   5.890  0.6214 -0.1870  0.2152
  271MOL0     C36469   6.633   8.942   5.801  0.5296 -0.2140 -0.3021
  271MOL0     C36470   6.685   8.960   5.666  0.0208  0.7670 -0.2018
  271MOL0     C36471   6.834   8.914   5.658  0.1508  0.4249  0.2276
  271MOL0     C36472   6.865   8.765   5.682 -0.4533 -0.8769 -0.5089
  271MOL0     C36473   6.794   8.669   5.578  0.1100  0.1103  0.4190
  271MOL0     O36474   6.823   8.704   5.440  0.3029 -0.0530 -1.4798
  271MOL0     C36475   6.948   8.721   5.399  0.5049  0.5920  0.6198
  271MOL0     C36476   6.968   8.802   5.291 -0.2239  0.6120  0.4989
  271MOL0     C36477   7.096   8.812   5.234  0.9514  0.2635 -0.0274
  271MOL0     C36478   7.210   8.746   5.286  0.5525 -0.3262 -0.0017
  271MOL0     C36479   7.346   8.767   5.229  0.4552  0.0816 -0.6643
  271MOL0     O36480   7.446   8.682   5.270  0.4229  0.0187 -0.7453
  271MOL0     C36481   7.574   8.714   5.230  0.0362  0.5159  0.1277
  271MOL0     C36482   7.667   8.735   5.335  0.5329 -0.2807  1.1052
  271MOL0     C36483   7.803   8.765   5.298 -0.2210 -0.5096 -0.6838
  271MOL0     C36484   7.846   8.749   5.164  0.3352 -0.3609  0.5220
  271MOL0     O36485   7.974   8.774   5.114 -0.1298 -0.1216 -0.2497
  271MOL0     C36486   8.078   8.784   5.213  0.7695 -0.5742 -0.7998
  271MOL0     C36487   8.216   8.820   5.149 -0.7276  0.6657 -0.0240
  271MOL0     C36488   8.221   8.957   5.091 -0.0320 -0.2250 -0.6514
  271MOL0     C36489   8.146   9.077   5.170 -0.1727  0.6650  0.4204
  271MOL0     C36490   8.210   9.107   5.301  0.1653 -0.6280  0.0442
  271MOL0     C36491   8.323   9.213   5.285 -0.2796 -0.1084 -0.4384
  271MOL0     C36492   8.420   9.212   5.399 -0.6482 -0.1456  0.6310
  271MOL0     C36493   8.515   9.332   5.387 -0.7365 -0.8523 -0.4559
  271MOL0    Cl36494   8.619   9.319   5.526 -0.1240 -0.3212  0.2941
  271MOL0     C36495   7.755   8.732   5.063 -0.0845 -0.9150 -0.4152
  271MOL0     C36496   7.616   8.708   5.096 -0.5487 -0.1867 -0.3581
  271MOL0     O36497   7.359   8.856   5.151 -0.0182 -0.6818  0.8917
  271MOL0     C36498   7.192   8.667   5.399  0.8924  0.6056 -0.4625
  271MOL0     C36499   7.058   8.652   5.450 -0.2276 -0.1818 -0.7893
  271MOL0     N36500   6.590   8.827   5.869  0.2499 -0.2979  0.4450
  271MOL0     N36501   6.560   8.858   5.988 -0.0297 -0.1520  0.1298
  271MOL0     C36502   5.633   9.056   6.626 -0.7281 -0.6022  0.0028
  271MOL0     C36503   5.509   8.999   6.659 -0.5837  0.6874 -0.1758
  271MOL0     C36504   5.070   8.918   6.635  0.5817  0.1569 -0.0447
  271MOL0     C36505   5.002   8.950   6.751  0.1788 -0.7677 -0.3582
  271MOL0     C36506   4.873   8.916   6.775 -0.3369  0.5260 -0.9714
  271MOL0     C36507   4.806   8.831   6.683 -0.3173 -0.4554  0.1173
  271MOL0     O36508   4.673   8.794   6.700  0.3141  0.0911 -0.6168
  271MOL0     C36509   4.591   8.882   6.776 -0.4845 -0.1077 -0.8276
  271MOL0     C36510   4.442   8.844   6.775 -1.1857  0.3964 -0.0957
  271MOL0     C36511   4.389   8.829   6.635  0.5657 -0.8344 -0.3715
  271MOL0     C36512   4.238   8.778   6.635 -0.1057 -0.7062  0.3196
  271MOL0     C36513   4.140   8.871   6.693 -0.3914 -0.4345 -0.8159
  271MOL0     C36514   4.062   8.950   6.748  0.4390 -0.3929 -0.7534
  271MOL0     C36515   4.874   8.798   6.562 -0.5529 -0.3206  0.0757
  271MOL0     C36516   5.002   8.842   6.530 -0.0058  0.5479 -0.2085
  271MOL0     C36517   5.054   8.815   6.392  0.2024 -0.5155  0.4231
  271MOL0     H36518   5.333   9.280   6.705 -1.5276  1.1670 -5.6303
  271MOL0     H36519   5.561   9.390   6.640 -1.7877  0.7241 -3.1900
  271MOL0     H36520   5.746   9.351   6.439 -1.1705  0.9079  1.1147
  271MOL0     H36521   5.782   9.441   6.585  0.0278  2.0328 -2.6107
  271MOL0     H36522   6.004   9.345   6.583  0.2147  0.3025 -0.7909
  271MOL0     H36523   5.972   9.472   6.471  0.2389  0.2540 -1.8395
  271MOL0     H36524   5.970   9.327   6.271 -0.0290  0.3556  0.2542
  271MOL0     H36525   5.937   9.185   6.370  0.2343  0.1272 -1.8688
  271MOL0     H36526   6.202   9.335   6.394  0.1224 -0.5819 -0.8732
  271MOL0     H36527   6.166   9.174   6.464 -0.5748 -0.6781 -1.1917
  271MOL0     H36528   6.135   9.093   6.232 -1.8307  1.4635  2.3105
  271MOL0     H36529   6.188   9.241   6.169  0.2397  0.0786  0.0002
  271MOL0     H36530   6.396   9.216   6.331 -1.6002  2.4765 -0.9615
  271MOL0     H36531   6.338   9.059   6.347 -0.7922  1.3262  2.1455
  271MOL0     H36532   6.411   9.220   6.091 -1.3456 -0.0074 -1.8488
  271MOL0     H36533   6.334   9.069   6.078 -1.9828  1.7785  0.6847
  271MOL0     H36534   6.626   9.143   6.132  1.9381 -2.4431  0.8973
  271MOL0     H36535   6.564   9.000   6.212 -0.1588 -0.8463 -0.8418
  271MOL0     H36536   6.670   9.140   5.875 -0.0205 -0.0712 -0.7623
  271MOL0     H36537   6.630   8.894   5.598  1.1524  0.8357 -1.2196
  271MOL0     H36538   6.673   9.067   5.646  2.0131  0.7649 -1.7360
  271MOL0     H36539   6.861   8.944   5.556 -3.1740  1.3941 -0.4967
  271MOL0     H36540   6.885   8.982   5.726 -1.0793  0.8321  0.7826
  271MOL0     H36541   6.849   8.737   5.787 -1.0114 -0.6892 -0.5364
  271MOL0     H36542   6.972   8.754   5.663 -0.0475  0.9589  0.3954
  271MOL0     H36543   6.685   8.683   5.583  0.3657  4.0760 -1.1763
  271MOL0     H36544   6.833   8.567   5.585 -0.4917 -0.2346 -1.0025
  271MOL0     H36545   6.885   8.849   5.240 -0.3959 -2.0169 -1.8648
  271MOL0     H36546   7.125   8.867   5.145  0.7305  1.2318  0.4794
  271MOL0     H36547   7.628   8.722   5.435  0.2285  0.5597  1.1011
  271MOL0     H36548   7.871   8.792   5.378  1.0384  1.1360 -2.2199
  271MOL0     H36549   8.052   8.868   5.279 -1.0605 -0.5597 -1.4595
  271MOL0     H36550   8.077   8.694   5.275  5.3362 -1.4964 -1.7105
  271MOL0     H36551   8.293   8.816   5.227 -0.4974  1.2145 -0.2181
  271MOL0     H36552   8.237   8.750   5.067 -0.0988  0.5384  0.2414
  271MOL0     H36553   8.327   8.979   5.074  0.2310  0.1248  1.2605
  271MOL0     H36554   8.171   8.948   4.993  0.7933 -0.9200 -1.0229
  271MOL0     H36555   8.042   9.052   5.192  0.0753  0.0642  0.9817
  271MOL0     H36556   8.146   9.166   5.108  0.2012 -0.1146 -0.7374
  271MOL0     H36557   8.244   9.019   5.356  0.3684 -2.4538 -2.8104
  271MOL0     H36558   8.131   9.154   5.360  0.9681  2.3842 -1.0600
  271MOL0     H36559   8.377   9.188   5.193 -0.3704  0.7260 -0.7235
  271MOL0     H36560   8.275   9.311   5.280  1.0989  0.5879 -0.4153
  271MOL0     H36561   8.461   9.113   5.379 -2.3116 -1.1559  1.9355
  271MOL0     H36562   8.379   9.216   5.501  0.4337  1.1359  1.0457
  271MOL0     H36563   8.561   9.343   5.289 -2.6474  2.1498 -1.1699
  271MOL0     H36564   8.467   9.430   5.399  0.7932 -0.2704  1.5433
  271MOL0     H36565   7.792   8.750   4.963  1.1405  1.6086  0.3861
  271MOL0     H36566   7.550   8.692   5.012 -0.9802 -3.0911  0.4129
  271MOL0     H36567   7.268   8.608   5.448  1.6286  2.0695  0.2259
  271MOL0     H36568   7.052   8.591   5.539 -1.9579  0.5913 -0.3234
  271MOL0     H36569   5.718   8.990   6.612 -0.6132 -0.3654 -0.4146
  271MOL0     H36570   5.486   8.893   6.654  1.4823  0.2259 -0.4436
  271MOL0     H36571   5.041   9.027   6.818  0.6429 -2.0896  0.9557
  271MOL0     H36572   4.828   8.944   6.870 -0.8031 -0.3884 -0.9128
  271MOL0     H36573   4.606   8.982   6.734 -0.8479  0.2523 -0.1136
  271MOL0     H36574   4.621   8.871   6.880  1.4860  0.2443 -1.3267
  271MOL0     H36575   4.380   8.919   6.827  0.2815  1.0114  0.8566
  271MOL0     H36576   4.438   8.745   6.822  0.6028 -0.6216 -1.9494
  271MOL0     H36577   4.446   8.757   6.576 -0.1485 -0.0765 -2.0447
  271MOL0     H36578   4.401   8.932   6.601  0.3866 -0.7178 -0.0878
  271MOL0     H36579   4.212   8.770   6.529 -1.4104 -0.5013  0.6046
  271MOL0     H36580   4.234   8.681   6.685 -2.5658 -0.9249 -0.1847
  271MOL0     H36581   4.004   9.020   6.805 -1.7737 -3.1615  0.6681
  271MOL0     H36582   4.823   8.733   6.492 -0.4088  1.4624 -1.7545
  271MOL0     H36583   5.158   8.783   6.390  0.9207  1.5662  1.3458
  271MOL0     H36584   5.001   8.738   6.336  1.7297  0.0240 -1.8969
  271MOL0     H36585   5.053   8.903   6.328 -1.3665 -1.0205 -0.3090
  272MOL0     O36586   1.146   3.946   7.381  0.1538  0.0718  0.2515
  272MOL0     C36587   1.110   4.059   7.419  0.0204  0.4923  0.2715
  272MOL0     O36588   1.190   4.166   7.442  0.2015 -0.1867  0.1829
  272MOL0     C36589   1.325   4.150   7.428  0.6809  0.5005 -0.3807
  272MOL0     C36590   1.386   4.211   7.317 -0.8730  0.1772 -0.2499
  272MOL0     C36591   1.527   4.194   7.298  0.2943  0.0235 -0.1399
  272MOL0     C36592   1.609   4.128   7.394  0.0417  0.3368 -0.5832
  272MOL0     O36593   1.746   4.109   7.371 -0.0137 -0.4743 -0.1827
  272MOL0     C36594   1.834   4.095   7.484  0.1444 -0.5640 -0.7294
  272MOL0     C36595   1.979   4.092   7.446 -0.7847 -0.0195 -0.8485
  272MOL0     C36596   2.066   4.061   7.571  0.0485  0.1441 -0.2828
  272MOL0     C36597   2.202   4.019   7.524 -0.0281  0.4521 -1.1803
  272MOL0     C36598   2.291   4.009   7.647  0.1593 -0.1773  0.1901
  272MOL0     C36599   2.379   3.886   7.671 -0.3210  0.9119 -0.3261
  272MOL0     C36600   2.498   3.887   7.566  0.3517  0.4787  0.2518
  272MOL0     C36601   2.503   3.762   7.468 -0.0824  0.2579 -0.3589
  272MOL0     N36602   2.591   3.655   7.515 -0.5616 -0.2223 -0.2925
  272MOL0     C36603   2.552   3.549   7.589  0.3652 -0.9151  0.1221
  272MOL0     C36604   2.654   3.463   7.596 -0.6264 -0.4173 -0.6454
  272MOL0     C36605   2.649   3.344   7.680  0.1654 -0.2959  0.1062
  272MOL0     C36606   2.781   3.288   7.725  0.1518  0.3017  0.3783
  272MOL0     C36607   2.830   3.348   7.866  0.2537  0.4419 -0.1340
  272MOL0     C36608   2.960   3.285   7.918 -0.8244 -0.8197 -0.3513
  272MOL0     O36609   2.989   3.318   8.054  0.0622  0.4984 -0.1816
  272MOL0     C36610   3.091   3.261   8.120 -0.0729  0.8372  0.7795
  272MOL0     C36611   3.115   3.306   8.254 -0.0350  0.7306 -0.0164
  272MOL0     C36612   3.217   3.253   8.333  0.0016 -0.0766 -0.2895
  272MOL0     C36613   3.319   3.166   8.257 -0.2954 -1.2319 -0.1656
  272MOL0     C36614   3.448   3.128   8.330 -0.1072  0.1883  0.0603
  272MOL0     O36615   3.519   3.030   8.264  0.1540  0.0258 -0.5799
  272MOL0     C36616   3.627   2.997   8.352  0.9152 -0.2502 -0.0826
  272MOL0     C36617   3.633   2.877   8.421 -0.8049  0.9527 -0.2116
  272MOL0     C36618   3.734   2.851   8.505 -0.4256  0.4662  0.3458
  272MOL0     C36619   3.844   2.930   8.524  0.5504 -0.8107 -0.0236
  272MOL0     O36620   3.942   2.892   8.604  0.2929  0.1716 -0.1098
  272MOL0     C36621   4.022   2.991   8.675  0.0192  0.7775  0.2883
  272MOL0     C36622   4.134   2.915   8.754  0.4109  0.1619 -0.3472
  272MOL0     C36623   4.229   2.834   8.660 -0.0608 -0.3255 -1.0845
  272MOL0     C36624   4.341   2.771   8.745 -0.2422 -0.3371 -0.1515
  272MOL0     C36625   4.446   2.713   8.653  0.0340  0.8456 -0.6201
  272MOL0     C36626   4.561   2.814   8.640 -0.4876 -0.5234  0.3706
  272MOL0     C36627   4.666   2.763   8.529 -0.3474 -0.4939  0.6624
  272MOL0     C36628   4.749   2.652   8.590 -0.1053 -0.6410  0.6000
  272MOL0    Cl36629   4.906   2.654   8.498  0.0372 -0.1558  0.0405
  272MOL0     C36630   3.854   3.048   8.440  0.0698  0.2237 -0.0062
  272MOL0     C36631   3.741   3.081   8.360  1.1522  0.4445  0.4088
  272MOL0     O36632   3.463   3.167   8.448  0.0099  0.6895 -0.8184
  272MOL0     C36633   3.294   3.129   8.121 -0.6035 -0.3513 -0.0520
  272MOL0     C36634   3.178   3.163   8.058  0.7108 -0.1244 -0.1440
  272MOL0     N36635   2.762   3.521   7.522  1.1622 -0.0683  0.3943
  272MOL0     N36636   2.726   3.629   7.477 -0.2319  0.1122  1.6156
  272MOL0     C36637   1.543   4.072   7.513 -0.4135 -0.7956  0.1185
  272MOL0     C36638   1.405   4.083   7.527  0.2718  0.1931 -0.6411
  272MOL0     C36639   0.967   4.057   7.456 -0.4778 -0.0176  0.0888
  272MOL0     C36640   0.874   4.006   7.368  0.9891  0.3548  0.4429
  272MOL0     C36641   0.747   3.976   7.405  0.6799 -0.0516 -0.0847
  272MOL0     C36642   0.702   4.001   7.532 -0.1021 -0.1260 -0.0997
  272MOL0     O36643   0.572   3.963   7.546 -0.7934  0.0354 -0.5854
  272MOL0     C36644   0.507   3.947   7.673 -0.9495 -0.6007 -0.2965
  272MOL0     C36645   0.432   4.072   7.718  0.9760  0.4364 -0.4702
  272MOL0     C36646   0.337   4.126   7.601 -0.4599 -0.1324 -0.1783
  272MOL0     C36647   0.229   4.030   7.536  0.6151 -0.2543 -0.1611
  272MOL0     C36648   0.143   3.967   7.638  0.6224  0.5456  0.3641
  272MOL0     C36649   0.072   3.927   7.730 -0.1174 -0.2236  0.2452
  272MOL0     C36650   0.787   4.065   7.621 -0.3324  0.7543 -0.1628
  272MOL0     C36651   0.924   4.089   7.588  0.1734  0.2100  0.8270
  272MOL0     C36652   1.023   4.140   7.688 -0.6323 -0.2502  0.5718
  272MOL0     H36653   1.323   4.256   7.241 -1.2408 -0.2130 -0.1791
  272MOL0     H36654   1.565   4.233   7.204 -0.8018 -2.9294 -1.9499
  272MOL0     H36655   1.826   4.182   7.550  1.7094 -1.7700  1.1478
  272MOL0     H36656   1.809   4.008   7.545 -2.7971  1.2866  0.9557
  272MOL0     H36657   2.014   4.189   7.409  0.3962 -0.1333 -0.0894
  272MOL0     H36658   2.000   4.018   7.368  3.3594  0.2384 -0.2258
  272MOL0     H36659   2.025   3.969   7.614 -2.0967  1.3571  0.3881
  272MOL0     H36660   2.067   4.146   7.639  1.7302  1.1285 -1.4494
  272MOL0     H36661   2.199   3.916   7.486 -1.2785  0.2910 -0.7136
  272MOL0     H36662   2.236   4.093   7.451 -1.4069  1.2858 -1.0088
  272MOL0     H36663   2.359   4.094   7.661  0.9886 -0.7313 -0.3470
  272MOL0     H36664   2.225   4.011   7.734 -1.6282  0.5718 -1.1389
  272MOL0     H36665   2.422   3.884   7.771 -1.3647  0.3831  0.1184
  272MOL0     H36666   2.329   3.790   7.661  1.3679 -0.1371  0.8493
  272MOL0     H36667   2.583   3.900   7.633  0.1452 -0.5798  0.7426
  272MOL0     H36668   2.489   3.977   7.505 -1.7170  0.4768  0.4701
  272MOL0     H36669   2.406   3.717   7.445 -0.3195  1.7549 -2.6245
  272MOL0     H36670   2.536   3.806   7.374 -0.7544 -3.3361 -2.4463
  272MOL0     H36671   2.455   3.530   7.633 -0.4501  0.1636 -1.1112
  272MOL0     H36672   2.592   3.356   7.773  1.6296  1.4160  0.8414
  272MOL0     H36673   2.588   3.275   7.620  1.3237 -1.8664  0.6709
  272MOL0     H36674   2.772   3.180   7.736  0.0163  0.1101 -1.3052
  272MOL0     H36675   2.865   3.300   7.655  0.2298  0.4835  0.5017
  272MOL0     H36676   2.745   3.327   7.931 -0.0186  0.7754 -0.3787
  272MOL0     H36677   2.837   3.456   7.849 -2.0518  0.6513  0.0314
  272MOL0     H36678   3.045   3.321   7.860 -1.4118 -0.6870 -1.1512
  272MOL0     H36679   2.942   3.177   7.910 -0.2095 -0.9486 -0.0520
  272MOL0     H36680   3.044   3.378   8.294 -2.2325 -1.8208  0.9549
  272MOL0     H36681   3.239   3.301   8.427 -0.6270  2.2520 -1.2507
  272MOL0     H36682   3.553   2.803   8.418 -0.0510  0.0416  0.9377
  272MOL0     H36683   3.731   2.752   8.549 -0.1528  0.3697  0.1486
  272MOL0     H36684   4.072   3.066   8.614  0.9361  0.7645  1.0117
  272MOL0     H36685   3.960   3.042   8.749 -1.4238  2.4464 -1.9440
  272MOL0     H36686   4.192   2.987   8.812 -3.3029  1.9904  1.3847
  272MOL0     H36687   4.085   2.845   8.822 -0.6728 -0.3489 -1.6092
  272MOL0     H36688   4.185   2.755   8.598  2.6824  1.2707 -5.5036
  272MOL0     H36689   4.272   2.902   8.585  5.0919 -1.6057  0.3113
  272MOL0     H36690   4.306   2.699   8.819 -1.3854 -1.1386 -1.4228
  272MOL0     H36691   4.394   2.843   8.808  1.4294 -0.4282 -1.3668
  272MOL0     H36692   4.410   2.673   8.558  0.1452  0.9140 -0.6914
  272MOL0     H36693   4.487   2.620   8.695 -0.8850  1.2352  1.2301
  272MOL0     H36694   4.513   2.906   8.607 -1.4375 -0.9633  0.5021
  272MOL0     H36695   4.603   2.827   8.740  0.7359  0.2629 -0.2260
  272MOL0     H36696   4.729   2.845   8.493  0.4260 -0.7218  1.4639
  272MOL0     H36697   4.609   2.721   8.446 -1.5200 -0.5760  1.4812
  272MOL0     H36698   4.770   2.681   8.693 -0.4609 -0.4994  0.6328
  272MOL0     H36699   4.705   2.551   8.592  3.8947 -2.5703  0.6369
  272MOL0     H36700   3.940   3.114   8.444  0.4309 -0.1554 -1.0815
  272MOL0     H36701   3.745   3.165   8.291  0.0802  1.0635  1.0759
  272MOL0     H36702   3.345   3.055   8.060 -3.9090 -2.0712 -0.9608
  272MOL0     H36703   3.169   3.123   7.957 -0.2938  3.9372 -1.8802
  272MOL0     H36704   1.589   4.013   7.591 -1.7395 -4.5622 -1.7019
  272MOL0     H36705   1.360   4.049   7.620  1.6503 -0.2010 -0.0858
  272MOL0     H36706   0.895   3.994   7.262 -1.2441  0.1155 -0.0355
  272MOL0     H36707   0.683   3.925   7.334  0.6136 -1.6249  1.0502
  272MOL0     H36708   0.577   3.924   7.754 -1.7719 -1.8534  0.0876
  272MOL0     H36709   0.433   3.867   7.670  0.9273 -2.6348  2.4018
  272MOL0     H36710   0.501   4.152   7.742  2.0674 -0.9632  1.3076
  272MOL0     H36711   0.365   4.049   7.802  0.2452  4.7554  0.3652
  272MOL0     H36712   0.409   4.167   7.529  1.6445  1.0979  2.4755
  272MOL0     H36713   0.288   4.214   7.644  1.0540 -0.6013  2.6980
  272MOL0     H36714   0.172   4.081   7.458 -0.2428 -2.5953 -1.1556
  272MOL0     H36715   0.286   3.949   7.489  1.4711 -0.7511  1.6662
  272MOL0     H36716   0.012   3.891   7.811 -2.7048  0.8740 -1.0365
  272MOL0     H36717   0.749   4.096   7.719  0.6586  0.6372  0.2682
  272MOL0     H36718   1.067   4.223   7.632 -1.1626 -1.3735 -1.6637
  272MOL0     H36719   0.971   4.176   7.777  0.4743  1.8082  0.4587
  272MOL0     H36720   1.088   4.055   7.709 -1.3357 -0.7310  0.8455
  273MOL0     O36721  10.969   6.553  10.449 -0.4595 -0.4738  0.3003
  273MOL0     C36722  10.927   6.596  10.340 -0.0300 -0.4368 -0.2917
  273MOL0     O36723  11.004   6.641  10.237  0.4096 -0.7184 -0.1888
  273MOL0     C36724  11.118   6.711  10.268  0.3899 -1.1143 -0.0204
  273MOL0     C36725  11.139   6.831  10.199 -0.0260  0.0081  0.4547
  273MOL0     C36726  11.262   6.897  10.199 -0.5430 -0.1518  0.1847
  273MOL0     C36727  11.367   6.843  10.272 -0.4760  0.7926 -0.2044
  273MOL0     O36728  11.485   6.915  10.268  0.0058 -0.2752  0.3354
  273MOL0     C36729  11.618   6.866  10.285 -0.3459  0.0611 -0.5622
  273MOL0     C36730  11.721   6.976  10.290 -0.1758  0.0221 -0.5546
  273MOL0     C36731  11.862   6.916  10.321 -0.5044  0.2313  0.6184
  273MOL0     C36732  11.972   7.007  10.265 -0.6077 -0.6094  0.3525
  273MOL0     C36733  12.113   6.955  10.305  0.1621 -0.0187  0.8884
  273MOL0     C36734  12.139   6.994  10.449  0.2259  0.1239 -0.2936
  273MOL0     C36735  12.287   6.976  10.485  0.1372 -1.2900  0.0395
  273MOL0     C36736  12.314   7.020  10.627 -0.0422 -0.0829  0.2710
  273MOL0     N36737  12.464   7.016  10.658  0.1392 -0.2032  0.5910
  273MOL0     C36738  12.550   7.095  10.586  0.3877 -0.6942 -0.9595
  273MOL0     C36739  12.668   7.088  10.658  0.8291  0.1544 -0.2333
  273MOL0     C36740  12.801   7.154  10.635  0.3479  0.0043  0.0799
  273MOL0     C36741  12.864   7.220  10.753  0.2441 -0.2033  0.0332
  273MOL0     C36742  13.012   7.268  10.717  0.2029  0.6036 -1.2198
  273MOL0     C36743  13.073   7.341  10.830  0.8544  1.1155 -1.1980
  273MOL0     O36744  13.194   7.378  10.786 -0.2771 -0.1694  0.0919
  273MOL0     C36745  13.295   7.416  10.870  0.6312  0.7842  0.0137
  273MOL0     C36746  13.414   7.451  10.806  0.1926  0.1780 -0.6650
  273MOL0     C36747  13.532   7.496  10.876  0.1027 -0.3038  0.1951
  273MOL0     C36748  13.528   7.494  11.017 -0.7858 -1.4445  1.0353
  273MOL0     C36749  13.645   7.516  11.107  0.6902  0.2558  0.3923
  273MOL0     O36750  13.621   7.560  11.238  0.5313  0.0894  0.7818
  273MOL0     C36751  13.723   7.535  11.330 -0.3984  0.1850 -0.1222
  273MOL0     C36752  13.783   7.411  11.342 -0.7935 -0.3068  0.0246
  273MOL0     C36753  13.872   7.384  11.449  1.0482  0.0147 -0.1487
  273MOL0     C36754  13.905   7.476  11.544 -0.0200 -0.0164  0.5745
  273MOL0     O36755  13.984   7.454  11.659 -0.1628 -0.4052  0.1208
  273MOL0     C36756  14.005   7.317  11.700  0.2063 -0.0995  0.1088
  273MOL0     C36757  14.078   7.324  11.834  0.3009 -0.6574 -0.0659
  273MOL0     C36758  14.220   7.387  11.804  0.6592 -0.1616  0.8590
  273MOL0     C36759  14.313   7.382  11.930  0.4460 -0.0033  0.0232
  273MOL0     C36760  14.402   7.509  11.944  0.1971  0.0759 -0.4117
  273MOL0     C36761  14.516   7.486  12.050 -0.5555 -0.2674  0.3040
  273MOL0     C36762  14.632   7.391  12.019  0.5267  0.1938 -0.2414
  273MOL0     C36763  14.758   7.400  12.117  0.7238 -0.0878  0.1352
  273MOL0    Cl36764  14.851   7.564  12.127  0.3597  0.2817 -0.3141
  273MOL0     C36765  13.842   7.599  11.534 -0.5759 -0.3290  0.0707
  273MOL0     C36766  13.770   7.636  11.419  0.5373 -0.3011  0.2697
  273MOL0     O36767  13.754   7.499  11.055  0.2862 -0.6730 -0.5050
  273MOL0     C36768  13.410   7.455  11.078  0.0884  0.2764  0.5440
  273MOL0     C36769  13.293   7.410  11.007 -0.6480 -0.0641 -0.2547
  273MOL0     N36770  12.646   6.999  10.763 -0.5600  0.9528 -0.4838
  273MOL0     N36771  12.521   6.955  10.765  0.3637 -0.4505  0.3303
  273MOL0     C36772  11.344   6.724  10.342 -0.9393 -0.1625  0.9654
  273MOL0     C36773  11.225   6.654  10.336  0.3014  0.0492  0.1462
  273MOL0     C36774  10.785   6.573  10.309 -0.1551 -0.2425 -0.9042
  273MOL0     C36775  10.748   6.581  10.174 -0.5636  0.5096  0.8487
  273MOL0     C36776  10.622   6.552  10.136  0.2648  0.1056 -0.3471
  273MOL0     C36777  10.527   6.508  10.225 -0.0766  1.2555 -0.3507
  273MOL0     O36778  10.400   6.466  10.189  0.2645  0.0541 -0.0683
  273MOL0     C36779  10.361   6.464  10.046 -0.4273  0.0447 -0.3720
  273MOL0     C36780  10.318   6.328  10.000  0.1309 -0.7031  0.2968
  273MOL0     C36781  10.226   6.256  10.096 -0.1458  0.7888  0.3809
  273MOL0     C36782  10.181   6.126  10.034 -0.8818 -0.2276  0.6917
  273MOL0     C36783  10.116   6.035  10.133 -0.5197 -0.2431 -0.0030
  273MOL0     C36784  10.080   5.953  10.213 -0.0717 -0.4959 -0.3472
  273MOL0     C36785  10.559   6.507  10.363  0.2703 -0.2366  0.5684
  273MOL0     C36786  10.688   6.541  10.413  0.9644 -0.2083 -0.6304
  273MOL0     C36787  10.710   6.544  10.564  0.7902  0.5528 -0.5292
  273MOL0     H36788  11.052   6.870  10.147 -0.4197 -0.3758  0.8125
  273MOL0     H36789  11.264   6.994  10.150  1.0291  0.0203  0.5614
  273MOL0     H36790  11.629   6.807  10.376  0.1816  2.3814  0.9510
  273MOL0     H36791  11.627   6.800  10.198 -0.4223 -1.0672  0.2587
  273MOL0     H36792  11.689   7.031  10.379 -0.1936  0.4882 -0.8498
  273MOL0     H36793  11.721   7.032  10.196 -1.8791 -3.6362 -2.9602
  273MOL0     H36794  11.869   6.815  10.279 -1.0337  0.0167  1.0462
  273MOL0     H36795  11.870   6.904  10.430 -1.3153 -0.6036  0.5935
  273MOL0     H36796  11.961   7.009  10.157  1.3089 -0.4995  0.1284
  273MOL0     H36797  11.946   7.107  10.303 -1.7251 -1.1313  1.0475
  273MOL0     H36798  12.123   6.846  10.291 -3.3956 -0.2831 -0.5998
  273MOL0     H36799  12.185   7.005  10.239 -2.6318  0.6271 -1.9016
  273MOL0     H36800  12.111   7.098  10.469 -1.0037 -0.3670  0.6922
  273MOL0     H36801  12.075   6.926  10.506 -0.9461  3.3193  2.4720
  273MOL0     H36802  12.347   7.034  10.414  0.5095  0.5322  1.7417
  273MOL0     H36803  12.314   6.870  10.474  1.2570 -1.1267  0.9873
  273MOL0     H36804  12.268   7.118  10.647 -4.0736 -2.3672  3.8285
  273MOL0     H36805  12.268   6.950  10.697  0.8550  0.6788  1.6745
  273MOL0     H36806  12.533   7.158  10.499  2.7133  1.8810  0.3046
  273MOL0     H36807  12.862   7.073  10.593 -0.1148 -0.3039 -0.0058
  273MOL0     H36808  12.791   7.225  10.553  0.4694 -1.6716 -1.4577
  273MOL0     H36809  12.804   7.308  10.781 -1.1876 -1.0465 -0.2773
  273MOL0     H36810  12.865   7.149  10.836 -0.1707  0.2723  0.4525
  273MOL0     H36811  12.999   7.334  10.630  1.2949 -0.2244 -2.0324
  273MOL0     H36812  13.072   7.180  10.694  1.9163  1.8523 -1.7542
  273MOL0     H36813  13.073   7.274  10.916 -1.4218  3.8826  1.1910
  273MOL0     H36814  13.016   7.431  10.855 -0.4535 -0.7020  3.3403
  273MOL0     H36815  13.434   7.439  10.700  1.5515 -0.6812 -0.3363
  273MOL0     H36816  13.621   7.526  10.822 -1.3326 -0.8644 -2.6848
  273MOL0     H36817  13.766   7.333  11.270  0.5285 -0.8596  0.2678
  273MOL0     H36818  13.907   7.281  11.454 -2.8062 -1.6065 -2.1740
  273MOL0     H36819  13.910   7.267  11.720  0.3756 -0.3787  0.2157
  273MOL0     H36820  14.072   7.259  11.635  0.6249 -0.9533  1.2663
  273MOL0     H36821  14.015   7.390  11.893 -0.3385 -1.8444  0.6080
  273MOL0     H36822  14.080   7.231  11.891 -1.2677  0.5558  2.1005
  273MOL0     H36823  14.259   7.326  11.722  1.5755  4.0679 -2.1799
  273MOL0     H36824  14.208   7.486  11.760  1.5219  0.5135  2.0782
  273MOL0     H36825  14.372   7.291  11.923  4.7371  2.4520  0.6428
  273MOL0     H36826  14.253   7.384  12.021 -1.4337  0.2006 -1.1701
  273MOL0     H36827  14.333   7.588  11.976  0.0230 -0.2496  0.0289
  273MOL0     H36828  14.446   7.541  11.849 -0.9900  1.2606 -0.5962
  273MOL0     H36829  14.555   7.583  12.082 -1.2089 -0.4472  1.7306
  273MOL0     H36830  14.472   7.450  12.144  2.4659  1.0164  2.4016
  273MOL0     H36831  14.662   7.409  11.915  0.6724 -0.6797 -0.3581
  273MOL0     H36832  14.596   7.288  12.027 -2.3041  1.0775 -0.5162
  273MOL0     H36833  14.737   7.375  12.222 -2.2271  0.9206 -0.1109
  273MOL0     H36834  14.830   7.326  12.083  0.3949 -0.0753 -0.5887
  273MOL0     H36835  13.863   7.675  11.608 -3.0066  0.6149 -0.1317
  273MOL0     H36836  13.721   7.733  11.419  1.8857  0.4037  0.1957
  273MOL0     H36837  13.412   7.445  11.186 -1.3908 -0.2307  0.5602
  273MOL0     H36838  13.202   7.377  11.057  0.2947 -0.3941  1.2951
  273MOL0     H36839  11.429   6.689  10.401  0.8272  1.6342 -0.3645
  273MOL0     H36840  11.204   6.554  10.373 -1.0481  0.8553  1.6735
  273MOL0     H36841  10.816   6.611  10.094 -0.6440 -0.9451  0.1948
  273MOL0     H36842  10.587   6.582  10.038 -3.3558  1.0553  1.0868
  273MOL0     H36843  10.431   6.499   9.969 -0.7141  2.1635  0.2781
  273MOL0     H36844  10.272   6.526  10.037 -0.5483  0.3290  2.1951
  273MOL0     H36845  10.412   6.275   9.984 -0.2149 -0.5767 -2.6670
  273MOL0     H36846  10.270   6.343   9.903  0.7527  1.1799  0.2434
  273MOL0     H36847  10.139   6.317  10.123  0.0474  0.5281  1.6917
  273MOL0     H36848  10.283   6.231  10.186 -0.8242  2.3690  1.3027
  273MOL0     H36849  10.113   6.143   9.950 -2.6809  1.3358  2.3679
  273MOL0     H36850  10.273   6.078   9.998  1.8169  0.6172  5.5711
  273MOL0     H36851  10.052   5.873  10.280  0.5722  1.3181  2.2275
  273MOL0     H36852  10.472   6.477  10.421 -1.7685  2.4060 -0.8757
  273MOL0     H36853  10.691   6.642  10.609 -0.8140  0.9941 -2.0570
  273MOL0     H36854  10.642   6.474  10.613  2.3874 -1.3796 -0.9573
  273MOL0     H36855  10.803   6.497  10.596 -1.0039 -1.9641  1.2777
  274MOL0     O36856   7.128   8.717   1.847  0.2887  0.3166  0.3978
  274MOL0     C36857   7.120   8.707   1.977  0.1089 -0.6324  1.1801
  274MOL0     O36858   7.218   8.668   2.062  0.0410 -0.2784 -0.1832
  274MOL0     C36859   7.334   8.636   1.999 -0.8212 -0.8136 -0.4774
  274MOL0     C36860   7.443   8.720   2.026 -0.5268 -0.5238 -0.0286
  274MOL0     C36861   7.569   8.683   1.983  0.8186 -0.6420 -0.3361
  274MOL0     C36862   7.594   8.568   1.901  0.7140  0.0889  0.2400
  274MOL0     O36863   7.722   8.537   1.873  0.3737 -0.5805 -0.2823
  274MOL0     C36864   7.760   8.408   1.838  0.8382  0.6511  0.0571
  274MOL0     C36865   7.904   8.415   1.788  0.8587 -0.5248 -0.6057
  274MOL0     C36866   8.007   8.486   1.877  0.0106  0.4840 -0.7758
  274MOL0     C36867   8.120   8.398   1.922  0.0886 -0.0659  0.3938
  274MOL0     C36868   8.218   8.479   2.019  0.3668  0.2488  0.2678
  274MOL0     C36869   8.346   8.405   2.057  0.6492  0.1733  1.1973
  274MOL0     C36870   8.435   8.473   2.160 -0.5621  0.1845 -0.6616
  274MOL0     C36871   8.542   8.371   2.199  0.1659 -0.6026  0.2842
  274MOL0     N36872   8.632   8.429   2.301 -0.6061  0.2479  0.0184
  274MOL0     C36873   8.659   8.361   2.420 -0.2281  0.1440  0.3671
  274MOL0     C36874   8.758   8.430   2.479  0.5901  0.3027  0.0199
  274MOL0     C36875   8.821   8.398   2.608  0.1984  0.4168  0.1902
  274MOL0     C36876   8.812   8.246   2.636  0.7531 -1.0361  0.3191
  274MOL0     C36877   8.857   8.184   2.765 -0.3295  0.5506  0.2570
  274MOL0     C36878   9.003   8.228   2.796  0.2655 -0.1075 -0.3467
  274MOL0     O36879   9.073   8.168   2.909  0.5481  0.6398  0.4945
  274MOL0     C36880   9.202   8.192   2.925  0.0856 -0.4158  0.1445
  274MOL0     C36881   9.282   8.270   2.841  0.4961 -0.0995  0.4848
  274MOL0     C36882   9.421   8.305   2.863  0.0742 -0.2478 -0.0618
  274MOL0     C36883   9.477   8.258   2.985 -0.0037  0.9089  0.0700
  274MOL0     C36884   9.622   8.270   3.010  0.0511 -0.7210  1.3457
  274MOL0     O36885   9.664   8.248   3.131 -0.1640 -0.4153 -0.0196
  274MOL0     C36886   9.793   8.282   3.179  0.0595 -0.3472  0.1356
  274MOL0     C36887   9.836   8.217   3.283 -0.3636  0.4522  0.6180
  274MOL0     C36888   9.953   8.239   3.344  0.5339 -0.3811  0.2777
  274MOL0     C36889  10.033   8.345   3.304  0.4209 -0.1417 -0.1252
  274MOL0     O36890  10.161   8.356   3.370 -0.0737 -0.9621  0.5281
  274MOL0     C36891  10.270   8.425   3.309  0.5556 -1.0024 -0.0113
  274MOL0     C36892  10.330   8.360   3.181  0.3327 -0.0943  0.0541
  274MOL0     C36893  10.441   8.439   3.132 -0.3474  0.1963  0.2365
  274MOL0     C36894  10.561   8.461   3.237  0.0491 -0.8532  0.1495
  274MOL0     C36895  10.679   8.515   3.162  0.1037 -0.5485 -0.4068
  274MOL0     C36896  10.796   8.562   3.249 -0.2005 -0.4262 -0.1630
  274MOL0     C36897  10.893   8.659   3.173 -0.4073 -0.3165 -0.4909
  274MOL0     C36898  10.983   8.596   3.064  0.4672 -0.7619  0.1805
  274MOL0    Cl36899  11.123   8.507   3.131  0.2169  0.4357  0.0277
  274MOL0     C36900   9.999   8.413   3.190 -0.8798 -0.4364 -0.3550
  274MOL0     C36901   9.872   8.386   3.126  0.2803 -0.0477  0.2221
  274MOL0     O36902   9.689   8.308   2.910 -0.7601  0.2994  0.2351
  274MOL0     C36903   9.401   8.183   3.071  0.2030 -0.6404 -0.0092
  274MOL0     C36904   9.270   8.141   3.034 -1.2036 -0.2286  0.6727
  274MOL0     N36905   8.779   8.540   2.399  0.5837 -0.3357  1.1156
  274MOL0     N36906   8.695   8.548   2.299 -0.5072 -0.0061  0.5479
  274MOL0     C36907   7.483   8.497   1.865 -0.0810  0.0354 -0.0170
  274MOL0     C36908   7.354   8.521   1.922  0.4620 -0.4186  0.0186
  274MOL0     C36909   6.986   8.747   2.046  0.3262  0.8734 -0.4479
  274MOL0     C36910   6.984   8.772   2.181  0.1903 -0.0733 -0.9643
  274MOL0     C36911   6.864   8.807   2.245 -0.5801 -0.5542  0.0272
  274MOL0     C36912   6.741   8.801   2.177  0.2243 -0.4791 -0.4863
  274MOL0     O36913   6.622   8.804   2.241 -0.8253 -0.2015  0.4048
  274MOL0     C36914   6.624   8.812   2.383 -0.5614 -0.6164  0.0171
  274MOL0     C36915   6.483   8.823   2.454 -0.1202  0.0941 -0.4892
  274MOL0     C36916   6.423   8.961   2.427 -0.4827  0.2266 -0.0510
  274MOL0     C36917   6.321   8.958   2.306 -0.4901 -0.1804  0.3896
  274MOL0     C36918   6.188   8.933   2.357  0.0019 -0.0780  0.2411
  274MOL0     C36919   6.091   8.893   2.408 -0.5087  0.9678  0.3712
  274MOL0     C36920   6.741   8.784   2.045  0.7555 -0.5772 -0.4472
  274MOL0     C36921   6.857   8.755   1.971  0.3154 -0.4865 -0.5591
  274MOL0     C36922   6.835   8.734   1.818  0.1572  0.1244 -0.6513
  274MOL0     H36923   7.444   8.811   2.085 -1.0316 -1.8566  2.1429
  274MOL0     H36924   7.657   8.743   2.005  1.8656 -2.2809  0.0948
  274MOL0     H36925   7.745   8.331   1.914  0.5249 -0.7175 -1.3389
  274MOL0     H36926   7.701   8.377   1.752 -2.6476  1.1882  2.0899
  274MOL0     H36927   7.902   8.472   1.694 -2.9363 -0.1660 -0.4592
  274MOL0     H36928   7.938   8.312   1.774  0.1522 -0.7544 -0.7005
  274MOL0     H36929   7.952   8.537   1.956 -3.1224  1.0606 -3.1576
  274MOL0     H36930   8.063   8.562   1.821  2.1621 -1.7667 -1.9007
  274MOL0     H36931   8.085   8.315   1.985 -0.9678  1.7695  2.3528
  274MOL0     H36932   8.168   8.371   1.828  2.7506  1.4612  1.2225
  274MOL0     H36933   8.248   8.573   1.972 -1.5685  0.6514 -0.2732
  274MOL0     H36934   8.160   8.501   2.110  1.2747 -3.8211  2.0737
  274MOL0     H36935   8.324   8.304   2.093  3.6630 -1.7655 -1.8569
  274MOL0     H36936   8.401   8.387   1.964 -2.1393 -0.2474 -0.4716
  274MOL0     H36937   8.374   8.508   2.244  0.0195  1.0321 -0.5728
  274MOL0     H36938   8.482   8.562   2.116  0.2804  1.7515  2.9874
  274MOL0     H36939   8.505   8.279   2.245 -1.2521  0.6494  1.7841
  274MOL0     H36940   8.604   8.333   2.117  1.5281 -1.3237  1.6120
  274MOL0     H36941   8.605   8.273   2.452 -2.8383  0.0079 -3.7435
  274MOL0     H36942   8.927   8.424   2.609  0.5602 -0.9769 -0.5926
  274MOL0     H36943   8.776   8.461   2.686  1.0042  2.7922 -1.1529
  274MOL0     H36944   8.704   8.231   2.641  0.6168 -0.1910  0.0046
  274MOL0     H36945   8.867   8.195   2.556  1.0063 -0.8660  0.3833
  274MOL0     H36946   8.830   8.079   2.766  1.3647  0.0798  0.1413
  274MOL0     H36947   8.792   8.221   2.845  2.2311  1.7333  1.9318
  274MOL0     H36948   9.013   8.337   2.806 -1.9332  0.3512 -2.2903
  274MOL0     H36949   9.058   8.194   2.708 -0.6256 -2.2490 -0.1306
  274MOL0     H36950   9.246   8.314   2.749  0.2349 -0.2407  0.5198
  274MOL0     H36951   9.487   8.355   2.793  1.6849 -0.2084  1.3859
  274MOL0     H36952   9.773   8.136   3.318  1.5062 -1.9761 -1.2606
  274MOL0     H36953   9.981   8.181   3.430 -0.9490 -2.0342 -0.2937
  274MOL0     H36954  10.248   8.530   3.290  0.6929 -1.2095 -1.4484
  274MOL0     H36955  10.346   8.419   3.387 -0.9494 -0.3207  1.5760
  274MOL0     H36956  10.367   8.259   3.202  0.7416 -0.2384 -1.2456
  274MOL0     H36957  10.251   8.370   3.106 -0.6278  1.9906  1.2612
  274MOL0     H36958  10.481   8.380   3.049  3.8160  1.3636  1.1702
  274MOL0     H36959  10.408   8.534   3.089  1.6691  1.0706  0.5109
  274MOL0     H36960  10.586   8.369   3.291  0.7172  0.8579  2.9052
  274MOL0     H36961  10.537   8.535   3.314 -2.0843 -2.2832  0.9523
  274MOL0     H36962  10.648   8.597   3.097  2.3526  0.3326 -0.4789
  274MOL0     H36963  10.721   8.435   3.100  1.6588  0.7644 -1.1442
  274MOL0     H36964  10.748   8.616   3.330 -1.0530 -0.3589 -0.6965
  274MOL0     H36965  10.846   8.481   3.302 -0.2200  0.3872  1.1376
  274MOL0     H36966  10.970   8.698   3.241  0.5226 -1.5794 -0.7763
  274MOL0     H36967  10.836   8.746   3.140 -3.6191  0.3317  5.4569
  274MOL0     H36968  10.928   8.515   3.016 -0.8688 -0.7295  1.5822
  274MOL0     H36969  11.023   8.673   2.997  0.1653 -0.9272 -0.1909
  274MOL0     H36970  10.055   8.501   3.161 -0.4630  0.0470  1.7281
  274MOL0     H36971   9.842   8.449   3.043 -1.1395 -2.1979 -0.9846
  274MOL0     H36972   9.446   8.134   3.156 -0.6172  0.1839  0.9204
  274MOL0     H36973   9.231   8.062   3.096 -1.5212  0.0906  0.8865
  274MOL0     H36974   7.482   8.420   1.788 -1.6262  0.8515 -0.8814
  274MOL0     H36975   7.269   8.457   1.899 -0.6649  0.2361  2.0890
  274MOL0     H36976   7.073   8.764   2.243  0.0658  3.7704 -0.0236
  274MOL0     H36977   6.864   8.827   2.351 -0.7178 -2.1803  0.3649
  274MOL0     H36978   6.682   8.895   2.425 -0.8334 -0.4048 -0.0250
  274MOL0     H36979   6.671   8.721   2.422  2.2125  0.0741 -1.4388
  274MOL0     H36980   6.488   8.811   2.563 -2.3301  0.8148 -0.2636
  274MOL0     H36981   6.416   8.745   2.416  1.8149 -2.2847  0.6691
  274MOL0     H36982   6.498   9.037   2.401 -0.8243 -0.4546 -3.5082
  274MOL0     H36983   6.376   9.003   2.516  2.3743  1.5120  0.9883
  274MOL0     H36984   6.326   9.057   2.258 -1.4333 -0.7969 -1.0615
  274MOL0     H36985   6.332   8.886   2.224 -0.5048 -2.4172  2.2718
  274MOL0     H36986   6.003   8.854   2.456 -1.1371  2.2505  0.3249
  274MOL0     H36987   6.650   8.784   1.985  0.2746  1.6533  0.1755
  274MOL0     H36988   6.874   8.637   1.786 -2.8686 -1.3753 -0.1595
  274MOL0     H36989   6.729   8.731   1.792  0.2634 -0.9786 -0.9816
  274MOL0     H36990   6.886   8.806   1.754 -0.9377  2.0701  0.5674
  275MOL0     O36991   6.225   2.669   3.391  0.6512  0.1389  0.5411
  275MOL0     C36992   6.197   2.594   3.296 -0.4355 -0.2961 -0.4750
  275MOL0     O36993   6.280   2.496   3.253 -0.3735  1.0197  0.9205
  275MOL0     C36994   6.405   2.503   3.300 -0.2985 -0.3359  0.4072
  275MOL0     C36995   6.438   2.444   3.425 -0.6525 -0.2622  0.3604
  275MOL0     C36996   6.566   2.456   3.486 -0.0215  0.1910  0.1206
  275MOL0     C36997   6.667   2.530   3.417  0.5794 -0.1960 -0.3912
  275MOL0     O36998   6.785   2.554   3.473  0.2505  0.0450  0.6496
  275MOL0     C36999   6.829   2.483   3.587  0.0561  0.3559 -0.5796
  275MOL0     C37000   6.888   2.348   3.536  0.2727 -1.1150  0.0080
  275MOL0     C37001   6.993   2.374   3.422  0.0921  0.1673  0.2009
  275MOL0     C37002   7.121   2.424   3.485 -0.0656 -0.3616 -0.0771
  275MOL0     C37003   7.235   2.478   3.384 -0.4016  0.5567  0.4009
  275MOL0     C37004   7.235   2.390   3.259  0.6041 -0.3953  0.2454
  275MOL0     C37005   7.368   2.410   3.189 -0.4621 -0.2162 -0.4477
  275MOL0     C37006   7.365   2.333   3.057 -0.5914 -0.1008  0.4814
  275MOL0     N37007   7.491   2.369   2.987  0.3772 -0.0748  0.1960
  275MOL0     C37008   7.551   2.296   2.888 -0.2601 -0.4124  0.1568
  275MOL0     C37009   7.653   2.373   2.843 -0.2632 -1.6170  0.5592
  275MOL0     C37010   7.756   2.337   2.727  0.3426  1.4268 -1.3705
  275MOL0     C37011   7.891   2.420   2.718  0.1583  0.3861 -0.5675
  275MOL0     C37012   7.973   2.371   2.597 -0.3167 -0.7918  0.2305
  275MOL0     C37013   8.101   2.458   2.574  0.2860 -0.2066  0.1958
  275MOL0     O37014   8.159   2.419   2.449 -0.0306 -0.0218  0.2398
  275MOL0     C37015   8.288   2.466   2.424  0.4247 -0.6194  0.6403
  275MOL0     C37016   8.366   2.549   2.516  0.6379 -0.0939  0.7519
  275MOL0     C37017   8.498   2.579   2.497 -0.1531  0.1205 -0.4074
  275MOL0     C37018   8.568   2.527   2.386  0.2287  0.0692 -0.5541
  275MOL0     C37019   8.714   2.561   2.354  0.3135 -1.0741  0.0365
  275MOL0     O37020   8.770   2.512   2.234 -0.9326 -0.0469  0.1663
  275MOL0     C37021   8.907   2.547   2.218  0.1822  0.2434 -0.2107
  275MOL0     C37022   8.946   2.565   2.088 -0.3180 -0.0664  0.0015
  275MOL0     C37023   9.086   2.579   2.048  0.1770 -0.1311 -0.8176
  275MOL0     C37024   9.182   2.567   2.150  0.2810 -0.8539  0.1736
  275MOL0     O37025   9.320   2.564   2.130 -0.0810 -0.4616 -0.0934
  275MOL0     C37026   9.364   2.564   1.988  0.0386  0.4472  0.3749
  275MOL0     C37027   9.506   2.503   1.959  0.2923  0.2432 -0.2360
  275MOL0     C37028   9.627   2.563   2.046 -0.4233  0.4355  0.4645
  275MOL0     C37029   9.652   2.713   2.015 -0.1833  0.6235 -0.7597
  275MOL0     C37030   9.784   2.764   2.084  0.7390 -0.4067  0.1737
  275MOL0     C37031   9.806   2.913   2.093 -0.1340  0.1320 -0.3042
  275MOL0     C37032   9.945   2.933   2.153  0.6495 -0.1736  0.2183
  275MOL0     C37033  10.044   2.926   2.043 -0.7008  0.7912 -0.2301
  275MOL0    Cl37034  10.200   2.932   2.109  0.0355  0.3196 -0.1388
  275MOL0     C37035   9.136   2.535   2.280 -0.4754 -0.1745 -0.7906
  275MOL0     C37036   9.005   2.533   2.316 -0.5656  0.3634  0.4989
  275MOL0     O37037   8.769   2.627   2.440 -0.1926 -0.5836 -0.3400
  275MOL0     C37038   8.500   2.449   2.288 -0.0499  0.2675 -0.5921
  275MOL0     C37039   8.362   2.417   2.311  0.9507 -0.0260  0.4724
  275MOL0     N37040   7.660   2.482   2.926  0.1436 -0.4353 -0.1413
  275MOL0     N37041   7.567   2.470   3.013 -0.0395 -0.1948  0.1108
  275MOL0     C37042   6.637   2.578   3.286  0.1063  0.1546 -0.3706
  275MOL0     C37043   6.511   2.557   3.228  0.9389 -0.1063  0.5840
  275MOL0     C37044   6.068   2.618   3.222 -0.2536 -0.2566 -0.2866
  275MOL0     C37045   6.051   2.570   3.096  0.7408 -0.2439  0.2108
  275MOL0     C37046   5.928   2.575   3.025  0.5435  0.2624 -0.0792
  275MOL0     C37047   5.817   2.639   3.087 -0.3966  0.3801 -0.0306
  275MOL0     O37048   5.695   2.646   3.020 -0.1302  0.1932 -0.3719
  275MOL0     C37049   5.569   2.621   3.092 -0.3470 -0.4557 -0.0496
  275MOL0     C37050   5.561   2.469   3.134 -0.4596  0.4811  0.4451
  275MOL0     C37051   5.540   2.371   3.019  0.6358 -0.1900  0.0115
  275MOL0     C37052   5.411   2.393   2.946  1.5714  0.6516  0.5701
  275MOL0     C37053   5.376   2.275   2.873 -1.1696  1.1028  0.0534
  275MOL0     C37054   5.355   2.170   2.805 -0.8013  0.0437 -0.3559
  275MOL0     C37055   5.836   2.708   3.211  0.4097  0.9268 -0.0775
  275MOL0     C37056   5.957   2.683   3.283  0.8138  0.1230 -0.7221
  275MOL0     C37057   5.974   2.733   3.427  0.5346 -0.1848 -0.5359
  275MOL0     H37058   6.368   2.388   3.486  0.9339  0.5615  3.0948
  275MOL0     H37059   6.575   2.409   3.583 -0.2337 -0.1005 -0.0011
  275MOL0     H37060   6.904   2.536   3.647 -1.1182  0.6653  0.6602
  275MOL0     H37061   6.750   2.479   3.663  2.1217  1.5084  1.7777
  275MOL0     H37062   6.805   2.284   3.505 -1.2313 -0.4561  2.4913
  275MOL0     H37063   6.932   2.291   3.618 -3.0597 -1.4088  1.7570
  275MOL0     H37064   6.954   2.438   3.342  0.9424 -1.2380 -1.4070
  275MOL0     H37065   7.009   2.275   3.378 -1.5292 -0.1001  0.1295
  275MOL0     H37066   7.105   2.504   3.558  3.3533  0.8211 -0.4526
  275MOL0     H37067   7.160   2.349   3.554  1.1938  1.1633  0.9591
  275MOL0     H37068   7.224   2.580   3.348 -3.6899 -0.4609 -1.9877
  275MOL0     H37069   7.325   2.462   3.444  0.0616 -1.5933 -0.7266
  275MOL0     H37070   7.229   2.286   3.294 -1.2607  0.2489  2.0483
  275MOL0     H37071   7.148   2.416   3.197  0.8335  2.5077  1.0009
  275MOL0     H37072   7.448   2.381   3.256 -2.5181  2.2900  3.4777
  275MOL0     H37073   7.386   2.515   3.165 -0.4472  0.2715  1.5578
  275MOL0     H37074   7.364   2.226   3.082 -1.7579 -0.3790 -0.6619
  275MOL0     H37075   7.279   2.362   2.996 -0.5527  1.1028  0.9563
  275MOL0     H37076   7.523   2.199   2.847  0.8185 -0.9808  0.7265
  275MOL0     H37077   7.782   2.231   2.733  0.5967  1.5781  1.3603
  275MOL0     H37078   7.697   2.350   2.636 -1.0490  1.3375 -0.5149
  275MOL0     H37079   7.866   2.526   2.706 -0.4392  0.1907 -1.1045
  275MOL0     H37080   7.948   2.413   2.812 -0.7934  1.2773  0.1051
  275MOL0     H37081   7.922   2.374   2.500  2.2031 -2.9949 -1.2703
  275MOL0     H37082   8.004   2.269   2.618 -1.8983 -0.8385  2.6743
  275MOL0     H37083   8.166   2.459   2.663  0.1215  3.1134  0.4248
  275MOL0     H37084   8.074   2.564   2.572  0.8652 -0.0675 -1.3241
  275MOL0     H37085   8.319   2.595   2.603  1.6458 -0.9812  1.8003
  275MOL0     H37086   8.542   2.647   2.570 -1.2570 -0.7267  1.1046
  275MOL0     H37087   8.873   2.588   2.011 -0.5786  2.4792  0.9062
  275MOL0     H37088   9.104   2.593   1.942 -0.8780 -1.4965 -1.2163
  275MOL0     H37089   9.287   2.519   1.926  0.1279  0.9899 -0.1391
  275MOL0     H37090   9.370   2.668   1.953  1.5930  0.2544 -0.0222
  275MOL0     H37091   9.491   2.396   1.974 -0.2512  0.4198  0.5264
  275MOL0     H37092   9.539   2.530   1.858 -1.8757 -0.1734 -1.1017
  275MOL0     H37093   9.608   2.545   2.152  1.3588  0.7733  0.8819
  275MOL0     H37094   9.723   2.514   2.028 -0.3895  0.5635  0.2943
  275MOL0     H37095   9.561   2.753   2.060  0.1984  0.3561  0.2922
  275MOL0     H37096   9.663   2.729   1.907 -1.2179 -1.0567 -1.1497
  275MOL0     H37097   9.864   2.726   2.020 -0.7868 -0.1381 -1.9948
  275MOL0     H37098   9.789   2.711   2.180  1.8759 -2.3094 -0.8602
  275MOL0     H37099   9.797   2.962   1.996  3.7802  0.1705 -0.8264
  275MOL0     H37100   9.724   2.957   2.150  1.1258  1.5941  0.4484
  275MOL0     H37101   9.964   2.851   2.223 -0.0219 -2.0210 -1.6580
  275MOL0     H37102   9.946   3.033   2.196 -1.9379 -0.5280  1.3623
  275MOL0     H37103  10.044   2.834   1.984 -1.4421  2.8593 -3.8279
  275MOL0     H37104  10.021   3.009   1.975  0.6306  1.5899  0.2588
  275MOL0     H37105   9.213   2.533   2.357 -0.6956  0.8096 -0.5290
  275MOL0     H37106   8.986   2.506   2.420 -0.6947 -1.4338  0.0458
  275MOL0     H37107   8.566   2.404   2.214  2.5729 -0.4199  1.9839
  275MOL0     H37108   8.309   2.348   2.246 -1.6919  0.1783  2.2337
  275MOL0     H37109   6.721   2.629   3.240  0.9814  0.6549  1.6337
  275MOL0     H37110   6.510   2.604   3.131  4.2766 -0.5421  0.2279
  275MOL0     H37111   6.135   2.521   3.048 -0.9009 -1.8078 -1.1914
  275MOL0     H37112   5.927   2.551   2.919 -0.7153 -0.1285  0.0019
  275MOL0     H37113   5.482   2.657   3.037  1.4361  2.3606 -1.3222
  275MOL0     H37114   5.555   2.677   3.185 -0.1065 -0.9788  0.3078
  275MOL0     H37115   5.484   2.461   3.211 -2.8690  3.0776 -1.4997
  275MOL0     H37116   5.655   2.440   3.182 -1.0204 -0.0202  1.2561
  275MOL0     H37117   5.538   2.272   3.067  2.5105  0.6968  2.0714
  275MOL0     H37118   5.627   2.362   2.954  0.3704 -0.6291 -0.2972
  275MOL0     H37119   5.328   2.403   3.016 -0.5102 -4.7155 -0.6292
  275MOL0     H37120   5.435   2.476   2.878 -0.6275  0.2317 -0.8045
  275MOL0     H37121   5.327   2.084   2.748  1.6507 -0.6229 -0.6513
  275MOL0     H37122   5.754   2.757   3.261 -0.9483 -1.2806  0.0182
  275MOL0     H37123   6.014   2.653   3.490 -0.8260  0.0063  0.6065
  275MOL0     H37124   6.032   2.826   3.427 -1.4228  1.1048 -1.7924
  275MOL0     H37125   5.881   2.762   3.477  2.4019  0.7656  2.6948
  276MOL0     O37126   3.843   9.153   3.318  0.2315  0.0573  0.8308
  276MOL0     C37127   3.859   9.159   3.192 -0.0983  0.3254 -0.3518
  276MOL0     O37128   3.985   9.162   3.130  0.8788  0.3240 -0.0913
  276MOL0     C37129   4.091   9.218   3.193 -1.1009 -0.6284 -0.8197
  276MOL0     C37130   4.153   9.169   3.309 -0.0246  0.6876  0.1909
  276MOL0     C37131   4.267   9.221   3.366 -0.6545 -0.6168 -0.4956
  276MOL0     C37132   4.328   9.342   3.317 -0.0620  0.3092  0.8163
  276MOL0     O37133   4.438   9.382   3.383  0.2866  0.2040  0.1445
  276MOL0     C37134   4.496   9.519   3.363 -0.2703  0.2675  0.6922
  276MOL0     C37135   4.624   9.546   3.454  0.4675  0.0232 -0.8542
  276MOL0     C37136   4.732   9.452   3.420  0.1964 -1.1559 -0.0035
  276MOL0     C37137   4.835   9.460   3.533  0.1047 -0.4058 -0.3543
  276MOL0     C37138   4.954   9.381   3.491  0.1596  0.4301  0.0243
  276MOL0     C37139   5.041   9.431   3.373  0.4707  0.0167 -0.1280
  276MOL0     C37140   5.173   9.358   3.370  0.0611 -0.6702 -0.5685
  276MOL0     C37141   5.264   9.391   3.252 -0.2386  0.2127 -0.2297
  276MOL0     N37142   5.394   9.339   3.279 -0.3000  0.3697  0.4441
  276MOL0     C37143   5.480   9.365   3.385 -0.5364  0.3934 -0.1700
  276MOL0     C37144   5.592   9.297   3.355  0.2071  1.0410 -0.1617
  276MOL0     C37145   5.710   9.327   3.445  0.0202  0.5090  0.0084
  276MOL0     C37146   5.850   9.307   3.380  0.6698 -0.5987 -1.2128
  276MOL0     C37147   5.896   9.417   3.284  0.0624  0.9326 -0.4126
  276MOL0     C37148   6.029   9.376   3.226 -0.5072  0.2772  0.0755
  276MOL0     O37149   6.146   9.392   3.315  0.3516 -0.8318  0.1298
  276MOL0     C37150   6.270   9.369   3.260 -0.2419 -0.7756  0.8563
  276MOL0     C37151   6.367   9.400   3.359 -1.1010  0.4297  0.1764
  276MOL0     C37152   6.499   9.378   3.324 -0.1799 -0.2452 -0.0213
  276MOL0     C37153   6.540   9.320   3.203 -0.4358  0.6270  0.2530
  276MOL0     C37154   6.680   9.304   3.171  0.0197  0.5375 -0.3681
  276MOL0     O37155   6.709   9.221   3.060 -0.2988 -0.4533  0.7384
  276MOL0     C37156   6.840   9.190   3.041 -0.0022 -0.8702 -0.4272
  276MOL0     C37157   6.903   9.249   2.931  0.3084  0.6713 -0.6120
  276MOL0     C37158   7.041   9.227   2.908 -0.1270  0.1008  0.5084
  276MOL0     C37159   7.112   9.141   2.991  0.2843  0.2406 -0.0738
  276MOL0     O37160   7.245   9.129   3.001 -0.1295  0.5571 -1.2636
  276MOL0     C37161   7.330   9.176   2.891 -0.2903 -0.2961 -0.1785
  276MOL0     C37162   7.469   9.124   2.936 -0.2447 -0.6622  0.2192
  276MOL0     C37163   7.585   9.142   2.848  0.4622 -0.7006  0.3427
  276MOL0     C37164   7.587   9.024   2.744  0.6149 -0.5334 -0.3659
  276MOL0     C37165   7.711   9.040   2.660  0.1943 -0.2324  0.6967
  276MOL0     C37166   7.830   8.978   2.731  0.9720 -0.6604 -0.3518
  276MOL0     C37167   7.950   9.005   2.644  0.0841 -0.0279 -0.8669
  276MOL0     C37168   8.069   8.968   2.728  0.0166  0.4861 -0.3103
  276MOL0    Cl37169   8.232   8.996   2.642 -0.1252  0.0567 -0.6501
  276MOL0     C37170   7.036   9.066   3.085 -0.2476 -0.3692  0.3153
  276MOL0     C37171   6.901   9.094   3.116 -0.9830 -0.0074  0.8660
  276MOL0     O37172   6.762   9.359   3.243  0.1077  0.2196 -0.7182
  276MOL0     C37173   6.451   9.284   3.108 -0.1724  0.2988 -0.1513
  276MOL0     C37174   6.313   9.318   3.130  0.0558  0.5211  0.1046
  276MOL0     N37175   5.573   9.229   3.245 -0.4942 -0.0353  0.9792
  276MOL0     N37176   5.466   9.258   3.193  0.1354 -0.0863  0.1598
  276MOL0     C37177   4.255   9.400   3.206 -0.7863  0.7987  0.7376
  276MOL0     C37178   4.148   9.335   3.147  0.3881  0.5800 -0.3637
  276MOL0     C37179   3.744   9.147   3.102 -0.1817  0.2497 -0.3366
  276MOL0     C37180   3.767   9.084   2.980  0.2120 -0.2562  0.8192
  276MOL0     C37181   3.669   9.067   2.886  0.1752 -0.5577  0.1917
  276MOL0     C37182   3.536   9.105   2.911  0.5624 -0.9202  0.2389
  276MOL0     O37183   3.447   9.084   2.808 -0.4348  0.1407  0.5569
  276MOL0     C37184   3.331   9.166   2.803 -0.0135 -0.2839  0.5319
  276MOL0     C37185   3.215   9.102   2.884  0.5295 -0.2508  0.2599
  276MOL0     C37186   3.130   9.212   2.957  0.1763  0.5662 -0.3760
  276MOL0     C37187   3.063   9.308   2.856  0.6660 -0.0926 -0.6416
  276MOL0     C37188   2.975   9.397   2.931  0.1108  0.3255 -0.6063
  276MOL0     C37189   2.906   9.454   3.009 -0.7936 -0.2885  0.4202
  276MOL0     C37190   3.506   9.168   3.035  0.9930 -0.3566  0.0781
  276MOL0     C37191   3.613   9.179   3.128 -0.3394 -0.3138 -0.2627
  276MOL0     C37192   3.573   9.237   3.267  0.6751 -0.3272  0.0266
  276MOL0     H37193   4.109   9.080   3.353  0.4403  0.1851 -0.3357
  276MOL0     H37194   4.306   9.165   3.450  1.3420 -3.0356 -2.8380
  276MOL0     H37195   4.512   9.547   3.258 -0.6059 -0.2266  0.5064
  276MOL0     H37196   4.421   9.594   3.391 -0.1618  0.9538 -0.7738
  276MOL0     H37197   4.590   9.533   3.557  1.2006 -1.2210 -0.7471
  276MOL0     H37198   4.656   9.650   3.454 -0.5401  0.3568  0.3903
  276MOL0     H37199   4.766   9.479   3.320 -1.7302  0.3281 -0.3157
  276MOL0     H37200   4.692   9.351   3.413  1.1240 -2.3963  6.5801
  276MOL0     H37201   4.849   9.566   3.556  3.0452 -0.9883  0.9913
  276MOL0     H37202   4.795   9.421   3.626  0.6098  1.0797  0.5338
  276MOL0     H37203   5.014   9.370   3.582 -1.2549  1.2065  1.1184
  276MOL0     H37204   4.920   9.280   3.468  2.6312 -0.2216 -1.0357
  276MOL0     H37205   4.991   9.436   3.276 -0.2636 -3.9038 -0.1332
  276MOL0     H37206   5.074   9.533   3.392 -3.6338  1.1679  2.2143
  276MOL0     H37207   5.153   9.251   3.360  1.0316 -0.6836 -3.0343
  276MOL0     H37208   5.227   9.373   3.464  0.7343 -0.5243 -0.9712
  276MOL0     H37209   5.219   9.360   3.158  0.8277 -2.3384  0.0174
  276MOL0     H37210   5.259   9.499   3.242 -4.2970 -0.0125 -2.5828
  276MOL0     H37211   5.460   9.423   3.474  1.2080 -1.1720  1.3340
  276MOL0     H37212   5.705   9.433   3.473  3.5455  0.9294 -0.4214
  276MOL0     H37213   5.708   9.273   3.541 -0.0052  1.6606  0.6792
  276MOL0     H37214   5.919   9.298   3.464  1.4778  2.1603 -1.4942
  276MOL0     H37215   5.835   9.210   3.331  2.0079 -2.4866  1.8109
  276MOL0     H37216   5.908   9.512   3.337 -0.7768 -1.1838  3.9689
  276MOL0     H37217   5.822   9.440   3.207  0.0131 -1.3308 -1.0979
  276MOL0     H37218   6.037   9.434   3.133  1.6201 -0.4206 -0.2290
  276MOL0     H37219   6.023   9.271   3.196 -2.9356  0.0695  1.0718
  276MOL0     H37220   6.326   9.440   3.452 -1.9969 -1.6856  0.7363
  276MOL0     H37221   6.580   9.414   3.387  1.2701  1.8187 -2.8032
  276MOL0     H37222   6.849   9.312   2.860 -0.3683 -1.2035 -1.8366
  276MOL0     H37223   7.096   9.276   2.828 -2.9412  1.0157 -0.9891
  276MOL0     H37224   7.303   9.131   2.795  1.3846 -0.1225 -0.7671
  276MOL0     H37225   7.328   9.285   2.891 -2.4823 -0.3099 -0.2410
  276MOL0     H37226   7.492   9.166   3.034 -0.8572 -0.9442  0.4936
  276MOL0     H37227   7.451   9.017   2.949  0.1985 -0.6499  1.0005
  276MOL0     H37228   7.559   9.232   2.792 -0.1434  0.2297  2.0431
  276MOL0     H37229   7.678   9.151   2.906 -0.2653  3.6330  1.1325
  276MOL0     H37230   7.510   9.039   2.668  2.8110  0.7307 -2.5200
  276MOL0     H37231   7.583   8.924   2.787 -1.4986  0.3938  1.8047
  276MOL0     H37232   7.736   9.144   2.635  2.1006 -0.4868  1.3468
  276MOL0     H37233   7.690   8.982   2.570 -2.5552  1.3696  0.1907
  276MOL0     H37234   7.845   9.023   2.829 -0.8899  1.5472 -0.9773
  276MOL0     H37235   7.815   8.871   2.747  1.9603 -1.0215 -1.7394
  276MOL0     H37236   7.972   9.109   2.615  2.4497 -0.1151  0.4239
  276MOL0     H37237   7.940   8.957   2.546 -0.8936  3.2978 -2.5537
  276MOL0     H37238   8.067   9.026   2.821 -2.3091 -3.2398  2.2189
  276MOL0     H37239   8.055   8.867   2.767  0.5346  0.0717 -1.1807
  276MOL0     H37240   7.088   8.999   3.153  2.2555  1.0778 -0.0629
  276MOL0     H37241   6.844   9.052   3.198 -2.0488  2.9869  1.7827
  276MOL0     H37242   6.469   9.254   3.006 -0.6468 -1.0093  0.1265
  276MOL0     H37243   6.255   9.313   3.038  0.1989 -0.2524  0.0527
  276MOL0     H37244   4.279   9.501   3.175  1.4318  0.2007  0.3592
  276MOL0     H37245   4.083   9.395   3.085  0.3237  0.6523 -0.2253
  276MOL0     H37246   3.866   9.058   2.945 -0.4285 -2.7457  0.7212
  276MOL0     H37247   3.687   9.028   2.787 -1.9630  2.0595 -1.3609
  276MOL0     H37248   3.301   9.173   2.697  0.1517  0.4946  0.5268
  276MOL0     H37249   3.348   9.268   2.839  0.7120 -0.7208  1.4719
  276MOL0     H37250   3.245   9.040   2.969 -0.9128  0.1210  1.0711
  276MOL0     H37251   3.145   9.044   2.823  1.6458 -1.6581  0.2667
  276MOL0     H37252   3.186   9.275   3.027 -0.8036  1.9336 -0.7936
  276MOL0     H37253   3.051   9.152   3.003  1.6276  0.1228  1.6832
  276MOL0     H37254   3.134   9.372   2.802 -1.1055  2.6543  0.0534
  276MOL0     H37255   2.997   9.255   2.787  1.2269  0.5559 -1.7292
  276MOL0     H37256   2.839   9.522   3.058 -1.0255 -0.9640  1.0590
  276MOL0     H37257   3.400   9.177   3.056  0.9836  0.4030 -0.2749
  276MOL0     H37258   3.641   9.315   3.301 -2.5688  2.3621  0.9199
  276MOL0     H37259   3.469   9.270   3.266  0.3526 -1.2855  0.1919
  276MOL0     H37260   3.567   9.158   3.342 -1.0993  0.0543  0.3373
  277MOL0     O37261   3.134   5.240   5.353 -0.5206 -0.5211  0.5113
  277MOL0     C37262   3.027   5.210   5.301 -0.0528  0.3394  0.4330
  277MOL0     O37263   2.933   5.126   5.358 -0.8807 -0.5950  0.1474
  277MOL0     C37264   2.950   5.101   5.494  0.4409 -0.2086 -0.1816
  277MOL0     C37265   2.986   4.978   5.534  0.1159 -0.4302  0.1633
  277MOL0     C37266   3.000   4.946   5.672 -0.6346 -0.0074 -0.3653
  277MOL0     C37267   2.970   5.046   5.771 -0.2847  0.9478 -0.0452
  277MOL0     O37268   2.984   5.010   5.902 -0.4233 -0.4282  0.0498
  277MOL0     C37269   3.009   5.120   6.001 -0.2981  0.5455  0.7785
  277MOL0     C37270   3.135   5.203   5.971 -0.2552  1.1334 -0.1633
  277MOL0     C37271   3.263   5.119   6.001 -0.0828 -0.1573  0.6482
  277MOL0     C37272   3.281   5.090   6.153 -0.8011 -0.1595 -0.3851
  277MOL0     C37273   3.423   5.050   6.185 -0.1755 -0.1813  0.0096
  277MOL0     C37274   3.468   4.913   6.127  0.1128 -0.2908  0.3039
  277MOL0     C37275   3.597   4.851   6.182  0.1096 -0.3468 -0.0357
  277MOL0     C37276   3.709   4.871   6.084 -0.4387  0.2036 -1.5477
  277MOL0     N37277   3.842   4.858   6.149 -0.0777  0.8122 -0.2017
  277MOL0     C37278   3.917   4.743   6.142 -0.3795  1.0676 -0.2150
  277MOL0     C37279   4.013   4.766   6.231  0.2851  0.0804 -0.7253
  277MOL0     C37280   4.134   4.683   6.246  0.0129  0.3495 -0.2531
  277MOL0     C37281   4.259   4.758   6.301 -0.3892 -0.1730  0.0544
  277MOL0     C37282   4.376   4.659   6.322 -0.1776  0.2715  0.4030
  277MOL0     C37283   4.512   4.726   6.332  0.2252 -0.5351  0.9066
  277MOL0     O37284   4.585   4.670   6.445  0.1954  0.1546  0.0338
  277MOL0     C37285   4.722   4.666   6.434  1.2073 -0.3171  0.8415
  277MOL0     C37286   4.794   4.591   6.531 -0.5706  0.3438 -0.4475
  277MOL0     C37287   4.933   4.578   6.519  0.0899 -0.3962  0.4737
  277MOL0     C37288   5.005   4.648   6.423  0.0895  0.0108 -0.5155
  277MOL0     C37289   5.144   4.637   6.425  0.7299 -0.0504 -0.3571
  277MOL0     O37290   5.209   4.701   6.320 -0.0022  0.2448 -0.1950
  277MOL0     C37291   5.344   4.693   6.315 -0.1059 -0.0749  0.4059
  277MOL0     C37292   5.404   4.568   6.325  0.4603 -0.0314  0.9638
  277MOL0     C37293   5.540   4.560   6.331  0.4277 -0.0577 -0.1073
  277MOL0     C37294   5.621   4.677   6.330  0.1030  0.5852  0.3870
  277MOL0     O37295   5.759   4.676   6.323  0.2828 -0.4690 -0.1716
  277MOL0     C37296   5.828   4.553   6.303  0.2824  0.9637 -0.4876
  277MOL0     C37297   5.977   4.576   6.283 -0.9078  0.2852  0.0087
  277MOL0     C37298   6.036   4.447   6.228  0.0850  0.4385 -0.4070
  277MOL0     C37299   6.194   4.464   6.213  0.9020  0.9504  0.4118
  277MOL0     C37300   6.244   4.357   6.114 -0.5740  0.1917  0.4771
  277MOL0     C37301   6.394   4.329   6.137 -0.6850 -0.3954 -0.0672
  277MOL0     C37302   6.473   4.447   6.086  0.1168  0.3640  0.7885
  277MOL0     C37303   6.630   4.438   6.100  0.1364  0.1341  0.3785
  277MOL0    Cl37304   6.674   4.431   6.276  0.3627 -0.0485 -0.0603
  277MOL0     C37305   5.552   4.795   6.316  0.2708 -0.9188 -0.6126
  277MOL0     C37306   5.418   4.813   6.320  0.3354 -0.0511  0.7006
  277MOL0     O37307   5.195   4.590   6.532  0.6432  0.6694 -0.2243
  277MOL0     C37308   4.933   4.725   6.334 -0.0664 -0.3448  0.1446
  277MOL0     C37309   4.795   4.740   6.338  0.6039 -0.0328 -0.2525
  277MOL0     N37310   3.994   4.881   6.306  0.8061 -0.3332 -0.0544
  277MOL0     N37311   3.896   4.939   6.241 -0.4448  0.5025  0.3587
  277MOL0     C37312   2.927   5.176   5.722  1.4103  0.3499 -0.5553
  277MOL0     C37313   2.917   5.204   5.585 -0.5308  1.0000  0.5191
  277MOL0     C37314   2.998   5.266   5.160  1.0767  0.7020 -0.3505
  277MOL0     C37315   2.903   5.187   5.087  0.9576 -0.5843 -0.3396
  277MOL0     C37316   2.860   5.218   4.961 -0.2357 -0.7502  0.0065
  277MOL0     C37317   2.909   5.329   4.903  0.4210  0.0597  0.5057
  277MOL0     O37318   2.856   5.357   4.782  0.8470  0.0976  0.3902
  277MOL0     C37319   2.849   5.487   4.729  0.2059 -0.3069 -0.3521
  277MOL0     C37320   2.743   5.565   4.802 -0.6264 -0.9156 -0.3058
  277MOL0     C37321   2.600   5.515   4.770 -0.4581  0.1783  0.1405
  277MOL0     C37322   2.502   5.576   4.867  0.2570 -0.0805 -0.1480
  277MOL0     C37323   2.410   5.682   4.807 -0.6223 -0.5816  0.2866
  277MOL0     C37324   2.345   5.769   4.755 -0.2249  0.1419  0.1354
  277MOL0     C37325   3.002   5.404   4.966 -0.3014 -0.3806 -0.3109
  277MOL0     C37326   3.049   5.377   5.092 -0.3584 -0.2269  0.0399
  277MOL0     C37327   3.132   5.473   5.174  0.1575  0.5286  0.1268
  277MOL0     H37328   3.023   4.904   5.464  1.8343 -1.8739  2.4344
  277MOL0     H37329   3.046   4.850   5.695  0.9196  0.9128  0.5090
  277MOL0     H37330   2.920   5.183   6.004 -0.2694  0.5896  0.7080
  277MOL0     H37331   3.030   5.092   6.104  0.1496 -2.6594 -0.0828
  277MOL0     H37332   3.131   5.291   6.036 -2.3774  1.9535 -1.3258
  277MOL0     H37333   3.132   5.231   5.866 -3.5574 -0.2502 -0.5534
  277MOL0     H37334   3.354   5.169   5.965  0.8598 -1.2579  1.3994
  277MOL0     H37335   3.252   5.034   5.933 -1.3582  0.8968 -0.5137
  277MOL0     H37336   3.255   5.176   6.215 -0.1064 -0.2020 -0.0206
  277MOL0     H37337   3.223   5.001   6.181  2.0700 -2.3287 -0.8520
  277MOL0     H37338   3.491   5.131   6.157 -0.0275 -0.6431 -0.9964
  277MOL0     H37339   3.424   5.050   6.294 -2.8495  2.0688  0.1369
  277MOL0     H37340   3.383   4.850   6.155 -1.1537  1.1165 -0.2351
  277MOL0     H37341   3.482   4.916   6.018  0.9919 -1.9915  0.3431
  277MOL0     H37342   3.579   4.744   6.190 -1.3887 -0.0843  0.3114
  277MOL0     H37343   3.628   4.901   6.275  2.5596 -3.7172  1.1746
  277MOL0     H37344   3.701   4.794   6.007  0.4870 -2.9640  1.3039
  277MOL0     H37345   3.706   4.973   6.044  2.8279  0.5294 -1.1889
  277MOL0     H37346   3.921   4.670   6.062  0.2862  1.4430 -0.5265
  277MOL0     H37347   4.122   4.600   6.316  1.7431  2.0078  2.2055
  277MOL0     H37348   4.156   4.643   6.147  0.2291 -0.5721  0.1557
  277MOL0     H37349   4.295   4.839   6.237  0.2292  1.1578  1.9950
  277MOL0     H37350   4.240   4.804   6.398 -0.8522  0.3304 -0.2703
  277MOL0     H37351   4.381   4.575   6.251  1.1623  0.0225  0.7632
  277MOL0     H37352   4.369   4.616   6.422 -0.7776  1.2900  0.8149
  277MOL0     H37353   4.501   4.834   6.343 -1.7109 -0.7158  1.0499
  277MOL0     H37354   4.555   4.718   6.232 -4.9265 -0.6295 -1.6167
  277MOL0     H37355   4.744   4.533   6.609 -0.8769 -2.4980 -2.5917
  277MOL0     H37356   4.978   4.507   6.588 -0.0690  0.5726  1.6169
  277MOL0     H37357   5.349   4.482   6.361 -1.3702  0.8888  0.4671
  277MOL0     H37358   5.588   4.462   6.337  1.3525  0.2870 -1.5099
  277MOL0     H37359   5.822   4.496   6.396 -0.8935 -0.0862 -1.1922
  277MOL0     H37360   5.781   4.499   6.221 -0.4317  1.0578 -0.1445
  277MOL0     H37361   5.992   4.648   6.202  3.6826 -0.6237 -0.2235
  277MOL0     H37362   6.031   4.604   6.375  0.2681  1.8926 -1.1196
  277MOL0     H37363   6.016   4.369   6.302  0.2382  1.4796  0.7733
  277MOL0     H37364   5.987   4.410   6.138 -0.3710 -1.3106  0.5237
  277MOL0     H37365   6.247   4.447   6.308  2.4853  2.2983 -0.1811
  277MOL0     H37366   6.221   4.563   6.176 -1.0064  1.1688 -0.5139
  277MOL0     H37367   6.225   4.388   6.011 -0.0663 -1.3418 -0.1154
  277MOL0     H37368   6.191   4.262   6.122  0.9308 -0.6072  1.4312
  277MOL0     H37369   6.421   4.317   6.243  3.4060 -2.9331 -1.1610
  277MOL0     H37370   6.420   4.237   6.085 -0.1211 -0.5230  0.4270
  277MOL0     H37371   6.437   4.529   6.147 -2.3710 -0.1653  0.1205
  277MOL0     H37372   6.453   4.452   5.979  1.6093  0.0744  0.4604
  277MOL0     H37373   6.677   4.361   6.039  0.3288 -0.0553  0.7598
  277MOL0     H37374   6.678   4.524   6.052  0.6489 -0.3804 -0.0402
  277MOL0     H37375   5.617   4.882   6.311 -2.7237  1.5051 -0.8116
  277MOL0     H37376   5.377   4.913   6.306 -0.2416 -0.2114  1.2189
  277MOL0     H37377   4.987   4.779   6.257 -0.7163 -0.1907 -0.2102
  277MOL0     H37378   4.748   4.806   6.265  1.3475 -1.3842 -2.0213
  277MOL0     H37379   2.890   5.249   5.793 -2.8348  0.6656 -2.7838
  277MOL0     H37380   2.886   5.304   5.555 -0.5924  1.0445  0.7253
  277MOL0     H37381   2.855   5.095   5.117  0.4252 -1.5253 -3.6611
  277MOL0     H37382   2.797   5.152   4.902  2.1816 -0.3947 -3.3255
  277MOL0     H37383   2.835   5.478   4.621  2.9366 -1.7979 -0.6512
  277MOL0     H37384   2.948   5.532   4.737  0.5296 -0.9836 -0.5389
  277MOL0     H37385   2.751   5.671   4.774 -2.1923  0.0765  2.5363
  277MOL0     H37386   2.772   5.555   4.906  1.2376 -2.8545 -0.9453
  277MOL0     H37387   2.601   5.406   4.779  0.1598  0.0768 -0.9922
  277MOL0     H37388   2.575   5.558   4.673 -0.0370  0.9231  0.3581
  277MOL0     H37389   2.436   5.497   4.902  2.9149 -3.0231 -1.2363
  277MOL0     H37390   2.553   5.612   4.957  1.7853 -1.0613 -0.5740
  277MOL0     H37391   2.298   5.852   4.707  0.0986  0.6267  0.6411
  277MOL0     H37392   3.043   5.489   4.912  2.5018 -2.7657 -2.3079
  277MOL0     H37393   3.225   5.427   5.209  0.1710  2.6196  3.2326
  277MOL0     H37394   3.170   5.555   5.112 -0.0273  0.7115  0.2529
  277MOL0     H37395   3.073   5.521   5.253  0.7417  0.6899  0.4758
  278MOL0     O37396   7.711   2.439   0.354 -0.5391 -0.2420  0.6887
  278MOL0     C37397   7.639   2.527   0.401 -0.7932  0.5249  0.5326
  278MOL0     O37398   7.678   2.655   0.409  1.0326 -0.3999 -0.0118
  278MOL0     C37399   7.796   2.702   0.348  0.7334  0.1953  0.4265
  278MOL0     C37400   7.909   2.703   0.430 -0.0700  0.2645  0.0002
  278MOL0     C37401   8.027   2.765   0.382  0.7889 -0.1182 -0.1420
  278MOL0     C37402   8.038   2.814   0.251  0.5810  0.1907  1.1978
  278MOL0     O37403   8.154   2.884   0.220  0.2363  0.4509 -0.6626
  278MOL0     C37404   8.133   3.015   0.161  0.0869 -0.2587 -1.7088
  278MOL0     C37405   8.208   3.017   0.025 -0.1318  1.0595  0.2802
  278MOL0     C37406   8.176   2.904  -0.075  0.0837  0.8265  0.7305
  278MOL0     C37407   8.271   2.881  -0.194  0.3387 -0.9117 -0.5137
  278MOL0     C37408   8.398   2.807  -0.156  0.4532 -0.5184 -0.3370
  278MOL0     C37409   8.403   2.657  -0.150  0.8767  0.3454 -0.0093
  278MOL0     C37410   8.534   2.602  -0.104 -0.6982  0.5547 -0.9748
  278MOL0     C37411   8.528   2.448  -0.111 -0.4856  0.0418  0.3349
  278MOL0     N37412   8.643   2.388  -0.038  0.0703  0.0597 -0.4615
  278MOL0     C37413   8.776   2.370  -0.088  0.2030 -1.2876 -0.4858
  278MOL0     C37414   8.842   2.326   0.023 -0.7852  0.7728  0.1175
  278MOL0     C37415   8.984   2.275   0.036 -0.5108  0.1851  0.0761
  278MOL0     C37416   9.072   2.324  -0.076  0.4900 -0.2365 -0.5164
  278MOL0     C37417   9.125   2.461  -0.039  0.9076  0.1411  0.3612
  278MOL0     C37418   9.248   2.442   0.050  0.4518  0.0728  0.7076
  278MOL0     O37419   9.353   2.413  -0.044 -0.3928  0.8417 -0.2206
  278MOL0     C37420   9.483   2.388   0.004 -0.5146 -0.2647  0.6707
  278MOL0     C37421   9.531   2.384   0.139  0.0303  0.3719 -0.3765
  278MOL0     C37422   9.662   2.360   0.181 -0.0350  0.2406  0.8057
  278MOL0     C37423   9.755   2.351   0.071 -0.0336 -1.5997 -0.5412
  278MOL0     C37424   9.897   2.324   0.102  0.1193  0.0889  0.5097
  278MOL0     O37425   9.966   2.262   0.004  0.4150 -0.2642  0.2250
  278MOL0     C37426  10.093   2.300  -0.038  0.6677  0.1046 -0.0610
  278MOL0     C37427  10.123   2.435  -0.058 -0.2803  0.9183 -0.1533
  278MOL0     C37428  10.257   2.464  -0.093  1.2949 -0.8384  0.0383
  278MOL0     C37429  10.360   2.366  -0.105  0.6682 -0.3128 -0.1482
  278MOL0     O37430  10.491   2.399  -0.123  0.4562  0.0034  0.4253
  278MOL0     C37431  10.535   2.519  -0.191  0.1372  0.4540  0.0349
  278MOL0     C37432  10.689   2.534  -0.194  0.6153  0.3706 -0.3989
  278MOL0     C37433  10.757   2.522  -0.048 -0.4032  0.3235 -0.1275
  278MOL0     C37434  10.733   2.639   0.051 -0.1820 -1.2321  0.7692
  278MOL0     C37435  10.802   2.609   0.182  0.2318  0.6187  0.0281
  278MOL0     C37436  10.959   2.594   0.172  0.6703  0.0927  0.1969
  278MOL0     C37437  11.028   2.726   0.152 -0.1803 -0.6240 -0.0755
  278MOL0     C37438  11.178   2.716   0.116  0.0707 -0.9376 -0.2653
  278MOL0    Cl37439  11.251   2.856   0.051 -0.2119 -0.4968  0.1134
  278MOL0     C37440  10.317   2.235  -0.084 -1.0717  0.4352  0.0537
  278MOL0     C37441  10.184   2.201  -0.065 -0.5952 -0.6227 -0.6809
  278MOL0     O37442   9.946   2.380   0.203  0.5950 -0.3173 -0.6879
  278MOL0     C37443   9.716   2.362  -0.063  0.0562  0.2339  0.7264
  278MOL0     C37444   9.582   2.369  -0.094 -0.4736  0.9131 -0.0262
  278MOL0     N37445   8.762   2.319   0.129  0.3575  0.1498  0.0894
  278MOL0     N37446   8.640   2.347   0.091  0.3276  0.1894  0.6329
  278MOL0     C37447   7.928   2.797   0.167  0.3540 -0.6481  0.3289
  278MOL0     C37448   7.802   2.754   0.217 -0.3223  0.2568  0.3785
  278MOL0     C37449   7.512   2.483   0.455  0.5035  0.1983 -0.2880
  278MOL0     C37450   7.464   2.542   0.571 -0.3472  0.3927  0.9052
  278MOL0     C37451   7.333   2.533   0.613 -0.3936  1.0348  0.9983
  278MOL0     C37452   7.247   2.448   0.548  0.5432 -0.3353  0.5103
  278MOL0     O37453   7.124   2.441   0.602  0.6285 -0.2277 -0.4480
  278MOL0     C37454   7.021   2.376   0.530  0.2107 -0.1381 -0.0674
  278MOL0     C37455   6.896   2.421   0.598  0.1658 -0.8375 -0.6740
  278MOL0     C37456   6.777   2.362   0.523  0.2571 -0.1459  0.0117
  278MOL0     C37457   6.650   2.367   0.612  0.0395  0.0993 -0.1850
  278MOL0     C37458   6.547   2.296   0.534 -0.1723 -0.3560  0.2658
  278MOL0     C37459   6.461   2.234   0.486 -0.8573 -1.2557  0.1526
  278MOL0     C37460   7.281   2.392   0.427 -0.8386  0.8099  0.3536
  278MOL0     C37461   7.421   2.398   0.387 -0.0760  0.7081  0.6031
  278MOL0     C37462   7.469   2.315   0.259 -0.4540  1.2748 -0.5378
  278MOL0     H37463   7.914   2.685   0.537 -1.4600  0.2357  0.0724
  278MOL0     H37464   8.121   2.766   0.436  1.5653 -1.3361 -1.4128
  278MOL0     H37465   8.032   3.052   0.140  0.0897  1.7392  1.1842
  278MOL0     H37466   8.172   3.091   0.229 -2.3678 -0.4131  0.0235
  278MOL0     H37467   8.315   3.026   0.046 -0.1437 -1.0795  1.5735
  278MOL0     H37468   8.191   3.111  -0.029 -2.3089  0.7330  0.2955
  278MOL0     H37469   8.077   2.917  -0.119  0.2280 -0.3436  0.0027
  278MOL0     H37470   8.171   2.809  -0.021  1.7857  0.0720 -0.3198
  278MOL0     H37471   8.215   2.827  -0.270  2.0836 -3.5464 -0.0521
  278MOL0     H37472   8.296   2.979  -0.236  1.6420 -1.1261 -0.3038
  278MOL0     H37473   8.468   2.838  -0.234 -0.1535  0.0233 -0.6824
  278MOL0     H37474   8.443   2.844  -0.064 -0.6490 -0.5747  0.2469
  278MOL0     H37475   8.321   2.616  -0.089  0.3819  0.4549 -0.5863
  278MOL0     H37476   8.386   2.624  -0.253  4.7057  0.1842 -0.7267
  278MOL0     H37477   8.547   2.628   0.002 -0.5079 -0.8193 -0.6465
  278MOL0     H37478   8.618   2.638  -0.164 -1.3837  0.0719 -2.2641
  278MOL0     H37479   8.434   2.413  -0.065 -1.3222  1.4482 -0.2474
  278MOL0     H37480   8.523   2.412  -0.214 -1.0486  1.2576 -0.0765
  278MOL0     H37481   8.812   2.369  -0.190  0.1024  0.5617 -0.5678
  278MOL0     H37482   9.018   2.295   0.138  0.7131  2.6079 -0.7127
  278MOL0     H37483   8.970   2.168   0.016  0.2802  0.4297 -2.0101
  278MOL0     H37484   9.158   2.258  -0.087  0.3159 -0.5448 -0.0721
  278MOL0     H37485   9.018   2.337  -0.171 -0.5152  2.4568  0.3439
  278MOL0     H37486   9.045   2.505   0.022 -1.0376 -2.1950 -0.3398
  278MOL0     H37487   9.147   2.510  -0.134  1.0853 -1.9371 -0.7304
  278MOL0     H37488   9.238   2.363   0.125  0.0483 -2.8056 -2.1429
  278MOL0     H37489   9.265   2.537   0.102  0.2775  0.3418  0.2767
  278MOL0     H37490   9.459   2.393   0.220  0.0415 -2.3058  0.0213
  278MOL0     H37491   9.699   2.339   0.281  2.3956 -0.5671 -0.1854
  278MOL0     H37492  10.057   2.521  -0.052 -1.6874 -0.0206 -1.5896
  278MOL0     H37493  10.268   2.571  -0.110  0.0031 -0.6173  0.4847
  278MOL0     H37494  10.497   2.507  -0.293  1.2316 -1.8302 -0.1842
  278MOL0     H37495  10.480   2.601  -0.145  1.1808  1.7426 -0.9460
  278MOL0     H37496  10.740   2.470  -0.266  0.4752 -2.1533  1.5803
  278MOL0     H37497  10.716   2.633  -0.231  2.1427  0.2416  0.2813
  278MOL0     H37498  10.724   2.432   0.005  2.0388 -0.0582  0.8734
  278MOL0     H37499  10.866   2.522  -0.058  0.2364  3.8886  3.6823
  278MOL0     H37500  10.628   2.669   0.057  0.1749  1.8216 -3.2894
  278MOL0     H37501  10.784   2.732   0.024 -1.1848 -1.2371 -1.3429
  278MOL0     H37502  10.762   2.519   0.230  1.9584 -0.3510 -0.3021
  278MOL0     H37503  10.771   2.689   0.251  0.0743  0.1253  0.5359
  278MOL0     H37504  10.986   2.556   0.271  0.7426  2.0366  0.9653
  278MOL0     H37505  10.996   2.516   0.105 -1.4542  0.0332 -0.9989
  278MOL0     H37506  11.021   2.785   0.244  3.1122 -4.3725  3.0099
  278MOL0     H37507  10.989   2.770   0.060  2.5532  0.8192 -0.6522
  278MOL0     H37508  11.234   2.676   0.202 -0.1058  0.1196  0.3622
  278MOL0     H37509  11.185   2.649   0.030  1.7778  0.6387 -1.4132
  278MOL0     H37510  10.394   2.158  -0.076 -2.3895 -0.8110  1.4433
  278MOL0     H37511  10.149   2.102  -0.035  3.1068 -1.6197  0.9374
  278MOL0     H37512   9.784   2.356  -0.148  0.4204 -0.6250  1.0673
  278MOL0     H37513   9.551   2.373  -0.198 -1.5266 -2.3287  0.0532
  278MOL0     H37514   7.934   2.851   0.073 -2.6035  4.4724  2.6579
  278MOL0     H37515   7.705   2.754   0.167  0.5941  1.5898 -1.5286
  278MOL0     H37516   7.533   2.610   0.621 -1.1902  1.9158  0.0704
  278MOL0     H37517   7.291   2.594   0.692 -1.3989  3.8559 -1.5034
  278MOL0     H37518   7.034   2.267   0.522  0.9543 -0.2140  1.7559
  278MOL0     H37519   7.023   2.423   0.431  2.9442  0.1158  0.0388
  278MOL0     H37520   6.904   2.530   0.606  1.7683 -0.9132 -0.8165
  278MOL0     H37521   6.892   2.379   0.699  1.8729 -4.8123 -2.0400
  278MOL0     H37522   6.797   2.256   0.504  0.0082 -0.3017  0.5734
  278MOL0     H37523   6.762   2.421   0.432 -2.2661 -0.5224  0.0952
  278MOL0     H37524   6.662   2.330   0.714 -2.6796  1.3637  0.7065
  278MOL0     H37525   6.612   2.469   0.629 -1.1400 -0.1669 -1.1229
  278MOL0     H37526   6.369   2.189   0.454 -0.7491 -2.2730  1.2119
  278MOL0     H37527   7.211   2.339   0.363 -1.3690  3.0484 -0.9932
  278MOL0     H37528   7.560   2.262   0.289 -1.3468 -1.4953 -2.3540
  278MOL0     H37529   7.397   2.236   0.237 -0.5049  1.0013  0.5735
  278MOL0     H37530   7.477   2.378   0.169  1.1516 -0.5627 -1.7704
  279MOL0     O37531   2.978   6.481   1.087 -0.2376 -0.0875 -0.4399
  279MOL0     C37532   2.976   6.360   1.115 -0.3395 -0.1295  0.1502
  279MOL0     O37533   3.087   6.277   1.134 -0.0103 -0.4917 -0.7050
  279MOL0     C37534   3.210   6.338   1.152  0.3911  0.8073  0.4728
  279MOL0     C37535   3.273   6.318   1.274  0.5207  0.0658 -0.8345
  279MOL0     C37536   3.398   6.379   1.301  0.5618  0.0029  0.1417
  279MOL0     C37537   3.456   6.464   1.201 -0.0644  0.2410 -0.0889
  279MOL0     O37538   3.577   6.517   1.234  0.1641  0.1372 -0.1369
  279MOL0     C37539   3.610   6.643   1.174  0.0894  0.0197  0.8059
  279MOL0     C37540   3.757   6.681   1.216 -0.0796 -0.0051 -0.4190
  279MOL0     C37541   3.807   6.625   1.354  1.4086 -0.2948 -0.2357
  279MOL0     C37542   3.932   6.705   1.412 -0.2481  0.0763  0.7827
  279MOL0     C37543   4.041   6.744   1.301 -0.5176 -0.1070 -1.1820
  279MOL0     C37544   4.141   6.841   1.356 -0.0660 -0.2389  0.2173
  279MOL0     C37545   4.262   6.859   1.261 -0.2468 -0.4325 -0.1075
  279MOL0     C37546   4.236   6.940   1.142 -0.6352 -0.1495 -0.4174
  279MOL0     N37547   4.358   6.972   1.074 -0.4369 -0.0369  0.4402
  279MOL0     C37548   4.453   7.065   1.110 -0.0070  0.0625 -0.0499
  279MOL0     C37549   4.554   7.051   1.021 -1.0656  0.2802  0.1192
  279MOL0     C37550   4.682   7.125   1.025  0.2649  0.0099 -0.7417
  279MOL0     C37551   4.801   7.039   0.967  0.4468 -0.2339  0.2695
  279MOL0     C37552   4.936   7.118   0.966  0.2785  0.2836  0.6905
  279MOL0     C37553   5.047   7.020   0.944  0.3400 -0.9055  0.3725
  279MOL0     O37554   5.143   7.110   0.920 -0.3269 -0.3970  0.7991
  279MOL0     C37555   5.270   7.085   0.940 -0.0159  0.6550 -0.3195
  279MOL0     C37556   5.359   7.173   0.875  0.1049 -0.1366  0.1255
  279MOL0     C37557   5.500   7.161   0.871 -0.0985 -0.0190  0.0082
  279MOL0     C37558   5.550   7.047   0.928  0.4131 -0.1291 -0.8801
  279MOL0     C37559   5.696   7.023   0.940  0.2695 -0.1931 -0.2922
  279MOL0     O37560   5.765   7.129   0.889  0.2088 -0.7358  0.4096
  279MOL0     C37561   5.900   7.114   0.872 -0.2274 -0.3674  0.4928
  279MOL0     C37562   5.992   7.107   0.980  0.3005 -0.4956  0.1455
  279MOL0     C37563   6.129   7.146   0.956  0.6665 -0.7861  0.3156
  279MOL0     C37564   6.177   7.175   0.829 -0.4999 -0.8859  0.7184
  279MOL0     O37565   6.304   7.224   0.817 -1.1487  0.1867  0.1843
  279MOL0     C37566   6.368   7.208   0.687 -0.2986 -0.1820  0.5907
  279MOL0     C37567   6.506   7.272   0.708  0.4909  0.4805  0.5318
  279MOL0     C37568   6.583   7.297   0.577  0.0460  0.2143  0.6846
  279MOL0     C37569   6.592   7.165   0.483 -0.3821 -0.8949  0.1480
  279MOL0     C37570   6.733   7.150   0.419  0.4742 -0.6923  0.3877
  279MOL0     C37571   6.736   7.056   0.298 -0.0442  0.0353  1.6158
  279MOL0     C37572   6.875   7.064   0.227  0.5685 -0.0996 -0.3522
  279MOL0     C37573   6.867   7.038   0.080  0.2802  0.3307 -0.0239
  279MOL0    Cl37574   7.029   6.975   0.018  0.8288 -0.0926  0.0651
  279MOL0     C37575   6.085   7.172   0.717  0.3800 -0.2195  0.0789
  279MOL0     C37576   5.953   7.148   0.742  0.1254  0.9133 -0.3733
  279MOL0     O37577   5.746   6.923   0.991  0.0437 -0.4491  0.3193
  279MOL0     C37578   5.464   6.953   0.992 -0.5006  0.0248  0.5688
  279MOL0     C37579   5.327   6.965   0.991  0.0030  0.0214 -0.0404
  279MOL0     N37580   4.520   6.951   0.933 -0.5166  0.3754 -0.5294
  279MOL0     N37581   4.405   6.904   0.965 -0.5452  0.4062 -0.2954
  279MOL0     C37582   3.400   6.476   1.072 -0.5047  0.1146  0.1308
  279MOL0     C37583   3.271   6.419   1.052  0.3158 -0.2373 -0.2470
  279MOL0     C37584   2.844   6.296   1.110 -0.0783 -0.9421 -0.3565
  279MOL0     C37585   2.736   6.354   1.041  0.4805  0.0386  0.1014
  279MOL0     C37586   2.604   6.291   1.054  0.3323 -0.6782 -0.1120
  279MOL0     C37587   2.586   6.163   1.114  0.4172 -1.4870 -0.5196
  279MOL0     O37588   2.471   6.095   1.110 -0.8910 -0.0942 -0.2813
  279MOL0     C37589   2.358   6.149   1.047 -0.4057  0.3225  0.0738
  279MOL0     C37590   2.228   6.077   1.090 -0.5302  0.5270 -0.7152
  279MOL0     C37591   2.115   6.115   1.000 -0.4790 -0.1813  0.9373
  279MOL0     C37592   1.989   6.034   1.028  0.3511 -0.4875  0.7760
  279MOL0     C37593   1.888   6.028   0.923 -0.5951  0.3898  0.7896
  279MOL0     C37594   1.805   6.029   0.835 -0.1309 -0.3569  0.8225
  279MOL0     C37595   2.691   6.116   1.193 -0.4863 -0.0651 -0.4457
  279MOL0     C37596   2.811   6.175   1.190 -0.8221 -0.0212  0.1300
  279MOL0     C37597   2.911   6.128   1.295 -0.1557 -0.4396 -0.4593
  279MOL0     H37598   3.230   6.250   1.347  1.8045 -2.5983 -2.3888
  279MOL0     H37599   3.445   6.364   1.398  2.5957 -0.2596 -0.8319
  279MOL0     H37600   3.610   6.642   1.065 -0.6095 -0.9862  0.8060
  279MOL0     H37601   3.542   6.722   1.208  0.9575  0.6125  1.2014
  279MOL0     H37602   3.760   6.790   1.227 -0.3525 -0.0437  0.0599
  279MOL0     H37603   3.822   6.654   1.133 -0.4586  1.3541 -1.1989
  279MOL0     H37604   3.838   6.520   1.348 -0.9809 -0.9672 -1.8964
  279MOL0     H37605   3.728   6.637   1.429  2.2379  0.3849  0.5691
  279MOL0     H37606   3.886   6.797   1.448 -1.8716 -0.3805 -0.0507
  279MOL0     H37607   3.972   6.646   1.495  2.6717  1.3027  0.3775
  279MOL0     H37608   4.093   6.661   1.253  2.1922  1.2500 -0.7852
  279MOL0     H37609   3.989   6.802   1.224 -0.6988  1.3353 -0.0317
  279MOL0     H37610   4.087   6.936   1.368 -0.3127 -0.1864 -1.1442
  279MOL0     H37611   4.170   6.812   1.457 -3.8754  2.3615  2.3084
  279MOL0     H37612   4.302   6.760   1.240 -1.5886 -1.0297  0.0519
  279MOL0     H37613   4.336   6.911   1.322 -0.5443  1.2654 -1.0997
  279MOL0     H37614   4.177   6.884   1.069 -0.2717  0.4588 -1.1913
  279MOL0     H37615   4.194   7.035   1.176  0.9203  0.5770 -0.4146
  279MOL0     H37616   4.440   7.137   1.190  0.0727 -0.0236  0.0397
  279MOL0     H37617   4.660   7.213   0.965  1.2176 -0.2056 -1.4266
  279MOL0     H37618   4.717   7.158   1.123  2.4147  1.8058 -2.0423
  279MOL0     H37619   4.805   6.942   1.018  0.9470 -0.0517  0.5835
  279MOL0     H37620   4.772   7.016   0.864 -0.5428  1.0488  0.2352
  279MOL0     H37621   4.948   7.175   1.059  3.3575  2.4093 -0.8340
  279MOL0     H37622   4.917   7.194   0.890 -1.6250  0.4602  1.2896
  279MOL0     H37623   5.033   6.951   0.861  0.0511  0.3030 -0.6102
  279MOL0     H37624   5.070   6.955   1.029  0.7188 -1.2357  0.0186
  279MOL0     H37625   5.319   7.260   0.824 -1.9881 -1.4325 -0.5730
  279MOL0     H37626   5.553   7.245   0.827  2.7129 -2.0658 -0.8118
  279MOL0     H37627   5.946   7.078   1.074 -1.4924 -1.3183 -0.9307
  279MOL0     H37628   6.201   7.151   1.037  0.5638  1.2698  0.3345
  279MOL0     H37629   6.369   7.104   0.653  0.0011  0.0830 -0.2576
  279MOL0     H37630   6.316   7.267   0.611  0.2556  0.4656  0.7042
  279MOL0     H37631   6.498   7.365   0.765 -2.0968  1.1700 -0.8050
  279MOL0     H37632   6.571   7.206   0.767  2.6044  0.5303 -1.6099
  279MOL0     H37633   6.538   7.385   0.531  0.6820  0.1708 -0.0303
  279MOL0     H37634   6.683   7.327   0.609  1.0640 -2.0288 -0.2424
  279MOL0     H37635   6.517   7.180   0.405 -1.0513 -4.5758 -0.0855
  279MOL0     H37636   6.575   7.075   0.543  1.4353 -0.9322  0.6865
  279MOL0     H37637   6.799   7.115   0.500 -0.2908 -2.3930  0.3289
  279MOL0     H37638   6.756   7.253   0.391 -1.1256 -0.8176 -1.6273
  279MOL0     H37639   6.710   6.951   0.311  0.6928 -0.7729 -2.3311
  279MOL0     H37640   6.662   7.097   0.229  2.1621  0.3100 -0.7357
  279MOL0     H37641   6.937   6.983   0.268 -2.0383 -1.1609  1.8021
  279MOL0     H37642   6.913   7.164   0.252 -0.1760  0.6313 -2.0365
  279MOL0     H37643   6.785   6.967   0.065 -0.8314  1.6867 -0.6839
  279MOL0     H37644   6.843   7.134   0.033  0.6887  0.7866  0.6714
  279MOL0     H37645   6.104   7.211   0.618 -3.1306  0.1273 -0.5874
  279MOL0     H37646   5.877   7.153   0.665  0.9216  1.2991 -1.1547
  279MOL0     H37647   5.514   6.873   1.046 -0.1606 -0.9171 -1.0547
  279MOL0     H37648   5.273   6.886   1.042  3.6576 -1.6528  1.6033
  279MOL0     H37649   3.438   6.538   0.991 -1.9402  0.8729 -0.0054
  279MOL0     H37650   3.223   6.433   0.955  2.9765 -2.5934 -2.0682
  279MOL0     H37651   2.761   6.445   0.988  0.4568 -0.0379 -0.0451
  279MOL0     H37652   2.524   6.343   1.003  0.6231  0.8555  0.9051
  279MOL0     H37653   2.376   6.137   0.939 -0.3044  1.3207 -0.0225
  279MOL0     H37654   2.336   6.255   1.060  3.7065  1.2824  0.4156
  279MOL0     H37655   2.200   6.093   1.195  1.1547  0.9903 -0.3144
  279MOL0     H37656   2.235   5.970   1.073  1.0811  0.8249 -2.1506
  279MOL0     H37657   2.145   6.100   0.896  2.9074 -0.7937  1.8800
  279MOL0     H37658   2.097   6.223   1.010  0.8703  0.3326 -1.5177
  279MOL0     H37659   2.027   5.932   1.040  0.5544 -0.2658  2.1811
  279MOL0     H37660   1.944   6.055   1.125 -1.0504  0.7119 -0.0927
  279MOL0     H37661   1.721   6.005   0.774  0.5687  0.7476 -0.6178
  279MOL0     H37662   2.680   6.022   1.247  2.2128 -0.5966 -0.6572
  279MOL0     H37663   2.865   6.064   1.372  0.7429  0.1355  0.5860
  279MOL0     H37664   2.994   6.066   1.261  0.4135 -0.1171  0.3004
  279MOL0     H37665   2.959   6.211   1.347 -2.8220 -0.0993  1.6944
  280MOL0     O37666   6.518   1.608   1.675 -0.3587  0.9186 -0.5229
  280MOL0     C37667   6.550   1.514   1.752 -0.1274 -0.0348  0.5671
  280MOL0     O37668   6.475   1.481   1.872 -0.4623  0.1205 -0.5932
  280MOL0     C37669   6.369   1.555   1.909 -0.2223 -0.2310 -0.6004
  280MOL0     C37670   6.264   1.607   1.824 -0.6936 -0.2085 -0.1682
  280MOL0     C37671   6.162   1.685   1.872  0.3506  0.6346 -1.0308
  280MOL0     C37672   6.152   1.719   2.010 -0.4676 -0.0883  0.3846
  280MOL0     O37673   6.043   1.794   2.036  0.4602  0.2965 -0.1304
  280MOL0     C37674   5.978   1.761   2.158 -0.3852  0.3129 -0.3076
  280MOL0     C37675   5.869   1.862   2.180 -0.7608  0.3171 -0.9835
  280MOL0     C37676   5.783   1.860   2.056 -0.0846 -0.3420 -0.0372
  280MOL0     C37677   5.641   1.893   2.102 -1.2381  0.1439  0.7866
  280MOL0     C37678   5.549   1.931   1.982  0.6599  0.0273 -1.4134
  280MOL0     C37679   5.574   2.071   1.944  0.3264  1.2226  0.0369
  280MOL0     C37680   5.518   2.094   1.806  0.0704  0.0055  0.2705
  280MOL0     C37681   5.595   2.213   1.733 -1.2074 -0.1683 -0.3403
  280MOL0     N37682   5.568   2.239   1.591  0.5697  0.5846 -0.3305
  280MOL0     C37683   5.593   2.141   1.496 -0.2669 -0.5867  0.9905
  280MOL0     C37684   5.517   2.196   1.399  0.0548 -0.1335  1.1334
  280MOL0     C37685   5.518   2.128   1.272  0.3444  0.1903  0.0468
  280MOL0     C37686   5.662   2.104   1.217  0.3413  0.1696 -0.0130
  280MOL0     C37687   5.661   2.094   1.063  1.2333  0.9958  0.4709
  280MOL0     C37688   5.783   2.168   1.008  0.7692 -0.0164  0.4152
  280MOL0     O37689   5.900   2.096   1.037  0.2147 -0.1509  0.5452
  280MOL0     C37690   6.022   2.153   1.004  0.7655 -0.4906 -0.5981
  280MOL0     C37691   6.047   2.268   0.927  0.8121  0.5969  0.3672
  280MOL0     C37692   6.175   2.311   0.895  0.4448 -0.4905 -0.0026
  280MOL0     C37693   6.284   2.254   0.956 -0.3719 -0.6652  0.8805
  280MOL0     C37694   6.426   2.309   0.939  0.4913  0.3636 -0.1185
  280MOL0     O37695   6.521   2.228   0.990 -0.4204 -0.2661 -0.0183
  280MOL0     C37696   6.656   2.250   0.983 -0.5664 -0.5808 -0.7833
  280MOL0     C37697   6.722   2.373   0.958 -0.1027  0.0765  0.5717
  280MOL0     C37698   6.857   2.382   0.957 -0.4905 -0.5985 -0.0706
  280MOL0     C37699   6.948   2.273   0.965 -0.2481  0.6060 -0.0464
  280MOL0     O37700   7.085   2.293   0.933 -0.1037  0.1220  0.2721
  280MOL0     C37701   7.171   2.180   0.933  0.2382  0.2558 -1.2557
  280MOL0     C37702   7.311   2.228   0.887  0.3906 -0.2237  0.2085
  280MOL0     C37703   7.408   2.107   0.887  0.2411 -0.3583 -0.1026
  280MOL0     C37704   7.554   2.142   0.823 -0.0449 -0.1468  0.9405
  280MOL0     C37705   7.547   2.210   0.687  0.0871 -0.4323 -0.1426
  280MOL0     C37706   7.684   2.198   0.617 -0.4582 -0.0651 -0.3090
  280MOL0     C37707   7.780   2.300   0.687  0.0500  0.1024 -0.4397
  280MOL0     C37708   7.923   2.294   0.647 -0.5684 -0.7839 -0.7188
  280MOL0    Cl37709   8.005   2.444   0.678 -0.1493 -0.3605 -0.4984
  280MOL0     C37710   6.880   2.151   0.994 -0.3466  0.5306 -0.2901
  280MOL0     C37711   6.738   2.139   0.997 -0.3163  0.6399 -0.1529
  280MOL0     O37712   6.445   2.407   0.864 -0.8682  0.3208 -0.2621
  280MOL0     C37713   6.260   2.146   1.032 -0.0754 -0.1152  0.1975
  280MOL0     C37714   6.135   2.097   1.065  0.7584 -0.0582  0.0077
  280MOL0     N37715   5.453   2.313   1.430 -0.4571 -1.8025  0.6108
  280MOL0     N37716   5.477   2.336   1.551 -0.2556 -0.0912  0.6240
  280MOL0     C37717   6.253   1.662   2.093 -0.2042  0.6167 -0.1961
  280MOL0     C37718   6.355   1.586   2.047  0.0594  0.0009  0.8247
  280MOL0     C37719   6.685   1.443   1.726  0.5968  0.3420 -0.0852
  280MOL0     C37720   6.739   1.456   1.599 -0.0414 -0.0615  0.0750
  280MOL0     C37721   6.870   1.401   1.572 -0.2344 -0.2148 -0.3291
  280MOL0     C37722   6.940   1.334   1.667 -0.4703  0.0189  0.4855
  280MOL0     O37723   7.068   1.285   1.630  0.2792 -0.2728 -0.3617
  280MOL0     C37724   7.124   1.183   1.716  1.1366 -0.5439  0.5137
  280MOL0     C37725   7.229   1.121   1.627  0.1782  0.3429 -0.5668
  280MOL0     C37726   7.346   1.033   1.695  0.6123 -0.1702 -0.2708
  280MOL0     C37727   7.448   0.978   1.586 -0.9845  0.0954 -0.0567
  280MOL0     C37728   7.553   0.907   1.653  0.1278  0.9085  0.1528
  280MOL0     C37729   7.640   0.852   1.715  0.3873 -0.3262  0.1319
  280MOL0     C37730   6.887   1.317   1.791 -0.8050 -0.4915  0.7813
  280MOL0     C37731   6.766   1.371   1.828 -0.5854 -0.0688 -0.7115
  280MOL0     C37732   6.709   1.335   1.961  0.7067  0.2531  0.3755
  280MOL0     H37733   6.285   1.600   1.718  2.2948  0.9689  0.2641
  280MOL0     H37734   6.090   1.724   1.801  0.0502  2.5210  0.2541
  280MOL0     H37735   5.927   1.665   2.150 -0.7359  0.3904  0.7144
  280MOL0     H37736   6.049   1.747   2.240  1.8167  1.6890 -1.8850
  280MOL0     H37737   5.900   1.960   2.218 -1.0011  0.0764 -0.1414
  280MOL0     H37738   5.816   1.815   2.263  1.4537 -0.9408 -0.1973
  280MOL0     H37739   5.779   1.761   2.009 -0.2569 -0.2339 -0.2543
  280MOL0     H37740   5.825   1.926   1.979 -0.0752 -1.4210 -0.9761
  280MOL0     H37741   5.604   1.797   2.138 -0.0264 -0.7280 -0.2029
  280MOL0     H37742   5.642   1.972   2.178 -4.7778  0.7338  0.4069
  280MOL0     H37743   5.576   1.854   1.909 -0.0688 -1.9962  0.3420
  280MOL0     H37744   5.442   1.923   2.002  0.6372 -0.7556 -1.8015
  280MOL0     H37745   5.529   2.138   2.018 -0.3132 -0.2302  0.9986
  280MOL0     H37746   5.682   2.088   1.944  0.2989  1.6264 -1.9441
  280MOL0     H37747   5.412   2.115   1.819  0.3235  0.7235  1.2458
  280MOL0     H37748   5.556   2.004   1.756  0.1268  0.0184  0.2906
  280MOL0     H37749   5.574   2.304   1.789  3.5353  0.2920  1.1398
  280MOL0     H37750   5.700   2.197   1.758 -1.2163  0.7573  0.3662
  280MOL0     H37751   5.645   2.046   1.491 -0.4159 -0.6229 -2.1813
  280MOL0     H37752   5.452   2.042   1.281 -3.2556  2.6397 -0.7918
  280MOL0     H37753   5.459   2.191   1.204 -0.2645 -2.5356 -2.1488
  280MOL0     H37754   5.735   2.174   1.259 -1.3118  0.5910  2.3302
  280MOL0     H37755   5.702   2.008   1.250  1.0578  0.3032 -0.4660
  280MOL0     H37756   5.573   2.151   1.031  2.6548  3.5771  0.8440
  280MOL0     H37757   5.664   1.990   1.030 -0.8948  1.3790 -1.1821
  280MOL0     H37758   5.781   2.264   1.062  0.6342  0.3021 -0.1419
  280MOL0     H37759   5.779   2.187   0.901 -3.0435 -2.3473 -0.0183
  280MOL0     H37760   5.961   2.318   0.883  1.4591  1.7187  0.3442
  280MOL0     H37761   6.188   2.396   0.828 -0.8299  1.1346  1.7042
  280MOL0     H37762   6.667   2.464   0.936  2.2156  1.7602  1.3835
  280MOL0     H37763   6.903   2.480   0.942 -1.8932  0.0544 -0.2587
  280MOL0     H37764   7.176   2.154   1.039 -1.5753  1.1164 -0.9209
  280MOL0     H37765   7.140   2.093   0.874  0.6600  0.9275 -2.5022
  280MOL0     H37766   7.297   2.267   0.786 -2.2115  3.8233  1.8981
  280MOL0     H37767   7.339   2.310   0.954  2.9065 -1.7089  1.1380
  280MOL0     H37768   7.422   2.075   0.990 -3.4306  2.8093  1.6616
  280MOL0     H37769   7.361   2.024   0.834  0.5836 -1.4612  1.2988
  280MOL0     H37770   7.613   2.050   0.817 -1.4530 -1.1297  1.6182
  280MOL0     H37771   7.599   2.207   0.899  1.2252 -1.2261  1.1578
  280MOL0     H37772   7.527   2.317   0.698  0.3836 -0.3616 -0.2723
  280MOL0     H37773   7.478   2.147   0.630  0.6415 -0.7976 -0.4222
  280MOL0     H37774   7.728   2.099   0.626 -0.6314 -0.0676  0.6496
  280MOL0     H37775   7.681   2.225   0.511  0.0743 -0.8996 -0.5481
  280MOL0     H37776   7.777   2.311   0.795  1.2189 -1.6608 -0.1859
  280MOL0     H37777   7.738   2.396   0.656 -2.6098 -0.6258  0.6632
  280MOL0     H37778   7.976   2.217   0.704  0.0738  0.5822  0.6009
  280MOL0     H37779   7.937   2.282   0.539  0.7874  0.0310 -0.6593
  280MOL0     H37780   6.946   2.065   0.999  1.5152  1.7846 -1.4831
  280MOL0     H37781   6.695   2.040   1.014  0.1524  0.4038 -0.3105
  280MOL0     H37782   6.341   2.083   1.067  1.7184  1.8511 -0.2373
  280MOL0     H37783   6.117   2.013   1.132 -1.1299  1.2342  1.2394
  280MOL0     H37784   6.235   1.697   2.194 -2.7567  1.3527 -0.8076
  280MOL0     H37785   6.429   1.561   2.123  1.5869 -0.8941 -0.8726
  280MOL0     H37786   6.691   1.515   1.522  1.8843 -1.9453 -2.7510
  280MOL0     H37787   6.929   1.430   1.486  0.4218  0.6849  0.3935
  280MOL0     H37788   7.043   1.117   1.748 -1.3173  2.2763  0.6542
  280MOL0     H37789   7.162   1.241   1.801  1.2311 -0.1303  0.1960
  280MOL0     H37790   7.284   1.202   1.578 -0.0913  0.1578 -1.1812
  280MOL0     H37791   7.175   1.059   1.555 -0.2896  0.6264 -0.4664
  280MOL0     H37792   7.296   0.957   1.757 -1.7024  3.1446  2.3518
  280MOL0     H37793   7.398   1.103   1.762  3.5513 -0.1744 -2.3669
  280MOL0     H37794   7.393   0.911   1.519  1.0929  1.2669 -3.1446
  280MOL0     H37795   7.494   1.063   1.536 -1.8220  0.2803 -0.5350
  280MOL0     H37796   7.731   0.819   1.761  0.3141 -0.0546  0.4634
  280MOL0     H37797   6.937   1.247   1.858 -1.2313 -2.2016 -0.6223
  280MOL0     H37798   6.765   1.260   2.017 -1.6278 -0.0320  2.4904
  280MOL0     H37799   6.694   1.425   2.022 -2.3215  0.2518 -0.2322
  280MOL0     H37800   6.609   1.291   1.951  1.1320 -1.0098  1.4386
  281MOL0     O37801   7.045   8.021   0.159 -0.2268 -0.3352 -0.3259
  281MOL0     C37802   7.119   7.984   0.248  0.2721 -0.1308  0.7012
  281MOL0     O37803   7.093   8.000   0.378 -0.1491 -0.2789 -0.1549
  281MOL0     C37804   7.013   8.100   0.417 -0.0583  0.1735  0.4451
  281MOL0     C37805   7.054   8.228   0.400  0.5444  0.0387 -0.0295
  281MOL0     C37806   6.975   8.337   0.446  0.3765  0.0964  0.4207
  281MOL0     C37807   6.865   8.314   0.528 -0.4678  0.2339 -0.2002
  281MOL0     O37808   6.818   8.419   0.597  0.3235 -0.8493 -0.1502
  281MOL0     C37809   6.685   8.456   0.552 -0.2593  0.0466 -0.5892
  281MOL0     C37810   6.648   8.582   0.638 -0.4919 -0.6620  0.5614
  281MOL0     C37811   6.702   8.713   0.576  0.1105  0.0601 -0.0717
  281MOL0     C37812   6.614   8.749   0.455  0.5829 -0.5045 -0.8806
  281MOL0     C37813   6.658   8.868   0.383 -0.4667 -0.0425 -0.6815
  281MOL0     C37814   6.772   8.846   0.290 -0.3770 -0.2354  0.8875
  281MOL0     C37815   6.837   8.974   0.245 -0.5371 -0.6541  0.5310
  281MOL0     C37816   6.953   8.948   0.141 -0.1643  0.7787  0.3455
  281MOL0     N37817   7.069   8.891   0.202  0.0084 -0.6781  0.5863
  281MOL0     C37818   7.155   8.957   0.288 -0.1252  0.3957  0.0581
  281MOL0     C37819   7.249   8.870   0.329  0.7157 -0.6836  0.8284
  281MOL0     C37820   7.361   8.907   0.428 -0.5966  0.0584  0.0964
  281MOL0     C37821   7.472   8.803   0.439 -1.7971  0.2454 -0.2296
  281MOL0     C37822   7.437   8.696   0.544  0.4724  0.1332  0.9362
  281MOL0     C37823   7.546   8.592   0.563 -0.0244  0.4327  0.2305
  281MOL0     O37824   7.671   8.657   0.585  0.4218 -0.0173 -0.1441
  281MOL0     C37825   7.762   8.586   0.660  0.3923 -0.4085 -0.1181
  281MOL0     C37826   7.874   8.656   0.702 -0.2967 -0.2332 -0.3323
  281MOL0     C37827   7.986   8.598   0.775 -0.2890 -0.8376 -0.0667
  281MOL0     C37828   7.979   8.463   0.808 -0.1949 -0.5139 -0.2339
  281MOL0     C37829   8.077   8.391   0.889  0.1423  0.4224 -0.2974
  281MOL0     O37830   8.177   8.472   0.944  0.1697 -0.2560  0.5703
  281MOL0     C37831   8.271   8.414   1.027  0.6956 -0.1031 -0.3673
  281MOL0     C37832   8.273   8.464   1.159 -0.1133  0.6509  0.1990
  281MOL0     C37833   8.371   8.424   1.251  0.5901  0.4261  0.5027
  281MOL0     C37834   8.472   8.338   1.210  0.1430 -0.2069  0.2992
  281MOL0     O37835   8.577   8.310   1.303 -0.7236 -0.1110 -0.3430
  281MOL0     C37836   8.700   8.268   1.242  0.1443 -0.0362 -0.3394
  281MOL0     C37837   8.811   8.272   1.348 -0.3533  0.0894 -0.0270
  281MOL0     C37838   8.948   8.260   1.273  0.9230  0.0042 -0.0651
  281MOL0     C37839   9.060   8.289   1.369 -0.1025  0.3812 -0.1065
  281MOL0     C37840   9.190   8.301   1.288  0.5999  0.3526  0.5560
  281MOL0     C37841   9.308   8.350   1.364 -0.5114 -0.0440  1.0884
  281MOL0     C37842   9.427   8.339   1.270 -0.1492  0.6270 -0.0556
  281MOL0     C37843   9.562   8.381   1.332  0.0440  0.1899 -0.6079
  281MOL0    Cl37844   9.547   8.539   1.404  0.5099  0.0743  0.1005
  281MOL0     C37845   8.475   8.287   1.083  1.4068 -0.1652  0.2115
  281MOL0     C37846   8.370   8.319   0.986 -0.3910  0.1191  0.0837
  281MOL0     O37847   8.051   8.271   0.913  0.2015  0.3467  0.3800
  281MOL0     C37848   7.853   8.396   0.767  0.1244 -0.3202 -0.1220
  281MOL0     C37849   7.747   8.456   0.698 -0.3853  0.1010 -0.8994
  281MOL0     N37850   7.214   8.749   0.281  0.3613  0.6690  0.0200
  281MOL0     N37851   7.110   8.762   0.204 -0.2454 -0.3373 -0.5445
  281MOL0     C37852   6.823   8.182   0.557 -0.1295  0.6813  0.0960
  281MOL0     C37853   6.898   8.081   0.492 -0.0787  0.2233 -1.3817
  281MOL0     C37854   7.241   7.918   0.208  0.0937 -0.5640 -0.5664
  281MOL0     C37855   7.249   7.842   0.095 -0.0330 -0.2973  1.2321
  281MOL0     C37856   7.370   7.778   0.055 -0.4860 -0.7389  0.1651
  281MOL0     C37857   7.479   7.794   0.126 -0.0226  1.0619  0.1425
  281MOL0     O37858   7.592   7.735   0.074 -0.1148  0.0139 -0.7025
  281MOL0     C37859   7.716   7.746   0.148  0.3843 -0.4098  0.4178
  281MOL0     C37860   7.821   7.739   0.038 -0.0780 -0.2277 -0.2295
  281MOL0     C37861   7.959   7.785   0.099 -0.2222 -0.7174  0.0961
  281MOL0     C37862   8.072   7.772  -0.000  0.3816  0.7417 -0.1587
  281MOL0     C37863   8.078   7.646  -0.073 -0.0257  0.1194  0.2571
  281MOL0     C37864   8.075   7.556  -0.146  0.1572  0.4647  0.0829
  281MOL0     C37865   7.472   7.870   0.244 -0.3811 -0.6296 -0.0663
  281MOL0     C37866   7.359   7.939   0.281 -0.2278 -0.1054 -0.0476
  281MOL0     C37867   7.370   8.028   0.411 -0.4058 -0.0673 -0.3775
  281MOL0     H37868   7.152   8.252   0.361  0.5783  0.5155  0.3403
  281MOL0     H37869   7.009   8.440   0.444 -0.2696  0.3005 -0.7739
  281MOL0     H37870   6.669   8.469   0.444 -0.4414  0.5691 -0.5039
  281MOL0     H37871   6.625   8.368   0.578 -1.0199  0.8499  0.4889
  281MOL0     H37872   6.679   8.581   0.744  0.0254 -0.4618  0.4176
  281MOL0     H37873   6.540   8.597   0.639 -0.3002  1.3655 -1.4772
  281MOL0     H37874   6.808   8.701   0.551  0.7867  0.0131  2.5340
  281MOL0     H37875   6.698   8.790   0.653  0.8503 -0.6365  0.6857
  281MOL0     H37876   6.598   8.661   0.391 -1.2916 -0.3576 -0.6733
  281MOL0     H37877   6.511   8.766   0.489  0.9933  0.1786  0.0524
  281MOL0     H37878   6.575   8.903   0.321 -0.0144  0.2663 -1.1172
  281MOL0     H37879   6.696   8.932   0.463  2.0638 -1.9511 -0.2412
  281MOL0     H37880   6.841   8.776   0.340  1.1781  0.0859 -0.7020
  281MOL0     H37881   6.731   8.799   0.201 -0.2680  1.1573  0.0770
  281MOL0     H37882   6.881   9.025   0.331 -0.0724  1.6785 -1.0068
  281MOL0     H37883   6.763   9.043   0.205 -0.6816 -0.0152  1.8602
  281MOL0     H37884   6.929   8.874   0.065  0.4480  0.4146  0.4979
  281MOL0     H37885   6.980   9.035   0.079  1.8131 -0.3752 -0.5043
  281MOL0     H37886   7.152   9.060   0.321  0.8162  0.4796 -0.0756
  281MOL0     H37887   7.405   9.001   0.394 -0.6287  0.4970  1.2234
  281MOL0     H37888   7.320   8.924   0.528  2.1332 -2.3870  1.7842
  281MOL0     H37889   7.479   8.754   0.342 -2.5199 -0.6584  0.1560
  281MOL0     H37890   7.565   8.853   0.465 -0.1548 -2.0649 -1.2932
  281MOL0     H37891   7.347   8.644   0.512  1.6526 -1.3043 -0.2147
  281MOL0     H37892   7.409   8.748   0.636  1.8590  1.2631  0.7587
  281MOL0     H37893   7.561   8.524   0.478  1.0611  3.0460 -1.8354
  281MOL0     H37894   7.521   8.533   0.651  2.2649  0.0714  0.6970
  281MOL0     H37895   7.868   8.764   0.689  1.8319  0.5399  3.3867
  281MOL0     H37896   8.074   8.662   0.779  0.0830 -1.3618  0.3556
  281MOL0     H37897   8.209   8.542   1.200  0.8734  1.7360 -0.2764
  281MOL0     H37898   8.373   8.465   1.351 -0.1385 -0.8999  1.0781
  281MOL0     H37899   8.682   8.171   1.196 -3.2722  0.4567 -0.3193
  281MOL0     H37900   8.723   8.339   1.162  0.6394  0.7572  0.4801
  281MOL0     H37901   8.811   8.371   1.395  4.8197  1.5253 -2.3341
  281MOL0     H37902   8.791   8.200   1.427 -1.0346 -0.1253 -0.3887
  281MOL0     H37903   8.951   8.159   1.230 -0.6089  0.0752 -0.3952
  281MOL0     H37904   8.945   8.326   1.186 -0.7939  1.7426  1.2408
  281MOL0     H37905   9.079   8.209   1.442  0.0501 -0.0297 -0.5906
  281MOL0     H37906   9.056   8.383   1.424 -0.7940  0.8042 -0.8499
  281MOL0     H37907   9.179   8.363   1.199  1.5312  0.9228  0.8180
  281MOL0     H37908   9.221   8.202   1.252  0.2625  0.3588  0.2426
  281MOL0     H37909   9.294   8.458   1.379 -1.1299  0.1379 -0.6106
  281MOL0     H37910   9.316   8.289   1.455 -2.6018  0.5893  1.7686
  281MOL0     H37911   9.403   8.397   1.180 -0.1559  0.0906 -0.4092
  281MOL0     H37912   9.440   8.237   1.231 -1.3693  0.4216  0.0344
  281MOL0     H37913   9.588   8.305   1.407  1.4942  0.8526 -0.4008
  281MOL0     H37914   9.635   8.378   1.250 -0.3040 -0.8588 -0.8992
  281MOL0     H37915   8.547   8.215   1.046 -0.1691 -0.8856 -1.6723
  281MOL0     H37916   8.374   8.278   0.885  0.1630  1.0640 -0.2858
  281MOL0     H37917   7.854   8.288   0.768 -0.5422 -0.3290  0.1769
  281MOL0     H37918   7.669   8.386   0.669  0.0778 -0.7332 -0.1646
  281MOL0     H37919   6.744   8.146   0.623 -1.2251  0.6910 -1.1616
  281MOL0     H37920   6.884   7.977   0.520  3.6708 -0.0379  0.1224
  281MOL0     H37921   7.155   7.835   0.041 -0.7920 -0.4687  2.5390
  281MOL0     H37922   7.381   7.713  -0.032 -2.3028  0.2521 -0.8636
  281MOL0     H37923   7.718   7.656   0.209 -2.3025 -2.7331 -2.5748
  281MOL0     H37924   7.737   7.842   0.196  0.4634 -0.3685  0.3005
  281MOL0     H37925   7.797   7.806  -0.045 -0.1502  0.6796  0.5032
  281MOL0     H37926   7.816   7.637   0.000 -2.0939  0.9148 -3.5244
  281MOL0     H37927   7.966   7.740   0.199 -4.8318 -2.1982 -0.0256
  281MOL0     H37928   7.953   7.890   0.129  1.6193 -0.8078  0.9852
  281MOL0     H37929   8.051   7.855  -0.068  0.5361  1.9291  1.2064
  281MOL0     H37930   8.174   7.777   0.039  0.5150 -1.0099 -0.1870
  281MOL0     H37931   8.074   7.481  -0.222  0.9817  0.7231 -0.1880
  281MOL0     H37932   7.567   7.878   0.295  1.3799 -0.9263 -3.0683
  281MOL0     H37933   7.473   8.041   0.447 -1.0325  1.8334  0.8417
  281MOL0     H37934   7.328   8.124   0.379 -2.7362 -1.4912 -1.9018
  281MOL0     H37935   7.322   7.989   0.500  0.5779 -1.0664 -0.2594
  282MOL0     O37936   8.530   9.097  10.943 -0.2134 -0.6885 -0.1075
  282MOL0     C37937   8.420   9.045  10.953  0.4502 -0.4200 -0.5380
  282MOL0     O37938   8.359   9.021  11.077 -0.0259 -0.0058  0.0155
  282MOL0     C37939   8.432   9.027  11.193 -0.2528  0.6061  0.5713
  282MOL0     C37940   8.528   8.927  11.212 -0.3771  0.1117 -0.4254
  282MOL0     C37941   8.605   8.922  11.329  0.1620 -1.4894 -0.0235
  282MOL0     C37942   8.600   9.017  11.428  0.4344  1.1055 -0.3229
  282MOL0     O37943   8.677   8.987  11.532  0.3637  0.6351 -0.2389
  282MOL0     C37944   8.647   9.068  11.642 -0.3366 -0.1412 -0.6878
  282MOL0     C37945   8.715   9.032  11.770 -0.2244  0.1705 -0.1244
  282MOL0     C37946   8.869   9.033  11.752 -0.4043  0.1785 -0.3137
  282MOL0     C37947   8.944   9.038  11.881 -0.0875  0.6280 -0.5942
  282MOL0     C37948   9.102   9.034  11.849 -0.9140 -0.0112  0.0606
  282MOL0     C37949   9.185   9.025  11.972 -0.5000  0.0522  0.3619
  282MOL0     C37950   9.339   9.031  11.945  1.1248 -0.7993  0.6557
  282MOL0     C37951   9.408   9.066  12.074  0.0959  0.4682 -0.3066
  282MOL0     N37952   9.537   9.121  12.055  0.7687 -0.2406  0.1437
  282MOL0     C37953   9.561   9.237  11.982 -0.4774  0.1854 -0.8629
  282MOL0     C37954   9.699   9.260  11.994  0.1878  0.0513  0.1221
  282MOL0     C37955   9.759   9.388  11.950 -0.6420  0.4663 -0.9995
  282MOL0     C37956   9.827   9.377  11.813 -0.0188 -0.3947 -0.1206
  282MOL0     C37957   9.937   9.487  11.809  0.4471 -0.5217 -0.0949
  282MOL0     C37958  10.065   9.446  11.883  0.1057  0.6242 -0.2729
  282MOL0     O37959  10.164   9.547  11.842 -0.5727  0.2365 -0.1588
  282MOL0     C37960  10.217   9.534  11.720 -0.7342 -0.8076 -0.3315
  282MOL0     C37961  10.200   9.427  11.630 -0.7860  0.0070  0.1001
  282MOL0     C37962  10.256   9.434  11.498 -0.3403  0.1653 -1.0050
  282MOL0     C37963  10.341   9.537  11.459 -0.3952  0.5295 -1.1395
  282MOL0     C37964  10.420   9.544  11.331  1.1714 -0.1454  0.4508
  282MOL0     O37965  10.523   9.635  11.306 -0.2130  0.5376 -0.3678
  282MOL0     C37966  10.604   9.608  11.202 -0.1509 -0.1534  0.5543
  282MOL0     C37967  10.629   9.714  11.117  0.2056  0.5385  0.6454
  282MOL0     C37968  10.696   9.688  10.998 -1.0035 -1.1227 -0.1336
  282MOL0     C37969  10.742   9.559  10.965  0.4814 -0.4193  0.3939
  282MOL0     O37970  10.791   9.536  10.836 -0.0333 -0.4818 -0.9794
  282MOL0     C37971  10.810   9.404  10.788  0.4112  0.1533 -0.1850
  282MOL0     C37972  10.828   9.398  10.638  0.7313  0.5816  0.3349
  282MOL0     C37973  10.730   9.294  10.578  0.3911  0.0418  0.5473
  282MOL0     C37974  10.755   9.139  10.595 -0.6840  0.5052 -0.3275
  282MOL0     C37975  10.638   9.049  10.551  0.2985 -0.1401 -0.1512
  282MOL0     C37976  10.675   8.895  10.538  0.2985 -1.2475 -0.2276
  282MOL0     C37977  10.564   8.817  10.480  0.2653  0.5840 -0.0438
  282MOL0     C37978  10.594   8.665  10.486 -0.4584 -1.4600  0.1768
  282MOL0    Cl37979  10.761   8.624  10.435 -0.2915 -0.3652 -0.4044
  282MOL0     C37980  10.727   9.455  11.057 -0.5267  0.0572  0.7706
  282MOL0     C37981  10.663   9.482  11.179 -0.3239 -0.0278  0.4658
  282MOL0     O37982  10.386   9.456  11.252  0.2850 -0.4613  0.3815
  282MOL0     C37983  10.350   9.647  11.551  0.5626  0.0004  0.5738
  282MOL0     C37984  10.281   9.646  11.671 -0.1998 -0.5301 -0.3613
  282MOL0     N37985   9.750   9.158  12.076 -0.2995  0.3754 -0.4499
  282MOL0     N37986   9.653   9.087  12.114  0.3324  0.7866  0.2637
  282MOL0     C37987   8.500   9.122  11.404  0.1663  0.7030 -0.7390
  282MOL0     C37988   8.412   9.116  11.290  0.7096 -0.1925 -0.8791
  282MOL0     C37989   8.325   9.027  10.838 -0.0067 -1.1625  0.0489
  282MOL0     C37990   8.194   9.048  10.857  0.5029 -0.1007  0.1740
  282MOL0     C37991   8.106   9.042  10.751  0.2670  0.4009 -0.0180
  282MOL0     C37992   8.140   9.012  10.621  0.3618  0.2206  0.0691
  282MOL0     O37993   8.047   8.993  10.521 -0.1821  0.0808  0.4786
  282MOL0     C37994   8.078   8.904  10.419  0.4829 -0.0938  0.5381
  282MOL0     C37995   7.972   8.854  10.332  0.2967  0.0953  0.4694
  282MOL0     C37996   7.853   8.804  10.418 -0.4742  0.8550 -0.1614
  282MOL0     C37997   7.869   8.666  10.479 -0.4435  0.2996 -0.1244
  282MOL0     C37998   7.741   8.627  10.549  0.4109  0.5832 -0.0431
  282MOL0     C37999   7.649   8.579  10.617 -0.0534  0.5525 -0.4930
  282MOL0     C38000   8.276   8.996  10.603  0.0723 -0.2512 -0.3357
  282MOL0     C38001   8.371   9.002  10.711  0.5135 -0.3336  0.6947
  282MOL0     C38002   8.510   8.958  10.686  0.0328 -0.4120  0.1676
  282MOL0     H38003   8.544   8.846  11.142 -0.1947 -1.1624  1.0443
  282MOL0     H38004   8.663   8.833  11.351  1.5270 -0.4695  0.6893
  282MOL0     H38005   8.679   9.170  11.619  0.8498 -0.6228 -1.2709
  282MOL0     H38006   8.539   9.077  11.657 -0.3637  0.4206 -1.1607
  282MOL0     H38007   8.683   8.935  11.810 -0.0448  0.6442  1.2258
  282MOL0     H38008   8.683   9.101  11.850 -1.2466  2.2269 -2.1871
  282MOL0     H38009   8.899   9.119  11.692  0.7961 -0.4066 -0.5818
  282MOL0     H38010   8.903   8.944  11.697 -0.3689 -0.7561  1.1570
  282MOL0     H38011   8.918   9.136  11.921 -1.7124 -0.7098  1.9085
  282MOL0     H38012   8.915   8.960  11.952  2.3770 -2.4864 -2.7071
  282MOL0     H38013   9.132   8.945  11.793  0.2090  1.1657 -1.2896
  282MOL0     H38014   9.136   9.118  11.787  1.1118 -1.3872 -0.7976
  282MOL0     H38015   9.149   9.110  12.030  2.7329  1.4082  0.6290
  282MOL0     H38016   9.152   8.935  12.024 -2.6241 -0.7265 -2.1201
  282MOL0     H38017   9.354   9.111  11.873  1.9817 -3.0152 -1.7996
  282MOL0     H38018   9.377   8.934  11.912 -2.4556 -2.9184  2.1544
  282MOL0     H38019   9.346   9.129  12.139  1.5125 -0.5378  2.1541
  282MOL0     H38020   9.416   8.970  12.125 -0.5967  0.5581 -0.0187
  282MOL0     H38021   9.489   9.297  11.927  0.1235  1.3782 -0.3742
  282MOL0     H38022   9.678   9.462  11.952 -0.5177  0.5943 -0.3645
  282MOL0     H38023   9.838   9.411  12.022  0.8643 -2.9765 -1.3487
  282MOL0     H38024   9.858   9.275  11.791 -1.7909 -0.7465 -1.1812
  282MOL0     H38025   9.764   9.402  11.728  1.1801 -1.0058 -1.2284
  282MOL0     H38026   9.898   9.579  11.853  0.5263  0.1550 -1.3820
  282MOL0     H38027   9.972   9.504  11.707  1.0704 -1.6000 -0.0790
  282MOL0     H38028  10.080   9.341  11.855 -1.6740 -0.4606  2.3934
  282MOL0     H38029  10.045   9.450  11.990  0.4580 -1.5060 -0.0812
  282MOL0     H38030  10.133   9.343  11.642 -0.6970 -0.2397 -0.9949
  282MOL0     H38031  10.247   9.343  11.439 -0.3663 -2.3611  2.5257
  282MOL0     H38032  10.590   9.814  11.126 -0.2116  0.3488  0.9620
  282MOL0     H38033  10.689   9.761  10.918  1.1362  0.6876  1.2252
  282MOL0     H38034  10.890   9.355  10.844  1.5835 -1.5489 -3.1057
  282MOL0     H38035  10.719   9.350  10.817 -1.5979  2.0233 -2.5413
  282MOL0     H38036  10.822   9.498  10.595  1.5437  0.1096 -0.9379
  282MOL0     H38037  10.929   9.361  10.620  0.4898 -0.4975  1.1047
  282MOL0     H38038  10.631   9.305  10.622  0.4362 -3.4380  1.8493
  282MOL0     H38039  10.723   9.316  10.471 -4.5442 -0.5787  0.5401
  282MOL0     H38040  10.770   9.110  10.700 -0.7588  1.6201  0.0006
  282MOL0     H38041  10.847   9.104  10.546  1.0569  2.0409  1.6653
  282MOL0     H38042  10.601   9.097  10.460 -3.4972 -0.0191  1.2889
  282MOL0     H38043  10.554   9.054  10.620 -0.9580 -1.1067 -1.5419
  282MOL0     H38044  10.769   8.886  10.483 -0.2135  1.2077 -1.6559
  282MOL0     H38045  10.698   8.864  10.640 -0.6162  0.5197  0.5737
  282MOL0     H38046  10.550   8.837  10.374  1.8215 -0.2875 -0.4371
  282MOL0     H38047  10.462   8.826  10.520 -0.4795 -1.3027 -1.3301
  282MOL0     H38048  10.567   8.624  10.584  1.9726  1.3454  2.1797
  282MOL0     H38049  10.533   8.607  10.415 -0.8775  0.2469 -0.9293
  282MOL0     H38050  10.763   9.357  11.029 -0.4606  0.5561 -1.0838
  282MOL0     H38051  10.642   9.395  11.240 -0.0409 -0.6568 -0.3297
  282MOL0     H38052  10.419   9.725  11.521 -0.0821  0.4863  0.3395
  282MOL0     H38053  10.281   9.736  11.732  0.2575 -0.1144 -0.9588
  282MOL0     H38054   8.498   9.200  11.478 -0.2089 -0.2049  0.2280
  282MOL0     H38055   8.340   9.197  11.289  0.8805  0.0202  1.0656
  282MOL0     H38056   8.147   9.068  10.953 -1.9005 -2.4581 -0.3699
  282MOL0     H38057   8.008   9.077  10.785  1.6567  0.9743  3.9015
  282MOL0     H38058   8.116   8.812  10.464  0.2140 -1.0450 -1.1010
  282MOL0     H38059   8.146   8.948  10.346 -3.5797  0.8701 -3.0614
  282MOL0     H38060   8.019   8.779  10.268 -0.6635  0.3598 -0.5930
  282MOL0     H38061   7.937   8.946  10.282 -4.1027  0.1784  3.1588
  282MOL0     H38062   7.769   8.802  10.349  0.5268 -0.0115 -1.3944
  282MOL0     H38063   7.821   8.869  10.500  0.2673 -1.1481  1.8527
  282MOL0     H38064   7.896   8.589  10.405 -0.1140 -1.9541  2.1897
  282MOL0     H38065   7.947   8.663  10.556  1.1624 -0.8236 -1.7052
  282MOL0     H38066   7.569   8.535  10.674  1.3874 -3.6499 -1.3280
  282MOL0     H38067   8.318   8.972  10.506  2.8729  0.7897  0.5420
  282MOL0     H38068   8.584   9.037  10.701 -0.7872  0.8139 -1.8479
  282MOL0     H38069   8.541   8.878  10.754 -1.9946 -2.6493 -1.3983
  282MOL0     H38070   8.531   8.929  10.583  2.0716  1.4703 -0.0091
  283MOL0     O38071   7.488   6.451   1.856  1.1396 -0.3958  0.4876
  283MOL0     C38072   7.439   6.335   1.838  0.0804  0.4258  0.1961
  283MOL0     O38073   7.495   6.230   1.777 -0.0798  0.2201  0.8068
  283MOL0     C38074   7.595   6.265   1.688  0.4603 -0.6751 -0.5593
  283MOL0     C38075   7.572   6.268   1.551  0.0218  0.0033 -0.3606
  283MOL0     C38076   7.679   6.305   1.469  0.4871  0.2502  0.7465
  283MOL0     C38077   7.810   6.312   1.521 -0.8734  0.8533  0.0191
  283MOL0     O38078   7.922   6.333   1.447 -0.1736  0.1448  0.0474
  283MOL0     C38079   7.920   6.286   1.310  0.5825 -0.5905  0.0635
  283MOL0     C38080   8.046   6.340   1.247 -0.7503  0.4544 -0.1729
  283MOL0     C38081   8.178   6.287   1.309  0.7268  0.2855 -0.4651
  283MOL0     C38082   8.296   6.317   1.215  0.2073  0.0829  0.1291
  283MOL0     C38083   8.426   6.320   1.284  0.2287 -0.0781  0.1459
  283MOL0     C38084   8.465   6.208   1.380 -0.5811 -0.2623 -0.4733
  283MOL0     C38085   8.616   6.210   1.418  0.4980 -0.7175  0.0168
  283MOL0     C38086   8.656   6.089   1.496 -0.6629  0.2088  0.6941
  283MOL0     N38087   8.795   6.056   1.478 -0.0741 -0.5779 -0.2417
  283MOL0     C38088   8.836   5.929   1.442 -0.5739  0.4638  0.2538
  283MOL0     C38089   8.965   5.936   1.472 -0.7082 -0.5661  0.2265
  283MOL0     C38090   9.063   5.820   1.440  0.7784 -0.0051 -0.1695
  283MOL0     C38091   9.205   5.832   1.493  0.8157  0.1095  0.3434
  283MOL0     C38092   9.299   5.940   1.432  0.7450 -0.1037  0.5254
  283MOL0     C38093   9.425   5.946   1.519 -0.7870 -0.5690  0.0830
  283MOL0     O38094   9.480   5.815   1.565 -0.2773  0.2458  0.0104
  283MOL0     C38095   9.582   5.832   1.651 -0.1528  0.0537  0.4728
  283MOL0     C38096   9.632   5.712   1.705  0.7198  0.4784  0.5991
  283MOL0     C38097   9.733   5.710   1.796  0.1290  0.1044 -0.1597
  283MOL0     C38098   9.784   5.835   1.848  0.3070 -0.4782 -0.2734
  283MOL0     C38099   9.891   5.828   1.950 -0.0834  0.5875  0.0274
  283MOL0     O38100   9.907   5.711   2.021  0.6619  0.0329  0.0725
  283MOL0     C38101  10.020   5.704   2.095  0.9426 -0.2826  0.4730
  283MOL0     C38102  10.014   5.705   2.236  0.3668  0.1550  0.1043
  283MOL0     C38103  10.134   5.696   2.305 -0.1468  0.3760 -0.5547
  283MOL0     C38104  10.264   5.694   2.245  0.0568 -0.7366  0.5430
  283MOL0     O38105  10.377   5.730   2.318 -0.0833  0.0156  0.6261
  283MOL0     C38106  10.449   5.600   2.358  0.3335 -0.4633 -0.1958
  283MOL0     C38107  10.547   5.639   2.467  0.2743 -0.2563 -0.5726
  283MOL0     C38108  10.640   5.521   2.503 -0.4479  0.2352 -1.1847
  283MOL0     C38109  10.754   5.575   2.599  0.3199  0.6618 -0.3952
  283MOL0     C38110  10.868   5.479   2.629 -0.1787  0.8160 -0.2303
  283MOL0     C38111  10.819   5.353   2.706 -0.3475 -0.5130 -0.5594
  283MOL0     C38112  10.935   5.281   2.761  0.5895 -0.0181  0.0046
  283MOL0     C38113  10.883   5.148   2.809 -0.1228 -0.2349 -0.0858
  283MOL0    Cl38114  11.019   5.052   2.828  0.2526 -0.2225 -0.0805
  283MOL0     C38115  10.264   5.710   2.102  0.0569  0.1892  0.5620
  283MOL0     C38116  10.142   5.700   2.027 -0.9675 -0.7502 -0.6635
  283MOL0     O38117   9.960   5.932   1.970 -0.3728  0.4575  0.6157
  283MOL0     C38118   9.744   5.954   1.793 -0.1119  0.1598  0.8029
  283MOL0     C38119   9.647   5.950   1.692 -0.1143  0.0315 -0.0372
  283MOL0     N38120   9.001   6.056   1.529  0.6004  0.2527 -1.0982
  283MOL0     N38121   8.900   6.128   1.514  0.6971  0.2225  0.3295
  283MOL0     C38122   7.833   6.316   1.658 -0.0105  0.1016 -0.4067
  283MOL0     C38123   7.726   6.288   1.742 -0.0485  0.1173  0.3807
  283MOL0     C38124   7.293   6.320   1.884  0.0784  0.0631 -0.9106
  283MOL0     C38125   7.190   6.347   1.796 -0.7083  0.8984  0.5900
  283MOL0     C38126   7.063   6.353   1.828 -0.1981  0.0112 -0.0075
  283MOL0     C38127   7.021   6.333   1.958 -1.0450  1.1660  0.1845
  283MOL0     O38128   6.894   6.311   2.003  0.2702 -0.3619 -0.3976
  283MOL0     C38129   6.787   6.375   1.930 -0.0942 -0.6489 -0.2979
  283MOL0     C38130   6.758   6.519   1.991 -0.1405 -0.0238  0.0667
  283MOL0     C38131   6.707   6.520   2.137  0.5028 -0.0233 -0.4639
  283MOL0     C38132   6.708   6.661   2.191  0.1528  0.1987 -0.7470
  283MOL0     C38133   6.673   6.675   2.339  0.0446  0.4973 -0.0149
  283MOL0     C38134   6.665   6.680   2.458  0.3094 -0.5535 -0.3616
  283MOL0     C38135   7.118   6.309   2.055 -0.1565 -0.3496 -0.1618
  283MOL0     C38136   7.252   6.297   2.022 -0.1690 -0.0157  0.6332
  283MOL0     C38137   7.355   6.278   2.136 -0.4849 -0.0170  0.2334
  283MOL0     H38138   7.470   6.238   1.525  0.6987 -1.5219 -1.4215
  283MOL0     H38139   7.668   6.311   1.362 -0.9941 -2.1202  0.6916
  283MOL0     H38140   7.937   6.178   1.301  4.9783 -0.0133 -0.6436
  283MOL0     H38141   7.832   6.313   1.250 -0.6260 -0.9444  1.6097
  283MOL0     H38142   8.057   6.449   1.252 -1.0270  0.5012 -0.5322
  283MOL0     H38143   8.039   6.310   1.142 -1.8959 -0.8312  0.2422
  283MOL0     H38144   8.177   6.180   1.332  0.9057  0.5930  1.1028
  283MOL0     H38145   8.199   6.339   1.403 -1.6538  0.8693 -0.2081
  283MOL0     H38146   8.284   6.247   1.132 -2.0014  0.6848 -0.1305
  283MOL0     H38147   8.290   6.418   1.173  0.2322  0.0279 -0.0083
  283MOL0     H38148   8.491   6.312   1.196  0.3207 -3.2982  0.3782
  283MOL0     H38149   8.442   6.417   1.332  4.1677  1.0041 -2.7982
  283MOL0     H38150   8.406   6.211   1.472 -0.3113  0.9318 -0.3257
  283MOL0     H38151   8.457   6.109   1.334  0.8264 -0.9657  0.7017
  283MOL0     H38152   8.626   6.298   1.482  1.8912 -1.4640  0.8688
  283MOL0     H38153   8.681   6.215   1.330  1.4508  0.3504  0.7541
  283MOL0     H38154   8.640   6.112   1.602  1.0506 -0.5596  1.1433
  283MOL0     H38155   8.593   6.007   1.460 -0.0716  0.5017 -1.1170
  283MOL0     H38156   8.784   5.847   1.394  0.0853 -1.1364  2.1179
  283MOL0     H38157   9.022   5.722   1.467 -0.6603  0.3992 -0.7839
  283MOL0     H38158   9.061   5.802   1.332 -0.0577 -0.4183 -0.0975
  283MOL0     H38159   9.196   5.847   1.601  2.2542 -3.7151  1.1555
  283MOL0     H38160   9.251   5.733   1.486 -0.6838 -0.5352 -0.7703
  283MOL0     H38161   9.243   6.034   1.430 -2.5531 -1.9199  0.2776
  283MOL0     H38162   9.323   5.911   1.330  2.7174  0.4231  0.8032
  283MOL0     H38163   9.410   6.022   1.596  3.5875  0.0663  0.5649
  283MOL0     H38164   9.515   5.983   1.468 -1.0564  2.2517  1.4256
  283MOL0     H38165   9.582   5.617   1.689 -0.6486  1.4381 -1.2130
  283MOL0     H38166   9.755   5.609   1.830  1.1147  0.0406 -0.9472
  283MOL0     H38167   9.921   5.704   2.292 -0.5044 -0.8353 -1.2988
  283MOL0     H38168  10.125   5.703   2.413  0.4101  1.5727 -0.5716
  283MOL0     H38169  10.371   5.533   2.394 -0.0593  0.8248  1.4761
  283MOL0     H38170  10.502   5.561   2.271  0.2789  0.9203 -0.8837
  283MOL0     H38171  10.595   5.737   2.452 -1.1689  0.5964  0.1464
  283MOL0     H38172  10.491   5.665   2.557 -0.0934 -1.8832 -0.3130
  283MOL0     H38173  10.575   5.450   2.555  1.9303 -0.9349  0.3368
  283MOL0     H38174  10.675   5.473   2.411 -1.6283 -0.2670 -1.3927
  283MOL0     H38175  10.703   5.592   2.694  1.5391 -0.5487  0.5155
  283MOL0     H38176  10.796   5.668   2.561  2.3502  1.0902  2.5130
  283MOL0     H38177  10.947   5.536   2.679  0.7502  0.6826 -1.4956
  283MOL0     H38178  10.918   5.440   2.540 -0.2009 -2.0287  0.8963
  283MOL0     H38179  10.753   5.390   2.784 -2.4801  0.2921 -2.6313
  283MOL0     H38180  10.756   5.290   2.642  1.2247 -0.3709 -2.3361
  283MOL0     H38181  10.976   5.331   2.849  1.1779 -0.2219 -0.1523
  283MOL0     H38182  11.007   5.269   2.681  0.4330 -1.3660  0.0350
  283MOL0     H38183  10.834   5.153   2.907  3.2896 -2.8871  1.9703
  283MOL0     H38184  10.827   5.094   2.732  1.6251 -1.1600 -0.7525
  283MOL0     H38185  10.355   5.705   2.044  0.9764  1.4822  1.8456
  283MOL0     H38186  10.145   5.711   1.919  0.8192  0.5938 -0.5239
  283MOL0     H38187   9.791   6.047   1.821 -0.3174  0.2923  0.7105
  283MOL0     H38188   9.617   6.047   1.653 -0.2879 -0.1393 -0.3374
  283MOL0     H38189   7.932   6.316   1.704  0.0486 -0.9564 -0.5078
  283MOL0     H38190   7.734   6.267   1.848 -0.9858 -0.4750  0.3442
  283MOL0     H38191   7.218   6.367   1.693 -0.1950 -2.9940 -0.1745
  283MOL0     H38192   6.983   6.371   1.757 -3.4445  2.1540  3.7746
  283MOL0     H38193   6.699   6.312   1.948 -0.2196 -0.8474 -1.4974
  283MOL0     H38194   6.801   6.394   1.823 -2.3761 -0.4842 -0.6317
  283MOL0     H38195   6.683   6.558   1.922  0.4399 -0.4792 -0.8414
  283MOL0     H38196   6.847   6.580   1.975  1.1562 -1.4084  1.6227
  283MOL0     H38197   6.767   6.452   2.199  0.9233 -1.7493 -2.6457
  283MOL0     H38198   6.606   6.480   2.136 -0.0110  1.1851  0.1965
  283MOL0     H38199   6.806   6.708   2.180  0.1610  0.5760  0.7153
  283MOL0     H38200   6.647   6.735   2.137 -1.0609  1.0065  1.5848
  283MOL0     H38201   6.687   6.693   2.562 -0.8577  2.8271 -0.4162
  283MOL0     H38202   7.099   6.294   2.161 -0.2136  0.3906 -0.0662
  283MOL0     H38203   7.416   6.187   2.141  0.7446  0.6879 -1.0238
  283MOL0     H38204   7.432   6.357   2.133  0.8102 -1.2351  0.3974
  283MOL0     H38205   7.309   6.286   2.235 -1.7710 -1.7921 -0.1783
  284MOL0     O38206   7.171   5.817   6.417 -0.1212 -0.2639  0.0959
  284MOL0     C38207   7.111   5.758   6.510 -0.2617  0.4690  0.3179
  284MOL0     O38208   7.183   5.671   6.596 -0.6574 -0.2984 -0.1949
  284MOL0     C38209   7.327   5.682   6.590  0.5030  0.4641 -0.5451
  284MOL0     C38210   7.399   5.801   6.590  0.2622  0.3879 -0.1955
  284MOL0     C38211   7.537   5.802   6.573 -0.4386  0.3510 -0.7467
  284MOL0     C38212   7.617   5.686   6.572 -0.7874 -0.1196  0.0750
  284MOL0     O38213   7.755   5.688   6.562 -0.2408 -0.8135 -0.2853
  284MOL0     C38214   7.829   5.622   6.669  0.1543 -1.0325 -0.0581
  284MOL0     C38215   7.951   5.701   6.702 -0.2000 -0.6907 -0.4212
  284MOL0     C38216   8.062   5.703   6.606 -0.7371  0.5827  0.3368
  284MOL0     C38217   8.135   5.571   6.587  0.4371 -0.1781 -0.8026
  284MOL0     C38218   8.239   5.593   6.470 -0.0077  0.2958  0.0139
  284MOL0     C38219   8.319   5.463   6.431  0.5185 -0.1394 -0.3517
  284MOL0     C38220   8.400   5.483   6.303  0.1394  0.2948 -0.7076
  284MOL0     C38221   8.533   5.556   6.317  0.3683  0.5500  0.3652
  284MOL0     N38222   8.642   5.483   6.382  0.1331 -0.2073  0.7142
  284MOL0     C38223   8.674   5.350   6.358 -0.0035 -0.1817  0.2881
  284MOL0     C38224   8.773   5.327   6.445  0.5830  0.0713 -0.6903
  284MOL0     C38225   8.847   5.196   6.447  0.0962 -0.1304 -0.8165
  284MOL0     C38226   8.965   5.185   6.353 -0.6362 -0.0960 -0.0993
  284MOL0     C38227   9.073   5.293   6.387  0.2711  0.6064  0.1557
  284MOL0     C38228   9.208   5.281   6.317  0.2999 -0.4182  0.1692
  284MOL0     O38229   9.185   5.307   6.180  0.2764 -0.2318  0.6108
  284MOL0     C38230   9.297   5.335   6.102  0.0945  0.1888 -0.3283
  284MOL0     C38231   9.418   5.274   6.135 -0.7348  0.4711  0.3202
  284MOL0     C38232   9.539   5.295   6.068  0.1804  0.9318  0.1885
  284MOL0     C38233   9.541   5.388   5.958  1.2966 -0.7690  0.2131
  284MOL0     C38234   9.663   5.418   5.871 -0.0517 -0.7720 -0.0839
  284MOL0     O38235   9.771   5.352   5.913  0.1657  1.0742  0.6251
  284MOL0     C38236   9.894   5.369   5.853  0.7525 -0.4550  0.1761
  284MOL0     C38237  10.003   5.374   5.940 -0.7253 -0.3696  0.1652
  284MOL0     C38238  10.131   5.393   5.888 -1.1179  0.2537 -0.6202
  284MOL0     C38239  10.146   5.425   5.752  0.0931  0.5624  0.3994
  284MOL0     O38240  10.262   5.470   5.699 -0.0421 -0.0218  0.3679
  284MOL0     C38241  10.347   5.367   5.638  0.2769  1.5911  0.1310
  284MOL0     C38242  10.498   5.382   5.670 -0.6683  0.3385  0.1783
  284MOL0     C38243  10.589   5.258   5.627  0.2665 -0.2770 -0.3643
  284MOL0     C38244  10.737   5.304   5.642  0.9927  1.1688 -0.9554
  284MOL0     C38245  10.784   5.375   5.509  0.0930 -0.3202 -0.1840
  284MOL0     C38246  10.920   5.440   5.522 -0.0260  0.1431 -0.0939
  284MOL0     C38247  10.979   5.485   5.391  0.3753  0.2335 -0.1316
  284MOL0     C38248  11.120   5.550   5.391 -0.4634 -0.1080  0.1137
  284MOL0    Cl38249  11.148   5.673   5.249  0.3663  0.1274  0.0717
  284MOL0     C38250  10.032   5.419   5.670 -0.0080 -0.0557  0.1414
  284MOL0     C38251   9.911   5.381   5.720  0.2925  0.1574  0.2170
  284MOL0     O38252   9.651   5.490   5.769  0.2281  0.1989 -0.3031
  284MOL0     C38253   9.414   5.439   5.916 -0.3473 -0.4660 -0.3070
  284MOL0     C38254   9.294   5.407   5.985 -0.2225  0.6499  0.2924
  284MOL0     N38255   8.801   5.444   6.514  0.2517  0.7351 -0.3686
  284MOL0     N38256   8.729   5.536   6.474 -0.3099  0.6228 -0.3006
  284MOL0     C38257   7.544   5.563   6.578 -0.5671  0.9317 -0.0176
  284MOL0     C38258   7.405   5.565   6.578  0.4947  0.0978  0.8795
  284MOL0     C38259   6.959   5.758   6.517  0.1081  0.0140  0.2688
  284MOL0     C38260   6.895   5.669   6.600 -0.4126  0.2184 -0.2190
  284MOL0     C38261   6.758   5.649   6.617  1.0268  0.1468  0.2942
  284MOL0     C38262   6.680   5.731   6.536 -0.9669 -0.4704  0.2095
  284MOL0     O38263   6.540   5.734   6.541 -0.1265  0.0497 -0.4466
  284MOL0     C38264   6.471   5.652   6.634 -0.0224 -0.5636  0.2419
  284MOL0     C38265   6.323   5.695   6.652 -0.3028  0.1857  0.3660
  284MOL0     C38266   6.226   5.655   6.540  0.3909  0.6250 -0.1555
  284MOL0     C38267   6.093   5.736   6.558  0.0596  0.3070  0.3889
  284MOL0     C38268   5.986   5.692   6.468  0.0746  0.3309 -0.1230
  284MOL0     C38269   5.901   5.667   6.378 -0.2308  0.3425 -0.2040
  284MOL0     C38270   6.734   5.835   6.459  1.0210  0.3141 -0.5419
  284MOL0     C38271   6.876   5.847   6.450  0.4998 -0.5287 -0.2526
  284MOL0     C38272   6.937   5.950   6.368 -0.1695 -0.4808 -0.2947
  284MOL0     H38273   7.340   5.892   6.588  0.5962  0.6559 -3.3048
  284MOL0     H38274   7.581   5.901   6.575 -0.6819  0.4683 -1.1783
  284MOL0     H38275   7.775   5.653   6.759 -0.4460 -3.4141  0.4701
  284MOL0     H38276   7.842   5.514   6.667  1.9649 -0.9270  2.0438
  284MOL0     H38277   7.996   5.685   6.801 -0.6851  1.0138  0.1095
  284MOL0     H38278   7.919   5.805   6.712  1.9669  0.1685 -1.6907
  284MOL0     H38279   8.143   5.767   6.641  0.5263  0.1924 -1.7462
  284MOL0     H38280   8.022   5.752   6.517 -0.3672 -0.4016 -0.3828
  284MOL0     H38281   8.188   5.534   6.675  1.0194 -3.2026 -2.2871
  284MOL0     H38282   8.051   5.508   6.555 -0.2774 -0.4667  1.4702
  284MOL0     H38283   8.183   5.643   6.391  2.4560 -1.6523 -3.2136
  284MOL0     H38284   8.314   5.669   6.494  3.6071 -2.0536 -2.8114
  284MOL0     H38285   8.376   5.428   6.518  0.8936  0.4934 -0.3360
  284MOL0     H38286   8.250   5.380   6.412  0.9757 -1.6128  3.5179
  284MOL0     H38287   8.343   5.537   6.227  0.5366 -0.7500 -1.7794
  284MOL0     H38288   8.416   5.387   6.253  0.6386  1.8441 -3.7630
  284MOL0     H38289   8.566   5.569   6.213  0.9151 -0.5628  0.3901
  284MOL0     H38290   8.517   5.656   6.358 -2.3450  0.9040 -1.2888
  284MOL0     H38291   8.624   5.274   6.299  1.0796 -0.5411 -0.2007
  284MOL0     H38292   8.874   5.180   6.552 -1.0918 -0.9803 -0.6202
  284MOL0     H38293   8.777   5.117   6.419  1.0396 -1.3245  0.0749
  284MOL0     H38294   8.998   5.082   6.369  1.1599  0.1312 -1.9407
  284MOL0     H38295   8.942   5.187   6.247  0.0520  0.9713 -0.2367
  284MOL0     H38296   9.083   5.285   6.496  0.1999  0.7348  0.1714
  284MOL0     H38297   9.020   5.386   6.368 -1.2319  0.2500  2.2497
  284MOL0     H38298   9.240   5.177   6.333  2.2246 -0.2280 -1.9725
  284MOL0     H38299   9.274   5.356   6.363  1.3606 -1.2267  0.0076
  284MOL0     H38300   9.417   5.202   6.215  2.1637 -0.0174  0.0286
  284MOL0     H38301   9.636   5.254   6.094  2.3446  2.0715 -4.7798
  284MOL0     H38302  10.000   5.365   6.048 -1.5216  2.0245  0.4092
  284MOL0     H38303  10.211   5.403   5.961 -2.7093  2.6833  0.9388
  284MOL0     H38304  10.315   5.268   5.672  1.5477  0.9431 -0.4765
  284MOL0     H38305  10.336   5.377   5.530  1.6764 -1.0589 -0.3545
  284MOL0     H38306  10.531   5.475   5.622  2.2454 -0.3291  0.7413
  284MOL0     H38307  10.505   5.395   5.778  2.2185 -0.3544  0.1329
  284MOL0     H38308  10.586   5.177   5.700 -1.8829  0.8853  0.9280
  284MOL0     H38309  10.568   5.233   5.523 -2.5130  1.9382 -0.4350
  284MOL0     H38310  10.791   5.210   5.660 -3.2005 -1.7391 -1.9387
  284MOL0     H38311  10.747   5.372   5.727 -0.8515  0.6276 -0.2614
  284MOL0     H38312  10.722   5.462   5.485  2.3723  1.3513 -0.4653
  284MOL0     H38313  10.782   5.304   5.426  0.7352  1.1421 -1.5196
  284MOL0     H38314  10.923   5.527   5.588 -1.2623  0.7376 -0.7799
  284MOL0     H38315  10.989   5.364   5.560  0.5205  0.0631 -1.2080
  284MOL0     H38316  10.917   5.567   5.354  1.0771  0.4285 -0.9125
  284MOL0     H38317  10.972   5.402   5.320  1.6483 -1.5570  1.7466
  284MOL0     H38318  11.119   5.611   5.482 -6.1625 -3.7786  3.1432
  284MOL0     H38319  11.203   5.479   5.392 -1.7448 -1.6824  2.6637
  284MOL0     H38320  10.032   5.450   5.567  0.4346  0.2848  0.2417
  284MOL0     H38321   9.829   5.374   5.650 -1.3773  0.1780  2.0952
  284MOL0     H38322   9.404   5.498   5.826 -0.9250 -1.1186 -0.6798
  284MOL0     H38323   9.202   5.448   5.946  0.1218 -1.1808 -2.7818
  284MOL0     H38324   7.602   5.471   6.570 -2.8128 -0.5805 -0.0940
  284MOL0     H38325   7.349   5.472   6.580 -0.6828  0.7956  0.9834
  284MOL0     H38326   6.963   5.594   6.638 -0.8615 -1.0604 -1.8199
  284MOL0     H38327   6.720   5.568   6.678 -3.0435  0.4228 -1.5426
  284MOL0     H38328   6.523   5.667   6.730  1.9774 -1.0065 -0.7134
  284MOL0     H38329   6.475   5.543   6.625 -2.6973 -0.9412  2.3336
  284MOL0     H38330   6.336   5.804   6.650  1.4146  0.0137  0.9769
  284MOL0     H38331   6.280   5.667   6.749  0.4213  0.8269  0.8807
  284MOL0     H38332   6.207   5.548   6.557  1.1451  1.0089  4.1130
  284MOL0     H38333   6.273   5.673   6.443 -1.4067 -3.5906 -2.0822
  284MOL0     H38334   6.053   5.736   6.660 -1.2820  1.6672 -0.0986
  284MOL0     H38335   6.115   5.841   6.539  0.0854  0.2669  0.1930
  284MOL0     H38336   5.824   5.651   6.306 -1.2577  0.1332  0.9181
  284MOL0     H38337   6.663   5.908   6.422  0.5427 -0.1597 -0.5793
  284MOL0     H38338   6.959   5.900   6.273 -0.4610  1.3253 -1.3665
  284MOL0     H38339   6.865   6.028   6.338  0.9651  0.4385 -0.7278
  284MOL0     H38340   7.020   5.999   6.420 -1.0859  0.7295  0.0793
  285MOL0     O38341   5.735   9.924   9.933  0.0453  0.2094 -0.9394
  285MOL0     C38342   5.631   9.982   9.944 -0.7441 -0.0252 -0.1322
  285MOL0     O38343   5.613  10.101  10.019 -0.7508  0.0822 -0.0682
  285MOL0     C38344   5.717  10.150  10.091 -0.2275 -0.8397 -0.4801
  285MOL0     C38345   5.682  10.211  10.216  0.2156  0.1543  1.2866
  285MOL0     C38346   5.776  10.280  10.287 -0.1957 -0.6584  0.1103
  285MOL0     C38347   5.911  10.279  10.240  0.7642 -0.0669 -0.8348
  285MOL0     O38348   6.011  10.330  10.317 -0.2375 -0.2659  0.3725
  285MOL0     C38349   5.986  10.434  10.409  0.6211  0.2096  0.3717
  285MOL0     C38350   6.119  10.479  10.458  0.0459  0.5844 -0.6307
  285MOL0     C38351   6.176  10.596  10.378  0.5898 -0.0953 -0.0225
  285MOL0     C38352   6.329  10.605  10.407  0.6598 -1.5483 -0.2082
  285MOL0     C38353   6.376  10.728  10.320 -0.6229  0.2826 -1.1603
  285MOL0     C38354   6.522  10.712  10.290 -0.6878  0.0075  0.3963
  285MOL0     C38355   6.576  10.826  10.205  0.0665 -0.1200 -0.5383
  285MOL0     C38356   6.627  10.945  10.289  0.6200 -0.1115  0.1502
  285MOL0     N38357   6.739  11.007  10.214  0.3247  0.1423  0.2351
  285MOL0     C38358   6.721  11.073  10.090  0.2787  0.0800 -0.7966
  285MOL0     C38359   6.842  11.095  10.048  0.1255  0.3877  0.1356
  285MOL0     C38360   6.879  11.153   9.917  0.1135 -0.4658  0.6784
  285MOL0     C38361   6.917  11.298   9.909  0.3024 -0.9012 -0.5300
  285MOL0     C38362   6.907  11.358   9.767  0.0470  0.6430  0.1667
  285MOL0     C38363   6.952  11.501   9.789 -0.0144  0.4271  0.2030
  285MOL0     O38364   6.903  11.586   9.682 -1.0955 -0.1274 -0.8934
  285MOL0     C38365   6.964  11.708   9.685  0.1087  0.1315  0.6034
  285MOL0     C38366   7.058  11.751   9.597  0.3214  0.3132  0.4901
  285MOL0     C38367   7.111  11.875   9.604  0.3626  0.2701  0.2912
  285MOL0     C38368   7.066  11.968   9.704  0.1306  0.6384  0.4626
  285MOL0     C38369   7.122  12.099   9.708 -0.7480 -0.0488 -0.1937
  285MOL0     O38370   7.058  12.207   9.750  0.0398  0.1408 -0.0523
  285MOL0     C38371   7.094  12.340   9.740  1.0421  0.3222  0.2159
  285MOL0     C38372   7.212  12.389   9.671  0.0709  0.8259  0.5301
  285MOL0     C38373   7.240  12.526   9.664 -0.1203  0.0204  1.3168
  285MOL0     C38374   7.167  12.627   9.735 -0.2917  0.3616 -1.0852
  285MOL0     O38375   7.216  12.759   9.716  0.0892 -0.2181 -0.3538
  285MOL0     C38376   7.165  12.863   9.804 -1.3545  0.2433 -0.6740
  285MOL0     C38377   7.229  12.847   9.952 -0.4267 -0.5925  0.3987
  285MOL0     C38378   7.379  12.885   9.940 -0.2593 -0.4746  0.1440
  285MOL0     C38379   7.453  12.894  10.079  0.6428  0.7967  0.2372
  285MOL0     C38380   7.596  12.846  10.074 -0.1826  0.9513  0.0362
  285MOL0     C38381   7.685  12.853  10.210  0.9664  0.7226  0.2161
  285MOL0     C38382   7.640  12.756  10.319 -0.0431  0.4422  0.3806
  285MOL0     C38383   7.716  12.781  10.450  0.0110  0.5101 -0.3745
  285MOL0    Cl38384   7.874  12.725  10.454  0.0114 -0.3569 -0.5851
  285MOL0     C38385   7.058  12.579   9.802  0.8630  0.2121 -0.5648
  285MOL0     C38386   7.024  12.443   9.809  0.2424 -0.3171 -0.9982
  285MOL0     O38387   7.245  12.098   9.670  0.3559  0.3288 -0.4704
  285MOL0     C38388   6.963  11.929   9.783  0.6010  0.1882 -0.0755
  285MOL0     C38389   6.912  11.801   9.767  0.9056 -0.3330 -0.4818
  285MOL0     N38390   6.935  11.047  10.149  0.1051 -0.1017 -0.8466
  285MOL0     N38391   6.870  10.991  10.245  0.1824 -0.2909  0.1204
  285MOL0     C38392   5.943  10.223  10.124 -0.9030  1.3569 -0.0338
  285MOL0     C38393   5.850  10.160  10.047  0.1585 -0.0200 -0.7849
  285MOL0     C38394   5.512   9.937   9.863  0.1326  0.0988 -0.6704
  285MOL0     C38395   5.385   9.956   9.913 -0.1855 -0.2836 -0.9010
  285MOL0     C38396   5.273   9.917   9.858 -0.9374 -1.0350 -0.3150
  285MOL0     C38397   5.279   9.841   9.743 -0.1974  0.0461  0.5152
  285MOL0     O38398   5.169   9.784   9.684  0.6316  0.3061  0.3689
  285MOL0     C38399   5.032   9.782   9.743 -0.1780 -0.3363 -1.3768
  285MOL0     C38400   4.953   9.669   9.673 -0.0663  0.2165 -0.6271
  285MOL0     C38401   4.962   9.685   9.526  0.3995  0.4478  0.1621
  285MOL0     C38402   4.889   9.563   9.467 -0.6348 -0.5228  0.2651
  285MOL0     C38403   4.882   9.581   9.323 -0.4911 -0.1465 -0.1730
  285MOL0     C38404   4.864   9.607   9.201  0.0573 -0.1003  0.6132
  285MOL0     C38405   5.404   9.816   9.680  0.9810 -0.4839 -0.4562
  285MOL0     C38406   5.518   9.869   9.735  0.5811  0.4447 -0.7437
  285MOL0     C38407   5.640   9.825   9.673  0.2640  0.0194 -0.4621
  285MOL0     H38408   5.575  10.212  10.235 -0.4970 -5.9736 -0.4202
  285MOL0     H38409   5.750  10.319  10.385 -0.6990 -1.4338  0.2859
  285MOL0     H38410   5.935  10.514  10.353 -0.9977  0.1763  1.7033
  285MOL0     H38411   5.921  10.403  10.491  0.3282  0.2634  0.1629
  285MOL0     H38412   6.203  10.409  10.462  3.8431  4.7019 -0.6354
  285MOL0     H38413   6.099  10.499  10.564 -0.1375 -1.6536 -0.1843
  285MOL0     H38414   6.134  10.688  10.421 -0.9603 -0.7494 -0.0847
  285MOL0     H38415   6.151  10.598  10.272  1.5460  1.9555 -0.2496
  285MOL0     H38416   6.352  10.604  10.514  1.3697 -1.0447 -0.3529
  285MOL0     H38417   6.371  10.510  10.371 -0.3697 -1.8314 -0.7143
  285MOL0     H38418   6.317  10.735  10.228  0.4174  0.1885 -1.8464
  285MOL0     H38419   6.357  10.822  10.372  2.2089  0.1639  0.2698
  285MOL0     H38420   6.593  10.697  10.372 -0.1454 -1.4308 -0.3084
  285MOL0     H38421   6.530  10.616  10.239  3.1184 -0.0318  0.7786
  285MOL0     H38422   6.509  10.858  10.125  1.6332  1.3652 -1.3255
  285MOL0     H38423   6.662  10.785  10.151  0.1616 -0.3018 -0.2498
  285MOL0     H38424   6.555  11.025  10.309  1.3982  0.3195  1.3677
  285MOL0     H38425   6.665  10.908  10.385  1.5896  0.4645 -0.0009
  285MOL0     H38426   6.630  11.081  10.031  0.4621 -0.4489 -1.1606
  285MOL0     H38427   6.964  11.095   9.879 -0.2339 -0.1586 -0.6414
  285MOL0     H38428   6.797  11.135   9.847 -1.0471  1.5278  1.4249
  285MOL0     H38429   6.840  11.348   9.968 -0.8387 -2.9380 -0.2181
  285MOL0     H38430   7.012  11.312   9.961 -0.0489 -0.7512  0.0747
  285MOL0     H38431   6.799  11.365   9.747 -0.3280 -1.7613  1.0457
  285MOL0     H38432   6.966  11.298   9.698 -1.9377 -3.8550  1.9294
  285MOL0     H38433   7.060  11.518   9.790 -0.3452  2.7920  0.9377
  285MOL0     H38434   6.893  11.535   9.874 -0.7373  0.6290 -0.3656
  285MOL0     H38435   7.101  11.683   9.524  0.3498  0.8140  0.0287
  285MOL0     H38436   7.180  11.916   9.531 -1.0353  0.3268 -1.0433
  285MOL0     H38437   7.287  12.330   9.619  0.1977  1.6367 -0.2405
  285MOL0     H38438   7.327  12.557   9.607 -0.7784  1.0196  0.8389
  285MOL0     H38439   7.188  12.961   9.762 -1.0656  0.5346  0.1324
  285MOL0     H38440   7.056  12.860   9.814 -1.2165 -0.3445  1.1235
  285MOL0     H38441   7.176  12.905  10.028 -2.0037 -0.4219 -0.7771
  285MOL0     H38442   7.216  12.742   9.977 -1.0496 -0.7991 -0.6945
  285MOL0     H38443   7.425  12.805   9.880  0.8287 -2.1067  2.9587
  285MOL0     H38444   7.396  12.982   9.893 -0.6109  0.4132  1.7870
  285MOL0     H38445   7.396  12.830  10.147  0.3810  0.7326 -0.0457
  285MOL0     H38446   7.438  12.999  10.106  1.1633  1.3089 -1.3851
  285MOL0     H38447   7.634  12.915   9.998 -0.4559  0.3164 -0.6790
  285MOL0     H38448   7.596  12.743  10.039 -3.7718  1.6501 -2.5638
  285MOL0     H38449   7.791  12.838  10.183  1.1848 -2.4492  2.2720
  285MOL0     H38450   7.676  12.956  10.243 -4.0715  0.4952  0.2795
  285MOL0     H38451   7.663  12.654  10.289 -1.1709  0.8608 -2.1809
  285MOL0     H38452   7.534  12.766  10.344 -0.0237  1.0705  0.2483
  285MOL0     H38453   7.710  12.889  10.467 -1.5563  0.8282 -2.5286
  285MOL0     H38454   7.662  12.728  10.529  4.4393 -0.4929  2.2968
  285MOL0     H38455   6.994  12.650   9.853  1.7145 -0.0233  0.8959
  285MOL0     H38456   6.934  12.413   9.861 -0.1587  0.4813 -1.2054
  285MOL0     H38457   6.922  11.995   9.859  0.0786  0.1001 -0.2811
  285MOL0     H38458   6.835  11.782   9.842  1.2936 -0.9125 -0.2190
  285MOL0     H38459   6.045  10.234  10.088 -0.6942  2.7889  0.8898
  285MOL0     H38460   5.892  10.128   9.952  0.8138 -1.0278 -0.1721
  285MOL0     H38461   5.370  10.006  10.008 -1.4709 -1.7389 -0.2915
  285MOL0     H38462   5.184   9.953   9.909  1.9684  6.2206  0.7816
  285MOL0     H38463   4.987   9.879   9.722  2.1590  0.5433 -2.6775
  285MOL0     H38464   5.029   9.760   9.850  2.3483 -0.6571 -1.2979
  285MOL0     H38465   4.853   9.667   9.717  1.1623 -1.2657  2.4617
  285MOL0     H38466   5.002   9.577   9.705  2.4365  1.3736 -0.8672
  285MOL0     H38467   5.066   9.698   9.495  0.4058 -0.2539 -0.1356
  285MOL0     H38468   4.907   9.775   9.499 -0.2984  0.1085  0.4304
  285MOL0     H38469   4.955   9.478   9.488  2.1260  1.4232 -0.0438
  285MOL0     H38470   4.794   9.546   9.518 -0.8945  2.4289  0.9470
  285MOL0     H38471   4.835   9.623   9.099 -0.2488  0.0184  0.7186
  285MOL0     H38472   5.402   9.757   9.589  0.5822  0.4358 -1.0599
  285MOL0     H38473   5.716   9.903   9.682 -0.0837  0.2039  1.3337
  285MOL0     H38474   5.675   9.736   9.726 -0.8527 -0.2678 -0.1611
  285MOL0     H38475   5.625   9.790   9.570  1.6300 -2.2415  0.0384
  286MOL0     O38476   2.714   4.780   0.564 -0.3517  0.3735 -0.5673
  286MOL0     C38477   2.730   4.660   0.584 -0.4424 -0.1549  0.2185
  286MOL0     O38478   2.848   4.605   0.635 -0.3377  0.6709  0.1785
  286MOL0     C38479   2.959   4.692   0.663  0.3831  1.0602  0.1708
  286MOL0     C38480   2.955   4.810   0.741 -1.4976 -1.0496 -0.0155
  286MOL0     C38481   3.078   4.882   0.754 -0.2088  0.0330  0.5797
  286MOL0     C38482   3.201   4.834   0.697  0.3449 -1.0039 -0.4035
  286MOL0     O38483   3.321   4.901   0.705 -0.8779  0.0688 -0.5173
  286MOL0     C38484   3.323   5.043   0.753  0.9597 -0.0941  0.1711
  286MOL0     C38485   3.449   5.107   0.711 -0.0770  0.2994 -0.7717
  286MOL0     C38486   3.569   5.037   0.781 -0.3925 -0.5968 -0.2507
  286MOL0     C38487   3.681   5.001   0.678  0.1973 -0.3304  0.0834
  286MOL0     C38488   3.814   4.956   0.743  0.2365  0.5500 -0.8483
  286MOL0     C38489   3.883   4.849   0.656  0.5366 -0.7755 -0.1309
  286MOL0     C38490   4.027   4.823   0.705 -0.2318  0.2812 -0.1226
  286MOL0     C38491   4.041   4.763   0.847 -0.1979 -0.3447 -0.1314
  286MOL0     N38492   4.158   4.682   0.857  0.3121  0.6564 -0.0443
  286MOL0     C38493   4.168   4.548   0.881  0.1037 -0.2394  0.4335
  286MOL0     C38494   4.303   4.524   0.890  0.3150  0.0261 -0.2646
  286MOL0     C38495   4.371   4.388   0.915  0.7005 -0.3645 -0.2195
  286MOL0     C38496   4.487   4.365   0.820 -0.2349  0.5988 -0.7507
  286MOL0     C38497   4.626   4.409   0.865 -0.1091 -1.1100  0.3721
  286MOL0     C38498   4.726   4.303   0.824  0.0783  0.9321 -0.3250
  286MOL0     O38499   4.856   4.328   0.871 -0.3015 -0.0857 -0.9378
  286MOL0     C38500   4.962   4.249   0.847 -0.8274  0.2854  0.4901
  286MOL0     C38501   4.977   4.175   0.728 -0.3372  0.2568 -0.0485
  286MOL0     C38502   5.101   4.110   0.699 -0.3496  0.2116 -0.5540
  286MOL0     C38503   5.217   4.138   0.776  0.2205  0.2658 -0.0822
  286MOL0     C38504   5.334   4.058   0.744  0.0331 -0.5994  0.3064
  286MOL0     O38505   5.432   4.082   0.832  0.3568 -0.0455 -0.1822
  286MOL0     C38506   5.562   4.033   0.801  0.4305 -0.9049  0.0841
  286MOL0     C38507   5.663   4.109   0.738 -0.2317 -0.2308  0.2501
  286MOL0     C38508   5.791   4.058   0.716 -0.2952  0.0127  0.1084
  286MOL0     C38509   5.827   3.933   0.779  0.1705 -0.4116 -0.5175
  286MOL0     O38510   5.959   3.902   0.775 -0.0086  0.4706 -0.0399
  286MOL0     C38511   5.991   3.767   0.778  0.0403 -0.7939 -0.2225
  286MOL0     C38512   6.140   3.755   0.767  0.0960  0.0596  0.2758
  286MOL0     C38513   6.201   3.779   0.626 -0.5229 -0.2664 -0.1072
  286MOL0     C38514   6.344   3.749   0.630 -0.7436  0.5779 -1.1673
  286MOL0     C38515   6.421   3.794   0.505  0.2912 -0.0617 -0.5361
  286MOL0     C38516   6.561   3.737   0.515 -0.2260  0.6986 -0.1538
  286MOL0     C38517   6.665   3.826   0.448 -0.5051 -0.4862  0.2623
  286MOL0     C38518   6.808   3.770   0.436 -0.3379  0.2451 -0.5324
  286MOL0    Cl38519   6.858   3.709   0.590 -0.1624 -0.0407  0.0957
  286MOL0     C38520   5.722   3.852   0.833  0.5215  0.0086 -0.0960
  286MOL0     C38521   5.592   3.902   0.833 -0.2754  0.3350  0.4571
  286MOL0     O38522   5.344   3.989   0.639  0.1745  0.7568  0.8403
  286MOL0     C38523   5.200   4.221   0.894  0.3787 -0.0394 -0.6197
  286MOL0     C38524   5.075   4.269   0.929 -0.2282 -0.3136  0.4446
  286MOL0     N38525   4.363   4.644   0.864 -0.7536 -0.0786 -0.4681
  286MOL0     N38526   4.276   4.734   0.852  0.2455 -0.7756 -0.1041
  286MOL0     C38527   3.196   4.706   0.631  0.0323  0.3619  0.0103
  286MOL0     C38528   3.081   4.638   0.611 -0.6661 -0.1156 -0.7807
  286MOL0     C38529   2.615   4.572   0.537 -0.3712  0.1226  0.1240
  286MOL0     C38530   2.491   4.640   0.540 -0.3746 -0.3358  0.1279
  286MOL0     C38531   2.368   4.579   0.511  0.1411  0.1361 -0.5627
  286MOL0     C38532   2.372   4.454   0.450  0.7593 -0.0929  0.7386
  286MOL0     O38533   2.271   4.367   0.426 -0.2976 -0.8193  0.4850
  286MOL0     C38534   2.131   4.411   0.428  0.6336  0.1922 -0.1865
  286MOL0     C38535   2.113   4.529   0.324 -0.5929 -0.1460  1.0296
  286MOL0     C38536   1.976   4.530   0.251  0.2805 -0.4674 -0.2445
  286MOL0     C38537   1.970   4.637   0.140 -0.2322  0.4608 -0.0488
  286MOL0     C38538   1.851   4.610   0.051  0.2866  0.0569 -0.1940
  286MOL0     C38539   1.761   4.573  -0.023  0.5908 -0.5257  0.1488
  286MOL0     C38540   2.498   4.381   0.443  0.0919 -0.0355 -0.2334
  286MOL0     C38541   2.624   4.437   0.496 -0.1770  0.0132 -0.1367
  286MOL0     C38542   2.757   4.364   0.489 -0.3294  0.0447 -0.4757
  286MOL0     H38543   2.869   4.855   0.789 -1.5149 -1.4558  0.3343
  286MOL0     H38544   3.073   4.977   0.805 -2.6848  0.1138  0.3170
  286MOL0     H38545   3.231   5.091   0.718  1.5595  1.7829  1.0788
  286MOL0     H38546   3.317   5.050   0.862 -0.1559  0.2224  0.1041
  286MOL0     H38547   3.444   5.215   0.729 -1.7784  0.3702 -1.4804
  286MOL0     H38548   3.453   5.103   0.602 -1.9933  2.2740 -0.9716
  286MOL0     H38549   3.543   4.947   0.837 -0.0534 -0.0461  0.8208
  286MOL0     H38550   3.610   5.113   0.848  2.8694 -0.0259 -2.6451
  286MOL0     H38551   3.639   4.926   0.610 -1.1273  1.1651 -0.8226
  286MOL0     H38552   3.698   5.084   0.610  3.8538 -0.2717  0.8957
  286MOL0     H38553   3.881   5.039   0.765 -1.6875  1.6236  1.3867
  286MOL0     H38554   3.792   4.910   0.840  0.2228  0.4943 -0.8773
  286MOL0     H38555   3.819   4.761   0.668  0.2268 -0.3714  1.4840
  286MOL0     H38556   3.899   4.874   0.551  3.4744 -0.7204  0.2607
  286MOL0     H38557   4.086   4.913   0.684 -0.8474  1.1856  1.8608
  286MOL0     H38558   4.071   4.758   0.627  1.1409  1.6505 -0.5433
  286MOL0     H38559   4.052   4.848   0.916  1.0150 -0.1515 -0.5292
  286MOL0     H38560   3.961   4.695   0.875  0.5282 -1.6909 -1.1826
  286MOL0     H38561   4.084   4.480   0.887  0.4657 -0.9196 -1.6798
  286MOL0     H38562   4.399   4.396   1.021 -1.4801  0.2738  0.3581
  286MOL0     H38563   4.295   4.313   0.889 -1.3313  1.2295  0.8522
  286MOL0     H38564   4.495   4.258   0.800 -1.2431  0.7298 -2.0029
  286MOL0     H38565   4.459   4.412   0.725 -0.4318 -0.5437 -1.2630
  286MOL0     H38566   4.631   4.426   0.973  0.2117 -1.2485  0.3806
  286MOL0     H38567   4.651   4.512   0.836  1.3490 -1.5154  0.0781
  286MOL0     H38568   4.732   4.281   0.717  3.9583  0.3137 -0.1420
  286MOL0     H38569   4.701   4.204   0.863  2.3775 -0.2046 -1.5376
  286MOL0     H38570   4.889   4.161   0.667 -0.7042 -0.1642  0.5713
  286MOL0     H38571   5.096   4.043   0.614  1.2462  1.7743 -1.9686
  286MOL0     H38572   5.629   4.207   0.706  3.7458  0.2526 -3.4299
  286MOL0     H38573   5.862   4.107   0.650  0.5666 -1.5781 -0.2026
  286MOL0     H38574   5.952   3.716   0.866  0.4035 -0.7102 -0.0125
  286MOL0     H38575   5.947   3.713   0.693 -2.7595 -0.8799  1.1740
  286MOL0     H38576   6.182   3.818   0.847 -1.1052 -0.4133  1.3289
  286MOL0     H38577   6.175   3.655   0.795  2.3598 -0.1920 -2.9775
  286MOL0     H38578   6.143   3.713   0.561 -2.3800  2.0960 -1.0022
  286MOL0     H38579   6.188   3.887   0.611 -0.9912 -0.1109  1.3033
  286MOL0     H38580   6.352   3.642   0.651 -2.1443  0.4936 -0.9208
  286MOL0     H38581   6.387   3.801   0.716 -2.1053  1.0057 -0.7188
  286MOL0     H38582   6.427   3.902   0.498 -1.4785 -0.0206 -2.8298
  286MOL0     H38583   6.375   3.761   0.411 -0.5298  3.2866 -1.4130
  286MOL0     H38584   6.585   3.726   0.621 -1.6305 -3.2871 -0.0801
  286MOL0     H38585   6.565   3.638   0.469  1.4781 -0.4143  2.2176
  286MOL0     H38586   6.669   3.926   0.492 -0.6367  0.4312 -1.7381
  286MOL0     H38587   6.635   3.834   0.343 -1.3361  0.4571  0.5594
  286MOL0     H38588   6.818   3.695   0.357  0.7341  0.2540 -0.4193
  286MOL0     H38589   6.871   3.854   0.408 -2.1591  2.1477  0.7768
  286MOL0     H38590   5.731   3.752   0.875  0.4296 -0.1493 -0.4455
  286MOL0     H38591   5.516   3.841   0.880  0.4971 -0.1899  1.0515
  286MOL0     H38592   5.279   4.238   0.965  2.7541  0.5711 -3.2331
  286MOL0     H38593   5.074   4.325   1.022  2.0583  1.0500 -0.2664
  286MOL0     H38594   3.299   4.683   0.606  0.0155  0.0681  0.2117
  286MOL0     H38595   3.068   4.555   0.544 -0.6511  0.0804 -1.0273
  286MOL0     H38596   2.473   4.740   0.580 -1.6643 -0.6498  0.3841
  286MOL0     H38597   2.277   4.637   0.506  0.7578  1.0939 -1.1368
  286MOL0     H38598   2.090   4.426   0.528 -0.8950 -0.1297 -0.7325
  286MOL0     H38599   2.069   4.328   0.392  1.7852  0.3838 -2.8465
  286MOL0     H38600   2.196   4.517   0.255 -0.5107  0.6675  0.9759
  286MOL0     H38601   2.130   4.623   0.377  1.2734 -0.6433  1.3832
  286MOL0     H38602   1.892   4.544   0.319 -0.0612 -0.4643 -0.6622
  286MOL0     H38603   1.968   4.431   0.204 -2.5693  0.3727 -1.7416
  286MOL0     H38604   1.964   4.742   0.171  0.3114  1.5888 -3.2982
  286MOL0     H38605   2.060   4.616   0.082 -0.1714 -0.9403  0.5249
  286MOL0     H38606   1.684   4.551  -0.093  0.4710  1.5606 -0.4660
  286MOL0     H38607   2.504   4.278   0.411 -1.1841  0.5283 -2.4917
  286MOL0     H38608   2.735   4.257   0.482 -1.3314  0.2319 -0.3211
  286MOL0     H38609   2.818   4.394   0.404 -0.1221 -1.2614 -0.8102
  286MOL0     H38610   2.805   4.363   0.587  0.8494  0.2621 -1.0420
  287MOL0     O38611   7.061   0.693   0.158  0.6139  0.2696  0.5699
  287MOL0     C38612   7.146   0.769   0.116  0.5436  0.3480  0.0185
  287MOL0     O38613   7.123   0.901   0.089 -1.1784  0.2335  0.2285
  287MOL0     C38614   6.995   0.948   0.071  0.3796 -0.0648  0.0475
  287MOL0     C38615   6.953   0.962  -0.061  0.2302 -0.2399 -0.5263
  287MOL0     C38616   6.823   1.015  -0.090  1.3916  0.0085 -0.3858
  287MOL0     C38617   6.728   1.041   0.016 -0.1988 -0.3486 -0.1646
  287MOL0     O38618   6.604   1.082   0.014  0.3482  0.4429  0.6333
  287MOL0     C38619   6.562   1.149  -0.105  0.1414  0.0820 -0.3679
  287MOL0     C38620   6.497   1.055  -0.214  0.8288  0.0905 -0.1854
  287MOL0     C38621   6.447   1.147  -0.332  0.0860 -0.4147 -0.1667
  287MOL0     C38622   6.297   1.183  -0.310 -0.1137  0.1357  0.0085
  287MOL0     C38623   6.222   1.248  -0.422  0.0814  0.1013 -0.6749
  287MOL0     C38624   6.082   1.291  -0.372  0.3147  0.2365  0.5511
  287MOL0     C38625   5.990   1.358  -0.486  0.4547  0.7415  0.0726
  287MOL0     C38626   5.968   1.257  -0.608  0.3425 -0.5710  0.7132
  287MOL0     N38627   5.889   1.322  -0.705 -0.3435 -0.0778 -0.0515
  287MOL0     C38628   5.932   1.439  -0.772  0.9628 -0.0462  0.2502
  287MOL0     C38629   5.816   1.498  -0.812 -0.5229 -0.1152 -0.3023
  287MOL0     C38630   5.801   1.639  -0.858 -0.0733 -0.2863  0.5630
  287MOL0     C38631   5.837   1.746  -0.754  0.2135 -0.2196  0.1028
  287MOL0     C38632   5.834   1.877  -0.831 -0.0712 -0.1841 -0.0024
  287MOL0     C38633   5.845   1.983  -0.729 -0.5209  0.3676 -0.3036
  287MOL0     O38634   5.967   1.973  -0.649  0.4441 -0.0932 -0.0172
  287MOL0     C38635   6.089   2.022  -0.684  0.6262  0.0395 -0.9686
  287MOL0     C38636   6.203   1.997  -0.607  0.1036  0.6525 -1.0664
  287MOL0     C38637   6.326   2.049  -0.647  0.1944  0.9422  0.0136
  287MOL0     C38638   6.343   2.117  -0.770 -0.5229  0.4735 -1.0093
  287MOL0     C38639   6.479   2.158  -0.821  0.4339  0.6481 -0.5410
  287MOL0     O38640   6.577   2.112  -0.737  0.4942  0.2244  0.6453
  287MOL0     C38641   6.713   2.144  -0.761 -0.2752  1.0819 -0.2811
  287MOL0     C38642   6.795   2.130  -0.656 -0.3569  0.2417  0.4219
  287MOL0     C38643   6.934   2.153  -0.671  0.1172  0.0413 -0.2288
  287MOL0     C38644   6.992   2.175  -0.798  0.2607  0.0183 -0.4507
  287MOL0     O38645   7.123   2.200  -0.804  0.0397  0.4637  0.1043
  287MOL0     C38646   7.187   2.206  -0.936 -0.5177  0.5238  0.5691
  287MOL0     C38647   7.340   2.202  -0.913 -0.0003  0.2117 -0.4480
  287MOL0     C38648   7.421   2.221  -1.034 -0.5122  0.9869 -0.3537
  287MOL0     C38649   7.425   2.088  -1.109  0.1366  0.2297  0.2274
  287MOL0     C38650   7.474   2.118  -1.247  0.2350 -0.4524  0.0587
  287MOL0     C38651   7.528   2.006  -1.331 -0.4541  0.2302  0.7815
  287MOL0     C38652   7.648   1.932  -1.280  0.5753  0.2707  0.6485
  287MOL0     C38653   7.777   2.014  -1.301 -0.8752 -0.2661 -0.4493
  287MOL0    Cl38654   7.939   1.921  -1.284  0.1077  0.3707 -0.2065
  287MOL0     C38655   6.907   2.177  -0.909  0.1965 -0.0430 -0.5446
  287MOL0     C38656   6.775   2.154  -0.883  0.4017 -0.4326  0.1004
  287MOL0     O38657   6.492   2.205  -0.934 -0.0272 -0.1185  0.2022
  287MOL0     C38658   6.222   2.143  -0.843 -0.4241  0.8496 -0.1989
  287MOL0     C38659   6.105   2.088  -0.807  0.2117  0.4634  0.1309
  287MOL0     N38660   5.713   1.413  -0.790  0.3502  0.2943 -0.6516
  287MOL0     N38661   5.753   1.311  -0.718  0.4055 -0.3532  0.1624
  287MOL0     C38662   6.779   1.018   0.143 -0.1029  0.0869 -0.2925
  287MOL0     C38663   6.906   0.970   0.175  0.7140 -0.0762 -0.6401
  287MOL0     C38664   7.278   0.703   0.108  0.5485 -0.2578  0.1684
  287MOL0     C38665   7.294   0.569   0.165  0.7703 -0.7470 -0.4686
  287MOL0     C38666   7.419   0.512   0.168  0.2624  0.2385 -0.4109
  287MOL0     C38667   7.533   0.573   0.114  0.3863 -0.4148 -0.1003
  287MOL0     O38668   7.650   0.515   0.098  0.8979  0.1938  0.3245
  287MOL0     C38669   7.693   0.418   0.198  0.0326 -0.6496  0.4082
  287MOL0     C38670   7.757   0.501   0.313  0.2930 -0.0678 -0.9978
  287MOL0     C38671   7.802   0.403   0.430 -0.3192  0.2262  0.6277
  287MOL0     C38672   7.711   0.400   0.555 -0.9039 -0.4531  0.2107
  287MOL0     C38673   7.595   0.315   0.526  0.0611 -0.0028  0.3406
  287MOL0     C38674   7.499   0.248   0.504  0.5891  0.6425  0.1211
  287MOL0     C38675   7.519   0.697   0.061 -0.1278 -0.7076  0.1423
  287MOL0     C38676   7.394   0.758   0.058 -1.0642 -0.6507  0.5391
  287MOL0     C38677   7.393   0.899   0.006  0.2937  0.5924  0.6140
  287MOL0     H38678   7.023   0.931  -0.137 -0.2502 -1.3119 -0.5546
  287MOL0     H38679   6.793   1.018  -0.195 -1.9455 -2.1833  0.3520
  287MOL0     H38680   6.482   1.214  -0.067 -0.3456 -2.1495  2.8563
  287MOL0     H38681   6.640   1.204  -0.159  2.3109 -0.7568  1.7189
  287MOL0     H38682   6.419   1.001  -0.160  0.3573  1.2819  0.3501
  287MOL0     H38683   6.566   0.977  -0.251  0.8322 -1.1989  2.3448
  287MOL0     H38684   6.459   1.087  -0.423 -0.0080  0.9841 -1.1317
  287MOL0     H38685   6.502   1.239  -0.351 -0.6774  0.0856  0.0037
  287MOL0     H38686   6.246   1.094  -0.271  1.4074 -0.2530  1.1961
  287MOL0     H38687   6.301   1.256  -0.229  2.5268 -1.6480  1.6623
  287MOL0     H38688   6.280   1.335  -0.454  1.0249  0.6079  2.1000
  287MOL0     H38689   6.213   1.179  -0.507 -0.8086 -1.1233  0.3686
  287MOL0     H38690   6.023   1.204  -0.341  0.6555 -0.9385 -1.8920
  287MOL0     H38691   6.096   1.369  -0.296  0.5657  1.9108 -1.1316
  287MOL0     H38692   6.043   1.437  -0.539 -0.9620  1.4868 -0.2823
  287MOL0     H38693   5.892   1.391  -0.450 -0.0281 -0.5273 -0.0225
  287MOL0     H38694   6.063   1.219  -0.647  0.0313 -0.6641  0.0143
  287MOL0     H38695   5.903   1.173  -0.580 -0.2902  0.2780  1.8915
  287MOL0     H38696   6.029   1.482  -0.795  1.0193 -0.4406 -0.2593
  287MOL0     H38697   5.869   1.644  -0.943 -1.6352  0.8013 -0.6761
  287MOL0     H38698   5.708   1.665  -0.910  2.1457  2.2988 -2.4885
  287MOL0     H38699   5.764   1.740  -0.672  0.0807 -3.2808 -0.1504
  287MOL0     H38700   5.938   1.738  -0.712 -0.3236 -2.6366  1.1152
  287MOL0     H38701   5.740   1.884  -0.887  0.5889 -1.0572 -1.2662
  287MOL0     H38702   5.915   1.886  -0.904  0.6783  3.2946  1.1093
  287MOL0     H38703   5.761   1.972  -0.660  0.9073  0.2603  1.4913
  287MOL0     H38704   5.825   2.079  -0.778  0.4731  0.0365 -1.4128
  287MOL0     H38705   6.193   1.938  -0.516 -2.3659  3.8624  0.9826
  287MOL0     H38706   6.409   2.040  -0.578  0.9868 -2.0775 -1.1778
  287MOL0     H38707   6.762   2.122  -0.553  1.1346  1.9210  1.0871
  287MOL0     H38708   6.997   2.139  -0.584 -2.1994  2.4952  2.0261
  287MOL0     H38709   7.159   2.127  -1.007  2.4576 -0.5066  0.3987
  287MOL0     H38710   7.162   2.300  -0.986  0.1310  1.5378  2.0663
  287MOL0     H38711   7.377   2.278  -0.843  0.8874  0.6593 -1.3762
  287MOL0     H38712   7.371   2.104  -0.878 -2.3816 -0.3705  0.2123
  287MOL0     H38713   7.395   2.309  -1.093  0.1030  1.8823  0.6625
  287MOL0     H38714   7.522   2.244  -0.996 -1.9856  1.6357  3.6945
  287MOL0     H38715   7.328   2.038  -1.116  1.4679 -2.5336  0.1993
  287MOL0     H38716   7.488   2.013  -1.060  0.8155 -0.4239 -1.5759
  287MOL0     H38717   7.551   2.195  -1.238 -0.7930  0.9651 -2.3183
  287MOL0     H38718   7.388   2.158  -1.301  0.7583 -1.5723 -1.6721
  287MOL0     H38719   7.448   1.937  -1.359 -0.4354  1.4787 -2.9278
  287MOL0     H38720   7.556   2.049  -1.428  3.1475 -1.5993  0.8544
  287MOL0     H38721   7.652   1.837  -1.334 -0.4954 -1.4760  3.4520
  287MOL0     H38722   7.639   1.898  -1.177  2.3752  1.0819  1.1166
  287MOL0     H38723   7.770   2.068  -1.395 -0.3005  4.1877  1.7907
  287MOL0     H38724   7.773   2.094  -1.226  0.2730 -0.3342 -0.2968
  287MOL0     H38725   6.944   2.189  -1.010  0.8883  0.0493 -0.2880
  287MOL0     H38726   6.711   2.133  -0.968 -0.6058 -2.3931  1.2820
  287MOL0     H38727   6.234   2.215  -0.922  1.6096  1.8657  0.9484
  287MOL0     H38728   6.017   2.099  -0.870  2.2434 -0.9495 -3.2469
  287MOL0     H38729   6.704   1.032   0.221  0.8043 -0.9531  0.8160
  287MOL0     H38730   6.931   0.956   0.279 -0.4702  1.0769 -0.1659
  287MOL0     H38731   7.207   0.521   0.209 -2.0485  2.2509 -2.3006
  287MOL0     H38732   7.422   0.406   0.191 -0.2397 -0.2402 -2.3932
  287MOL0     H38733   7.769   0.352   0.156  0.4990 -0.6911  1.2867
  287MOL0     H38734   7.617   0.350   0.236  0.0983 -0.8550  0.1699
  287MOL0     H38735   7.688   0.579   0.346  0.1818 -0.0721 -1.2171
  287MOL0     H38736   7.839   0.558   0.267  0.2732  0.9161  0.1359
  287MOL0     H38737   7.902   0.438   0.458  0.7910  0.4901 -3.0962
  287MOL0     H38738   7.815   0.303   0.389 -0.4592  1.1358 -1.7847
  287MOL0     H38739   7.769   0.366   0.641  1.3816  1.7326 -0.3487
  287MOL0     H38740   7.674   0.499   0.583 -1.0690 -1.2243  3.0418
  287MOL0     H38741   7.406   0.197   0.492  0.1975  1.3480  0.1253
  287MOL0     H38742   7.606   0.749   0.020 -1.2263  2.5192  1.5644
  287MOL0     H38743   7.307   0.911  -0.061  0.1280 -1.4830  0.4097
  287MOL0     H38744   7.386   0.975   0.085 -1.6942  2.2053 -0.9895
  287MOL0     H38745   7.470   0.910  -0.070  0.5535 -2.5041  0.3314
  288MOL0     O38746   0.201   1.420   2.912 -0.4416  1.4779  0.5771
  288MOL0     C38747   0.262   1.308   2.916  1.0430  0.4586 -0.2159
  288MOL0     O38748   0.394   1.288   2.873  0.6473  0.4293  0.6567
  288MOL0     C38749   0.492   1.381   2.844  0.1889 -0.0253 -1.4722
  288MOL0     C38750   0.617   1.333   2.815  0.4961 -0.7579  0.3301
  288MOL0     C38751   0.726   1.414   2.774 -0.6487 -0.5823  0.2131
  288MOL0     C38752   0.712   1.550   2.786  0.3582  0.2466 -0.4690
  288MOL0     O38753   0.822   1.627   2.776 -0.5905  0.2776  0.0495
  288MOL0     C38754   0.828   1.766   2.765 -0.0268  0.6555 -0.5464
  288MOL0     C38755   0.971   1.805   2.729 -0.2230 -0.0594 -0.0402
  288MOL0     C38756   1.061   1.839   2.849 -0.1102  0.0713 -0.2531
  288MOL0     C38757   1.207   1.797   2.835  0.0028 -0.3590 -0.1041
  288MOL0     C38758   1.278   1.808   2.973  0.1724 -1.0116 -0.1842
  288MOL0     C38759   1.431   1.753   2.959  0.3899 -0.6102 -0.1336
  288MOL0     C38760   1.511   1.808   3.078 -0.3281  0.9357  0.0568
  288MOL0     C38761   1.645   1.739   3.067  0.5789 -0.0403 -0.2989
  288MOL0     N38762   1.736   1.783   3.170 -0.0571 -1.2008 -0.1331
  288MOL0     C38763   1.862   1.836   3.155  0.4461 -0.0766  0.5391
  288MOL0     C38764   1.893   1.891   3.268  0.0627 -1.0043  0.3796
  288MOL0     C38765   2.023   1.977   3.288 -0.5347 -0.0930  0.2803
  288MOL0     C38766   2.130   1.874   3.321 -1.2766  0.0138  0.0616
  288MOL0     C38767   2.261   1.944   3.343  0.1621 -0.2003 -0.2934
  288MOL0     C38768   2.366   1.851   3.395  0.9301  0.4528 -0.4436
  288MOL0     O38769   2.480   1.925   3.432 -0.2866 -0.4579 -0.3805
  288MOL0     C38770   2.600   1.880   3.482 -0.0468  0.4409  0.7406
  288MOL0     C38771   2.712   1.964   3.490  0.2492 -0.5624  0.2045
  288MOL0     C38772   2.836   1.926   3.537 -0.0578 -0.5318  0.0928
  288MOL0     C38773   2.861   1.795   3.572 -0.5800  0.1735  0.1091
  288MOL0     C38774   2.999   1.751   3.613  0.7046 -0.1355 -0.7167
  288MOL0     O38775   3.027   1.618   3.630 -0.7387 -0.4003 -0.7477
  288MOL0     C38776   3.153   1.577   3.664 -0.1514 -0.2190 -0.3956
  288MOL0     C38777   3.215   1.480   3.586 -0.8766  0.8418  0.1189
  288MOL0     C38778   3.336   1.421   3.626  0.1062  0.2023 -0.1113
  288MOL0     C38779   3.401   1.454   3.752  0.1306  0.4187  0.6765
  288MOL0     O38780   3.515   1.394   3.811 -0.8776 -0.0748  0.9496
  288MOL0     C38781   3.606   1.320   3.718 -1.1267  0.2709  0.5352
  288MOL0     C38782   3.664   1.197   3.788 -0.5379 -0.1691  0.1064
  288MOL0     C38783   3.769   1.247   3.887  0.9040 -0.3064 -0.2033
  288MOL0     C38784   3.801   1.140   3.981  0.1399 -0.6228 -0.1492
  288MOL0     C38785   3.884   1.179   4.095 -0.0122 -0.2647  0.2564
  288MOL0     C38786   4.031   1.193   4.049  0.1929  0.0072  0.0025
  288MOL0     C38787   4.126   1.205   4.174 -0.1242 -0.3314 -0.5516
  288MOL0     C38788   4.277   1.224   4.138  1.1532  0.1664  0.2902
  288MOL0    Cl38789   4.377   1.181   4.283  0.2104 -0.4327  0.2236
  288MOL0     C38790   3.342   1.554   3.825  0.7676 -0.3865 -0.8877
  288MOL0     C38791   3.216   1.615   3.783 -0.2430  0.2145  0.4087
  288MOL0     O38792   3.080   1.839   3.630  0.7079  0.2454  0.2313
  288MOL0     C38793   2.749   1.709   3.575  0.0553  0.2308  0.3457
  288MOL0     C38794   2.622   1.745   3.533  0.5973  0.0794  0.4949
  288MOL0     N38795   1.797   1.860   3.360  0.4612 -0.2306 -0.3092
  288MOL0     N38796   1.702   1.798   3.301  0.1399 -0.0818 -0.5535
  288MOL0     C38797   0.584   1.601   2.814 -0.1891 -0.3246 -0.4704
  288MOL0     C38798   0.474   1.518   2.839  0.0855  0.1498  1.1351
  288MOL0     C38799   0.176   1.191   2.946  0.0989 -0.4081 -0.0756
  288MOL0     C38800   0.233   1.063   2.925  0.1686 -0.0895 -0.2282
  288MOL0     C38801   0.165   0.947   2.945  0.0910  0.4173 -0.7421
  288MOL0     C38802   0.028   0.946   2.978  0.0206 -0.5046 -1.0100
  288MOL0     O38803  -0.056   0.837   2.982  0.3974  0.6527 -0.0294
  288MOL0     C38804   0.006   0.718   3.026  0.5699  0.1991 -0.0955
  288MOL0     C38805  -0.110   0.623   3.055  0.3427 -0.0907  0.5968
  288MOL0     C38806  -0.200   0.597   2.936  0.0045 -0.6613 -0.1864
  288MOL0     C38807  -0.291   0.476   2.959  0.1114 -0.1771  0.0862
  288MOL0     C38808  -0.374   0.497   3.077 -0.5242 -0.1020  0.4621
  288MOL0     C38809  -0.432   0.530   3.176 -0.4433 -0.1872 -0.2263
  288MOL0     C38810  -0.027   1.069   3.015 -0.7097 -0.9118 -0.3527
  288MOL0     C38811   0.041   1.194   3.003 -0.7151  0.4971 -0.3671
  288MOL0     C38812  -0.046   1.310   3.052 -0.4667 -0.3670 -0.9707
  288MOL0     H38813   0.633   1.226   2.830 -0.0475 -0.9414 -0.3451
  288MOL0     H38814   0.828   1.377   2.769 -0.7823 -1.2964  2.1838
  288MOL0     H38815   0.762   1.792   2.682  0.0037  0.4929 -0.6206
  288MOL0     H38816   0.794   1.823   2.853  3.2302  2.4581 -0.2721
  288MOL0     H38817   0.967   1.900   2.674  1.2806 -0.9752 -1.8747
  288MOL0     H38818   1.026   1.735   2.665  0.9628  0.9016 -0.1279
  288MOL0     H38819   1.026   1.796   2.943  2.0369 -0.1368  0.5217
  288MOL0     H38820   1.057   1.948   2.862 -0.1030  0.1839 -1.1341
  288MOL0     H38821   1.205   1.690   2.810 -1.3843 -0.2930 -0.3917
  288MOL0     H38822   1.266   1.846   2.758 -0.3020  1.1971  0.6207
  288MOL0     H38823   1.279   1.915   2.995  3.5702 -0.5360 -2.0254
  288MOL0     H38824   1.236   1.750   3.056  2.8292  0.3413  2.2714
  288MOL0     H38825   1.430   1.645   2.943 -0.9083 -0.6005 -0.2497
  288MOL0     H38826   1.484   1.795   2.873  0.7522  0.0237  0.3975
  288MOL0     H38827   1.442   1.778   3.158 -0.4559 -2.2311 -1.0912
  288MOL0     H38828   1.526   1.916   3.073 -0.8123  0.9399 -2.4674
  288MOL0     H38829   1.619   1.634   3.077 -2.0908  0.5948  0.1872
  288MOL0     H38830   1.691   1.761   2.970  1.5489 -1.0853 -0.0946
  288MOL0     H38831   1.928   1.847   3.070  2.1365 -0.7633  1.7023
  288MOL0     H38832   2.046   2.032   3.197  0.6760 -3.1309 -1.4007
  288MOL0     H38833   2.014   2.045   3.373 -3.2084  1.6775 -1.2731
  288MOL0     H38834   2.103   1.837   3.420 -0.0163 -1.4094 -0.0959
  288MOL0     H38835   2.133   1.789   3.252 -0.5465  0.1406 -0.0708
  288MOL0     H38836   2.252   2.018   3.424  2.6119  0.6124 -0.6958
  288MOL0     H38837   2.285   1.998   3.251  1.6528  1.8061  1.1854
  288MOL0     H38838   2.398   1.791   3.309  0.9693 -2.0917  1.2528
  288MOL0     H38839   2.331   1.773   3.463 -1.1871 -0.6067 -2.5818
  288MOL0     H38840   2.700   2.065   3.451  1.5432 -0.2935  0.4678
  288MOL0     H38841   2.920   1.994   3.527  2.6928 -3.8742 -1.5825
  288MOL0     H38842   3.164   1.442   3.498  1.9766 -2.2961 -0.3493
  288MOL0     H38843   3.382   1.342   3.567  0.7768  1.9640 -2.0442
  288MOL0     H38844   3.564   1.291   3.621  0.8555  0.3384 -0.3878
  288MOL0     H38845   3.682   1.392   3.688 -1.7672  0.4306 -0.8004
  288MOL0     H38846   3.580   1.142   3.832 -1.8615  0.4754 -1.4919
  288MOL0     H38847   3.721   1.143   3.712 -0.3420 -0.1275  0.2235
  288MOL0     H38848   3.854   1.282   3.828  3.5096 -1.1920  2.7880
  288MOL0     H38849   3.730   1.333   3.942  1.1350 -0.9117  0.9311
  288MOL0     H38850   3.826   1.048   3.926 -0.7418 -1.3524  0.6467
  288MOL0     H38851   3.706   1.116   4.030 -0.1697 -0.6690 -0.7645
  288MOL0     H38852   3.889   1.093   4.163  0.4776  0.4368  1.1255
  288MOL0     H38853   3.847   1.265   4.151 -0.6129 -0.7727  0.6485
  288MOL0     H38854   4.062   1.102   3.997  0.3323 -1.2229  2.1355
  288MOL0     H38855   4.042   1.284   3.989 -1.7366  1.3542  1.5672
  288MOL0     H38856   4.118   1.117   4.238  0.1716 -1.3915 -1.9148
  288MOL0     H38857   4.099   1.295   4.230  0.9861 -0.1542 -0.2738
  288MOL0     H38858   4.290   1.150   4.059  0.2915 -0.2831  0.5610
  288MOL0     H38859   4.293   1.326   4.101 -2.8317  1.5134  1.6759
  288MOL0     H38860   3.378   1.590   3.921 -1.0572 -2.9850  0.9054
  288MOL0     H38861   3.178   1.695   3.845  2.7006  2.1280 -0.0956
  288MOL0     H38862   2.770   1.611   3.615  3.2913  0.5430 -0.3059
  288MOL0     H38863   2.543   1.671   3.533  1.1786 -0.5959 -1.4876
  288MOL0     H38864   0.571   1.708   2.826  2.4660  0.2797 -2.0108
  288MOL0     H38865   0.382   1.569   2.865  1.2130  3.3432 -0.5533
  288MOL0     H38866   0.337   1.045   2.896  0.5779 -1.3779  1.8326
  288MOL0     H38867   0.205   0.849   2.923 -0.5264  0.1819 -0.8350
  288MOL0     H38868   0.069   0.737   3.113  1.7905 -0.1319 -0.8909
  288MOL0     H38869   0.077   0.677   2.954  1.4980  0.9601  0.3565
  288MOL0     H38870  -0.170   0.657   3.140  0.8174  1.9702  0.1756
  288MOL0     H38871  -0.061   0.527   3.071  2.1637  0.3394 -1.8147
  288MOL0     H38872  -0.146   0.577   2.842  2.5894  0.8520  0.8698
  288MOL0     H38873  -0.263   0.686   2.923  1.1397  0.2542  0.3873
  288MOL0     H38874  -0.359   0.457   2.876 -0.4250 -1.3305  0.7547
  288MOL0     H38875  -0.237   0.382   2.975  0.3000 -0.3787 -1.5567
  288MOL0     H38876  -0.494   0.565   3.256 -1.3849  1.2370 -1.5254
  288MOL0     H38877  -0.131   1.061   3.044 -1.9975 -2.3300 -4.6659
  288MOL0     H38878  -0.036   1.320   3.160 -0.1429 -5.1587 -0.3572
  288MOL0     H38879  -0.021   1.405   3.002 -1.5649  1.4319  1.6775
  288MOL0     H38880  -0.153   1.290   3.040 -0.2547 -2.2135 -0.0471
  289MOL0     O38881   2.611   9.453   4.768  0.2763 -0.0425  0.2076
  289MOL0     C38882   2.553   9.558   4.797 -1.2956  0.8524  0.2977
  289MOL0     O38883   2.612   9.663   4.851  0.2385  0.0862 -0.2290
  289MOL0     C38884   2.746   9.660   4.870 -0.2653 -0.0195  0.3562
  289MOL0     C38885   2.786   9.684   4.998  0.7306  0.5369  0.5441
  289MOL0     C38886   2.920   9.686   5.033 -0.3645  0.6090  0.4195
  289MOL0     C38887   3.018   9.660   4.941  0.0695  0.1526  0.4108
  289MOL0     O38888   3.152   9.659   4.968  0.0821 -0.7554  0.3914
  289MOL0     C38889   3.192   9.720   5.094 -0.5085 -0.2509  0.3791
  289MOL0     C38890   3.340   9.756   5.085  0.4710  0.2625  0.4127
  289MOL0     C38891   3.431   9.638   5.105 -0.6972 -0.2268  0.4605
  289MOL0     C38892   3.428   9.528   4.998 -0.0393  0.9590 -0.7214
  289MOL0     C38893   3.529   9.421   5.018 -0.3735  0.0005  0.2577
  289MOL0     C38894   3.514   9.305   4.915  0.4473  0.1483 -0.3956
  289MOL0     C38895   3.632   9.201   4.920  0.0648 -0.4421  0.2846
  289MOL0     C38896   3.655   9.143   5.057  0.6844  0.0065  0.3814
  289MOL0     N38897   3.765   9.051   5.069  0.8538  0.0964  0.6756
  289MOL0     C38898   3.762   8.926   5.009  0.2849  0.3099 -1.2253
  289MOL0     C38899   3.888   8.883   5.012 -0.1207  0.1829 -0.0401
  289MOL0     C38900   3.958   8.759   4.957 -1.0910  0.2439  0.6920
  289MOL0     C38901   3.945   8.752   4.806 -0.4293  0.2186  0.9940
  289MOL0     C38902   4.029   8.630   4.754  0.4350 -0.5031 -0.0958
  289MOL0     C38903   4.172   8.662   4.700  0.2011  0.5120 -0.6884
  289MOL0     O38904   4.166   8.781   4.622  0.0584  0.6592  0.5648
  289MOL0     C38905   4.282   8.824   4.554  0.0169 -0.1413  0.0958
  289MOL0     C38906   4.267   8.929   4.460 -0.4585 -0.1845  0.7545
  289MOL0     C38907   4.376   8.987   4.388  0.5444  0.1773 -0.4614
  289MOL0     C38908   4.503   8.939   4.419 -0.3091  0.2544 -0.1019
  289MOL0     C38909   4.630   8.993   4.359  0.1188  0.0074 -0.5652
  289MOL0     O38910   4.746   8.966   4.418 -0.3985  0.0018  0.1887
  289MOL0     C38911   4.859   9.018   4.356 -0.2051 -0.2974  0.3081
  289MOL0     C38912   4.913   8.951   4.240  0.3053 -0.1642  0.3568
  289MOL0     C38913   5.027   9.002   4.180 -0.5165  0.4303 -0.6700
  289MOL0     C38914   5.103   9.098   4.244  0.6436 -0.3409 -0.0396
  289MOL0     O38915   5.211   9.152   4.187  0.5513 -0.7965 -0.0720
  289MOL0     C38916   5.301   9.056   4.131  0.5804 -0.1159 -0.6598
  289MOL0     C38917   5.444   9.105   4.127 -0.8335 -0.2957 -0.2420
  289MOL0     C38918   5.490   9.117   4.273  0.1351 -0.5206  0.1377
  289MOL0     C38919   5.635   9.169   4.296  0.7839 -0.9449  0.4150
  289MOL0     C38920   5.743   9.118   4.200 -0.9199 -0.6491  0.4633
  289MOL0     C38921   5.883   9.149   4.260  0.0375 -1.1420  0.0673
  289MOL0     C38922   6.003   9.157   4.168 -0.2769 -0.8116  0.4184
  289MOL0     C38923   6.145   9.132   4.222  0.8244 -0.4894 -0.3593
  289MOL0    Cl38924   6.190   9.273   4.311  0.1910  0.0581  0.1539
  289MOL0     C38925   5.067   9.146   4.367  0.0233 -0.0130 -0.4034
  289MOL0     C38926   4.942   9.105   4.432  0.2702 -0.2529 -0.5730
  289MOL0     O38927   4.614   9.065   4.261  0.1596 -0.1993  0.2489
  289MOL0     C38928   4.519   8.825   4.502 -0.2745 -0.1492  0.3508
  289MOL0     C38929   4.411   8.768   4.565  0.5623  0.2464  0.0030
  289MOL0     N38930   3.968   8.981   5.064 -0.0970 -0.4609 -0.7496
  289MOL0     N38931   3.893   9.083   5.097 -0.5905  0.2113 -0.1129
  289MOL0     C38932   2.972   9.631   4.807  0.2859 -0.2412 -0.5229
  289MOL0     C38933   2.835   9.631   4.771 -0.5161  0.7685 -0.0635
  289MOL0     C38934   2.409   9.570   4.752 -0.5765 -0.2052 -0.2937
  289MOL0     C38935   2.363   9.696   4.739  0.9212 -0.0504 -0.8899
  289MOL0     C38936   2.223   9.712   4.717  0.1788 -0.4845  0.4735
  289MOL0     C38937   2.135   9.601   4.697 -0.1270 -0.4509 -0.4544
  289MOL0     O38938   1.999   9.645   4.683 -0.1651  0.0124 -0.0486
  289MOL0     C38939   1.917   9.565   4.603  0.6581  0.5170  0.2459
  289MOL0     C38940   1.819   9.488   4.700 -0.2932  0.1958  0.0523
  289MOL0     C38941   1.799   9.354   4.637  0.3464 -0.3813 -0.3604
  289MOL0     C38942   1.706   9.274   4.729  1.2611 -0.7338  0.2068
  289MOL0     C38943   1.573   9.341   4.735 -0.1975  0.2063  0.3838
  289MOL0     C38944   1.475   9.410   4.746 -0.4334  0.5971 -0.7601
  289MOL0     C38945   2.190   9.477   4.703 -0.8612 -0.3811  0.8266
  289MOL0     C38946   2.326   9.455   4.728  0.1773  0.0675 -0.2776
  289MOL0     C38947   2.382   9.309   4.738  0.4608 -0.3534  0.5990
  289MOL0     H38948   2.708   9.707   5.070 -2.1715  0.5163 -2.3481
  289MOL0     H38949   2.943   9.712   5.136 -2.2975  0.6701  0.8723
  289MOL0     H38950   3.135   9.809   5.123 -0.0256 -0.1082  0.9304
  289MOL0     H38951   3.180   9.644   5.172  3.5136 -2.5642 -0.9383
  289MOL0     H38952   3.355   9.834   5.161 -3.2302  0.6714  0.9265
  289MOL0     H38953   3.365   9.796   4.986 -2.1514 -1.9925 -1.3069
  289MOL0     H38954   3.423   9.609   5.210 -0.0980  0.5609  0.7315
  289MOL0     H38955   3.533   9.677   5.109 -1.3950  1.5898  2.2751
  289MOL0     H38956   3.332   9.478   5.011  1.9096 -2.6829  1.4870
  289MOL0     H38957   3.436   9.568   4.896  1.5389 -0.9455 -1.4082
  289MOL0     H38958   3.625   9.472   5.010  0.5466 -1.6301  0.5120
  289MOL0     H38959   3.510   9.384   5.120 -3.0413  0.9987  0.1915
  289MOL0     H38960   3.421   9.249   4.923  1.4020 -1.4560 -0.0896
  289MOL0     H38961   3.513   9.343   4.812 -2.4859  2.6234  0.3999
  289MOL0     H38962   3.719   9.256   4.884 -0.3900 -0.2415 -0.5244
  289MOL0     H38963   3.608   9.121   4.850  2.5896 -0.5021 -0.6226
  289MOL0     H38964   3.685   9.214   5.136 -0.9672 -2.5749  3.5581
  289MOL0     H38965   3.563   9.091   5.084  0.0802  0.4719 -0.7289
  289MOL0     H38966   3.675   8.876   4.968  1.4069 -1.4968 -1.5027
  289MOL0     H38967   4.065   8.770   4.980 -1.2788  1.3375  1.1016
  289MOL0     H38968   3.911   8.679   5.015 -1.2827  0.5352  0.9413
  289MOL0     H38969   3.838   8.739   4.784 -0.2788  2.0080 -1.2982
  289MOL0     H38970   3.977   8.851   4.769  1.5022 -0.7859 -0.2050
  289MOL0     H38971   3.984   8.586   4.664 -2.1118  2.2565 -0.3415
  289MOL0     H38972   4.030   8.557   4.835  0.3214 -0.5435 -0.1318
  289MOL0     H38973   4.201   8.576   4.640 -1.8730 -0.0221 -0.9959
  289MOL0     H38974   4.239   8.681   4.784 -1.2006  2.0146  0.1454
  289MOL0     H38975   4.167   8.970   4.457 -0.5169 -0.3885 -1.3822
  289MOL0     H38976   4.375   9.068   4.315  3.9013 -0.6728 -1.6379
  289MOL0     H38977   4.865   8.867   4.190  1.0461  1.3515 -3.2134
  289MOL0     H38978   5.054   8.947   4.090  2.5547 -0.9910  0.9668
  289MOL0     H38979   5.296   8.960   4.184 -1.3605 -0.2067 -0.9199
  289MOL0     H38980   5.265   9.037   4.029  2.4169 -2.9000 -0.8925
  289MOL0     H38981   5.517   9.037   4.081 -1.6143 -1.7973  0.6662
  289MOL0     H38982   5.439   9.202   4.076  1.5365  0.3294  0.5690
  289MOL0     H38983   5.423   9.191   4.318 -1.2469 -2.3621  1.2542
  289MOL0     H38984   5.467   9.024   4.325 -2.6111 -0.6347 -1.0956
  289MOL0     H38985   5.675   9.139   4.393  1.1729  1.1216  0.9390
  289MOL0     H38986   5.626   9.278   4.297  1.8837 -0.8492  1.4421
  289MOL0     H38987   5.734   9.173   4.106  0.3496  1.4852  1.4940
  289MOL0     H38988   5.739   9.012   4.176 -1.7554 -0.8573  1.4566
  289MOL0     H38989   5.879   9.244   4.315  2.8657  1.1069 -3.1901
  289MOL0     H38990   5.905   9.071   4.333  0.5239 -0.5797  0.5314
  289MOL0     H38991   6.002   9.248   4.108 -2.7192 -0.5376  0.7508
  289MOL0     H38992   5.977   9.085   4.089  0.6141  1.0708 -1.6955
  289MOL0     H38993   6.144   9.051   4.296 -1.8070 -0.5849 -0.3879
  289MOL0     H38994   6.214   9.113   4.139 -0.1170  3.3367 -2.2562
  289MOL0     H38995   5.135   9.217   4.413 -0.2338  0.4321 -0.6968
  289MOL0     H38996   4.912   9.135   4.532  0.0239 -1.6954 -0.1877
  289MOL0     H38997   4.615   8.777   4.518  1.6646  3.0025 -0.7671
  289MOL0     H38998   4.433   8.679   4.622  1.8021  1.2988  1.2533
  289MOL0     H38999   3.043   9.592   4.735 -1.2660 -0.1912 -2.1533
  289MOL0     H39000   2.809   9.591   4.673  1.9551 -0.0467 -0.4570
  289MOL0     H39001   2.423   9.786   4.746  0.9805 -0.1423 -0.1498
  289MOL0     H39002   2.179   9.811   4.708 -0.4173 -0.3255  3.9643
  289MOL0     H39003   1.978   9.497   4.543 -2.5555 -1.5596 -0.9076
  289MOL0     H39004   1.856   9.626   4.537 -0.4620 -0.0517  0.7289
  289MOL0     H39005   1.740   9.563   4.708  1.7547  2.3922  0.9376
  289MOL0     H39006   1.870   9.463   4.793  0.5108 -3.2136 -1.1339
  289MOL0     H39007   1.893   9.298   4.635  1.1248  0.8978 -0.6490
  289MOL0     H39008   1.768   9.361   4.533 -0.4074 -0.3506 -0.1363
  289MOL0     H39009   1.692   9.175   4.684  3.2423 -1.6005  1.3456
  289MOL0     H39010   1.750   9.260   4.828 -0.0677 -1.3482  0.7198
  289MOL0     H39011   1.387   9.471   4.758 -1.4253 -1.0888  1.2676
  289MOL0     H39012   2.131   9.388   4.683  2.8964 -2.6279 -1.4084
  289MOL0     H39013   2.458   9.288   4.662  0.3463 -3.2532  1.1520
  289MOL0     H39014   2.432   9.297   4.835 -0.2919  0.4959  1.1082
  289MOL0     H39015   2.295   9.244   4.726 -0.4422  1.0718 -0.8917
  290MOL0     O39016   0.955   3.502   9.631 -0.2292  0.1363 -0.6941
  290MOL0     C39017   0.913   3.580   9.547  0.2119 -0.0036  0.8596
  290MOL0     O39018   0.970   3.603   9.424 -0.6589  1.0813  0.1326
  290MOL0     C39019   1.083   3.535   9.385  1.0432  0.5437  0.2247
  290MOL0     C39020   1.148   3.592   9.272  0.0623 -1.0088 -1.0722
  290MOL0     C39021   1.267   3.543   9.214  0.9747 -1.2669 -0.8871
  290MOL0     C39022   1.331   3.428   9.265  0.9150  0.4202 -0.6139
  290MOL0     O39023   1.455   3.398   9.209  0.4956 -0.0007 -0.3171
  290MOL0     C39024   1.505   3.272   9.243 -0.7637  0.5511 -0.2372
  290MOL0     C39025   1.625   3.237   9.151  0.4815  0.6590 -0.0007
  290MOL0     C39026   1.759   3.261   9.207  0.0449 -0.9179  0.0429
  290MOL0     C39027   1.882   3.249   9.110  0.1693 -0.2356 -0.5664
  290MOL0     C39028   1.992   3.312   9.188  0.5179 -0.0809 -0.7934
  290MOL0     C39029   2.125   3.291   9.132 -1.8158  0.7736  0.1995
  290MOL0     C39030   2.235   3.360   9.198  0.1557 -0.2217 -0.2252
  290MOL0     C39031   2.364   3.321   9.124  0.5775  0.6142  0.1519
  290MOL0     N39032   2.484   3.399   9.159  0.6855  0.0930  0.2623
  290MOL0     C39033   2.527   3.509   9.095  0.6627  0.0234  0.4405
  290MOL0     C39034   2.633   3.557   9.165 -0.4616 -0.8763  0.2419
  290MOL0     C39035   2.714   3.677   9.151  0.4393  0.0699 -0.4327
  290MOL0     C39036   2.774   3.683   9.012 -0.5594  0.0664  0.0112
  290MOL0     C39037   2.856   3.558   8.958 -0.7723 -0.5350 -0.1680
  290MOL0     C39038   2.988   3.591   8.884 -0.4109 -0.0436 -0.2899
  290MOL0     O39039   3.042   3.464   8.846  0.8403 -0.7576  0.2744
  290MOL0     C39040   3.124   3.478   8.741 -0.0442 -0.5788 -0.7578
  290MOL0     C39041   3.091   3.532   8.619  0.1401 -0.3602  0.4527
  290MOL0     C39042   3.178   3.562   8.518  0.1263  1.2777 -0.3462
  290MOL0     C39043   3.316   3.520   8.539  1.0961 -0.3681  0.9034
  290MOL0     C39044   3.416   3.553   8.443  0.4950  0.3917  0.3410
  290MOL0     O39045   3.537   3.589   8.482 -1.1619  0.1594 -0.2716
  290MOL0     C39046   3.638   3.591   8.384 -0.0997 -0.3822 -0.1258
  290MOL0     C39047   3.706   3.712   8.360  0.3847  0.4852  0.2685
  290MOL0     C39048   3.812   3.716   8.270 -0.5149  0.6111  0.9321
  290MOL0     C39049   3.862   3.599   8.208  0.5490  0.4428 -0.1060
  290MOL0     O39050   3.963   3.589   8.117 -0.4077 -0.3552  0.6476
  290MOL0     C39051   4.043   3.706   8.083  0.3195 -0.7426  0.3574
  290MOL0     C39052   4.114   3.684   7.955 -0.0570  0.1752 -0.0529
  290MOL0     C39053   4.246   3.762   7.962 -0.1589 -0.2074 -0.5214
  290MOL0     C39054   4.229   3.912   7.977  0.5608  0.3393  0.5406
  290MOL0     C39055   4.368   3.983   7.951 -0.6917 -0.1772 -0.1525
  290MOL0     C39056   4.345   4.134   7.971  0.7886 -0.0365  0.5983
  290MOL0     C39057   4.474   4.213   7.982  0.0873  0.1914  0.2450
  290MOL0     C39058   4.546   4.233   7.848  0.0442  0.1834  0.7342
  290MOL0    Cl39059   4.713   4.278   7.846 -0.6143  0.1908 -0.1757
  290MOL0     C39060   3.808   3.472   8.240  0.7932 -0.3044 -1.3380
  290MOL0     C39061   3.696   3.469   8.329 -0.3286  0.0083  0.4282
  290MOL0     O39062   3.378   3.533   8.332  0.5029 -0.0266 -0.3512
  290MOL0     C39063   3.349   3.465   8.658  0.5181 -0.6872 -0.5182
  290MOL0     C39064   3.257   3.440   8.759 -0.0149 -0.6742 -0.2917
  290MOL0     N39065   2.651   3.469   9.267  0.3601 -0.1649 -0.5799
  290MOL0     N39066   2.566   3.375   9.263  0.4781 -0.2359  0.3967
  290MOL0     C39067   1.265   3.370   9.374 -0.5529 -0.4820  0.0315
  290MOL0     C39068   1.156   3.419   9.438  0.3948 -0.7152  0.0755
  290MOL0     C39069   0.789   3.647   9.567 -0.0244 -0.6395 -0.4782
  290MOL0     C39070   0.730   3.640   9.693 -0.5758  0.3982 -0.3041
  290MOL0     C39071   0.615   3.693   9.726  0.4690  0.3516 -0.5516
  290MOL0     C39072   0.544   3.777   9.642 -0.5281 -0.1294  0.3912
  290MOL0     O39073   0.430   3.848   9.686  0.4487  0.1917  0.7200
  290MOL0     C39074   0.410   3.980   9.628 -0.4010 -0.4008 -0.5183
  290MOL0     C39075   0.328   4.064   9.727 -0.3777  0.4371 -1.3953
  290MOL0     C39076   0.393   4.063   9.866  0.1962  0.3978  0.7201
  290MOL0     C39077   0.543   4.082   9.874  0.3543  0.3361  0.5148
  290MOL0     C39078   0.583   4.216   9.828  0.0920 -0.4164 -0.0378
  290MOL0     C39079   0.610   4.327   9.783 -0.2808 -0.1000  0.3022
  290MOL0     C39080   0.597   3.802   9.518 -0.6608  0.4777 -0.4852
  290MOL0     C39081   0.716   3.730   9.475 -0.4491 -0.3007  0.3059
  290MOL0     C39082   0.768   3.758   9.336 -0.9194  0.3066  0.8797
  290MOL0     H39083   1.112   3.682   9.223  1.2587 -1.0139 -1.9890
  290MOL0     H39084   1.325   3.609   9.150 -0.2102  2.0358  1.2025
  290MOL0     H39085   1.534   3.269   9.349  0.5704  0.6235 -0.5770
  290MOL0     H39086   1.430   3.193   9.229 -0.3015  0.2263 -0.9395
  290MOL0     H39087   1.622   3.295   9.058  3.9339  1.3304  0.1602
  290MOL0     H39088   1.621   3.130   9.126  0.0737 -0.1495  3.0685
  290MOL0     H39089   1.772   3.197   9.294  1.1359 -1.9844 -0.8690
  290MOL0     H39090   1.757   3.365   9.240  1.5101 -1.3688  1.7576
  290MOL0     H39091   1.903   3.144   9.089 -5.5604 -1.1414 -3.6816
  290MOL0     H39092   1.873   3.302   9.014  0.6655 -2.0193 -1.6348
  290MOL0     H39093   1.971   3.419   9.194 -2.8847 -0.6513 -0.4256
  290MOL0     H39094   1.991   3.272   9.289  2.7410  0.2904 -0.5818
  290MOL0     H39095   2.153   3.186   9.138  0.3564  1.2911 -0.0526
  290MOL0     H39096   2.118   3.312   9.025  1.2333  0.1134 -0.2316
  290MOL0     H39097   2.241   3.329   9.303  2.8291  0.2332 -0.1662
  290MOL0     H39098   2.225   3.468   9.192  0.7429 -0.0233  1.6595
  290MOL0     H39099   2.381   3.214   9.134 -1.1629  0.3488  0.5878
  290MOL0     H39100   2.357   3.343   9.017 -0.6381  3.0279  0.6433
  290MOL0     H39101   2.488   3.564   9.011  0.2119 -0.2548  0.4665
  290MOL0     H39102   2.650   3.763   9.173  0.9785  0.4519 -0.3457
  290MOL0     H39103   2.792   3.676   9.228 -0.3409 -1.3232  0.3881
  290MOL0     H39104   2.694   3.702   8.940 -2.2029 -1.4283  1.3789
  290MOL0     H39105   2.843   3.768   9.014 -0.7417  0.2150  1.9994
  290MOL0     H39106   2.790   3.502   8.892 -0.0395  0.9512 -2.2820
  290MOL0     H39107   2.891   3.506   9.048 -0.2702  0.8919  0.5059
  290MOL0     H39108   3.063   3.650   8.937 -3.2115  3.4917  0.1348
  290MOL0     H39109   2.951   3.653   8.802 -0.4162 -0.5353 -0.6605
  290MOL0     H39110   2.987   3.561   8.606  0.3889  1.0762  1.3727
  290MOL0     H39111   3.146   3.618   8.431  0.2451 -0.3614 -1.4889
  290MOL0     H39112   3.680   3.796   8.424  1.3517  1.2147 -0.2651
  290MOL0     H39113   3.865   3.809   8.254  3.1710 -1.3795  0.4274
  290MOL0     H39114   3.975   3.790   8.066  2.0699  0.6844  0.1704
  290MOL0     H39115   4.115   3.728   8.162 -2.5502 -0.3199  3.0754
  290MOL0     H39116   4.126   3.575   7.955 -0.2984  0.1130  1.6288
  290MOL0     H39117   4.063   3.734   7.872  0.6547  2.8500  1.0098
  290MOL0     H39118   4.311   3.723   8.040 -1.2613 -2.2691 -0.5493
  290MOL0     H39119   4.302   3.758   7.868  3.3126 -1.4340  1.4376
  290MOL0     H39120   4.190   3.938   8.076 -2.7864 -1.9499 -0.0022
  290MOL0     H39121   4.148   3.942   7.910  0.3046 -1.0461  0.1977
  290MOL0     H39122   4.408   3.963   7.851 -1.2732  0.8144 -0.5921
  290MOL0     H39123   4.431   3.942   8.030  0.9439 -0.0977 -1.3741
  290MOL0     H39124   4.280   4.174   7.893 -0.3299 -0.1939  1.4273
  290MOL0     H39125   4.282   4.148   8.059 -0.2051  2.3107 -0.4007
  290MOL0     H39126   4.546   4.151   8.036 -0.2104 -0.6480 -0.2951
  290MOL0     H39127   4.454   4.307   8.034  1.2141 -1.3736  3.7657
  290MOL0     H39128   4.544   4.137   7.795  0.6905  0.3389  0.4074
  290MOL0     H39129   4.491   4.315   7.800 -1.5315  0.2406  2.5452
  290MOL0     H39130   3.855   3.388   8.191 -1.5389 -1.3341 -1.9468
  290MOL0     H39131   3.657   3.371   8.354 -1.1969 -0.0652 -1.0685
  290MOL0     H39132   3.452   3.431   8.670 -0.1100 -1.7680  3.0916
  290MOL0     H39133   3.288   3.380   8.844 -1.6056 -1.3127 -0.1255
  290MOL0     H39134   1.310   3.283   9.422 -1.7799 -0.7419  0.7687
  290MOL0     H39135   1.118   3.385   9.534 -0.8612 -1.0070 -0.4979
  290MOL0     H39136   0.780   3.580   9.768  1.1994 -0.4382 -2.0644
  290MOL0     H39137   0.578   3.673   9.826 -0.4986 -1.8358 -1.2895
  290MOL0     H39138   0.360   3.972   9.532 -0.0078  0.5281 -0.8143
  290MOL0     H39139   0.511   4.021   9.620 -0.6871  0.5204  0.3363
  290MOL0     H39140   0.225   4.025   9.729 -0.8531  1.4994  2.5155
  290MOL0     H39141   0.328   4.166   9.689 -1.4814 -0.1259 -3.0462
  290MOL0     H39142   0.360   3.965   9.902 -1.1902  0.7288  0.4310
  290MOL0     H39143   0.355   4.146   9.927  0.8578  0.8762  0.4956
  290MOL0     H39144   0.580   4.054   9.974  1.6543 -0.4466 -0.1486
  290MOL0     H39145   0.588   4.002   9.815 -0.4198 -0.4006  0.9090
  290MOL0     H39146   0.633   4.422   9.740 -0.9383  0.3605  0.9449
  290MOL0     H39147   0.551   3.867   9.444 -0.1272  3.5551  1.7011
  290MOL0     H39148   0.692   3.818   9.286  1.1188  0.8124 -1.8927
  290MOL0     H39149   0.865   3.810   9.336 -0.4088 -0.5976 -0.3347
  290MOL0     H39150   0.772   3.663   9.282 -1.3132  0.6271  0.2737
  291MOL0     O39151   5.444   6.995   6.482 -0.0355 -0.4359 -0.1774
  291MOL0     C39152   5.419   7.118   6.492  0.1694  0.1100  0.4344
  291MOL0     O39153   5.518   7.209   6.473  0.4630 -0.1963 -0.3404
  291MOL0     C39154   5.651   7.187   6.461  0.3094  0.8244 -0.0373
  291MOL0     C39155   5.740   7.267   6.527 -0.8127 -1.2259 -0.1748
  291MOL0     C39156   5.877   7.245   6.522 -1.1954  0.3634 -0.2183
  291MOL0     C39157   5.933   7.141   6.446  0.3601  0.1481 -0.1043
  291MOL0     O39158   6.066   7.103   6.449  0.2138  0.5424  0.0557
  291MOL0     C39159   6.155   7.182   6.536  1.1108  0.0311  0.8129
  291MOL0     C39160   6.291   7.109   6.536  0.4800 -0.5870 -0.5412
  291MOL0     C39161   6.352   7.091   6.403  0.6141 -0.3889 -0.6667
  291MOL0     C39162   6.495   7.062   6.406 -0.0932 -0.0150 -0.1962
  291MOL0     C39163   6.584   7.177   6.464 -0.1461 -0.4546  0.3104
  291MOL0     C39164   6.544   7.308   6.403 -0.1096 -0.5003  0.7985
  291MOL0     C39165   6.655   7.401   6.424 -0.3714 -0.6536 -0.1235
  291MOL0     C39166   6.638   7.507   6.322  0.2288 -0.3375 -0.4298
  291MOL0     N39167   6.746   7.597   6.351  0.0735  0.2236 -0.0373
  291MOL0     C39168   6.871   7.597   6.296 -0.1631  0.4201 -0.0432
  291MOL0     C39169   6.919   7.727   6.314  0.0862  0.3197 -1.1638
  291MOL0     C39170   7.038   7.790   6.269 -1.3061  0.0669  0.1388
  291MOL0     C39171   7.004   7.894   6.155 -0.2348 -0.1575 -0.4732
  291MOL0     C39172   7.140   7.931   6.094  0.7017  0.2673 -0.1222
  291MOL0     C39173   7.144   8.078   6.042  0.0055  0.1065 -0.9185
  291MOL0     O39174   7.266   8.096   5.974 -0.1386 -0.1717 -0.5407
  291MOL0     C39175   7.367   8.175   6.023  0.2802 -0.4007  0.1761
  291MOL0     C39176   7.372   8.244   6.145 -0.4912 -1.4073 -0.1363
  291MOL0     C39177   7.492   8.322   6.174  0.3624  0.2851  0.0877
  291MOL0     C39178   7.611   8.314   6.096 -0.0632  0.6743  0.2882
  291MOL0     C39179   7.745   8.370   6.138 -0.4821 -0.2763  0.2673
  291MOL0     O39180   7.864   8.307   6.089  0.0449  0.1836  0.1313
  291MOL0     C39181   7.978   8.369   6.122 -0.2399  0.2382  0.1682
  291MOL0     C39182   8.071   8.313   6.221  0.8611  0.4306  0.8110
  291MOL0     C39183   8.182   8.382   6.263 -0.1523  0.8121 -0.6037
  291MOL0     C39184   8.220   8.502   6.198  1.3294  0.1313 -0.8629
  291MOL0     O39185   8.346   8.563   6.223  0.5297 -0.2640 -0.1211
  291MOL0     C39186   8.430   8.505   6.326  0.4018 -0.6620  0.8176
  291MOL0     C39187   8.541   8.605   6.365 -0.3634 -0.1461  0.0440
  291MOL0     C39188   8.638   8.537   6.472  0.1117  0.7656  0.2021
  291MOL0     C39189   8.749   8.627   6.526 -0.7577 -0.0718  0.2231
  291MOL0     C39190   8.837   8.552   6.628  0.1198 -0.5643 -0.4219
  291MOL0     C39191   8.977   8.616   6.651 -0.1310 -0.1380 -0.0283
  291MOL0     C39192   9.072   8.588   6.535  0.4714  0.3314 -0.2097
  291MOL0     C39193   9.215   8.639   6.550  0.5982  0.4288 -0.0980
  291MOL0    Cl39194   9.300   8.574   6.690  0.4187  0.3788  0.1575
  291MOL0     C39195   8.141   8.549   6.091  0.0944  0.0533 -0.2933
  291MOL0     C39196   8.031   8.482   6.049  0.5723 -0.5891 -1.0233
  291MOL0     O39197   7.748   8.462   6.216 -0.1184  0.7606  0.0811
  291MOL0     C39198   7.598   8.235   5.979 -0.3052 -0.0110  0.3535
  291MOL0     C39199   7.476   8.171   5.943  0.0999 -0.2816  0.3453
  291MOL0     N39200   6.819   7.798   6.394  0.1558 -0.8734  1.2006
  291MOL0     N39201   6.722   7.715   6.408 -0.3054  0.3153 -0.2780
  291MOL0     C39202   5.838   7.054   6.376 -0.0812 -0.6354 -0.0215
  291MOL0     C39203   5.702   7.086   6.376  1.0815 -0.6764  0.3061
  291MOL0     C39204   5.279   7.159   6.517 -0.6434 -0.4628  0.7693
  291MOL0     C39205   5.182   7.079   6.455 -1.1971  0.1421 -0.0579
  291MOL0     C39206   5.044   7.107   6.472 -0.2938  0.3480  0.2073
  291MOL0     C39207   5.006   7.211   6.559  0.3350 -0.3128  0.8765
  291MOL0     O39208   4.879   7.251   6.578  0.6988  0.0505  1.0106
  291MOL0     C39209   4.768   7.165   6.529 -0.0197  0.2776  0.3612
  291MOL0     C39210   4.648   7.250   6.515  0.2975  0.5809 -0.0948
  291MOL0     C39211   4.568   7.278   6.650 -0.8930 -0.3736 -0.5179
  291MOL0     C39212   4.464   7.390   6.634 -1.2044 -0.0198  0.1911
  291MOL0     C39213   4.537   7.516   6.641  0.6091 -1.1562  0.2568
  291MOL0     C39214   4.605   7.618   6.637 -0.1517  0.4647 -0.2281
  291MOL0     C39215   5.102   7.289   6.620 -0.2243  0.0742  0.2834
  291MOL0     C39216   5.239   7.269   6.605 -1.0864  0.6665  0.7904
  291MOL0     C39217   5.337   7.352   6.689  0.4498  0.0526  0.4650
  291MOL0     H39218   5.704   7.355   6.581  1.2051  0.3174 -1.2150
  291MOL0     H39219   5.940   7.315   6.577  0.0956 -0.3092 -0.8027
  291MOL0     H39220   6.167   7.281   6.490  1.8819 -0.7108 -0.6533
  291MOL0     H39221   6.125   7.182   6.641 -0.1941  2.6923  0.5268
  291MOL0     H39222   6.283   7.011   6.584  2.2646 -1.1807 -1.3675
  291MOL0     H39223   6.355   7.157   6.610 -1.0131 -0.6760  0.8728
  291MOL0     H39224   6.322   7.177   6.342 -0.2625  0.2225  0.5887
  291MOL0     H39225   6.305   7.002   6.359 -2.4261  1.8873 -2.4843
  291MOL0     H39226   6.522   6.968   6.457 -3.4062 -0.6868  0.5553
  291MOL0     H39227   6.521   7.057   6.300  1.5756  2.5360  0.0185
  291MOL0     H39228   6.574   7.180   6.572 -2.2639 -1.0753  0.1727
  291MOL0     H39229   6.691   7.157   6.447  1.0212  3.3821  2.0475
  291MOL0     H39230   6.519   7.292   6.297 -1.9685  3.1944  0.5288
  291MOL0     H39231   6.451   7.356   6.435 -0.1007  1.5007 -1.7736
  291MOL0     H39232   6.750   7.351   6.402  0.4329  1.1708 -1.0822
  291MOL0     H39233   6.656   7.436   6.527 -1.0374 -2.3910  0.5185
  291MOL0     H39234   6.640   7.468   6.220  0.9509  1.2909 -1.0697
  291MOL0     H39235   6.549   7.566   6.344  0.2251 -0.2812 -0.5984
  291MOL0     H39236   6.905   7.520   6.228 -0.8211  2.6130 -3.0918
  291MOL0     H39237   7.076   7.851   6.352 -1.5108  1.2145 -0.5806
  291MOL0     H39238   7.111   7.717   6.234 -1.1908  0.6275 -0.8208
  291MOL0     H39239   6.954   7.843   6.072 -0.7184  0.9542 -0.8850
  291MOL0     H39240   6.944   7.979   6.189  0.2371 -1.0344  2.8218
  291MOL0     H39241   7.154   7.860   6.011 -0.5742 -3.5441  2.6571
  291MOL0     H39242   7.212   7.913   6.174 -3.2496 -0.7213  3.5791
  291MOL0     H39243   7.121   8.139   6.129 -0.7055 -1.4858  0.0613
  291MOL0     H39244   7.062   8.097   5.971 -1.4296  1.9285  1.0990
  291MOL0     H39245   7.289   8.245   6.214  0.1654  0.9640  0.7108
  291MOL0     H39246   7.496   8.381   6.265  1.0112  0.7821 -0.2608
  291MOL0     H39247   8.048   8.217   6.265 -0.3846  1.3450  2.2343
  291MOL0     H39248   8.234   8.343   6.350  0.6426 -0.1439 -1.4750
  291MOL0     H39249   8.369   8.479   6.413  0.4782 -1.9361  0.5096
  291MOL0     H39250   8.472   8.415   6.280  3.2187  0.5794  0.7613
  291MOL0     H39251   8.586   8.642   6.272 -2.1570  2.2544  0.0530
  291MOL0     H39252   8.502   8.698   6.407  1.1283  1.6022 -2.2345
  291MOL0     H39253   8.588   8.501   6.563  1.3794  0.7298  0.9138
  291MOL0     H39254   8.674   8.444   6.428  1.6658  0.0889  2.7086
  291MOL0     H39255   8.714   8.721   6.571  3.3825  0.4824  2.8753
  291MOL0     H39256   8.814   8.654   6.443  3.8958 -0.3578  3.3630
  291MOL0     H39257   8.847   8.449   6.593  0.0282 -1.0903  1.0234
  291MOL0     H39258   8.790   8.549   6.727  0.9346  0.7511  0.0320
  291MOL0     H39259   8.970   8.725   6.658 -2.0250  0.0385 -2.9508
  291MOL0     H39260   9.019   8.568   6.740  0.4395  0.6860  0.1683
  291MOL0     H39261   9.040   8.637   6.442 -1.7306 -1.6002 -0.5606
  291MOL0     H39262   9.071   8.482   6.507  0.5518 -0.6853  3.2207
  291MOL0     H39263   9.271   8.611   6.460 -0.0130  0.0103 -0.3592
  291MOL0     H39264   9.212   8.748   6.549  2.0407  0.5309  1.7595
  291MOL0     H39265   8.173   8.643   6.047 -0.7394  0.1804 -0.6304
  291MOL0     H39266   7.980   8.529   5.965  1.6586  1.9288 -0.3561
  291MOL0     H39267   7.683   8.223   5.912 -1.7648 -1.4660 -1.3384
  291MOL0     H39268   7.467   8.120   5.848 -2.6609  2.5929 -1.1144
  291MOL0     H39269   5.874   6.967   6.323  3.3770  1.5777 -1.6132
  291MOL0     H39270   5.643   7.016   6.317 -0.2818  1.0206 -0.4209
  291MOL0     H39271   5.212   6.994   6.394 -2.4673 -0.4325  0.0930
  291MOL0     H39272   4.971   7.040   6.428 -0.8811  0.6206  0.7529
  291MOL0     H39273   4.766   7.076   6.593 -1.4139  0.3410  0.4386
  291MOL0     H39274   4.798   7.129   6.430 -2.9217  0.2767 -0.6295
  291MOL0     H39275   4.574   7.191   6.460 -1.2555  0.7628  1.7003
  291MOL0     H39276   4.676   7.338   6.456  2.8226  0.2591  0.5153
  291MOL0     H39277   4.638   7.306   6.729 -3.1955 -3.2816  2.8159
  291MOL0     H39278   4.514   7.189   6.683 -1.0869  0.1137  0.4977
  291MOL0     H39279   4.404   7.375   6.543 -1.1292  2.4911 -0.3439
  291MOL0     H39280   4.392   7.370   6.714 -0.9671 -1.0288  0.1752
  291MOL0     H39281   4.669   7.704   6.629 -0.5373  0.6434 -1.8648
  291MOL0     H39282   5.068   7.352   6.702  0.4910  0.0539  0.6054
  291MOL0     H39283   5.286   7.401   6.773  0.2131 -1.3032  1.1408
  291MOL0     H39284   5.415   7.289   6.732  0.3864  0.8985  1.8666
  291MOL0     H39285   5.374   7.435   6.629  1.4019 -0.0520  0.9022
  292MOL0     O39286   4.731   3.171   7.666 -0.1804  0.3235  0.4897
  292MOL0     C39287   4.680   3.062   7.688 -1.1925  0.5583  0.5507
  292MOL0     O39288   4.746   2.945   7.704  0.4088  0.0156  0.2934
  292MOL0     C39289   4.883   2.936   7.708  0.8108 -0.7781 -0.3799
  292MOL0     C39290   4.976   2.997   7.615  0.2316  0.0921  0.8447
  292MOL0     C39291   5.110   2.962   7.622  0.0043 -0.5757  0.4728
  292MOL0     C39292   5.167   2.887   7.727 -0.2998 -0.3783  0.0722
  292MOL0     O39293   5.305   2.875   7.723 -0.3335 -0.3588 -0.2578
  292MOL0     C39294   5.370   2.781   7.817 -0.0283 -0.3628  0.3769
  292MOL0     C39295   5.528   2.777   7.797  0.0157 -0.0012 -0.8005
  292MOL0     C39296   5.588   2.670   7.893  0.6059 -0.2565  0.6155
  292MOL0     C39297   5.737   2.671   7.889  0.2971  0.7830 -0.2837
  292MOL0     C39298   5.801   2.559   7.982  0.5958  0.1818  0.0362
  292MOL0     C39299   5.763   2.568   8.129 -0.6419 -0.0790 -0.2634
  292MOL0     C39300   5.839   2.458   8.207  0.0382 -0.3476 -0.0633
  292MOL0     C39301   5.768   2.313   8.198  0.0049 -0.8588 -1.0722
  292MOL0     N39302   5.839   2.208   8.274 -0.7721 -0.0810  0.0423
  292MOL0     C39303   5.906   2.223   8.390 -0.8516 -0.7154 -0.4073
  292MOL0     C39304   5.960   2.102   8.407 -0.1987 -1.2223  0.3512
  292MOL0     C39305   6.053   2.049   8.515 -0.2019 -0.3911  1.0107
  292MOL0     C39306   6.202   2.062   8.471 -0.4175 -0.3099 -0.7832
  292MOL0     C39307   6.308   2.011   8.573  0.9321  0.3189  0.1707
  292MOL0     C39308   6.447   1.990   8.517  0.5458  0.2064 -0.3337
  292MOL0     O39309   6.439   1.903   8.405  0.0158  0.1458  0.9014
  292MOL0     C39310   6.554   1.884   8.328  0.2620 -0.3796 -0.4470
  292MOL0     C39311   6.545   1.771   8.244 -0.5775 -0.6160 -0.8309
  292MOL0     C39312   6.640   1.745   8.150 -0.1380 -0.3364  0.0422
  292MOL0     C39313   6.760   1.821   8.150 -0.4228 -0.8954 -0.1113
  292MOL0     C39314   6.871   1.804   8.045  0.1186 -0.0203 -1.3983
  292MOL0     O39315   6.843   1.710   7.942 -0.3968  0.7463  0.7177
  292MOL0     C39316   6.920   1.702   7.827 -0.0284 -0.0978 -0.2267
  292MOL0     C39317   7.048   1.758   7.800 -0.2117  0.3516 -0.4979
  292MOL0     C39318   7.120   1.727   7.687  0.5048 -0.8412 -0.4247
  292MOL0     C39319   7.057   1.654   7.588 -0.8156 -0.1530 -0.2573
  292MOL0     O39320   7.133   1.626   7.474 -0.5075 -0.5307  0.1437
  292MOL0     C39321   7.068   1.542   7.375 -0.3185  0.1876  0.3726
  292MOL0     C39322   7.165   1.503   7.259  0.2038 -0.0474 -0.8330
  292MOL0     C39323   7.102   1.393   7.181  0.9720  0.2474 -0.2717
  292MOL0     C39324   6.954   1.414   7.145  0.1783 -0.1205 -0.2596
  292MOL0     C39325   6.914   1.314   7.045 -0.1865 -0.2023  0.5064
  292MOL0     C39326   6.771   1.338   6.995  0.0782  0.1833 -0.3947
  292MOL0     C39327   6.719   1.218   6.916 -0.5020  0.3524  0.0626
  292MOL0     C39328   6.567   1.240   6.895  0.2112  0.6408  0.1867
  292MOL0    Cl39329   6.484   1.235   7.056 -0.0406  0.0706 -0.1774
  292MOL0     C39330   6.921   1.616   7.604  0.4939 -0.7217  0.7345
  292MOL0     C39331   6.858   1.633   7.729  0.9964 -1.3790 -0.4329
  292MOL0     O39332   6.967   1.884   8.051  0.4728  0.1441  1.0518
  292MOL0     C39333   6.771   1.923   8.246 -0.9111  0.2672  0.6645
  292MOL0     C39334   6.671   1.964   8.330 -0.0032  0.1639  0.0715
  292MOL0     N39335   5.923   2.021   8.302  0.3094  0.4285  0.3503
  292MOL0     N39336   5.851   2.087   8.225 -0.1524 -0.7425 -0.1377
  292MOL0     C39337   5.076   2.835   7.820 -0.0701  1.1228  0.8947
  292MOL0     C39338   4.940   2.860   7.811 -0.2892 -0.5536 -0.5954
  292MOL0     C39339   4.541   3.068   7.731  0.0649 -0.8499 -0.6496
  292MOL0     C39340   4.504   2.987   7.834  0.0256  0.8442  0.6792
  292MOL0     C39341   4.366   2.974   7.854  0.7089  0.4868  0.1610
  292MOL0     C39342   4.269   3.034   7.786  0.6361  0.0837  0.8829
  292MOL0     O39343   4.139   3.016   7.828 -0.4179  0.6097 -0.7919
  292MOL0     C39344   4.049   3.067   7.740  0.3808 -0.3176 -0.1702
  292MOL0     C39345   3.908   3.039   7.799  0.1489  0.5135  0.6094
  292MOL0     C39346   3.849   3.163   7.874  0.7823  0.4142  0.7931
  292MOL0     C39347   3.713   3.128   7.935 -0.4906  0.7001  1.4343
  292MOL0     C39348   3.656   3.242   7.990  0.2632  0.2501 -0.4775
  292MOL0     C39349   3.616   3.329   8.057  0.3861  0.3714  0.1683
  292MOL0     C39350   4.313   3.132   7.692  0.2219 -0.6189 -0.3003
  292MOL0     C39351   4.442   3.131   7.648  0.0814  0.1761 -0.0585
  292MOL0     C39352   4.473   3.221   7.529  0.1020  0.5168  0.4263
  292MOL0     H39353   4.943   3.053   7.528  1.4795 -0.1313  0.2101
  292MOL0     H39354   5.173   3.004   7.544 -0.1049 -1.7672 -0.2882
  292MOL0     H39355   5.357   2.811   7.921  2.4319  2.6815 -0.0493
  292MOL0     H39356   5.332   2.680   7.798  1.1721 -1.2530  2.3957
  292MOL0     H39357   5.571   2.878   7.794 -0.9576  0.4140 -1.1342
  292MOL0     H39358   5.552   2.733   7.700 -1.4224 -2.6074 -0.0803
  292MOL0     H39359   5.560   2.572   7.853 -0.0211  0.7483 -1.5849
  292MOL0     H39360   5.555   2.689   7.995 -0.4343  2.2409 -0.1352
  292MOL0     H39361   5.770   2.658   7.786  1.4931 -2.3536  0.3848
  292MOL0     H39362   5.777   2.764   7.931  2.8174 -1.5593  2.9916
  292MOL0     H39363   5.772   2.460   7.945  1.2539 -0.1399  0.3561
  292MOL0     H39364   5.909   2.573   7.975  0.8424 -1.6412 -0.3729
  292MOL0     H39365   5.791   2.664   8.172 -2.5688  0.3055  0.2220
  292MOL0     H39366   5.655   2.560   8.138 -0.4220 -2.6246  1.1600
  292MOL0     H39367   5.843   2.487   8.313 -0.2698 -2.3536  0.5481
  292MOL0     H39368   5.940   2.442   8.169 -0.3663 -1.0820 -0.8778
  292MOL0     H39369   5.663   2.325   8.227 -0.1395 -0.5698 -1.6986
  292MOL0     H39370   5.768   2.283   8.093  1.0187  1.0086 -1.6562
  292MOL0     H39371   5.918   2.312   8.451  7.2987 -0.6219 -1.0110
  292MOL0     H39372   6.024   2.093   8.611 -0.2193  0.7566  0.4970
  292MOL0     H39373   6.036   1.945   8.545  2.6196 -0.4920  2.5727
  292MOL0     H39374   6.221   1.999   8.384 -1.7506 -2.3228  0.2993
  292MOL0     H39375   6.224   2.168   8.454 -1.7235 -0.0600 -1.0676
  292MOL0     H39376   6.268   1.915   8.606 -0.8212 -0.0175 -2.5504
  292MOL0     H39377   6.310   2.074   8.662 -3.9440 -0.7990  1.3834
  292MOL0     H39378   6.513   1.939   8.588  0.4369  0.0068 -0.3761
  292MOL0     H39379   6.497   2.086   8.500 -0.5031  1.0040  0.8631
  292MOL0     H39380   6.456   1.709   8.249  0.1127 -1.5477  1.5964
  292MOL0     H39381   6.606   1.671   8.078  0.5171 -0.6564  0.0612
  292MOL0     H39382   7.100   1.813   7.878 -1.7850  0.8780  0.2100
  292MOL0     H39383   7.221   1.765   7.680  0.1736  0.8789  2.4639
  292MOL0     H39384   7.043   1.443   7.416  1.1847 -0.8452 -1.0781
  292MOL0     H39385   6.986   1.601   7.335  1.8665  3.6296  0.5498
  292MOL0     H39386   7.189   1.588   7.195 -3.2872  0.4106 -1.7171
  292MOL0     H39387   7.255   1.451   7.294  0.1674 -0.1679 -0.9187
  292MOL0     H39388   7.161   1.368   7.092  0.6286  1.2426 -0.7898
  292MOL0     H39389   7.108   1.300   7.239  0.5531 -0.6971 -1.7018
  292MOL0     H39390   6.943   1.511   7.096 -0.3602 -0.5790 -1.0664
  292MOL0     H39391   6.897   1.409   7.238 -0.6710  3.8156 -0.4008
  292MOL0     H39392   6.921   1.214   7.089  0.4266 -0.8830 -1.0680
  292MOL0     H39393   6.977   1.313   6.956  0.0106 -0.4678  0.6471
  292MOL0     H39394   6.707   1.347   7.084  0.5050 -0.6072  0.0025
  292MOL0     H39395   6.768   1.421   6.924 -1.0215 -1.3741 -2.2434
  292MOL0     H39396   6.749   1.125   6.966  2.4166  1.8125  1.3434
  292MOL0     H39397   6.759   1.207   6.815 -1.4438  1.9563 -0.5101
  292MOL0     H39398   6.555   1.334   6.841 -1.0792  0.1871 -0.3541
  292MOL0     H39399   6.517   1.160   6.841  4.1760 -1.9661 -0.0543
  292MOL0     H39400   6.864   1.557   7.534 -0.2789  0.0169  0.7300
  292MOL0     H39401   6.759   1.601   7.760 -0.5282  1.0750 -2.2855
  292MOL0     H39402   6.865   1.975   8.261  0.9944 -2.5946 -0.4719
  292MOL0     H39403   6.680   2.047   8.399 -2.3129 -0.3805  1.1110
  292MOL0     H39404   5.128   2.777   7.895  3.4678  2.4442 -0.3475
  292MOL0     H39405   4.893   2.817   7.898  3.8596 -0.6089  1.8899
  292MOL0     H39406   4.581   2.938   7.894  2.3249  0.0750 -2.6187
  292MOL0     H39407   4.344   2.905   7.934  0.4497 -1.5171 -1.5717
  292MOL0     H39408   4.060   3.020   7.642 -1.9043 -0.8022 -0.2314
  292MOL0     H39409   4.056   3.175   7.721 -0.8497 -0.0572  0.7657
  292MOL0     H39410   3.908   2.950   7.864 -0.9496 -0.6145 -0.8551
  292MOL0     H39411   3.836   3.016   7.719 -0.2167  0.3786  0.9737
  292MOL0     H39412   3.848   3.247   7.803 -1.7360 -0.3995 -0.2436
  292MOL0     H39413   3.918   3.187   7.955 -0.0751  0.1422  1.6162
  292MOL0     H39414   3.654   3.077   7.857 -2.2941  1.1983  2.4244
  292MOL0     H39415   3.738   3.055   8.013 -2.5368 -0.9486  0.6668
  292MOL0     H39416   3.578   3.410   8.116  0.4485 -0.5035  1.4474
  292MOL0     H39417   4.240   3.191   7.638  0.6787  0.1566 -0.0936
  292MOL0     H39418   4.396   3.190   7.457 -2.1234  1.3106  2.3593
  292MOL0     H39419   4.457   3.321   7.569  1.8005  1.7952 -1.8912
  292MOL0     H39420   4.574   3.220   7.487 -0.4667  0.2028 -1.0083
  293MOL0     O39421   1.765   6.965   5.880 -0.3541 -0.2713 -0.3265
  293MOL0     C39422   1.751   7.088   5.879  0.5293  0.5720 -0.0395
  293MOL0     O39423   1.854   7.175   5.906 -0.6234 -0.2817  0.1432
  293MOL0     C39424   1.985   7.136   5.937 -0.9466 -0.9696 -0.0089
  293MOL0     C39425   2.056   7.051   5.852 -0.1483 -0.5023  0.0695
  293MOL0     C39426   2.184   7.008   5.876  0.2895  0.9264 -0.4632
  293MOL0     C39427   2.249   7.054   5.993  0.2315  0.7038 -0.3443
  293MOL0     O39428   2.376   7.009   5.998 -0.2923  0.3978 -0.4985
  293MOL0     C39429   2.480   7.077   6.067  0.8003 -0.4256 -0.3512
  293MOL0     C39430   2.616   7.047   6.007  0.8602  0.3334  0.0317
  293MOL0     C39431   2.729   7.122   6.080  0.7646 -0.2664  0.4133
  293MOL0     C39432   2.850   7.100   5.987  0.0584  0.3526 -0.1365
  293MOL0     C39433   2.972   7.190   6.031 -0.4190  0.3411  1.2969
  293MOL0     C39434   3.035   7.260   5.907  0.1969 -0.1812  0.0140
  293MOL0     C39435   3.144   7.354   5.947 -0.8487  0.3277  0.2945
  293MOL0     C39436   3.136   7.490   5.881 -0.0430 -0.3688  0.0772
  293MOL0     N39437   3.133   7.468   5.739 -0.7776 -0.6188  0.1017
  293MOL0     C39438   3.198   7.371   5.671  0.1929  0.6850 -0.0782
  293MOL0     C39439   3.174   7.396   5.544  0.3766  0.1803 -0.6416
  293MOL0     C39440   3.258   7.354   5.433  0.0814  0.3024 -0.5384
  293MOL0     C39441   3.229   7.213   5.384 -0.0227  0.7774  0.9130
  293MOL0     C39442   3.291   7.186   5.254  0.1413  0.2500  0.3415
  293MOL0     C39443   3.308   7.032   5.212  1.0282 -0.4603  0.3507
  293MOL0     O39444   3.367   7.043   5.084  0.5986  0.5728 -1.1797
  293MOL0     C39445   3.436   6.931   5.038  0.4264 -0.2742 -0.3384
  293MOL0     C39446   3.555   6.958   4.971  0.9443 -0.1626 -0.3112
  293MOL0     C39447   3.639   6.851   4.947 -0.9187  0.0491  0.3686
  293MOL0     C39448   3.608   6.721   4.995 -0.1473  0.0161 -0.7842
  293MOL0     C39449   3.698   6.607   4.969 -0.0958 -0.4287  0.6303
  293MOL0     O39450   3.824   6.633   4.976 -0.3237 -0.0839 -0.1661
  293MOL0     C39451   3.907   6.539   4.924 -0.0116 -0.4274  0.6748
  293MOL0     C39452   3.919   6.528   4.783  0.0100  0.0003 -0.1555
  293MOL0     C39453   4.008   6.437   4.732  0.9782  0.4600  0.1798
  293MOL0     C39454   4.112   6.388   4.813  0.7314  0.5462  0.2053
  293MOL0     O39455   4.217   6.313   4.759  0.3640 -0.3409 -0.0603
  293MOL0     C39456   4.338   6.389   4.780 -0.9357 -0.0253 -0.3871
  293MOL0     C39457   4.456   6.305   4.751 -0.4397  0.0252  0.2842
  293MOL0     C39458   4.592   6.377   4.728 -0.3986  0.7954  0.9396
  293MOL0     C39459   4.708   6.302   4.665  1.0448  0.5669 -0.8786
  293MOL0     C39460   4.844   6.364   4.696 -0.1924 -0.4099  0.7239
  293MOL0     C39461   4.962   6.295   4.613  1.0723  0.4912 -0.2061
  293MOL0     C39462   4.980   6.153   4.671 -0.2929 -0.4637 -0.1175
  293MOL0     C39463   5.116   6.083   4.655  0.3951 -0.1723  0.9010
  293MOL0    Cl39464   5.175   6.071   4.484  0.0442  0.2508 -0.0322
  293MOL0     C39465   4.106   6.408   4.952 -0.5016 -0.0096  0.5201
  293MOL0     C39466   4.004   6.488   5.005  0.3715 -0.1492  0.0407
  293MOL0     O39467   3.650   6.497   4.936 -0.6104 -0.0849  0.0449
  293MOL0     C39468   3.480   6.700   5.060 -0.3105  0.4199  0.1933
  293MOL0     C39469   3.388   6.802   5.078 -0.6210 -0.5331  0.6316
  293MOL0     N39470   3.089   7.500   5.532 -0.2490 -0.0594 -0.0003
  293MOL0     N39471   3.070   7.550   5.653 -0.8425 -0.1869 -0.0911
  293MOL0     C39472   2.187   7.144   6.083  0.4367  0.0809  1.5085
  293MOL0     C39473   2.053   7.175   6.052  0.5483 -0.1961  0.6127
  293MOL0     C39474   1.620   7.157   5.840 -0.0589  0.0498 -0.5609
  293MOL0     C39475   1.626   7.294   5.830  0.0062 -0.3704  0.1634
  293MOL0     C39476   1.523   7.368   5.779 -0.4495 -0.1023  0.4712
  293MOL0     C39477   1.402   7.309   5.737 -0.2674  0.2448 -0.3272
  293MOL0     O39478   1.312   7.399   5.686 -0.0388  0.6324  0.0536
  293MOL0     C39479   1.179   7.344   5.663 -0.3195  0.0759  0.3081
  293MOL0     C39480   1.107   7.339   5.794  0.0299 -0.0913 -0.9631
  293MOL0     C39481   0.980   7.261   5.767  0.3240  0.5489 -0.1721
  293MOL0     C39482   0.874   7.276   5.880  0.5324  0.2508 -0.8952
  293MOL0     C39483   0.755   7.196   5.862  0.5504 -0.3194 -0.5103
  293MOL0     C39484   0.658   7.126   5.838 -0.7446 -0.2274  0.1720
  293MOL0     C39485   1.387   7.172   5.768 -0.2381  0.5739  0.5420
  293MOL0     C39486   1.489   7.090   5.816  0.1379  0.1392 -0.1900
  293MOL0     C39487   1.453   6.953   5.866 -0.2464 -0.6566  0.2967
  293MOL0     H39488   2.001   7.029   5.761 -0.6544  0.5141  0.1161
  293MOL0     H39489   2.241   6.956   5.800 -2.1403  1.2731 -2.6765
  293MOL0     H39490   2.460   7.184   6.068 -2.0031 -0.8699  0.7238
  293MOL0     H39491   2.481   7.052   6.174 -1.2911 -1.7719 -0.5883
  293MOL0     H39492   2.626   7.060   5.899  1.6409 -2.2764 -0.2551
  293MOL0     H39493   2.629   6.940   6.023 -0.4961  0.0904 -0.3336
  293MOL0     H39494   2.740   7.090   6.184 -1.3046 -2.2450  0.1133
  293MOL0     H39495   2.705   7.228   6.088  2.5430  0.6559 -3.7391
  293MOL0     H39496   2.879   6.994   5.988  4.1662  1.2984  0.3465
  293MOL0     H39497   2.831   7.140   5.887 -0.1846  2.4966  0.7155
  293MOL0     H39498   2.931   7.272   6.092 -2.3723 -1.2522  2.2737
  293MOL0     H39499   3.049   7.130   6.081 -1.1674  0.1847  2.2963
  293MOL0     H39500   3.068   7.188   5.831 -1.1648  0.1939 -0.9961
  293MOL0     H39501   2.955   7.314   5.854  1.0149  0.6505 -0.3992
  293MOL0     H39502   3.238   7.300   5.934  0.6578  2.5879  1.1525
  293MOL0     H39503   3.147   7.363   6.056 -0.0505 -1.3407  0.4446
  293MOL0     H39504   3.047   7.543   5.916  0.3070 -0.3853  1.0199
  293MOL0     H39505   3.217   7.557   5.909  0.2263 -0.1500 -1.2027
  293MOL0     H39506   3.258   7.284   5.696 -0.9316 -0.1995 -0.3514
  293MOL0     H39507   3.246   7.427   5.352  0.2206  0.1330 -0.7136
  293MOL0     H39508   3.363   7.368   5.459  0.2575  0.9269 -1.5138
  293MOL0     H39509   3.263   7.138   5.456 -0.2462 -1.2968 -1.0359
  293MOL0     H39510   3.121   7.200   5.372  0.1717 -0.7614  0.5808
  293MOL0     H39511   3.396   7.215   5.266  0.0268  1.1609 -0.7724
  293MOL0     H39512   3.247   7.239   5.169 -0.8058 -0.5660  0.2985
  293MOL0     H39513   3.206   6.993   5.200  0.6626  0.8142 -0.9808
  293MOL0     H39514   3.357   6.960   5.278 -3.9289 -4.6595  0.1048
  293MOL0     H39515   3.586   7.059   4.944  2.5470 -0.4298  0.4127
  293MOL0     H39516   3.734   6.871   4.898 -0.3640 -1.1778  0.8952
  293MOL0     H39517   3.848   6.572   4.713 -0.9200 -1.9000 -0.4772
  293MOL0     H39518   4.009   6.419   4.625  1.2233  0.1838  0.2250
  293MOL0     H39519   4.349   6.471   4.709 -0.7837 -0.4282 -0.8379
  293MOL0     H39520   4.362   6.423   4.881  1.0165 -1.9503 -0.1235
  293MOL0     H39521   4.473   6.222   4.820 -0.7311 -0.5154 -0.2871
  293MOL0     H39522   4.436   6.256   4.655  1.5186 -1.3013  0.5062
  293MOL0     H39523   4.578   6.461   4.659  2.3905 -0.6811 -1.6801
  293MOL0     H39524   4.622   6.418   4.825  0.2896  2.9465 -0.1186
  293MOL0     H39525   4.684   6.304   4.559  2.6257  1.1962 -1.2519
  293MOL0     H39526   4.712   6.204   4.712  1.2484  0.9857  0.0010
  293MOL0     H39527   4.877   6.353   4.800 -1.3499 -1.2715  1.0354
  293MOL0     H39528   4.829   6.470   4.678  1.2768 -0.0569  1.4517
  293MOL0     H39529   4.935   6.298   4.507 -2.4759  1.6266  0.5984
  293MOL0     H39530   5.046   6.361   4.639 -0.1280  1.6426  0.9332
  293MOL0     H39531   4.906   6.091   4.619 -0.9530  0.4067 -0.2340
  293MOL0     H39532   4.946   6.151   4.775  1.5640  0.4892  0.5502
  293MOL0     H39533   5.199   6.127   4.711  0.4340 -0.0187  0.7233
  293MOL0     H39534   5.096   5.978   4.681 -0.5448  0.1565  1.5658
  293MOL0     H39535   4.179   6.359   5.015 -0.7962 -0.1397  0.7641
  293MOL0     H39536   3.992   6.508   5.111 -0.3205 -1.2470  0.1885
  293MOL0     H39537   3.458   6.599   5.091 -1.7555  0.0623 -1.8248
  293MOL0     H39538   3.295   6.796   5.132 -0.4430 -1.0180  0.8880
  293MOL0     H39539   2.249   7.187   6.161  0.1945 -0.0477  1.7693
  293MOL0     H39540   1.987   7.236   6.113  2.4344  1.6332  0.9350
  293MOL0     H39541   1.715   7.349   5.860  0.0074 -0.9008  1.1761
  293MOL0     H39542   1.543   7.472   5.758  1.2491  0.1391  2.8406
  293MOL0     H39543   1.194   7.249   5.610 -1.3567 -0.4936  0.9875
  293MOL0     H39544   1.123   7.411   5.597 -0.6845 -0.0728  0.4643
  293MOL0     H39545   1.095   7.439   5.835 -0.7070 -0.0758 -1.2072
  293MOL0     H39546   1.160   7.278   5.868 -0.9639 -2.5135 -2.1403
  293MOL0     H39547   1.010   7.156   5.763  4.3905  1.5810 -3.3275
  293MOL0     H39548   0.946   7.278   5.664 -0.7304 -1.9144 -0.3201
  293MOL0     H39549   0.906   7.271   5.985 -1.0261  4.3670 -0.0536
  293MOL0     H39550   0.840   7.380   5.876 -1.7967 -0.2902  1.8173
  293MOL0     H39551   0.568   7.069   5.826 -2.3900  2.3463 -0.5024
  293MOL0     H39552   1.289   7.129   5.753  0.2706 -0.3317 -0.2882
  293MOL0     H39553   1.496   6.878   5.799 -0.0083 -0.2348 -0.0307
  293MOL0     H39554   1.489   6.936   5.968  1.2520 -1.9001 -0.3996
  293MOL0     H39555   1.344   6.939   5.866 -0.1386 -1.6134 -0.3412
  294MOL0     O39556   4.002   3.900   5.572 -0.2136  0.2596 -0.2272
  294MOL0     C39557   3.939   4.000   5.606 -0.3804 -0.6870  0.0634
  294MOL0     O39558   3.988   4.097   5.684  0.8231 -0.0285 -0.6182
  294MOL0     C39559   4.116   4.130   5.687 -0.1060 -0.3407 -0.2292
  294MOL0     C39560   4.148   4.256   5.640  0.2120 -0.6814 -0.6426
  294MOL0     C39561   4.274   4.311   5.661  0.3789 -0.4642 -0.7353
  294MOL0     C39562   4.375   4.240   5.731  0.0802 -1.0484  0.5186
  294MOL0     O39563   4.494   4.305   5.757  0.7918  0.0111 -0.1747
  294MOL0     C39564   4.571   4.254   5.864  0.5342  0.3111 -0.0410
  294MOL0     C39565   4.652   4.383   5.898  0.6423  0.6350  1.7236
  294MOL0     C39566   4.780   4.338   5.966  0.3792 -0.4115 -0.3634
  294MOL0     C39567   4.846   4.456   6.029 -0.3840  1.0457  0.0877
  294MOL0     C39568   4.962   4.416   6.120  0.1529  0.0087  0.3020
  294MOL0     C39569   5.078   4.342   6.046 -0.5341 -0.9338  0.0633
  294MOL0     C39570   5.203   4.324   6.128 -0.6027  0.5254 -0.2164
  294MOL0     C39571   5.299   4.223   6.062  0.3761 -0.6265 -0.0869
  294MOL0     N39572   5.428   4.233   6.129 -0.9697 -0.1409  0.2414
  294MOL0     C39573   5.482   4.154   6.227 -0.3284  0.0092 -0.5401
  294MOL0     C39574   5.618   4.183   6.226 -1.0490 -0.9477 -0.3734
  294MOL0     C39575   5.731   4.124   6.305 -0.3278  0.6233  0.5756
  294MOL0     C39576   5.801   4.019   6.212 -0.9328 -0.9295 -0.1356
  294MOL0     C39577   5.917   4.079   6.143  0.3253 -0.3617 -0.1530
  294MOL0     C39578   5.991   3.964   6.070 -0.0344  0.5501  1.1225
  294MOL0     O39579   6.094   4.038   6.001 -0.1142 -0.1544  0.8206
  294MOL0     C39580   6.183   3.964   5.929 -0.0917 -0.1836 -0.4628
  294MOL0     C39581   6.200   3.829   5.943  0.0785 -0.2155 -0.3032
  294MOL0     C39582   6.285   3.766   5.861  0.4600 -0.2022  0.0774
  294MOL0     C39583   6.378   3.829   5.771  0.5051 -0.5622  0.1318
  294MOL0     C39584   6.493   3.752   5.710  0.5640 -0.6022 -0.2390
  294MOL0     O39585   6.565   3.828   5.631  0.5102 -0.0866 -0.6442
  294MOL0     C39586   6.685   3.787   5.590 -0.2865 -0.6725  0.5044
  294MOL0     C39587   6.729   3.855   5.483 -0.7009 -0.4868 -0.1707
  294MOL0     C39588   6.838   3.806   5.409 -0.2116  0.5320 -0.9226
  294MOL0     C39589   6.921   3.706   5.467 -0.7197 -0.8612 -0.1641
  294MOL0     O39590   7.044   3.676   5.411  0.6748  0.7316  0.7515
  294MOL0     C39591   7.033   3.624   5.279 -0.1601 -0.5024 -0.0194
  294MOL0     C39592   7.166   3.573   5.227  0.6205 -0.3995  0.2823
  294MOL0     C39593   7.149   3.569   5.074 -0.6570 -0.0889  0.0456
  294MOL0     C39594   7.294   3.530   5.013 -0.8523  0.3859 -0.1471
  294MOL0     C39595   7.385   3.657   4.966 -0.4522  0.6361 -0.0801
  294MOL0     C39596   7.529   3.611   4.935 -0.2292  0.6747  0.7588
  294MOL0     C39597   7.598   3.738   4.884  0.1705  0.4771  0.6195
  294MOL0     C39598   7.725   3.688   4.813  0.7339 -0.2222 -0.0075
  294MOL0    Cl39599   7.850   3.640   4.933  0.4244  0.2952 -0.6566
  294MOL0     C39600   6.894   3.653   5.586  1.1539  0.0760 -0.3037
  294MOL0     C39601   6.772   3.694   5.648 -0.3150  0.0222  0.8639
  294MOL0     O39602   6.500   3.631   5.726 -0.1186  0.8205 -0.3139
  294MOL0     C39603   6.369   3.968   5.764  0.2934  0.2265  0.6164
  294MOL0     C39604   6.267   4.033   5.833  0.2181 -0.0991  0.1161
  294MOL0     N39605   5.638   4.293   6.142  0.4787  0.3274  0.5122
  294MOL0     N39606   5.533   4.304   6.072  0.5059  0.1200 -0.8990
  294MOL0     C39607   4.339   4.106   5.758  0.2974  0.0805 -0.1138
  294MOL0     C39608   4.214   4.056   5.732 -0.2611  1.0274 -0.2558
  294MOL0     C39609   3.783   4.003   5.586 -0.7740 -0.5302  0.3281
  294MOL0     C39610   3.718   4.091   5.672 -0.5513 -0.9841  0.9125
  294MOL0     C39611   3.579   4.099   5.666  0.1848 -0.0624  0.7655
  294MOL0     C39612   3.507   4.027   5.570 -0.8140 -0.7741 -0.3267
  294MOL0     O39613   3.370   4.031   5.546  0.3362  0.2081  0.3940
  294MOL0     C39614   3.293   4.063   5.661 -0.1783  0.0927  0.3821
  294MOL0     C39615   3.145   4.052   5.626 -0.7135  0.4316  0.7078
  294MOL0     C39616   3.104   4.138   5.506  0.6383 -0.2796  0.2660
  294MOL0     C39617   2.965   4.094   5.457  0.4410 -1.0572  0.3233
  294MOL0     C39618   2.868   4.137   5.555  0.2528  0.4136 -1.7770
  294MOL0     C39619   2.772   4.158   5.631  0.0756 -1.1678 -0.0193
  294MOL0     C39620   3.571   3.940   5.490 -0.1284 -0.5727 -0.5203
  294MOL0     C39621   3.711   3.919   5.494  0.1827  0.4381 -0.3270
  294MOL0     C39622   3.779   3.825   5.395 -0.2586  0.3409  0.2446
  294MOL0     H39623   4.062   4.305   5.595  1.4994  1.7855 -0.6075
  294MOL0     H39624   4.277   4.413   5.622  0.0494 -0.2489 -0.2061
  294MOL0     H39625   4.516   4.204   5.944  2.3480 -0.0885  1.0159
  294MOL0     H39626   4.644   4.182   5.827 -0.2220 -0.3511 -0.2866
  294MOL0     H39627   4.595   4.449   5.965 -0.2762  0.5088  1.0743
  294MOL0     H39628   4.682   4.441   5.810  2.3581 -2.1429  0.3618
  294MOL0     H39629   4.841   4.301   5.883  4.1506  0.3172  1.8855
  294MOL0     H39630   4.771   4.260   6.042  2.3254 -0.6803 -0.3702
  294MOL0     H39631   4.888   4.515   5.947 -1.3032 -0.5535 -1.5943
  294MOL0     H39632   4.777   4.523   6.081  1.0486  1.1169  2.0397
  294MOL0     H39633   5.011   4.502   6.167  0.3584 -0.5921  1.2150
  294MOL0     H39634   4.938   4.354   6.207  1.1500 -0.8636 -0.0276
  294MOL0     H39635   5.043   4.246   6.007  0.1370 -1.2259  0.1623
  294MOL0     H39636   5.100   4.405   5.959  1.9467 -0.0377  1.2284
  294MOL0     H39637   5.171   4.294   6.228 -0.6778  1.1510 -0.0481
  294MOL0     H39638   5.254   4.419   6.113 -1.6155  0.9067 -1.4493
  294MOL0     H39639   5.253   4.125   6.079 -0.7115 -0.5181 -2.1158
  294MOL0     H39640   5.311   4.243   5.955  0.1334 -0.6456 -0.1197
  294MOL0     H39641   5.432   4.079   6.288 -0.1749  1.3820  1.3792
  294MOL0     H39642   5.805   4.191   6.350  0.1609  0.7916 -0.4526
  294MOL0     H39643   5.691   4.070   6.392  0.8473  0.2916  0.9304
  294MOL0     H39644   5.837   3.939   6.278  0.4086  0.0054  0.3024
  294MOL0     H39645   5.727   3.972   6.146 -1.3755 -1.5628  0.7800
  294MOL0     H39646   5.993   4.121   6.210 -0.5214 -1.8269  1.8365
  294MOL0     H39647   5.888   4.157   6.073  0.3223 -0.6519 -0.4763
  294MOL0     H39648   5.920   3.922   5.998 -1.3439  4.4683 -0.1778
  294MOL0     H39649   6.023   3.888   6.142 -1.3986 -0.6860  0.4725
  294MOL0     H39650   6.137   3.766   6.005 -2.6810  0.2033 -2.4912
  294MOL0     H39651   6.295   3.658   5.870  0.5513 -0.6013 -3.3038
  294MOL0     H39652   6.673   3.940   5.446 -1.2846 -0.8499 -0.1499
  294MOL0     H39653   6.870   3.864   5.323  1.4624  1.3527  0.2050
  294MOL0     H39654   6.965   3.539   5.281  1.8276 -2.2176 -1.6662
  294MOL0     H39655   6.993   3.705   5.216  1.2248  0.4722  0.3098
  294MOL0     H39656   7.236   3.653   5.249  0.7887 -0.8957  1.6263
  294MOL0     H39657   7.186   3.471   5.260 -1.8268 -0.5056  1.6909
  294MOL0     H39658   7.072   3.502   5.034 -0.2748  0.2139 -1.2452
  294MOL0     H39659   7.125   3.669   5.037  2.9447  0.2465 -1.8343
  294MOL0     H39660   7.283   3.483   4.914  2.5508  1.5193 -1.2102
  294MOL0     H39661   7.349   3.461   5.079 -1.8076  0.1420  0.4080
  294MOL0     H39662   7.394   3.734   5.042 -3.1809  3.4020 -2.2850
  294MOL0     H39663   7.339   3.696   4.875  1.8499 -0.7617 -1.9540
  294MOL0     H39664   7.568   3.582   5.033  0.0403  0.7275  0.6661
  294MOL0     H39665   7.531   3.521   4.873 -0.9701  1.4943 -0.4806
  294MOL0     H39666   7.607   3.819   4.958 -0.0329  0.9421  0.1371
  294MOL0     H39667   7.542   3.778   4.799 -2.3340 -1.7291  1.1098
  294MOL0     H39668   7.687   3.609   4.747 -0.0829 -1.1873  1.5723
  294MOL0     H39669   7.761   3.764   4.742  0.6342 -1.2002 -1.1454
  294MOL0     H39670   6.952   3.573   5.630  0.1310 -0.6028 -0.1604
  294MOL0     H39671   6.750   3.634   5.736 -1.1075 -2.4150 -0.8757
  294MOL0     H39672   6.433   4.026   5.698  1.9320  0.5909  2.4303
  294MOL0     H39673   6.246   4.140   5.828 -3.0526 -0.6025  0.7486
  294MOL0     H39674   4.418   4.046   5.803  2.1000  2.7695  0.5059
  294MOL0     H39675   4.194   3.959   5.776  1.1298  0.6937 -0.3126
  294MOL0     H39676   3.764   4.156   5.745 -0.6078 -0.6069  0.6141
  294MOL0     H39677   3.532   4.156   5.746  0.1305  0.7097  0.1937
  294MOL0     H39678   3.315   4.166   5.692 -0.5168 -0.0630  1.1735
  294MOL0     H39679   3.321   4.001   5.746 -0.2421  0.4406  0.6617
  294MOL0     H39680   3.081   4.066   5.713 -0.6230  1.5354  0.6068
  294MOL0     H39681   3.143   3.945   5.604  2.9786  0.3125  0.4271
  294MOL0     H39682   3.171   4.116   5.422  0.4694 -2.3092  0.6212
  294MOL0     H39683   3.115   4.245   5.526  0.7370 -0.3615  0.6551
  294MOL0     H39684   2.935   4.141   5.363  0.6760 -1.1844  0.1835
  294MOL0     H39685   2.966   3.987   5.431 -0.5710 -0.6789 -1.4957
  294MOL0     H39686   2.685   4.173   5.692 -0.8369 -1.8103 -1.1024
  294MOL0     H39687   3.512   3.876   5.425 -1.7394 -1.7567  1.9666
  294MOL0     H39688   3.844   3.750   5.440 -0.0807  1.9367  2.8404
  294MOL0     H39689   3.706   3.773   5.333  0.9498  0.7838 -1.6472
  294MOL0     H39690   3.831   3.883   5.318 -1.0108 -0.6475 -1.0294
  295MOL0     O39691   9.531   2.386   7.459  0.4349 -0.1463 -0.0335
  295MOL0     C39692   9.449   2.461   7.405 -0.5291 -0.5861 -0.0925
  295MOL0     O39693   9.468   2.524   7.285 -0.4397 -0.5975 -0.5562
  295MOL0     C39694   9.594   2.551   7.262  0.3378 -0.2095 -0.6747
  295MOL0     C39695   9.692   2.460   7.230 -0.8761  0.0421  0.3351
  295MOL0     C39696   9.818   2.495   7.180 -0.3264 -0.2480 -0.4155
  295MOL0     C39697   9.854   2.631   7.166 -0.0059 -1.2491  0.0353
  295MOL0     O39698   9.972   2.666   7.111 -0.1605 -0.0659 -0.3926
  295MOL0     C39699  10.064   2.754   7.179 -0.2316 -0.1919 -0.1651
  295MOL0     C39700  10.130   2.674   7.296  0.1473 -0.2466  0.2937
  295MOL0     C39701  10.240   2.756   7.363  0.1323  0.5835  0.5840
  295MOL0     C39702  10.379   2.716   7.307  0.3776  0.3244  0.1510
  295MOL0     C39703  10.498   2.786   7.372  0.3335  0.3379 -0.2270
  295MOL0     C39704  10.629   2.740   7.315  0.7529 -0.2057  1.2331
  295MOL0     C39705  10.761   2.802   7.379 -0.9215 -0.3719  0.4004
  295MOL0     C39706  10.811   2.752   7.519  0.6500 -0.2087 -0.0538
  295MOL0     N39707  10.952   2.789   7.529 -0.3571 -0.1770 -0.1989
  295MOL0     C39708  11.004   2.899   7.593  0.5833 -0.0874  0.0102
  295MOL0     C39709  11.137   2.881   7.589  0.1752 -0.3752  0.0376
  295MOL0     C39710  11.240   2.972   7.651 -0.0783  0.1767 -0.1561
  295MOL0     C39711  11.342   2.901   7.750  0.7007 -0.6287 -0.0380
  295MOL0     C39712  11.422   2.993   7.837 -0.2981 -0.0832 -0.5636
  295MOL0     C39713  11.428   3.137   7.788 -0.3868  0.9708  0.6407
  295MOL0     O39714  11.536   3.206   7.857 -0.4087  0.0029  0.0470
  295MOL0     C39715  11.665   3.198   7.799  0.1182  0.2153 -0.6426
  295MOL0     C39716  11.697   3.161   7.671 -0.1183  0.0802  0.6259
  295MOL0     C39717  11.825   3.163   7.618  0.0891 -0.0654  0.4244
  295MOL0     C39718  11.935   3.184   7.706  0.2247  0.4156  0.9461
  295MOL0     C39719  12.074   3.163   7.661 -0.0548 -0.1454 -0.9992
  295MOL0     O39720  12.091   3.148   7.530 -0.2691  0.0830  0.5216
  295MOL0     C39721  12.222   3.129   7.489  0.3036  0.6997  0.4537
  295MOL0     C39722  12.304   3.245   7.465 -0.0836 -0.0207  0.0368
  295MOL0     C39723  12.431   3.234   7.405  0.3570 -0.2171 -0.4122
  295MOL0     C39724  12.475   3.107   7.377  0.7943 -0.2858  0.4227
  295MOL0     O39725  12.597   3.092   7.328 -1.0169 -0.5051 -0.5370
  295MOL0     C39726  12.695   3.175   7.391  0.2860 -0.3823  0.2677
  295MOL0     C39727  12.836   3.117   7.375  0.6387 -0.4257 -0.4854
  295MOL0     C39728  12.948   3.219   7.407  0.4167 -0.4725  0.3272
  295MOL0     C39729  13.073   3.143   7.390 -0.3142 -0.2127 -0.2743
  295MOL0     C39730  13.199   3.216   7.445 -0.1204  0.2347 -0.5813
  295MOL0     C39731  13.314   3.116   7.433 -0.8549  0.5059 -0.1953
  295MOL0     C39732  13.444   3.170   7.489  0.0377  0.5989 -0.4005
  295MOL0     C39733  13.560   3.067   7.511  0.0335  0.4960 -0.2571
  295MOL0    Cl39734  13.618   3.033   7.347  0.3992 -0.0787  0.2539
  295MOL0     C39735  12.399   2.991   7.402 -0.8055 -0.2677 -0.1218
  295MOL0     C39736  12.278   2.998   7.464 -0.3359 -0.0576  0.2458
  295MOL0     O39737  12.161   3.158   7.745 -0.7576  0.6485 -0.3067
  295MOL0     C39738  11.909   3.221   7.831  0.8805  0.0326  0.6872
  295MOL0     C39739  11.774   3.235   7.880 -0.1176 -0.4146  0.0960
  295MOL0     N39740  11.164   2.760   7.524  0.2789  0.3012 -0.2685
  295MOL0     N39741  11.054   2.709   7.485  0.1677 -0.2555 -0.0904
  295MOL0     C39742   9.758   2.720   7.215 -0.1206 -0.3828  0.4855
  295MOL0     C39743   9.626   2.681   7.258 -0.1661 -0.6602 -0.6086
  295MOL0     C39744   9.333   2.513   7.485  0.2634  0.0816  0.9135
  295MOL0     C39745   9.322   2.464   7.615  0.0298  0.3276  0.7418
  295MOL0     C39746   9.227   2.508   7.702  0.1268  0.4479  0.0454
  295MOL0     C39747   9.130   2.600   7.656  0.3969  0.8288  0.1308
  295MOL0     O39748   9.055   2.649   7.755  0.5528  0.0533  0.3595
  295MOL0     C39749   8.987   2.773   7.722 -0.0600 -0.0480 -0.3779
  295MOL0     C39750   9.085   2.897   7.729 -0.7304 -0.0823 -0.1066
  295MOL0     C39751   9.128   2.931   7.872 -0.1314 -0.4849  0.1786
  295MOL0     C39752   9.216   3.063   7.899 -0.2598 -0.1146  0.1257
  295MOL0     C39753   9.169   3.181   7.816 -1.0709  0.3022 -1.2792
  295MOL0     C39754   9.162   3.260   7.725  0.5712 -0.3743  0.1742
  295MOL0     C39755   9.139   2.649   7.525  0.2931  0.0281 -0.8315
  295MOL0     C39756   9.230   2.599   7.434 -0.1914 -0.9677  0.0801
  295MOL0     C39757   9.226   2.667   7.303  0.3830 -1.3142 -1.0026
  295MOL0     H39758   9.659   2.357   7.224 -0.2964 -0.1440 -5.4201
  295MOL0     H39759   9.884   2.411   7.162 -1.2723 -1.0755 -0.1437
  295MOL0     H39760  10.135   2.803   7.111 -1.1062  2.1857  0.5178
  295MOL0     H39761  10.014   2.837   7.230  0.2993 -0.3868  0.6980
  295MOL0     H39762  10.180   2.587   7.253 -1.1368 -0.9004  0.0737
  295MOL0     H39763  10.052   2.640   7.365 -2.0089 -1.3312 -2.4761
  295MOL0     H39764  10.232   2.737   7.470  0.2475  4.0392  1.3101
  295MOL0     H39765  10.215   2.859   7.335 -0.3844 -0.0234 -1.3167
  295MOL0     H39766  10.391   2.608   7.315  0.4542  0.3452  0.3423
  295MOL0     H39767  10.381   2.738   7.200  3.2701  0.0953  0.0747
  295MOL0     H39768  10.481   2.893   7.377 -4.1617 -0.2245  2.1912
  295MOL0     H39769  10.504   2.762   7.479  1.4229 -1.7962 -0.6980
  295MOL0     H39770  10.657   2.635   7.322 -0.2688 -1.0674 -3.6311
  295MOL0     H39771  10.625   2.772   7.210  0.7667 -1.8368  0.7066
  295MOL0     H39772  10.753   2.910   7.361  1.4684 -0.5301 -2.4290
  295MOL0     H39773  10.835   2.775   7.304 -1.4578  1.5043 -0.8993
  295MOL0     H39774  10.753   2.792   7.603 -0.3743 -1.3467 -0.1852
  295MOL0     H39775  10.798   2.644   7.524 -0.4907 -0.0456  0.7867
  295MOL0     H39776  10.959   2.993   7.621  1.0649 -0.3934  1.9197
  295MOL0     H39777  11.292   3.014   7.564 -2.2758  1.0999 -1.0951
  295MOL0     H39778  11.181   3.039   7.714  1.6370 -0.1743  1.9264
  295MOL0     H39779  11.290   2.827   7.811  1.8034 -1.6204 -0.2675
  295MOL0     H39780  11.412   2.841   7.691  4.0922  0.2716  2.7148
  295MOL0     H39781  11.524   2.953   7.842  0.5571  2.1064  1.5255
  295MOL0     H39782  11.374   3.001   7.935 -3.3523  2.3124 -2.0863
  295MOL0     H39783  11.328   3.178   7.806 -0.3931  2.7858 -2.7855
  295MOL0     H39784  11.442   3.137   7.680  0.5640  0.3898  0.7540
  295MOL0     H39785  11.620   3.144   7.597 -0.8350 -0.5965  1.5023
  295MOL0     H39786  11.846   3.140   7.514  0.8267 -0.2981  0.6186
  295MOL0     H39787  12.270   3.338   7.509 -0.8473 -1.0010  1.6090
  295MOL0     H39788  12.482   3.328   7.392  1.5985 -1.0637 -2.0533
  295MOL0     H39789  12.694   3.268   7.335 -0.0831 -1.3550 -1.4057
  295MOL0     H39790  12.661   3.200   7.492 -2.2297  0.6462 -0.7451
  295MOL0     H39791  12.838   3.049   7.460  0.6813  1.6746  1.2932
  295MOL0     H39792  12.843   3.051   7.288 -0.6816 -1.3126  0.0595
  295MOL0     H39793  12.957   3.304   7.338  0.5886 -0.9474 -0.2407
  295MOL0     H39794  12.939   3.241   7.514 -0.1334 -2.1955  0.6662
  295MOL0     H39795  13.078   3.117   7.284 -0.0231  1.7620 -0.7889
  295MOL0     H39796  13.053   3.053   7.447  3.4021 -1.3566 -0.5180
  295MOL0     H39797  13.179   3.242   7.549  3.0797  2.6510 -0.4472
  295MOL0     H39798  13.238   3.300   7.386  3.0914 -1.1062 -0.5690
  295MOL0     H39799  13.277   3.025   7.480 -1.9562  1.5849  1.1087
  295MOL0     H39800  13.326   3.093   7.326 -1.5963 -2.3211  0.2621
  295MOL0     H39801  13.422   3.214   7.587  3.5162  0.4708  0.5430
  295MOL0     H39802  13.474   3.255   7.428 -1.3111 -0.7750 -3.1492
  295MOL0     H39803  13.645   3.102   7.570  1.4464 -1.0463 -1.2552
  295MOL0     H39804  13.520   2.976   7.557 -1.2346  1.1674 -0.0016
  295MOL0     H39805  12.454   2.899   7.386  3.2470  1.4265  2.4604
  295MOL0     H39806  12.221   2.908   7.483 -0.3827 -0.3412 -1.1329
  295MOL0     H39807  11.982   3.228   7.911 -1.0524  0.3759  2.5108
  295MOL0     H39808  11.747   3.262   7.981  1.7757  0.7515  0.3390
  295MOL0     H39809   9.784   2.826   7.217  2.3017 -0.9361  0.6469
  295MOL0     H39810   9.553   2.759   7.277 -0.1147 -0.9006  0.7075
  295MOL0     H39811   9.403   2.404   7.658  0.1309 -1.1905 -1.4103
  295MOL0     H39812   9.222   2.482   7.808 -0.2902 -1.1666 -0.3494
  295MOL0     H39813   8.910   2.797   7.796 -0.5548 -1.7121 -0.3024
  295MOL0     H39814   8.933   2.761   7.628  0.0138 -0.8385 -0.3309
  295MOL0     H39815   9.033   2.978   7.677 -1.0872  0.8088  1.5750
  295MOL0     H39816   9.173   2.882   7.665 -1.9417 -1.2174 -1.5644
  295MOL0     H39817   9.189   2.844   7.898 -0.3874 -1.4330 -2.0870
  295MOL0     H39818   9.037   2.940   7.932 -0.5550  0.2759 -0.5617
  295MOL0     H39819   9.200   3.100   8.000 -0.8363  0.1776 -0.0689
  295MOL0     H39820   9.320   3.039   7.878 -0.3965 -0.1326 -0.5761
  295MOL0     H39821   9.164   3.337   7.650 -0.4275  0.7809  1.2848
  295MOL0     H39822   9.075   2.729   7.486  0.0939 -0.2092 -0.9966
  295MOL0     H39823   9.322   2.716   7.286 -1.0137  2.2163  0.2946
  295MOL0     H39824   9.199   2.593   7.226  1.0148 -0.0400 -2.5086
  295MOL0     H39825   9.146   2.740   7.289  0.4572 -1.0364 -0.0104
  296MOL0     O39826   5.527   8.952   0.994 -0.1214  0.0021 -0.1515
  296MOL0     C39827   5.481   8.908   0.883  0.0476 -0.2383 -0.2737
  296MOL0     O39828   5.556   8.895   0.766  0.2978  0.1944  0.6366
  296MOL0     C39829   5.695   8.902   0.761 -0.3591 -0.4224 -0.4824
  296MOL0     C39830   5.754   8.907   0.632 -0.8503  0.3343 -0.1656
  296MOL0     C39831   5.889   8.902   0.614  0.0660  0.5861 -0.5060
  296MOL0     C39832   5.973   8.885   0.733  0.0043 -0.1558  0.3803
  296MOL0     O39833   6.109   8.898   0.721  0.1541 -0.1508 -0.0939
  296MOL0     C39834   6.160   9.039   0.705 -0.1525 -0.1644 -0.1292
  296MOL0     C39835   6.299   9.039   0.619 -0.3588  0.6268  0.1807
  296MOL0     C39836   6.374   9.173   0.633  0.2339 -0.3349 -0.1366
  296MOL0     C39837   6.511   9.158   0.577 -0.1846  0.1098  0.3767
  296MOL0     C39838   6.560   9.289   0.506 -0.6361  0.7651 -0.4172
  296MOL0     C39839   6.705   9.262   0.458 -0.7563 -0.0023 -0.4477
  296MOL0     C39840   6.773   9.399   0.420 -0.6568  0.6026  0.2085
  296MOL0     C39841   6.925   9.384   0.378  0.0655  0.3636 -0.4998
  296MOL0     N39842   7.000   9.328   0.501 -0.7758  0.0396  0.2298
  296MOL0     C39843   7.011   9.374   0.630 -0.6856 -0.1715 -0.7771
  296MOL0     C39844   7.082   9.279   0.699  1.0988 -0.3009 -0.4897
  296MOL0     C39845   7.102   9.261   0.849 -0.5316  0.6255 -0.4370
  296MOL0     C39846   7.237   9.210   0.904 -0.0684  0.2587 -0.1557
  296MOL0     C39847   7.260   9.065   0.869  0.5703 -0.4769 -0.8988
  296MOL0     C39848   7.381   9.020   0.961 -0.1562 -0.8319  0.4461
  296MOL0     O39849   7.450   8.912   0.901  0.2508  0.2224  0.0788
  296MOL0     C39850   7.558   8.862   0.970 -0.2445 -0.0013  0.7601
  296MOL0     C39851   7.617   8.743   0.924  0.1878 -0.6013  0.7155
  296MOL0     C39852   7.720   8.694   0.996 -0.4897  1.3355  1.0376
  296MOL0     C39853   7.766   8.742   1.117 -0.1867  0.8928 -0.1013
  296MOL0     C39854   7.889   8.696   1.186 -0.3854 -0.0426 -0.3664
  296MOL0     O39855   7.917   8.748   1.305 -0.0599 -0.1644  0.0732
  296MOL0     C39856   8.037   8.724   1.366  0.4055  0.0572  0.7981
  296MOL0     C39857   8.051   8.614   1.451 -0.2652  0.3929  1.0436
  296MOL0     C39858   8.162   8.594   1.530 -0.4895 -0.6670 -0.6880
  296MOL0     C39859   8.266   8.695   1.539  0.8061  0.0646  0.4195
  296MOL0     O39860   8.368   8.684   1.621 -0.0542 -0.5777  0.4222
  296MOL0     C39861   8.401   8.797   1.701  0.3412 -0.1124  0.2284
  296MOL0     C39862   8.486   8.768   1.818 -0.4089 -0.2368  0.0325
  296MOL0     C39863   8.626   8.723   1.767  0.4923 -0.6183  0.4851
  296MOL0     C39864   8.712   8.673   1.887  0.1232 -0.2113 -0.0021
  296MOL0     C39865   8.860   8.693   1.848  0.1880 -0.5793  0.5204
  296MOL0     C39866   8.954   8.644   1.965 -0.1449 -0.4664  0.7448
  296MOL0     C39867   9.101   8.690   1.941 -0.2231  0.1295 -0.3364
  296MOL0     C39868   9.124   8.829   1.902  0.8504  0.7203  0.0474
  296MOL0    Cl39869   9.295   8.852   1.933  0.3478  0.3650  0.4449
  296MOL0     C39870   8.248   8.810   1.464 -0.3572 -0.2100  0.0697
  296MOL0     C39871   8.137   8.826   1.388  0.2490 -0.5941 -0.4447
  296MOL0     O39872   7.954   8.619   1.124 -0.2193  0.4101 -0.6236
  296MOL0     C39873   7.705   8.857   1.165  0.5488 -0.3375  0.7123
  296MOL0     C39874   7.596   8.912   1.091 -0.0981  0.1215 -0.1598
  296MOL0     N39875   7.125   9.191   0.602  0.4814  0.3408 -0.3035
  296MOL0     N39876   7.076   9.221   0.487  0.2522  0.2371  0.0576
  296MOL0     C39877   5.922   8.855   0.864  0.1544 -0.4293  0.1175
  296MOL0     C39878   5.782   8.876   0.877  0.3029  0.0415  0.6807
  296MOL0     C39879   5.335   8.868   0.875 -0.4026 -1.1028  0.0352
  296MOL0     C39880   5.278   8.850   0.749 -0.2101 -0.2826 -0.1175
  296MOL0     C39881   5.142   8.811   0.729  0.6312  0.0653  0.1183
  296MOL0     C39882   5.053   8.803   0.839  0.6031 -0.0047  0.9941
  296MOL0     O39883   4.923   8.764   0.829  0.0934 -0.3677 -0.4910
  296MOL0     C39884   4.892   8.697   0.707  0.6024  0.3399  0.2772
  296MOL0     C39885   4.745   8.672   0.706 -0.5765 -0.5107 -0.2824
  296MOL0     C39886   4.655   8.795   0.743 -0.6934  0.3075 -0.0466
  296MOL0     C39887   4.700   8.937   0.692  0.9124  0.9176 -0.6076
  296MOL0     C39888   4.717   8.948   0.546 -0.2679 -0.1744  0.0970
  296MOL0     C39889   4.716   8.953   0.426  0.0133  0.2232 -0.1525
  296MOL0     C39890   5.106   8.840   0.964 -0.5151 -0.7084 -0.1989
  296MOL0     C39891   5.240   8.868   0.983  0.3123  0.0044 -0.2065
  296MOL0     C39892   5.279   8.888   1.133 -0.1884 -0.4642 -0.1547
  296MOL0     H39893   5.688   8.938   0.552 -1.7349 -1.5773 -0.2332
  296MOL0     H39894   5.936   8.899   0.516  1.4302 -2.7475  0.0981
  296MOL0     H39895   6.089   9.113   0.668 -0.6540  0.4128  1.8248
  296MOL0     H39896   6.187   9.073   0.806  0.0975 -1.0394  0.1119
  296MOL0     H39897   6.279   9.023   0.513  2.0857  7.0950 -1.7547
  296MOL0     H39898   6.372   8.966   0.653 -2.6387 -2.3213 -0.8065
  296MOL0     H39899   6.370   9.197   0.740 -0.6010 -3.1362  0.5426
  296MOL0     H39900   6.317   9.249   0.578  1.0298 -1.3253 -2.4679
  296MOL0     H39901   6.577   9.119   0.654  0.0939 -2.1164 -0.8849
  296MOL0     H39902   6.505   9.082   0.498  1.2168  0.0314  0.3141
  296MOL0     H39903   6.489   9.321   0.430 -2.6193  0.0414  1.0486
  296MOL0     H39904   6.558   9.358   0.591 -4.7792 -1.8621  1.9898
  296MOL0     H39905   6.762   9.218   0.541  1.5875  0.2943 -1.8068
  296MOL0     H39906   6.710   9.194   0.372 -2.4409  0.9974 -1.3848
  296MOL0     H39907   6.766   9.476   0.497 -2.0970  1.0495 -0.3415
  296MOL0     H39908   6.720   9.436   0.331 -1.1305 -0.2005  0.1392
  296MOL0     H39909   6.944   9.315   0.296  0.7504  1.4681 -1.3036
  296MOL0     H39910   6.953   9.486   0.349  1.1255  0.5601  1.0675
  296MOL0     H39911   6.968   9.466   0.670  0.3712 -0.5591  1.4491
  296MOL0     H39912   7.097   9.359   0.897 -0.1914  1.2597 -1.6485
  296MOL0     H39913   7.023   9.197   0.888  0.3371  1.4136  3.0205
  296MOL0     H39914   7.316   9.269   0.857  0.3721  0.1974  0.4880
  296MOL0     H39915   7.247   9.222   1.012  2.5804  1.6184 -0.4618
  296MOL0     H39916   7.289   9.051   0.765  1.7250 -2.1751 -0.4023
  296MOL0     H39917   7.177   8.996   0.886  1.0383 -0.7095  0.7034
  296MOL0     H39918   7.357   9.017   1.068  1.4360  3.2591  1.1032
  296MOL0     H39919   7.446   9.108   0.971 -1.2343 -0.2222  3.2028
  296MOL0     H39920   7.582   8.702   0.830 -0.0098  1.2247 -0.0436
  296MOL0     H39921   7.768   8.605   0.959 -1.1029  1.4817 -0.1557
  296MOL0     H39922   7.973   8.539   1.450  1.2402 -1.2365  1.2021
  296MOL0     H39923   8.180   8.511   1.598 -0.9278  0.9558  1.5397
  296MOL0     H39924   8.447   8.874   1.639 -2.8347  0.7116 -1.2880
  296MOL0     H39925   8.310   8.826   1.753 -0.7827 -2.4296 -0.3022
  296MOL0     H39926   8.509   8.857   1.878  0.1197  1.1334 -2.0999
  296MOL0     H39927   8.442   8.693   1.884 -1.4553  1.0411  0.8402
  296MOL0     H39928   8.627   8.647   1.688  0.1901  1.8323 -2.0204
  296MOL0     H39929   8.674   8.813   1.728  3.7648 -1.8653  1.2845
  296MOL0     H39930   8.687   8.567   1.893  0.3966 -0.3342 -0.8267
  296MOL0     H39931   8.692   8.726   1.980  1.3093 -0.7465  0.5910
  296MOL0     H39932   8.883   8.800   1.837  1.8231 -0.7795  1.5978
  296MOL0     H39933   8.885   8.651   1.750 -0.1299 -0.6993  0.4904
  296MOL0     H39934   8.919   8.695   2.055  0.9994 -1.2857  1.6908
  296MOL0     H39935   8.948   8.535   1.978  1.0011 -0.6949 -0.4393
  296MOL0     H39936   9.143   8.631   1.859 -0.2268  1.3374 -1.2313
  296MOL0     H39937   9.164   8.678   2.030  0.2462  2.3916 -0.2898
  296MOL0     H39938   9.098   8.840   1.796  1.4308  0.1819 -0.1555
  296MOL0     H39939   9.062   8.897   1.961  0.4655  0.9847 -0.6449
  296MOL0     H39940   8.318   8.893   1.464 -1.8012  1.0825  1.3069
  296MOL0     H39941   8.132   8.921   1.336 -0.2498 -0.4402 -0.1250
  296MOL0     H39942   7.741   8.902   1.257 -0.6469 -1.0990  1.5714
  296MOL0     H39943   7.560   8.997   1.147 -0.7225 -0.1041 -0.2070
  296MOL0     H39944   5.993   8.834   0.944  2.6309  2.7827 -0.9951
  296MOL0     H39945   5.750   8.858   0.979  0.7864 -0.6696  0.7113
  296MOL0     H39946   5.344   8.847   0.664 -0.4655  0.1828 -0.3394
  296MOL0     H39947   5.120   8.796   0.624  0.6631  0.5477  0.0431
  296MOL0     H39948   4.948   8.604   0.696  0.4433  0.4031 -1.3040
  296MOL0     H39949   4.906   8.754   0.615  1.7234 -0.7010 -0.2147
  296MOL0     H39950   4.732   8.590   0.778  3.0467  0.0122  1.1931
  296MOL0     H39951   4.718   8.631   0.608 -2.0280 -2.5677  0.8990
  296MOL0     H39952   4.647   8.786   0.852  0.4150 -2.5064 -0.1345
  296MOL0     H39953   4.555   8.773   0.705 -0.7617  0.4113  0.0709
  296MOL0     H39954   4.638   9.014   0.738  0.9902  0.6809 -0.0958
  296MOL0     H39955   4.802   8.956   0.728  0.2353  0.5688  1.6595
  296MOL0     H39956   4.719   8.969   0.320  0.7585  2.9830  0.2126
  296MOL0     H39957   5.039   8.828   1.049 -0.4916  2.4561  0.3784
  296MOL0     H39958   5.331   8.801   1.175 -0.6937 -0.1732  1.1049
  296MOL0     H39959   5.339   8.979   1.139  0.4305 -0.3627 -4.6051
  296MOL0     H39960   5.191   8.893   1.197  0.0139  0.4010  0.0701
  297MOL0     O39961   8.608   6.028   7.030  0.6588 -0.5875 -0.3892
  297MOL0     C39962   8.544   5.957   7.105  0.4069 -0.3740  0.3287
  297MOL0     O39963   8.584   5.908   7.222 -0.0876  1.0385  0.0225
  297MOL0     C39964   8.709   5.952   7.271 -0.3182  0.2328  0.7401
  297MOL0     C39965   8.703   6.057   7.357 -0.2534 -0.4316  0.2824
  297MOL0     C39966   8.825   6.096   7.420 -0.5785 -0.5713 -0.0005
  297MOL0     C39967   8.949   6.040   7.392  0.1653  0.1309 -0.0009
  297MOL0     O39968   9.062   6.097   7.441 -0.1553  0.1218 -0.0040
  297MOL0     C39969   9.067   6.100   7.581 -0.2138  0.1151  0.3521
  297MOL0     C39970   9.046   5.956   7.642 -0.2224  0.1444 -0.4641
  297MOL0     C39971   9.075   5.972   7.789  0.5426 -0.1624  0.1953
  297MOL0     C39972   9.037   5.833   7.857  0.0148  0.4690 -0.2772
  297MOL0     C39973   9.081   5.834   8.003 -0.4777  0.1349  0.2674
  297MOL0     C39974   9.103   5.695   8.052  0.6360 -0.4858 -0.5374
  297MOL0     C39975   9.109   5.685   8.204  0.0203  0.0595  0.4861
  297MOL0     C39976   9.132   5.543   8.252 -0.7710 -0.3150 -0.3502
  297MOL0     N39977   9.180   5.565   8.390  0.5733  0.6183  1.0499
  297MOL0     C39978   9.106   5.560   8.504 -0.4832  0.7252 -0.3806
  297MOL0     C39979   9.195   5.573   8.606 -0.1559  0.2716  0.2246
  297MOL0     C39980   9.161   5.544   8.752  0.1356 -0.2821  0.5385
  297MOL0     C39981   9.077   5.659   8.822 -0.2957  0.5007 -0.2793
  297MOL0     C39982   9.102   5.652   8.974 -0.3305 -0.6714 -1.0522
  297MOL0     C39983   9.246   5.668   9.026 -0.2708  0.1406  0.2017
  297MOL0     O39984   9.305   5.797   9.011 -0.4393  0.0630  0.5422
  297MOL0     C39985   9.440   5.800   9.048  0.0637  0.0898 -0.6179
  297MOL0     C39986   9.482   5.873   9.155 -0.8066 -0.2513 -0.3238
  297MOL0     C39987   9.614   5.902   9.177  1.2216 -0.2717  0.7201
  297MOL0     C39988   9.704   5.848   9.083 -0.4892  0.7345 -0.6914
  297MOL0     C39989   9.850   5.878   9.102 -0.5535 -0.3140 -0.2015
  297MOL0     O39990   9.943   5.809   9.027  0.3365  0.3559 -0.6688
  297MOL0     C39991  10.071   5.851   9.014  0.0615 -0.7987  0.2085
  297MOL0     C39992  10.108   5.988   9.001 -0.0213 -0.0211 -0.4993
  297MOL0     C39993  10.237   6.021   8.956 -0.5940 -0.2044 -0.7095
  297MOL0     C39994  10.335   5.914   8.945  0.5727  0.4003  0.1930
  297MOL0     O39995  10.469   5.939   8.913 -0.0651  0.0633  0.3132
  297MOL0     C39996  10.516   6.069   8.885 -0.5334 -0.3416 -0.3677
  297MOL0     C39997  10.674   6.087   8.902 -0.1575 -0.0615  0.9076
  297MOL0     C39998  10.718   6.235   8.913  0.0163 -0.0296 -0.0264
  297MOL0     C39999  10.714   6.311   8.779 -0.2000  0.6001 -0.1840
  297MOL0     C40000  10.821   6.258   8.681  0.7278  0.5786  0.5384
  297MOL0     C40001  10.957   6.222   8.742 -0.1590 -0.9034  0.1739
  297MOL0     C40002  11.057   6.205   8.627  0.0507  0.7666  0.5732
  297MOL0     C40003  11.184   6.140   8.674  0.1585  1.4088 -1.1562
  297MOL0    Cl40004  11.142   5.959   8.693 -0.4913 -0.1847  0.0600
  297MOL0     C40005  10.290   5.784   8.977 -0.8082  0.4076  0.2785
  297MOL0     C40006  10.164   5.750   9.003 -0.1521  0.3725  0.7552
  297MOL0     O40007   9.873   5.973   9.181  0.3587 -0.3619  0.3899
  297MOL0     C40008   9.671   5.777   8.977 -0.0533 -0.3670  0.1547
  297MOL0     C40009   9.541   5.751   8.961  1.7943  0.5032 -0.6043
  297MOL0     N40010   9.323   5.573   8.552 -0.0182  0.5482 -0.3744
  297MOL0     N40011   9.311   5.567   8.425 -0.1705 -0.2444  0.6504
  297MOL0     C40012   8.951   5.936   7.303 -0.6714  0.3642  0.0123
  297MOL0     C40013   8.834   5.887   7.241  0.3121 -0.0088  1.0576
  297MOL0     C40014   8.408   5.934   7.060 -0.4788  0.0341  0.2850
  297MOL0     C40015   8.342   6.029   6.981 -0.4065 -0.0916 -1.4188
  297MOL0     C40016   8.206   6.017   6.955 -0.2679  0.2167  0.1310
  297MOL0     C40017   8.135   5.908   6.999  0.3586  0.0578 -0.1404
  297MOL0     O40018   7.998   5.892   6.980  0.3259 -0.1373  0.0658
  297MOL0     C40019   7.914   6.011   6.995  0.5694 -0.4969  0.3364
  297MOL0     C40020   7.774   5.974   7.040  0.0542  0.0268  0.0333
  297MOL0     C40021   7.689   5.912   6.926 -0.8074 -0.2270 -0.2909
  297MOL0     C40022   7.561   5.849   6.972  0.6116  1.0193 -0.2364
  297MOL0     C40023   7.473   5.940   7.045 -0.0529 -0.1125  0.2239
  297MOL0     C40024   7.410   6.009   7.126  0.5088  0.0383  0.6819
  297MOL0     C40025   8.202   5.807   7.069  0.2302  0.1721 -0.6156
  297MOL0     C40026   8.340   5.818   7.100 -0.1246 -0.2670 -0.4358
  297MOL0     C40027   8.399   5.714   7.183  0.5059 -0.0019 -0.1582
  297MOL0     H40028   8.610   6.104   7.390 -0.2919 -2.6065  3.8139
  297MOL0     H40029   8.822   6.176   7.493  1.2882 -1.0328  0.6216
  297MOL0     H40030   9.167   6.140   7.599 -0.0404  0.1965 -0.7508
  297MOL0     H40031   8.987   6.163   7.623  2.2626  2.7783  1.4193
  297MOL0     H40032   9.108   5.878   7.598  0.9984  0.5522  0.4472
  297MOL0     H40033   8.940   5.931   7.629 -0.2451 -0.9220  1.3737
  297MOL0     H40034   9.015   6.048   7.839  0.0784  0.0417 -0.6560
  297MOL0     H40035   9.181   5.997   7.804  0.3653 -0.1489  1.5853
  297MOL0     H40036   8.932   5.808   7.844  0.4156 -1.2601 -0.4533
  297MOL0     H40037   9.085   5.757   7.795  1.1425  2.6185 -2.2405
  297MOL0     H40038   9.169   5.895   8.023  1.4080 -0.9254 -3.8220
  297MOL0     H40039   9.005   5.884   8.063 -1.7194 -0.9288 -0.3556
  297MOL0     H40040   9.018   5.633   8.022  0.1732 -0.3839  0.5145
  297MOL0     H40041   9.197   5.652   8.017  0.0549 -2.3143  0.0411
  297MOL0     H40042   9.029   5.739   8.256 -0.4530  0.4370 -0.6203
  297MOL0     H40043   9.198   5.746   8.222 -1.1268  1.2205  2.6448
  297MOL0     H40044   9.032   5.498   8.253  0.0247 -2.7518 -4.6169
  297MOL0     H40045   9.198   5.472   8.201  1.8130  2.4766 -1.1953
  297MOL0     H40046   9.001   5.549   8.530 -0.5902  1.3354 -0.5261
  297MOL0     H40047   9.105   5.450   8.759  1.2094 -0.9659  0.1255
  297MOL0     H40048   9.259   5.533   8.798  0.4929  1.3564  0.2257
  297MOL0     H40049   9.101   5.758   8.782 -1.0203  0.3403 -1.1579
  297MOL0     H40050   8.969   5.638   8.818  0.1344 -1.9574 -0.2650
  297MOL0     H40051   9.068   5.558   9.018  0.0954 -0.0223  0.7466
  297MOL0     H40052   9.036   5.730   9.014  0.6017  0.9655 -2.5690
  297MOL0     H40053   9.309   5.593   8.979  1.7253  2.4501 -1.0391
  297MOL0     H40054   9.250   5.638   9.132  0.2756  0.3457  0.2393
  297MOL0     H40055   9.407   5.919   9.218 -0.6895  1.4132 -1.3593
  297MOL0     H40056   9.637   5.966   9.263  0.5723 -0.1126  0.7775
  297MOL0     H40057  10.031   6.063   9.011 -1.5861 -1.6036 -0.1906
  297MOL0     H40058  10.275   6.120   8.931 -0.2423 -0.4799 -1.2964
  297MOL0     H40059  10.497   6.086   8.779 -0.6735  1.9383 -0.0083
  297MOL0     H40060  10.466   6.144   8.946 -0.1835 -0.3048 -0.1242
  297MOL0     H40061  10.708   6.037   8.993  1.4877  2.5017  1.7786
  297MOL0     H40062  10.720   6.036   8.816 -0.7919  0.4726  0.2284
  297MOL0     H40063  10.655   6.288   8.985 -1.9300 -2.9085  0.5536
  297MOL0     H40064  10.815   6.240   8.962  1.1767  1.4783 -2.3095
  297MOL0     H40065  10.722   6.419   8.793 -0.2673  0.5177  0.5604
  297MOL0     H40066  10.619   6.295   8.728 -0.3275 -1.7250  0.6790
  297MOL0     H40067  10.836   6.332   8.603  2.0503  0.1215  0.3327
  297MOL0     H40068  10.784   6.166   8.635  0.4996  1.1842 -0.5084
  297MOL0     H40069  10.995   6.299   8.809  1.8535 -2.5688  1.0285
  297MOL0     H40070  10.945   6.135   8.806  1.1037  0.2896  2.1099
  297MOL0     H40071  11.079   6.297   8.573 -2.3984 -1.7201 -5.5498
  297MOL0     H40072  11.000   6.148   8.553 -2.2473 -0.7932  3.3217
  297MOL0     H40073  11.249   6.153   8.587  4.3927 -2.3129  1.0514
  297MOL0     H40074  11.208   6.189   8.769  0.1733 -0.2777 -0.2517
  297MOL0     H40075  10.366   5.707   8.971  0.2202  1.3946  0.2237
  297MOL0     H40076  10.140   5.644   8.998 -0.8117  0.3837  2.8548
  297MOL0     H40077   9.738   5.752   8.896 -0.0368  2.1001 -0.6526
  297MOL0     H40078   9.510   5.708   8.866 -1.8075  1.4081  0.0373
  297MOL0     H40079   9.049   5.894   7.284  0.8180  3.6051 -0.2168
  297MOL0     H40080   8.857   5.801   7.179 -0.6776  0.7360 -0.4014
  297MOL0     H40081   8.403   6.114   6.949  0.6588 -0.0761  0.4390
  297MOL0     H40082   8.159   6.098   6.901 -0.3409  0.3483  0.3916
  297MOL0     H40083   7.905   6.049   6.893 -2.9456 -2.5373 -0.2709
  297MOL0     H40084   7.951   6.089   7.062 -1.5797  3.3376 -2.5360
  297MOL0     H40085   7.722   6.064   7.074  1.4183  1.7523 -2.1725
  297MOL0     H40086   7.785   5.908   7.126  0.8582  1.1595  0.8243
  297MOL0     H40087   7.754   5.838   6.877 -0.7906 -1.9364  2.1563
  297MOL0     H40088   7.669   5.994   6.856  0.4779  1.4284  1.2035
  297MOL0     H40089   7.519   5.793   6.888  2.4392 -0.9387  0.0839
  297MOL0     H40090   7.574   5.772   7.049  2.2998 -0.0633 -1.5415
  297MOL0     H40091   7.358   6.061   7.203 -0.6999 -0.3711  0.1666
  297MOL0     H40092   8.135   5.729   7.102  1.6516 -0.9442 -0.2936
  297MOL0     H40093   8.331   5.630   7.201  1.1092 -0.0020  2.6199
  297MOL0     H40094   8.492   5.678   7.139 -0.5658  0.2892 -2.8357
  297MOL0     H40095   8.417   5.750   7.285 -0.8634  0.2677  0.0114
  298MOL0     O40096  10.758   0.405   5.322  0.5561  0.1754  0.1235
  298MOL0     C40097  10.695   0.345   5.405  0.9553  0.6902 -0.5246
  298MOL0     O40098  10.756   0.278   5.508  0.3064  0.3197  0.5151
  298MOL0     C40099  10.894   0.281   5.526  0.4397  0.9291 -0.1145
  298MOL0     C40100  10.937   0.277   5.658  0.6523  0.3497 -0.2332
  298MOL0     C40101  11.074   0.269   5.692  0.3306 -0.0286 -0.3831
  298MOL0     C40102  11.165   0.267   5.577 -0.9062  0.1376 -1.1391
  298MOL0     O40103  11.298   0.258   5.587  0.3808  0.0208  0.4691
  298MOL0     C40104  11.331   0.141   5.662 -0.1790  0.3932 -0.3354
  298MOL0     C40105  11.464   0.157   5.726  0.6857 -0.1887 -0.4687
  298MOL0     C40106  11.571   0.151   5.619 -0.0892 -0.5944  0.6771
  298MOL0     C40107  11.711   0.178   5.673 -0.1669 -0.4415  0.0184
  298MOL0     C40108  11.818   0.082   5.611  0.2772  1.5376 -0.3390
  298MOL0     C40109  11.964   0.096   5.654  0.5795  0.6720 -0.4824
  298MOL0     C40110  12.008   0.246   5.639  0.3941  0.0345  0.4582
  298MOL0     C40111  12.158   0.250   5.669  0.5172  0.4513 -0.8792
  298MOL0     N40112  12.243   0.165   5.583  0.2607 -0.0984  0.1673
  298MOL0     C40113  12.255   0.175   5.448  0.3363  0.4844 -0.7795
  298MOL0     C40114  12.367   0.118   5.413 -0.5216  0.8045  0.3809
  298MOL0     C40115  12.426   0.105   5.270 -0.2319 -0.0645 -0.5146
  298MOL0     C40116  12.573   0.152   5.248 -0.7128  0.2932  0.5976
  298MOL0     C40117  12.623   0.121   5.095  0.6557 -0.1630 -0.1488
  298MOL0     C40118  12.751   0.194   5.072  0.4440 -0.2993  0.1790
  298MOL0     O40119  12.858   0.169   5.164 -0.3286 -0.2574 -0.3764
  298MOL0     C40120  12.990   0.184   5.106  0.4983 -0.2638 -0.5163
  298MOL0     C40121  13.028   0.285   5.010 -0.4956  0.3815 -0.8635
  298MOL0     C40122  13.154   0.294   4.957 -0.0642 -0.1216 -0.2548
  298MOL0     C40123  13.256   0.209   5.016 -0.0902  0.3021 -0.0217
  298MOL0     C40124  13.396   0.201   4.961  0.6685 -0.0018  0.8115
  298MOL0     O40125  13.431   0.282   4.858  1.5900 -0.3482  0.7494
  298MOL0     C40126  13.543   0.256   4.787 -0.8888  0.9649 -0.2366
  298MOL0     C40127  13.663   0.322   4.818 -0.1040  0.1642  0.3075
  298MOL0     C40128  13.785   0.281   4.751  0.9823 -0.0405 -0.3450
  298MOL0     C40129  13.781   0.176   4.654  0.1116 -0.5092 -0.1928
  298MOL0     O40130  13.895   0.134   4.591 -0.0810 -0.0851 -0.1288
  298MOL0     C40131  13.960   0.254   4.529 -0.8272 -0.2607 -0.2084
  298MOL0     C40132  14.087   0.202   4.464  0.0328 -0.1832 -0.0136
  298MOL0     C40133  14.183   0.124   4.556  1.2029  0.1986 -0.2783
  298MOL0     C40134  14.310   0.080   4.489 -0.6915  0.0461 -0.0445
  298MOL0     C40135  14.431   0.023   4.571 -0.6309  0.4423 -1.0592
  298MOL0     C40136  14.545  -0.010   4.476  0.3418 -0.6722 -0.0563
  298MOL0     C40137  14.664  -0.062   4.552  0.1226 -0.0545 -0.0791
  298MOL0     C40138  14.796  -0.071   4.477 -0.8328 -0.2192 -0.1232
  298MOL0    Cl40139  14.747  -0.127   4.313  0.0590  0.1669  0.3827
  298MOL0     C40140  13.658   0.121   4.626  1.0980 -0.1137  0.0774
  298MOL0     C40141  13.538   0.165   4.685  0.2103 -0.6439 -0.0008
  298MOL0     O40142  13.474   0.129   5.011  0.1918  0.7418  0.1576
  298MOL0     C40143  13.215   0.118   5.110 -0.0022  0.5291  0.0469
  298MOL0     C40144  13.086   0.109   5.158 -0.0367 -0.2572 -0.5204
  298MOL0     N40145  12.434   0.073   5.528  0.2995  0.7292  0.1509
  298MOL0     N40146  12.354   0.106   5.626 -0.7347  0.4515 -0.0740
  298MOL0     C40147  11.121   0.271   5.443  0.4297  0.9398 -0.1465
  298MOL0     C40148  10.983   0.276   5.417  0.0230 -0.5951 -0.4195
  298MOL0     C40149  10.539   0.360   5.410 -0.1086 -0.2313  0.1011
  298MOL0     C40150  10.473   0.268   5.498 -0.2595 -0.1160 -0.7269
  298MOL0     C40151  10.336   0.267   5.502  0.7132  0.4751  0.0136
  298MOL0     C40152  10.262   0.365   5.427 -0.6128  0.2257  0.0705
  298MOL0     O40153  10.128   0.342   5.442 -0.0166  0.6552  0.5051
  298MOL0     C40154  10.024   0.393   5.356  0.4896  0.2487  0.1189
  298MOL0     C40155   9.895   0.329   5.397  0.6908 -0.0612 -0.6804
  298MOL0     C40156   9.896   0.169   5.385  0.1537 -0.1998  0.0877
  298MOL0     C40157   9.769   0.104   5.441  0.1708 -0.6125 -0.5083
  298MOL0     C40158   9.779  -0.041   5.448  0.4885 -0.2488 -0.4249
  298MOL0     C40159   9.788  -0.163   5.447  0.1713 -0.0113  0.0891
  298MOL0     C40160  10.322   0.464   5.356 -0.2556  0.3241 -0.7029
  298MOL0     C40161  10.465   0.464   5.344 -0.0210  0.6195 -0.1359
  298MOL0     C40162  10.527   0.583   5.276  0.6076 -0.2084 -0.0719
  298MOL0     H40163  10.862   0.290   5.736  1.2008  0.1755  0.3364
  298MOL0     H40164  11.110   0.266   5.795  0.3853 -3.9315 -0.3553
  298MOL0     H40165  11.262   0.123   5.745  0.2205  0.2524 -0.0309
  298MOL0     H40166  11.320   0.056   5.594 -0.3867  1.8064 -2.1411
  298MOL0     H40167  11.489   0.071   5.790 -0.1194  0.4519  0.7495
  298MOL0     H40168  11.475   0.245   5.791  0.8932 -0.3462 -0.2872
  298MOL0     H40169  11.553   0.232   5.547  2.4902 -3.0570 -3.1111
  298MOL0     H40170  11.562   0.059   5.561  0.8606  0.8223 -1.9144
  298MOL0     H40171  11.731   0.284   5.653  2.5444 -0.9004 -0.1066
  298MOL0     H40172  11.697   0.171   5.781  1.8481  2.9430  0.6258
  298MOL0     H40173  11.788  -0.017   5.646 -0.9509  2.4262  1.2769
  298MOL0     H40174  11.813   0.073   5.502  1.0886  1.5126 -0.3744
  298MOL0     H40175  11.972   0.059   5.757  0.0805  0.3992 -0.5395
  298MOL0     H40176  12.024   0.034   5.587  2.8275  0.9995  1.0823
  298MOL0     H40177  11.954   0.301   5.717  1.1691  1.2783  0.1457
  298MOL0     H40178  11.986   0.279   5.537 -1.3218  1.3236  1.1947
  298MOL0     H40179  12.194   0.353   5.663 -0.5355  0.7737 -2.0464
  298MOL0     H40180  12.176   0.207   5.768  0.0793 -4.1117 -2.5370
  298MOL0     H40181  12.181   0.214   5.379 -0.6672 -2.7712 -1.7406
  298MOL0     H40182  12.412   0.011   5.218 -1.5725  0.5000 -1.2007
  298MOL0     H40183  12.367   0.176   5.213 -2.0538 -1.3913 -0.3568
  298MOL0     H40184  12.578   0.262   5.253 -0.7239  0.4512 -1.9371
  298MOL0     H40185  12.637   0.103   5.322 -0.0641  1.3290  0.7533
  298MOL0     H40186  12.543   0.157   5.030  0.5450 -1.4910 -0.7663
  298MOL0     H40187  12.628   0.013   5.082 -0.7249  0.0190 -2.9287
  298MOL0     H40188  12.727   0.301   5.065 -3.2140 -0.8015  2.5955
  298MOL0     H40189  12.784   0.161   4.973  1.3386  1.2370 -0.0776
  298MOL0     H40190  12.953   0.349   4.966 -0.6844 -0.2157 -1.4261
  298MOL0     H40191  13.183   0.366   4.881 -2.8740 -0.7832 -2.1178
  298MOL0     H40192  13.669   0.395   4.899  2.5512 -1.6352  1.8959
  298MOL0     H40193  13.877   0.337   4.767  0.6254  1.6374 -3.4090
  298MOL0     H40194  13.897   0.297   4.451 -0.6908  0.0670 -0.1396
  298MOL0     H40195  13.974   0.331   4.605 -3.9913 -1.8579  2.2278
  298MOL0     H40196  14.063   0.136   4.380 -0.0977 -2.5226  1.7528
  298MOL0     H40197  14.129   0.291   4.415  0.9757  0.7438  2.3474
  298MOL0     H40198  14.207   0.185   4.643  0.8926 -0.9812  0.6678
  298MOL0     H40199  14.148   0.026   4.592  3.2682 -0.1468  0.9597
  298MOL0     H40200  14.344   0.166   4.431 -3.1090 -0.0751 -1.8030
  298MOL0     H40201  14.283   0.006   4.413  2.4845  2.2161 -3.6116
  298MOL0     H40202  14.410  -0.067   4.628 -0.1387 -0.7812 -2.7103
  298MOL0     H40203  14.459   0.095   4.648 -0.5036  2.4276 -2.8401
  298MOL0     H40204  14.504  -0.084   4.407 -4.4462  1.1710  0.4226
  298MOL0     H40205  14.595   0.073   4.426  2.8076 -2.7717 -1.2996
  298MOL0     H40206  14.639  -0.156   4.602  2.1744 -0.9431 -0.6101
  298MOL0     H40207  14.683   0.015   4.628  1.7834  1.6307 -2.0810
  298MOL0     H40208  14.846   0.025   4.463 -1.6935  0.2770  0.1162
  298MOL0     H40209  14.875  -0.128   4.526 -0.1183  2.3681  1.9407
  298MOL0     H40210  13.645   0.034   4.562  2.1428 -1.6222  1.8210
  298MOL0     H40211  13.441   0.129   4.654 -0.2090 -0.2570  0.8432
  298MOL0     H40212  13.285   0.060   5.170 -1.4405 -0.0563  1.2113
  298MOL0     H40213  13.061   0.037   5.235  2.0433  1.5494  2.0311
  298MOL0     H40214  11.191   0.273   5.360 -0.5800  2.5291 -1.0299
  298MOL0     H40215  10.947   0.274   5.315 -0.9928 -1.9897 -0.0655
  298MOL0     H40216  10.530   0.204   5.564  0.3513  2.2199  1.1472
  298MOL0     H40217  10.282   0.203   5.572 -0.3260  0.2143 -1.0047
  298MOL0     H40218  10.053   0.361   5.255  2.1488 -0.3391  0.7426
  298MOL0     H40219  10.019   0.501   5.372 -0.9452  0.0162  1.5283
  298MOL0     H40220   9.813   0.373   5.339 -0.2980 -0.4813  0.3594
  298MOL0     H40221   9.863   0.353   5.499 -1.9090 -3.1014 -0.6024
  298MOL0     H40222   9.989   0.134   5.432  0.5372 -1.4005 -1.4638
  298MOL0     H40223   9.903   0.150   5.277 -0.9174  2.3576 -0.5007
  298MOL0     H40224   9.750   0.146   5.541  0.2813 -0.0488 -0.7198
  298MOL0     H40225   9.693   0.135   5.368  1.2208  1.7054 -0.7131
  298MOL0     H40226   9.813  -0.266   5.459 -0.5352 -0.2024 -0.0423
  298MOL0     H40227  10.267   0.538   5.298 -2.7013  1.5020  2.8032
  298MOL0     H40228  10.629   0.610   5.303  0.7632 -0.6437 -0.2179
  298MOL0     H40229  10.534   0.555   5.170 -0.7280 -1.2847  0.0986
  298MOL0     H40230  10.456   0.666   5.273  0.3482 -0.3612  1.1914
  299MOL0     O40231   8.464   6.422   2.280  0.4245 -0.0125 -0.1379
  299MOL0     C40232   8.456   6.534   2.340  0.8448 -0.3074 -0.0955
  299MOL0     O40233   8.553   6.601   2.405  0.5940  0.0986  0.3142
  299MOL0     C40234   8.684   6.565   2.390  0.1603  0.0964  1.0934
  299MOL0     C40235   8.768   6.666   2.341  0.0621  0.2419  0.7764
  299MOL0     C40236   8.901   6.651   2.317 -0.0803  0.1465 -1.0966
  299MOL0     C40237   8.961   6.528   2.351 -0.0774 -0.9143 -0.4409
  299MOL0     O40238   9.094   6.530   2.356 -0.1625  0.2075 -0.5600
  299MOL0     C40239   9.163   6.417   2.416 -0.3896  0.0146  0.5777
  299MOL0     C40240   9.315   6.443   2.423 -1.1109 -0.2213  0.2009
  299MOL0     C40241   9.389   6.338   2.501 -0.4433 -0.7061 -0.1985
  299MOL0     C40242   9.379   6.363   2.655 -0.4558  0.2147 -1.1859
  299MOL0     C40243   9.451   6.249   2.730 -0.2702  0.4518 -0.7275
  299MOL0     C40244   9.605   6.261   2.732  0.0863  0.2258  0.9847
  299MOL0     C40245   9.650   6.381   2.815  0.0102  0.7128 -0.1601
  299MOL0     C40246   9.606   6.366   2.960  0.3934 -0.1076  0.3657
  299MOL0     N40247   9.668   6.471   3.039 -0.3259 -1.3431 -0.5135
  299MOL0     C40248   9.792   6.457   3.102  0.0636 -0.3713 -0.2842
  299MOL0     C40249   9.822   6.580   3.155 -0.0918 -0.1170 -0.1525
  299MOL0     C40250   9.942   6.603   3.237  0.1726 -0.4995 -1.4331
  299MOL0     C40251  10.038   6.713   3.165 -0.1357  1.1687 -0.6598
  299MOL0     C40252  10.111   6.812   3.266  1.3618  0.1151  0.7174
  299MOL0     C40253  10.182   6.756   3.383  0.0755  0.2262 -0.4083
  299MOL0     O40254  10.283   6.661   3.345  0.1272  0.0326 -0.7412
  299MOL0     C40255  10.410   6.699   3.309 -0.1825 -0.4709 -0.7012
  299MOL0     C40256  10.442   6.830   3.297  0.3785 -0.1782 -0.2453
  299MOL0     C40257  10.581   6.861   3.261 -0.1835 -0.5812  1.0839
  299MOL0     C40258  10.676   6.762   3.236 -0.1300  0.6693 -0.1551
  299MOL0     C40259  10.816   6.799   3.201 -0.8695 -0.3116  0.0068
  299MOL0     O40260  10.843   6.930   3.193  0.4148 -0.0579 -0.7472
  299MOL0     C40261  10.973   6.967   3.234  0.9381  0.6430 -0.1223
  299MOL0     C40262  11.087   6.955   3.156 -0.1411 -0.0797  0.3254
  299MOL0     C40263  11.221   6.987   3.212  0.0498 -0.5431 -0.6714
  299MOL0     C40264  11.236   7.034   3.339  0.5597 -0.4294  0.0897
  299MOL0     O40265  11.363   7.055   3.380 -0.3496 -0.7113  0.3039
  299MOL0     C40266  11.408   6.976   3.496 -0.1780 -1.0297  0.6472
  299MOL0     C40267  11.542   7.020   3.552 -1.0181  0.4161 -0.2682
  299MOL0     C40268  11.636   7.029   3.429  0.0915  0.1102 -0.7115
  299MOL0     C40269  11.779   6.991   3.470 -0.4302  0.6983 -0.0950
  299MOL0     C40270  11.884   7.046   3.373 -0.1306  0.8795  0.3163
  299MOL0     C40271  12.025   7.064   3.441 -0.4362  0.2303 -0.4743
  299MOL0     C40272  12.032   7.192   3.527 -1.1255 -0.1792 -0.0998
  299MOL0     C40273  12.176   7.247   3.544  0.1271 -0.3744 -0.5597
  299MOL0    Cl40274  12.196   7.383   3.656 -0.0471  0.1879  0.4998
  299MOL0     C40275  11.120   7.046   3.417 -0.3409 -0.0956 -0.1013
  299MOL0     C40276  10.996   7.011   3.366  0.2922 -0.8472  0.2043
  299MOL0     O40277  10.898   6.702   3.202 -0.1692  0.5826  0.4410
  299MOL0     C40278  10.635   6.622   3.239  1.0967 -1.5048  0.4202
  299MOL0     C40279  10.504   6.592   3.283  0.7183  0.0395  0.4892
  299MOL0     N40280   9.712   6.663   3.134 -0.0242 -0.1089  0.4424
  299MOL0     N40281   9.626   6.593   3.062 -0.7314  0.1209  0.5842
  299MOL0     C40282   8.874   6.421   2.404 -0.3746 -1.0354  0.1975
  299MOL0     C40283   8.736   6.439   2.417 -0.1338 -0.4659 -0.4640
  299MOL0     C40284   8.314   6.587   2.359 -0.9258 -0.1724  0.1670
  299MOL0     C40285   8.205   6.498   2.352 -0.4908 -0.3264 -0.5338
  299MOL0     C40286   8.073   6.533   2.389 -0.5182  0.2887 -0.1572
  299MOL0     C40287   8.045   6.661   2.424 -0.1515 -0.9745  1.2204
  299MOL0     O40288   7.925   6.707   2.468  0.2794  0.2550  0.4187
  299MOL0     C40289   7.862   6.636   2.573  0.5374  0.0894  0.6892
  299MOL0     C40290   7.737   6.698   2.629  0.0772  0.2420 -0.3629
  299MOL0     C40291   7.663   6.599   2.717  0.2548  0.3695  0.2258
  299MOL0     C40292   7.538   6.668   2.774  0.6478  0.4224  0.1744
  299MOL0     C40293   7.433   6.706   2.681  1.7449 -0.8318 -0.3525
  299MOL0     C40294   7.342   6.749   2.606  0.1554  0.1842 -0.3083
  299MOL0     C40295   8.143   6.752   2.417 -0.2087  0.6956  0.1057
  299MOL0     C40296   8.284   6.717   2.389 -0.6141 -0.0562 -0.2279
  299MOL0     C40297   8.388   6.827   2.388  0.7236 -0.3793 -0.0927
  299MOL0     H40298   8.734   6.766   2.314 -2.0600 -1.0617 -1.8766
  299MOL0     H40299   8.950   6.744   2.290 -1.4947  1.1514 -0.3391
  299MOL0     H40300   9.128   6.407   2.519 -0.1542 -0.4591  0.6130
  299MOL0     H40301   9.161   6.320   2.366  2.8429  0.5314 -0.8299
  299MOL0     H40302   9.333   6.540   2.470 -0.4858  0.3422 -1.1542
  299MOL0     H40303   9.365   6.449   2.326 -2.6861  3.4413 -0.5369
  299MOL0     H40304   9.495   6.349   2.474 -0.5385  1.8531  0.2187
  299MOL0     H40305   9.354   6.239   2.469 -1.5586  0.8907 -4.7764
  299MOL0     H40306   9.425   6.461   2.675  1.9035 -0.6888 -1.9158
  299MOL0     H40307   9.274   6.370   2.683 -0.3437 -0.4235 -0.5978
  299MOL0     H40308   9.419   6.250   2.834  0.6490 -0.3628 -0.4222
  299MOL0     H40309   9.428   6.156   2.678 -0.0009  0.3423 -0.6559
  299MOL0     H40310   9.654   6.174   2.777 -0.6007  0.1165  1.5327
  299MOL0     H40311   9.638   6.266   2.627 -1.7152  4.8413  0.4085
  299MOL0     H40312   9.622   6.475   2.766 -3.4223 -0.2072 -0.2498
  299MOL0     H40313   9.759   6.384   2.819 -0.0439  1.0491  1.7642
  299MOL0     H40314   9.499   6.378   2.981  0.8900  2.2290  2.0293
  299MOL0     H40315   9.643   6.271   2.999 -2.5074 -1.6383 -0.4022
  299MOL0     H40316   9.846   6.363   3.099  0.3637 -0.2773  1.3958
  299MOL0     H40317   9.909   6.627   3.338 -0.0153 -1.1311 -1.3428
  299MOL0     H40318  10.010   6.519   3.253  1.6258  0.8959  0.2027
  299MOL0     H40319  10.107   6.656   3.102  0.9444 -1.1504  2.3563
  299MOL0     H40320   9.962   6.760   3.101 -0.1723  1.3552 -0.4805
  299MOL0     H40321  10.039   6.888   3.300  0.4155  0.3371 -1.6121
  299MOL0     H40322  10.185   6.864   3.205  1.6975  1.8677  2.4985
  299MOL0     H40323  10.106   6.699   3.438  0.5872  0.3971  0.4797
  299MOL0     H40324  10.225   6.838   3.441  0.1329  0.5991 -0.9756
  299MOL0     H40325  10.375   6.911   3.321 -0.2834 -0.2697 -1.6924
  299MOL0     H40326  10.607   6.966   3.254 -1.4631 -0.3547 -2.1884
  299MOL0     H40327  11.079   6.924   3.052 -1.4523 -0.4903  0.5257
  299MOL0     H40328  11.309   6.969   3.151  1.1640  1.5887  0.1868
  299MOL0     H40329  11.333   6.967   3.574 -1.8700 -0.8764 -0.8868
  299MOL0     H40330  11.420   6.870   3.469  2.5347 -0.2680 -1.6231
  299MOL0     H40331  11.538   7.118   3.600  0.0622  0.6367 -0.6059
  299MOL0     H40332  11.587   6.942   3.614 -2.6517 -2.3911 -2.3404
  299MOL0     H40333  11.611   6.981   3.334 -3.1914  1.6990 -0.7817
  299MOL0     H40334  11.638   7.135   3.405  3.1070  0.4398  0.5696
  299MOL0     H40335  11.786   6.881   3.469 -0.0892  0.5920  3.1782
  299MOL0     H40336  11.790   7.022   3.574 -1.6263 -1.2432  0.6760
  299MOL0     H40337  11.854   7.142   3.329 -0.5031 -0.1949 -1.9430
  299MOL0     H40338  11.893   6.975   3.290 -0.1878  0.4100  0.7084
  299MOL0     H40339  12.035   6.973   3.501  0.7579 -1.8701 -3.5843
  299MOL0     H40340  12.092   7.059   3.354  1.1646 -1.2508  0.7641
  299MOL0     H40341  11.988   7.173   3.625  0.1987  0.0806  0.5821
  299MOL0     H40342  11.964   7.264   3.481  1.7263  1.1204 -2.6352
  299MOL0     H40343  12.238   7.167   3.587  1.3584  0.7551 -0.1622
  299MOL0     H40344  12.217   7.278   3.448 -1.2989  0.4833 -0.9231
  299MOL0     H40345  11.113   7.084   3.519 -5.8707  1.9416 -0.8720
  299MOL0     H40346  10.913   7.030   3.433  0.2642 -0.7610  0.1471
  299MOL0     H40347  10.705   6.540   3.226  1.7354 -0.8851 -0.1596
  299MOL0     H40348  10.460   6.495   3.301  1.2108  0.2241  3.0700
  299MOL0     H40349   8.916   6.325   2.431  1.6670 -0.5746 -1.1993
  299MOL0     H40350   8.656   6.370   2.442  0.6507 -1.9462 -1.8256
  299MOL0     H40351   8.218   6.398   2.311  0.4061 -0.2252 -0.5107
  299MOL0     H40352   7.990   6.464   2.397  0.3122 -0.6527  0.5261
  299MOL0     H40353   7.932   6.619   2.656 -1.0032 -0.6287  1.8752
  299MOL0     H40354   7.834   6.543   2.523  0.9761  0.8852 -1.1263
  299MOL0     H40355   7.670   6.737   2.553 -1.2738 -2.9481 -0.9604
  299MOL0     H40356   7.762   6.776   2.701 -1.2886 -0.6432  1.1563
  299MOL0     H40357   7.721   6.554   2.798  0.1302 -1.4281 -0.6492
  299MOL0     H40358   7.635   6.511   2.659  0.9223  0.0132  0.4368
  299MOL0     H40359   7.489   6.592   2.836  0.1094  1.6777  1.3308
  299MOL0     H40360   7.568   6.751   2.839  1.3943 -0.2160  0.6784
  299MOL0     H40361   7.272   6.794   2.538  1.2240  2.0029 -0.2835
  299MOL0     H40362   8.117   6.850   2.454  1.7611  0.9415  0.9933
  299MOL0     H40363   8.435   6.840   2.486 -1.0821  4.1358  0.4175
  299MOL0     H40364   8.461   6.813   2.308  0.6317 -0.6838 -0.1229
  299MOL0     H40365   8.346   6.925   2.365  0.5968 -0.1330  1.1317
  300MOL0     O40366   9.206   8.655   9.159  0.0883 -0.5317  0.2382
  300MOL0     C40367   9.151   8.639   9.267 -0.3081  0.1234  0.0188
  300MOL0     O40368   9.214   8.589   9.381  1.5235  0.4299 -0.2721
  300MOL0     C40369   9.349   8.565   9.388 -0.7301 -0.0557 -0.3542
  300MOL0     C40370   9.397   8.480   9.493  0.1171  0.1616 -0.4148
  300MOL0     C40371   9.532   8.454   9.511  0.0133  0.1652  0.1618
  300MOL0     C40372   9.631   8.522   9.431 -0.2665  0.8627  0.1026
  300MOL0     O40373   9.768   8.523   9.468 -0.3238  0.2784  0.1411
  300MOL0     C40374   9.869   8.590   9.385 -0.0454  0.4323 -0.1795
  300MOL0     C40375   9.910   8.518   9.261  0.5050 -0.7604  0.3038
  300MOL0     C40376  10.035   8.589   9.199 -0.2565 -0.8187  1.0159
  300MOL0     C40377  10.168   8.541   9.253  0.7639 -0.0903  0.4637
  300MOL0     C40378  10.281   8.600   9.177  0.0130  0.2211 -1.0082
  300MOL0     C40379  10.423   8.566   9.240  0.2214 -0.2764 -0.5517
  300MOL0     C40380  10.529   8.623   9.149 -1.2232 -0.5237  0.5782
  300MOL0     C40381  10.663   8.590   9.204  0.4629  0.5757  0.7192
  300MOL0     N40382  10.772   8.638   9.122 -0.5881  0.2202 -0.6015
  300MOL0     C40383  10.798   8.597   8.993 -0.1329  0.5147  0.8799
  300MOL0     C40384  10.902   8.673   8.947  0.1437 -0.2685  0.3830
  300MOL0     C40385  10.962   8.675   8.808 -0.0194 -0.2316  0.4087
  300MOL0     C40386  11.100   8.620   8.797 -0.0742 -0.2884 -0.0421
  300MOL0     C40387  11.191   8.695   8.898  0.6025 -0.8433 -0.2803
  300MOL0     C40388  11.341   8.670   8.890  0.0331 -0.0593  0.2463
  300MOL0     O40389  11.417   8.740   8.995 -0.0511 -0.0828 -0.2357
  300MOL0     C40390  11.551   8.723   9.005  0.2151 -0.2897  0.9990
  300MOL0     C40391  11.626   8.790   9.103  0.1425  0.0056  0.4865
  300MOL0     C40392  11.766   8.786   9.100 -0.3460  0.9813  0.6806
  300MOL0     C40393  11.838   8.709   9.000 -0.3844 -0.5310 -0.2660
  300MOL0     C40394  11.990   8.689   9.006 -0.4815  0.4574  1.4409
  300MOL0     O40395  12.058   8.735   9.109  0.5191  0.9212  0.0333
  300MOL0     C40396  12.192   8.713   9.137 -0.1296 -0.2865 -0.1394
  300MOL0     C40397  12.227   8.728   9.272  0.3307 -0.2028 -0.1290
  300MOL0     C40398  12.356   8.722   9.313 -1.4488  0.0926  0.6518
  300MOL0     C40399  12.468   8.703   9.225  0.2647  0.0963  0.1756
  300MOL0     O40400  12.594   8.683   9.273  0.0607  0.0855  0.2465
  300MOL0     C40401  12.694   8.761   9.204  0.5441  0.3319 -0.2893
  300MOL0     C40402  12.830   8.721   9.248 -1.1763 -0.4359  0.5333
  300MOL0     C40403  12.941   8.759   9.143  0.5036  0.3585  0.3662
  300MOL0     C40404  13.068   8.678   9.162  0.3661 -0.1973  1.1886
  300MOL0     C40405  13.188   8.705   9.073 -0.1820 -0.3853 -0.6822
  300MOL0     C40406  13.165   8.682   8.922  0.6599  0.3394 -0.0484
  300MOL0     C40407  13.299   8.698   8.845  0.9534 -0.5527 -0.1795
  300MOL0     C40408  13.284   8.710   8.697  0.5112 -0.4472  0.3060
  300MOL0    Cl40409  13.234   8.884   8.642 -0.2099 -0.0778 -0.3747
  300MOL0     C40410  12.436   8.674   9.088  0.3010  0.2402 -0.0658
  300MOL0     C40411  12.298   8.686   9.041 -0.0079 -0.1179 -0.1254
  300MOL0     O40412  12.039   8.614   8.916  0.0935  0.1321 -0.3835
  300MOL0     C40413  11.755   8.641   8.908 -0.7592 -0.3979  0.2925
  300MOL0     C40414  11.622   8.651   8.907 -0.0468 -0.3838 -0.2504
  300MOL0     N40415  10.930   8.764   9.050 -0.3745 -0.1594  0.5179
  300MOL0     N40416  10.847   8.749   9.151 -0.1608  0.5312 -0.2561
  300MOL0     C40417   9.587   8.607   9.326  0.0067  0.9726  0.6979
  300MOL0     C40418   9.448   8.626   9.309 -0.5264 -1.4443 -0.2028
  300MOL0     C40419   9.005   8.675   9.275 -0.1946  0.4224 -1.3884
  300MOL0     C40420   8.935   8.689   9.155 -0.0101  0.3347  0.0479
  300MOL0     C40421   8.806   8.714   9.150  0.5488 -0.6051  0.4496
  300MOL0     C40422   8.734   8.737   9.268  0.7620  0.9587 -0.0134
  300MOL0     O40423   8.603   8.757   9.278 -0.7438  0.1974 -0.3537
  300MOL0     C40424   8.524   8.797   9.166  0.0696 -0.0085 -0.2127
  300MOL0     C40425   8.378   8.813   9.203  0.4437 -0.2252  0.3983
  300MOL0     C40426   8.349   8.924   9.297 -0.4237 -0.0670 -0.2422
  300MOL0     C40427   8.211   8.919   9.366  0.0903  0.5161 -0.1643
  300MOL0     C40428   8.097   8.891   9.273 -0.5916 -0.3418 -0.6705
  300MOL0     C40429   7.992   8.874   9.218 -0.0851 -1.2845  0.3512
  300MOL0     C40430   8.802   8.718   9.386 -0.1838  0.0338 -0.9574
  300MOL0     C40431   8.934   8.684   9.394 -0.1792  0.3228  0.3661
  300MOL0     C40432   8.995   8.680   9.530 -0.0160  0.3992 -0.7072
  300MOL0     H40433   9.318   8.437   9.555  0.0426 -0.3865 -0.8915
  300MOL0     H40434   9.562   8.388   9.592  1.8351  0.3979 -0.2789
  300MOL0     H40435   9.831   8.688   9.356 -1.2050  0.4067  1.1167
  300MOL0     H40436   9.963   8.600   9.439  0.3333 -2.7803 -0.0433
  300MOL0     H40437   9.823   8.524   9.195  0.1289  1.7006  0.9138
  300MOL0     H40438   9.935   8.414   9.283 -1.3459 -1.1262  0.8292
  300MOL0     H40439  10.034   8.699   9.200  1.1653 -0.7669  0.0397
  300MOL0     H40440  10.038   8.561   9.093 -0.9262 -1.3343  1.1276
  300MOL0     H40441  10.182   8.563   9.359  2.5555 -0.6325  0.3734
  300MOL0     H40442  10.164   8.432   9.243 -1.8881 -0.2432  2.1366
  300MOL0     H40443  10.273   8.575   9.071  0.1429  2.2322 -1.5314
  300MOL0     H40444  10.270   8.708   9.187 -0.1458  0.0708  0.8393
  300MOL0     H40445  10.434   8.615   9.337 -0.9555 -1.3358  0.1600
  300MOL0     H40446  10.434   8.459   9.259 -0.3664  0.2217  3.4028
  300MOL0     H40447  10.522   8.732   9.150  0.1565 -0.4018  0.1279
  300MOL0     H40448  10.519   8.601   9.043 -2.2147 -1.2864  0.8264
  300MOL0     H40449  10.668   8.639   9.301 -4.2224  1.6217  0.6661
  300MOL0     H40450  10.670   8.484   9.233  3.0760  0.6460  0.5840
  300MOL0     H40451  10.737   8.526   8.939  0.2813 -1.5130  2.9349
  300MOL0     H40452  10.888   8.618   8.751  1.2054 -1.9713  0.4876
  300MOL0     H40453  10.958   8.773   8.760  1.6859 -1.1675 -1.8038
  300MOL0     H40454  11.095   8.513   8.822  0.2841 -0.1302  0.7452
  300MOL0     H40455  11.136   8.615   8.694 -2.9371  1.1511 -1.2363
  300MOL0     H40456  11.157   8.669   8.999 -2.0075 -0.4755 -0.9847
  300MOL0     H40457  11.170   8.799   8.871 -2.2161 -1.8708 -2.6309
  300MOL0     H40458  11.381   8.697   8.792  0.1220 -0.1037  0.2698
  300MOL0     H40459  11.347   8.561   8.894  0.0467 -0.0492  0.5209
  300MOL0     H40460  11.572   8.852   9.174  0.1501 -0.6303  1.0639
  300MOL0     H40461  11.814   8.840   9.181  0.2427 -0.5800  1.4217
  300MOL0     H40462  12.156   8.754   9.350 -1.1552 -3.0231 -0.3958
  300MOL0     H40463  12.379   8.730   9.419  2.8951  0.7251 -0.1698
  300MOL0     H40464  12.684   8.760   9.095  2.1186 -1.8489 -0.4746
  300MOL0     H40465  12.666   8.862   9.238 -0.3007  0.1791 -0.5052
  300MOL0     H40466  12.842   8.768   9.346 -2.3524 -0.6979  0.8129
  300MOL0     H40467  12.828   8.615   9.273 -1.0429 -0.2791  1.2232
  300MOL0     H40468  12.899   8.730   9.046 -2.3872  2.2073  0.9527
  300MOL0     H40469  12.972   8.863   9.157  3.4420 -0.4221  0.3223
  300MOL0     H40470  13.043   8.573   9.146  0.7687 -0.2719  1.0417
  300MOL0     H40471  13.105   8.696   9.264  1.2296  0.7183  0.7363
  300MOL0     H40472  13.270   8.642   9.110 -1.2702 -3.4060 -3.0286
  300MOL0     H40473  13.220   8.810   9.082  0.5723 -0.5627 -1.1669
  300MOL0     H40474  13.125   8.581   8.908  1.8489  0.1047 -2.1968
  300MOL0     H40475  13.089   8.749   8.881  0.3631 -1.5166 -2.8566
  300MOL0     H40476  13.366   8.617   8.874 -2.2618 -3.4286 -0.1115
  300MOL0     H40477  13.341   8.796   8.871 -4.3177  2.1687 -0.4878
  300MOL0     H40478  13.378   8.683   8.647 -0.2313  1.4399 -2.3594
  300MOL0     H40479  13.203   8.642   8.668 -0.9839 -0.0037  3.1060
  300MOL0     H40480  12.510   8.642   9.016  1.2733 -1.2697  1.5135
  300MOL0     H40481  12.289   8.673   8.934  2.1662 -0.1368 -0.3654
  300MOL0     H40482  11.803   8.597   8.821 -2.2885 -1.6447  0.0302
  300MOL0     H40483  11.566   8.595   8.833 -0.4484 -1.5700  0.9009
  300MOL0     H40484   9.658   8.673   9.279  1.9849 -0.2545  1.8056
  300MOL0     H40485   9.430   8.689   9.223  0.4452  1.2513  1.4479
  300MOL0     H40486   8.979   8.651   9.063 -1.8220 -3.1226  0.4370
  300MOL0     H40487   8.760   8.708   9.052  0.2131 -0.1903  0.5762
  300MOL0     H40488   8.530   8.715   9.094  0.3454 -0.8497  0.7394
  300MOL0     H40489   8.551   8.892   9.120  1.7201  0.7055  2.0700
  300MOL0     H40490   8.353   8.713   9.240  0.1725  0.3154  1.7441
  300MOL0     H40491   8.316   8.831   9.115 -0.9945  0.7842  1.5570
  300MOL0     H40492   8.358   9.019   9.244 -0.3392 -0.8533 -1.6750
  300MOL0     H40493   8.423   8.928   9.378  0.0946  1.6729 -0.7529
  300MOL0     H40494   8.199   8.835   9.436  0.3998  1.6266  1.2668
  300MOL0     H40495   8.200   9.011   9.424  2.2814 -0.3630  1.8669
  300MOL0     H40496   7.895   8.851   9.178  1.6238 -2.1214 -3.8494
  300MOL0     H40497   8.747   8.723   9.480 -0.1893  1.5490 -1.0149
  300MOL0     H40498   9.088   8.735   9.545 -0.0321  0.4452 -0.7736
  300MOL0     H40499   8.918   8.717   9.598 -1.8467 -4.1303  0.0469
  300MOL0     H40500   9.017   8.578   9.563 -1.1390  0.7721  1.3283
  301MOL0     O40501   7.093   4.325   7.797 -0.2583 -0.0096  0.4256
  301MOL0     C40502   7.115   4.310   7.679  0.3348  0.1257  0.7003
  301MOL0     O40503   7.024   4.301   7.582 -0.4708 -0.3190 -0.2886
  301MOL0     C40504   6.899   4.350   7.602  0.7689 -0.6724  0.0682
  301MOL0     C40505   6.796   4.282   7.533  1.2082 -0.5877  0.7534
  301MOL0     C40506   6.658   4.300   7.565  0.4089  0.0149 -0.5241
  301MOL0     C40507   6.623   4.401   7.660  1.1576 -0.0022  0.0472
  301MOL0     O40508   6.490   4.420   7.669  0.2904  0.0796  0.2370
  301MOL0     C40509   6.438   4.498   7.780  0.5290 -0.2277  0.1083
  301MOL0     C40510   6.290   4.485   7.801 -0.7779  0.4776 -0.1583
  301MOL0     C40511   6.244   4.574   7.922  0.2399  0.5713  0.4240
  301MOL0     C40512   6.093   4.556   7.939 -0.5017  1.3780 -0.5164
  301MOL0     C40513   6.038   4.697   7.975  0.1016  0.6651  0.2863
  301MOL0     C40514   5.888   4.677   8.031 -0.2498  0.1498 -0.0497
  301MOL0     C40515   5.825   4.808   8.097  0.3663  0.0654  0.5060
  301MOL0     C40516   5.839   4.939   8.011 -0.1522 -0.3946 -0.1874
  301MOL0     N40517   5.974   4.991   7.967 -0.0935  0.2815  0.0380
  301MOL0     C40518   6.067   5.024   8.060 -0.7753  0.0105  0.3486
  301MOL0     C40519   6.176   5.051   7.979  0.7856  0.0899  1.4435
  301MOL0     C40520   6.304   5.099   8.029  0.2149  0.8994 -0.3111
  301MOL0     C40521   6.426   5.055   7.959  0.1750 -1.2083  0.2830
  301MOL0     C40522   6.547   5.140   7.989  0.8793 -0.2541  0.4708
  301MOL0     C40523   6.682   5.101   7.922 -0.9427  0.5439 -0.1485
  301MOL0     O40524   6.761   5.224   7.910 -0.4500 -0.2403  0.0987
  301MOL0     C40525   6.902   5.219   7.920 -0.4915  1.1695 -0.8451
  301MOL0     C40526   6.975   5.320   7.991  1.0712  0.2960 -0.1464
  301MOL0     C40527   7.112   5.310   8.005  0.4344 -0.6284  0.7769
  301MOL0     C40528   7.184   5.203   7.954  0.8718  0.0375 -0.1328
  301MOL0     C40529   7.336   5.197   7.959  0.2076  0.1999  0.1320
  301MOL0     O40530   7.393   5.080   7.911 -0.6719 -0.0532  0.8051
  301MOL0     C40531   7.529   5.067   7.895 -0.4618  0.0554 -0.0735
  301MOL0     C40532   7.595   5.029   8.010  0.4261  0.3021 -0.6391
  301MOL0     C40533   7.730   5.014   8.007  0.8038 -0.0785  0.0494
  301MOL0     C40534   7.808   5.021   7.892 -0.7222 -0.9186 -0.5148
  301MOL0     O40535   7.940   4.984   7.899  0.0337  0.7014 -0.3503
  301MOL0     C40536   8.027   4.994   7.780  0.2395 -0.0121  0.1136
  301MOL0     C40537   8.168   4.931   7.796  0.3157  0.4302 -0.8110
  301MOL0     C40538   8.240   4.939   7.660  0.2995 -0.1442 -0.3829
  301MOL0     C40539   8.379   4.863   7.667 -0.3291 -0.2577  0.5963
  301MOL0     C40540   8.415   4.798   7.534 -0.1991  0.1034  0.5946
  301MOL0     C40541   8.559   4.749   7.529  1.1713  0.4963  0.9944
  301MOL0     C40542   8.591   4.703   7.382 -0.3962  0.0595 -0.1463
  301MOL0     C40543   8.696   4.597   7.402 -0.0601  0.4218  0.0844
  301MOL0    Cl40544   8.795   4.616   7.251 -0.0171  0.2278  0.2078
  301MOL0     C40545   7.743   5.070   7.778 -0.5058 -0.1527 -0.4068
  301MOL0     C40546   7.603   5.091   7.776 -0.2211  0.5419  0.3179
  301MOL0     O40547   7.402   5.296   7.999 -0.4344  0.1740  0.2120
  301MOL0     C40548   7.116   5.109   7.881 -0.0550 -0.1043 -0.5772
  301MOL0     C40549   6.978   5.118   7.861  0.0601 -0.2436 -0.7448
  301MOL0     N40550   6.136   5.055   7.843 -0.3143  0.1569 -0.3100
  301MOL0     N40551   6.012   5.022   7.844 -0.6083  0.0762 -0.1459
  301MOL0     C40552   6.719   4.460   7.738 -0.8567 -0.1162  0.1026
  301MOL0     C40553   6.852   4.438   7.707  0.3850  0.7554  0.5029
  301MOL0     C40554   7.257   4.276   7.632  0.1054  0.1694  0.6554
  301MOL0     C40555   7.278   4.196   7.523 -0.1219 -0.2950  0.4902
  301MOL0     C40556   7.402   4.179   7.470 -0.0105  0.1677 -0.2194
  301MOL0     C40557   7.509   4.252   7.522 -0.8873 -0.1824 -0.4516
  301MOL0     O40558   7.637   4.259   7.465 -0.1348  0.2671  0.3008
  301MOL0     C40559   7.691   4.128   7.442  0.8444 -0.2977 -0.3467
  301MOL0     C40560   7.843   4.151   7.465  0.2074  0.0849  0.0538
  301MOL0     C40561   7.908   4.016   7.484 -0.3594 -0.7354  0.1276
  301MOL0     C40562   8.064   4.036   7.477 -0.2659 -0.7529  0.7217
  301MOL0     C40563   8.115   4.119   7.585  0.5248  0.1242 -0.0740
  301MOL0     C40564   8.137   4.164   7.692 -0.6358  0.1467 -0.3744
  301MOL0     C40565   7.489   4.333   7.631  1.3340 -0.4846 -0.1601
  301MOL0     C40566   7.363   4.339   7.696 -0.4667  0.3768 -0.0033
  301MOL0     C40567   7.358   4.431   7.816 -0.3023  0.0811  0.2771
  301MOL0     H40568   6.821   4.213   7.453 -0.3516  1.2190 -1.4362
  301MOL0     H40569   6.573   4.249   7.522  0.1683  0.1754 -0.2458
  301MOL0     H40570   6.490   4.459   7.868  1.1360 -2.3865 -1.1601
  301MOL0     H40571   6.462   4.604   7.768 -0.9079  0.1196  0.0828
  301MOL0     H40572   6.262   4.380   7.814 -2.9598  0.9265 -0.7496
  301MOL0     H40573   6.248   4.516   7.705 -3.5036  0.0411  0.8009
  301MOL0     H40574   6.268   4.673   7.884 -1.1683 -0.1601 -2.6807
  301MOL0     H40575   6.296   4.550   8.015  0.6220 -1.2679 -0.2051
  301MOL0     H40576   6.044   4.519   7.849  0.3283 -3.3502  0.7144
  301MOL0     H40577   6.070   4.489   8.022 -0.7282 -0.6918 -2.1863
  301MOL0     H40578   6.097   4.736   8.058 -0.4660 -0.2693  1.1541
  301MOL0     H40579   6.042   4.759   7.885  0.3438  2.6337  1.6067
  301MOL0     H40580   5.818   4.644   7.954 -0.2029  0.1075 -0.0736
  301MOL0     H40581   5.892   4.606   8.114  3.9418  1.6420  1.2627
  301MOL0     H40582   5.880   4.823   8.190  1.7984  1.2054 -0.4627
  301MOL0     H40583   5.718   4.795   8.112 -0.1390 -1.2586 -3.0963
  301MOL0     H40584   5.782   4.926   7.919 -0.2981 -0.9131 -0.0280
  301MOL0     H40585   5.780   5.008   8.072  1.2252 -1.2952  2.3624
  301MOL0     H40586   6.057   5.010   8.168  0.8521 -0.8195  0.4095
  301MOL0     H40587   6.301   5.209   8.024 -0.7421  0.8222 -2.3695
  301MOL0     H40588   6.327   5.068   8.132 -1.2474 -0.2981 -0.3116
  301MOL0     H40589   6.446   4.948   7.967  0.7377 -1.1744 -0.4801
  301MOL0     H40590   6.407   5.066   7.851  3.8699 -2.5455 -0.6641
  301MOL0     H40591   6.561   5.131   8.097  1.0996  1.4658  0.6114
  301MOL0     H40592   6.522   5.245   7.971 -0.7589 -0.1574  2.8042
  301MOL0     H40593   6.661   5.071   7.818 -1.7689  1.3552 -0.2265
  301MOL0     H40594   6.728   5.015   7.971 -0.9980 -0.2923 -1.4928
  301MOL0     H40595   6.918   5.404   8.031 -1.4386 -1.0751 -0.5780
  301MOL0     H40596   7.164   5.386   8.062 -0.1802 -0.3455  0.9752
  301MOL0     H40597   7.551   5.002   8.105 -1.8830  4.3851 -0.3193
  301MOL0     H40598   7.780   4.969   8.092  0.5523 -0.9887 -0.2795
  301MOL0     H40599   7.974   4.935   7.704  0.3998 -1.8937  1.4020
  301MOL0     H40600   8.035   5.100   7.753 -0.6311  0.0353  0.0122
  301MOL0     H40601   8.214   4.993   7.874 -0.7971  2.2767 -1.5663
  301MOL0     H40602   8.162   4.826   7.826  0.7590  0.1028 -1.8167
  301MOL0     H40603   8.167   4.910   7.584 -3.9371  1.2680  2.7333
  301MOL0     H40604   8.270   5.038   7.626  1.2073 -0.2998 -0.0702
  301MOL0     H40605   8.367   4.779   7.737 -0.0430  0.4876  1.5509
  301MOL0     H40606   8.460   4.931   7.694 -1.6431  1.8788 -0.5981
  301MOL0     H40607   8.389   4.860   7.448 -2.1472 -1.7316 -0.2358
  301MOL0     H40608   8.346   4.714   7.520 -2.6540  1.8220  1.7491
  301MOL0     H40609   8.629   4.828   7.557  0.8469  1.6810 -1.3275
  301MOL0     H40610   8.578   4.668   7.601 -2.0722 -1.5074 -0.1823
  301MOL0     H40611   8.622   4.793   7.328 -4.5256  1.3769 -0.6787
  301MOL0     H40612   8.510   4.672   7.316  1.5036 -3.0936 -1.1923
  301MOL0     H40613   8.762   4.625   7.484  1.8264 -1.0483 -0.8442
  301MOL0     H40614   8.664   4.493   7.417  0.9321 -0.0626 -1.0095
  301MOL0     H40615   7.793   5.081   7.683 -0.5938  0.7408 -0.3547
  301MOL0     H40616   7.554   5.135   7.689  0.0285 -0.6817 -0.4667
  301MOL0     H40617   7.174   5.032   7.833  2.5060  0.4394  1.4086
  301MOL0     H40618   6.926   5.043   7.802 -2.0081  1.1990 -0.9096
  301MOL0     H40619   6.683   4.529   7.814 -1.0113  0.0463 -0.1130
  301MOL0     H40620   6.929   4.480   7.771  0.0312 -1.5188  2.5499
  301MOL0     H40621   7.191   4.157   7.472  2.2291 -2.3499 -2.3194
  301MOL0     H40622   7.412   4.117   7.381  1.5093 -1.2155  0.8492
  301MOL0     H40623   7.676   4.088   7.341  3.8776 -1.2505 -0.5413
  301MOL0     H40624   7.656   4.050   7.510  1.5168  0.0784  0.4424
  301MOL0     H40625   7.858   4.203   7.561  0.5373 -0.3216  0.2249
  301MOL0     H40626   7.883   4.204   7.378  0.7000 -0.0009  0.2260
  301MOL0     H40627   7.866   3.946   7.411 -0.2242 -0.9623  0.2679
  301MOL0     H40628   7.881   3.988   7.587 -2.5620 -5.1078 -1.3797
  301MOL0     H40629   8.101   3.933   7.486  2.6056  0.1928  0.5358
  301MOL0     H40630   8.102   4.067   7.380 -2.1773 -1.0684 -0.1801
  301MOL0     H40631   8.152   4.212   7.787 -0.4327  0.8778 -0.7670
  301MOL0     H40632   7.579   4.381   7.667  0.5485  0.7415  0.2347
  301MOL0     H40633   7.328   4.363   7.896 -0.4357 -2.1500 -1.5666
  301MOL0     H40634   7.455   4.473   7.847  0.1608 -0.5417 -0.3020
  301MOL0     H40635   7.294   4.519   7.809 -0.6356 -0.1435  0.4531
  302MOL0     O40636   9.135   7.710   9.549 -0.2984 -0.2998 -0.2260
  302MOL0     C40637   9.085   7.761   9.449 -1.1550  0.0718  0.1268
  302MOL0     O40638   9.156   7.788   9.341  0.1022 -0.2784 -0.1095
  302MOL0     C40639   9.295   7.765   9.342  0.3648 -0.3819  0.8397
  302MOL0     C40640   9.344   7.638   9.299  0.5566 -0.1054  0.1898
  302MOL0     C40641   9.477   7.617   9.299 -0.0899  0.4329  0.2318
  302MOL0     C40642   9.571   7.707   9.355  0.0527  0.8392 -0.0945
  302MOL0     O40643   9.704   7.695   9.366 -0.3852 -0.0311  0.3310
  302MOL0     C40644   9.764   7.569   9.329 -0.3093  0.3697 -0.4062
  302MOL0     C40645   9.909   7.605   9.352  0.6339  0.5008  0.3508
  302MOL0     C40646  10.000   7.495   9.302 -0.4282  0.4333  0.1325
  302MOL0     C40647  10.138   7.535   9.320 -0.1130 -0.1843  0.7032
  302MOL0     C40648  10.246   7.429   9.271  0.0239 -0.1508  0.0609
  302MOL0     C40649  10.392   7.468   9.299  0.7824  0.1654 -0.1210
  302MOL0     C40650  10.487   7.389   9.221 -0.1289  0.1909  0.1872
  302MOL0     C40651  10.628   7.399   9.282  0.4344 -0.0678  0.4820
  302MOL0     N40652  10.714   7.312   9.212  0.7892  0.4411 -0.2382
  302MOL0     C40653  10.745   7.182   9.244  0.6893 -0.1069  0.3555
  302MOL0     C40654  10.836   7.147   9.145 -0.7236 -0.4713 -0.2165
  302MOL0     C40655  10.897   7.015   9.127  0.5416 -0.0756 -0.1020
  302MOL0     C40656  11.010   7.006   9.226 -0.0601  0.2358 -0.5794
  302MOL0     C40657  11.074   6.868   9.225 -0.4298 -1.1606  0.3788
  302MOL0     C40658  11.214   6.873   9.299  0.6974  0.0035 -0.1752
  302MOL0     O40659  11.256   6.736   9.296 -0.3074  0.2698 -0.2966
  302MOL0     C40660  11.391   6.705   9.337  1.2115  0.5440  0.1290
  302MOL0     C40661  11.419   6.572   9.338 -0.5463 -0.0647  0.4483
  302MOL0     C40662  11.550   6.535   9.356 -0.7107  0.0225  0.3852
  302MOL0     C40663  11.648   6.623   9.397 -1.1258 -0.5754  0.2630
  302MOL0     C40664  11.783   6.568   9.433  0.6449 -0.0524  0.5815
  302MOL0     O40665  11.800   6.433   9.414 -0.3561  0.1732 -0.2676
  302MOL0     C40666  11.917   6.364   9.425 -0.8117 -1.3023  0.6336
  302MOL0     C40667  11.914   6.225   9.447  0.1192  0.3556  0.0899
  302MOL0     C40668  12.026   6.150   9.468  0.3086 -0.5804  0.0758
  302MOL0     C40669  12.157   6.208   9.470  0.3057  0.0491  0.0803
  302MOL0     O40670  12.268   6.133   9.469  0.3737  0.1404  0.1815
  302MOL0     C40671  12.379   6.188   9.537 -0.2010  0.4299  0.0305
  302MOL0     C40672  12.483   6.084   9.561  0.6632  0.0771  0.1633
  302MOL0     C40673  12.608   6.151   9.616  0.4828 -0.2303 -0.2028
  302MOL0     C40674  12.728   6.059   9.617  1.0003 -0.2840 -0.1248
  302MOL0     C40675  12.860   6.130   9.657  0.2634  0.2898 -0.2296
  302MOL0     C40676  12.934   6.056   9.781  0.8109  0.3156  0.9927
  302MOL0     C40677  13.068   6.121   9.818  0.0255  0.4908  0.8637
  302MOL0     C40678  13.118   6.091   9.965  0.1959  0.0415  0.2822
  302MOL0    Cl40679  13.188   5.926   9.984  0.1721  0.2561  0.6134
  302MOL0     C40680  12.164   6.342   9.426  0.1468  0.4555 -0.7065
  302MOL0     C40681  12.044   6.418   9.409 -0.0721  1.1112 -0.0695
  302MOL0     O40682  11.864   6.646   9.479  0.7670  0.2792 -0.1040
  302MOL0     C40683  11.619   6.754   9.401 -0.0106 -0.1721 -0.2691
  302MOL0     C40684  11.487   6.804   9.363 -0.4190  0.4224 -0.4695
  302MOL0     N40685  10.866   7.256   9.069 -0.0596 -0.8250  0.3124
  302MOL0     N40686  10.800   7.351   9.111  0.6438  0.0614  1.1024
  302MOL0     C40687   9.519   7.824   9.415  0.0472  0.2745  0.2321
  302MOL0     C40688   9.385   7.859   9.400 -0.3929 -0.5897 -0.7384
  302MOL0     C40689   8.946   7.810   9.454 -1.0401 -0.1208  0.2255
  302MOL0     C40690   8.916   7.917   9.366 -0.9985  0.0688 -0.1858
  302MOL0     C40691   8.785   7.960   9.355  0.3213 -0.5931 -0.6655
  302MOL0     C40692   8.683   7.913   9.444 -0.6001  0.0806  0.2005
  302MOL0     O40693   8.554   7.954   9.451 -0.3289 -0.5758  0.8331
  302MOL0     C40694   8.531   8.085   9.394 -0.0486 -0.1001  0.1251
  302MOL0     C40695   8.385   8.121   9.414  0.9612  1.1180 -0.4909
  302MOL0     C40696   8.287   8.038   9.339 -0.4740  0.3153  0.1581
  302MOL0     C40697   8.154   8.022   9.396  1.7489 -0.8013  0.8615
  302MOL0     C40698   8.076   7.953   9.290  0.6239 -0.7668  0.0123
  302MOL0     C40699   8.005   7.903   9.201  0.6434  0.1341 -0.4092
  302MOL0     C40700   8.715   7.804   9.518 -0.0072  0.4360 -0.2322
  302MOL0     C40701   8.840   7.744   9.520  0.5043  0.2029  0.0728
  302MOL0     C40702   8.864   7.604   9.577  0.2034 -0.1136  0.0392
  302MOL0     H40703   9.271   7.573   9.251  0.6541  0.0135 -0.1190
  302MOL0     H40704   9.516   7.522   9.262  0.1622  0.5062  0.3083
  302MOL0     H40705   9.741   7.492   9.403 -2.2655  1.0814 -0.2048
  302MOL0     H40706   9.753   7.542   9.223 -0.5651 -1.0974 -0.0291
  302MOL0     H40707   9.905   7.625   9.459  1.1916 -1.1358  0.6993
  302MOL0     H40708   9.936   7.700   9.306 -0.5677  0.7500  0.1216
  302MOL0     H40709   9.990   7.478   9.195  2.8137 -0.4604 -0.1198
  302MOL0     H40710   9.974   7.399   9.348 -0.8518  0.6044  0.2591
  302MOL0     H40711  10.146   7.629   9.266 -1.0714 -0.2296  0.4493
  302MOL0     H40712  10.148   7.548   9.428 -0.1434  1.0648  0.5704
  302MOL0     H40713  10.226   7.330   9.315  0.7139 -0.7162 -0.8641
  302MOL0     H40714  10.235   7.421   9.162  0.6275 -0.2383  0.0069
  302MOL0     H40715  10.399   7.572   9.268 -0.0021  0.3095  0.1690
  302MOL0     H40716  10.414   7.461   9.406  1.6785 -1.3504 -0.3646
  302MOL0     H40717  10.478   7.401   9.112 -1.3154  3.2535  0.5139
  302MOL0     H40718  10.472   7.282   9.237 -0.0380 -0.1061 -1.4976
  302MOL0     H40719  10.658   7.504   9.268  1.3582 -0.4844 -0.8017
  302MOL0     H40720  10.629   7.366   9.386  5.4922 -1.9454  0.1109
  302MOL0     H40721  10.698   7.117   9.317 -0.0277 -0.5378 -0.4773
  302MOL0     H40722  10.819   6.941   9.147  0.7008 -1.0085 -2.6406
  302MOL0     H40723  10.931   7.005   9.024 -0.5094 -0.4824 -0.4204
  302MOL0     H40724  11.080   7.086   9.200  1.6808 -0.8089  0.6837
  302MOL0     H40725  10.963   7.022   9.323  1.2899  0.1357  0.1006
  302MOL0     H40726  11.081   6.829   9.123 -0.0390  3.2960 -1.4955
  302MOL0     H40727  11.014   6.801   9.287  1.7764 -0.3623  3.6365
  302MOL0     H40728  11.211   6.912   9.401  0.1730 -2.6799  0.9122
  302MOL0     H40729  11.283   6.927   9.234  0.7523 -2.3946 -2.2569
  302MOL0     H40730  11.341   6.499   9.320  0.7389 -1.1866 -0.8781
  302MOL0     H40731  11.570   6.429   9.367  2.3280  0.2654 -1.5885
  302MOL0     H40732  11.826   6.160   9.452  1.3357 -1.3835 -0.0783
  302MOL0     H40733  11.994   6.047   9.472 -2.7741  0.3222  1.2182
  302MOL0     H40734  12.422   6.267   9.474 -0.7021  0.9844  0.3656
  302MOL0     H40735  12.358   6.241   9.631  0.7908  4.4197 -1.7745
  302MOL0     H40736  12.439   6.000   9.615  2.2141 -0.5881  0.4386
  302MOL0     H40737  12.502   6.041   9.463 -0.1860 -0.3825  0.1945
  302MOL0     H40738  12.633   6.236   9.550  0.3646 -0.1166 -0.1013
  302MOL0     H40739  12.589   6.197   9.713 -0.9453  0.9661 -1.0011
  302MOL0     H40740  12.736   6.003   9.523 -2.9787 -0.3445 -0.5659
  302MOL0     H40741  12.706   5.986   9.695 -0.8135  0.5798  0.2132
  302MOL0     H40742  12.846   6.233   9.691  0.1574  0.4623 -0.7959
  302MOL0     H40743  12.920   6.141   9.567  0.0181 -0.1840 -0.4586
  302MOL0     H40744  12.867   6.058   9.868 -0.8182 -0.3860 -0.2006
  302MOL0     H40745  12.955   5.956   9.742 -0.6462  0.7157 -0.9657
  302MOL0     H40746  13.062   6.228   9.797 -2.5307 -0.3411 -3.9295
  302MOL0     H40747  13.132   6.071   9.745 -0.3620 -0.6437  1.2683
  302MOL0     H40748  13.187   6.174   9.981 -1.8086  1.5472  1.7004
  302MOL0     H40749  13.029   6.100  10.028  0.1581 -1.6763  0.5419
  302MOL0     H40750  12.261   6.390   9.413 -1.3141  3.4423 -1.2391
  302MOL0     H40751  12.052   6.523   9.380 -2.2421  1.4473  0.3114
  302MOL0     H40752  11.695   6.823   9.435  0.5340 -0.2910 -1.2200
  302MOL0     H40753  11.479   6.912   9.354  1.4803  0.7012  0.6683
  302MOL0     H40754   9.582   7.897   9.465 -1.1594  0.4582  1.5441
  302MOL0     H40755   9.350   7.959   9.424  0.3274 -0.4613 -0.1985
  302MOL0     H40756   8.990   7.956   9.296  0.3330 -1.6036  0.2078
  302MOL0     H40757   8.778   8.044   9.286  2.2045  0.7915  0.6965
  302MOL0     H40758   8.548   8.098   9.287 -0.6081 -2.2722 -0.2679
  302MOL0     H40759   8.597   8.157   9.443  1.6850 -0.4260 -1.5970
  302MOL0     H40760   8.355   8.226   9.402 -1.3335  0.3978 -1.6919
  302MOL0     H40761   8.346   8.105   9.515 -0.2501  2.6803 -0.6571
  302MOL0     H40762   8.324   7.935   9.330 -0.3996  0.4051 -0.6886
  302MOL0     H40763   8.273   8.088   9.243  0.9001  1.7484  0.6609
  302MOL0     H40764   8.163   7.957   9.483 -1.3101 -0.8889  1.1970
  302MOL0     H40765   8.113   8.119   9.426  0.1882 -0.4980 -1.8841
  302MOL0     H40766   7.949   7.863   9.119 -0.4388 -1.2220  0.9282
  302MOL0     H40767   8.637   7.752   9.572  0.4081  0.1809  0.1295
  302MOL0     H40768   8.780   7.542   9.545  0.9319 -0.5203 -1.1719
  302MOL0     H40769   8.957   7.559   9.540  0.2274  0.7619 -1.0307
  302MOL0     H40770   8.875   7.600   9.685  0.9926  1.2375  0.0348
  303MOL0     O40771  10.844   6.527   0.608  0.4957 -0.0289 -0.1653
  303MOL0     C40772  10.794   6.612   0.683 -1.2417 -0.4041  0.9143
  303MOL0     O40773  10.875   6.704   0.745  0.9614 -0.1123 -0.3942
  303MOL0     C40774  11.012   6.683   0.757  1.2303 -0.2400  0.2465
  303MOL0     C40775  11.099   6.744   0.662  0.1622  0.2372  0.6273
  303MOL0     C40776  11.238   6.716   0.669  0.4170  0.7094 -0.5670
  303MOL0     C40777  11.284   6.626   0.765  0.1336  0.8192  0.0484
  303MOL0     O40778  11.414   6.580   0.784  0.4249 -0.4719  0.7510
  303MOL0     C40779  11.513   6.633   0.703 -0.3969 -0.0708  0.4138
  303MOL0     C40780  11.655   6.605   0.765 -0.4552 -0.4153 -0.6538
  303MOL0     C40781  11.690   6.460   0.798 -0.2847 -0.7650  0.7982
  303MOL0     C40782  11.693   6.367   0.677 -0.3159 -0.1627 -0.0174
  303MOL0     C40783  11.780   6.246   0.697 -0.3610  0.3253 -0.4001
  303MOL0     C40784  11.828   6.160   0.580  0.3640 -0.8607  0.5323
  303MOL0     C40785  11.955   6.086   0.618 -0.6718  0.4913 -0.6521
  303MOL0     C40786  12.007   5.996   0.507  0.0152  0.0332  0.1182
  303MOL0     N40787  12.136   5.933   0.543 -0.9389 -0.4115 -0.2449
  303MOL0     C40788  12.251   6.001   0.571 -0.4822 -0.3703 -0.0622
  303MOL0     C40789  12.320   5.909   0.640 -0.2265  0.5508  0.3835
  303MOL0     C40790  12.448   5.933   0.713 -0.8752 -0.3835 -0.0463
  303MOL0     C40791  12.575   5.883   0.641  0.7152 -1.0304  0.1194
  303MOL0     C40792  12.566   5.729   0.634 -0.3731 -0.2591 -0.4648
  303MOL0     C40793  12.710   5.683   0.625 -0.7030  0.1281 -0.3184
  303MOL0     O40794  12.770   5.685   0.754 -0.0470 -0.0329 -0.2362
  303MOL0     C40795  12.905   5.665   0.774 -0.0977  0.2176  0.3829
  303MOL0     C40796  12.995   5.638   0.669 -0.2106  1.3643 -0.3511
  303MOL0     C40797  13.131   5.642   0.701  0.0056 -0.0814  1.0271
  303MOL0     C40798  13.181   5.657   0.827  0.4621 -0.3573 -0.0209
  303MOL0     C40799  13.331   5.689   0.849  0.9858  0.3455 -0.3659
  303MOL0     O40800  13.405   5.696   0.739  0.1141  0.7454  0.1523
  303MOL0     C40801  13.536   5.719   0.752 -0.3079  0.1122 -0.1802
  303MOL0     C40802  13.623   5.628   0.692 -0.7743 -0.1649  0.1109
  303MOL0     C40803  13.761   5.657   0.695 -0.4090 -0.7216  0.2304
  303MOL0     C40804  13.814   5.761   0.768 -0.1909 -0.5686  0.3198
  303MOL0     O40805  13.948   5.784   0.763 -0.4753 -0.6835  0.7375
  303MOL0     C40806  14.021   5.854   0.865 -0.1639 -0.5250  0.0229
  303MOL0     C40807  14.165   5.808   0.837 -0.0842 -0.0729 -0.6020
  303MOL0     C40808  14.260   5.850   0.958  1.1885  0.5968  0.0792
  303MOL0     C40809  14.406   5.808   0.937  0.1693  0.0880 -0.4228
  303MOL0     C40810  14.504   5.858   1.051 -0.0018  0.4305 -0.2439
  303MOL0     C40811  14.518   5.767   1.167  0.1503 -0.6863 -0.7179
  303MOL0     C40812  14.590   5.834   1.292  0.2777  0.4793 -0.1821
  303MOL0     C40813  14.482   5.889   1.389  0.0632  0.2195  0.2884
  303MOL0    Cl40814  14.563   5.949   1.546  0.3056 -0.4888 -0.4628
  303MOL0     C40815  13.725   5.845   0.837  0.4535  0.9287 -0.8933
  303MOL0     C40816  13.590   5.823   0.828 -0.2818 -0.1593 -0.4862
  303MOL0     O40817  13.369   5.707   0.965  0.6067 -0.4483  0.5460
  303MOL0     C40818  13.089   5.677   0.933 -0.6551  0.1716  0.1078
  303MOL0     C40819  12.953   5.687   0.904  1.0567  0.7543 -0.2012
  303MOL0     N40820  12.251   5.786   0.648 -0.0075  0.3229  0.3219
  303MOL0     N40821  12.140   5.807   0.593 -0.3686 -0.0072 -0.2570
  303MOL0     C40822  11.193   6.570   0.867 -0.8129 -0.4852 -0.2070
  303MOL0     C40823  11.057   6.600   0.861  0.3733  0.9420  0.8656
  303MOL0     C40824  10.647   6.623   0.702  0.2523 -0.0948  0.8015
  303MOL0     C40825  10.603   6.728   0.785 -0.4832 -0.0055  0.3325
  303MOL0     C40826  10.473   6.740   0.819 -0.3196  0.7527 -0.1896
  303MOL0     C40827  10.374   6.643   0.785  0.5256 -0.7450 -0.3705
  303MOL0     O40828  10.245   6.654   0.827  0.5515 -0.3535 -0.1043
  303MOL0     C40829  10.195   6.774   0.898 -0.0751  0.3073  0.8124
  303MOL0     C40830  10.188   6.892   0.801  0.5496  0.1727 -0.1689
  303MOL0     C40831  10.163   7.018   0.873 -0.3956 -0.7048  0.4754
  303MOL0     C40832  10.226   7.138   0.806 -0.1446 -1.0355 -0.2044
  303MOL0     C40833  10.373   7.123   0.798 -0.0785 -0.2652 -0.2952
  303MOL0     C40834  10.491   7.100   0.777 -0.4089  0.1245 -0.4658
  303MOL0     C40835  10.412   6.555   0.682 -0.5711 -0.1518  0.3595
  303MOL0     C40836  10.549   6.543   0.643  0.0407  0.1949 -0.9694
  303MOL0     C40837  10.581   6.436   0.538  0.7658  0.1005 -0.9843
  303MOL0     H40838  11.057   6.819   0.595 -0.5475  0.2626  1.0840
  303MOL0     H40839  11.295   6.767   0.592 -2.1714  2.1268 -1.6428
  303MOL0     H40840  11.514   6.603   0.598  0.4478  4.6498 -1.1566
  303MOL0     H40841  11.510   6.742   0.697 -2.3822 -0.1828 -3.4766
  303MOL0     H40842  11.673   6.668   0.853  0.9730 -0.0982 -1.1488
  303MOL0     H40843  11.732   6.635   0.693  3.5136 -0.8751  2.9902
  303MOL0     H40844  11.624   6.419   0.876  0.3461 -0.0916  1.7106
  303MOL0     H40845  11.784   6.467   0.854 -1.2046 -0.2784  2.3567
  303MOL0     H40846  11.589   6.346   0.652 -0.8573  2.1567  0.1015
  303MOL0     H40847  11.730   6.424   0.591 -0.1348 -0.0055  0.1654
  303MOL0     H40848  11.858   6.284   0.762 -0.9821  2.2347 -0.7198
  303MOL0     H40849  11.725   6.174   0.759  1.0889  0.1196  0.6931
  303MOL0     H40850  11.747   6.096   0.543  0.4674 -0.6686 -0.0370
  303MOL0     H40851  11.848   6.224   0.493 -1.0106 -2.3477 -0.9529
  303MOL0     H40852  11.918   6.023   0.700 -0.3232  2.1943  0.8600
  303MOL0     H40853  12.032   6.156   0.653  0.0599  0.7713 -2.6808
  303MOL0     H40854  11.935   5.918   0.482  1.6609 -0.8544 -2.2367
  303MOL0     H40855  12.032   6.061   0.423  1.3153 -3.2201 -2.2283
  303MOL0     H40856  12.264   6.109   0.563 -1.0233 -0.1811  1.4285
  303MOL0     H40857  12.457   6.032   0.759 -0.7528 -0.5788  0.3589
  303MOL0     H40858  12.446   5.869   0.802  1.4708 -2.0844 -1.0816
  303MOL0     H40859  12.586   5.924   0.540  1.8066 -0.1990  0.5518
  303MOL0     H40860  12.654   5.917   0.709 -0.6742  2.0593  0.3715
  303MOL0     H40861  12.523   5.700   0.538  2.7013  1.8878 -2.6746
  303MOL0     H40862  12.520   5.684   0.722  0.7726 -1.9473 -0.6931
  303MOL0     H40863  12.767   5.737   0.549  2.8094 -1.5084  0.9364
  303MOL0     H40864  12.709   5.579   0.589 -2.6069  0.1748 -0.4861
  303MOL0     H40865  12.962   5.605   0.571  1.4355 -0.7940 -0.2381
  303MOL0     H40866  13.192   5.638   0.611 -0.0050  2.1299  0.8628
  303MOL0     H40867  13.576   5.552   0.630  1.4602 -0.0976 -1.8249
  303MOL0     H40868  13.833   5.602   0.635  0.3985  0.2033  0.3131
  303MOL0     H40869  14.014   5.963   0.862 -3.3698 -0.4732  2.5963
  303MOL0     H40870  13.994   5.823   0.967  2.2826 -0.9523  0.5912
  303MOL0     H40871  14.164   5.700   0.820  1.9297 -0.1784 -0.3177
  303MOL0     H40872  14.199   5.844   0.739 -3.4000 -0.0699 -1.8636
  303MOL0     H40873  14.261   5.959   0.958  1.1514  0.5975 -0.3974
  303MOL0     H40874  14.216   5.810   1.050  1.5824 -2.3689 -0.9069
  303MOL0     H40875  14.433   5.847   0.838  0.6705 -1.4470 -0.9126
  303MOL0     H40876  14.418   5.700   0.936  1.3761  0.1967  0.6296
  303MOL0     H40877  14.475   5.959   1.082  2.3058  0.6373  1.4354
  303MOL0     H40878  14.598   5.870   0.996 -0.6173 -1.2774 -1.7815
  303MOL0     H40879  14.419   5.727   1.191 -0.5050  1.7135  0.9778
  303MOL0     H40880  14.578   5.681   1.135  0.4091 -2.2570  3.2978
  303MOL0     H40881  14.663   5.907   1.256  2.4926 -1.1988  0.6936
  303MOL0     H40882  14.649   5.756   1.341 -0.2519 -0.7586 -1.4377
  303MOL0     H40883  14.427   5.971   1.341 -0.3852  0.3788  1.0583
  303MOL0     H40884  14.409   5.810   1.409  0.8162 -0.2737  1.1704
  303MOL0     H40885  13.777   5.918   0.897  2.2156 -1.2287  0.3686
  303MOL0     H40886  13.530   5.885   0.893  3.8751 -1.0954  4.9526
  303MOL0     H40887  13.121   5.697   1.035  0.2417 -0.7105  0.0215
  303MOL0     H40888  12.871   5.709   0.970  0.5992 -0.3405 -0.3849
  303MOL0     H40889  11.238   6.503   0.940  1.2042  1.7154  0.6916
  303MOL0     H40890  10.995   6.546   0.931 -0.3114 -2.4116 -2.0173
  303MOL0     H40891  10.676   6.793   0.832  1.7618 -0.8624 -1.7341
  303MOL0     H40892  10.455   6.826   0.883  0.8560  1.0185 -0.1916
  303MOL0     H40893  10.251   6.789   0.991 -1.6189 -0.2242  1.8776
  303MOL0     H40894  10.092   6.754   0.931 -0.8404  0.7391 -1.1764
  303MOL0     H40895  10.112   6.872   0.725  2.9840 -3.0158 -2.0247
  303MOL0     H40896  10.286   6.900   0.754  0.1967 -2.1938 -1.4623
  303MOL0     H40897  10.207   7.008   0.972 -0.8006  1.4590  0.9421
  303MOL0     H40898  10.056   7.031   0.893 -0.2880  1.2044  0.0645
  303MOL0     H40899  10.192   7.133   0.702 -0.8366 -1.3046  0.0256
  303MOL0     H40900  10.195   7.233   0.851  0.2673 -1.0011  0.0076
  303MOL0     H40901  10.598   7.094   0.767 -0.0752  0.6318  2.0569
  303MOL0     H40902  10.342   6.487   0.633  0.4331 -0.3773 -0.8149
  303MOL0     H40903  10.494   6.372   0.526 -0.5972  1.5795  0.3917
  303MOL0     H40904  10.606   6.477   0.440 -2.5879  0.2500 -1.9117
  303MOL0     H40905  10.665   6.372   0.564 -0.6337 -1.6225 -0.5336
  304MOL0     O40906   1.387   3.206   7.987  0.3393  0.3231 -0.6416
  304MOL0     C40907   1.308   3.294   7.974  0.7024  0.0273  0.4526
  304MOL0     O40908   1.342   3.424   7.955 -0.6515 -0.0937 -0.0218
  304MOL0     C40909   1.479   3.449   7.934  0.5830  0.5650  0.0189
  304MOL0     C40910   1.544   3.512   8.038 -0.4844 -0.6839  0.3923
  304MOL0     C40911   1.684   3.523   8.036 -0.0759 -0.5741  0.5996
  304MOL0     C40912   1.756   3.476   7.923  0.0893 -0.7608 -0.6653
  304MOL0     O40913   1.895   3.463   7.909 -0.0928  0.0203 -0.3552
  304MOL0     C40914   1.987   3.520   8.001 -1.0147 -0.5339  0.0544
  304MOL0     C40915   2.135   3.482   7.966 -0.1508 -0.7530 -0.3948
  304MOL0     C40916   2.240   3.587   8.004  0.8758 -0.0379 -0.7851
  304MOL0     C40917   2.375   3.557   7.942  0.2099 -0.5903 -0.0657
  304MOL0     C40918   2.489   3.635   8.010 -0.2289  0.2709  0.5031
  304MOL0     C40919   2.624   3.639   7.935 -0.2716 -0.1366  0.1856
  304MOL0     C40920   2.728   3.717   8.012  0.1822  0.1089  0.6049
  304MOL0     C40921   2.825   3.642   8.105  0.6145 -0.3485  0.0447
  304MOL0     N40922   2.904   3.742   8.184 -0.4747  0.1874  0.1825
  304MOL0     C40923   3.040   3.725   8.198 -0.2783 -0.4221  0.1053
  304MOL0     C40924   3.076   3.835   8.281  0.6441 -0.1431  0.5604
  304MOL0     C40925   3.207   3.877   8.335 -0.2146 -0.1603  0.2399
  304MOL0     C40926   3.323   3.858   8.236 -0.6294 -0.5696  0.0964
  304MOL0     C40927   3.326   3.944   8.105 -0.1009  1.0739  0.1043
  304MOL0     C40928   3.277   4.087   8.137 -0.5232 -0.3964 -0.3364
  304MOL0     O40929   3.356   4.153   8.244 -0.0855 -0.3425 -0.6708
  304MOL0     C40930   3.492   4.151   8.233 -0.1229  0.1836 -0.1604
  304MOL0     C40931   3.561   4.154   8.356  0.2773  0.3229 -0.4134
  304MOL0     C40932   3.700   4.146   8.355  0.0306  0.1908  0.0705
  304MOL0     C40933   3.770   4.158   8.236  0.3327  0.5581  0.1515
  304MOL0     C40934   3.919   4.148   8.233 -0.2009 -0.6237 -0.8165
  304MOL0     O40935   3.973   4.105   8.352  0.6688  0.2498  0.9424
  304MOL0     C40936   4.101   4.069   8.358  0.5167  1.0536  0.2683
  304MOL0     C40937   4.205   4.171   8.358  0.2807 -0.3565  0.5038
  304MOL0     C40938   4.338   4.128   8.366  1.1922  0.3719  0.8016
  304MOL0     C40939   4.373   3.987   8.366  1.1175  0.0680  0.0002
  304MOL0     O40940   4.492   3.929   8.385  0.3323 -0.6090  0.5173
  304MOL0     C40941   4.613   4.015   8.380  0.2765  0.4001  0.2580
  304MOL0     C40942   4.724   3.919   8.391  0.1938 -0.6315  0.1283
  304MOL0     C40943   4.860   3.997   8.417 -0.6922 -0.1532 -0.4724
  304MOL0     C40944   4.971   3.903   8.360  0.1212 -0.4456 -0.1145
  304MOL0     C40945   5.117   3.940   8.391  0.5065 -0.8774 -0.4287
  304MOL0     C40946   5.173   4.058   8.301 -0.0105 -1.3773  0.2505
  304MOL0     C40947   5.306   4.119   8.352  0.5733  0.7722 -0.1497
  304MOL0     C40948   5.423   4.025   8.387 -0.9067  0.8319  0.0675
  304MOL0    Cl40949   5.437   3.895   8.256  0.3902  0.2766 -0.1397
  304MOL0     C40950   4.260   3.899   8.366 -0.3534  0.1186  0.4099
  304MOL0     C40951   4.139   3.939   8.369  0.6516 -0.1098 -0.6850
  304MOL0     O40952   3.982   4.169   8.134  0.1557  0.0480  0.3541
  304MOL0     C40953   3.697   4.163   8.116  0.0542 -0.4026 -0.3596
  304MOL0     C40954   3.555   4.160   8.108 -0.2625 -0.4862 -0.0805
  304MOL0     N40955   2.963   3.910   8.298  0.6757 -0.8533  0.3810
  304MOL0     N40956   2.860   3.854   8.244 -0.0739 -0.6385 -0.1095
  304MOL0     C40957   1.682   3.418   7.812  0.4400 -0.8813  0.3827
  304MOL0     C40958   1.547   3.399   7.824 -0.5071  0.5147  0.3043
  304MOL0     C40959   1.170   3.272   8.022 -0.3129  0.3700 -0.9359
  304MOL0     C40960   1.112   3.376   8.102  0.2788  0.8204 -0.6160
  304MOL0     C40961   0.982   3.363   8.145  0.7219 -0.0674 -0.6260
  304MOL0     C40962   0.909   3.251   8.113  0.1675  0.8881  0.7575
  304MOL0     O40963   0.781   3.230   8.148  0.3045 -0.2023 -0.1573
  304MOL0     C40964   0.727   3.284   8.272 -0.4876  1.0066 -0.1474
  304MOL0     C40965   0.584   3.244   8.283  0.0160  0.3063  0.0539
  304MOL0     C40966   0.571   3.093   8.287 -0.3752  0.2068  0.4479
  304MOL0     C40967   0.576   3.043   8.429 -0.5499  0.3177 -0.3477
  304MOL0     C40968   0.523   2.913   8.452 -0.2107  0.5444  1.2098
  304MOL0     C40969   0.492   2.797   8.472  0.4666  0.2172  0.7355
  304MOL0     C40970   0.975   3.146   8.060  0.2257 -0.7274  0.7333
  304MOL0     C40971   1.100   3.149   7.999  0.4197  0.1599 -0.8133
  304MOL0     C40972   1.155   3.027   7.930  0.1167  1.1084 -0.0310
  304MOL0     H40973   1.489   3.538   8.128  1.1583 -2.2470  1.9307
  304MOL0     H40974   1.720   3.564   8.130 -1.0015  0.8272  0.3819
  304MOL0     H40975   1.964   3.626   7.987 -0.0973 -0.4803 -1.2489
  304MOL0     H40976   1.964   3.489   8.104 -0.9165  1.7950  0.8371
  304MOL0     H40977   2.138   3.478   7.856  0.2714  0.4465 -0.4384
  304MOL0     H40978   2.158   3.379   7.997  1.7945 -0.1364  0.3166
  304MOL0     H40979   2.247   3.582   8.113  0.2918  2.4652 -0.5724
  304MOL0     H40980   2.197   3.685   7.983 -3.0207 -0.5590  3.2750
  304MOL0     H40981   2.399   3.451   7.955 -0.2454 -0.8247 -1.0222
  304MOL0     H40982   2.372   3.576   7.835  0.3363  2.7742  0.4182
  304MOL0     H40983   2.454   3.735   8.034  1.7280  1.0557  0.3034
  304MOL0     H40984   2.506   3.587   8.107 -0.1901  1.0368  0.8802
  304MOL0     H40985   2.662   3.536   7.933  2.1383  0.5823  2.6685
  304MOL0     H40986   2.610   3.665   7.830  0.5381  1.4417  0.4425
  304MOL0     H40987   2.669   3.789   8.068 -1.0398  0.5826 -1.1933
  304MOL0     H40988   2.792   3.771   7.941  2.0273 -3.5827 -0.7920
  304MOL0     H40989   2.767   3.571   8.164  0.1863  0.3247  0.4528
  304MOL0     H40990   2.898   3.588   8.044  1.0981  0.1172  0.2028
  304MOL0     H40991   3.104   3.641   8.174 -0.3082 -0.1918 -0.7963
  304MOL0     H40992   3.199   3.982   8.366 -3.7337 -0.1228 -0.3519
  304MOL0     H40993   3.229   3.822   8.427  0.8686 -0.9393 -0.4643
  304MOL0     H40994   3.414   3.867   8.295 -0.5410  0.4142 -0.1641
  304MOL0     H40995   3.324   3.756   8.198  0.2585 -1.1770  1.6665
  304MOL0     H40996   3.261   3.896   8.032  1.2516 -0.5407 -0.1007
  304MOL0     H40997   3.425   3.938   8.057 -0.0452  1.0467  0.2228
  304MOL0     H40998   3.168   4.094   8.149 -0.7824 -0.5005 -2.3272
  304MOL0     H40999   3.299   4.152   8.052 -1.2344 -1.0836 -1.0608
  304MOL0     H41000   3.514   4.135   8.452  0.9602 -1.3610 -0.3658
  304MOL0     H41001   3.748   4.130   8.450 -1.2894  1.4019  0.9868
  304MOL0     H41002   4.170   4.274   8.359  0.2549 -0.3540 -0.4260
  304MOL0     H41003   4.420   4.198   8.367  0.3590  1.6267 -2.9158
  304MOL0     H41004   4.614   4.070   8.285  0.9572 -0.0871 -0.0290
  304MOL0     H41005   4.623   4.092   8.458  1.3717  0.3492  0.1804
  304MOL0     H41006   4.705   3.861   8.482 -0.2664 -1.2019 -0.3271
  304MOL0     H41007   4.729   3.853   8.304 -0.1338 -0.7786  0.2228
  304MOL0     H41008   4.859   4.098   8.375 -1.7912 -0.7123 -1.8771
  304MOL0     H41009   4.872   4.011   8.525 -1.9234  2.2724 -0.5979
  304MOL0     H41010   4.962   3.892   8.252 -3.4275  1.9177 -0.2262
  304MOL0     H41011   4.953   3.802   8.400  1.3681 -0.6932 -0.1533
  304MOL0     H41012   5.184   3.857   8.367 -0.3820 -1.6095 -0.4330
  304MOL0     H41013   5.129   3.960   8.498  2.3459  2.3720 -1.1070
  304MOL0     H41014   5.183   4.025   8.197 -1.2066  0.7378 -0.6022
  304MOL0     H41015   5.101   4.140   8.301 -0.6014 -1.8613 -1.4941
  304MOL0     H41016   5.275   4.176   8.441  0.5669 -1.5422  1.4068
  304MOL0     H41017   5.348   4.191   8.281  1.7431 -0.2804 -0.5631
  304MOL0     H41018   5.513   4.088   8.393 -0.7943  0.5599  1.5140
  304MOL0     H41019   5.400   3.984   8.486 -2.4536  1.0220 -0.1878
  304MOL0     H41020   4.280   3.792   8.360  0.4947  0.3236 -0.6111
  304MOL0     H41021   4.060   3.865   8.368  0.9751 -0.6822  2.6351
  304MOL0     H41022   3.751   4.159   8.022 -2.0070 -1.5705 -1.5510
  304MOL0     H41023   3.504   4.162   8.012 -0.2981  0.4992 -0.0580
  304MOL0     H41024   1.736   3.375   7.728 -1.2595 -0.3213 -1.0563
  304MOL0     H41025   1.493   3.336   7.754  1.6936  0.6948 -1.7084
  304MOL0     H41026   1.169   3.468   8.116  2.4256 -0.0648 -2.7392
  304MOL0     H41027   0.934   3.448   8.193  0.0928 -0.4879 -0.4926
  304MOL0     H41028   0.735   3.393   8.273 -0.3066  1.1667  4.6253
  304MOL0     H41029   0.781   3.246   8.360 -1.1961  0.1514 -0.0668
  304MOL0     H41030   0.525   3.282   8.198  0.6449  2.6205  0.5824
  304MOL0     H41031   0.541   3.279   8.377  0.3288  2.0112 -0.4067
  304MOL0     H41032   0.650   3.036   8.237  0.3717 -1.1717  2.9721
  304MOL0     H41033   0.471   3.071   8.248 -0.4174 -0.6575  1.0199
  304MOL0     H41034   0.682   3.037   8.455 -0.1653 -0.4831 -1.9907
  304MOL0     H41035   0.541   3.117   8.502 -0.0311  0.8543 -0.6370
  304MOL0     H41036   0.471   2.692   8.473 -3.5758  0.8572  0.7316
  304MOL0     H41037   0.929   3.048   8.051  0.3430 -0.8199  1.1141
  304MOL0     H41038   1.231   3.054   7.856  1.6730 -0.4209  0.9389
  304MOL0     H41039   1.198   2.960   8.006 -1.3960 -0.3408 -0.4132
  304MOL0     H41040   1.076   2.969   7.883  0.2665 -1.1080  2.2695
  305MOL0     O41041  11.233   1.648   1.661  0.2198 -1.1234 -0.8153
  305MOL0     C41042  11.169   1.722   1.583 -0.3284 -0.2843 -0.6899
  305MOL0     O41043  11.217   1.811   1.497 -1.1338 -0.3535  1.1796
  305MOL0     C41044  11.354   1.816   1.467  1.0279  0.1325  0.6586
  305MOL0     C41045  11.387   1.757   1.346  0.2133 -0.0627  0.6655
  305MOL0     C41046  11.523   1.746   1.321 -0.5178  0.6507 -0.4410
  305MOL0     C41047  11.626   1.788   1.411  0.3362  0.0475 -0.5301
  305MOL0     O41048  11.758   1.774   1.378  0.2116  0.5242  0.7927
  305MOL0     C41049  11.871   1.819   1.454 -0.5121  0.1220 -0.3530
  305MOL0     C41050  11.995   1.770   1.371 -0.6227 -0.3057 -0.2214
  305MOL0     C41051  12.039   1.867   1.247 -0.3532 -0.0742 -0.6250
  305MOL0     C41052  11.933   1.883   1.144  0.1109 -0.2026 -0.3465
  305MOL0     C41053  11.983   1.951   1.019  0.5146  0.5748  0.7095
  305MOL0     C41054  11.992   2.103   1.028  0.9369  0.2907 -0.2350
  305MOL0     C41055  11.951   2.170   0.895 -0.1542 -0.5282 -0.9103
  305MOL0     C41056  12.036   2.136   0.765  0.5624 -0.5021  0.1166
  305MOL0     N41057  12.176   2.107   0.791 -0.2621 -0.3050 -0.7967
  305MOL0     C41058  12.276   2.200   0.817 -0.8452  0.5983  0.7995
  305MOL0     C41059  12.389   2.130   0.790  0.2685 -1.1119 -0.8161
  305MOL0     C41060  12.534   2.178   0.798  0.0551 -0.1374  0.6801
  305MOL0     C41061  12.612   2.171   0.671 -0.2774 -0.7659  0.3245
  305MOL0     C41062  12.633   2.027   0.629  0.1470  0.5949  0.2104
  305MOL0     C41063  12.764   2.017   0.555 -0.1867  0.8669 -0.3031
  305MOL0     O41064  12.869   2.024   0.647  0.3290  0.1023  0.3465
  305MOL0     C41065  13.004   2.040   0.609 -0.3046  0.7175  0.4051
  305MOL0     C41066  13.044   2.065   0.478  0.1782  0.1950  0.0703
  305MOL0     C41067  13.178   2.065   0.442 -0.6926 -0.9306 -0.7642
  305MOL0     C41068  13.277   2.071   0.541 -0.5896 -0.7567 -0.6929
  305MOL0     C41069  13.430   2.078   0.503 -0.1145  0.9404 -0.9400
  305MOL0     O41070  13.525   2.094   0.604 -0.1808  0.1166 -0.6651
  305MOL0     C41071  13.653   2.113   0.564  0.3558  0.1739  0.1569
  305MOL0     C41072  13.741   2.010   0.581  0.4074  0.4571 -0.2854
  305MOL0     C41073  13.880   2.029   0.558  0.3713  0.3229  0.7075
  305MOL0     C41074  13.928   2.150   0.509 -0.2841 -0.4333  0.4578
  305MOL0     O41075  14.067   2.157   0.482 -0.1389  0.0216  0.7875
  305MOL0     C41076  14.103   2.246   0.377 -0.8679 -0.4704  0.4951
  305MOL0     C41077  14.249   2.205   0.327 -0.0905  0.1444 -0.1360
  305MOL0     C41078  14.352   2.255   0.422 -0.0076  0.2468 -0.8503
  305MOL0     C41079  14.489   2.209   0.369  0.0135 -0.5342  0.0929
  305MOL0     C41080  14.604   2.222   0.471  0.4134 -0.0634  0.2051
  305MOL0     C41081  14.599   2.354   0.554 -0.7146  0.6051 -0.5770
  305MOL0     C41082  14.722   2.341   0.643 -0.1004 -0.8674 -1.1792
  305MOL0     C41083  14.775   2.481   0.682 -0.2297  0.4218  0.3108
  305MOL0    Cl41084  14.663   2.561   0.797 -0.0910  0.5567  0.2122
  305MOL0     C41085  13.839   2.255   0.480  0.6480  0.1732 -0.2832
  305MOL0     C41086  13.703   2.235   0.504 -0.2628 -0.7216 -0.2566
  305MOL0     O41087  13.455   2.058   0.389 -0.5538  0.5615 -0.4002
  305MOL0     C41088  13.236   2.059   0.678  0.1568 -1.2145  0.8515
  305MOL0     C41089  13.100   2.042   0.708 -0.0053  0.0035  0.0148
  305MOL0     N41090  12.359   1.995   0.765 -0.2448 -0.1539 -0.5769
  305MOL0     N41091  12.237   1.985   0.773 -0.3309  0.4601  0.0216
  305MOL0     C41092  11.581   1.849   1.535 -0.7016 -1.0692  0.2848
  305MOL0     C41093  11.449   1.862   1.559  0.0332  0.0842 -0.8088
  305MOL0     C41094  11.022   1.692   1.588 -0.4433 -0.9624  0.4652
  305MOL0     C41095  10.943   1.782   1.517  1.3983  0.2437 -0.4994
  305MOL0     C41096  10.802   1.768   1.514 -0.4177  0.4514  0.3659
  305MOL0     C41097  10.731   1.674   1.585 -0.4712  0.9397 -0.6818
  305MOL0     O41098  10.597   1.645   1.586 -0.3749  0.0998  0.3925
  305MOL0     C41099  10.516   1.732   1.510  0.4879 -0.0384 -0.3171
  305MOL0     C41100  10.368   1.699   1.542 -0.8008  0.3892  0.2900
  305MOL0     C41101  10.320   1.743   1.679 -0.0272  0.0571  0.5228
  305MOL0     C41102  10.191   1.678   1.725  0.6013 -0.1871 -0.3107
  305MOL0     C41103  10.217   1.537   1.780  0.3413 -0.1451  0.3775
  305MOL0     C41104  10.240   1.417   1.804 -0.0186  0.4370 -0.7677
  305MOL0     C41105  10.819   1.577   1.651  0.7788  0.1574  0.3684
  305MOL0     C41106  10.956   1.591   1.652  0.1719  0.0823 -0.6091
  305MOL0     C41107  11.016   1.474   1.720 -0.0053  0.2264  0.1042
  305MOL0     H41108  11.305   1.720   1.285 -0.6877  2.8944 -0.0880
  305MOL0     H41109  11.551   1.689   1.233 -0.3274  0.0427  0.0122
  305MOL0     H41110  11.863   1.926   1.477 -0.4151 -0.6401  4.0639
  305MOL0     H41111  11.868   1.772   1.552 -0.5354 -0.7367 -0.7620
  305MOL0     H41112  11.985   1.669   1.332  0.4610 -0.0902 -1.1412
  305MOL0     H41113  12.085   1.772   1.433  0.7608  0.3189 -2.1182
  305MOL0     H41114  12.124   1.816   1.202 -1.5726 -1.5440 -1.3167
  305MOL0     H41115  12.084   1.960   1.283  0.8371  0.0672 -2.3566
  305MOL0     H41116  11.901   1.780   1.121 -0.4626 -0.0710 -0.1447
  305MOL0     H41117  11.853   1.939   1.193  0.7862 -0.0618  0.6063
  305MOL0     H41118  12.080   1.904   1.005 -1.1379 -4.3081  3.3459
  305MOL0     H41119  11.918   1.922   0.936  0.6033 -0.8629  1.1170
  305MOL0     H41120  11.915   2.133   1.099 -1.0886  0.1980 -2.2958
  305MOL0     H41121  12.092   2.132   1.065  0.9805  2.2659 -1.7455
  305MOL0     H41122  11.956   2.279   0.910 -0.0100 -0.5710 -0.6553
  305MOL0     H41123  11.842   2.161   0.891 -0.6140  1.4650  2.7302
  305MOL0     H41124  11.986   2.049   0.722 -0.0382 -0.0949 -0.0193
  305MOL0     H41125  12.016   2.220   0.698 -0.8499 -1.2125 -0.3757
  305MOL0     H41126  12.271   2.307   0.829  1.1881  0.7190  0.9643
  305MOL0     H41127  12.523   2.284   0.823 -0.9089  0.2789 -1.2241
  305MOL0     H41128  12.602   2.134   0.871 -0.7391 -1.4759  0.6413
  305MOL0     H41129  12.549   2.230   0.604  3.3542  2.3808 -0.7075
  305MOL0     H41130  12.710   2.219   0.673 -1.5015  1.8635  0.4642
  305MOL0     H41131  12.552   1.999   0.561 -1.6522  2.3376  1.5652
  305MOL0     H41132  12.627   1.955   0.711 -2.0319 -1.3125 -1.4705
  305MOL0     H41133  12.766   2.091   0.474 -3.1893  1.6142  0.1899
  305MOL0     H41134  12.766   1.913   0.522 -0.6556  0.7042  0.1586
  305MOL0     H41135  12.968   2.064   0.401 -0.4631  1.4689  0.6602
  305MOL0     H41136  13.210   2.086   0.341  2.4934  2.3447  0.6760
  305MOL0     H41137  13.704   1.920   0.629  1.3610  1.1288  1.8337
  305MOL0     H41138  13.950   1.949   0.582  1.8448  0.8176 -1.6887
  305MOL0     H41139  14.039   2.226   0.290 -0.1085 -0.2112 -0.1301
  305MOL0     H41140  14.090   2.352   0.402  0.4423 -0.5651  1.7081
  305MOL0     H41141  14.259   2.097   0.320 -1.0428  0.1173 -1.6023
  305MOL0     H41142  14.266   2.242   0.225  0.4225 -0.7963 -0.3963
  305MOL0     H41143  14.345   2.364   0.417 -0.1764  0.2643 -0.3591
  305MOL0     H41144  14.327   2.206   0.517  1.1457 -1.1173 -1.2155
  305MOL0     H41145  14.523   2.264   0.281  0.8070  2.0316  1.8950
  305MOL0     H41146  14.477   2.101   0.353  0.9715 -0.5608 -0.5505
  305MOL0     H41147  14.695   2.214   0.411 -0.0914 -2.6156 -0.3078
  305MOL0     H41148  14.616   2.140   0.542 -2.7728  0.3513  1.4074
  305MOL0     H41149  14.604   2.441   0.487  2.7490  0.0347 -1.2418
  305MOL0     H41150  14.512   2.369   0.619 -1.4740 -0.7999 -1.2231
  305MOL0     H41151  14.801   2.287   0.588  1.2677 -1.2523  1.0191
  305MOL0     H41152  14.684   2.295   0.734  1.2408  0.1057 -0.0920
  305MOL0     H41153  14.875   2.482   0.727 -0.8851  1.0329  1.7966
  305MOL0     H41154  14.779   2.540   0.590  0.2499  1.9272  1.2633
  305MOL0     H41155  13.864   2.354   0.443  2.7473 -0.0927  0.3142
  305MOL0     H41156  13.636   2.313   0.469  0.7070 -1.1344 -3.3058
  305MOL0     H41157  13.304   2.072   0.761 -1.0658  0.3596  1.6717
  305MOL0     H41158  13.067   2.042   0.812 -0.6063 -0.2989 -0.1728
  305MOL0     H41159  11.649   1.899   1.603  0.0864  1.6226 -2.2293
  305MOL0     H41160  11.421   1.911   1.652 -0.8501 -1.4910 -0.2150
  305MOL0     H41161  10.995   1.861   1.465  2.5119  1.1932  1.9010
  305MOL0     H41162  10.751   1.843   1.454 -0.2207  0.4184  0.1586
  305MOL0     H41163  10.533   1.721   1.403 -1.4877  0.6646 -0.7541
  305MOL0     H41164  10.533   1.833   1.548  3.9482 -1.2620  1.8813
  305MOL0     H41165  10.354   1.591   1.529 -2.0814  0.5545  0.1665
  305MOL0     H41166  10.299   1.739   1.467 -2.7837 -1.0087  1.2688
  305MOL0     H41167  10.296   1.850   1.674 -4.3872 -0.7477  0.2503
  305MOL0     H41168  10.403   1.717   1.746  1.4515  3.9703  0.5134
  305MOL0     H41169  10.144   1.732   1.808  0.6962  1.8873 -1.5630
  305MOL0     H41170  10.121   1.664   1.643  3.1057 -1.7959 -2.3436
  305MOL0     H41171  10.257   1.311   1.814  0.9089  0.7688  1.7146
  305MOL0     H41172  10.772   1.490   1.695 -1.0363  0.5174 -0.7354
  305MOL0     H41173  11.078   1.427   1.643  0.3380 -1.6665  1.4566
  305MOL0     H41174  11.066   1.511   1.810 -0.5937  0.0291  0.5152
  305MOL0     H41175  10.942   1.402   1.756 -0.8212  0.7604 -0.4699
  306MOL0     O41176   2.873   4.125   3.706  0.5030  0.0896 -0.1330
  306MOL0     C41177   2.811   4.229   3.737  0.1229  0.4926 -0.7851
  306MOL0     O41178   2.867   4.337   3.801 -0.5438  0.1401  0.0527
  306MOL0     C41179   2.999   4.323   3.804  0.0018 -0.5139  0.3181
  306MOL0     C41180   3.058   4.249   3.906  1.0775 -0.2127 -0.5726
  306MOL0     C41181   3.192   4.241   3.920  0.8629  0.1106  0.4693
  306MOL0     C41182   3.276   4.312   3.831  0.6959 -0.0818  0.3289
  306MOL0     O41183   3.407   4.328   3.862 -0.4302  0.3693 -0.0595
  306MOL0     C41184   3.494   4.312   3.752 -0.0702 -0.1019 -0.5676
  306MOL0     C41185   3.636   4.288   3.796  0.1444 -0.1255 -0.3647
  306MOL0     C41186   3.692   4.407   3.882 -0.2647  0.0582  0.3710
  306MOL0     C41187   3.845   4.401   3.912  0.2144 -0.4341 -0.6222
  306MOL0     C41188   3.896   4.519   3.979  0.2262 -0.6241 -0.0888
  306MOL0     C41189   4.047   4.528   4.003  0.4205 -0.0018 -0.6074
  306MOL0     C41190   4.074   4.641   4.092  0.5433 -0.2447 -0.6938
  306MOL0     C41191   4.223   4.671   4.106  0.2203 -0.6276  0.1475
  306MOL0     N41192   4.287   4.712   3.973 -0.5216  1.0915  0.0067
  306MOL0     C41193   4.267   4.826   3.909 -0.4088  0.2219 -0.1663
  306MOL0     C41194   4.346   4.823   3.800 -0.5934 -0.1865 -0.2727
  306MOL0     C41195   4.372   4.934   3.698  0.0029  0.3746 -0.7096
  306MOL0     C41196   4.423   5.056   3.769  0.0817 -0.0145  0.6663
  306MOL0     C41197   4.455   5.166   3.677 -0.2032 -0.6129  0.2146
  306MOL0     C41198   4.605   5.171   3.634  0.2061  1.0846  0.2250
  306MOL0     O41199   4.682   5.188   3.751  0.3660  0.0825  0.2647
  306MOL0     C41200   4.819   5.184   3.756 -0.4561  0.1920 -0.8581
  306MOL0     C41201   4.896   5.147   3.654 -0.6506  0.9749  0.1470
  306MOL0     C41202   5.032   5.131   3.670  0.1021 -0.5106  0.0810
  306MOL0     C41203   5.092   5.164   3.790 -0.1788 -0.2871 -0.2521
  306MOL0     C41204   5.243   5.149   3.808  0.0493  0.5791  0.9419
  306MOL0     O41205   5.313   5.069   3.719  0.2035  0.6395 -0.0646
  306MOL0     C41206   5.405   4.993   3.777  0.0567  0.5196 -0.1157
  306MOL0     C41207   5.376   4.857   3.812  0.0850 -0.8251 -0.0915
  306MOL0     C41208   5.480   4.780   3.868  1.2692  0.1171  0.3059
  306MOL0     C41209   5.604   4.836   3.898  0.2465  0.0258 -0.0308
  306MOL0     O41210   5.699   4.757   3.945 -0.1613 -0.4620 -0.1793
  306MOL0     C41211   5.836   4.796   3.916 -0.2413 -1.2734  0.1462
  306MOL0     C41212   5.920   4.677   3.935  0.2800  0.0408 -0.5680
  306MOL0     C41213   6.063   4.693   3.886 -0.5881  0.1718  0.7698
  306MOL0     C41214   6.150   4.579   3.947  0.4021 -0.5151  0.4347
  306MOL0     C41215   6.291   4.574   3.891  0.3991  0.6493  0.2071
  306MOL0     C41216   6.360   4.708   3.916 -0.0137 -0.6389 -0.3127
  306MOL0     C41217   6.494   4.716   3.836  0.2543  0.5940 -0.0616
  306MOL0     C41218   6.607   4.638   3.911  0.3820  0.0345  0.2343
  306MOL0    Cl41219   6.755   4.659   3.824 -0.0909  0.3570  0.4607
  306MOL0     C41220   5.622   4.977   3.875 -0.8271  0.2332  0.2582
  306MOL0     C41221   5.525   5.051   3.815 -1.6197  0.3303 -0.7455
  306MOL0     O41222   5.292   5.195   3.911  0.0803 -0.1426  0.6371
  306MOL0     C41223   5.010   5.201   3.903  0.2623  0.1317 -0.3094
  306MOL0     C41224   4.870   5.212   3.879 -0.1793 -0.4596  0.1911
  306MOL0     N41225   4.412   4.707   3.802  0.2335 -0.5414  0.3462
  306MOL0     N41226   4.381   4.641   3.908  0.6595 -0.2887 -0.1468
  306MOL0     C41227   3.215   4.378   3.724 -0.1782  0.8183 -0.2424
  306MOL0     C41228   3.076   4.387   3.715 -0.0898 -0.5001 -0.6933
  306MOL0     C41229   2.670   4.222   3.708  0.5477 -0.4424  0.1677
  306MOL0     C41230   2.645   4.181   3.575  0.2802  0.2848 -0.0206
  306MOL0     C41231   2.508   4.156   3.541 -0.3474  0.3670  0.1249
  306MOL0     C41232   2.403   4.178   3.633 -0.2992 -0.5760  0.2471
  306MOL0     O41233   2.272   4.148   3.607  0.0864 -0.4097  0.1171
  306MOL0     C41234   2.215   4.104   3.480  0.2196 -0.4320  0.6755
  306MOL0     C41235   2.178   4.231   3.393  0.5943  0.2371  0.0654
  306MOL0     C41236   2.087   4.334   3.457 -0.7842 -0.5912 -0.5211
  306MOL0     C41237   1.939   4.292   3.467 -0.6051 -0.6904 -0.6502
  306MOL0     C41238   1.871   4.290   3.333  0.3647  0.2904  0.3632
  306MOL0     C41239   1.810   4.291   3.227 -0.1379 -0.1236 -0.0220
  306MOL0     C41240   2.432   4.226   3.760 -0.6975  0.1835  0.5564
  306MOL0     C41241   2.567   4.241   3.797  0.1189  0.0515  0.4539
  306MOL0     C41242   2.595   4.267   3.947 -0.0576  0.7603  0.1127
  306MOL0     H41243   2.995   4.194   3.975  0.7078 -1.0906 -1.5817
  306MOL0     H41244   3.240   4.181   3.997 -1.7764 -0.8931  1.4655
  306MOL0     H41245   3.464   4.235   3.680 -1.4753  0.6220 -0.8005
  306MOL0     H41246   3.501   4.404   3.693  0.4813  0.6495  0.6326
  306MOL0     H41247   3.689   4.275   3.701  3.2526 -2.5198  1.4876
  306MOL0     H41248   3.646   4.197   3.856  1.8188  1.1753  1.4538
  306MOL0     H41249   3.634   4.406   3.975 -0.1365 -1.2064  0.4444
  306MOL0     H41250   3.670   4.501   3.829 -0.5084 -0.0443  0.2897
  306MOL0     H41251   3.870   4.317   3.977  2.4952 -0.8094 -1.8942
  306MOL0     H41252   3.886   4.395   3.811 -2.1822 -4.0983 -1.5580
  306MOL0     H41253   3.869   4.608   3.920  0.0099 -0.8727 -0.3699
  306MOL0     H41254   3.845   4.518   4.076  1.6582 -0.4909  0.6811
  306MOL0     H41255   4.082   4.430   4.038  1.2099  0.3871 -0.2719
  306MOL0     H41256   4.094   4.544   3.906  0.3630 -2.0028 -1.0218
  306MOL0     H41257   4.035   4.610   4.189  3.0715  0.8444  0.7457
  306MOL0     H41258   4.018   4.730   4.060 -1.3193 -0.3413  1.9679
  306MOL0     H41259   4.235   4.762   4.165  1.8628 -1.7224  1.6097
  306MOL0     H41260   4.276   4.594   4.163 -0.9539  1.0113  3.7465
  306MOL0     H41261   4.196   4.903   3.938  0.4979  1.2402 -0.5671
  306MOL0     H41262   4.446   4.900   3.626  2.3899  1.8562  0.9181
  306MOL0     H41263   4.281   4.961   3.643 -0.6972 -0.4974 -0.0325
  306MOL0     H41264   4.338   5.099   3.823 -0.7900 -0.5997 -0.2196
  306MOL0     H41265   4.507   5.038   3.837  1.3459 -0.6987 -1.0219
  306MOL0     H41266   4.446   5.265   3.724 -1.1371 -0.6681  0.1529
  306MOL0     H41267   4.392   5.165   3.588 -0.1272  3.6943 -0.0948
  306MOL0     H41268   4.616   5.258   3.568  0.6779  0.7593 -0.1257
  306MOL0     H41269   4.627   5.077   3.583 -0.0376  0.5450  1.0990
  306MOL0     H41270   4.854   5.107   3.561  0.6648 -1.3761  0.4865
  306MOL0     H41271   5.099   5.095   3.593  1.2894  2.8023 -0.5809
  306MOL0     H41272   5.280   4.821   3.775 -0.3308 -1.2772  1.3626
  306MOL0     H41273   5.469   4.678   3.905 -0.8536  0.2996  0.2820
  306MOL0     H41274   5.860   4.844   3.820  1.7336 -3.1214 -0.3369
  306MOL0     H41275   5.863   4.872   3.990 -1.3862 -0.3097 -0.3877
  306MOL0     H41276   5.913   4.648   4.040  2.2453  0.4935 -0.2736
  306MOL0     H41277   5.876   4.592   3.881  0.4645 -1.0633  0.9678
  306MOL0     H41278   6.064   4.697   3.776  1.1401 -0.4926  0.7277
  306MOL0     H41279   6.098   4.794   3.909 -2.1373  0.9770 -0.1571
  306MOL0     H41280   6.107   4.479   3.931  0.6424 -0.7702  1.3291
  306MOL0     H41281   6.146   4.578   4.056 -0.6007 -3.2918  0.4564
  306MOL0     H41282   6.285   4.550   3.784 -1.6580 -2.2335  0.8627
  306MOL0     H41283   6.336   4.488   3.941 -1.4407  0.4661  1.6354
  306MOL0     H41284   6.299   4.791   3.880 -1.6205 -1.9127 -0.6451
  306MOL0     H41285   6.385   4.732   4.020 -2.4062  2.5486 -0.3147
  306MOL0     H41286   6.537   4.817   3.830  0.8771  0.3002 -0.6932
  306MOL0     H41287   6.478   4.681   3.733 -0.1455  1.1321 -0.1906
  306MOL0     H41288   6.626   4.672   4.013  0.1553 -0.8718  0.5961
  306MOL0     H41289   6.583   4.532   3.924  0.5092 -0.2358 -1.4926
  306MOL0     H41290   5.710   5.017   3.922 -0.3459  0.4446 -0.7990
  306MOL0     H41291   5.539   5.157   3.802 -1.2237  0.6465  1.8555
  306MOL0     H41292   5.066   5.197   3.996 -1.1305  1.8404  0.6734
  306MOL0     H41293   4.806   5.233   3.965  2.5248 -0.6144  2.3948
  306MOL0     H41294   3.279   4.432   3.655  1.3231 -0.9273 -0.2704
  306MOL0     H41295   3.034   4.455   3.641 -0.3465 -0.8557 -0.8840
  306MOL0     H41296   2.727   4.170   3.505 -0.3950 -0.2087 -0.7491
  306MOL0     H41297   2.480   4.116   3.444 -1.2049  0.7031  0.2254
  306MOL0     H41298   2.114   4.069   3.500  0.1087 -0.8917 -0.5732
  306MOL0     H41299   2.283   4.033   3.432  1.1947  0.1012  1.2236
  306MOL0     H41300   2.132   4.198   3.299 -0.5396 -2.0124  1.3450
  306MOL0     H41301   2.272   4.279   3.365  0.9547 -0.7675 -0.5122
  306MOL0     H41302   2.092   4.423   3.393 -1.8325 -1.8950 -2.5248
  306MOL0     H41303   2.126   4.363   3.555 -0.6743  0.2669 -0.8105
  306MOL0     H41304   1.939   4.195   3.518 -4.4172 -1.6347 -2.0748
  306MOL0     H41305   1.892   4.357   3.541  1.5632 -1.9418  1.9722
  306MOL0     H41306   1.747   4.291   3.141 -0.2857 -0.7998  0.0767
  306MOL0     H41307   2.358   4.239   3.838 -1.7294  0.4336 -0.4398
  306MOL0     H41308   2.500   4.288   3.997 -0.2391  0.8281 -0.2539
  306MOL0     H41309   2.644   4.177   3.984  0.0333 -0.0880 -1.9186
  306MOL0     H41310   2.663   4.353   3.951  1.6195 -0.2990 -2.5580
  307MOL0     O41311   1.670   3.522   0.012 -0.1703 -0.4601  0.6350
  307MOL0     C41312   1.646   3.402  -0.011  0.2773 -0.7440 -0.2784
  307MOL0     O41313   1.745   3.305  -0.012 -0.5419 -0.4056  0.1117
  307MOL0     C41314   1.870   3.343   0.018 -0.2910 -0.1135  0.0992
  307MOL0     C41315   1.955   3.371  -0.092  0.7697 -0.0372 -0.3439
  307MOL0     C41316   2.081   3.412  -0.066 -0.4988 -1.0332  0.6440
  307MOL0     C41317   2.121   3.449   0.065 -0.4938  0.6187  0.2932
  307MOL0     O41318   2.252   3.483   0.077 -0.0894  0.3611  0.2302
  307MOL0     C41319   2.278   3.624   0.038  0.0303 -0.3372  0.6410
  307MOL0     C41320   2.420   3.664   0.077 -0.3263 -0.6013 -0.6585
  307MOL0     C41321   2.526   3.562   0.034  0.3896 -0.1158 -0.5007
  307MOL0     C41322   2.669   3.611   0.053 -0.8288  0.4220  0.3061
  307MOL0     C41323   2.772   3.515   0.005 -0.4038 -0.5488  0.1734
  307MOL0     C41324   2.903   3.596  -0.005 -0.9551  0.2320  0.2883
  307MOL0     C41325   3.029   3.507  -0.021 -0.5879  0.0690 -0.3409
  307MOL0     C41326   3.161   3.589   0.020 -0.2600 -0.6751 -0.0485
  307MOL0     N41327   3.161   3.700  -0.078  0.1554  0.4770  0.3041
  307MOL0     C41328   3.112   3.830  -0.073 -0.0437 -0.6429  0.9858
  307MOL0     C41329   3.124   3.871  -0.202  0.3208 -0.4019 -0.5177
  307MOL0     C41330   3.050   3.986  -0.269  0.8085 -0.5801 -0.2812
  307MOL0     C41331   3.115   4.123  -0.240  0.6078  0.6000  0.1588
  307MOL0     C41332   3.255   4.125  -0.304 -0.0107 -0.6856  0.4446
  307MOL0     C41333   3.338   4.231  -0.252  0.3707  0.7867  0.5909
  307MOL0     O41334   3.470   4.217  -0.300  0.6555  0.3955  1.0816
  307MOL0     C41335   3.581   4.271  -0.238 -0.2142  0.8268  1.2833
  307MOL0     C41336   3.706   4.249  -0.295 -0.1018  0.5071 -0.2885
  307MOL0     C41337   3.819   4.303  -0.247 -0.2846  0.6359 -0.2608
  307MOL0     C41338   3.819   4.383  -0.133  0.5513  0.1878  0.4357
  307MOL0     C41339   3.947   4.447  -0.079  0.2492  0.0475  0.2980
  307MOL0     O41340   4.062   4.454  -0.154 -0.3861  0.3539 -0.0443
  307MOL0     C41341   4.183   4.506  -0.105  0.1232  0.4478 -1.1617
  307MOL0     C41342   4.248   4.616  -0.164 -0.6523  0.0113  0.0829
  307MOL0     C41343   4.374   4.668  -0.134 -0.7091 -0.6422 -0.2195
  307MOL0     C41344   4.444   4.605  -0.033 -0.0155  0.2174 -0.1457
  307MOL0     O41345   4.571   4.633   0.022  0.3119 -0.5038  0.4989
  307MOL0     C41346   4.652   4.719  -0.065 -0.2278 -0.2686 -0.5220
  307MOL0     C41347   4.795   4.699  -0.020 -0.4933 -0.0305  0.6055
  307MOL0     C41348   4.822   4.760   0.122  0.8849  0.5584 -0.4193
  307MOL0     C41349   4.961   4.746   0.179 -0.0436  0.5368  0.3314
  307MOL0     C41350   5.082   4.796   0.089 -0.5074  1.4976 -0.0268
  307MOL0     C41351   5.212   4.780   0.162 -0.0764  0.6758  0.4466
  307MOL0     C41352   5.242   4.637   0.193  0.1087 -0.7046 -0.5052
  307MOL0     C41353   5.389   4.602   0.198  0.0203 -0.0486 -0.2850
  307MOL0    Cl41354   5.465   4.660   0.349 -0.0820  0.0967 -0.3055
  307MOL0     C41355   4.385   4.495   0.028 -0.2709  0.6983  0.0915
  307MOL0     C41356   4.259   4.438  -0.008 -0.0721  0.4446 -0.0297
  307MOL0     O41357   3.931   4.501   0.034  0.7147  0.3019  0.1749
  307MOL0     C41358   3.690   4.407  -0.073 -0.2817  0.2978  0.3089
  307MOL0     C41359   3.576   4.352  -0.128 -0.7655 -0.5429  0.2011
  307MOL0     N41360   3.202   3.781  -0.271 -0.4214 -0.2060 -0.9337
  307MOL0     N41361   3.222   3.686  -0.197  0.2941 -0.4122 -0.8588
  307MOL0     C41362   2.043   3.418   0.174  0.2584 -0.3468 -0.1055
  307MOL0     C41363   1.912   3.363   0.156  0.2281 -0.6899  0.0693
  307MOL0     C41364   1.506   3.366  -0.038  0.8288  0.0945 -0.5328
  307MOL0     C41365   1.413   3.448   0.010  0.3078  0.3483  0.0215
  307MOL0     C41366   1.277   3.428  -0.010 -0.1646 -0.1356 -0.0059
  307MOL0     C41367   1.228   3.320  -0.077 -0.1560 -0.7506 -0.5563
  307MOL0     O41368   1.095   3.303  -0.089 -0.6560 -0.4273  0.5418
  307MOL0     C41369   1.040   3.223  -0.204 -0.2911 -0.3498 -0.0599
  307MOL0     C41370   0.901   3.265  -0.238 -0.6404  0.1392  0.2962
  307MOL0     C41371   0.800   3.243  -0.133 -0.3752  0.9930  0.4907
  307MOL0     C41372   0.657   3.287  -0.174 -0.0874 -0.1233 -0.8618
  307MOL0     C41373   0.569   3.279  -0.049 -0.4562 -0.0735  0.0992
  307MOL0     C41374   0.503   3.301   0.058 -0.3922  0.0860  0.5655
  307MOL0     C41375   1.319   3.228  -0.122  0.1756 -0.4472  0.6812
  307MOL0     C41376   1.457   3.246  -0.109  0.3028 -0.1641  0.0841
  307MOL0     C41377   1.557   3.156  -0.169 -0.0607 -0.7181 -0.7978
  307MOL0     H41378   1.918   3.358  -0.193 -2.4354  0.3302  0.6511
  307MOL0     H41379   2.150   3.433  -0.147 -0.2046 -0.8908  0.9226
  307MOL0     H41380   2.268   3.641  -0.070  0.5401  2.7416  1.0027
  307MOL0     H41381   2.199   3.690   0.075 -1.3055 -0.7749 -1.2763
  307MOL0     H41382   2.432   3.679   0.184  0.6590  0.3738 -0.8891
  307MOL0     H41383   2.440   3.760   0.028 -0.8756 -0.5068 -0.6982
  307MOL0     H41384   2.504   3.535  -0.070  4.2744 -0.1616 -1.4702
  307MOL0     H41385   2.504   3.475   0.097  1.3110 -2.1949 -2.8812
  307MOL0     H41386   2.681   3.709   0.007 -0.2008  0.1099 -0.2079
  307MOL0     H41387   2.683   3.623   0.161 -2.0171 -1.8633  0.7890
  307MOL0     H41388   2.778   3.428   0.071  1.8597 -1.2113 -0.8025
  307MOL0     H41389   2.752   3.471  -0.093 -2.9835 -1.4928  1.0340
  307MOL0     H41390   2.899   3.658  -0.095  3.4038  2.3679  1.2957
  307MOL0     H41391   2.911   3.659   0.084  3.7937  0.2815  0.0846
  307MOL0     H41392   3.034   3.473  -0.124  0.7664 -0.6026 -0.0737
  307MOL0     H41393   3.025   3.424   0.051  0.8098  1.1550  1.0782
  307MOL0     H41394   3.152   3.629   0.121  0.5618  1.0863 -0.6351
  307MOL0     H41395   3.253   3.530   0.015  1.4572  1.7827  0.9155
  307MOL0     H41396   3.055   3.875   0.007 -0.6265 -2.1157  1.4288
  307MOL0     H41397   3.040   3.970  -0.377  0.4333 -1.7549 -0.0868
  307MOL0     H41398   2.948   3.984  -0.230  0.9915  3.4001  0.8289
  307MOL0     H41399   3.050   4.198  -0.286  1.2357  2.1918  1.7722
  307MOL0     H41400   3.113   4.150  -0.134 -1.4650 -1.8654  0.8471
  307MOL0     H41401   3.240   4.135  -0.412 -2.4483 -1.9806  0.5961
  307MOL0     H41402   3.315   4.039  -0.275  1.6270  0.8868  2.0264
  307MOL0     H41403   3.347   4.211  -0.145 -0.3225 -0.9751  0.3648
  307MOL0     H41404   3.292   4.328  -0.271  3.3782  1.9311 -1.4586
  307MOL0     H41405   3.719   4.189  -0.385 -2.0356 -2.5183  1.2828
  307MOL0     H41406   3.914   4.287  -0.298  0.6345  1.6306  1.0635
  307MOL0     H41407   4.198   4.666  -0.246 -1.5073  0.3295  0.7871
  307MOL0     H41408   4.425   4.753  -0.180  2.8763 -1.9729  0.9291
  307MOL0     H41409   4.645   4.684  -0.168 -2.1617  1.1154 -0.9062
  307MOL0     H41410   4.623   4.824  -0.069  1.5056  0.3413  1.4484
  307MOL0     H41411   4.820   4.593  -0.036 -2.1870 -0.3865  0.0768
  307MOL0     H41412   4.858   4.754  -0.090  1.6493 -0.8558  1.7931
  307MOL0     H41413   4.791   4.864   0.116  0.3379  0.4478  0.3368
  307MOL0     H41414   4.755   4.719   0.198  1.3761  0.3930 -0.0626
  307MOL0     H41415   4.986   4.645   0.212 -1.4223 -0.6675 -2.0807
  307MOL0     H41416   4.961   4.789   0.280 -2.3848  1.3525  0.0526
  307MOL0     H41417   5.066   4.902   0.067  0.6123  2.6010  3.6871
  307MOL0     H41418   5.085   4.732  -0.000 -2.0098 -0.8774  1.5061
  307MOL0     H41419   5.288   4.817   0.093 -0.3449  2.3356  0.9790
  307MOL0     H41420   5.217   4.848   0.248  0.0865 -1.2609  2.0223
  307MOL0     H41421   5.197   4.582   0.110  1.5979 -1.7475 -0.6559
  307MOL0     H41422   5.204   4.609   0.291 -0.8194  0.0360 -0.6426
  307MOL0     H41423   5.393   4.493   0.189  1.2627 -0.1736  1.3523
  307MOL0     H41424   5.437   4.642   0.108  1.0694  1.5581  0.9362
  307MOL0     H41425   4.452   4.427   0.081 -0.9007 -0.5514 -0.6791
  307MOL0     H41426   4.230   4.347   0.044  0.5902  0.9073  1.1852
  307MOL0     H41427   3.684   4.468   0.017  0.4128  0.0294  0.5406
  307MOL0     H41428   3.484   4.375  -0.075 -0.5179  1.6511 -0.2249
  307MOL0     H41429   2.076   3.437   0.276  2.0751 -0.2866 -0.6757
  307MOL0     H41430   1.846   3.331   0.236 -0.9822 -0.0563 -0.6512
  307MOL0     H41431   1.444   3.530   0.074 -1.2455  0.3725  0.8004
  307MOL0     H41432   1.209   3.500   0.034 -0.8869  0.5729 -2.1308
  307MOL0     H41433   1.034   3.116  -0.182  0.2765 -0.3219  0.2505
  307MOL0     H41434   1.100   3.241  -0.294 -0.3686  0.2822  0.0070
  307MOL0     H41435   0.863   3.229  -0.334 -2.4185  0.4746  0.8294
  307MOL0     H41436   0.911   3.373  -0.256  1.1426 -0.3879 -2.5646
  307MOL0     H41437   0.842   3.279  -0.039  1.9548 -1.4291  0.4811
  307MOL0     H41438   0.794   3.134  -0.133 -0.2851  0.9860 -0.3967
  307MOL0     H41439   0.652   3.390  -0.211  0.6906 -0.2434 -1.3251
  307MOL0     H41440   0.613   3.228  -0.254  1.6163 -1.2920 -0.9755
  307MOL0     H41441   0.441   3.308   0.145  0.6185  2.8838  1.1741
  307MOL0     H41442   1.279   3.137  -0.166  2.6812 -0.1777 -2.5332
  307MOL0     H41443   1.653   3.193  -0.207 -0.4597  0.9194 -0.2775
  307MOL0     H41444   1.579   3.087  -0.087 -0.3728 -0.6338 -0.6422
  307MOL0     H41445   1.514   3.109  -0.259 -0.7668  2.2452 -2.1288
  308MOL0     O41446   7.617   8.816   6.389 -0.3367  0.1386 -0.1915
  308MOL0     C41447   7.563   8.803   6.275 -0.4532 -0.4020  0.7967
  308MOL0     O41448   7.612   8.851   6.161  0.5289  0.1827 -0.4003
  308MOL0     C41449   7.746   8.898   6.178  0.1497  0.2987  0.0708
  308MOL0     C41450   7.866   8.820   6.206  0.3308 -0.2307 -0.0628
  308MOL0     C41451   7.989   8.884   6.210 -0.0544 -0.4334 -0.8037
  308MOL0     C41452   8.003   9.015   6.181 -0.2546  0.3942 -0.4164
  308MOL0     O41453   8.134   9.055   6.168  0.4003  0.5979 -0.1528
  308MOL0     C41454   8.164   9.191   6.152  0.5395  0.3806  0.1241
  308MOL0     C41455   8.324   9.210   6.158 -0.2118 -0.3336  0.0489
  308MOL0     C41456   8.402   9.142   6.268 -0.7627 -0.3411  0.2889
  308MOL0     C41457   8.490   9.024   6.212 -0.6609  0.2467 -0.0090
  308MOL0     C41458   8.596   8.956   6.301 -0.4734  0.5208 -0.2549
  308MOL0     C41459   8.704   9.062   6.337 -0.7949  0.1121  0.4346
  308MOL0     C41460   8.794   9.008   6.447 -0.2832  0.0783  0.4651
  308MOL0     C41461   8.901   9.110   6.476 -0.7545 -0.2320 -0.4584
  308MOL0     N41462   9.016   9.048   6.543  0.0455 -0.1466 -0.0695
  308MOL0     C41463   9.017   9.002   6.672  1.5008  0.6279  0.4534
  308MOL0     C41464   9.145   8.975   6.696 -0.8281 -0.7439  1.3680
  308MOL0     C41465   9.198   8.934   6.829  0.8502 -0.1720 -0.4738
  308MOL0     C41466   9.349   8.902   6.831  0.2328  0.7327  0.8299
  308MOL0     C41467   9.379   8.851   6.972  0.5673 -0.1789  0.7423
  308MOL0     C41468   9.518   8.779   6.977 -0.1515  1.0331  0.7505
  308MOL0     O41469   9.519   8.645   6.919  0.5156  0.2190  0.0810
  308MOL0     C41470   9.630   8.568   6.925 -0.3244 -0.7756 -0.3927
  308MOL0     C41471   9.645   8.450   6.850  0.4278 -0.0115 -0.4875
  308MOL0     C41472   9.758   8.378   6.852 -1.1562  0.2141 -0.0204
  308MOL0     C41473   9.877   8.432   6.925  0.7216  0.1056 -0.1751
  308MOL0     C41474   9.997   8.354   6.924  0.3953  0.5046  0.7068
  308MOL0     O41475  10.091   8.382   7.019  0.3178 -0.1577  0.6417
  308MOL0     C41476  10.199   8.301   7.029  0.8019  0.2944  0.8880
  308MOL0     C41477  10.194   8.163   7.060 -0.2157 -0.0018 -0.0700
  308MOL0     C41478  10.308   8.084   7.071 -0.3815  0.6944 -1.2505
  308MOL0     C41479  10.433   8.145   7.070  0.4175 -0.1798  0.9502
  308MOL0     O41480  10.559   8.080   7.079 -0.5978 -0.0616 -0.1044
  308MOL0     C41481  10.554   7.941   7.110 -0.3426 -0.3816 -0.1082
  308MOL0     C41482  10.698   7.888   7.128 -0.1752 -0.1800 -0.3240
  308MOL0     C41483  10.789   7.957   7.227 -0.0859 -0.1256  0.5368
  308MOL0     C41484  10.914   7.867   7.262 -0.3731 -0.2898  0.3689
  308MOL0     C41485  10.997   7.948   7.368  0.9624 -0.1184  0.7806
  308MOL0     C41486  11.148   7.950   7.338 -0.5272 -0.0607  0.0305
  308MOL0     C41487  11.209   7.803   7.357  0.9646 -0.2914  0.7586
  308MOL0     C41488  11.357   7.798   7.339 -0.6165  0.4302 -0.0634
  308MOL0    Cl41489  11.438   7.870   7.482  0.1035 -0.2740  0.4567
  308MOL0     C41490  10.436   8.282   7.037 -0.2013 -0.1021 -1.1565
  308MOL0     C41491  10.327   8.363   7.018  0.3518 -0.1517  0.1371
  308MOL0     O41492  10.001   8.263   6.835  0.3189  0.5150 -0.9316
  308MOL0     C41493   9.869   8.549   7.000 -0.3042  1.3538  0.0652
  308MOL0     C41494   9.750   8.616   6.995  1.3510  0.3178  0.0677
  308MOL0     N41495   9.220   8.993   6.585  0.1891 -0.4476  0.0444
  308MOL0     N41496   9.143   9.018   6.490 -0.2509  0.1622  0.5701
  308MOL0     C41497   7.890   9.091   6.145  0.0534 -0.2781 -0.5721
  308MOL0     C41498   7.765   9.032   6.147  0.1363 -0.4009 -0.1265
  308MOL0     C41499   7.434   8.736   6.279 -0.4353  0.5727 -1.1802
  308MOL0     C41500   7.411   8.644   6.181 -0.6838  0.1349  0.4698
  308MOL0     C41501   7.305   8.556   6.185 -0.2360  0.6831  0.3904
  308MOL0     C41502   7.211   8.560   6.286 -0.4432  0.1454 -0.1641
  308MOL0     O41503   7.100   8.475   6.283 -0.0714 -0.6969 -0.2661
  308MOL0     C41504   7.088   8.412   6.411 -0.3081  0.8043 -0.3338
  308MOL0     C41505   6.984   8.305   6.400  0.0956 -0.4021  0.2850
  308MOL0     C41506   6.974   8.234   6.542 -0.4371 -0.3148  0.4490
  308MOL0     C41507   6.868   8.117   6.523 -0.9523  0.4810 -0.4793
  308MOL0     C41508   6.833   8.036   6.641 -0.0654 -0.1399  0.2023
  308MOL0     C41509   6.790   7.962   6.727 -0.4946  0.1720 -0.1335
  308MOL0     C41510   7.222   8.663   6.380  0.6591  0.6676  0.5680
  308MOL0     C41511   7.333   8.749   6.385  0.0269 -0.3330  0.4657
  308MOL0     C41512   7.349   8.846   6.495 -0.5926 -0.2344 -0.9780
  308MOL0     H41513   7.861   8.713   6.224  0.4363 -0.5534 -1.7822
  308MOL0     H41514   8.075   8.826   6.244  0.2336  0.5457  0.1896
  308MOL0     H41515   8.130   9.233   6.057 -0.5229  0.5882  0.5853
  308MOL0     H41516   8.129   9.261   6.229  1.4088  1.8295 -0.7414
  308MOL0     H41517   8.340   9.317   6.174  0.5991 -0.1494 -1.6848
  308MOL0     H41518   8.366   9.180   6.061  1.1755  0.6273  0.3168
  308MOL0     H41519   8.342   9.095   6.347 -0.0586 -1.4362  0.1908
  308MOL0     H41520   8.459   9.211   6.330 -1.8356 -1.0040  2.0965
  308MOL0     H41521   8.423   8.942   6.183  0.2506 -0.9371  1.1324
  308MOL0     H41522   8.551   9.053   6.125 -3.8341  1.1003 -2.1239
  308MOL0     H41523   8.550   8.907   6.387  1.0146 -1.3642 -0.4706
  308MOL0     H41524   8.639   8.876   6.241 -1.5842 -2.4310  2.5678
  308MOL0     H41525   8.747   9.109   6.249 -2.3635  2.3896  0.7694
  308MOL0     H41526   8.661   9.149   6.389  0.2327  0.0457  1.4487
  308MOL0     H41527   8.855   8.923   6.414  0.5077  0.1672  1.6656
  308MOL0     H41528   8.730   8.981   6.532 -0.1467 -1.4671  0.1176
  308MOL0     H41529   8.946   9.152   6.385  2.4944 -1.5457  0.3776
  308MOL0     H41530   8.866   9.187   6.546 -3.7520 -1.6183 -0.2937
  308MOL0     H41531   8.936   8.971   6.738  0.1176  1.8271 -0.6248
  308MOL0     H41532   9.185   9.010   6.906  0.7147  0.4657 -1.1182
  308MOL0     H41533   9.143   8.844   6.859  1.2948 -0.2029  0.2801
  308MOL0     H41534   9.351   8.811   6.770  1.1702 -0.5509  2.6884
  308MOL0     H41535   9.411   8.982   6.789  1.0969 -0.1363  0.4104
  308MOL0     H41536   9.301   8.779   6.998 -0.4201  0.6627  0.1866
  308MOL0     H41537   9.379   8.937   7.039  2.5292 -0.0937  0.7011
  308MOL0     H41538   9.542   8.760   7.081 -0.5953 -1.0996  0.5118
  308MOL0     H41539   9.603   8.834   6.936  0.1719 -0.5736 -0.8492
  308MOL0     H41540   9.550   8.429   6.802 -0.7764  1.9490  0.8642
  308MOL0     H41541   9.773   8.281   6.804  0.5409 -0.3438  1.5105
  308MOL0     H41542  10.100   8.109   7.067  1.3495 -2.9766 -0.2767
  308MOL0     H41543  10.294   7.983   7.109  0.5851  1.8531  2.5772
  308MOL0     H41544  10.527   7.917   7.213 -1.4735 -2.2035 -0.7929
  308MOL0     H41545  10.500   7.880   7.037 -0.3958 -1.8064  1.0725
  308MOL0     H41546  10.670   7.789   7.165 -1.3788  0.0708 -0.5162
  308MOL0     H41547  10.745   7.887   7.029  0.3305  0.7193 -0.1015
  308MOL0     H41548  10.825   8.052   7.187  0.8834  0.1572  2.0050
  308MOL0     H41549  10.737   7.967   7.323  0.1208 -0.0556  0.6396
  308MOL0     H41550  10.970   7.860   7.169  1.1520  2.6199  0.9572
  308MOL0     H41551  10.887   7.766   7.297  1.4536 -0.3151  1.8070
  308MOL0     H41552  10.967   7.911   7.466  0.5676 -0.0895  0.6747
  308MOL0     H41553  10.971   8.055   7.362  1.7641  0.0666  0.4662
  308MOL0     H41554  11.180   8.003   7.248  0.3999  0.6838  0.7708
  308MOL0     H41555  11.195   8.013   7.414 -1.8379  1.3034 -0.2289
  308MOL0     H41556  11.162   7.729   7.292  1.1193 -0.0589  0.3802
  308MOL0     H41557  11.187   7.767   7.458 -2.7983 -3.6828 -0.9758
  308MOL0     H41558  11.397   7.697   7.327  2.1318  1.4400 -0.1114
  308MOL0     H41559  11.382   7.852   7.247  0.7657 -2.8884 -1.7941
  308MOL0     H41560  10.527   8.340   7.022 -0.0270 -0.2530 -0.6829
  308MOL0     H41561  10.344   8.470   7.003 -0.6541 -0.2751 -2.2381
  308MOL0     H41562   9.967   8.581   7.033 -0.1724  0.7350  0.2746
  308MOL0     H41563   9.753   8.714   7.041 -1.0765  0.6620 -0.3723
  308MOL0     H41564   7.900   9.189   6.100 -0.4461 -0.0300 -0.1603
  308MOL0     H41565   7.685   9.103   6.132 -0.6989 -0.9833  1.3638
  308MOL0     H41566   7.487   8.645   6.104 -1.1439 -0.8856 -0.0148
  308MOL0     H41567   7.301   8.501   6.091  0.8992  1.0249  0.1375
  308MOL0     H41568   7.049   8.482   6.485  0.5688  0.1771  0.7565
  308MOL0     H41569   7.187   8.376   6.441 -0.0816  1.5561 -0.1624
  308MOL0     H41570   7.014   8.234   6.323 -1.7803  0.5073 -1.3556
  308MOL0     H41571   6.888   8.353   6.380  1.1861  1.1501 -1.5112
  308MOL0     H41572   6.943   8.299   6.625  2.0470  0.6727  0.6973
  308MOL0     H41573   7.076   8.212   6.575 -0.4319  0.9514  1.3616
  308MOL0     H41574   6.772   8.150   6.485 -0.2412  1.2886 -1.6473
  308MOL0     H41575   6.914   8.054   6.447  0.4743  1.5949 -0.5848
  308MOL0     H41576   6.755   7.905   6.810  1.2396  0.7608  1.0494
  308MOL0     H41577   7.146   8.660   6.458 -2.9985 -0.1654 -2.7561
  308MOL0     H41578   7.267   8.844   6.568  1.2236 -2.3429  1.2065
  308MOL0     H41579   7.432   8.808   6.555 -0.4009  0.1723 -0.9804
  308MOL0     H41580   7.377   8.946   6.460 -0.2693 -0.3720 -1.1206
  309MOL0     O41581   4.645   0.156  11.219  0.3119 -0.3567  0.0555
  309MOL0     C41582   4.564   0.065  11.235 -0.1447  1.0462  0.2900
  309MOL0     O41583   4.572  -0.024  11.345  0.2303 -0.4092  0.0112
  309MOL0     C41584   4.673  -0.023  11.443  0.9932  0.2349  0.1177
  309MOL0     C41585   4.631  -0.051  11.574 -0.0700  0.5703  0.6305
  309MOL0     C41586   4.725  -0.050  11.680  0.3595  0.2106 -0.1778
  309MOL0     C41587   4.857  -0.045  11.660  0.4005 -1.3015 -0.0888
  309MOL0     O41588   4.935  -0.051  11.776 -0.2229 -0.7716  0.2561
  309MOL0     C41589   5.065   0.002  11.775  0.7623  0.3237  0.0629
  309MOL0     C41590   5.135   0.036  11.916  0.0264  0.5330  0.4034
  309MOL0     C41591   5.191  -0.074  12.001 -0.0884  0.6409 -0.1217
  309MOL0     C41592   5.085  -0.137  12.097  0.2517 -0.0660  0.5081
  309MOL0     C41593   5.121  -0.271  12.159  0.3124  0.6398  0.3321
  309MOL0     C41594   5.236  -0.250  12.255  0.0990  0.3621 -0.3565
  309MOL0     C41595   5.297  -0.381  12.306  0.7477 -0.0187 -0.1622
  309MOL0     C41596   5.422  -0.364  12.389 -0.6231 -0.2340 -0.1514
  309MOL0     N41597   5.537  -0.323  12.308  0.3468  0.4565  0.1181
  309MOL0     C41598   5.592  -0.198  12.293 -0.1588  0.4992 -0.3465
  309MOL0     C41599   5.697  -0.218  12.204  0.2367  0.4228 -0.1529
  309MOL0     C41600   5.791  -0.119  12.148  0.0402  0.1449  0.2303
  309MOL0     C41601   5.860  -0.041  12.252  0.3245 -0.2592 -0.2422
  309MOL0     C41602   5.982   0.023  12.193 -0.8586 -0.6587 -0.0963
  309MOL0     C41603   6.046   0.117  12.300  0.1166 -0.1329  0.1486
  309MOL0     O41604   6.170   0.186  12.277  0.0811  0.1199  0.5279
  309MOL0     C41605   6.285   0.128  12.322  0.3956  0.2009 -0.5485
  309MOL0     C41606   6.389   0.224  12.355  0.5893  0.0297  0.3288
  309MOL0     C41607   6.513   0.182  12.398 -0.1282 -0.6749 -0.4389
  309MOL0     C41608   6.543   0.040  12.396  0.2251 -0.3980  0.0176
  309MOL0     C41609   6.672  -0.005  12.448 -0.0969  0.5956 -0.0948
  309MOL0     O41610   6.771   0.081  12.449  0.1545 -0.1652  0.0659
  309MOL0     C41611   6.891   0.066  12.519 -0.2571  0.6536  1.0226
  309MOL0     C41612   6.934  -0.036  12.603 -0.3078  0.3043  0.3159
  309MOL0     C41613   7.062  -0.033  12.654 -0.2131 -0.0522 -0.4632
  309MOL0     C41614   7.149   0.067  12.628  0.0639  0.0020 -1.1780
  309MOL0     O41615   7.281   0.054  12.675 -0.5020 -0.1068  0.3128
  309MOL0     C41616   7.392   0.075  12.585  0.2105 -0.0070  0.1328
  309MOL0     C41617   7.459   0.209  12.604 -0.2172 -0.4921  0.0666
  309MOL0     C41618   7.576   0.245  12.524 -0.0872  0.5142 -0.4744
  309MOL0     C41619   7.564   0.249  12.376  0.8169 -0.2191  0.3751
  309MOL0     C41620   7.691   0.293  12.306 -0.1053 -0.4184  0.0498
  309MOL0     C41621   7.734   0.436  12.322 -1.3224  0.1876 -0.4194
  309MOL0     C41622   7.856   0.466  12.239  0.0470  0.3852  0.3183
  309MOL0     C41623   7.985   0.406  12.299  0.4805  0.2293 -1.0076
  309MOL0    Cl41624   8.135   0.462  12.211 -0.1997 -0.2483  0.2338
  309MOL0     C41625   7.101   0.176  12.557 -0.0891 -0.0561 -0.0477
  309MOL0     C41626   6.978   0.171  12.495  0.3203  0.1962 -0.6306
  309MOL0     O41627   6.673  -0.119  12.493 -0.0001  0.0183 -0.8606
  309MOL0     C41628   6.449  -0.050  12.357  0.0991  0.0419 -0.3271
  309MOL0     C41629   6.320  -0.008  12.313 -0.2317  0.6857  0.3649
  309MOL0     N41630   5.693  -0.354  12.167 -0.4944  0.2711  0.3762
  309MOL0     N41631   5.601  -0.413  12.225  0.2131  0.3941 -0.5400
  309MOL0     C41632   4.903  -0.020  11.525 -0.1813  0.0203 -0.2038
  309MOL0     C41633   4.809  -0.008  11.420 -0.2502  0.6492 -0.6025
  309MOL0     C41634   4.457   0.046  11.135  0.7032 -0.5175 -0.4464
  309MOL0     C41635   4.371   0.158  11.111 -0.4933 -0.2981  0.7500
  309MOL0     C41636   4.265   0.143  11.023 -0.5251 -0.6996  0.3242
  309MOL0     C41637   4.233   0.014  10.970 -0.4133  0.3661 -0.0187
  309MOL0     O41638   4.130  -0.007  10.880  0.0376 -0.0101 -0.8370
  309MOL0     C41639   4.060   0.103  10.823  0.0633 -0.1819 -0.1019
  309MOL0     C41640   3.955   0.075  10.722 -0.4479  0.3668  0.6031
  309MOL0     C41641   3.990  -0.024  10.616  0.6167 -0.5103  0.1768
  309MOL0     C41642   3.865  -0.046  10.528  1.4732 -0.6646  0.1992
  309MOL0     C41643   3.854   0.064  10.422  0.7387  0.6214  0.2870
  309MOL0     C41644   3.849   0.154  10.338 -0.5713 -0.5570  0.3351
  309MOL0     C41645   4.322  -0.088  10.999  0.1315  0.0773 -0.7756
  309MOL0     C41646   4.431  -0.079  11.088 -0.8203  0.1220  0.4204
  309MOL0     C41647   4.523  -0.201  11.094  0.4455 -0.0023  0.5547
  309MOL0     H41648   4.523  -0.060  11.585 -0.6278  0.9418 -3.0799
  309MOL0     H41649   4.676  -0.071  11.774  1.4730 -2.4207 -0.1144
  309MOL0     H41650   5.124  -0.078  11.728 -0.6632 -1.4337  1.1268
  309MOL0     H41651   5.074   0.095  11.719  0.9951  2.6940  3.6668
  309MOL0     H41652   5.065   0.092  11.978  3.1466  2.5850  2.3596
  309MOL0     H41653   5.221   0.100  11.895  1.0704 -1.1969 -0.8595
  309MOL0     H41654   5.277  -0.044  12.061 -1.1326  1.2350  1.1302
  309MOL0     H41655   5.221  -0.156  11.935  1.2175  1.0063 -0.0145
  309MOL0     H41656   5.058  -0.062  12.173  0.7888 -0.2771  0.9161
  309MOL0     H41657   5.006  -0.158  12.025  1.0212 -1.0310 -0.0805
  309MOL0     H41658   5.046  -0.322  12.220  2.2547  1.0330  3.2401
  309MOL0     H41659   5.154  -0.338  12.079 -2.0701 -0.9452  0.5473
  309MOL0     H41660   5.308  -0.187  12.201  0.1826 -0.9042 -1.7701
  309MOL0     H41661   5.203  -0.200  12.347  0.0513  0.5771 -0.4885
  309MOL0     H41662   5.309  -0.451  12.223  1.0032 -0.7616  0.4864
  309MOL0     H41663   5.216  -0.421  12.367 -1.3013  2.5080 -1.0535
  309MOL0     H41664   5.395  -0.295  12.470 -1.5678  0.4971 -1.0609
  309MOL0     H41665   5.454  -0.459  12.433  0.7801 -0.9326 -2.5299
  309MOL0     H41666   5.563  -0.117  12.360  1.3346  0.7086  0.0956
  309MOL0     H41667   5.858  -0.185  12.091  0.4903  1.2537 -0.5430
  309MOL0     H41668   5.739  -0.048  12.083  2.2789  2.9103  1.2577
  309MOL0     H41669   5.794   0.037  12.291 -0.4743 -0.7174 -0.6509
  309MOL0     H41670   5.883  -0.111  12.333 -1.4613  0.8953  1.3587
  309MOL0     H41671   5.954   0.086  12.107  1.4120  0.9544  0.2777
  309MOL0     H41672   6.058  -0.050  12.163 -0.3899  0.7370 -2.6461
  309MOL0     H41673   6.050   0.063  12.395  0.5379  3.0914  2.1200
  309MOL0     H41674   5.975   0.199  12.314  1.6564  1.8245 -2.4628
  309MOL0     H41675   6.382   0.332  12.347  0.2763  0.0561  0.9078
  309MOL0     H41676   6.597   0.251  12.405  0.4874 -1.3813 -0.7477
  309MOL0     H41677   6.875  -0.123  12.629  2.3244 -1.5400  0.5744
  309MOL0     H41678   7.089  -0.121  12.712 -1.9958  1.9773  3.8322
  309MOL0     H41679   7.467  -0.001  12.612 -0.1777 -0.7519 -0.8239
  309MOL0     H41680   7.345   0.067  12.487 -1.0526  1.1392  0.6169
  309MOL0     H41681   7.388   0.290  12.582 -2.7862 -2.8344 -0.7673
  309MOL0     H41682   7.489   0.229  12.707  0.3222  1.6568 -0.4451
  309MOL0     H41683   7.601   0.340  12.572  0.8213  0.5616 -1.0128
  309MOL0     H41684   7.655   0.174  12.547  1.6312  2.4952  0.0905
  309MOL0     H41685   7.476   0.309  12.351  1.0981 -0.6757 -1.8924
  309MOL0     H41686   7.548   0.145  12.345 -0.6492 -0.5929  2.2272
  309MOL0     H41687   7.676   0.276  12.199  2.0816  3.8935 -1.1625
  309MOL0     H41688   7.777   0.237  12.344 -0.0347  0.6957  1.6269
  309MOL0     H41689   7.649   0.503  12.305 -1.0635  0.2728 -1.4162
  309MOL0     H41690   7.752   0.452  12.429 -2.5543 -0.9536 -0.0156
  309MOL0     H41691   7.859   0.575  12.233 -1.6935  0.3705 -2.1653
  309MOL0     H41692   7.834   0.416  12.144  0.4895  2.2797 -0.8318
  309MOL0     H41693   7.992   0.442  12.402 -0.0477 -0.5045 -0.7081
  309MOL0     H41694   7.983   0.297  12.307 -0.2565  0.3329  0.7029
  309MOL0     H41695   7.159   0.259  12.516  0.7270 -0.8143 -0.4580
  309MOL0     H41696   6.950   0.247  12.422  0.9225  0.8110 -0.2403
  309MOL0     H41697   6.469  -0.157  12.363 -1.9048 -0.4448 -1.3807
  309MOL0     H41698   6.242  -0.081  12.298 -0.3690  0.6025  1.3933
  309MOL0     H41699   5.006   0.002  11.500 -0.2504 -0.5211 -0.9880
  309MOL0     H41700   4.844  -0.000  11.317  2.6207 -1.1654  0.1207
  309MOL0     H41701   4.381   0.259  11.150  0.1294 -0.0498 -0.0284
  309MOL0     H41702   4.207   0.233  11.003  0.9404 -0.2853 -2.4615
  309MOL0     H41703   4.139   0.160  10.774  1.9992 -1.2051  1.6414
  309MOL0     H41704   4.018   0.169  10.900 -1.1798 -2.8159  1.6455
  309MOL0     H41705   3.933   0.169  10.671  1.1839  0.8553  0.7298
  309MOL0     H41706   3.871   0.036  10.781 -0.1567 -2.3670 -0.6136
  309MOL0     H41707   4.024  -0.113  10.669  0.3549  0.0827  1.3767
  309MOL0     H41708   4.072   0.013  10.553  0.9353  0.5749  1.1975
  309MOL0     H41709   3.868  -0.141  10.474 -0.5893 -1.2337  1.0082
  309MOL0     H41710   3.778  -0.050  10.594  2.1652 -1.5038  1.1017
  309MOL0     H41711   3.830   0.238  10.275 -0.1182 -1.3469 -0.8929
  309MOL0     H41712   4.306  -0.182  10.946  1.6445 -0.3301 -0.5556
  309MOL0     H41713   4.627  -0.173  11.078  0.4400  1.3857  2.6493
  309MOL0     H41714   4.520  -0.237  11.197  0.3905  0.3371  0.6757
  309MOL0     H41715   4.498  -0.277  11.019  0.6805  1.2430 -0.8320
  310MOL0     O41716  10.449   9.258   3.858  0.2212 -0.0615  0.1009
  310MOL0     C41717  10.488   9.140   3.846  0.2350 -0.6453 -0.3562
  310MOL0     O41718  10.504   9.071   3.734 -0.1749  0.3199  0.3296
  310MOL0     C41719  10.456   9.133   3.619 -0.1958  0.1225 -0.1083
  310MOL0     C41720  10.558   9.171   3.528 -0.2924 -0.1435  0.2459
  310MOL0     C41721  10.528   9.229   3.408 -0.4146  1.0188  0.0231
  310MOL0     C41722  10.397   9.264   3.378 -0.0452 -0.3152  0.2035
  310MOL0     O41723  10.367   9.324   3.258 -0.3584 -0.5026  0.2230
  310MOL0     C41724  10.231   9.336   3.219  0.7088 -0.0726  0.0091
  310MOL0     C41725  10.228   9.431   3.095 -0.0534  0.1628  0.3988
  310MOL0     C41726  10.122   9.405   2.984  0.4087  0.7023 -0.2384
  310MOL0     C41727  10.100   9.517   2.881 -0.4517 -0.3249  0.1548
  310MOL0     C41728  10.232   9.559   2.812 -0.3134 -0.3993  0.2086
  310MOL0     C41729  10.203   9.644   2.698  0.5392  0.3841  0.7360
  310MOL0     C41730  10.329   9.667   2.612 -0.1872  0.0955 -0.3274
  310MOL0     C41731  10.292   9.658   2.468  0.3795 -0.0833  0.5360
  310MOL0     N41732  10.405   9.695   2.390  0.0764  0.5219  1.1652
  310MOL0     C41733  10.516   9.613   2.368 -0.4224 -0.2317 -0.4291
  310MOL0     C41734  10.598   9.673   2.275  0.5367  0.1156 -1.1674
  310MOL0     C41735  10.734   9.629   2.229 -0.4777 -0.3532  0.2744
  310MOL0     C41736  10.845   9.733   2.252  0.8877  0.1149 -0.7052
  310MOL0     C41737  10.981   9.669   2.226  0.5096 -0.4738  0.0348
  310MOL0     C41738  11.087   9.772   2.240  0.3895 -0.2448  0.8789
  310MOL0     O41739  11.214   9.714   2.246  0.1597 -0.4702 -0.2177
  310MOL0     C41740  11.327   9.795   2.237 -0.4179 -0.4461 -0.2783
  310MOL0     C41741  11.449   9.726   2.237  0.4763 -0.5575 -0.3061
  310MOL0     C41742  11.572   9.789   2.212  0.2604  0.5470  0.2295
  310MOL0     C41743  11.582   9.926   2.198  0.0442 -0.1530  0.0942
  310MOL0     C41744  11.712   9.990   2.177  0.4641 -0.1220  0.6608
  310MOL0     O41745  11.809   9.903   2.108  0.1934 -0.1312  0.0049
  310MOL0     C41746  11.947   9.927   2.115  0.7974  0.3327 -0.0457
  310MOL0     C41747  12.025   9.834   2.036  0.6671  0.2295 -0.0498
  310MOL0     C41748  12.160   9.846   2.018  0.5871  1.1543  0.5361
  310MOL0     C41749  12.230   9.934   2.097 -0.4784 -0.5676  0.1729
  310MOL0     O41750  12.368   9.933   2.083  0.4547 -0.3104 -0.4711
  310MOL0     C41751  12.449   9.991   2.184 -0.2060 -0.1116 -0.3293
  310MOL0     C41752  12.588   9.974   2.118 -0.6718  0.4990 -0.3576
  310MOL0     C41753  12.710  10.031   2.188 -0.7107 -0.0820 -0.9334
  310MOL0     C41754  12.841  10.003   2.114  0.2316 -0.2835  0.4769
  310MOL0     C41755  12.956  10.047   2.203 -0.7427  0.4060 -0.6483
  310MOL0     C41756  13.099  10.007   2.150 -0.1148 -0.3684  0.1045
  310MOL0     C41757  13.205  10.077   2.234 -1.0901  0.4657  0.3130
  310MOL0     C41758  13.348  10.030   2.199  0.4870 -0.5603 -0.4408
  310MOL0    Cl41759  13.369   9.867   2.270  0.4136 -0.3889  0.0592
  310MOL0     C41760  12.164  10.024   2.181  0.1852  0.4060  0.1407
  310MOL0     C41761  12.021  10.021   2.188 -0.0513  0.2296 -0.0181
  310MOL0     O41762  11.725  10.109   2.201 -0.8923 -0.6136 -0.2406
  310MOL0     C41763  11.463  10.000   2.210 -0.4271 -0.0363  0.2526
  310MOL0     C41764  11.336   9.932   2.222 -0.2998 -0.5507 -0.5250
  310MOL0     N41765  10.532   9.790   2.235  0.6361 -0.4948 -0.5804
  310MOL0     N41766  10.417   9.793   2.294  0.4793 -0.4301  0.3257
  310MOL0     C41767  10.300   9.241   3.471 -0.2144  0.2608 -0.4662
  310MOL0     C41768  10.322   9.171   3.588 -1.0875 -0.7796 -0.3437
  310MOL0     C41769  10.536   9.064   3.962  0.1185 -0.9841  0.3133
  310MOL0     C41770  10.640   8.971   3.950  0.2535 -0.1499  1.1332
  310MOL0     C41771  10.685   8.893   4.053 -0.4936  0.1559  0.1241
  310MOL0     C41772  10.633   8.914   4.179  0.7855  0.2945 -0.0323
  310MOL0     O41773  10.697   8.857   4.286 -0.6585  0.3878  0.4570
  310MOL0     C41774  10.669   8.880   4.426 -0.2023 -0.3317  0.9045
  310MOL0     C41775  10.721   9.012   4.469  0.4315 -0.4034 -0.8588
  310MOL0     C41776  10.868   9.018   4.471 -0.3768  0.5671  0.1965
  310MOL0     C41777  10.927   9.161   4.477 -0.4508 -0.5665 -1.7630
  310MOL0     C41778  11.073   9.152   4.473  0.6458  0.6064  0.0862
  310MOL0     C41779  11.195   9.150   4.452 -0.4878  0.5960 -0.1821
  310MOL0     C41780  10.531   9.002   4.189 -0.1375 -0.0584 -0.0010
  310MOL0     C41781  10.478   9.086   4.089 -0.8197  0.1525  1.0490
  310MOL0     C41782  10.353   9.159   4.108  0.5182  0.0681 -0.5758
  310MOL0     H41783  10.659   9.140   3.552 -0.4127 -0.9132 -0.2132
  310MOL0     H41784  10.602   9.235   3.330 -0.8105 -0.3361 -0.4813
  310MOL0     H41785  10.187   9.237   3.200 -0.1298 -0.0456  1.7185
  310MOL0     H41786  10.178   9.391   3.296  0.1090  0.1867 -0.5849
  310MOL0     H41787  10.325   9.436   3.046  0.1696 -0.2182  0.7870
  310MOL0     H41788  10.214   9.533   3.132 -0.2405  0.5295 -0.6587
  310MOL0     H41789  10.024   9.390   3.029  1.3258 -0.7205  1.3995
  310MOL0     H41790  10.154   9.308   2.945 -0.6763  1.0278 -2.0434
  310MOL0     H41791  10.030   9.476   2.808  1.4275 -2.7986 -0.3978
  310MOL0     H41792  10.053   9.604   2.927  0.2445 -0.3415  0.9122
  310MOL0     H41793  10.297   9.619   2.877 -2.8007  3.8270 -0.8316
  310MOL0     H41794  10.284   9.466   2.787 -0.8037 -1.1777  1.9286
  310MOL0     H41795  10.124   9.600   2.635  0.8281 -1.5717  1.6541
  310MOL0     H41796  10.164   9.741   2.729  1.0164  1.3003 -1.3921
  310MOL0     H41797  10.404   9.592   2.639 -1.7585 -0.9345  1.5571
  310MOL0     H41798  10.379   9.759   2.641  1.4119 -1.0569  0.7368
  310MOL0     H41799  10.272   9.557   2.432  1.9482  0.3252 -1.7154
  310MOL0     H41800  10.204   9.718   2.444 -2.6393 -4.7466 -1.6888
  310MOL0     H41801  10.534   9.523   2.427  1.9759  1.6861  1.9916
  310MOL0     H41802  10.757   9.532   2.275 -1.0462 -0.2849  0.7099
  310MOL0     H41803  10.730   9.614   2.120 -0.1230 -1.3786  0.3866
  310MOL0     H41804  10.824   9.818   2.187 -0.9598 -0.0420 -0.3651
  310MOL0     H41805  10.839   9.761   2.358  0.3143 -0.9080 -0.4516
  310MOL0     H41806  10.997   9.630   2.125  4.5016  0.5671  0.0861
  310MOL0     H41807  10.998   9.583   2.291  2.3177  0.6357  1.0934
  310MOL0     H41808  11.068   9.835   2.328 -2.6028  0.7884 -0.3993
  310MOL0     H41809  11.076   9.832   2.150  0.1859 -1.2542  0.2167
  310MOL0     H41810  11.447   9.619   2.254  0.5194 -0.0178  4.1931
  310MOL0     H41811  11.663   9.732   2.198  0.5994  1.1174  0.0605
  310MOL0     H41812  11.975   9.752   1.986  1.8024 -1.4109  1.4072
  310MOL0     H41813  12.208   9.773   1.953 -0.5028  1.2640 -0.4262
  310MOL0     H41814  12.439  10.099   2.178  1.8363  0.1291 -0.0792
  310MOL0     H41815  12.446   9.951   2.286  0.6844 -0.7205 -0.5298
  310MOL0     H41816  12.601   9.871   2.083  1.0452  0.9817 -1.2183
  310MOL0     H41817  12.579  10.029   2.024 -0.8797  0.3782 -0.4110
  310MOL0     H41818  12.701  10.140   2.178 -0.0088  0.1045  0.2063
  310MOL0     H41819  12.712   9.993   2.291  0.4813  0.4452 -0.7399
  310MOL0     H41820  12.848  10.051   2.016  3.4630 -0.5923  0.4406
  310MOL0     H41821  12.843   9.895   2.093  2.6941 -0.3109  0.5188
  310MOL0     H41822  12.941   9.985   2.292  0.2135  1.1177  0.0348
  310MOL0     H41823  12.961  10.154   2.226 -3.4338  0.3277  0.5774
  310MOL0     H41824  13.126   9.902   2.137 -0.1699 -0.1886 -1.7032
  310MOL0     H41825  13.096  10.049   2.049  1.5927 -1.6731 -0.5081
  310MOL0     H41826  13.186  10.050   2.338  1.1355  0.5117  0.7846
  310MOL0     H41827  13.198  10.184   2.211  2.7141  0.9251  0.6097
  310MOL0     H41828  13.355  10.029   2.090  2.9055  3.6357 -0.5122
  310MOL0     H41829  13.425  10.085   2.253 -1.9862  0.8788  1.8735
  310MOL0     H41830  12.215  10.112   2.219 -0.9654  1.6823 -1.1354
  310MOL0     H41831  11.979  10.098   2.252  2.5412  1.3016  0.5316
  310MOL0     H41832  11.458  10.108   2.217 -1.3162 -0.1779  2.4302
  310MOL0     H41833  11.248   9.994   2.212  2.7010  4.4736  1.0057
  310MOL0     H41834  10.196   9.264   3.448 -1.0408 -1.0780  1.6444
  310MOL0     H41835  10.241   9.158   3.658 -1.2076  1.2410 -0.0429
  310MOL0     H41836  10.684   8.943   3.855 -0.4928 -2.2331  1.3542
  310MOL0     H41837  10.759   8.816   4.033 -0.7951 -0.1013 -0.0080
  310MOL0     H41838  10.718   8.801   4.483 -2.7048 -2.1888  0.6495
  310MOL0     H41839  10.561   8.875   4.445 -0.3879 -0.5823 -0.1939
  310MOL0     H41840  10.672   9.025   4.566 -0.4854  0.1129 -1.3686
  310MOL0     H41841  10.687   9.092   4.402 -1.7322 -0.8133 -0.3434
  310MOL0     H41842  10.901   8.960   4.384  1.9185 -1.5111  2.2752
  310MOL0     H41843  10.900   8.966   4.562 -1.1225  0.1011  0.2004
  310MOL0     H41844  10.892   9.227   4.397  0.3743 -0.3177 -1.9283
  310MOL0     H41845  10.887   9.208   4.567 -0.8703  1.5833 -3.0141
  310MOL0     H41846  11.300   9.137   4.434 -0.5555 -0.9082  0.3439
  310MOL0     H41847  10.477   9.007   4.282 -1.4247  0.0380 -0.7298
  310MOL0     H41848  10.293   9.163   4.017  0.4227 -1.3466 -0.5941
  310MOL0     H41849  10.285   9.107   4.176  1.0572  0.6516  0.4362
  310MOL0     H41850  10.370   9.257   4.155  2.5407  0.3280 -1.7410
  311MOL0     O41851   8.135   3.326   6.729 -0.0999 -0.2832  0.6331
  311MOL0     C41852   8.019   3.295   6.737 -0.3398 -0.0846 -0.2254
  311MOL0     O41853   7.930   3.354   6.830 -0.0859  0.7977  0.1097
  311MOL0     C41854   7.979   3.442   6.925 -0.1607 -0.2824 -0.4330
  311MOL0     C41855   8.090   3.411   7.005 -0.5791  0.6161  0.1568
  311MOL0     C41856   8.135   3.494   7.102 -0.1108  0.7616 -0.2566
  311MOL0     C41857   8.066   3.614   7.129  0.6130 -0.5048  0.2588
  311MOL0     O41858   8.094   3.698   7.241  0.2332 -0.4961  0.6321
  311MOL0     C41859   8.155   3.634   7.357 -0.3127 -1.0008  0.3427
  311MOL0     C41860   8.309   3.629   7.343 -0.1134 -0.0803  0.4717
  311MOL0     C41861   8.370   3.517   7.430 -0.9630  0.8426  0.9750
  311MOL0     C41862   8.516   3.494   7.375  0.1119 -0.3046 -0.7124
  311MOL0     C41863   8.598   3.375   7.425 -0.7139 -0.0607  0.2483
  311MOL0     C41864   8.746   3.384   7.381  0.3129  0.0001  0.3419
  311MOL0     C41865   8.820   3.254   7.369 -0.0650  0.1591  0.0309
  311MOL0     C41866   8.762   3.160   7.267  0.0208  0.0330  0.5278
  311MOL0     N41867   8.866   3.074   7.216 -0.2298  0.2392  0.4949
  311MOL0     C41868   8.919   3.089   7.085  0.6205  0.6136  0.6386
  311MOL0     C41869   8.999   2.971   7.071  0.8925 -0.6103  0.1201
  311MOL0     C41870   9.088   2.931   6.958 -0.5703 -1.3928  0.8359
  311MOL0     C41871   9.231   2.900   7.002 -0.2603 -0.4842  0.1209
  311MOL0     C41872   9.317   2.848   6.887  0.7620  0.3190 -0.1647
  311MOL0     C41873   9.469   2.857   6.916  0.2109 -0.5862  0.1537
  311MOL0     O41874   9.502   2.993   6.943  0.4418 -0.1289  0.4526
  311MOL0     C41875   9.628   3.022   6.975  0.2455 -0.3875 -0.1698
  311MOL0     C41876   9.742   2.942   6.965  0.2921  0.0535  1.0492
  311MOL0     C41877   9.864   2.980   7.011  0.6282  0.6942  0.5756
  311MOL0     C41878   9.879   3.100   7.070 -0.1627 -0.0238  0.0141
  311MOL0     C41879  10.014   3.152   7.095 -0.3178  1.3397  0.5628
  311MOL0     O41880  10.112   3.065   7.055  0.2260  0.4890  0.0893
  311MOL0     C41881  10.245   3.081   7.087  0.1647 -0.6870  0.6478
  311MOL0     C41882  10.336   3.009   7.004  0.0795  0.1496  0.0025
  311MOL0     C41883  10.470   3.024   7.013  0.5458  0.4737  0.8395
  311MOL0     C41884  10.522   3.112   7.116  0.0852 -0.6550  0.3196
  311MOL0     O41885  10.660   3.122   7.112  0.3144  0.7910  0.2288
  311MOL0     C41886  10.711   3.193   7.228  0.4471  1.4387 -0.0510
  311MOL0     C41887  10.856   3.159   7.230 -1.4108 -0.0387  0.2259
  311MOL0     C41888  10.930   3.221   7.353 -0.2574 -0.1392 -0.0709
  311MOL0     C41889  11.079   3.178   7.350 -0.2561 -0.0039  0.1893
  311MOL0     C41890  11.175   3.274   7.272  0.1733  0.0344 -0.5881
  311MOL0     C41891  11.322   3.222   7.261  0.2799  0.0036  0.3766
  311MOL0     C41892  11.413   3.327   7.197 -0.8019  0.4626  0.7754
  311MOL0     C41893  11.356   3.371   7.052 -0.2114  0.1214 -0.1254
  311MOL0    Cl41894  11.469   3.493   6.985  0.2566 -0.0340 -0.0205
  311MOL0     C41895  10.432   3.181   7.210 -0.7047  0.4452  0.5538
  311MOL0     C41896  10.295   3.161   7.193  0.3526 -0.3582 -0.3351
  311MOL0     O41897  10.029   3.255   7.151 -0.0458 -0.6189  0.3222
  311MOL0     C41898   9.769   3.179   7.089  0.1715 -0.0942  0.6480
  311MOL0     C41899   9.645   3.139   7.040  1.0083 -0.7840  0.4331
  311MOL0     N41900   8.993   2.901   7.191 -0.2974  0.4578  0.6650
  311MOL0     N41901   8.910   2.962   7.268 -0.0643 -0.5901  0.1616
  311MOL0     C41902   7.951   3.649   7.053  0.0894 -0.1638  0.2697
  311MOL0     C41903   7.908   3.557   6.947  0.1523  0.5270 -1.2033
  311MOL0     C41904   7.984   3.189   6.645 -0.0226  0.9285 -0.3629
  311MOL0     C41905   8.077   3.099   6.592  0.1895 -0.7501 -0.2807
  311MOL0     C41906   8.039   2.989   6.517 -1.0244 -0.2595 -0.1929
  311MOL0     C41907   7.906   2.962   6.499 -0.3177  0.5558  0.4559
  311MOL0     O41908   7.859   2.858   6.423 -0.1612 -0.7034  0.0932
  311MOL0     C41909   7.940   2.756   6.377 -0.1332  0.1815 -0.0550
  311MOL0     C41910   7.852   2.657   6.299 -0.3532  0.0743  1.0904
  311MOL0     C41911   7.756   2.573   6.384  0.4644  0.3749  0.0584
  311MOL0     C41912   7.698   2.463   6.295  0.3525  0.1242 -1.1790
  311MOL0     C41913   7.588   2.397   6.366  0.0502  0.5267  0.0989
  311MOL0     C41914   7.502   2.338   6.427  0.8126 -0.7127 -0.2924
  311MOL0     C41915   7.812   3.046   6.552  0.8875 -0.1930  0.3583
  311MOL0     C41916   7.846   3.162   6.625  0.7268  0.5590 -0.3494
  311MOL0     C41917   7.738   3.259   6.669 -0.5357 -0.5976 -0.5656
  311MOL0     H41918   8.132   3.311   6.991 -1.3370  0.4115 -0.7727
  311MOL0     H41919   8.216   3.452   7.161 -2.0761 -4.1445 -0.5951
  311MOL0     H41920   8.131   3.704   7.437 -1.2663  0.4898 -1.1871
  311MOL0     H41921   8.111   3.535   7.376 -0.4327 -1.2261 -1.0396
  311MOL0     H41922   8.355   3.719   7.384 -1.5110 -0.0260  1.9943
  311MOL0     H41923   8.340   3.623   7.238 -2.6701  0.2588 -0.3747
  311MOL0     H41924   8.304   3.430   7.425  0.2378 -0.0677  0.5258
  311MOL0     H41925   8.370   3.546   7.535  0.2229 -2.6277  2.0814
  311MOL0     H41926   8.516   3.483   7.266  2.4901 -2.4484 -0.5933
  311MOL0     H41927   8.578   3.583   7.384  0.0601 -0.2024 -1.3122
  311MOL0     H41928   8.596   3.380   7.534 -1.5606 -1.0229  0.2929
  311MOL0     H41929   8.553   3.284   7.384  1.8836 -1.3651  0.0947
  311MOL0     H41930   8.746   3.444   7.290 -2.3155  2.4254  1.7619
  311MOL0     H41931   8.800   3.452   7.448 -1.6308  0.2384  1.7600
  311MOL0     H41932   8.837   3.208   7.467 -0.4070 -1.2026 -0.5400
  311MOL0     H41933   8.923   3.280   7.342  0.7832 -1.2817  1.6701
  311MOL0     H41934   8.691   3.082   7.298  2.2687 -2.5536 -0.4939
  311MOL0     H41935   8.704   3.209   7.188  0.0198  0.1776  0.6152
  311MOL0     H41936   8.900   3.160   7.005  4.1732  0.2760 -0.6951
  311MOL0     H41937   9.042   2.837   6.926 -0.3335 -1.0589 -0.5456
  311MOL0     H41938   9.080   3.000   6.873 -1.1907 -4.5027 -1.8405
  311MOL0     H41939   9.276   2.996   7.032  1.1413 -0.9711 -0.3534
  311MOL0     H41940   9.239   2.832   7.087  1.8494  1.5327  1.6603
  311MOL0     H41941   9.296   2.899   6.792  2.8131  0.0572 -0.8138
  311MOL0     H41942   9.284   2.744   6.874  2.2850 -0.6329  2.7561
  311MOL0     H41943   9.523   2.826   6.826 -0.9620  1.7473 -1.4654
  311MOL0     H41944   9.497   2.798   7.003  3.2861  0.0653 -0.2737
  311MOL0     H41945   9.728   2.843   6.923 -3.0228  0.2580  1.3678
  311MOL0     H41946   9.942   2.906   6.995 -0.1831 -0.5543  2.1026
  311MOL0     H41947  10.299   2.940   6.928  3.0794 -1.8872  0.2087
  311MOL0     H41948  10.527   2.957   6.951 -1.0281 -2.0953  1.9932
  311MOL0     H41949  10.689   3.300   7.218 -1.9369  1.1467  1.1635
  311MOL0     H41950  10.666   3.154   7.321 -0.7449  1.0074 -0.7815
  311MOL0     H41951  10.878   3.055   7.206  0.6744  0.6394 -1.0739
  311MOL0     H41952  10.899   3.207   7.141 -1.1407 -1.5508 -0.4864
  311MOL0     H41953  10.919   3.329   7.349  0.4560  0.0272  1.4629
  311MOL0     H41954  10.888   3.194   7.451  1.8591  0.5616  1.1083
  311MOL0     H41955  11.092   3.075   7.314  2.6614 -0.7344  2.8363
  311MOL0     H41956  11.123   3.167   7.450  2.0944 -1.8862 -0.9336
  311MOL0     H41957  11.166   3.372   7.318  2.5844 -1.2372  2.9886
  311MOL0     H41958  11.133   3.270   7.171 -0.1153 -0.5465 -0.4528
  311MOL0     H41959  11.359   3.197   7.361  1.9701  1.6573  0.2139
  311MOL0     H41960  11.318   3.129   7.203 -2.0114 -0.2659  0.8447
  311MOL0     H41961  11.519   3.301   7.204 -0.5583  0.1105 -2.7021
  311MOL0     H41962  11.403   3.419   7.255 -0.9151  0.7458  0.3074
  311MOL0     H41963  11.346   3.290   6.978  1.7350 -2.6113  2.3409
  311MOL0     H41964  11.258   3.418   7.059 -0.2228 -0.1760  3.8133
  311MOL0     H41965  10.461   3.248   7.290 -1.4924  3.8417 -1.7808
  311MOL0     H41966  10.224   3.216   7.254 -1.2381  0.3944 -2.7279
  311MOL0     H41967   9.775   3.278   7.133  0.3937 -0.3376  1.1728
  311MOL0     H41968   9.562   3.208   7.052  1.5714 -0.3142  1.9116
  311MOL0     H41969   7.895   3.740   7.073 -0.0376  0.4825 -2.6241
  311MOL0     H41970   7.808   3.570   6.908 -0.6793  0.5251  0.8024
  311MOL0     H41971   8.180   3.132   6.607 -0.1852  0.9192 -1.1491
  311MOL0     H41972   8.108   2.924   6.465 -0.2688 -1.2079  1.8565
  311MOL0     H41973   7.988   2.710   6.463  1.1329  1.2258 -0.1620
  311MOL0     H41974   8.012   2.786   6.300  3.0513 -1.3577  2.1183
  311MOL0     H41975   7.923   2.586   6.254  0.8260  1.4515  0.7009
  311MOL0     H41976   7.797   2.705   6.219  0.5242  0.1130  0.4908
  311MOL0     H41977   7.686   2.633   6.443  0.6872  1.1935 -0.4989
  311MOL0     H41978   7.815   2.517   6.458  0.1254  1.1178  0.9166
  311MOL0     H41979   7.665   2.491   6.195  1.0737  1.3262 -1.1050
  311MOL0     H41980   7.778   2.390   6.282 -0.5021 -1.3803  1.3539
  311MOL0     H41981   7.425   2.293   6.485  1.5377 -2.5953 -0.7263
  311MOL0     H41982   7.707   3.043   6.525  0.4360  1.2458  1.7737
  311MOL0     H41983   7.699   3.229   6.766 -3.7631  3.3387 -0.3680
  311MOL0     H41984   7.766   3.365   6.661 -0.3294 -0.6163 -0.1014
  311MOL0     H41985   7.647   3.250   6.609 -0.9377 -1.7133  0.1739
  312MOL0     O41986   3.049   5.307   3.164  0.0669  0.0953 -0.1610
  312MOL0     C41987   2.996   5.206   3.214 -0.1698 -0.1781  0.2277
  312MOL0     O41988   3.065   5.094   3.275  0.0670  0.0702 -0.0153
  312MOL0     C41989   3.201   5.093   3.263 -0.5899  0.2851 -0.0414
  312MOL0     C41990   3.274   5.087   3.385  0.0864  0.1945 -0.2461
  312MOL0     C41991   3.414   5.092   3.379 -0.0152  1.2522  0.9114
  312MOL0     C41992   3.482   5.126   3.264 -0.1457  0.9836  0.2161
  312MOL0     O41993   3.618   5.128   3.265 -0.3327 -0.2409  0.2764
  312MOL0     C41994   3.698   5.009   3.288  0.1612  0.3941  0.2159
  312MOL0     C41995   3.844   5.037   3.294 -0.0026  0.1713 -1.0375
  312MOL0     C41996   3.907   5.086   3.163 -0.1705 -0.1401 -0.6249
  312MOL0     C41997   4.059   5.128   3.163  0.0894 -0.5396 -0.8571
  312MOL0     C41998   4.136   5.074   3.285 -0.0861  0.1472 -0.6369
  312MOL0     C41999   4.284   5.125   3.292  0.0877  0.4595  0.4768
  312MOL0     C42000   4.366   5.102   3.159 -0.2848  0.1348 -0.0393
  312MOL0     C42001   4.514   5.136   3.177  0.1948 -0.3085  0.7057
  312MOL0     N42002   4.585   5.029   3.230  0.2580  0.0667 -0.2792
  312MOL0     C42003   4.603   4.909   3.173  0.1008  0.8779 -0.0911
  312MOL0     C42004   4.722   4.861   3.221 -0.0707  0.0243 -0.8982
  312MOL0     C42005   4.792   4.733   3.191  0.3266  0.3719 -0.4326
  312MOL0     C42006   4.882   4.749   3.061  0.3541 -0.4891  0.5573
  312MOL0     C42007   5.012   4.827   3.094 -0.0453  0.7017 -0.5074
  312MOL0     C42008   5.102   4.845   2.967 -0.6448  0.2191 -0.4268
  312MOL0     O42009   5.211   4.920   3.020  0.2321  0.2195 -0.4273
  312MOL0     C42010   5.311   4.978   2.940  0.6147 -0.0525 -0.4742
  312MOL0     C42011   5.418   5.045   3.000 -0.7971  1.1666 -0.4647
  312MOL0     C42012   5.513   5.106   2.923  0.0909 -1.0718 -0.5952
  312MOL0     C42013   5.512   5.105   2.787  0.0009 -0.2131  0.2546
  312MOL0     C42014   5.629   5.158   2.716 -0.6048  0.6567 -0.0764
  312MOL0     O42015   5.733   5.208   2.788 -0.0565  0.5305  0.6739
  312MOL0     C42016   5.861   5.211   2.746 -0.9416  0.2434  0.3112
  312MOL0     C42017   5.956   5.213   2.847  0.4121  0.1217  0.7260
  312MOL0     C42018   6.091   5.239   2.829  0.7421 -0.2397 -0.3107
  312MOL0     C42019   6.135   5.254   2.701 -0.7418 -0.2974  0.2985
  312MOL0     O42020   6.268   5.290   2.681  0.5669 -0.1329  1.0090
  312MOL0     C42021   6.318   5.295   2.555 -0.4982  0.0648  0.4525
  312MOL0     C42022   6.467   5.326   2.566 -0.6836  1.1613  0.1725
  312MOL0     C42023   6.543   5.312   2.432 -0.5577 -0.4219  0.2102
  312MOL0     C42024   6.693   5.344   2.454  0.4576  0.2940  0.0711
  312MOL0     C42025   6.755   5.379   2.322  0.6509  0.4917 -0.5516
  312MOL0     C42026   6.902   5.343   2.321  0.7293  0.4396 -0.9058
  312MOL0     C42027   6.970   5.373   2.191  0.4778 -0.6888 -0.4401
  312MOL0     C42028   7.110   5.332   2.182 -0.1568  0.0017  0.6425
  312MOL0    Cl42029   7.215   5.430   2.287 -0.1959  0.6304 -0.0466
  312MOL0     C42030   6.043   5.243   2.593  0.3792 -0.3848 -0.4623
  312MOL0     C42031   5.909   5.222   2.614  0.4129 -0.0343 -0.3555
  312MOL0     O42032   5.614   5.158   2.591 -0.5369  0.1887  0.3830
  312MOL0     C42033   5.402   5.045   2.722  0.3356  0.2512 -0.0035
  312MOL0     C42034   5.304   4.976   2.796  0.3020  0.4097 -0.2865
  312MOL0     N42035   4.765   4.960   3.311  0.7702 -0.0772 -0.2664
  312MOL0     N42036   4.689   5.064   3.310  0.3963 -0.4994 -0.3828
  312MOL0     C42037   3.409   5.121   3.144  0.7509 -0.2177  0.0504
  312MOL0     C42038   3.271   5.108   3.139 -0.1875  0.2784  1.0380
  312MOL0     C42039   2.846   5.200   3.209 -0.0406  0.6192 -0.2875
  312MOL0     C42040   2.789   5.120   3.310 -0.6655 -0.0167 -0.2037
  312MOL0     C42041   2.654   5.124   3.338  0.4795  0.0193  0.3390
  312MOL0     C42042   2.570   5.198   3.253  0.9184 -0.0516  0.2550
  312MOL0     O42043   2.433   5.180   3.266 -0.6626 -0.0379 -0.2714
  312MOL0     C42044   2.332   5.227   3.170 -0.4118  0.9661  0.8480
  312MOL0     C42045   2.203   5.176   3.235 -0.2098  0.0558  0.8667
  312MOL0     C42046   2.084   5.149   3.137  0.2818  0.6751 -0.5112
  312MOL0     C42047   1.966   5.100   3.210  0.5806 -0.2988 -0.5796
  312MOL0     C42048   1.841   5.097   3.127 -0.1919 -0.4800  0.2982
  312MOL0     C42049   1.758   5.078   3.040 -0.1966 -0.0288 -0.3615
  312MOL0     C42050   2.629   5.266   3.149  0.1954 -0.7130  0.3330
  312MOL0     C42051   2.768   5.279   3.120 -0.1028  0.1954  1.1791
  312MOL0     C42052   2.811   5.359   3.007 -0.4611  1.0758  0.2588
  312MOL0     H42053   3.228   5.077   3.482  3.6115 -3.1431  1.3131
  312MOL0     H42054   3.463   5.077   3.474  1.0353 -0.6899  0.1389
  312MOL0     H42055   3.650   4.963   3.375 -1.1120 -0.5409 -0.9408
  312MOL0     H42056   3.689   4.941   3.202  2.3966  1.2858 -0.8005
  312MOL0     H42057   3.878   4.937   3.323 -4.2841 -1.4854 -1.1165
  312MOL0     H42058   3.869   5.111   3.371  2.6033  0.4304 -2.0159
  312MOL0     H42059   3.857   5.168   3.111  2.7753  1.1507 -1.6239
  312MOL0     H42060   3.895   4.997   3.101 -1.2812  0.0478 -0.7076
  312MOL0     H42061   4.116   5.104   3.073  1.4398 -2.2879  0.3763
  312MOL0     H42062   4.059   5.237   3.163  3.1459 -0.3576 -4.0006
  312MOL0     H42063   4.089   5.118   3.373 -3.0200 -1.8569 -1.0510
  312MOL0     H42064   4.134   4.966   3.302 -0.0993  0.5921  2.8638
  312MOL0     H42065   4.290   5.231   3.316  0.2785  1.0984 -2.1661
  312MOL0     H42066   4.335   5.059   3.364  1.9297 -2.0958 -2.8593
  312MOL0     H42067   4.337   5.179   3.087 -2.3837 -1.1780 -0.6963
  312MOL0     H42068   4.361   5.003   3.111  1.8932  0.6317 -1.4138
  312MOL0     H42069   4.553   5.171   3.081 -1.2964 -0.5727 -0.0362
  312MOL0     H42070   4.525   5.215   3.252 -1.3105  0.5591  0.0747
  312MOL0     H42071   4.542   4.869   3.094  2.9315 -2.7378 -0.7082
  312MOL0     H42072   4.844   4.692   3.277  1.8490  1.4374 -0.8085
  312MOL0     H42073   4.710   4.661   3.174 -0.4361  0.7138  1.5899
  312MOL0     H42074   4.895   4.648   3.021  1.1923  0.5849 -2.1397
  312MOL0     H42075   4.825   4.810   2.990  2.6916  1.2835  0.0487
  312MOL0     H42076   5.070   4.773   3.170  0.2737  2.0986  0.2742
  312MOL0     H42077   4.975   4.925   3.127  1.3435  1.0999 -0.0445
  312MOL0     H42078   5.047   4.897   2.887 -0.7258 -0.1246 -0.5945
  312MOL0     H42079   5.135   4.748   2.931  2.0913  1.1501 -0.6744
  312MOL0     H42080   5.430   5.035   3.107  1.2193  0.4787 -0.7078
  312MOL0     H42081   5.591   5.154   2.983 -0.7506  1.4477 -1.3921
  312MOL0     H42082   5.917   5.186   2.944 -1.0683 -0.5948 -0.0364
  312MOL0     H42083   6.158   5.252   2.914 -0.2304  1.5073  0.2451
  312MOL0     H42084   6.306   5.195   2.510  0.8508 -0.0772  0.3653
  312MOL0     H42085   6.266   5.375   2.502 -1.0039 -0.1561  0.6076
  312MOL0     H42086   6.489   5.430   2.594 -0.3045  1.2515 -0.4258
  312MOL0     H42087   6.511   5.261   2.641 -0.7610  2.3782  1.3044
  312MOL0     H42088   6.530   5.218   2.379 -0.4879 -0.6099  0.5287
  312MOL0     H42089   6.507   5.391   2.365 -2.0371 -1.0784  0.2036
  312MOL0     H42090   6.739   5.253   2.493 -0.2342 -0.7090 -1.3397
  312MOL0     H42091   6.708   5.423   2.528 -0.8620 -1.2983  2.1386
  312MOL0     H42092   6.752   5.488   2.310  3.6845  0.6661 -0.4998
  312MOL0     H42093   6.711   5.336   2.233 -0.9742 -1.9866  1.3331
  312MOL0     H42094   6.956   5.411   2.388  0.1335  0.1758 -0.1584
  312MOL0     H42095   6.920   5.242   2.357  0.0748  1.4280  2.5305
  312MOL0     H42096   6.957   5.480   2.172 -3.1561 -0.6114  1.6147
  312MOL0     H42097   6.912   5.328   2.110  1.4149 -1.4705 -0.7034
  312MOL0     H42098   7.122   5.229   2.215 -0.4071  0.5122  2.4005
  312MOL0     H42099   7.147   5.337   2.079 -3.3085  0.0993 -0.5849
  312MOL0     H42100   6.066   5.268   2.490  1.5179  2.2122  0.3542
  312MOL0     H42101   5.833   5.229   2.538 -2.2498  0.3510  2.1679
  312MOL0     H42102   5.395   5.056   2.614  1.4190  0.4224 -0.0645
  312MOL0     H42103   5.214   4.938   2.750 -1.0354  1.2514  1.5242
  312MOL0     H42104   3.465   5.156   3.058  0.3124  0.6183  0.1009
  312MOL0     H42105   3.210   5.119   3.050 -0.2759  2.8544  1.3550
  312MOL0     H42106   2.848   5.070   3.387  1.3492  0.5846 -1.2778
  312MOL0     H42107   2.611   5.061   3.415  0.2843  0.9891  1.0442
  312MOL0     H42108   2.348   5.157   3.088 -1.3423  0.3203  1.1961
  312MOL0     H42109   2.334   5.334   3.147  1.4414  0.8761  0.4436
  312MOL0     H42110   2.176   5.266   3.291  0.4326  2.2650 -2.1370
  312MOL0     H42111   2.225   5.090   3.300  0.5359 -0.9026 -0.6059
  312MOL0     H42112   2.117   5.070   3.069  0.1906 -2.9412  3.2387
  312MOL0     H42113   2.062   5.241   3.081 -1.9149  0.4044 -0.1960
  312MOL0     H42114   1.979   5.001   3.255 -1.9212 -0.8547 -0.9199
  312MOL0     H42115   1.947   5.173   3.289  2.6116  0.8466 -1.0753
  312MOL0     H42116   1.689   5.058   2.960  1.3600  4.3147 -3.1575
  312MOL0     H42117   2.575   5.332   3.082  2.1992 -0.1939 -0.8740
  312MOL0     H42118   2.908   5.325   2.970  0.6455  3.1225  1.1324
  312MOL0     H42119   2.743   5.340   2.923 -1.0322  0.5000  0.8378
  312MOL0     H42120   2.814   5.466   3.027 -2.2397  0.9766  1.2471
  313MOL0     O42121   0.491   6.373  10.261 -0.1229 -0.1323 -0.5500
  313MOL0     C42122   0.420   6.300  10.339 -0.3180  0.2128  0.6809
  313MOL0     O42123   0.467   6.207  10.426 -1.0345  0.1839 -0.1811
  313MOL0     C42124   0.601   6.194  10.447  0.0922 -0.1413 -0.2661
  313MOL0     C42125   0.697   6.181  10.344  0.4329 -1.1425 -0.4910
  313MOL0     C42126   0.836   6.173  10.372  0.5299  0.4804 -0.2227
  313MOL0     C42127   0.877   6.167  10.503  0.4708  0.8870  1.1314
  313MOL0     O42128   1.019   6.180  10.511  0.6913 -0.8279  0.0225
  313MOL0     C42129   1.077   6.228  10.634 -0.2584  0.1265  0.0512
  313MOL0     C42130   1.232   6.224  10.624 -0.2724 -0.7746 -0.0802
  313MOL0     C42131   1.293   6.360  10.574 -0.2780  0.2667  0.3452
  313MOL0     C42132   1.438   6.340  10.536 -0.6849  0.1294 -0.4043
  313MOL0     C42133   1.527   6.352  10.659  0.3751  0.0929 -0.1188
  313MOL0     C42134   1.682   6.348  10.624  0.1377 -0.0209 -0.3747
  313MOL0     C42135   1.775   6.379  10.743  0.1602 -0.0622  0.5311
  313MOL0     C42136   1.907   6.429  10.684 -0.4560 -0.5089  0.8761
  313MOL0     N42137   2.009   6.462  10.778 -0.6571 -0.0750 -0.9791
  313MOL0     C42138   2.003   6.570  10.861 -2.0577 -0.2163 -1.0809
  313MOL0     C42139   2.119   6.563  10.933  0.4049 -0.0907 -0.5201
  313MOL0     C42140   2.171   6.657  11.039 -0.0121 -0.3139 -0.0865
  313MOL0     C42141   2.326   6.653  11.035 -0.3269 -0.9087  0.9765
  313MOL0     C42142   2.383   6.766  11.123 -0.6470  0.3309 -0.0526
  313MOL0     C42143   2.538   6.776  11.119 -0.1858 -0.1240  0.0529
  313MOL0     O42144   2.576   6.866  11.229  0.3104 -0.1284  0.5812
  313MOL0     C42145   2.707   6.911  11.257  0.3028 -0.1877  0.0070
  313MOL0     C42146   2.723   7.003  11.356 -0.0102 -0.5239 -0.7128
  313MOL0     C42147   2.848   7.050  11.388  0.0027  0.2907 -0.5318
  313MOL0     C42148   2.962   6.999  11.319 -0.5949 -0.5408 -0.3989
  313MOL0     C42149   3.099   7.035  11.354 -0.1716 -0.5746 -0.2757
  313MOL0     O42150   3.197   6.991  11.263  0.4930  0.1584  0.0886
  313MOL0     C42151   3.321   7.052  11.253 -0.0531  0.0264  0.0621
  313MOL0     C42152   3.333   7.167  11.172 -0.2261  0.4308 -0.1833
  313MOL0     C42153   3.459   7.233  11.151 -0.5880 -0.3284 -0.2629
  313MOL0     C42154   3.574   7.182  11.219 -0.5748  0.2665  0.5414
  313MOL0     O42155   3.696   7.247  11.209 -0.4749  0.1307 -0.7437
  313MOL0     C42156   3.697   7.387  11.169  0.3416 -0.0639 -0.0135
  313MOL0     C42157   3.833   7.449  11.213  0.0368  0.0111  0.5000
  313MOL0     C42158   3.851   7.460  11.363  0.2784  0.4105 -0.1887
  313MOL0     C42159   3.974   7.537  11.375 -0.4014  0.4184 -0.0195
  313MOL0     C42160   4.004   7.585  11.519 -0.5035 -0.1171 -0.3701
  313MOL0     C42161   4.149   7.626  11.528  0.7648 -0.5872  0.1091
  313MOL0     C42162   4.185   7.673  11.669  0.1546  0.2747 -0.0953
  313MOL0     C42163   4.330   7.715  11.658  0.5210 -0.9489 -0.0278
  313MOL0    Cl42164   4.357   7.837  11.541  0.3157 -0.1357 -0.1783
  313MOL0     C42165   3.559   7.065  11.296 -0.3873 -0.2654 -0.1974
  313MOL0     C42166   3.431   7.004  11.317 -0.1061  0.1104  0.4978
  313MOL0     O42167   3.126   7.102  11.456  0.2037  0.0589 -0.0595
  313MOL0     C42168   2.946   6.900  11.222 -0.3308  0.0507  0.1585
  313MOL0     C42169   2.816   6.860  11.188  0.0984  0.3041  0.1323
  313MOL0     N42170   2.189   6.455  10.893  0.5307  0.1512 -0.3862
  313MOL0     N42171   2.124   6.394  10.804  0.1010  0.3731  0.0906
  313MOL0     C42172   0.779   6.145  10.605 -0.4141 -0.3490  0.4782
  313MOL0     C42173   0.644   6.158  10.573 -0.1936 -0.9375 -0.3281
  313MOL0     C42174   0.274   6.294  10.304  0.9153 -0.2471 -0.2855
  313MOL0     C42175   0.194   6.182  10.357  0.2927 -0.2108  0.1700
  313MOL0     C42176   0.051   6.186  10.355  0.2787  0.3157 -0.2993
  313MOL0     C42177  -0.012   6.281  10.275  0.6037  0.4437  0.7601
  313MOL0     O42178  -0.152   6.291  10.246  0.0869  0.2940  0.2782
  313MOL0     C42179  -0.227   6.169  10.225  0.2980 -0.3657 -0.0689
  313MOL0     C42180  -0.353   6.209  10.140 -0.4419 -0.2542 -0.3609
  313MOL0     C42181  -0.471   6.119  10.174 -0.2727  0.3407 -0.7996
  313MOL0     C42182  -0.606   6.149  10.107 -0.1651 -0.2730  0.6718
  313MOL0     C42183  -0.713   6.077  10.162 -0.6782 -0.0819  0.2120
  313MOL0     C42184  -0.807   6.008  10.202 -0.3984  0.0312 -0.1360
  313MOL0     C42185   0.067   6.385  10.226 -0.0437  0.1570 -0.0069
  313MOL0     C42186   0.201   6.404  10.249  0.5574 -0.2426 -0.0831
  313MOL0     C42187   0.272   6.523  10.204 -0.9744  0.6946  0.4784
  313MOL0     H42188   0.660   6.187  10.242 -1.8395 -4.1736 -0.0043
  313MOL0     H42189   0.907   6.176  10.290  0.0141  2.3835 -0.6470
  313MOL0     H42190   1.032   6.324  10.663 -3.8122 -1.6530  1.0113
  313MOL0     H42191   1.042   6.160  10.712  0.1870  2.4024  2.3598
  313MOL0     H42192   1.255   6.148  10.549 -0.4062  1.1575 -2.1848
  313MOL0     H42193   1.276   6.197  10.720  0.6089  0.1211 -0.2274
  313MOL0     H42194   1.286   6.426  10.660 -0.5851  0.0247  0.5095
  313MOL0     H42195   1.220   6.393  10.500 -0.8438  1.2865  1.3298
  313MOL0     H42196   1.448   6.243  10.486 -1.0464 -1.7362  2.8803
  313MOL0     H42197   1.467   6.417  10.463  0.7779  0.5200  0.5608
  313MOL0     H42198   1.499   6.444  10.711 -0.9102 -1.7398  2.6451
  313MOL0     H42199   1.513   6.266  10.726  0.9965 -0.1382 -0.2770
  313MOL0     H42200   1.705   6.255  10.571 -0.5078  0.6914 -1.9497
  313MOL0     H42201   1.701   6.425  10.549  1.5776 -0.3628 -0.3819
  313MOL0     H42202   1.789   6.292  10.807  1.0911 -0.7868 -0.6371
  313MOL0     H42203   1.733   6.466  10.796 -3.4120 -0.1388 -1.7912
  313MOL0     H42204   1.944   6.352  10.615  0.0488 -0.0766  0.6580
  313MOL0     H42205   1.906   6.526  10.634 -3.9588 -0.9179 -0.0985
  313MOL0     H42206   1.934   6.654  10.869  1.8245  3.1151  1.1155
  313MOL0     H42207   2.141   6.760  11.022  3.0123  0.4517 -1.5072
  313MOL0     H42208   2.139   6.632  11.141 -0.5714  1.2016  0.1266
  313MOL0     H42209   2.370   6.558  11.064 -2.2717 -1.7326  1.3597
  313MOL0     H42210   2.352   6.682  10.932  1.5147 -1.5907  1.2130
  313MOL0     H42211   2.347   6.754  11.225 -2.8457  1.2838 -0.6527
  313MOL0     H42212   2.342   6.861  11.087 -0.8683  1.0666  2.0368
  313MOL0     H42213   2.564   6.818  11.021 -1.9247  1.2034  0.1176
  313MOL0     H42214   2.592   6.682  11.131 -0.1305 -0.0448  0.4621
  313MOL0     H42215   2.643   7.056  11.406  1.6490  0.9005  0.5489
  313MOL0     H42216   2.861   7.119  11.471  0.2521  0.2775 -0.5597
  313MOL0     H42217   3.246   7.213  11.127  1.0397  1.1556 -1.9986
  313MOL0     H42218   3.461   7.321  11.088 -3.2030  0.2187  0.3047
  313MOL0     H42219   3.685   7.377  11.061  1.1313  0.0040 -0.1174
  313MOL0     H42220   3.625   7.461  11.204  1.0808  2.1637 -2.7910
  313MOL0     H42221   3.910   7.385  11.168 -0.4596  0.3526 -0.8831
  313MOL0     H42222   3.839   7.552  11.178 -1.4858  1.3676  3.8549
  313MOL0     H42223   3.759   7.507  11.400 -0.2832 -0.0251 -0.9819
  313MOL0     H42224   3.868   7.367  11.418 -0.7048 -0.3965 -1.2031
  313MOL0     H42225   3.970   7.627  11.313 -0.9927  3.3098  3.7959
  313MOL0     H42226   4.052   7.473  11.334  0.5012  1.3696  0.1750
  313MOL0     H42227   3.987   7.505  11.591  0.1000 -0.7807 -0.9556
  313MOL0     H42228   3.952   7.675  11.555  0.6862  0.9298 -1.1768
  313MOL0     H42229   4.207   7.536  11.508  0.3219 -1.1469  1.2937
  313MOL0     H42230   4.167   7.694  11.444  1.2116 -1.4620 -0.5222
  313MOL0     H42231   4.172   7.589  11.738 -1.3833 -0.7568 -1.5589
  313MOL0     H42232   4.114   7.752  11.694 -2.0815 -1.0231 -1.9910
  313MOL0     H42233   4.379   7.738  11.754 -3.0390  0.7435  1.5709
  313MOL0     H42234   4.384   7.624  11.630  2.6247  0.6166 -1.3546
  313MOL0     H42235   3.644   7.027  11.352 -2.0044 -3.7721  0.1126
  313MOL0     H42236   3.429   6.923  11.388  1.5197 -0.2911  0.1195
  313MOL0     H42237   3.037   6.862  11.176  1.4112  1.2725  2.4102
  313MOL0     H42238   2.816   6.784  11.110  0.5377  0.1701  0.2641
  313MOL0     H42239   0.803   6.116  10.706  2.1175  0.9936  0.3238
  313MOL0     H42240   0.570   6.151  10.652 -2.0620  3.9925 -1.2358
  313MOL0     H42241   0.236   6.102  10.416 -2.4792 -1.6133  0.4031
  313MOL0     H42242  -0.009   6.107  10.398  0.8450  0.1360  0.1630
  313MOL0     H42243  -0.243   6.118  10.320 -0.7677  0.4868  0.2342
  313MOL0     H42244  -0.173   6.102  10.157 -2.7878 -0.9445 -2.1895
  313MOL0     H42245  -0.341   6.207  10.031 -0.5245 -0.4177 -0.3676
  313MOL0     H42246  -0.378   6.313  10.160 -0.1525 -0.2917  0.2113
  313MOL0     H42247  -0.488   6.134  10.282 -2.6180  1.1473 -1.2169
  313MOL0     H42248  -0.440   6.015  10.169  0.7284  0.3420  2.5126
  313MOL0     H42249  -0.617   6.258  10.116  0.8590 -0.0712 -0.3168
  313MOL0     H42250  -0.597   6.120  10.002  1.0165 -1.0471  0.9737
  313MOL0     H42251  -0.875   5.929  10.227 -1.1196  0.7651  0.2818
  313MOL0     H42252   0.007   6.463  10.180 -0.1561  0.0770  0.0060
  313MOL0     H42253   0.203   6.602  10.171  0.2806  0.3513 -3.4966
  313MOL0     H42254   0.337   6.565  10.281 -0.4871 -0.6162  0.8150
  313MOL0     H42255   0.319   6.503  10.108 -1.7350  1.2061 -0.0109
  314MOL0     O42256   7.597   8.990   8.408  0.0546  0.0266  0.0694
  314MOL0     C42257   7.526   8.980   8.506 -0.5488  0.4931 -0.1313
  314MOL0     O42258   7.536   9.063   8.616  0.0812 -0.1766  0.2451
  314MOL0     C42259   7.612   9.180   8.616  0.4217  0.7859 -0.0940
  314MOL0     C42260   7.598   9.280   8.522  0.8119  0.3360  0.2821
  314MOL0     C42261   7.676   9.392   8.523 -0.4491 -0.4464 -0.1104
  314MOL0     C42262   7.768   9.404   8.629  0.1528  0.2523 -0.1771
  314MOL0     O42263   7.844   9.513   8.665  0.4110  0.6250  0.1357
  314MOL0     C42264   7.817   9.638   8.605  0.1348  0.2560  0.9180
  314MOL0     C42265   7.921   9.753   8.634  0.1618  0.1581  1.1322
  314MOL0     C42266   8.062   9.699   8.598 -0.0800 -0.6832 -0.4581
  314MOL0     C42267   8.174   9.806   8.594 -0.0817  0.1934  0.2211
  314MOL0     C42268   8.312   9.743   8.603  0.2414 -0.6413 -1.0280
  314MOL0     C42269   8.425   9.843   8.591 -0.6784  0.1904  0.3636
  314MOL0     C42270   8.433   9.953   8.692  0.1902 -0.4280  0.7792
  314MOL0     C42271   8.543  10.054   8.650 -0.1487  0.4278 -0.5113
  314MOL0     N42272   8.567  10.144   8.762 -0.2310 -0.3551 -0.3911
  314MOL0     C42273   8.686  10.142   8.842  1.0091  0.6313 -0.1133
  314MOL0     C42274   8.664  10.237   8.934 -0.2762 -0.5505 -0.1751
  314MOL0     C42275   8.758  10.249   9.049  0.1033  1.4458  0.3015
  314MOL0     C42276   8.767  10.384   9.100 -0.4082  0.1102 -0.2831
  314MOL0     C42277   8.808  10.475   8.988  0.6130 -0.2764  0.2881
  314MOL0     C42278   8.947  10.443   8.928 -0.1559  0.4030 -0.8439
  314MOL0     O42279   9.043  10.431   9.041  0.4887 -0.3022 -0.0736
  314MOL0     C42280   9.175  10.452   9.025 -0.3784 -0.2815 -0.6936
  314MOL0     C42281   9.245  10.452   8.903  0.2855 -0.2266 -0.5031
  314MOL0     C42282   9.388  10.443   8.911  0.6237 -0.8144  0.4043
  314MOL0     C42283   9.461  10.473   9.032 -0.3292 -0.8506  0.0496
  314MOL0     C42284   9.608  10.492   9.034  0.2670 -0.1830  0.5403
  314MOL0     O42285   9.665  10.493   8.909 -0.7427  0.2903  0.7217
  314MOL0     C42286   9.800  10.528   8.906  0.1306  0.4471  0.3968
  314MOL0     C42287   9.908  10.448   8.850  0.8026  0.1981 -0.5446
  314MOL0     C42288  10.039  10.499   8.850 -0.5829  0.4237  0.7148
  314MOL0     C42289  10.072  10.623   8.906  0.6678  0.1796  0.8690
  314MOL0     O42290  10.200  10.666   8.917 -0.5047  0.1510 -0.7716
  314MOL0     C42291  10.303  10.568   8.926  0.4983 -0.2262 -0.1759
  314MOL0     C42292  10.434  10.635   8.962 -0.2082 -0.8481  0.2968
  314MOL0     C42293  10.552  10.543   8.940  0.6632 -0.1186  0.4035
  314MOL0     C42294  10.689  10.615   8.914 -0.2966 -0.4398 -0.5542
  314MOL0     C42295  10.800  10.518   8.916 -0.2149 -0.2450 -0.8405
  314MOL0     C42296  10.921  10.575   8.847 -0.0364  0.1856  0.4318
  314MOL0     C42297  11.046  10.490   8.871  0.4148 -0.5177  0.0890
  314MOL0     C42298  11.158  10.538   8.774 -0.1310 -0.2138 -0.7357
  314MOL0    Cl42299  11.213  10.710   8.808  0.3258 -0.0531  0.1333
  314MOL0     C42300   9.971  10.702   8.948  0.9849 -0.0972  0.0907
  314MOL0     C42301   9.834  10.651   8.956 -0.6215 -0.4739  0.0374
  314MOL0     O42302   9.668  10.510   9.138 -0.3715  0.4781  0.1473
  314MOL0     C42303   9.385  10.486   9.154 -0.4686 -0.3064  0.9106
  314MOL0     C42304   9.246  10.466   9.147 -0.7106  0.6001 -0.3141
  314MOL0     N42305   8.541  10.298   8.911  0.3586  0.5083 -0.3099
  314MOL0     N42306   8.485  10.238   8.805  0.1572 -0.2156  0.4664
  314MOL0     C42307   7.786   9.301   8.721 -0.0951  0.6055  1.0307
  314MOL0     C42308   7.706   9.185   8.717  0.3845  0.3325  0.9126
  314MOL0     C42309   7.426   8.873   8.516 -0.1717  0.4205 -0.4601
  314MOL0     C42310   7.350   8.862   8.633 -0.1424 -0.2743 -0.2831
  314MOL0     C42311   7.267   8.758   8.658  0.3559 -1.2087 -0.4356
  314MOL0     C42312   7.249   8.659   8.565 -1.4292  0.2179 -0.4247
  314MOL0     O42313   7.187   8.542   8.579  0.6090 -0.5664 -0.2491
  314MOL0     C42314   7.163   8.485   8.709 -0.8413 -0.1604 -0.1286
  314MOL0     C42315   7.302   8.430   8.753 -0.2437 -0.4333  0.4951
  314MOL0     C42316   7.295   8.378   8.895  0.6105 -0.6432  0.3412
  314MOL0     C42317   7.431   8.311   8.920  0.7950 -0.1447 -0.0039
  314MOL0     C42318   7.440   8.280   9.070 -0.3055 -0.3434  0.0949
  314MOL0     C42319   7.477   8.259   9.183  0.7449  0.1791 -0.2864
  314MOL0     C42320   7.333   8.656   8.452 -0.0008 -0.2900 -0.2834
  314MOL0     C42321   7.424   8.765   8.424 -0.2231 -0.1741 -0.1853
  314MOL0     C42322   7.518   8.751   8.304  0.3572  1.1169  0.4139
  314MOL0     H42323   7.523   9.268   8.444 -0.7876  2.5560  1.3576
  314MOL0     H42324   7.665   9.477   8.456 -0.0564  1.5643  2.2388
  314MOL0     H42325   7.823   9.618   8.497 -1.6565  1.6311  0.4976
  314MOL0     H42326   7.716   9.677   8.623  0.2752  1.7779 -1.1755
  314MOL0     H42327   7.922   9.779   8.741  1.1416  0.3356  1.0847
  314MOL0     H42328   7.891   9.842   8.578 -2.9304 -1.8795 -0.7193
  314MOL0     H42329   8.053   9.635   8.510 -0.8096 -1.5661  0.2392
  314MOL0     H42330   8.091   9.635   8.682 -1.7189  0.5698  1.1601
  314MOL0     H42331   8.164   9.865   8.503  0.7690  0.0639  0.0275
  314MOL0     H42332   8.173   9.872   8.681  1.8618  1.0257 -0.3291
  314MOL0     H42333   8.325   9.685   8.694  0.6439  0.2400 -0.5009
  314MOL0     H42334   8.320   9.676   8.517 -0.6952 -1.9931 -0.1066
  314MOL0     H42335   8.515   9.781   8.592  0.7226  2.1379  0.1396
  314MOL0     H42336   8.422   9.892   8.494 -1.9808 -2.0402 -0.8114
  314MOL0     H42337   8.457   9.916   8.792 -0.1318  0.0020  1.0240
  314MOL0     H42338   8.341  10.010   8.709 -0.1037 -1.0905  1.4726
  314MOL0     H42339   8.626   9.988   8.622 -0.0661  0.2373  0.1665
  314MOL0     H42340   8.524  10.115   8.561  2.3880 -1.3238 -2.4161
  314MOL0     H42341   8.758  10.062   8.834 -1.9741 -2.2367 -0.5459
  314MOL0     H42342   8.713  10.182   9.123  2.9744  0.5183  1.3760
  314MOL0     H42343   8.858  10.209   9.029 -0.2198  0.2224  1.0236
  314MOL0     H42344   8.672  10.411   9.147 -0.1176 -0.3242  0.5727
  314MOL0     H42345   8.843  10.393   9.178  1.7927  0.3165 -2.3334
  314MOL0     H42346   8.819  10.575   9.029 -2.7032 -1.0489  3.6903
  314MOL0     H42347   8.726  10.477   8.916  0.6947  0.1757  0.2060
  314MOL0     H42348   8.973  10.520   8.855  0.5788 -0.8014 -1.9030
  314MOL0     H42349   8.939  10.344   8.882  0.0085 -2.2713  4.1887
  314MOL0     H42350   9.197  10.451   8.806 -0.5841 -1.7639 -0.1036
  314MOL0     H42351   9.441  10.437   8.817 -0.2110  2.6173 -0.4303
  314MOL0     H42352   9.889  10.351   8.804  0.6901  0.7640 -1.7010
  314MOL0     H42353  10.123  10.444   8.808 -0.8164 -0.1786  1.0334
  314MOL0     H42354  10.281  10.494   9.004  0.5905 -2.6460 -2.3125
  314MOL0     H42355  10.310  10.515   8.831  1.4109  0.8442 -0.7294
  314MOL0     H42356  10.451  10.735   8.922  0.0653 -1.5952 -1.5568
  314MOL0     H42357  10.431  10.651   9.070 -0.3914 -0.7649  0.2790
  314MOL0     H42358  10.553  10.482   9.031  1.8270 -0.9174 -0.1187
  314MOL0     H42359  10.540  10.472   8.858  0.1868 -0.0004  0.3704
  314MOL0     H42360  10.697  10.687   8.996  0.8982 -1.4430  0.2534
  314MOL0     H42361  10.679  10.665   8.818 -0.8213 -3.1301 -2.0073
  314MOL0     H42362  10.771  10.425   8.866  1.6366 -1.6774  0.5653
  314MOL0     H42363  10.834  10.493   9.018  2.8483  1.4331 -1.3290
  314MOL0     H42364  10.904  10.592   8.741  0.7722  2.7567  0.6224
  314MOL0     H42365  10.946  10.676   8.884 -1.4959  0.9979 -0.7183
  314MOL0     H42366  11.023  10.383   8.863 -1.1199 -0.1519 -1.1629
  314MOL0     H42367  11.067  10.511   8.976 -0.5672  0.0455  0.1857
  314MOL0     H42368  11.243  10.473   8.796  0.5529  0.6581 -0.7083
  314MOL0     H42369  11.127  10.523   8.670  0.6720  2.4030 -1.4385
  314MOL0     H42370   9.992  10.796   8.999  1.4985 -1.7480  3.1660
  314MOL0     H42371   9.755  10.709   9.002  0.4113 -2.5675  5.0795
  314MOL0     H42372   9.439  10.497   9.247  2.0641  0.8605 -0.5785
  314MOL0     H42373   9.181  10.459   9.234 -0.9394  1.1438 -0.4347
  314MOL0     H42374   7.859   9.310   8.801  0.6224 -1.5305  0.6814
  314MOL0     H42375   7.718   9.109   8.794 -1.4832 -0.5506  0.3754
  314MOL0     H42376   7.345   8.941   8.707  0.6658  1.7399 -2.2508
  314MOL0     H42377   7.231   8.757   8.761 -1.4977  2.9568 -0.8214
  314MOL0     H42378   7.094   8.400   8.711  0.1069 -0.9491  0.4523
  314MOL0     H42379   7.133   8.551   8.791 -0.4286 -1.0792  0.7964
  314MOL0     H42380   7.372   8.514   8.761 -0.9105  0.0780  1.1217
  314MOL0     H42381   7.330   8.360   8.674  0.2477  2.0354 -1.6730
  314MOL0     H42382   7.214   8.305   8.912 -0.4441  0.6091  0.9007
  314MOL0     H42383   7.275   8.448   8.977 -0.2806 -0.9610  0.4117
  314MOL0     H42384   7.430   8.217   8.864  0.1343  1.3476 -2.6311
  314MOL0     H42385   7.509   8.384   8.894  0.7606  0.4869  1.5405
  314MOL0     H42386   7.503   8.241   9.285 -0.6678 -2.2237 -0.2663
  314MOL0     H42387   7.344   8.567   8.391  3.1496 -1.1105  1.2297
  314MOL0     H42388   7.622   8.746   8.338  0.6858  1.5286 -0.4997
  314MOL0     H42389   7.502   8.672   8.230  1.4397  1.0721  0.2193
  314MOL0     H42390   7.522   8.837   8.237  2.2403  0.6823 -0.0729
  315MOL0     O42391   5.390   5.819   7.299  0.2736 -0.0048  0.7439
  315MOL0     C42392   5.342   5.900   7.230 -0.2857  0.2206 -0.0525
  315MOL0     O42393   5.388   6.028   7.217  0.1622  0.6578 -0.0212
  315MOL0     C42394   5.510   6.061   7.267  0.2359  0.0722  0.0548
  315MOL0     C42395   5.622   5.985   7.232  0.6358 -1.0992  0.4342
  315MOL0     C42396   5.744   6.020   7.286  0.2255 -0.6270 -0.7440
  315MOL0     C42397   5.752   6.122   7.386 -0.0821 -0.0960 -0.4601
  315MOL0     O42398   5.873   6.145   7.451  0.5639 -0.2849  1.1172
  315MOL0     C42399   5.931   6.271   7.453 -0.3768 -0.2204 -1.0494
  315MOL0     C42400   6.081   6.235   7.464 -0.7288  0.5450 -0.7534
  315MOL0     C42401   6.133   6.245   7.606  0.3523  0.4852  0.3525
  315MOL0     C42402   6.292   6.248   7.610 -0.2669  0.1146 -0.1340
  315MOL0     C42403   6.364   6.124   7.559 -0.6161  0.2580  0.4614
  315MOL0     C42404   6.512   6.142   7.589  0.4448 -0.0854 -0.2535
  315MOL0     C42405   6.542   6.085   7.732 -0.2438  0.3689 -0.0631
  315MOL0     C42406   6.521   5.937   7.761  0.2864  0.2898 -0.4330
  315MOL0     N42407   6.575   5.851   7.651 -0.0414 -0.2462  0.3221
  315MOL0     C42408   6.710   5.862   7.604  0.5505  0.3238 -0.6297
  315MOL0     C42409   6.704   5.794   7.488  0.0209  0.3175 -0.1855
  315MOL0     C42410   6.812   5.795   7.388 -0.5938  0.6766 -0.6608
  315MOL0     C42411   6.955   5.747   7.443  0.7544  0.9440  0.2586
  315MOL0     C42412   7.048   5.728   7.323  0.4564  0.7771 -0.3706
  315MOL0     C42413   7.179   5.655   7.369  0.5086 -0.7902  0.5235
  315MOL0     O42414   7.294   5.744   7.359  0.0606 -0.7838  0.5544
  315MOL0     C42415   7.424   5.701   7.389 -0.5254 -0.0885 -0.1901
  315MOL0     C42416   7.464   5.565   7.406 -0.0774 -0.1023  0.7700
  315MOL0     C42417   7.599   5.530   7.419  0.2465 -1.1753 -0.2526
  315MOL0     C42418   7.700   5.628   7.405 -0.5919  0.0614 -0.3549
  315MOL0     C42419   7.851   5.590   7.418 -0.2432 -0.3771 -0.4965
  315MOL0     O42420   7.888   5.459   7.452 -0.2534 -0.7154 -0.2498
  315MOL0     C42421   8.025   5.434   7.457 -0.8295  0.0708 -0.1604
  315MOL0     C42422   8.064   5.317   7.394 -0.3930 -0.0926 -0.2627
  315MOL0     C42423   8.198   5.274   7.404  0.1696 -0.8221 -0.5142
  315MOL0     C42424   8.303   5.355   7.457 -0.4638  0.0442  0.8614
  315MOL0     O42425   8.439   5.332   7.444 -0.5005  0.1217 -0.2250
  315MOL0     C42426   8.479   5.224   7.355 -0.8759  0.0943 -0.0138
  315MOL0     C42427   8.631   5.253   7.323 -0.2415  0.0903  0.1684
  315MOL0     C42428   8.638   5.382   7.240 -0.1067 -0.4579 -0.1505
  315MOL0     C42429   8.783   5.378   7.192  0.4435  0.2031 -0.5928
  315MOL0     C42430   8.815   5.511   7.116 -0.8316  0.0978  0.6109
  315MOL0     C42431   8.963   5.532   7.080 -0.0103  0.3585 -0.1531
  315MOL0     C42432   9.023   5.429   6.976  0.2194 -0.0207 -0.6640
  315MOL0     C42433   9.173   5.425   6.986  0.3234  0.4147  0.4561
  315MOL0    Cl42434   9.228   5.293   6.873 -0.3405 -0.3782  0.0159
  315MOL0     C42435   8.257   5.466   7.524 -0.4376  0.3414 -0.2274
  315MOL0     C42436   8.126   5.509   7.525  0.3371 -0.0045 -0.1486
  315MOL0     O42437   7.927   5.689   7.400 -0.0424  0.1683  0.1516
  315MOL0     C42438   7.658   5.766   7.390 -0.2743  0.7638 -0.2903
  315MOL0     C42439   7.525   5.802   7.369  0.4920  1.1457 -0.2756
  315MOL0     N42440   6.574   5.766   7.459  0.0904 -0.0208 -0.6840
  315MOL0     N42441   6.493   5.807   7.557 -0.4678  0.8079  0.3680
  315MOL0     C42442   5.643   6.192   7.433 -0.1863 -0.1865  0.0291
  315MOL0     C42443   5.521   6.159   7.369 -0.5216  0.7272 -0.7117
  315MOL0     C42444   5.221   5.863   7.152  0.6424  0.5558  0.5474
  315MOL0     C42445   5.193   5.937   7.029 -0.1499  0.1230 -0.7846
  315MOL0     C42446   5.072   5.917   6.962  0.5246  0.7239  0.3429
  315MOL0     C42447   4.967   5.829   7.019  0.6004 -0.6199  0.4026
  315MOL0     O42448   4.844   5.802   6.973 -0.9538  0.4512 -0.4657
  315MOL0     C42449   4.793   5.901   6.890 -0.0790  0.3715  1.6015
  315MOL0     C42450   4.670   5.852   6.826  0.2620  0.3158  0.0010
  315MOL0     C42451   4.604   5.969   6.746 -0.1928 -0.2538  0.2569
  315MOL0     C42452   4.479   5.928   6.662 -0.3516  0.3597 -0.8489
  315MOL0     C42453   4.367   5.906   6.761 -0.9042  0.0438  0.9598
  315MOL0     C42454   4.276   5.865   6.833  0.0881  0.0794  0.1397
  315MOL0     C42455   5.000   5.758   7.138  0.2515  0.3479 -0.0277
  315MOL0     C42456   5.118   5.774   7.203  1.0342 -0.8867  0.0470
  315MOL0     C42457   5.128   5.699   7.335  0.4770 -0.3305  0.0337
  315MOL0     H42458   5.620   5.910   7.153  1.8766 -2.4719  1.6270
  315MOL0     H42459   5.826   5.960   7.250  1.2722  0.1774  0.2246
  315MOL0     H42460   5.920   6.315   7.354  0.7217 -2.5675 -2.3140
  315MOL0     H42461   5.886   6.329   7.534 -0.1589  1.9058 -2.3721
  315MOL0     H42462   6.125   6.313   7.401  0.5533  0.8142  0.4455
  315MOL0     H42463   6.107   6.142   7.412 -1.2757  0.6953 -1.3083
  315MOL0     H42464   6.090   6.162   7.663  1.7649 -0.5076  0.0230
  315MOL0     H42465   6.094   6.341   7.640  0.6287  1.5232 -2.0559
  315MOL0     H42466   6.327   6.334   7.553 -2.4763 -0.2596 -2.2412
  315MOL0     H42467   6.321   6.268   7.714 -0.9652  0.3162  0.0279
  315MOL0     H42468   6.314   6.032   7.590  1.0323 -1.9920 -3.0067
  315MOL0     H42469   6.358   6.112   7.450 -3.5605  2.2965  0.2659
  315MOL0     H42470   6.565   6.087   7.511  0.0615 -0.1951 -0.4368
  315MOL0     H42471   6.547   6.246   7.582  0.5019 -0.0655  0.2527
  315MOL0     H42472   6.482   6.147   7.800 -2.3707  1.4351 -2.6840
  315MOL0     H42473   6.648   6.107   7.748 -0.8066  1.7835  2.0723
  315MOL0     H42474   6.576   5.914   7.853  1.7455  2.2295 -0.7519
  315MOL0     H42475   6.414   5.924   7.778  0.4882 -0.6692  0.2106
  315MOL0     H42476   6.797   5.908   7.648  2.7519 -3.8992 -0.0468
  315MOL0     H42477   6.783   5.722   7.311 -0.5490  2.5789 -2.5933
  315MOL0     H42478   6.823   5.898   7.353  1.7670  0.5119 -0.5399
  315MOL0     H42479   7.000   5.819   7.512 -1.7583  2.4805  0.4057
  315MOL0     H42480   6.928   5.662   7.506 -0.0495  0.7260 -0.3528
  315MOL0     H42481   7.066   5.825   7.277  4.3955  0.6751  0.6567
  315MOL0     H42482   6.986   5.665   7.258 -0.3856  0.3941  0.7515
  315MOL0     H42483   7.195   5.563   7.312 -1.1928 -0.5621 -0.4303
  315MOL0     H42484   7.169   5.633   7.475  1.3500 -0.5156  0.6598
  315MOL0     H42485   7.386   5.491   7.414 -2.3879  1.9210 -1.3770
  315MOL0     H42486   7.615   5.424   7.432  1.5829 -0.7732  1.8735
  315MOL0     H42487   7.991   5.256   7.342 -1.5109 -0.1039  1.2737
  315MOL0     H42488   8.220   5.178   7.360 -0.4892 -0.7589 -1.0015
  315MOL0     H42489   8.475   5.126   7.403  0.0027  0.1421  0.1862
  315MOL0     H42490   8.422   5.225   7.261  0.9381 -1.7810 -1.2580
  315MOL0     H42491   8.687   5.239   7.415 -1.8025 -2.2074  0.8549
  315MOL0     H42492   8.676   5.168   7.270  1.9656  0.4647  1.3591
  315MOL0     H42493   8.567   5.381   7.157 -1.4010 -0.3610  0.9442
  315MOL0     H42494   8.636   5.478   7.291  1.7416  0.9233 -2.4479
  315MOL0     H42495   8.815   5.295   7.128  1.3247 -1.1009  1.4141
  315MOL0     H42496   8.849   5.360   7.278  0.4800 -1.3299 -0.9062
  315MOL0     H42497   8.780   5.597   7.175 -1.8693  0.9728 -1.2027
  315MOL0     H42498   8.757   5.510   7.024  0.4910 -3.5369 -0.3645
  315MOL0     H42499   8.984   5.634   7.047  0.7693  0.0666 -0.5743
  315MOL0     H42500   9.008   5.510   7.177 -3.7456  1.4227  2.0674
  315MOL0     H42501   8.996   5.465   6.876 -4.3008 -2.7062 -0.6939
  315MOL0     H42502   8.988   5.325   6.981 -1.4890  0.4633 -1.5761
  315MOL0     H42503   9.216   5.523   6.962 -1.0095  0.5546 -1.6084
  315MOL0     H42504   9.212   5.401   7.085 -2.6236 -0.8652  1.4393
  315MOL0     H42505   8.333   5.530   7.569 -0.1045 -0.6373  0.6514
  315MOL0     H42506   8.101   5.600   7.579  2.2245  0.9198 -0.7458
  315MOL0     H42507   7.722   5.851   7.368 -1.5784  2.3356  1.7010
  315MOL0     H42508   7.493   5.903   7.346 -0.9606  0.6446 -0.5871
  315MOL0     H42509   5.648   6.269   7.509 -1.9356 -1.6098  1.6915
  315MOL0     H42510   5.429   6.203   7.405 -1.2234 -0.5284 -0.9062
  315MOL0     H42511   5.259   6.020   7.002  2.9073 -1.9451 -0.1637
  315MOL0     H42512   5.054   5.971   6.870 -0.8753 -0.5688 -0.1747
  315MOL0     H42513   4.865   5.916   6.809  0.8190  1.5061  2.5783
  315MOL0     H42514   4.781   5.994   6.945 -1.3852  1.8963 -1.0578
  315MOL0     H42515   4.594   5.821   6.898 -1.0992  2.4700 -0.4003
  315MOL0     H42516   4.694   5.767   6.761  0.9261 -1.1028  1.9936
  315MOL0     H42517   4.670   6.011   6.669 -2.3384 -0.4573 -1.8058
  315MOL0     H42518   4.582   6.045   6.821  1.4186  0.1178  0.3970
  315MOL0     H42519   4.451   6.011   6.596  4.8744  1.4449 -2.1188
  315MOL0     H42520   4.502   5.840   6.601 -1.5617  0.3397 -1.3189
  315MOL0     H42521   4.187   5.826   6.879  0.3665 -1.2884 -0.4317
  315MOL0     H42522   4.926   5.687   7.175 -0.7776  0.5549 -1.5739
  315MOL0     H42523   5.166   5.760   7.418  2.5490  2.4849 -2.7718
  315MOL0     H42524   5.033   5.661   7.375  0.1828  0.4714  0.1193
  315MOL0     H42525   5.201   5.619   7.320  2.2322  1.6670 -3.1537
  316MOL0     O42526  10.735   4.592   7.629  0.5084  0.0297 -0.7272
  316MOL0     C42527  10.642   4.643   7.693  0.7515 -0.0288  0.0730
  316MOL0     O42528  10.654   4.694   7.817 -0.0034 -0.3434 -0.2089
  316MOL0     C42529  10.780   4.690   7.864 -0.0375 -0.6447 -0.4134
  316MOL0     C42530  10.840   4.584   7.925 -0.3888 -0.1638 -0.2495
  316MOL0     C42531  10.961   4.597   7.991  0.4219  0.2417  0.0038
  316MOL0     C42532  11.021   4.721   8.002 -0.5851  0.0704  1.3407
  316MOL0     O42533  11.145   4.746   8.073  0.6152  0.0344  0.2611
  316MOL0     C42534  11.226   4.634   8.098  0.5697 -0.3684 -0.5072
  316MOL0     C42535  11.365   4.688   8.142  0.6795  0.2742 -0.1806
  316MOL0     C42536  11.464   4.578   8.182  0.1975 -0.6992  0.0761
  316MOL0     C42537  11.591   4.642   8.233 -0.1252 -0.3966 -0.7780
  316MOL0     C42538  11.711   4.549   8.278 -0.7710 -0.2268 -0.7298
  316MOL0     C42539  11.841   4.633   8.292 -0.1574  0.0904  0.3923
  316MOL0     C42540  11.953   4.551   8.347  1.3804  0.1092  0.1153
  316MOL0     C42541  11.994   4.447   8.246 -0.2517  0.5731  1.2161
  316MOL0     N42542  12.115   4.381   8.302 -0.3449 -0.4483 -0.2650
  316MOL0     C42543  12.229   4.345   8.225  0.3386  0.7750  0.8092
  316MOL0     C42544  12.315   4.287   8.313 -0.3605  0.1124 -0.2485
  316MOL0     C42545  12.454   4.236   8.271  0.3708  0.0751 -0.0343
  316MOL0     C42546  12.572   4.336   8.308  0.0984  0.6148  0.1446
  316MOL0     C42547  12.703   4.282   8.257 -0.7897 -0.5693 -1.0561
  316MOL0     C42548  12.819   4.330   8.342  0.4627  0.0062 -0.9932
  316MOL0     O42549  12.938   4.267   8.304  0.8264  0.1310  0.0726
  316MOL0     C42550  13.048   4.270   8.382 -0.4753 -0.9560 -0.5325
  316MOL0     C42551  13.062   4.337   8.500  0.0328  0.1137 -0.5355
  316MOL0     C42552  13.174   4.332   8.579 -0.1167  0.8678 -0.6970
  316MOL0     C42553  13.289   4.259   8.529  0.2676 -0.2160  0.2190
  316MOL0     C42554  13.412   4.248   8.614 -0.1065 -0.3228  0.5129
  316MOL0     O42555  13.504   4.162   8.566 -0.0434 -0.0814 -0.2138
  316MOL0     C42556  13.627   4.156   8.633  0.1409 -0.2544 -0.1851
  316MOL0     C42557  13.741   4.222   8.592 -0.1002 -0.0273  0.4184
  316MOL0     C42558  13.865   4.202   8.659 -0.5410 -0.1810 -1.2290
  316MOL0     C42559  13.871   4.103   8.761 -0.1688  0.2192  0.3408
  316MOL0     O42560  13.985   4.084   8.828 -0.2423  0.4268 -0.3178
  316MOL0     C42561  14.106   4.097   8.762  0.4667  0.4983 -0.0799
  316MOL0     C42562  14.208   4.021   8.842 -0.4776 -0.2115 -0.5813
  316MOL0     C42563  14.346   4.030   8.767 -0.1319  0.0566  0.0064
  316MOL0     C42564  14.456   3.945   8.831 -0.2051 -1.0949  0.2344
  316MOL0     C42565  14.563   3.943   8.729  0.8578  0.1302  0.8218
  316MOL0     C42566  14.685   3.880   8.804 -0.9413 -0.1698  0.2142
  316MOL0     C42567  14.788   3.822   8.707  0.3487  0.0376 -0.4251
  316MOL0     C42568  14.890   3.727   8.779 -0.4382 -0.2542  0.1218
  316MOL0    Cl42569  15.015   3.813   8.874  0.0544  0.1839  0.0267
  316MOL0     C42570  13.758   4.039   8.798 -0.5486  0.0006  0.2133
  316MOL0     C42571  13.636   4.059   8.737  0.1770  0.0998 -0.3889
  316MOL0     O42572  13.419   4.300   8.724  0.4846  0.5187  0.3565
  316MOL0     C42573  13.279   4.197   8.403  0.1807  0.4541  0.2538
  316MOL0     C42574  13.160   4.202   8.331 -0.1563  0.5078  0.0163
  316MOL0     N42575  12.250   4.283   8.434 -0.5077  0.3719 -0.4310
  316MOL0     N42576  12.136   4.333   8.428  0.3635  0.1953 -0.8095
  316MOL0     C42577  10.964   4.824   7.933 -0.3943 -0.5790  0.4704
  316MOL0     C42578  10.849   4.811   7.861 -0.0065 -0.4214  0.4409
  316MOL0     C42579  10.504   4.641   7.638  0.7814  0.5676  0.7208
  316MOL0     C42580  10.398   4.704   7.711  0.3208 -0.0876 -0.1359
  316MOL0     C42581  10.267   4.708   7.668 -0.1001 -0.0663  0.9387
  316MOL0     C42582  10.232   4.627   7.558  0.4376  0.1662  0.2049
  316MOL0     O42583  10.106   4.624   7.498 -0.1065 -0.6801  0.9480
  316MOL0     C42584  10.008   4.721   7.534  1.0639 -0.5402  0.9443
  316MOL0     C42585   9.875   4.654   7.509  0.7200  0.9489  0.3258
  316MOL0     C42586   9.841   4.605   7.373 -0.2695 -0.0958 -0.1121
  316MOL0     C42587   9.690   4.626   7.348 -0.5476 -0.6645 -0.4938
  316MOL0     C42588   9.595   4.529   7.405 -0.8269  0.0896 -0.4020
  316MOL0     C42589   9.512   4.442   7.431 -0.1811 -0.1927 -0.5635
  316MOL0     C42590  10.332   4.562   7.487 -0.2142 -0.5249  0.0417
  316MOL0     C42591  10.466   4.569   7.524 -1.0848 -0.1552  0.3851
  316MOL0     C42592  10.567   4.508   7.420  0.1590  0.1377  0.0188
  316MOL0     H42593  10.777   4.496   7.914 -0.8432  0.2594 -1.1211
  316MOL0     H42594  10.995   4.507   8.042 -2.7828 -1.7684 -1.0745
  316MOL0     H42595  11.178   4.572   8.174  2.7728 -1.5370  0.0342
  316MOL0     H42596  11.244   4.577   8.007 -0.1877 -3.4589  1.1503
  316MOL0     H42597  11.359   4.748   8.234 -1.2359  1.6730 -1.1736
  316MOL0     H42598  11.412   4.745   8.061 -1.3527  3.3910  0.6493
  316MOL0     H42599  11.489   4.507   8.103  1.3751 -1.9530  1.5300
  316MOL0     H42600  11.410   4.537   8.268  1.0734  0.5884  1.3006
  316MOL0     H42601  11.624   4.711   8.155  1.7847  3.6597  3.1412
  316MOL0     H42602  11.564   4.706   8.318  0.3855 -0.8242 -0.2809
  316MOL0     H42603  11.681   4.509   8.375 -0.2183  3.6996  1.2280
  316MOL0     H42604  11.729   4.468   8.207 -0.0146 -1.2184  0.5469
  316MOL0     H42605  11.875   4.663   8.193  1.6616  0.0756  0.9741
  316MOL0     H42606  11.826   4.723   8.352 -0.6842 -0.0090  0.4170
  316MOL0     H42607  11.928   4.504   8.443  0.1823  0.0638 -0.2013
  316MOL0     H42608  12.028   4.629   8.363 -1.0919  2.6834 -0.1300
  316MOL0     H42609  11.928   4.361   8.232  0.3267  0.4812 -1.4235
  316MOL0     H42610  12.031   4.482   8.150 -1.2365  0.1159  0.6506
  316MOL0     H42611  12.247   4.359   8.119 -0.6823 -2.6960  0.0344
  316MOL0     H42612  12.478   4.147   8.330  0.1532  0.2212  0.2759
  316MOL0     H42613  12.460   4.220   8.163  1.9343 -2.1951  0.3092
  316MOL0     H42614  12.555   4.436   8.269 -1.2732  0.8626  1.2810
  316MOL0     H42615  12.566   4.331   8.417  1.1151 -0.2676  0.1754
  316MOL0     H42616  12.714   4.323   8.156  0.1670 -2.2557 -1.6798
  316MOL0     H42617  12.718   4.174   8.244  0.4694 -0.7322  1.2914
  316MOL0     H42618  12.791   4.315   8.446  2.1822  0.4536 -0.4422
  316MOL0     H42619  12.831   4.438   8.329 -0.4043  0.1413 -0.7522
  316MOL0     H42620  12.989   4.408   8.537 -0.1536  0.0871 -0.8501
  316MOL0     H42621  13.177   4.386   8.673  2.0910 -0.6617  0.1930
  316MOL0     H42622  13.738   4.287   8.505  1.2613  2.0044  1.7885
  316MOL0     H42623  13.949   4.254   8.615  2.1849  0.2101  3.7703
  316MOL0     H42624  14.093   4.055   8.662 -0.0354  3.3627 -1.3181
  316MOL0     H42625  14.141   4.199   8.747 -2.0323  1.3252 -0.8444
  316MOL0     H42626  14.224   4.070   8.939  3.2034 -1.7624 -0.2343
  316MOL0     H42627  14.186   3.915   8.860  0.1870 -0.5312 -1.5875
  316MOL0     H42628  14.345   4.007   8.660  1.9740 -4.2336  0.6987
  316MOL0     H42629  14.371   4.135   8.783  0.0077  0.2815 -1.5244
  316MOL0     H42630  14.420   3.844   8.852 -0.4221 -1.4114 -1.5132
  316MOL0     H42631  14.481   3.992   8.927 -0.6858 -0.6927  0.1661
  316MOL0     H42632  14.590   4.045   8.701 -1.6280  0.2995 -1.3007
  316MOL0     H42633  14.526   3.887   8.643 -1.3260 -3.1604  3.5996
  316MOL0     H42634  14.733   3.963   8.857  3.6658 -0.0594 -3.5012
  316MOL0     H42635  14.657   3.808   8.882  3.7702 -1.2473  1.2408
  316MOL0     H42636  14.844   3.904   8.661  1.9063  0.1238  1.4848
  316MOL0     H42637  14.740   3.779   8.619  2.2863  0.4353 -1.7404
  316MOL0     H42638  14.846   3.648   8.841 -2.5106  1.3293  0.7569
  316MOL0     H42639  14.955   3.675   8.708  1.5678  1.5327  0.5174
  316MOL0     H42640  13.763   3.953   8.863 -1.8172 -0.5607 -0.3990
  316MOL0     H42641  13.555   3.997   8.775  0.4157  1.4613  2.6400
  316MOL0     H42642  13.363   4.159   8.347  0.9764  3.0052 -0.4118
  316MOL0     H42643  13.156   4.160   8.232 -1.0112 -1.6690  0.9234
  316MOL0     H42644  11.011   4.922   7.929 -1.2667 -0.1713 -0.0417
  316MOL0     H42645  10.812   4.891   7.798 -0.0115 -0.7790 -0.0233
  316MOL0     H42646  10.438   4.769   7.789  3.3959 -2.6358  0.6061
  316MOL0     H42647  10.193   4.769   7.718  0.4051  1.6689 -0.3258
  316MOL0     H42648  10.001   4.813   7.474  1.7674 -1.9267 -1.3826
  316MOL0     H42649  10.012   4.758   7.637  1.2035  0.7345  0.4977
  316MOL0     H42650   9.802   4.729   7.540 -2.9679 -1.3147 -2.0570
  316MOL0     H42651   9.861   4.573   7.582 -0.8379 -0.2523 -1.2257
  316MOL0     H42652   9.871   4.501   7.356  0.7702  0.4474 -1.8411
  316MOL0     H42653   9.903   4.666   7.307 -2.0956  0.0103 -1.7915
  316MOL0     H42654   9.665   4.729   7.374 -3.4655 -1.2076 -0.7871
  316MOL0     H42655   9.682   4.612   7.240  0.7904 -1.6836 -0.4838
  316MOL0     H42656   9.443   4.360   7.438 -3.5768  2.5626  1.5359
  316MOL0     H42657  10.311   4.502   7.399  1.0238 -1.8912  0.6182
  316MOL0     H42658  10.604   4.409   7.448 -0.6951 -0.3253 -0.4440
  316MOL0     H42659  10.512   4.493   7.327  1.2659  0.4579 -0.7073
  316MOL0     H42660  10.650   4.573   7.391 -0.9435  1.1010 -1.0753
  317MOL0     O42661   0.365   4.626   4.176 -0.4899 -0.0059  0.3056
  317MOL0     C42662   0.244   4.647   4.131 -0.6223  0.3473 -0.3983
  317MOL0     O42663   0.174   4.761   4.155  0.2057  0.1325 -0.3570
  317MOL0     C42664   0.233   4.856   4.233  0.5596  0.8313 -0.5997
  317MOL0     C42665   0.163   4.888   4.347 -0.3116  0.1731  0.5787
  317MOL0     C42666   0.211   4.990   4.426  0.8046 -0.0092 -0.6075
  317MOL0     C42667   0.313   5.074   4.388 -0.2931  0.7963 -0.4145
  317MOL0     O42668   0.351   5.174   4.477  0.4811  0.4540  0.0631
  317MOL0     C42669   0.457   5.259   4.444 -0.2947  0.2559  0.4223
  317MOL0     C42670   0.499   5.345   4.566  0.2261  0.9944 -0.1250
  317MOL0     C42671   0.615   5.441   4.541  0.1229 -0.3682 -0.7449
  317MOL0     C42672   0.622   5.531   4.661  0.3210  0.1291  0.4068
  317MOL0     C42673   0.727   5.646   4.643  0.1691  0.0590 -0.3752
  317MOL0     C42674   0.845   5.626   4.729  0.1381  0.2523 -0.4494
  317MOL0     C42675   0.938   5.733   4.700 -0.2664  0.1599 -0.1123
  317MOL0     C42676   1.043   5.740   4.810  0.4754 -0.5335  0.2447
  317MOL0     N42677   1.134   5.633   4.799 -0.3476  0.3467 -0.7004
  317MOL0     C42678   1.246   5.632   4.721 -0.3621 -0.1293 -0.3107
  317MOL0     C42679   1.302   5.512   4.744 -0.2679  0.2170 -0.0194
  317MOL0     C42680   1.423   5.452   4.677  0.1546 -0.3757 -0.5573
  317MOL0     C42681   1.543   5.408   4.771  0.4421  0.1784  0.1623
  317MOL0     C42682   1.619   5.529   4.838 -0.1215 -0.2338 -0.0116
  317MOL0     C42683   1.757   5.505   4.896 -0.1032 -0.1108 -0.1550
  317MOL0     O42684   1.825   5.636   4.896 -0.6174 -0.1660  0.0705
  317MOL0     C42685   1.943   5.647   4.967 -0.3902 -0.4168  0.2048
  317MOL0     C42686   2.007   5.776   4.967  0.6453  0.3448  0.2602
  317MOL0     C42687   2.119   5.790   5.050 -0.0720 -0.7630  0.2130
  317MOL0     C42688   2.173   5.686   5.121  0.0340  0.0997  0.8537
  317MOL0     C42689   2.307   5.703   5.182 -0.3601 -0.0120  0.2383
  317MOL0     O42690   2.343   5.609   5.273  0.3019 -0.1656  0.1050
  317MOL0     C42691   2.469   5.610   5.303 -1.3043 -0.8396 -0.2525
  317MOL0     C42692   2.554   5.522   5.230  0.0562 -0.3748  0.6540
  317MOL0     C42693   2.693   5.521   5.254  0.5747  0.1772 -1.6722
  317MOL0     C42694   2.737   5.583   5.381  0.3154 -0.2997  0.1476
  317MOL0     O42695   2.865   5.555   5.426  0.2075 -0.0667  0.0015
  317MOL0     C42696   2.930   5.656   5.501  0.6002 -0.2711  0.3057
  317MOL0     C42697   3.080   5.651   5.508  0.3890 -0.5775  0.3734
  317MOL0     C42698   3.134   5.527   5.564  0.3219  0.2899  0.2049
  317MOL0     C42699   3.288   5.514   5.574  0.5970 -0.2448  0.2243
  317MOL0     C42700   3.338   5.385   5.651 -0.4213 -0.1622  1.1695
  317MOL0     C42701   3.476   5.352   5.605  0.0286  0.3257 -0.0587
  317MOL0     C42702   3.557   5.278   5.718 -0.0314 -0.3531  0.0563
  317MOL0     C42703   3.702   5.255   5.685  0.6241  0.3336  0.5015
  317MOL0    Cl42704   3.748   5.150   5.820 -0.1903 -0.0270  0.7910
  317MOL0     C42705   2.646   5.661   5.454  0.6391 -0.6637  0.6536
  317MOL0     C42706   2.514   5.682   5.411  0.8059 -0.0466 -0.2652
  317MOL0     O42707   2.380   5.793   5.135 -0.2430 -0.2865  0.2043
  317MOL0     C42708   2.116   5.558   5.118 -0.0643  0.3136  0.0871
  317MOL0     C42709   1.999   5.545   5.049  0.6637 -0.3334 -0.4770
  317MOL0     N42710   1.225   5.439   4.833 -0.7620  0.1762 -0.2975
  317MOL0     N42711   1.129   5.518   4.874 -0.3560 -0.1328 -0.0804
  317MOL0     C42712   0.387   5.043   4.275 -0.0321  0.5925  0.5370
  317MOL0     C42713   0.346   4.931   4.193 -0.1064 -0.2002 -0.8047
  317MOL0     C42714   0.183   4.545   4.040  0.1614  0.7322 -0.0666
  317MOL0     C42715   0.044   4.562   4.024  0.4506 -0.2169 -0.2678
  317MOL0     C42716  -0.024   4.479   3.944 -0.0715 -0.5339 -0.0626
  317MOL0     C42717   0.035   4.367   3.875 -0.0606  0.0097  0.1064
  317MOL0     O42718  -0.022   4.281   3.785 -0.0642 -0.5759 -0.5129
  317MOL0     C42719  -0.159   4.295   3.741 -0.5696 -0.7629  0.3486
  317MOL0     C42720  -0.191   4.187   3.639  0.0260 -0.0626  0.3024
  317MOL0     C42721  -0.341   4.191   3.611  0.8149 -1.2497 -0.7255
  317MOL0     C42722  -0.377   4.078   3.523  0.0680 -0.0665  0.4182
  317MOL0     C42723  -0.517   4.100   3.477  0.5780 -0.2141  0.0722
  317MOL0     C42724  -0.626   4.120   3.429 -0.1046  0.2698 -0.0832
  317MOL0     C42725   0.172   4.344   3.893 -0.1400  0.3886 -0.2220
  317MOL0     C42726   0.257   4.429   3.974  1.1666  0.1055  0.0632
  317MOL0     C42727   0.401   4.389   3.992  0.1349  0.5784  0.3415
  317MOL0     H42728   0.080   4.826   4.379  1.2315 -1.6473  1.1684
  317MOL0     H42729   0.159   5.012   4.519  2.5042 -1.1644  0.6897
  317MOL0     H42730   0.547   5.203   4.416 -0.5919 -0.1186  0.2204
  317MOL0     H42731   0.430   5.325   4.361  0.9890  2.1855  1.4457
  317MOL0     H42732   0.528   5.282   4.650  0.6042 -0.6464 -1.4356
  317MOL0     H42733   0.408   5.395   4.603 -1.5746 -1.4305 -1.0060
  317MOL0     H42734   0.583   5.500   4.454  0.2308 -0.5924 -0.9363
  317MOL0     H42735   0.708   5.385   4.534  0.9546  0.5563  1.6804
  317MOL0     H42736   0.533   5.593   4.673  1.8994  2.1401  2.5151
  317MOL0     H42737   0.650   5.479   4.753  0.5083 -1.9712 -0.7626
  317MOL0     H42738   0.756   5.642   4.538 -3.3561  0.3515 -1.4621
  317MOL0     H42739   0.685   5.744   4.669 -0.2453 -0.3445  0.5274
  317MOL0     H42740   0.809   5.635   4.832 -0.2317  1.3767 -0.6678
  317MOL0     H42741   0.881   5.523   4.715  0.5209  0.5660 -1.9002
  317MOL0     H42742   0.894   5.833   4.694  1.7083  1.0815  0.1012
  317MOL0     H42743   0.974   5.712   4.599  1.3993  0.5178  0.3789
  317MOL0     H42744   1.096   5.836   4.806  1.8180 -0.8374  5.0673
  317MOL0     H42745   0.992   5.755   4.906 -0.0062 -2.4719  0.3284
  317MOL0     H42746   1.291   5.704   4.654  0.9348 -0.6628 -0.0562
  317MOL0     H42747   1.395   5.370   4.610  1.3558 -3.0387  1.9491
  317MOL0     H42748   1.472   5.533   4.622 -1.8471  1.5012  0.3203
  317MOL0     H42749   1.505   5.340   4.848 -0.3337  1.8072  1.2787
  317MOL0     H42750   1.621   5.348   4.724 -0.4085 -0.0721 -0.9599
  317MOL0     H42751   1.555   5.567   4.919 -1.4480 -3.3668  0.5545
  317MOL0     H42752   1.629   5.595   4.752  0.8568 -1.6189 -1.0046
  317MOL0     H42753   1.809   5.447   4.820 -0.4823  0.6476 -1.0058
  317MOL0     H42754   1.765   5.445   4.987  1.2590  1.5533  0.8918
  317MOL0     H42755   1.956   5.857   4.915  0.9519 -0.1106 -0.7649
  317MOL0     H42756   2.165   5.888   5.055 -1.0549 -0.3093  0.4783
  317MOL0     H42757   2.497   5.463   5.159 -1.4964 -0.7409  2.1436
  317MOL0     H42758   2.760   5.454   5.201  0.8780 -0.1980 -0.8445
  317MOL0     H42759   2.898   5.751   5.458  0.0191 -1.0517 -1.0781
  317MOL0     H42760   2.888   5.653   5.601 -1.6493  0.6910 -0.5416
  317MOL0     H42761   3.117   5.680   5.409  0.0593  3.4675  1.2787
  317MOL0     H42762   3.114   5.730   5.576  1.9358  0.2743 -1.3173
  317MOL0     H42763   3.098   5.515   5.667  1.6682  2.4551  1.0174
  317MOL0     H42764   3.096   5.449   5.497 -1.5019  1.9101 -0.7709
  317MOL0     H42765   3.326   5.599   5.632 -0.1258  0.5546 -0.4246
  317MOL0     H42766   3.325   5.516   5.471  0.3447 -1.4608  0.1001
  317MOL0     H42767   3.264   5.306   5.641 -0.8473  0.1950  1.4452
  317MOL0     H42768   3.331   5.422   5.754 -2.1362  2.7394  0.1442
  317MOL0     H42769   3.462   5.279   5.525 -0.2126 -2.1720  2.1052
  317MOL0     H42770   3.530   5.443   5.579  1.1394 -0.4236 -0.4968
  317MOL0     H42771   3.500   5.186   5.732 -1.4011  0.2393 -1.2888
  317MOL0     H42772   3.540   5.334   5.810 -1.6068 -0.5200 -0.1037
  317MOL0     H42773   3.697   5.202   5.590 -2.6395 -3.4873  2.5002
  317MOL0     H42774   3.749   5.354   5.686 -0.6619  0.9627  1.2283
  317MOL0     H42775   2.682   5.718   5.539  2.6968  0.1583 -0.6790
  317MOL0     H42776   2.452   5.755   5.462 -2.3283 -0.1539 -3.5586
  317MOL0     H42777   2.156   5.468   5.165 -1.1964  0.0255  0.5409
  317MOL0     H42778   1.951   5.450   5.070  0.6473 -0.2757 -0.2532
  317MOL0     H42779   0.469   5.107   4.247  1.5643 -1.0428  1.2642
  317MOL0     H42780   0.397   4.917   4.098 -0.6741 -1.6687 -0.9132
  317MOL0     H42781  -0.005   4.654   4.056  0.9235  0.2037 -0.7226
  317MOL0     H42782  -0.130   4.497   3.931  0.2322 -0.1009 -2.3634
  317MOL0     H42783  -0.194   4.391   3.704 -0.6450 -1.1496 -0.6150
  317MOL0     H42784  -0.222   4.284   3.830  0.6354 -1.1386  1.1880
  317MOL0     H42785  -0.168   4.088   3.681 -2.6562 -0.8029  0.2216
  317MOL0     H42786  -0.133   4.212   3.550 -1.2592 -2.2576 -1.2708
  317MOL0     H42787  -0.360   4.289   3.565  1.0507 -1.0442 -0.3864
  317MOL0     H42788  -0.402   4.191   3.701  0.1549  0.9399 -1.0902
  317MOL0     H42789  -0.303   4.057   3.445 -0.4522 -2.9841  0.5822
  317MOL0     H42790  -0.380   3.983   3.578  0.8476  0.3128  1.1398
  317MOL0     H42791  -0.716   4.148   3.378 -0.5210 -0.6257  0.1202
  317MOL0     H42792   0.214   4.263   3.834 -1.7287 -0.5586 -0.0838
  317MOL0     H42793   0.470   4.472   3.980 -1.0306  1.6479  0.7876
  317MOL0     H42794   0.416   4.351   4.094  2.2583  1.5132  0.4092
  317MOL0     H42795   0.434   4.308   3.927 -1.1686 -0.8680  1.3920
  318MOL0     O42796   1.297  10.977   6.789 -0.0883  0.3953 -0.2697
  318MOL0     C42797   1.216  11.058   6.835  0.0437 -0.4170  0.0321
  318MOL0     O42798   1.224  11.193   6.839 -0.4802 -0.6019 -0.3452
  318MOL0     C42799   1.332  11.252   6.779  0.2262 -0.3491 -0.4395
  318MOL0     C42800   1.304  11.368   6.707 -0.2655  0.3527 -0.2295
  318MOL0     C42801   1.410  11.441   6.649 -0.7585 -0.9165  0.4103
  318MOL0     C42802   1.543  11.413   6.673 -0.4951  0.0780 -0.2332
  318MOL0     O42803   1.656  11.483   6.624  0.1862  0.0837 -0.1274
  318MOL0     C42804   1.660  11.623   6.644  0.6400 -0.0852 -0.1009
  318MOL0     C42805   1.807  11.667   6.610 -0.2246 -0.4717 -0.0247
  318MOL0     C42806   1.910  11.608   6.708 -0.3106 -0.2036  0.4884
  318MOL0     C42807   2.050  11.674   6.686 -0.0274  0.1634 -0.0082
  318MOL0     C42808   2.148  11.608   6.784 -0.0856 -0.2760  0.2295
  318MOL0     C42809   2.286  11.600   6.713 -0.0516 -0.4131  0.0352
  318MOL0     C42810   2.401  11.563   6.809 -0.0358  0.4893 -0.5550
  318MOL0     C42811   2.402  11.411   6.839  0.6799  0.4393 -0.1838
  318MOL0     N42812   2.448  11.341   6.718 -0.5689 -0.1323 -0.4194
  318MOL0     C42813   2.373  11.258   6.639 -0.6609  0.2520 -0.7447
  318MOL0     C42814   2.458  11.196   6.553 -0.3908 -0.7630 -0.1979
  318MOL0     C42815   2.432  11.071   6.474 -0.1701 -0.2378 -0.2965
  318MOL0     C42816   2.386  10.961   6.569  0.6335 -0.9421 -0.3051
  318MOL0     C42817   2.374  10.826   6.510 -0.6010  1.1482  0.3973
  318MOL0     C42818   2.303  10.721   6.590 -0.6738  0.9510 -0.6570
  318MOL0     O42819   2.381  10.677   6.709 -0.2586 -0.7143  0.2831
  318MOL0     C42820   2.493  10.599   6.684 -0.1525 -0.9124  0.0528
  318MOL0     C42821   2.541  10.544   6.570  1.1735 -0.3738 -0.1315
  318MOL0     C42822   2.652  10.458   6.562 -0.1037 -0.7347  0.4868
  318MOL0     C42823   2.726  10.426   6.676  0.3797 -0.4029 -0.2616
  318MOL0     C42824   2.865  10.361   6.671  0.6897  0.3188  0.2014
  318MOL0     O42825   2.911  10.312   6.791 -0.6509  0.4429 -0.4636
  318MOL0     C42826   3.043  10.286   6.796  0.2814  0.2369  0.3929
  318MOL0     C42827   3.140  10.389   6.770  0.1979  0.4665 -0.3637
  318MOL0     C42828   3.275  10.357   6.766  0.2436  0.2701 -0.9194
  318MOL0     C42829   3.320  10.233   6.811  0.4906  0.7604 -0.3078
  318MOL0     O42830   3.452  10.218   6.807 -0.6020  0.8152  0.3222
  318MOL0     C42831   3.523  10.147   6.906 -0.0215 -1.1629  0.1448
  318MOL0     C42832   3.667  10.184   6.903 -0.7142 -0.7387 -1.0974
  318MOL0     C42833   3.736  10.186   7.038  0.2323  1.4792 -0.1750
  318MOL0     C42834   3.886  10.203   7.020 -0.3681 -0.9270 -0.7772
  318MOL0     C42835   3.979  10.203   7.146  1.0436  0.3388  0.7164
  318MOL0     C42836   4.122  10.226   7.114 -0.5289 -0.5332 -0.5492
  318MOL0     C42837   4.200  10.248   7.239 -0.2097 -1.0362 -0.4522
  318MOL0     C42838   4.358  10.260   7.207  0.0319 -0.5733 -0.3853
  318MOL0    Cl42839   4.434  10.300   7.363 -0.1227  0.1837 -0.0552
  318MOL0     C42840   3.223  10.131   6.837 -0.1807  0.4453 -0.8258
  318MOL0     C42841   3.084  10.154   6.827 -0.8954  0.0284  0.2058
  318MOL0     O42842   2.928  10.365   6.566  0.2441 -0.2542  0.0509
  318MOL0     C42843   2.668  10.476   6.800 -1.2881 -0.5836  0.0977
  318MOL0     C42844   2.562  10.570   6.799  0.6688  0.4592 -0.3218
  318MOL0     N42845   2.586  11.247   6.574  0.6821 -0.1679 -0.3471
  318MOL0     N42846   2.577  11.336   6.669 -0.0148  0.1197 -0.5716
  318MOL0     C42847   1.572  11.294   6.750 -0.0012 -0.9589 -0.0590
  318MOL0     C42848   1.465  11.217   6.805 -0.3582 -1.4062 -0.3208
  318MOL0     C42849   1.103  10.999   6.913  0.5812  0.6049 -0.5239
  318MOL0     C42850   1.057  11.074   7.024  0.2553 -0.0175 -0.8348
  318MOL0     C42851   0.960  11.026   7.108  0.9084 -0.2182 -0.5128
  318MOL0     C42852   0.901  10.898   7.080 -0.5230  0.4222  0.9826
  318MOL0     O42853   0.813  10.848   7.164  0.0120 -0.9135  0.1587
  318MOL0     C42854   0.701  10.779   7.109 -0.2743 -0.3811 -0.0216
  318MOL0     C42855   0.575  10.813   7.198 -0.0669  0.4771  0.0372
  318MOL0     C42856   0.444  10.749   7.153 -0.1473 -0.1714 -0.3937
  318MOL0     C42857   0.329  10.797   7.239  0.2285  0.0186 -0.3378
  318MOL0     C42858   0.220  10.707   7.264  0.0715 -0.4880  0.4417
  318MOL0     C42859   0.138  10.623   7.296  0.4645 -0.4519  1.0122
  318MOL0     C42860   0.945  10.817   6.972 -0.7924  0.0974  0.8995
  318MOL0     C42861   1.042  10.872   6.883 -0.4847 -0.3762 -0.1127
  318MOL0     C42862   1.080  10.791   6.748 -0.1137 -0.2542 -1.0590
  318MOL0     H42863   1.203  11.408   6.711  1.0732  4.0496  1.5675
  318MOL0     H42864   1.379  11.526   6.589 -0.4436 -0.5622  0.7458
  318MOL0     H42865   1.596  11.671   6.570 -0.2239  0.1735  0.7846
  318MOL0     H42866   1.626  11.653   6.744  0.5758  1.4234 -0.5486
  318MOL0     H42867   1.805  11.776   6.624  1.1110 -0.6011  1.4984
  318MOL0     H42868   1.825  11.650   6.504  0.0412  0.1938 -0.0922
  318MOL0     H42869   1.921  11.500   6.692  0.0740 -0.2228  0.8553
  318MOL0     H42870   1.877  11.635   6.809  1.6933 -1.8196  1.6528
  318MOL0     H42871   2.078  11.667   6.580 -0.5168  1.3220 -0.2401
  318MOL0     H42872   2.041  11.782   6.703 -1.5142  0.2263 -0.9541
  318MOL0     H42873   2.152  11.670   6.874  2.4993  3.8572 -2.4318
  318MOL0     H42874   2.115  11.505   6.800  1.1336 -0.5083  1.3856
  318MOL0     H42875   2.268  11.515   6.646  2.0988 -3.1205  2.6322
  318MOL0     H42876   2.312  11.691   6.659 -0.3042 -1.6213 -2.2367
  318MOL0     H42877   2.393  11.617   6.904  1.2064  1.7591 -1.1312
  318MOL0     H42878   2.506  11.573   6.779  0.7932 -1.0768  1.5246
  318MOL0     H42879   2.471  11.396   6.922  1.5362 -0.2822 -1.0002
  318MOL0     H42880   2.305  11.374   6.874  1.1595 -1.3096 -0.5630
  318MOL0     H42881   2.269  11.227   6.649 -0.0830 -1.4975  0.2892
  318MOL0     H42882   2.349  11.095   6.407 -0.2284 -0.3723 -0.2723
  318MOL0     H42883   2.521  11.045   6.416  1.2673 -1.5793  2.3486
  318MOL0     H42884   2.456  10.964   6.653 -0.0043  1.1242  0.2093
  318MOL0     H42885   2.291  11.001   6.605  0.6969  1.7824 -2.7596
  318MOL0     H42886   2.476  10.786   6.503 -1.1695 -0.8313  2.3949
  318MOL0     H42887   2.334  10.824   6.409  0.8147 -2.7801 -0.2631
  318MOL0     H42888   2.279  10.646   6.514 -0.2464  2.0509 -1.9306
  318MOL0     H42889   2.212  10.766   6.631 -0.5964 -1.3440  2.3409
  318MOL0     H42890   2.481  10.559   6.481  1.4422  1.0166 -0.0907
  318MOL0     H42891   2.667  10.412   6.465  3.2324 -0.3759  0.7280
  318MOL0     H42892   3.109  10.491   6.749  1.6946  1.1268  0.4469
  318MOL0     H42893   3.356  10.426   6.745  1.2306 -0.3649  0.5424
  318MOL0     H42894   3.481  10.180   7.001 -0.5507 -0.2057 -0.4040
  318MOL0     H42895   3.517  10.038   6.898  4.5612 -1.5068 -1.7443
  318MOL0     H42896   3.709  10.107   6.837 -0.6244 -0.1406 -1.7609
  318MOL0     H42897   3.699  10.276   6.852  2.1716 -1.3127 -0.5429
  318MOL0     H42898   3.702  10.268   7.102  0.6385  2.2027 -0.8642
  318MOL0     H42899   3.721  10.093   7.093  0.8364  1.1488 -0.5470
  318MOL0     H42900   3.908  10.301   6.978 -1.2842 -1.2524 -2.0826
  318MOL0     H42901   3.930  10.130   6.952  2.0935  0.1642 -0.4656
  318MOL0     H42902   3.966  10.104   7.190 -1.4131 -1.3002 -3.1379
  318MOL0     H42903   3.934  10.274   7.217  0.5581 -0.1307  0.8834
  318MOL0     H42904   4.173  10.136   7.080  1.3663 -1.5985  4.3048
  318MOL0     H42905   4.135  10.301   7.035  0.1429 -1.2088 -1.0875
  318MOL0     H42906   4.174  10.178   7.319 -0.5482  1.4504  1.7521
  318MOL0     H42907   4.186  10.349   7.280  2.3029 -0.3238 -1.1772
  318MOL0     H42908   4.396  10.170   7.157  0.0887  1.1698 -3.7869
  318MOL0     H42909   4.374  10.328   7.123 -1.3937 -1.5752 -1.5470
  318MOL0     H42910   3.249  10.026   6.840  0.9502  0.6446 -2.3917
  318MOL0     H42911   3.007  10.079   6.844 -0.7147 -0.7439 -2.0911
  318MOL0     H42912   2.717  10.437   6.889 -0.1706  0.9157  0.1726
  318MOL0     H42913   2.530  10.621   6.889  0.4288  0.0480 -0.1740
  318MOL0     H42914   1.674  11.267   6.771  0.7357  0.5133 -1.5053
  318MOL0     H42915   1.497  11.137   6.871 -0.1366 -2.4432 -1.6690
  318MOL0     H42916   1.106  11.165   7.059  0.2224 -1.4001  3.3446
  318MOL0     H42917   0.911  11.089   7.181  2.5608 -0.5106  0.8997
  318MOL0     H42918   0.713  10.672   7.128  1.3611 -0.0366  1.0321
  318MOL0     H42919   0.688  10.793   7.001  1.1538 -0.8931 -0.2830
  318MOL0     H42920   0.541  10.917   7.192  1.3655  1.0744  1.3926
  318MOL0     H42921   0.600  10.782   7.300  3.1004 -1.5519 -1.1936
  318MOL0     H42922   0.457  10.640   7.160  1.0445 -0.0404 -0.3922
  318MOL0     H42923   0.425  10.776   7.049 -1.3248  2.0855  0.3443
  318MOL0     H42924   0.368  10.824   7.338  0.7640 -0.4520 -0.4144
  318MOL0     H42925   0.282  10.886   7.197  0.9916  1.0716  0.9802
  318MOL0     H42926   0.073  10.546   7.330 -0.8299  0.7039  1.2367
  318MOL0     H42927   0.903  10.718   6.957  1.4391 -0.4986 -2.4844
  318MOL0     H42928   1.030  10.694   6.743 -2.3036  0.8147 -1.0838
  318MOL0     H42929   1.068  10.844   6.653 -1.3363 -0.8074 -1.2382
  318MOL0     H42930   1.184  10.765   6.767 -1.2753 -2.0077  4.9380
  319MOL0     O42931   3.406   6.963   7.890 -0.2776 -0.2301 -0.5655
  319MOL0     C42932   3.335   6.869   7.935  0.1913 -0.5084 -0.2241
  319MOL0     O42933   3.388   6.773   8.025 -0.0205  0.1892 -0.6151
  319MOL0     C42934   3.504   6.812   8.082  0.0998  0.3492  0.2110
  319MOL0     C42935   3.507   6.865   8.216  0.0408 -1.0689 -0.1620
  319MOL0     C42936   3.625   6.911   8.273 -0.4913 -0.2848  0.1951
  319MOL0     C42937   3.748   6.898   8.204  0.0612 -0.0615 -0.3571
  319MOL0     O42938   3.865   6.927   8.269 -0.2058  0.5027  0.4915
  319MOL0     C42939   3.982   6.840   8.235 -0.4159  0.7677 -0.4274
  319MOL0     C42940   4.115   6.906   8.278  0.2603  0.5320 -0.3771
  319MOL0     C42941   4.243   6.820   8.246 -0.3281  0.4521 -0.5034
  319MOL0     C42942   4.372   6.890   8.286 -0.3715 -0.7012  0.1589
  319MOL0     C42943   4.508   6.825   8.251 -0.0625 -0.1766 -0.3463
  319MOL0     C42944   4.638   6.892   8.307 -0.2576 -0.5952 -0.6705
  319MOL0     C42945   4.658   7.042   8.279 -0.4088 -0.2632 -0.0742
  319MOL0     C42946   4.796   7.093   8.351 -0.0814 -0.6287  0.2825
  319MOL0     N42947   4.916   7.084   8.263  0.2084  0.5915  1.0053
  319MOL0     C42948   5.037   7.019   8.294  0.5433 -0.2285  0.4392
  319MOL0     C42949   5.122   7.060   8.197 -0.0120  1.6061  0.1959
  319MOL0     C42950   5.266   7.015   8.184  0.4154  0.3936 -0.3978
  319MOL0     C42951   5.352   7.124   8.133  0.9754  0.2718  0.4595
  319MOL0     C42952   5.393   7.241   8.238  0.1059 -0.8134 -0.7104
  319MOL0     C42953   5.457   7.362   8.173 -0.4514 -0.2812  0.4583
  319MOL0     O42954   5.589   7.319   8.144  0.6125  0.8309 -1.1742
  319MOL0     C42955   5.689   7.406   8.113 -0.8990 -0.0774 -1.0004
  319MOL0     C42956   5.673   7.546   8.103 -0.8581  0.7253 -0.8981
  319MOL0     C42957   5.780   7.625   8.077  0.1006  0.1733  0.0461
  319MOL0     C42958   5.913   7.573   8.049 -0.1905 -0.2553 -1.0363
  319MOL0     C42959   6.022   7.667   8.014  0.7641 -0.1789  0.3305
  319MOL0     O42960   6.138   7.608   7.960  0.2454 -0.0089 -0.9498
  319MOL0     C42961   6.242   7.687   7.914  0.4339  0.6446 -0.6262
  319MOL0     C42962   6.254   7.711   7.777 -0.0707  0.4465  0.2190
  319MOL0     C42963   6.351   7.793   7.731  1.0869  0.7764  0.4499
  319MOL0     C42964   6.449   7.846   7.817 -0.6299  1.1008  0.0152
  319MOL0     O42965   6.545   7.922   7.756 -0.0609 -0.1120  0.3275
  319MOL0     C42966   6.681   7.887   7.802 -0.5958 -0.0266  0.0973
  319MOL0     C42967   6.784   7.955   7.711 -1.2886 -0.1132  0.0667
  319MOL0     C42968   6.930   7.925   7.743  0.2248  1.0071 -0.6512
  319MOL0     C42969   7.005   7.963   7.612  0.2959  0.1374  0.1698
  319MOL0     C42970   7.158   7.967   7.638 -0.3229  0.3226 -0.5622
  319MOL0     C42971   7.230   8.026   7.513  0.3063  0.0729 -0.5449
  319MOL0     C42972   7.383   7.992   7.512 -0.0613 -0.1726 -0.4584
  319MOL0     C42973   7.463   8.028   7.633  0.1136 -0.4329  0.2848
  319MOL0    Cl42974   7.639   8.029   7.604 -0.4731 -0.3015 -0.1915
  319MOL0     C42975   6.449   7.815   7.957  0.4712 -0.1223  0.5299
  319MOL0     C42976   6.338   7.737   8.003 -0.1713 -0.1241  0.3982
  319MOL0     O42977   5.997   7.789   8.006 -0.4901  0.0467  0.8221
  319MOL0     C42978   5.930   7.433   8.055  0.2378  0.1804  0.0405
  319MOL0     C42979   5.818   7.350   8.092 -0.5593  0.2527  0.4573
  319MOL0     N42980   5.050   7.132   8.104  0.2683  0.0001  0.5128
  319MOL0     N42981   4.939   7.160   8.152  0.7477 -0.3776  0.6601
  319MOL0     C42982   3.743   6.844   8.071  0.4379 -0.0253  0.8366
  319MOL0     C42983   3.625   6.803   8.016 -0.5558 -0.7840 -0.1255
  319MOL0     C42984   3.183   6.873   7.921 -0.0882  0.2191  0.0033
  319MOL0     C42985   3.119   6.771   8.001 -0.4671 -0.7164 -0.5346
  319MOL0     C42986   2.981   6.755   8.008  0.1715 -0.6742 -0.1811
  319MOL0     C42987   2.899   6.833   7.921 -0.3510  0.3972  0.2211
  319MOL0     O42988   2.760   6.825   7.901  0.3809  0.7007  0.3676
  319MOL0     C42989   2.682   6.718   7.956 -0.2130  0.3034  0.3604
  319MOL0     C42990   2.551   6.713   7.875  0.1205  0.4375 -0.5167
  319MOL0     C42991   2.467   6.844   7.866 -0.3318  0.1857  0.7873
  319MOL0     C42992   2.357   6.832   7.778  0.1048  1.0230  0.3161
  319MOL0     C42993   2.276   6.952   7.794  0.1513 -0.1853 -0.0952
  319MOL0     C42994   2.195   7.042   7.804 -0.0899 -0.3713 -0.7710
  319MOL0     C42995   2.959   6.938   7.849  0.0078  0.2336 -0.6571
  319MOL0     C42996   3.102   6.955   7.847 -0.1901  0.1003  0.6070
  319MOL0     C42997   3.147   7.063   7.751  0.7470 -0.0574 -0.0488
  319MOL0     H42998   3.417   6.875   8.275  0.7642 -1.5027  1.0413
  319MOL0     H42999   3.629   6.955   8.372 -0.4255  1.2710 -0.4726
  319MOL0     H43000   3.973   6.742   8.283 -0.6353  0.9943  0.0103
  319MOL0     H43001   4.000   6.826   8.128  1.3026  0.6802 -0.1532
  319MOL0     H43002   4.106   6.910   8.387  3.6092 -4.8996  0.4819
  319MOL0     H43003   4.129   7.004   8.231  1.3247  1.1268  1.0663
  319MOL0     H43004   4.236   6.810   8.137 -1.6452 -3.0556 -0.2112
  319MOL0     H43005   4.244   6.715   8.276 -0.6067  1.1333  2.2234
  319MOL0     H43006   4.358   6.988   8.240  2.0092  0.1892  1.2037
  319MOL0     H43007   4.368   6.902   8.395  1.8350 -0.7288  0.2814
  319MOL0     H43008   4.507   6.719   8.277  1.9741 -0.8228 -2.5857
  319MOL0     H43009   4.525   6.815   8.144  1.2883 -1.9319 -0.0072
  319MOL0     H43010   4.637   6.879   8.416  0.2774 -4.1305 -0.9831
  319MOL0     H43011   4.729   6.837   8.282  0.9449  0.0179  1.9925
  319MOL0     H43012   4.574   7.094   8.327  1.7479  2.9630  0.4929
  319MOL0     H43013   4.641   7.061   8.173 -0.7025  2.0953  0.3497
  319MOL0     H43014   4.786   7.196   8.387  1.7595 -0.7169  1.1958
  319MOL0     H43015   4.817   7.028   8.437 -1.1716 -0.4745  0.6824
  319MOL0     H43016   5.054   6.958   8.383  1.6027 -0.5191  0.0595
  319MOL0     H43017   5.308   6.989   8.281  3.2511  3.9374 -0.4838
  319MOL0     H43018   5.251   6.930   8.117 -1.6117  1.7322 -1.7645
  319MOL0     H43019   5.434   7.073   8.083 -1.4793 -2.1025 -1.4408
  319MOL0     H43020   5.289   7.174   8.059  0.1084 -2.7775 -1.0238
  319MOL0     H43021   5.467   7.209   8.312  0.4169  1.9485  0.2871
  319MOL0     H43022   5.298   7.267   8.286  0.6970 -1.9570  1.2145
  319MOL0     H43023   5.454   7.439   8.251  0.7250  1.0913 -0.7786
  319MOL0     H43024   5.392   7.387   8.089 -0.7688  0.0694  0.8055
  319MOL0     H43025   5.580   7.585   8.142 -1.7868 -1.4775 -0.7688
  319MOL0     H43026   5.756   7.730   8.066 -1.3073 -0.2956 -2.0819
  319MOL0     H43027   6.180   7.683   7.703  1.0068  2.3866 -1.6952
  319MOL0     H43028   6.361   7.816   7.626  1.5867 -4.2696 -0.8555
  319MOL0     H43029   6.699   7.920   7.905 -2.1671 -1.3174  0.8206
  319MOL0     H43030   6.691   7.779   7.789  3.0562  0.2375 -0.1821
  319MOL0     H43031   6.768   7.934   7.605  3.2776 -5.6026 -0.0465
  319MOL0     H43032   6.771   8.063   7.726 -2.2146 -0.3742  1.3175
  319MOL0     H43033   6.957   7.987   7.829 -2.0475  0.8297  0.2510
  319MOL0     H43034   6.942   7.819   7.769 -0.7752  1.2897  1.1076
  319MOL0     H43035   6.977   8.064   7.583 -0.3412  0.1812  0.8998
  319MOL0     H43036   6.989   7.894   7.528 -2.1769 -0.3153  0.9576
  319MOL0     H43037   7.190   7.865   7.661 -0.5210 -0.6838 -4.1386
  319MOL0     H43038   7.171   8.025   7.730 -2.2304 -0.9788  0.6138
  319MOL0     H43039   7.192   7.974   7.425  1.9788 -2.7441  0.2763
  319MOL0     H43040   7.210   8.134   7.506  0.4184  0.0551 -1.1835
  319MOL0     H43041   7.421   8.043   7.423 -0.6699  0.3388 -0.4361
  319MOL0     H43042   7.411   7.890   7.485  2.1833 -0.5800  2.7467
  319MOL0     H43043   7.437   8.131   7.660 -0.2513  0.4739 -3.0628
  319MOL0     H43044   7.433   7.969   7.720  0.2318  1.2258  1.5058
  319MOL0     H43045   6.536   7.835   8.020  2.0032  1.4898 -1.9056
  319MOL0     H43046   6.321   7.717   8.108  0.5469  0.9241  0.7283
  319MOL0     H43047   6.027   7.391   8.032  0.0676 -0.3568  0.2831
  319MOL0     H43048   5.836   7.244   8.104  1.9894  0.2592 -2.2660
  319MOL0     H43049   3.836   6.828   8.018  1.8491 -1.7019  3.5551
  319MOL0     H43050   3.621   6.772   7.912 -0.0142  0.6053 -0.5797
  319MOL0     H43051   3.177   6.709   8.068  1.7193  0.2746 -1.4381
  319MOL0     H43052   2.925   6.674   8.052 -0.8312 -1.3686 -2.5752
  319MOL0     H43053   2.670   6.746   8.061  1.6494 -1.0035  0.9672
  319MOL0     H43054   2.739   6.627   7.938 -1.1228  0.1852 -2.4311
  319MOL0     H43055   2.485   6.639   7.922  0.0803  0.9634  0.2759
  319MOL0     H43056   2.589   6.682   7.777  1.9491 -0.9016  0.5554
  319MOL0     H43057   2.522   6.931   7.828 -0.2630  1.0154  2.6377
  319MOL0     H43058   2.433   6.877   7.965 -3.8604 -1.1932  0.1526
  319MOL0     H43059   2.387   6.829   7.673  2.5243 -0.3561  0.9605
  319MOL0     H43060   2.301   6.741   7.800 -0.9101  1.6303  0.2851
  319MOL0     H43061   2.124   7.119   7.829 -0.6813 -0.1255 -2.9363
  319MOL0     H43062   2.898   7.007   7.791 -0.0310  0.0632 -0.8223
  319MOL0     H43063   3.103   7.052   7.651  3.4556  2.5687 -1.6984
  319MOL0     H43064   3.122   7.159   7.798  2.1112  0.0513  0.4941
  319MOL0     H43065   3.256   7.071   7.750  0.6216  3.0633  0.3208
  320MOL0     O43066   2.210   2.926   5.671 -0.3948  0.4535 -0.6854
  320MOL0     C43067   2.229   2.813   5.628  0.2779  0.2258  0.0783
  320MOL0     O43068   2.354   2.775   5.580 -0.6749 -0.1353  0.2605
  320MOL0     C43069   2.468   2.848   5.600  0.8755  0.8398 -0.0839
  320MOL0     C43070   2.480   2.930   5.715 -1.0958 -0.4584 -0.0615
  320MOL0     C43071   2.586   3.016   5.723  0.0467  0.6162  0.1267
  320MOL0     C43072   2.699   2.996   5.637 -0.4963 -0.6240  0.3592
  320MOL0     O43073   2.808   3.078   5.671  0.4218 -0.6970  0.9186
  320MOL0     C43074   2.941   3.052   5.611  0.5948 -0.4671 -0.8949
  320MOL0     C43075   3.012   2.947   5.691 -0.0446  0.3303  0.0007
  320MOL0     C43076   3.126   2.891   5.607 -0.2330 -0.5844  0.6149
  320MOL0     C43077   3.218   2.804   5.690 -0.8259  0.8109  0.6064
  320MOL0     C43078   3.357   2.778   5.626 -0.1887 -0.1937 -0.0753
  320MOL0     C43079   3.433   2.909   5.586  0.2851  1.3607 -0.2037
  320MOL0     C43080   3.587   2.894   5.585 -0.1243  0.4649  1.1424
  320MOL0     C43081   3.644   3.035   5.548  0.3200  0.4767 -0.0439
  320MOL0     N43082   3.787   3.054   5.525  0.2364 -0.2003 -0.2372
  320MOL0     C43083   3.899   2.998   5.578 -0.0077 -0.6430 -0.0033
  320MOL0     C43084   4.008   3.047   5.514  0.1167  0.3434  0.3078
  320MOL0     C43085   4.140   3.016   5.570  1.0146 -0.2209 -0.0152
  320MOL0     C43086   4.245   3.129   5.539  0.0334  0.0184  0.3981
  320MOL0     C43087   4.390   3.077   5.571  0.2654 -0.0798  0.3176
  320MOL0     C43088   4.492   3.187   5.546 -0.5710  1.0666  1.1753
  320MOL0     O43089   4.620   3.132   5.583 -0.3312  0.0992  0.7042
  320MOL0     C43090   4.740   3.206   5.575  0.1964 -0.6067 -0.1810
  320MOL0     C43091   4.863   3.133   5.597  0.0022  0.1582 -0.1593
  320MOL0     C43092   4.981   3.200   5.603  0.2726 -0.5048 -0.3444
  320MOL0     C43093   4.988   3.338   5.579 -0.5452  0.2453  0.2757
  320MOL0     C43094   5.117   3.410   5.584  0.1946  0.1520  0.1719
  320MOL0     O43095   5.228   3.337   5.579 -0.2623 -0.2804 -0.3757
  320MOL0     C43096   5.354   3.398   5.588 -0.4297  0.1484 -0.5785
  320MOL0     C43097   5.454   3.295   5.598  0.2612  0.0774 -0.8493
  320MOL0     C43098   5.593   3.333   5.602 -0.1497  0.8646  0.0764
  320MOL0     C43099   5.631   3.468   5.587  0.5020 -0.3675  0.6508
  320MOL0     O43100   5.761   3.502   5.571 -0.0987  0.9192 -0.1929
  320MOL0     C43101   5.816   3.626   5.626 -0.0314 -0.2838 -0.4059
  320MOL0     C43102   5.964   3.598   5.628  0.4268 -0.7842  0.6624
  320MOL0     C43103   6.042   3.660   5.503 -0.2213 -0.0139 -0.4227
  320MOL0     C43104   6.190   3.650   5.509 -1.1139 -0.0540 -0.0605
  320MOL0     C43105   6.247   3.630   5.367  0.1512  0.4550  0.3661
  320MOL0     C43106   6.405   3.613   5.365 -0.0810  0.4741 -0.5981
  320MOL0     C43107   6.441   3.553   5.236 -0.1208 -0.5655  0.2318
  320MOL0     C43108   6.590   3.579   5.208  0.0134 -0.2645 -0.7885
  320MOL0    Cl43109   6.657   3.498   5.066  0.0484  0.4531 -0.3693
  320MOL0     C43110   5.530   3.563   5.576  0.1049  0.5560 -0.4255
  320MOL0     C43111   5.390   3.531   5.574 -0.7200  0.0679 -1.0486
  320MOL0     O43112   5.107   3.530   5.609 -0.3365 -0.6488  0.0890
  320MOL0     C43113   4.869   3.403   5.559  0.3902  0.1024  0.5344
  320MOL0     C43114   4.748   3.339   5.559  0.1802  0.5763  1.0280
  320MOL0     N43115   3.964   3.133   5.413  0.3161  0.4336 -0.2207
  320MOL0     N43116   3.830   3.126   5.412 -0.3613 -0.1255 -0.2564
  320MOL0     C43117   2.691   2.905   5.531 -0.5203  0.4063 -0.0828
  320MOL0     C43118   2.567   2.841   5.500 -0.2729 -0.2979  0.1699
  320MOL0     C43119   2.105   2.734   5.605  0.0146 -0.4110  0.0796
  320MOL0     C43120   2.115   2.669   5.481  1.1923  0.7040 -0.1899
  320MOL0     C43121   1.999   2.592   5.448  0.3364 -0.3231  0.1270
  320MOL0     C43122   1.879   2.588   5.520 -0.0786  0.3288 -0.1327
  320MOL0     O43123   1.756   2.540   5.483 -0.1763  0.6433  0.2724
  320MOL0     C43124   1.735   2.419   5.419 -0.4608 -0.4419  0.3302
  320MOL0     C43125   1.601   2.414   5.339  0.8448  0.6556  0.2560
  320MOL0     C43126   1.614   2.497   5.205 -0.5958  0.2797 -0.0745
  320MOL0     C43127   1.526   2.435   5.095 -0.3219  0.3830  0.8609
  320MOL0     C43128   1.381   2.447   5.128 -0.0667  0.4190  0.3461
  320MOL0     C43129   1.267   2.424   5.163  0.3727 -1.2963  0.0993
  320MOL0     C43130   1.873   2.658   5.636  0.1555 -0.8727  0.2840
  320MOL0     C43131   1.989   2.723   5.682 -0.5236  0.1843 -0.1450
  320MOL0     C43132   1.984   2.791   5.819  0.1251  0.5354  0.2414
  320MOL0     H43133   2.404   2.925   5.792  0.3583  1.7259  1.6572
  320MOL0     H43134   2.596   3.082   5.809  0.4309 -0.1033  0.6383
  320MOL0     H43135   2.929   3.029   5.505 -1.1073 -0.5646 -0.7090
  320MOL0     H43136   3.003   3.141   5.622  0.9345 -0.1665 -4.2324
  320MOL0     H43137   2.939   2.870   5.717 -0.0899 -0.6817 -2.8114
  320MOL0     H43138   3.048   2.990   5.785 -1.8978  2.4606 -0.1918
  320MOL0     H43139   3.174   2.973   5.553  1.9502 -2.9983 -1.4570
  320MOL0     H43140   3.081   2.824   5.533 -0.1401 -1.2674  1.1543
  320MOL0     H43141   3.227   2.849   5.789  0.8334  0.2899  0.7210
  320MOL0     H43142   3.173   2.705   5.700  3.3921 -1.5560 -0.9820
  320MOL0     H43143   3.421   2.722   5.695 -0.8415 -0.5934  0.2175
  320MOL0     H43144   3.341   2.708   5.543 -4.0683 -2.6135  2.3604
  320MOL0     H43145   3.411   2.930   5.481  2.9112 -0.0523 -1.1229
  320MOL0     H43146   3.390   2.985   5.653  1.2437 -1.0964  3.5300
  320MOL0     H43147   3.629   2.826   5.510  2.0427  2.6525  0.2607
  320MOL0     H43148   3.627   2.867   5.682  2.6927  1.1251  0.2567
  320MOL0     H43149   3.596   3.083   5.462  0.8329 -0.0559 -0.6445
  320MOL0     H43150   3.614   3.092   5.636 -0.8830  0.1613 -0.2270
  320MOL0     H43151   3.903   2.924   5.658  0.8328  1.0569  1.5818
  320MOL0     H43152   4.129   3.003   5.678 -0.5863 -1.4851 -0.2894
  320MOL0     H43153   4.173   2.924   5.521  0.3471 -0.5207  0.0919
  320MOL0     H43154   4.249   3.151   5.431 -0.2258 -0.3408  0.3139
  320MOL0     H43155   4.228   3.224   5.589  0.0521  2.4477 -3.6992
  320MOL0     H43156   4.408   2.988   5.510 -0.4986 -1.4466  2.0072
  320MOL0     H43157   4.409   3.037   5.671 -0.9185 -1.5025 -0.0000
  320MOL0     H43158   4.474   3.279   5.603 -0.4355  0.8265  1.6114
  320MOL0     H43159   4.496   3.224   5.443 -4.6885  1.3643  0.9675
  320MOL0     H43160   4.863   3.026   5.614 -0.2722  0.0782 -0.6372
  320MOL0     H43161   5.070   3.146   5.630  0.0977 -1.9600 -2.4393
  320MOL0     H43162   5.428   3.191   5.617  0.1082  0.2071 -0.3324
  320MOL0     H43163   5.669   3.256   5.600 -1.4269 -0.4151 -0.1817
  320MOL0     H43164   5.794   3.720   5.574  0.4664  0.0592 -0.0023
  320MOL0     H43165   5.783   3.628   5.730  0.0607 -2.5387 -0.2815
  320MOL0     H43166   6.006   3.631   5.723  1.4562 -2.0304  0.6598
  320MOL0     H43167   5.986   3.491   5.639 -0.6741 -0.9788  1.1498
  320MOL0     H43168   6.005   3.614   5.410 -0.3835 -2.0782  0.6134
  320MOL0     H43169   6.019   3.767   5.498 -2.6168 -0.3748  1.2553
  320MOL0     H43170   6.210   3.555   5.559 -1.1476 -1.2619 -2.2193
  320MOL0     H43171   6.233   3.732   5.568 -1.4535 -0.0080  0.1240
  320MOL0     H43172   6.215   3.717   5.309  0.6397  0.6401  0.3697
  320MOL0     H43173   6.204   3.536   5.331  2.3519 -0.2617 -0.5659
  320MOL0     H43174   6.444   3.715   5.366  2.8249 -0.5538 -0.4575
  320MOL0     H43175   6.432   3.557   5.454 -1.2611  0.0349 -0.4942
  320MOL0     H43176   6.385   3.594   5.150  1.2322  2.0683  0.5021
  320MOL0     H43177   6.430   3.444   5.244  1.3789 -0.7098  0.4698
  320MOL0     H43178   6.601   3.688   5.202 -2.7552  0.2115  0.9264
  320MOL0     H43179   6.639   3.541   5.298  0.2156 -1.9466 -1.5780
  320MOL0     H43180   5.553   3.668   5.560 -2.1658  0.7497 -3.3957
  320MOL0     H43181   5.314   3.608   5.573 -2.8467 -1.8204  1.1937
  320MOL0     H43182   4.863   3.510   5.544 -4.4015  0.3191  2.2776
  320MOL0     H43183   4.660   3.401   5.545 -0.5043 -0.7446 -1.0919
  320MOL0     H43184   2.778   2.897   5.467  1.2654  3.1510  1.7616
  320MOL0     H43185   2.559   2.771   5.417 -3.2581  0.8248 -0.6445
  320MOL0     H43186   2.200   2.674   5.413 -0.3164 -1.1205 -2.3843
  320MOL0     H43187   2.002   2.542   5.352 -2.5820  2.1579 -1.4665
  320MOL0     H43188   1.739   2.340   5.495  0.4455 -3.1779 -2.3588
  320MOL0     H43189   1.823   2.403   5.356 -0.7818 -0.4013 -0.1294
  320MOL0     H43190   1.519   2.447   5.402 -1.1081 -0.4792 -1.5715
  320MOL0     H43191   1.582   2.308   5.320 -0.3577  0.8363  0.4164
  320MOL0     H43192   1.716   2.488   5.167 -0.5455 -0.4338  0.2146
  320MOL0     H43193   1.591   2.602   5.225  0.4616  0.6177 -0.5334
  320MOL0     H43194   1.547   2.500   5.010 -0.4135 -1.3275 -0.5239
  320MOL0     H43195   1.549   2.331   5.071  0.7676  0.4454  1.5347
  320MOL0     H43196   1.174   2.405   5.213 -0.3011  0.5370 -0.3935
  320MOL0     H43197   1.780   2.686   5.686  1.5497 -0.9500  3.1151
  320MOL0     H43198   1.901   2.751   5.879  0.8073 -1.8412 -0.2786
  320MOL0     H43199   2.069   2.779   5.887  0.1693 -0.9411 -0.0358
  320MOL0     H43200   1.967   2.896   5.792 -2.2888  0.3134  0.5916
  321MOL0     O43201   9.723   4.760   1.283 -0.5754 -0.2140  0.0566
  321MOL0     C43202   9.726   4.761   1.160  0.2079  0.2325 -0.0191
  321MOL0     O43203   9.825   4.715   1.072 -0.6043  0.5018 -0.5726
  321MOL0     C43204   9.942   4.657   1.109 -0.2118  0.5348 -0.6427
  321MOL0     C43205   9.982   4.625   1.237  0.1519 -0.3294 -0.4385
  321MOL0     C43206  10.113   4.572   1.262  0.6709 -0.7110  0.7229
  321MOL0     C43207  10.202   4.554   1.157  0.1944  0.1859 -0.1469
  321MOL0     O43208  10.333   4.512   1.169  0.1930 -0.0243  0.3927
  321MOL0     C43209  10.395   4.499   1.295  0.3533 -0.0991 -0.2192
  321MOL0     C43210  10.525   4.424   1.277 -0.1349 -0.0178  0.5178
  321MOL0     C43211  10.633   4.455   1.391  0.0048  0.0903 -0.2401
  321MOL0     C43212  10.752   4.368   1.369 -0.2649 -0.5169  0.0621
  321MOL0     C43213  10.867   4.396   1.462 -0.3175  0.3034 -0.4936
  321MOL0     C43214  10.939   4.529   1.431  0.2379  0.3914  0.9277
  321MOL0     C43215  11.072   4.530   1.501 -0.8467 -0.6017 -0.3319
  321MOL0     C43216  11.137   4.667   1.488  0.4891  0.7895 -0.9126
  321MOL0     N43217  11.258   4.666   1.574  0.3133 -0.6786 -0.3882
  321MOL0     C43218  11.259   4.668   1.712 -0.1841  0.0815  0.0378
  321MOL0     C43219  11.394   4.653   1.740  0.6175  0.1518  0.2404
  321MOL0     C43220  11.464   4.627   1.874 -0.3024  0.2814  0.3245
  321MOL0     C43221  11.595   4.701   1.903  0.2000 -0.1619 -0.0477
  321MOL0     C43222  11.716   4.622   1.838  1.1921 -0.6317 -0.1157
  321MOL0     C43223  11.854   4.687   1.845  0.6642 -0.4114  0.2795
  321MOL0     O43224  11.900   4.696   1.981 -0.6431 -0.1831  1.0522
  321MOL0     C43225  12.008   4.788   2.008  0.4993  0.5585  0.1948
  321MOL0     C43226  12.095   4.849   1.917 -0.0300  0.1162 -0.6036
  321MOL0     C43227  12.200   4.926   1.968  0.5042  0.3646 -0.4796
  321MOL0     C43228  12.211   4.970   2.106 -1.0599  0.6508  0.9213
  321MOL0     C43229  12.320   5.056   2.157  0.2610  0.7365  0.3619
  321MOL0     O43230  12.412   5.090   2.072  0.6054 -0.7845  0.2082
  321MOL0     C43231  12.500   5.187   2.114 -0.9578  0.8458 -0.1322
  321MOL0     C43232  12.477   5.320   2.082 -0.0716  0.2788 -0.2652
  321MOL0     C43233  12.569   5.417   2.111 -0.8997  0.5852 -0.0920
  321MOL0     C43234  12.696   5.393   2.171  0.4295  0.5946  0.6404
  321MOL0     O43235  12.778   5.503   2.186 -0.5659  0.0047 -0.4395
  321MOL0     C43236  12.896   5.493   2.268 -0.5407  0.0223 -0.9120
  321MOL0     C43237  12.953   5.637   2.269 -0.6319 -0.5696 -0.0373
  321MOL0     C43238  13.079   5.649   2.352 -0.6123  0.0806 -0.9349
  321MOL0     C43239  13.164   5.770   2.326 -0.1409 -1.3020 -0.5837
  321MOL0     C43240  13.266   5.798   2.443  0.3861 -0.0366 -0.8243
  321MOL0     C43241  13.325   5.944   2.437 -0.5176  0.6189  0.1742
  321MOL0     C43242  13.371   6.005   2.302  0.1214 -0.2752 -0.0893
  321MOL0     C43243  13.492   5.925   2.248 -0.7798 -0.2901 -0.7452
  321MOL0    Cl43244  13.627   5.927   2.360  0.2743 -0.2910  0.1605
  321MOL0     C43245  12.717   5.259   2.201  0.0330 -0.2385  0.6349
  321MOL0     C43246  12.623   5.159   2.170  0.8044 -0.8141 -0.3278
  321MOL0     O43247  12.316   5.093   2.271  0.1296  0.0422 -0.3519
  321MOL0     C43248  12.121   4.904   2.188 -0.2871 -0.4464 -0.4445
  321MOL0     C43249  12.023   4.815   2.144  0.0821 -0.2985 -0.2523
  321MOL0     N43250  11.466   4.649   1.625  0.2991  0.3363  0.2569
  321MOL0     N43251  11.387   4.651   1.523 -0.2481 -0.7538  0.1440
  321MOL0     C43252  10.157   4.591   1.032  0.3823  0.1838  0.1690
  321MOL0     C43253  10.029   4.640   1.006 -0.1244 -0.5165 -0.3773
  321MOL0     C43254   9.594   4.792   1.091 -0.2074  0.0177  0.5710
  321MOL0     C43255   9.565   4.730   0.969 -0.5643  0.4441 -0.3902
  321MOL0     C43256   9.444   4.758   0.897 -0.2971  0.2900  0.1101
  321MOL0     C43257   9.358   4.857   0.936 -0.2373 -0.1758 -0.2675
  321MOL0     O43258   9.242   4.901   0.874 -0.1885 -0.6337  0.2240
  321MOL0     C43259   9.203   4.831   0.755 -0.1482  0.0609 -0.5974
  321MOL0     C43260   9.189   4.937   0.651  1.0622 -0.1127 -0.0805
  321MOL0     C43261   9.129   4.873   0.525  0.6075  0.2838  0.1558
  321MOL0     C43262   9.110   4.972   0.405  0.1435 -0.6063 -0.6356
  321MOL0     C43263   8.981   5.030   0.412 -0.2372 -0.2899  0.6612
  321MOL0     C43264   8.880   5.083   0.428 -0.2549 -0.4585 -0.6342
  321MOL0     C43265   9.382   4.918   1.057 -0.1222  0.7614 -0.4928
  321MOL0     C43266   9.492   4.874   1.143  0.4492  0.2794  0.1123
  321MOL0     C43267   9.505   4.944   1.277 -0.0980 -0.4220 -0.3709
  321MOL0     H43268   9.909   4.629   1.317  0.1750 -2.9948 -0.2030
  321MOL0     H43269  10.147   4.561   1.365 -1.7462 -0.1783  1.6456
  321MOL0     H43270  10.418   4.598   1.333 -2.5573  0.4612  0.3239
  321MOL0     H43271  10.331   4.452   1.370  0.6968 -1.6884 -0.8641
  321MOL0     H43272  10.556   4.448   1.175  0.4230  0.7119  0.8527
  321MOL0     H43273  10.502   4.317   1.269 -0.7168 -0.0380  2.0575
  321MOL0     H43274  10.594   4.454   1.493  1.3051  3.1560  0.3984
  321MOL0     H43275  10.653   4.563   1.391  0.2096  0.1677 -3.5178
  321MOL0     H43276  10.721   4.263   1.370 -2.0266 -0.0137  0.0502
  321MOL0     H43277  10.787   4.386   1.267 -1.6418  1.8275 -0.0686
  321MOL0     H43278  10.831   4.399   1.565  0.9148  2.2190 -0.0769
  321MOL0     H43279  10.936   4.312   1.447 -1.2297 -0.5383 -0.0718
  321MOL0     H43280  10.962   4.537   1.324 -2.0674 -0.7450  0.2823
  321MOL0     H43281  10.873   4.613   1.455 -2.3488 -0.5812 -2.0214
  321MOL0     H43282  11.135   4.451   1.461 -0.0197 -0.9658  1.6055
  321MOL0     H43283  11.060   4.517   1.609  2.3689  0.0083  0.1971
  321MOL0     H43284  11.156   4.671   1.381 -2.1078 -3.2210 -1.7800
  321MOL0     H43285  11.057   4.738   1.511  1.6361  2.1017 -0.9163
  321MOL0     H43286  11.178   4.659   1.784 -1.3706  0.1908 -1.2472
  321MOL0     H43287  11.387   4.656   1.946 -0.1727 -3.2234  2.0561
  321MOL0     H43288  11.474   4.518   1.879 -0.5521  0.2926  1.1467
  321MOL0     H43289  11.590   4.808   1.879  0.0137  0.3857  2.1979
  321MOL0     H43290  11.613   4.708   2.011 -0.8317  1.0790  0.0627
  321MOL0     H43291  11.691   4.598   1.735  0.3382 -2.0459  0.4039
  321MOL0     H43292  11.732   4.528   1.892  2.5821 -0.0737  0.4920
  321MOL0     H43293  11.855   4.781   1.790  3.9908 -0.9724 -0.8769
  321MOL0     H43294  11.926   4.628   1.787 -0.4102 -1.9236  0.4077
  321MOL0     H43295  12.106   4.820   1.813 -1.0087 -2.2947 -0.1116
  321MOL0     H43296  12.266   4.974   1.897 -2.2217  2.2657 -1.9156
  321MOL0     H43297  12.383   5.341   2.033 -1.8855 -0.8461  2.4564
  321MOL0     H43298  12.554   5.524   2.102  0.0382  0.6953 -0.4690
  321MOL0     H43299  12.870   5.451   2.365  1.9516  0.8940  0.2080
  321MOL0     H43300  12.973   5.427   2.227  3.0084  2.3660  1.4490
  321MOL0     H43301  12.982   5.657   2.166  0.8988 -0.2505  0.4266
  321MOL0     H43302  12.883   5.714   2.304 -0.4993 -0.1446 -0.6869
  321MOL0     H43303  13.043   5.651   2.455  0.5721  1.3344 -0.5120
  321MOL0     H43304  13.147   5.565   2.337  0.2397  1.0727 -3.0494
  321MOL0     H43305  13.099   5.858   2.315  0.1071 -0.7960  1.5156
  321MOL0     H43306  13.214   5.768   2.229 -0.3759  1.9938 -0.9112
  321MOL0     H43307  13.343   5.719   2.444 -0.1736 -0.6722  2.3058
  321MOL0     H43308  13.223   5.790   2.543  0.5643 -0.3926 -0.7713
  321MOL0     H43309  13.249   6.015   2.471  0.0542  1.3504 -0.0290
  321MOL0     H43310  13.405   5.947   2.511 -0.2844  0.2976 -0.0639
  321MOL0     H43311  13.394   6.112   2.305  2.3389 -0.7326  0.7264
  321MOL0     H43312  13.293   5.993   2.226 -0.3122 -2.4964  0.6504
  321MOL0     H43313  13.462   5.820   2.234 -0.4883 -0.6713  1.1418
  321MOL0     H43314  13.528   5.965   2.153 -0.5861 -2.7446 -1.7874
  321MOL0     H43315  12.808   5.235   2.254 -0.4078 -0.3222  1.3707
  321MOL0     H43316  12.644   5.055   2.190 -1.2277 -1.1914  0.0456
  321MOL0     H43317  12.115   4.920   2.295  2.6047 -1.6907 -0.0192
  321MOL0     H43318  11.949   4.785   2.217 -1.5526  1.9423 -0.8837
  321MOL0     H43319  10.222   4.588   0.945  0.0313  0.4165 -0.1032
  321MOL0     H43320   9.999   4.673   0.907 -1.9829  2.2575  0.9839
  321MOL0     H43321   9.631   4.660   0.919 -1.9769 -1.0945 -0.2049
  321MOL0     H43322   9.440   4.702   0.804 -0.0081  2.3509 -1.1883
  321MOL0     H43323   9.105   4.786   0.768  0.8660 -2.1080 -0.0450
  321MOL0     H43324   9.259   4.745   0.717  1.2206 -0.2665  1.9261
  321MOL0     H43325   9.283   4.991   0.639 -0.0401  2.9267  3.1804
  321MOL0     H43326   9.125   5.019   0.686  1.4018 -0.6525  1.9118
  321MOL0     H43327   9.029   4.833   0.544  0.5323 -0.1561 -1.0985
  321MOL0     H43328   9.201   4.794   0.500 -1.2086 -1.3681 -0.0456
  321MOL0     H43329   9.190   5.046   0.401 -0.3342  0.0632  1.3276
  321MOL0     H43330   9.097   4.915   0.312  0.2624 -1.9345  0.1313
  321MOL0     H43331   8.803   5.155   0.446  1.9307  1.9210 -0.0654
  321MOL0     H43332   9.309   4.993   1.083  0.8892  1.9862 -1.0863
  321MOL0     H43333   9.608   4.973   1.301  0.0406 -1.7515  0.7815
  321MOL0     H43334   9.440   5.031   1.274 -2.9796 -2.4119 -0.0353
  321MOL0     H43335   9.461   4.885   1.358 -0.4117 -0.5327 -0.6199
  322MOL0     O43336   2.067   8.122   4.696 -0.3274  0.1907  0.0499
  322MOL0     C43337   2.015   8.234   4.722  0.7328  0.5279 -0.5962
  322MOL0     O43338   2.082   8.349   4.766  0.1821  0.0602  0.0255
  322MOL0     C43339   2.219   8.351   4.762  0.0712  0.0893 -0.2848
  322MOL0     C43340   2.280   8.468   4.717 -0.1682  0.3595  1.0134
  322MOL0     C43341   2.422   8.478   4.709  0.4591 -0.5298  0.3407
  322MOL0     C43342   2.503   8.377   4.763 -0.0717  0.4960  0.1863
  322MOL0     O43343   2.637   8.387   4.743 -0.3711 -0.6795 -0.2360
  322MOL0     C43344   2.712   8.304   4.832 -0.6381  0.9565  0.6707
  322MOL0     C43345   2.855   8.343   4.838  0.7291 -1.3970 -0.7699
  322MOL0     C43346   2.942   8.273   4.741  0.7710  0.2754 -0.1298
  322MOL0     C43347   3.078   8.314   4.777  0.3335 -0.4121 -0.2799
  322MOL0     C43348   3.182   8.256   4.673 -0.4440 -0.1797 -0.2087
  322MOL0     C43349   3.326   8.297   4.712  0.9680  0.2925 -1.0461
  322MOL0     C43350   3.434   8.220   4.639  0.5076  0.5959 -0.2413
  322MOL0     C43351   3.553   8.310   4.593 -0.2940  0.0323 -0.5162
  322MOL0     N43352   3.618   8.366   4.710  0.3260  1.7838  0.0566
  322MOL0     C43353   3.686   8.287   4.793 -0.0073  0.4103  0.0931
  322MOL0     C43354   3.740   8.369   4.883 -0.8793 -0.9184  0.6746
  322MOL0     C43355   3.853   8.336   4.973  1.5709  0.2222  0.0789
  322MOL0     C43356   3.810   8.358   5.118 -0.3729 -0.7590 -0.6101
  322MOL0     C43357   3.922   8.334   5.223 -0.4927  0.2608  0.0531
  322MOL0     C43358   4.058   8.410   5.203 -0.0778  0.8435  0.0091
  322MOL0     O43359   4.147   8.347   5.106 -0.8045  0.2824  0.0373
  322MOL0     C43360   4.278   8.387   5.100 -0.6093  0.2125 -1.2784
  322MOL0     C43361   4.376   8.284   5.075 -0.2407 -0.3429 -0.5207
  322MOL0     C43362   4.512   8.322   5.072  0.0993 -0.3103 -0.5888
  322MOL0     C43363   4.557   8.463   5.079 -0.4759  0.2373 -0.1645
  322MOL0     C43364   4.692   8.496   5.094  0.3888 -0.7862  0.6542
  322MOL0     O43365   4.777   8.396   5.133  0.4433 -0.3720  0.0443
  322MOL0     C43366   4.907   8.419   5.164 -0.4332  0.4601 -0.4340
  322MOL0     C43367   5.012   8.348   5.110 -0.1878  0.5444 -0.8752
  322MOL0     C43368   5.147   8.384   5.146  0.6411  0.5697  0.4664
  322MOL0     C43369   5.178   8.469   5.244  1.0500 -0.1512  0.3976
  322MOL0     O43370   5.308   8.481   5.284 -0.1789  0.8380  0.1692
  322MOL0     C43371   5.352   8.614   5.305  0.1668  0.4975 -0.3353
  322MOL0     C43372   5.502   8.609   5.314 -0.9766 -0.0132 -0.4086
  322MOL0     C43373   5.559   8.580   5.462 -0.1748 -0.0317 -0.0320
  322MOL0     C43374   5.560   8.431   5.501 -1.2183 -0.1848  0.2738
  322MOL0     C43375   5.658   8.398   5.610  0.1601 -0.5354  0.1100
  322MOL0     C43376   5.677   8.240   5.622  0.2294  0.1700  0.1529
  322MOL0     C43377   5.554   8.170   5.660 -0.0946 -0.0239 -0.0013
  322MOL0     C43378   5.583   8.022   5.693 -0.5745  0.3671  0.6338
  322MOL0    Cl43379   5.446   7.939   5.772  0.0668  0.2685  0.2685
  322MOL0     C43380   5.065   8.546   5.297  0.1592 -0.3095 -1.0497
  322MOL0     C43381   4.932   8.525   5.258 -0.0933  0.3892  0.2136
  322MOL0     O43382   4.728   8.612   5.064 -0.0264  0.4999  0.3274
  322MOL0     C43383   4.460   8.557   5.097 -0.0023 -0.5351 -0.4976
  322MOL0     C43384   4.323   8.520   5.102 -0.0007 -0.0118  0.1468
  322MOL0     N43385   3.691   8.504   4.856  0.1459  0.4542 -0.1824
  322MOL0     N43386   3.617   8.495   4.749  0.7316  0.1276  0.3544
  322MOL0     C43387   2.439   8.265   4.823  0.8596  0.1743 -0.2484
  322MOL0     C43388   2.296   8.255   4.821 -0.5430  0.3740 -0.0964
  322MOL0     C43389   1.864   8.246   4.731 -0.4235 -0.7062  0.4347
  322MOL0     C43390   1.810   8.364   4.789  0.4372  0.4758 -0.1935
  322MOL0     C43391   1.674   8.379   4.803  0.1093  0.4583  0.0950
  322MOL0     C43392   1.578   8.287   4.760  0.3826  0.1560 -0.3972
  322MOL0     O43393   1.445   8.321   4.773  0.2558 -0.5444  0.6034
  322MOL0     C43394   1.343   8.233   4.760 -0.2392  0.1432 -0.2835
  322MOL0     C43395   1.330   8.142   4.881 -0.8384  0.3026 -0.1169
  322MOL0     C43396   1.274   8.193   5.009  0.4032 -0.0118  0.6262
  322MOL0     C43397   1.126   8.228   5.007  0.7521 -0.2256 -0.4715
  322MOL0     C43398   1.109   8.318   5.120  0.6278  0.1531 -0.0682
  322MOL0     C43399   1.086   8.399   5.209 -0.4222  0.7546  0.2466
  322MOL0     C43400   1.631   8.165   4.708 -0.1853 -0.5880 -0.4501
  322MOL0     C43401   1.768   8.156   4.683 -0.0139  0.5429 -0.2353
  322MOL0     C43402   1.801   8.041   4.597 -0.0823 -0.3615 -0.5408
  322MOL0     H43403   2.213   8.547   4.685 -0.5351  0.0558  1.0223
  322MOL0     H43404   2.476   8.559   4.661 -1.2440  0.8439  0.6289
  322MOL0     H43405   2.673   8.320   4.933 -0.0822  2.7150  0.6556
  322MOL0     H43406   2.701   8.198   4.806  2.7659  0.4702  0.7126
  322MOL0     H43407   2.899   8.322   4.937  0.1285  1.9533  0.3354
  322MOL0     H43408   2.860   8.451   4.825 -2.5687 -0.8394  1.2953
  322MOL0     H43409   2.928   8.298   4.636  1.6494  0.3595 -0.2370
  322MOL0     H43410   2.928   8.165   4.753 -1.0160  0.2927 -1.6502
  322MOL0     H43411   3.090   8.422   4.771 -0.9502 -0.2654 -0.4287
  322MOL0     H43412   3.102   8.278   4.877 -0.6975  0.7853  0.4208
  322MOL0     H43413   3.171   8.148   4.660 -0.4799 -0.1710 -0.2620
  322MOL0     H43414   3.157   8.293   4.573  1.1209  1.9233  0.1246
  322MOL0     H43415   3.339   8.405   4.697 -1.8681  0.7972 -0.5071
  322MOL0     H43416   3.337   8.282   4.820  0.1630  1.3349 -0.7981
  322MOL0     H43417   3.390   8.187   4.544 -0.3009 -1.1287  0.6874
  322MOL0     H43418   3.483   8.142   4.699 -1.5861  0.8067  1.8489
  322MOL0     H43419   3.621   8.247   4.535 -1.3901  0.8248 -2.8163
  322MOL0     H43420   3.522   8.393   4.528  2.6639  3.6604  2.2393
  322MOL0     H43421   3.707   8.180   4.799 -1.6949  0.1267  2.7303
  322MOL0     H43422   3.884   8.231   4.968  0.9333 -0.0367  1.2895
  322MOL0     H43423   3.943   8.390   4.940  2.1970 -0.8404 -0.0258
  322MOL0     H43424   3.781   8.464   5.124  1.6959 -0.1841  0.0288
  322MOL0     H43425   3.716   8.306   5.138  0.5175 -2.2162 -0.1507
  322MOL0     H43426   3.942   8.227   5.231 -0.5664  0.1199 -1.4267
  322MOL0     H43427   3.875   8.363   5.318  1.9124  1.9964  0.8244
  322MOL0     H43428   4.114   8.422   5.296  0.2017 -1.6304  0.2236
  322MOL0     H43429   4.024   8.506   5.164 -1.6630 -0.4452 -1.9680
  322MOL0     H43430   4.352   8.183   5.045 -1.2736 -0.2856  0.0677
  322MOL0     H43431   4.591   8.248   5.066  0.1044 -0.2161 -2.1450
  322MOL0     H43432   4.986   8.269   5.040 -1.2669  0.0430  0.0784
  322MOL0     H43433   5.213   8.320   5.087 -1.2700 -0.2991 -0.8382
  322MOL0     H43434   5.316   8.673   5.220 -0.8188  0.4837  0.0597
  322MOL0     H43435   5.309   8.656   5.396  0.2518  1.3271 -0.6639
  322MOL0     H43436   5.525   8.526   5.247 -0.3079 -1.3367  1.3724
  322MOL0     H43437   5.537   8.709   5.286 -0.3998  0.3464  1.4255
  322MOL0     H43438   5.661   8.620   5.465 -0.7950  1.6330  0.2553
  322MOL0     H43439   5.500   8.631   5.539  1.2251 -1.3507  2.0103
  322MOL0     H43440   5.600   8.373   5.417  1.4510 -0.0435  1.3646
  322MOL0     H43441   5.460   8.406   5.537 -1.4864 -0.7471 -0.8307
  322MOL0     H43442   5.612   8.432   5.704  2.3651 -3.4579  2.4551
  322MOL0     H43443   5.751   8.452   5.590 -1.1556  1.5140 -0.7908
  322MOL0     H43444   5.709   8.198   5.526 -4.2050 -0.6723 -1.1858
  322MOL0     H43445   5.757   8.219   5.693  0.3537  1.2236  0.3390
  322MOL0     H43446   5.483   8.178   5.577 -1.0198 -1.2198  0.6519
  322MOL0     H43447   5.512   8.219   5.748  1.4258 -0.0244  0.7666
  322MOL0     H43448   5.619   7.966   5.607  0.0635  1.5167  0.1260
  322MOL0     H43449   5.667   8.010   5.762 -1.8331 -0.8280  2.0066
  322MOL0     H43450   5.075   8.624   5.372  4.0056 -0.1580 -1.5395
  322MOL0     H43451   4.859   8.589   5.307 -1.2093 -0.3779 -0.4225
  322MOL0     H43452   4.483   8.663   5.109 -0.0480 -0.6713  1.0581
  322MOL0     H43453   4.245   8.595   5.112 -1.3435 -1.5657  2.1424
  322MOL0     H43454   2.489   8.191   4.884  0.9816  2.0713  2.0690
  322MOL0     H43455   2.249   8.168   4.867 -0.2506  0.9093  1.2556
  322MOL0     H43456   1.881   8.438   4.826  1.9615 -1.4197  0.8392
  322MOL0     H43457   1.638   8.474   4.842  0.5465  1.2355 -1.3089
  322MOL0     H43458   1.371   8.166   4.677  2.6615 -1.6797  1.9495
  322MOL0     H43459   1.249   8.288   4.755 -0.2105  0.5785  2.5352
  322MOL0     H43460   1.428   8.100   4.908 -0.0041  0.3684 -2.7426
  322MOL0     H43461   1.267   8.058   4.854 -1.5676  1.1166 -1.0233
  322MOL0     H43462   1.339   8.278   5.031 -0.1542  0.4563  0.4818
  322MOL0     H43463   1.292   8.120   5.089  1.0500  0.3201  0.7860
  322MOL0     H43464   1.092   8.280   4.917 -1.8437  1.2133  1.1823
  322MOL0     H43465   1.070   8.135   5.018  1.4566 -0.6664 -0.5752
  322MOL0     H43466   1.069   8.459   5.296 -3.0114 -0.8187  0.9427
  322MOL0     H43467   1.574   8.080   4.672  2.2776 -2.0586 -1.1603
  322MOL0     H43468   1.867   8.068   4.514 -0.0176 -1.1750 -0.7613
  322MOL0     H43469   1.853   7.969   4.660  1.6121 -0.7858 -2.3252
  322MOL0     H43470   1.707   8.001   4.556 -0.6880  1.2154 -0.7595
  323MOL0     O43471  10.028   0.452   7.478  1.2055 -0.1270 -0.0013
  323MOL0     C43472  10.043   0.475   7.598  0.2043  0.0614  0.2519
  323MOL0     O43473  10.120   0.567   7.650  0.1994  0.6480 -0.2931
  323MOL0     C43474  10.211   0.632   7.570 -0.2410  0.7368  0.5088
  323MOL0     C43475  10.293   0.572   7.476  0.4278  0.7402 -0.2449
  323MOL0     C43476  10.398   0.652   7.419 -0.4484  0.2967  0.2073
  323MOL0     C43477  10.421   0.788   7.446  0.4015 -0.0533 -0.6846
  323MOL0     O43478  10.517   0.875   7.405  0.1493  0.1113 -0.1462
  323MOL0     C43479  10.638   0.813   7.357  0.3770  0.5810  0.3029
  323MOL0     C43480  10.722   0.938   7.322  1.0136  1.1213 -0.1043
  323MOL0     C43481  10.853   0.899   7.255  0.3881  0.3462  0.3418
  323MOL0     C43482  10.934   1.024   7.245 -0.6451 -0.4471 -0.1968
  323MOL0     C43483  11.066   1.010   7.169  0.5983  1.0458 -0.0244
  323MOL0     C43484  11.162   0.902   7.212  0.9572 -0.4462  0.0460
  323MOL0     C43485  11.300   0.918   7.153 -0.1505  0.8412  0.0124
  323MOL0     C43486  11.301   0.886   7.004  0.3593  1.0142  0.1807
  323MOL0     N43487  11.414   0.926   6.912 -0.0870 -0.6050 -0.1464
  323MOL0     C43488  11.470   1.055   6.932 -0.1982  0.1409  0.3390
  323MOL0     C43489  11.594   1.031   6.875  0.1374 -0.4243 -1.0026
  323MOL0     C43490  11.690   1.151   6.869 -0.0912 -1.0573 -0.6280
  323MOL0     C43491  11.815   1.113   6.785 -0.3193  0.1686 -0.3870
  323MOL0     C43492  11.943   1.195   6.783  0.2628  0.0447 -0.6440
  323MOL0     C43493  11.986   1.260   6.916 -0.5670  0.2331 -0.3115
  323MOL0     O43494  12.104   1.350   6.908 -0.0204  0.2046  0.3982
  323MOL0     C43495  12.231   1.304   6.885 -1.0828  0.4739 -0.1241
  323MOL0     C43496  12.281   1.172   6.855 -0.5481  0.9267 -0.2376
  323MOL0     C43497  12.412   1.138   6.845 -0.4068 -0.6593  0.4723
  323MOL0     C43498  12.510   1.242   6.846 -0.3989  0.0022  0.3445
  323MOL0     C43499  12.656   1.215   6.842  0.5550  1.1994 -0.2116
  323MOL0     O43500  12.741   1.314   6.860  0.2970 -0.0134 -0.0710
  323MOL0     C43501  12.878   1.291   6.837 -0.3977 -0.1837  0.2854
  323MOL0     C43502  12.937   1.366   6.730 -0.3401  0.3071 -0.7646
  323MOL0     C43503  13.076   1.369   6.718  0.0381  0.5290 -0.7438
  323MOL0     C43504  13.156   1.282   6.799  1.0133  0.0368  0.1311
  323MOL0     O43505  13.291   1.281   6.809 -0.0311  0.0618  0.7712
  323MOL0     C43506  13.360   1.346   6.704  0.1537  0.0444  1.2777
  323MOL0     C43507  13.511   1.359   6.724 -0.7689 -0.4470  0.3369
  323MOL0     C43508  13.577   1.424   6.606 -0.3449  0.1918  0.3249
  323MOL0     C43509  13.734   1.423   6.619  0.7004 -0.0320  0.3380
  323MOL0     C43510  13.783   1.521   6.734  0.2140 -0.0483 -0.3604
  323MOL0     C43511  13.943   1.525   6.711 -0.2692  0.2972 -0.2876
  323MOL0     C43512  14.001   1.611   6.823 -0.4647  0.2067  0.0711
  323MOL0     C43513  14.156   1.609   6.818  0.6424 -0.7147 -0.0310
  323MOL0    Cl43514  14.220   1.770   6.762 -0.0357 -0.1531 -0.3764
  323MOL0     C43515  13.090   1.195   6.883  0.0014  0.4762  0.0617
  323MOL0     C43516  12.956   1.202   6.911 -0.3543 -0.1324 -0.6200
  323MOL0     O43517  12.686   1.099   6.804  0.0730  0.2073 -0.0431
  323MOL0     C43518  12.462   1.371   6.855 -0.1433  0.7480 -0.2622
  323MOL0     C43519  12.336   1.400   6.881 -0.0943  0.2595 -0.5218
  323MOL0     N43520  11.603   0.908   6.814  0.3336  0.6563  0.0798
  323MOL0     N43521  11.489   0.840   6.833 -0.4401  0.6709 -0.2723
  323MOL0     C43522  10.332   0.848   7.532  0.2968  0.0947  0.6460
  323MOL0     C43523  10.225   0.770   7.594  0.0657  0.1013 -0.0791
  323MOL0     C43524   9.967   0.400   7.700 -0.3896 -0.0087 -0.3374
  323MOL0     C43525   9.983   0.432   7.831 -0.9590 -0.1399 -0.7364
  323MOL0     C43526   9.916   0.376   7.940  0.1009  0.3931  0.0830
  323MOL0     C43527   9.828   0.275   7.909 -0.3766 -0.3483 -0.4915
  323MOL0     O43528   9.762   0.203   8.008  0.6384  0.3948  0.0534
  323MOL0     C43529   9.640   0.265   8.035  0.0140 -1.0873 -0.2963
  323MOL0     C43530   9.536   0.277   7.917 -0.3364  0.2473 -0.4928
  323MOL0     C43531   9.400   0.317   7.979  0.7760 -0.5617 -0.0819
  323MOL0     C43532   9.334   0.216   8.080  0.6264 -0.7945  0.7967
  323MOL0     C43533   9.196   0.246   8.112  0.2221 -0.0060  0.9257
  323MOL0     C43534   9.083   0.257   8.140 -0.7719  0.5772 -0.2502
  323MOL0     C43535   9.816   0.234   7.782  0.2072  0.4544  0.3490
  323MOL0     C43536   9.874   0.299   7.669 -0.1811  0.1590  0.1271
  323MOL0     C43537   9.821   0.271   7.527  0.3637  0.1411  0.5258
  323MOL0     H43538  10.275   0.470   7.443 -3.3353  1.4460 -0.7816
  323MOL0     H43539  10.456   0.592   7.350 -0.8374  0.3682 -0.1840
  323MOL0     H43540  10.679   0.755   7.441 -2.6933 -0.0508  1.5003
  323MOL0     H43541  10.621   0.742   7.276  0.0143  0.7870  0.1967
  323MOL0     H43542  10.749   0.984   7.417  1.0430  0.2312  0.3215
  323MOL0     H43543  10.667   1.011   7.261 -1.6570 -0.0260  0.7933
  323MOL0     H43544  10.842   0.870   7.150 -0.6748 -0.6110  0.6947
  323MOL0     H43545  10.909   0.821   7.307  0.8776  1.9592  2.3868
  323MOL0     H43546  10.881   1.109   7.203  0.7413  0.9896  0.8171
  323MOL0     H43547  10.952   1.045   7.351  0.8904 -2.9190  0.1187
  323MOL0     H43548  11.035   0.995   7.065 -1.5006 -1.1490  0.8090
  323MOL0     H43549  11.119   1.105   7.168  0.9275  0.9038  1.7484
  323MOL0     H43550  11.159   0.904   7.321 -1.7888  0.0854  0.0328
  323MOL0     H43551  11.108   0.809   7.191 -1.2003  0.7877 -0.1009
  323MOL0     H43552  11.363   0.840   7.198 -2.7590 -1.2762  0.2359
  323MOL0     H43553  11.340   1.016   7.179 -0.2546  0.3560  2.2113
  323MOL0     H43554  11.286   0.779   6.989 -1.5962  1.2440  0.2382
  323MOL0     H43555  11.223   0.942   6.951  1.7987  1.8920 -1.1468
  323MOL0     H43556  11.440   1.144   6.987  3.4404  0.8423  1.4838
  323MOL0     H43557  11.644   1.241   6.828 -0.8962  0.2674  2.8166
  323MOL0     H43558  11.718   1.174   6.972 -0.2779  2.0591 -1.1527
  323MOL0     H43559  11.851   1.018   6.825 -0.6402 -0.9233 -2.5357
  323MOL0     H43560  11.778   1.081   6.687 -2.1200 -1.9600  0.8694
  323MOL0     H43561  11.936   1.278   6.711  1.8419  0.4203 -0.3875
  323MOL0     H43562  12.016   1.126   6.740  1.4632 -0.0460  1.4551
  323MOL0     H43563  12.011   1.169   6.973 -3.4971 -1.4198 -1.4457
  323MOL0     H43564  11.896   1.306   6.956 -0.1059  2.1496 -1.3562
  323MOL0     H43565  12.208   1.092   6.846 -1.0173  1.4559 -1.3340
  323MOL0     H43566  12.441   1.034   6.830  0.0842 -0.6419  1.2181
  323MOL0     H43567  12.881   1.436   6.670  1.3237  1.8211 -0.6263
  323MOL0     H43568  13.137   1.435   6.656  1.7239  1.9200  2.1660
  323MOL0     H43569  13.347   1.294   6.609 -0.8895  2.4568  0.0005
  323MOL0     H43570  13.318   1.447   6.710 -1.0898 -0.3267 -0.4951
  323MOL0     H43571  13.534   1.422   6.811  1.2922 -1.3839  0.5147
  323MOL0     H43572  13.561   1.263   6.737  1.3151  0.5822  0.3526
  323MOL0     H43573  13.549   1.377   6.511  0.6280  0.2181  0.0059
  323MOL0     H43574  13.539   1.526   6.609 -0.2141  0.2351  0.4832
  323MOL0     H43575  13.771   1.462   6.524  1.9031 -1.3983  0.2104
  323MOL0     H43576  13.767   1.319   6.628  0.8597  0.0552  0.7845
  323MOL0     H43577  13.777   1.481   6.836  1.3847  2.5765  0.8301
  323MOL0     H43578  13.732   1.617   6.742  0.0436 -0.0937 -0.9057
  323MOL0     H43579  13.978   1.421   6.710  0.4965  0.5393  0.4798
  323MOL0     H43580  13.966   1.568   6.614 -0.1540  0.2578 -0.2774
  323MOL0     H43581  13.968   1.588   6.924  1.0097 -0.0672  0.5241
  323MOL0     H43582  13.962   1.713   6.814 -2.1916 -0.4126  0.3281
  323MOL0     H43583  14.212   1.585   6.909 -1.3276 -1.3516  1.0812
  323MOL0     H43584  14.189   1.527   6.754  1.4984 -1.2275  1.0199
  323MOL0     H43585  13.147   1.118   6.934 -0.0475  0.2853 -0.1723
  323MOL0     H43586  12.914   1.132   6.983 -0.0602  2.5962  2.4216
  323MOL0     H43587  12.537   1.449   6.848  0.2255  0.5604  1.3581
  323MOL0     H43588  12.306   1.503   6.896  1.8143  0.6221  1.2175
  323MOL0     H43589  10.346   0.950   7.567 -0.5010  0.3657  0.1881
  323MOL0     H43590  10.149   0.818   7.654 -1.7627 -0.4459 -1.8477
  323MOL0     H43591  10.047   0.513   7.864 -2.2701  0.4550  0.4836
  323MOL0     H43592   9.921   0.403   8.045  2.4006  0.3880  0.0241
  323MOL0     H43593   9.657   0.363   8.081  0.9131 -1.3681 -0.0069
  323MOL0     H43594   9.607   0.192   8.109 -0.0448 -1.5456 -0.7735
  323MOL0     H43595   9.528   0.174   7.881  0.1403 -0.6177  1.7329
  323MOL0     H43596   9.558   0.350   7.839 -2.7505  0.9352 -0.6141
  323MOL0     H43597   9.325   0.341   7.903 -1.6717  2.9860  3.0794
  323MOL0     H43598   9.413   0.415   8.025 -0.1804  0.6450 -2.2241
  323MOL0     H43599   9.334   0.117   8.034  2.4913  0.1831 -1.5571
  323MOL0     H43600   9.386   0.203   8.175  0.9514 -1.0682  0.5837
  323MOL0     H43601   8.976   0.262   8.140 -0.8818  2.1594 -4.4822
  323MOL0     H43602   9.739   0.158   7.780  1.8522 -1.4551  2.7477
  323MOL0     H43603   9.734   0.205   7.524  1.1950 -1.0404  1.2762
  323MOL0     H43604   9.790   0.370   7.495  2.7405  2.0016  3.4173
  323MOL0     H43605   9.897   0.233   7.457 -1.5936 -2.0332 -0.5517
  324MOL0     O43606   6.267   4.728   4.339  0.4515  0.1584  0.5067
  324MOL0     C43607   6.227   4.843   4.338  0.0911 -0.2634  0.1626
  324MOL0     O43608   6.303   4.954   4.340 -1.0738  0.3471 -0.3912
  324MOL0     C43609   6.436   4.929   4.305 -0.1099 -0.0866  0.2120
  324MOL0     C43610   6.519   4.860   4.397 -0.6257  0.2251  0.3689
  324MOL0     C43611   6.652   4.861   4.364 -0.6398 -0.2605  0.9341
  324MOL0     C43612   6.714   4.918   4.254 -0.0182  0.3759 -0.6232
  324MOL0     O43613   6.849   4.919   4.237  0.2337  0.2451 -1.3957
  324MOL0     C43614   6.897   4.852   4.124  0.2475 -0.8368  0.5808
  324MOL0     C43615   7.049   4.881   4.126  0.3869  1.2651  0.2933
  324MOL0     C43616   7.096   4.997   4.042  0.2536  0.0638 -0.3392
  324MOL0     C43617   7.247   4.993   4.038  0.5434 -0.2259 -0.7490
  324MOL0     C43618   7.299   5.059   3.907  0.5334  0.7554  0.3713
  324MOL0     C43619   7.444   5.086   3.899  0.1883 -0.1817  0.4076
  324MOL0     C43620   7.534   4.964   3.927  0.1166 -0.0991 -0.1039
  324MOL0     C43621   7.683   5.011   3.962  0.8152 -0.0306  1.3176
  324MOL0     N43622   7.747   5.069   3.850  0.0900 -0.5197 -0.1899
  324MOL0     C43623   7.737   5.197   3.812  0.9547 -0.9287  0.1407
  324MOL0     C43624   7.818   5.203   3.698  0.2738 -0.0837  0.0299
  324MOL0     C43625   7.837   5.311   3.602  0.3981 -0.3952 -0.0803
  324MOL0     C43626   7.871   5.440   3.672  0.4686  0.7567 -0.3372
  324MOL0     C43627   7.834   5.569   3.593 -0.1006  0.3581  0.4762
  324MOL0     C43628   7.942   5.621   3.499 -0.1886  0.1883  0.3730
  324MOL0     O43629   7.989   5.528   3.399  0.3184 -0.4140  0.6386
  324MOL0     C43630   8.116   5.480   3.404 -0.8672  0.5737 -0.2831
  324MOL0     C43631   8.238   5.558   3.436 -0.4192  0.4068  0.6052
  324MOL0     C43632   8.361   5.500   3.411  0.0469 -0.1338 -0.1390
  324MOL0     C43633   8.374   5.372   3.360 -0.2505 -0.4683  0.0084
  324MOL0     C43634   8.513   5.309   3.349  0.7540  1.2267 -0.1627
  324MOL0     O43635   8.615   5.366   3.424  0.3603  0.5720 -0.3062
  324MOL0     C43636   8.733   5.293   3.430 -0.1941 -0.3431  0.6729
  324MOL0     C43637   8.838   5.317   3.344  0.0263 -0.5293 -0.0184
  324MOL0     C43638   8.948   5.233   3.342 -0.2288 -0.1438 -0.8023
  324MOL0     C43639   8.958   5.125   3.435  0.8375  0.3209 -0.1305
  324MOL0     O43640   9.068   5.043   3.425  0.0691  0.2672 -0.2809
  324MOL0     C43641   9.083   4.939   3.519  0.1061 -0.2562  0.5006
  324MOL0     C43642   9.220   4.868   3.511 -0.5504  0.0186 -0.3247
  324MOL0     C43643   9.225   4.752   3.622 -0.0019 -0.3093  0.4184
  324MOL0     C43644   9.364   4.723   3.657  0.4831  0.4282 -0.7106
  324MOL0     C43645   9.396   4.647   3.786  0.7314 -0.2372  0.0537
  324MOL0     C43646   9.537   4.644   3.820 -0.8242  0.5486 -0.9734
  324MOL0     C43647   9.560   4.534   3.942 -0.3530  0.1083  0.6034
  324MOL0     C43648   9.705   4.515   3.990 -0.0537 -0.3490  0.8580
  324MOL0    Cl43649   9.802   4.495   3.842  0.0911  0.2205  0.2086
  324MOL0     C43650   8.852   5.105   3.533 -0.4843 -0.0081  0.1942
  324MOL0     C43651   8.743   5.189   3.527  1.3034  0.5270  0.0877
  324MOL0     O43652   8.521   5.211   3.278  0.2703  0.5008  0.8732
  324MOL0     C43653   8.256   5.297   3.322 -0.4356  0.1635  0.0256
  324MOL0     C43654   8.129   5.351   3.343  0.4108  0.0610 -0.0746
  324MOL0     N43655   7.873   5.078   3.678 -0.0321 -1.2812 -0.5810
  324MOL0     N43656   7.839   5.000   3.774 -0.0086 -0.3999  0.3131
  324MOL0     C43657   6.621   4.978   4.165  0.0453  0.3446 -0.0277
  324MOL0     C43658   6.485   4.982   4.191 -0.5534 -0.2916 -0.0470
  324MOL0     C43659   6.086   4.880   4.329  0.0165  0.0942  0.2677
  324MOL0     C43660   6.054   5.016   4.301 -0.2299  0.1854 -0.5525
  324MOL0     C43661   5.922   5.054   4.286  0.4487  0.6592 -0.8758
  324MOL0     C43662   5.817   4.956   4.298  0.8369  0.3499  0.6539
  324MOL0     O43663   5.683   4.998   4.300 -0.4433  0.1215 -0.1715
  324MOL0     C43664   5.646   5.107   4.215 -0.8885  0.5422  0.4882
  324MOL0     C43665   5.500   5.102   4.196  0.0593 -0.4281  0.0021
  324MOL0     C43666   5.425   5.125   4.332 -0.1620 -0.8666  0.0319
  324MOL0     C43667   5.280   5.133   4.300  0.3570  0.2329  0.6290
  324MOL0     C43668   5.203   5.175   4.428  0.3302  0.5657 -0.4143
  324MOL0     C43669   5.178   5.221   4.539 -0.4083 -0.7698 -0.5644
  324MOL0     C43670   5.849   4.823   4.332 -0.5133  0.0169  0.3781
  324MOL0     C43671   5.979   4.781   4.335 -0.0924 -0.0423  0.7818
  324MOL0     C43672   5.997   4.630   4.351 -0.0972  0.5768  0.3212
  324MOL0     H43673   6.474   4.809   4.482 -0.9112  1.4207  0.9551
  324MOL0     H43674   6.711   4.810   4.440  0.8994  1.6518  1.1148
  324MOL0     H43675   6.869   4.747   4.115 -1.7642 -0.5564  2.6325
  324MOL0     H43676   6.856   4.900   4.035  1.5113  1.4772  1.1705
  324MOL0     H43677   7.100   4.795   4.081  0.4364  2.5136 -2.1812
  324MOL0     H43678   7.082   4.897   4.229 -2.1528 -0.1278  1.4087
  324MOL0     H43679   7.064   5.092   4.086 -0.4490  0.7663 -2.2650
  324MOL0     H43680   7.046   4.987   3.945  0.1338 -3.0698 -0.0707
  324MOL0     H43681   7.291   5.033   4.130 -0.7547 -1.1855  0.3195
  324MOL0     H43682   7.287   4.891   4.029 -0.0066 -0.5504  0.3255
  324MOL0     H43683   7.266   5.002   3.820  0.7399  2.1806 -0.6725
  324MOL0     H43684   7.254   5.157   3.893  1.2300  1.2042  1.1638
  324MOL0     H43685   7.464   5.121   3.798 -1.2041  0.1346  0.2228
  324MOL0     H43686   7.459   5.163   3.976 -2.9165  0.3756  0.5941
  324MOL0     H43687   7.528   4.907   3.834  2.6185 -0.0109 -0.3915
  324MOL0     H43688   7.495   4.894   4.001  1.1077 -1.9519 -1.2347
  324MOL0     H43689   7.694   5.082   4.045 -1.9075 -0.1070  1.8348
  324MOL0     H43690   7.733   4.918   3.989 -0.6277 -1.5519 -0.9148
  324MOL0     H43691   7.675   5.275   3.855 -0.3780 -2.1299  0.4810
  324MOL0     H43692   7.919   5.289   3.533 -0.5387 -0.8650 -1.0584
  324MOL0     H43693   7.740   5.324   3.554 -0.1678  0.2122  1.1672
  324MOL0     H43694   7.825   5.438   3.771  0.2264 -0.6829 -0.4517
  324MOL0     H43695   7.978   5.433   3.697 -0.2236 -0.5114  2.7994
  324MOL0     H43696   7.799   5.648   3.660 -0.2031 -1.0478  2.1458
  324MOL0     H43697   7.748   5.544   3.530 -1.4608 -2.6739  3.2138
  324MOL0     H43698   8.030   5.659   3.551  0.2714 -0.5795  0.1626
  324MOL0     H43699   7.900   5.701   3.437  0.2365  0.5915  0.5999
  324MOL0     H43700   8.235   5.662   3.465  0.5972  0.9673 -1.1530
  324MOL0     H43701   8.449   5.561   3.432  1.5247 -2.0594 -0.4584
  324MOL0     H43702   8.817   5.388   3.265  2.6516 -0.9451 -1.1994
  324MOL0     H43703   9.029   5.243   3.271  1.9821  0.3012  1.6056
  324MOL0     H43704   9.069   4.982   3.618 -3.3261 -0.6447  0.3221
  324MOL0     H43705   9.007   4.861   3.508 -0.2583  0.4229 -2.9299
  324MOL0     H43706   9.232   4.833   3.408 -1.6409  1.4734 -0.9787
  324MOL0     H43707   9.298   4.945   3.514  0.5659 -0.4702 -5.7345
  324MOL0     H43708   9.154   4.777   3.701 -0.8254 -2.9131  0.6160
  324MOL0     H43709   9.192   4.655   3.583 -0.8201  0.4957 -1.0045
  324MOL0     H43710   9.403   4.822   3.681  1.4459 -0.2961  0.8099
  324MOL0     H43711   9.411   4.671   3.573 -1.4489 -0.6518 -1.1895
  324MOL0     H43712   9.355   4.547   3.768 -0.0659  0.0050  0.4786
  324MOL0     H43713   9.342   4.698   3.865  2.5675 -0.4915  1.5363
  324MOL0     H43714   9.593   4.625   3.728 -1.0759  3.5084 -1.8686
  324MOL0     H43715   9.573   4.741   3.855  1.1821 -1.4989  3.2694
  324MOL0     H43716   9.520   4.436   3.914  0.5624  0.4406 -2.1877
  324MOL0     H43717   9.503   4.573   4.027 -0.6063  1.0693  0.0103
  324MOL0     H43718   9.741   4.602   4.046 -1.0373  1.8734 -1.7415
  324MOL0     H43719   9.712   4.430   4.059 -2.7789 -1.0856  0.3702
  324MOL0     H43720   8.848   5.027   3.608  0.2372 -1.8737 -1.6271
  324MOL0     H43721   8.665   5.182   3.602  1.1574  1.0914 -0.0053
  324MOL0     H43722   8.257   5.196   3.282 -2.0794 -0.1152  0.6428
  324MOL0     H43723   8.040   5.300   3.308  0.0762  0.1982  0.5634
  324MOL0     H43724   6.658   5.015   4.069 -1.0825  2.1176  0.1898
  324MOL0     H43725   6.409   5.013   4.121 -1.5217 -3.4995 -0.5937
  324MOL0     H43726   6.123   5.100   4.303 -1.9499  1.6969 -1.9902
  324MOL0     H43727   5.888   5.156   4.277 -1.3088  0.1528 -0.4901
  324MOL0     H43728   5.698   5.096   4.120 -0.8753  0.9276  0.4488
  324MOL0     H43729   5.681   5.207   4.240  1.5967  0.8568 -3.4716
  324MOL0     H43730   5.467   5.005   4.156 -2.3935  0.4198 -0.1929
  324MOL0     H43731   5.467   5.184   4.132 -1.8291  1.3214  2.9898
  324MOL0     H43732   5.458   5.216   4.382 -2.7126  0.6742 -0.8447
  324MOL0     H43733   5.447   5.044   4.402  1.1813  2.0030  3.2164
  324MOL0     H43734   5.258   5.209   4.224 -0.8882  0.4388  1.1732
  324MOL0     H43735   5.237   5.037   4.273  1.0967 -0.3704  1.5521
  324MOL0     H43736   5.168   5.255   4.640  4.4253  1.2885 -0.4610
  324MOL0     H43737   5.767   4.751   4.331  0.4673 -1.1517  0.9618
  324MOL0     H43738   6.050   4.610   4.445 -1.6911  0.9034  1.3342
  324MOL0     H43739   5.904   4.577   4.372  0.6297 -0.5887  0.7293
  324MOL0     H43740   6.053   4.585   4.268 -1.1159 -0.5222  0.2058
  325MOL0     O43741  10.201   3.173   7.646  0.7578 -0.9965  0.1092
  325MOL0     C43742  10.160   3.064   7.601 -0.8600 -0.3758 -0.9599
  325MOL0     O43743  10.235   2.952   7.608 -0.2469 -0.3619  0.1692
  325MOL0     C43744  10.365   2.962   7.658  0.4672 -0.7125  0.1921
  325MOL0     C43745  10.408   2.870   7.750 -0.2132 -0.3450  0.0443
  325MOL0     C43746  10.542   2.891   7.801  0.3476  0.0320  0.9964
  325MOL0     C43747  10.629   2.993   7.760  0.1995 -0.0596 -0.8812
  325MOL0     O43748  10.753   3.016   7.814  0.5105  0.2348  1.0087
  325MOL0     C43749  10.740   3.108   7.928  0.3360  0.0408 -0.4724
  325MOL0     C43750  10.800   3.035   8.052 -0.1924 -0.3954  0.6553
  325MOL0     C43751  10.940   2.985   8.030 -0.5052  0.0559 -0.5075
  325MOL0     C43752  11.004   2.962   8.174  0.0428 -0.4019 -0.2133
  325MOL0     C43753  11.141   2.891   8.145  0.6991 -0.4159  0.9686
  325MOL0     C43754  11.212   2.857   8.279 -0.3453 -0.9805  0.6004
  325MOL0     C43755  11.349   2.794   8.271 -0.2612 -0.0688 -0.4201
  325MOL0     C43756  11.410   2.752   8.407 -0.2818  0.6170 -0.6190
  325MOL0     N43757  11.391   2.858   8.512  0.2443  0.8245  0.3163
  325MOL0     C43758  11.441   2.984   8.509 -0.7913  0.0191 -0.3772
  325MOL0     C43759  11.420   3.040   8.628 -0.1327 -0.2509  0.8418
  325MOL0     C43760  11.447   3.185   8.674  0.0578 -0.1615  0.9295
  325MOL0     C43761  11.582   3.235   8.617 -0.0982 -0.0124  0.0194
  325MOL0     C43762  11.646   3.334   8.720  0.4342  1.4884  0.4676
  325MOL0     C43763  11.767   3.409   8.672  0.8331 -0.1191  0.0333
  325MOL0     O43764  11.888   3.334   8.669  0.6218 -0.1813 -0.7232
  325MOL0     C43765  12.007   3.388   8.628 -0.3755 -0.3784  0.3298
  325MOL0     C43766  12.022   3.511   8.561 -0.0689  0.7852  0.0305
  325MOL0     C43767  12.143   3.547   8.508  0.2908  0.3351 -1.6338
  325MOL0     C43768  12.257   3.455   8.515  1.1308  0.0798  0.0759
  325MOL0     C43769  12.384   3.488   8.459 -0.7788 -0.1070  0.3890
  325MOL0     O43770  12.472   3.385   8.454 -0.0138  0.4213 -0.2700
  325MOL0     C43771  12.608   3.418   8.438  0.5788 -0.8223  0.7195
  325MOL0     C43772  12.676   3.512   8.506  0.0376  0.2768  0.3118
  325MOL0     C43773  12.817   3.522   8.490 -0.0553 -0.4178  0.5172
  325MOL0     C43774  12.884   3.447   8.398  0.1430 -0.5683 -0.6127
  325MOL0     O43775  13.014   3.469   8.378 -0.4161  0.3644 -0.4868
  325MOL0     C43776  13.094   3.353   8.344 -0.2214  0.0770 -0.0103
  325MOL0     C43777  13.249   3.370   8.383  1.3055  1.1266  0.1105
  325MOL0     C43778  13.343   3.268   8.307 -0.7765 -0.3016 -0.5395
  325MOL0     C43779  13.486   3.331   8.314 -0.0606  0.2671 -0.0884
  325MOL0     C43780  13.599   3.223   8.277  0.3438  0.0624  0.3409
  325MOL0     C43781  13.743   3.231   8.312 -0.0873  0.3818 -0.5185
  325MOL0     C43782  13.767   3.273   8.463  0.2976  0.9212 -0.4525
  325MOL0     C43783  13.917   3.297   8.496  0.5686  0.5501 -0.3058
  325MOL0    Cl43784  13.998   3.402   8.377 -0.0849 -0.2933 -0.0936
  325MOL0     C43785  12.812   3.352   8.335 -0.4026  0.2308  0.9204
  325MOL0     C43786  12.677   3.336   8.353  0.5402 -0.5290 -0.0156
  325MOL0     O43787  12.405   3.608   8.419 -0.0568  0.2312  0.7151
  325MOL0     C43788  12.239   3.330   8.589 -0.3837 -0.1589  0.8112
  325MOL0     C43789  12.114   3.308   8.646 -0.7263  0.3981  0.2628
  325MOL0     N43790  11.339   2.948   8.700 -0.4648 -0.0871  0.4342
  325MOL0     N43791  11.317   2.836   8.627 -0.4014  0.0822 -0.2115
  325MOL0     C43792  10.581   3.075   7.646  0.3671 -0.7705  0.7957
  325MOL0     C43793  10.456   3.059   7.599 -0.4893  0.5495 -0.6827
  325MOL0     C43794  10.023   3.044   7.546 -0.1960  0.0633  0.6603
  325MOL0     C43795   9.961   2.923   7.541  0.8079  0.8366  0.1196
  325MOL0     C43796   9.845   2.896   7.470  0.3678 -0.4767  0.3232
  325MOL0     C43797   9.768   3.008   7.423  0.5577 -0.5879  0.5049
  325MOL0     O43798   9.646   2.984   7.370  0.2332  0.2895 -0.1622
  325MOL0     C43799   9.532   3.034   7.446 -0.0935 -0.5053  0.0860
  325MOL0     C43800   9.407   3.016   7.361  0.2240  1.0466  0.5257
  325MOL0     C43801   9.270   3.075   7.403 -0.1255 -0.6313 -0.4664
  325MOL0     C43802   9.265   3.232   7.386 -0.0827  0.1265  0.0196
  325MOL0     C43803   9.241   3.259   7.246 -0.6898 -0.4614 -0.9008
  325MOL0     C43804   9.209   3.265   7.128  1.2154  1.3003  0.1509
  325MOL0     C43805   9.823   3.131   7.424  0.2081  0.1099  0.1203
  325MOL0     C43806   9.948   3.151   7.481 -0.1783 -0.2363 -0.3257
  325MOL0     C43807  10.000   3.300   7.475 -0.1935 -0.0285  0.1079
  325MOL0     H43808  10.348   2.787   7.784  0.2674 -0.5064  0.5121
  325MOL0     H43809  10.592   2.826   7.873 -2.3445  1.2640  4.2194
  325MOL0     H43810  10.794   3.197   7.897 -2.6548  2.8158  1.6411
  325MOL0     H43811  10.640   3.145   7.952  1.6001  2.9890  0.6115
  325MOL0     H43812  10.730   2.957   8.082 -1.6124  1.3881  2.2583
  325MOL0     H43813  10.804   3.115   8.128 -0.1553 -0.0820  0.3261
  325MOL0     H43814  10.996   3.063   7.977 -2.3293  1.7196 -0.1349
  325MOL0     H43815  10.937   2.892   7.972  0.7838 -1.0671  1.1621
  325MOL0     H43816  11.017   3.063   8.215 -1.6921  0.2238 -1.0473
  325MOL0     H43817  10.931   2.903   8.230 -2.6419  1.5107 -1.4715
  325MOL0     H43818  11.126   2.798   8.089 -2.8447 -0.3215  1.5772
  325MOL0     H43819  11.215   2.952   8.092  1.6674 -2.4746 -0.2102
  325MOL0     H43820  11.208   2.953   8.331  1.7660 -1.2547  1.3704
  325MOL0     H43821  11.145   2.787   8.330 -1.5521 -0.3799 -0.1230
  325MOL0     H43822  11.425   2.865   8.240  1.6721 -0.7060  2.4288
  325MOL0     H43823  11.348   2.708   8.204  0.7183  0.2061 -0.8037
  325MOL0     H43824  11.361   2.658   8.435  1.6321 -0.6424 -1.2329
  325MOL0     H43825  11.517   2.733   8.391  0.2559  1.8755  1.2236
  325MOL0     H43826  11.494   3.033   8.429 -0.6724  0.4139 -0.0571
  325MOL0     H43827  11.369   3.256   8.647  2.2696  1.9522 -0.3774
  325MOL0     H43828  11.451   3.173   8.783  0.7415 -1.7000  0.7685
  325MOL0     H43829  11.654   3.154   8.605  0.0951  0.2144 -0.3735
  325MOL0     H43830  11.566   3.289   8.523 -0.9377  1.1161  0.7871
  325MOL0     H43831  11.672   3.276   8.810 -0.1829 -1.5794 -1.2037
  325MOL0     H43832  11.566   3.403   8.749 -0.5741  0.4794  0.1267
  325MOL0     H43833  11.780   3.500   8.731 -1.8025  1.3903 -1.5474
  325MOL0     H43834  11.748   3.440   8.569 -0.1621 -0.2623  0.1618
  325MOL0     H43835  11.938   3.575   8.535  1.4204  1.3763 -4.1758
  325MOL0     H43836  12.147   3.644   8.460 -3.7771  1.1506 -0.6897
  325MOL0     H43837  12.617   3.574   8.573 -0.8438  3.8122 -3.3441
  325MOL0     H43838  12.867   3.591   8.558  0.5944 -1.3783  1.0417
  325MOL0     H43839  13.056   3.263   8.393  1.5827  0.5216  2.4184
  325MOL0     H43840  13.090   3.335   8.236  0.6674 -1.9084  0.2420
  325MOL0     H43841  13.275   3.475   8.369  0.3978  1.2899 -0.4248
  325MOL0     H43842  13.259   3.348   8.489 -1.7573 -1.2970  0.0387
  325MOL0     H43843  13.353   3.170   8.355  0.2135  0.0044 -0.0951
  325MOL0     H43844  13.318   3.266   8.201  1.6012 -1.3715 -1.1327
  325MOL0     H43845  13.493   3.381   8.411 -0.6037 -0.9853  0.6247
  325MOL0     H43846  13.496   3.407   8.237  1.2862  0.6011  0.3824
  325MOL0     H43847  13.590   3.196   8.171  1.3977  0.0169  0.2531
  325MOL0     H43848  13.566   3.130   8.325 -1.1510  0.0282 -0.6815
  325MOL0     H43849  13.796   3.138   8.287  1.4406  1.6577 -2.2924
  325MOL0     H43850  13.792   3.306   8.250  2.2931  0.9981  1.8866
  325MOL0     H43851  13.730   3.191   8.525  0.6301 -0.2811 -1.7986
  325MOL0     H43852  13.709   3.361   8.491  0.3105  0.1764  2.1491
  325MOL0     H43853  13.937   3.336   8.596  0.9444 -0.4594  0.0167
  325MOL0     H43854  13.971   3.203   8.494 -0.3908 -0.0207 -1.9902
  325MOL0     H43855  12.855   3.292   8.255 -1.9031  0.1663  0.1303
  325MOL0     H43856  12.620   3.266   8.292 -0.8575 -0.9652  1.7100
  325MOL0     H43857  12.319   3.259   8.605  0.7591  1.2409  1.5590
  325MOL0     H43858  12.099   3.226   8.715  1.7405  0.0351  0.4653
  325MOL0     H43859  10.645   3.151   7.603 -0.0111  0.3100  2.0901
  325MOL0     H43860  10.416   3.125   7.522 -0.3544  1.5974  0.1310
  325MOL0     H43861  10.010   2.839   7.590 -0.2889 -0.1782 -0.4611
  325MOL0     H43862   9.795   2.801   7.487 -1.5593  0.7572  2.0851
  325MOL0     H43863   9.551   3.141   7.458 -0.5283 -0.4252  0.0966
  325MOL0     H43864   9.524   2.983   7.542  4.8683  0.6176  1.3650
  325MOL0     H43865   9.402   2.907   7.351 -0.9340  1.1476 -0.2806
  325MOL0     H43866   9.433   3.049   7.259 -0.9478  0.3373 -0.0267
  325MOL0     H43867   9.264   3.044   7.508  0.5534 -3.8476 -1.2916
  325MOL0     H43868   9.180   3.027   7.363  1.0654 -0.8876 -3.0091
  325MOL0     H43869   9.189   3.275   7.452 -0.6879 -4.0543  2.3710
  325MOL0     H43870   9.364   3.277   7.402  0.1464 -0.0898 -0.7082
  325MOL0     H43871   9.182   3.272   7.024 -1.1947 -1.7000  0.4227
  325MOL0     H43872   9.766   3.216   7.387  1.6738  0.9980 -0.1537
  325MOL0     H43873  10.101   3.310   7.434 -0.0933  1.0825  0.5706
  325MOL0     H43874   9.934   3.366   7.417  0.0595  0.0819 -0.0600
  325MOL0     H43875   9.993   3.352   7.571 -0.6007  0.2490 -0.0698
  326MOL0     O43876   9.168  10.274   9.626 -0.1140  0.4206  0.6035
  326MOL0     C43877   9.079  10.269   9.710  0.5872 -0.7279  0.7360
  326MOL0     O43878   9.101  10.261   9.847  0.6647 -0.4837 -0.1463
  326MOL0     C43879   9.224  10.301   9.889 -0.4245 -0.2985 -0.2949
  326MOL0     C43880   9.336  10.218   9.870 -0.6498  1.0265  0.0402
  326MOL0     C43881   9.463  10.263   9.920 -0.1608  0.2746 -1.2697
  326MOL0     C43882   9.474  10.379  10.005  0.7060 -0.1042  0.1128
  326MOL0     O43883   9.601  10.424  10.039  0.5063  0.1726  0.6058
  326MOL0     C43884   9.615  10.538  10.121  0.4722 -0.3533  0.0849
  326MOL0     C43885   9.762  10.591  10.134  0.1194 -0.0145  0.2157
  326MOL0     C43886   9.864  10.501  10.192 -0.5775 -0.2083 -0.5848
  326MOL0     C43887  10.004  10.554  10.179  0.3950  0.1989  0.3831
  326MOL0     C43888  10.113  10.472  10.241 -0.5737  0.2788 -0.5197
  326MOL0     C43889  10.109  10.458  10.389  0.2002 -0.2358 -0.5322
  326MOL0     C43890  10.076  10.585  10.468  0.4275 -0.4231 -0.5840
  326MOL0     C43891  10.064  10.558  10.617 -0.5119  0.6566  0.2724
  326MOL0     N43892  10.198  10.567  10.675 -0.5319 -0.0289 -0.3632
  326MOL0     C43893  10.294  10.463  10.694  0.7136 -1.2298  1.2134
  326MOL0     C43894  10.372  10.515  10.789 -0.3428  0.0381 -0.7073
  326MOL0     C43895  10.484  10.427  10.840  0.6242 -0.1494  0.9185
  326MOL0     C43896  10.610  10.506  10.867 -0.2919 -0.4507 -0.3801
  326MOL0     C43897  10.725  10.430  10.944  0.0037 -0.1716 -0.3619
  326MOL0     C43898  10.824  10.531  11.022  1.4724 -0.3704  0.4558
  326MOL0     O43899  10.870  10.634  10.926 -0.0344  0.3632 -0.2869
  326MOL0     C43900  10.989  10.700  10.937 -0.1347 -0.2158  0.8614
  326MOL0     C43901  11.090  10.669  11.038 -0.5790  0.2158  0.3168
  326MOL0     C43902  11.203  10.754  11.049 -1.1365  0.2547 -0.0950
  326MOL0     C43903  11.236  10.852  10.952  0.0337 -0.3790 -0.5196
  326MOL0     C43904  11.364  10.923  10.955  0.1797  0.6792  0.0108
  326MOL0     O43905  11.385  11.014  10.854  0.6649 -0.1997 -0.3625
  326MOL0     C43906  11.504  11.087  10.845 -0.8356  0.2611  0.3328
  326MOL0     C43907  11.545  11.171  10.944  0.3011 -0.7313  0.1481
  326MOL0     C43908  11.663  11.252  10.918  0.8992  0.3983 -0.2365
  326MOL0     C43909  11.721  11.252  10.796 -0.8083  0.0056 -0.6443
  326MOL0     O43910  11.815  11.339  10.759 -0.2649  0.1202  0.1281
  326MOL0     C43911  11.913  11.380  10.856  0.2694  0.7366 -0.0791
  326MOL0     C43912  12.044  11.355  10.778 -0.5623  0.0150 -0.0011
  326MOL0     C43913  12.165  11.403  10.856 -0.2501  0.3133 -0.2794
  326MOL0     C43914  12.170  11.559  10.864 -0.1136  0.2059 -0.8496
  326MOL0     C43915  12.307  11.614  10.892 -0.5444 -0.5217 -0.1327
  326MOL0     C43916  12.293  11.767  10.898  1.1852 -0.4121 -0.6315
  326MOL0     C43917  12.417  11.838  10.929  0.5650  0.1216  0.6850
  326MOL0     C43918  12.391  11.982  10.898 -0.6752 -0.7336 -0.6936
  326MOL0    Cl43919  12.541  12.064  10.844  0.2455  0.3664  0.2051
  326MOL0     C43920  11.678  11.159  10.699 -0.0032 -0.1416  0.3082
  326MOL0     C43921  11.573  11.074  10.723  0.1500 -0.2325 -0.0852
  326MOL0     O43922  11.437  10.912  11.052  0.5031 -0.1631  0.0386
  326MOL0     C43923  11.144  10.868  10.842 -0.8188  0.4422 -0.8278
  326MOL0     C43924  11.026  10.793  10.837 -0.5944  1.0375 -0.3760
  326MOL0     N43925  10.331  10.635  10.836 -0.1082  0.5315  0.7368
  326MOL0     N43926  10.226  10.661  10.763 -0.3258  0.2300 -0.3250
  326MOL0     C43927   9.353  10.459  10.020 -0.2261  0.2131  0.1215
  326MOL0     C43928   9.232  10.414   9.967 -0.5802 -0.4008  0.1152
  326MOL0     C43929   8.941  10.269   9.662 -0.1426 -0.6620  0.2362
  326MOL0     C43930   8.847  10.337   9.738  0.4317 -0.3607  0.0866
  326MOL0     C43931   8.718  10.367   9.697  1.2206 -0.6801  0.4140
  326MOL0     C43932   8.671  10.324   9.569  0.1872 -0.0045  0.3051
  326MOL0     O43933   8.538  10.335   9.527  0.3841  0.8148  0.5179
  326MOL0     C43934   8.507  10.446   9.447  0.1743 -0.1067  1.0551
  326MOL0     C43935   8.397  10.527   9.508  0.6945 -0.7360 -0.0559
  326MOL0     C43936   8.260  10.469   9.475 -0.2918  0.4788  0.2064
  326MOL0     C43937   8.153  10.574   9.490  0.7080  0.0119  0.0283
  326MOL0     C43938   8.013  10.512   9.501  0.0800 -0.6735 -0.1971
  326MOL0     C43939   7.905  10.455   9.492  0.3766 -0.7481  0.1503
  326MOL0     C43940   8.763  10.260   9.481 -0.6511  0.1921 -0.9388
  326MOL0     C43941   8.897  10.231   9.529  0.3882 -0.0343  0.2169
  326MOL0     C43942   8.984  10.160   9.435  0.7806  0.4699 -0.0450
  326MOL0     H43943   9.319  10.130   9.809  2.3396  1.5942 -1.8344
  326MOL0     H43944   9.545  10.192   9.912 -0.2498 -0.6378  3.1824
  326MOL0     H43945   9.551  10.622  10.091  0.7823 -0.5340 -1.1602
  326MOL0     H43946   9.588  10.509  10.222 -0.8911 -0.4076 -0.2673
  326MOL0     H43947   9.757  10.678  10.201  0.0925  1.1332 -1.2278
  326MOL0     H43948   9.792  10.627  10.035 -0.6536 -3.0336 -1.2254
  326MOL0     H43949   9.855  10.396  10.162 -0.9756 -0.3542  0.0348
  326MOL0     H43950   9.829  10.498  10.295 -1.2255 -2.1530 -0.8270
  326MOL0     H43951  10.037  10.572  10.077  0.9091  1.3153  0.7382
  326MOL0     H43952  10.000  10.654  10.223  1.4199  0.2179  0.4481
  326MOL0     H43953  10.126  10.378  10.187 -0.7331 -0.0810  0.0693
  326MOL0     H43954  10.206  10.526  10.222  0.7451 -1.8079 -0.3374
  326MOL0     H43955  10.031  10.382  10.404  0.4169  0.0986  3.5550
  326MOL0     H43956  10.204  10.417  10.425 -1.1713 -1.2550  2.1750
  326MOL0     H43957   9.980  10.622  10.432  0.2229 -2.9143 -2.9429
  326MOL0     H43958  10.153  10.660  10.449  1.0328 -0.5690  1.1330
  326MOL0     H43959   9.997  10.634  10.659  2.0399  2.1952  1.8211
  326MOL0     H43960  10.029  10.456  10.638  0.1912  0.4328  0.3779
  326MOL0     H43961  10.285  10.361  10.659 -0.9612 -1.2226  1.5112
  326MOL0     H43962  10.447  10.370  10.926 -0.2603  0.7576  1.1528
  326MOL0     H43963  10.497  10.363  10.752 -3.3928  0.9895 -0.7190
  326MOL0     H43964  10.654  10.551  10.778  2.0471  1.6260  1.6758
  326MOL0     H43965  10.581  10.596  10.923  1.6271  1.1828 -1.8481
  326MOL0     H43966  10.786  10.369  10.876  3.5498  1.3482  1.1990
  326MOL0     H43967  10.680  10.365  11.020 -1.2234  1.7707  0.6428
  326MOL0     H43968  10.915  10.483  11.056  2.0246  0.2322 -0.1404
  326MOL0     H43969  10.755  10.567  11.099 -1.0653 -0.7550 -1.4954
  326MOL0     H43970  11.070  10.593  11.114 -0.7545  0.0537  0.1107
  326MOL0     H43971  11.271  10.748  11.134 -0.8701 -0.7511 -0.3656
  326MOL0     H43972  11.482  11.179  11.031 -1.7994 -2.8188 -1.0808
  326MOL0     H43973  11.705  11.306  11.002 -0.7048 -1.6590  2.0052
  326MOL0     H43974  11.907  11.488  10.872  1.2370  0.9228 -0.8564
  326MOL0     H43975  11.909  11.319  10.947  0.6354 -0.3751 -0.7822
  326MOL0     H43976  12.064  11.250  10.753  4.5582  0.7043  0.0258
  326MOL0     H43977  12.039  11.412  10.684  1.2289  1.8060  0.9158
  326MOL0     H43978  12.171  11.370  10.960 -2.2609  1.1894  0.1682
  326MOL0     H43979  12.248  11.369  10.793 -0.8003 -0.0156 -0.8404
  326MOL0     H43980  12.099  11.594  10.940  0.1205  0.9383 -0.9614
  326MOL0     H43981  12.140  11.608  10.771  0.8735 -0.2673 -1.4310
  326MOL0     H43982  12.377  11.577  10.816 -0.3220  0.4966 -0.4443
  326MOL0     H43983  12.360  11.587  10.983 -2.0824 -0.3832  0.8328
  326MOL0     H43984  12.263  11.809  10.802  4.2722  2.2209 -0.6025
  326MOL0     H43985  12.210  11.789  10.966 -0.3127 -1.3192 -2.0787
  326MOL0     H43986  12.499  11.808  10.864  0.4380 -0.6426  0.8635
  326MOL0     H43987  12.455  11.820  11.030  0.2220  1.6780  1.1098
  326MOL0     H43988  12.319  12.016  10.823  0.7708  2.2989 -0.8362
  326MOL0     H43989  12.366  12.020  10.997 -0.9737  0.1911 -1.1109
  326MOL0     H43990  11.722  11.170  10.601 -0.4646  0.0868  0.1245
  326MOL0     H43991  11.543  11.003  10.647  0.5277  1.2197 -1.6447
  326MOL0     H43992  11.162  10.942  10.765  1.1034  1.2327  0.2983
  326MOL0     H43993  10.958  10.808  10.754 -0.8009 -0.0335 -0.4208
  326MOL0     H43994   9.348  10.544  10.087 -0.2117  2.2788 -2.3571
  326MOL0     H43995   9.141  10.466   9.995 -0.3212  0.8835 -1.2893
  326MOL0     H43996   8.882  10.381   9.831  0.5159  1.2458 -0.6747
  326MOL0     H43997   8.653  10.432   9.755 -0.5496 -2.0761  0.0603
  326MOL0     H43998   8.479  10.412   9.347 -2.2707  2.2220  0.8510
  326MOL0     H43999   8.599  10.506   9.445 -0.9746  1.8291  2.5933
  326MOL0     H44000   8.402  10.621   9.453 -3.1221  1.6010  3.1207
  326MOL0     H44001   8.407  10.557   9.613  0.2797  0.7665 -0.4344
  326MOL0     H44002   8.244  10.380   9.536 -0.2379  1.4421  1.6739
  326MOL0     H44003   8.250  10.431   9.373 -1.0857  0.5385  0.2605
  326MOL0     H44004   8.177  10.647   9.568 -0.3196  1.1288 -0.6457
  326MOL0     H44005   8.152  10.639   9.401  0.0977  1.3172  0.9627
  326MOL0     H44006   7.807  10.411   9.489 -1.1956  2.0655  3.0215
  326MOL0     H44007   8.748  10.237   9.376 -0.6649  1.4467 -1.2280
  326MOL0     H44008   9.059  10.234   9.403  0.4333  2.4618  3.2794
  326MOL0     H44009   9.031  10.075   9.484  0.2928 -0.0486 -0.4631
  326MOL0     H44010   8.949  10.117   9.340  0.4712  2.5302 -0.9182
  327MOL0     O44011   6.587   6.449  10.914 -0.1718 -0.3202 -0.4551
  327MOL0     C44012   6.645   6.342  10.926  0.4961 -0.0230  0.6453
  327MOL0     O44013   6.776   6.329  10.892  0.4911 -0.6754  1.2562
  327MOL0     C44014   6.850   6.423  10.824  0.5122 -0.9767 -0.4435
  327MOL0     C44015   6.795   6.522  10.740 -0.5966  0.1393 -0.1510
  327MOL0     C44016   6.872   6.629  10.696  0.0352  0.7439 -0.1219
  327MOL0     C44017   7.011   6.625  10.730 -0.6329 -1.3005  1.3357
  327MOL0     O44018   7.099   6.721  10.684  0.0455  0.4624 -0.1217
  327MOL0     C44019   7.055   6.786  10.563 -0.0542  0.2190  0.5454
  327MOL0     C44020   7.179   6.847  10.498 -0.5006  0.1265  0.1664
  327MOL0     C44021   7.318   6.797  10.548 -0.0918  0.4931 -0.1492
  327MOL0     C44022   7.441   6.857  10.493 -0.8538  0.4288 -0.0345
  327MOL0     C44023   7.574   6.794  10.540  0.6873  0.3529 -0.2413
  327MOL0     C44024   7.690   6.874  10.503 -0.1129 -0.7470 -0.4143
  327MOL0     C44025   7.733   6.904  10.352 -0.3052 -0.3882  0.4473
  327MOL0     C44026   7.859   7.002  10.362  0.9482 -0.6688  0.3963
  327MOL0     N44027   7.897   7.045  10.232  0.0683  0.3918  0.1145
  327MOL0     C44028   7.997   6.983  10.165  0.4653  0.7024  0.7423
  327MOL0     C44029   8.036   7.078  10.067 -0.7354  0.3475 -0.0651
  327MOL0     C44030   8.144   7.055   9.971 -0.6262  0.0498  0.3728
  327MOL0     C44031   8.280   7.002  10.034 -0.8209  0.4418 -0.4512
  327MOL0     C44032   8.400   6.999   9.932  0.1070  0.8106  0.2319
  327MOL0     C44033   8.503   6.900   9.983 -0.1821 -0.1418  0.3122
  327MOL0     O44034   8.615   6.881   9.885  0.1439  0.4554  0.8797
  327MOL0     C44035   8.732   6.844   9.945 -0.3887 -0.3514 -0.3126
  327MOL0     C44036   8.842   6.920   9.899  0.3674 -0.0770 -0.4836
  327MOL0     C44037   8.975   6.902   9.961  0.0669 -0.4841 -0.4097
  327MOL0     C44038   8.995   6.808  10.064  0.4312 -0.5849 -0.0917
  327MOL0     C44039   9.132   6.783  10.118 -0.4857  0.8955  0.0903
  327MOL0     O44040   9.243   6.801  10.033 -0.6209  0.9443  0.5275
  327MOL0     C44041   9.358   6.782  10.092  0.3015 -0.1664 -0.9498
  327MOL0     C44042   9.399   6.663  10.144  0.4641  0.1274 -0.4208
  327MOL0     C44043   9.522   6.652  10.203  0.4244 -0.1805 -0.1790
  327MOL0     C44044   9.605   6.766  10.210  1.2383  0.8279  0.3060
  327MOL0     O44045   9.728   6.768  10.269 -0.6625 -0.6112 -0.4983
  327MOL0     C44046   9.721   6.728  10.406 -0.5899  0.1961  0.8491
  327MOL0     C44047   9.831   6.804  10.481 -0.3146  0.5356  0.3964
  327MOL0     C44048   9.805   6.810  10.636 -0.3726 -0.5963 -1.2330
  327MOL0     C44049   9.869   6.929  10.709  0.0907 -0.4443 -1.1698
  327MOL0     C44050  10.024   6.931  10.717 -1.3820  0.6678  0.2846
  327MOL0     C44051  10.085   7.046  10.802  0.2552  0.4447 -0.0622
  327MOL0     C44052  10.239   7.032  10.827  0.2869  0.3242  0.5413
  327MOL0     C44053  10.281   7.152  10.894 -0.4565  0.1785 -0.5410
  327MOL0    Cl44054  10.450   7.123  10.968 -0.2774 -0.0279  0.2522
  327MOL0     C44055   9.570   6.885  10.152  0.6915 -0.1347 -0.1607
  327MOL0     C44056   9.440   6.895  10.105  0.3512  0.2741  0.1525
  327MOL0     O44057   9.129   6.750  10.235  0.7134 -0.0388 -0.7897
  327MOL0     C44058   8.881   6.732  10.101 -0.6390  0.5284 -0.1443
  327MOL0     C44059   8.755   6.749  10.044  0.4006 -0.3122 -0.6111
  327MOL0     N44060   7.945   7.185  10.086 -0.6203  0.1038 -1.0807
  327MOL0     N44061   7.867   7.160  10.182 -0.7484  0.3149 -0.5770
  327MOL0     C44062   7.061   6.521  10.810  0.7267 -0.5495 -0.8827
  327MOL0     C44063   6.979   6.427  10.864  0.9363 -0.3785  0.0886
  327MOL0     C44064   6.575   6.219  10.971 -0.1971  0.1542  0.4111
  327MOL0     C44065   6.656   6.103  10.998 -0.1955 -0.0532 -0.1921
  327MOL0     C44066   6.584   5.984  11.036  0.0879  0.6620  0.4759
  327MOL0     C44067   6.446   5.971  11.046  0.2541 -0.6609  0.7135
  327MOL0     O44068   6.400   5.860  11.100 -0.3406 -0.0716  0.0089
  327MOL0     C44069   6.279   5.816  11.036  0.1451  0.8719 -0.0812
  327MOL0     C44070   6.291   5.668  11.007  0.5594  1.0439 -0.5051
  327MOL0     C44071   6.400   5.629  10.910 -0.5992 -0.6208  0.1154
  327MOL0     C44072   6.535   5.592  10.979 -0.2079 -0.4705  0.1990
  327MOL0     C44073   6.643   5.570  10.875  0.0294  0.4403  0.4132
  327MOL0     C44074   6.730   5.565  10.794  0.0538  0.4350  0.5283
  327MOL0     C44075   6.375   6.087  11.010  0.0562  0.2098  0.5529
  327MOL0     C44076   6.432   6.207  10.978  0.4607 -0.4397 -0.6967
  327MOL0     C44077   6.325   6.314  10.937  0.0269 -0.2558 -0.2779
  327MOL0     H44078   6.689   6.518  10.719 -0.6710 -3.1900  0.4621
  327MOL0     H44079   6.831   6.701  10.625  0.7739  0.1495 -1.1785
  327MOL0     H44080   7.013   6.714  10.493 -3.9492  0.8375  1.9563
  327MOL0     H44081   6.982   6.865  10.585 -1.1421 -0.6130  0.0353
  327MOL0     H44082   7.173   6.956  10.510 -1.2981 -0.0890  2.1216
  327MOL0     H44083   7.174   6.835  10.389  3.0306  1.9015 -0.3481
  327MOL0     H44084   7.332   6.690  10.535 -0.6037  0.5660 -1.4363
  327MOL0     H44085   7.311   6.830  10.652 -0.8547 -1.1397  0.3379
  327MOL0     H44086   7.427   6.843  10.386 -0.9533 -0.3264  0.0702
  327MOL0     H44087   7.442   6.964  10.514  2.1190  0.1244  2.0373
  327MOL0     H44088   7.577   6.778  10.648 -0.2313  2.5512  0.1657
  327MOL0     H44089   7.594   6.703  10.483  0.7333  1.5097 -2.1578
  327MOL0     H44090   7.679   6.967  10.560 -2.2515 -2.3323  1.9596
  327MOL0     H44091   7.777   6.823  10.546 -1.2194 -0.6047  2.1934
  327MOL0     H44092   7.641   6.949  10.313  0.6923  1.6911  0.3239
  327MOL0     H44093   7.762   6.818  10.291  3.2842  2.6677 -2.5970
  327MOL0     H44094   7.836   7.088  10.426  0.8157  2.0752 -3.0253
  327MOL0     H44095   7.944   6.949  10.406  2.9638  2.2857  0.3485
  327MOL0     H44096   8.039   6.884  10.175 -0.4889  0.4380  2.4409
  327MOL0     H44097   8.111   6.986   9.894 -0.1318  0.7759 -0.5062
  327MOL0     H44098   8.155   7.152   9.921 -1.3592 -0.1389 -0.1599
  327MOL0     H44099   8.315   7.069  10.114  0.1710  0.7535 -1.1325
  327MOL0     H44100   8.265   6.905  10.084  0.7009  1.7213  2.7665
  327MOL0     H44101   8.448   7.097   9.918 -0.0483  1.1209  1.6874
  327MOL0     H44102   8.366   6.970   9.833  1.0707 -0.4806  0.2516
  327MOL0     H44103   8.460   6.802  10.004 -2.8157  1.0898  1.0616
  327MOL0     H44104   8.558   6.946  10.066  0.9621  1.3099 -1.1787
  327MOL0     H44105   8.828   6.999   9.825 -1.7264  0.8352  0.7980
  327MOL0     H44106   9.054   6.963   9.920  0.0483 -0.8721 -1.0302
  327MOL0     H44107   9.332   6.578  10.151  1.9831 -1.1263 -0.5137
  327MOL0     H44108   9.552   6.551  10.229 -0.8693 -0.0690  2.0243
  327MOL0     H44109   9.625   6.756  10.451  0.8372  1.3375  3.4114
  327MOL0     H44110   9.740   6.620  10.413  0.9021  0.1900 -1.9463
  327MOL0     H44111   9.922   6.747  10.460 -2.3207 -3.7511  1.9817
  327MOL0     H44112   9.839   6.905  10.440 -2.7432  0.6818  0.1509
  327MOL0     H44113   9.701   6.805  10.669 -0.0311  1.3656  0.3334
  327MOL0     H44114   9.858   6.720  10.670  1.1899  0.3263 -1.1451
  327MOL0     H44115   9.828   6.921  10.811  1.1541 -1.3634 -0.7975
  327MOL0     H44116   9.832   7.015  10.652 -1.4445 -1.6813 -2.1152
  327MOL0     H44117  10.071   6.938  10.618 -2.5914 -0.4129 -0.4110
  327MOL0     H44118  10.057   6.838  10.763  1.5617  0.7563 -1.4277
  327MOL0     H44119  10.056   7.137  10.750 -1.6649  1.3397  2.3499
  327MOL0     H44120  10.029   7.056  10.896 -1.1394  3.6457 -1.1171
  327MOL0     H44121  10.305   7.031  10.739  0.7746  0.2279  0.9072
  327MOL0     H44122  10.257   6.939  10.881  1.1547  0.8234  1.1428
  327MOL0     H44123  10.295   7.237  10.827  2.0755  1.0693  0.9512
  327MOL0     H44124  10.220   7.183  10.980  0.0201  0.4241 -0.2869
  327MOL0     H44125   9.632   6.973  10.162  0.0355  0.1551  1.7974
  327MOL0     H44126   9.415   6.991  10.062  0.8882  0.2563 -0.1974
  327MOL0     H44127   8.901   6.662  10.181  3.9240  0.6276 -0.9050
  327MOL0     H44128   8.673   6.682  10.068  1.1658 -0.4966  1.7054
  327MOL0     H44129   7.160   6.522  10.855 -0.6851  0.2341  2.5274
  327MOL0     H44130   7.019   6.358  10.938 -3.3361 -2.7955  0.4677
  327MOL0     H44131   6.764   6.100  10.996 -0.1630  1.0286 -0.6183
  327MOL0     H44132   6.643   5.901  11.074 -1.9567 -1.8277 -1.4365
  327MOL0     H44133   6.265   5.859  10.936  2.0088 -2.1216 -1.7802
  327MOL0     H44134   6.196   5.848  11.100 -0.2882 -0.7773  0.2302
  327MOL0     H44135   6.193   5.640  10.967  0.5540  0.9994 -0.4600
  327MOL0     H44136   6.310   5.609  11.097  1.9073 -0.6924 -1.8466
  327MOL0     H44137   6.417   5.721  10.853 -2.1043  0.5389  1.4334
  327MOL0     H44138   6.381   5.551  10.835 -0.4568 -0.0705 -0.5092
  327MOL0     H44139   6.581   5.670  11.041  3.5048  0.1715 -2.9177
  327MOL0     H44140   6.522   5.514  11.054 -2.3929  0.5894  0.9920
  327MOL0     H44141   6.806   5.559  10.718 -1.2048  3.0181 -1.0853
  327MOL0     H44142   6.268   6.088  11.028 -0.3355 -2.5402 -1.0414
  327MOL0     H44143   6.332   6.401  11.002  2.6449 -0.6939  0.1269
  327MOL0     H44144   6.353   6.349  10.837  0.5341  0.2801  0.0442
  327MOL0     H44145   6.224   6.272  10.937  0.0154 -0.2533 -1.0670
  328MOL0     O44146   6.377  10.158   3.663 -0.1463  0.9923  0.5295
  328MOL0     C44147   6.265  10.135   3.714 -0.1650  0.2746  0.4074
  328MOL0     O44148   6.246  10.100   3.845  0.2412 -0.1146 -0.2954
  328MOL0     C44149   6.354  10.072   3.922  0.2824 -0.7584  0.2795
  328MOL0     C44150   6.447   9.968   3.890  0.0250 -0.1230  0.5514
  328MOL0     C44151   6.555   9.945   3.969  0.1046  0.1693  0.1552
  328MOL0     C44152   6.566  10.013   4.090  0.3688 -0.5883  0.5264
  328MOL0     O44153   6.681   9.983   4.150 -0.1177 -0.0318 -0.0839
  328MOL0     C44154   6.663   9.965   4.290  0.9731  0.5579 -0.3705
  328MOL0     C44155   6.748   9.844   4.343 -0.4026  0.0817 -0.4015
  328MOL0     C44156   6.896   9.869   4.322 -0.2856 -0.5278 -0.3107
  328MOL0     C44157   6.991   9.757   4.366 -0.8315 -0.5075  0.6621
  328MOL0     C44158   7.021   9.754   4.515 -1.3300  0.3501 -0.5957
  328MOL0     C44159   7.115   9.634   4.559  0.7131  0.6920 -0.3245
  328MOL0     C44160   7.257   9.651   4.517 -0.7195 -0.2072 -0.3821
  328MOL0     C44161   7.341   9.522   4.547  0.3500  0.2947  0.4761
  328MOL0     N44162   7.485   9.547   4.533  0.4618 -0.0900 -0.0125
  328MOL0     C44163   7.555   9.645   4.450 -0.3624  0.0488  0.0425
  328MOL0     C44164   7.686   9.633   4.481  0.2694 -0.2774  0.2325
  328MOL0     C44165   7.801   9.697   4.408 -0.1074  0.0866 -0.1144
  328MOL0     C44166   7.821   9.844   4.440 -0.7197  0.4241  0.9176
  328MOL0     C44167   7.908   9.855   4.574 -0.7550 -0.5119  0.7979
  328MOL0     C44168   8.038   9.769   4.579  0.7757  0.1690 -0.6918
  328MOL0     O44169   8.128   9.780   4.477 -0.0573 -0.2385 -0.5371
  328MOL0     C44170   8.256   9.738   4.499  0.0840  0.3187 -0.0686
  328MOL0     C44171   8.336   9.734   4.383  0.2865  0.5658 -0.2228
  328MOL0     C44172   8.474   9.684   4.387 -0.1645  0.3876  0.5735
  328MOL0     C44173   8.520   9.621   4.504  0.3432 -0.2398 -0.3097
  328MOL0     C44174   8.659   9.579   4.508  0.1216  0.1158 -0.3864
  328MOL0     O44175   8.715   9.564   4.635  0.6856 -0.1595 -0.1216
  328MOL0     C44176   8.848   9.533   4.644 -0.5625  0.3605  1.0333
  328MOL0     C44177   8.884   9.420   4.717  0.6626  0.3537 -0.0983
  328MOL0     C44178   9.016   9.395   4.744  0.1562  0.3031  0.1943
  328MOL0     C44179   9.124   9.464   4.692 -0.1408  0.0994 -0.3469
  328MOL0     O44180   9.250   9.415   4.718 -0.1144 -0.5747  0.2075
  328MOL0     C44181   9.366   9.469   4.640  0.0700 -0.2239 -0.3340
  328MOL0     C44182   9.487   9.394   4.683 -0.3424  0.4514 -0.6331
  328MOL0     C44183   9.595   9.416   4.588 -0.9009 -0.7250 -0.2126
  328MOL0     C44184   9.634   9.567   4.580  0.7530 -0.0302 -0.8410
  328MOL0     C44185   9.758   9.588   4.498  0.1311  1.2466  0.2182
  328MOL0     C44186   9.731   9.552   4.356  0.0244  0.5582  0.7758
  328MOL0     C44187   9.840   9.604   4.252  0.3788  0.3690  0.3098
  328MOL0     C44188   9.969   9.534   4.259 -0.3059  0.7908  0.7643
  328MOL0    Cl44189   9.946   9.358   4.197  0.0800  0.3724  0.1664
  328MOL0     C44190   9.092   9.568   4.604 -0.6860 -0.2325 -0.4816
  328MOL0     C44191   8.961   9.612   4.590 -0.2100 -0.1026 -0.3747
  328MOL0     O44192   8.725   9.579   4.402  0.2880  0.5498 -0.0528
  328MOL0     C44193   8.433   9.610   4.612 -0.0178 -0.3752  0.4042
  328MOL0     C44194   8.307   9.671   4.611  0.2719  0.3185 -0.3908
  328MOL0     N44195   7.697   9.535   4.578  0.5352  0.8791  0.3985
  328MOL0     N44196   7.578   9.485   4.611 -0.0358  0.2203 -0.4741
  328MOL0     C44197   6.478  10.120   4.108 -0.4724  0.2830  0.4253
  328MOL0     C44198   6.374  10.155   4.023  0.0816 -0.4798  0.1349
  328MOL0     C44199   6.143  10.168   3.639 -0.4841 -0.1492 -0.6248
  328MOL0     C44200   6.034  10.219   3.721 -0.3497  0.0643 -0.8681
  328MOL0     C44201   5.910  10.249   3.659 -0.2041 -0.0216  0.7420
  328MOL0     C44202   5.888  10.227   3.519  0.0975 -0.2839 -0.6917
  328MOL0     O44203   5.772  10.244   3.445 -0.6526 -0.7819 -0.2466
  328MOL0     C44204   5.656  10.298   3.521  0.0652 -0.4249  0.3709
  328MOL0     C44205   5.544  10.300   3.415 -0.2858  0.0359 -0.1755
  328MOL0     C44206   5.413  10.348   3.479 -0.0524  0.5646 -0.5541
  328MOL0     C44207   5.328  10.391   3.362 -0.7512 -0.1718 -0.1037
  328MOL0     C44208   5.189  10.408   3.401 -0.4446  0.9490  0.2964
  328MOL0     C44209   5.073  10.439   3.418  0.0653  0.1335  0.7069
  328MOL0     C44210   5.999  10.181   3.450  0.9776  0.6342  0.3300
  328MOL0     C44211   6.123  10.147   3.503  0.3636  0.8115  0.8129
  328MOL0     C44212   6.224  10.107   3.398 -0.5917  0.3697  0.9648
  328MOL0     H44213   6.446   9.917   3.795  1.4921 -1.7690  1.3725
  328MOL0     H44214   6.610   9.857   3.935 -3.5912 -2.0087 -0.7425
  328MOL0     H44215   6.690  10.060   4.338  0.7239  0.8391 -0.7763
  328MOL0     H44216   6.555   9.958   4.306  0.9238  1.3805 -0.2763
  328MOL0     H44217   6.719   9.760   4.280 -0.9087  1.1362 -1.6066
  328MOL0     H44218   6.731   9.818   4.448 -5.3121  2.4612 -0.3577
  328MOL0     H44219   6.919   9.962   4.375 -2.2810 -0.3899  0.4116
  328MOL0     H44220   6.915   9.882   4.216  1.4114  0.6984  0.1000
  328MOL0     H44221   6.943   9.660   4.348 -2.4408  0.1214  1.3392
  328MOL0     H44222   7.078   9.758   4.300 -1.9731  2.3874 -1.0046
  328MOL0     H44223   7.073   9.845   4.545 -0.5311 -0.3271  0.1243
  328MOL0     H44224   6.925   9.747   4.568 -0.7894  0.7189  0.4637
  328MOL0     H44225   7.111   9.634   4.668  2.1439  0.9904 -0.2631
  328MOL0     H44226   7.080   9.536   4.527  2.4042  0.1911 -0.7130
  328MOL0     H44227   7.298   9.738   4.568 -0.1503 -1.5239  1.5168
  328MOL0     H44228   7.262   9.666   4.409  1.3626 -0.0585 -0.3147
  328MOL0     H44229   7.313   9.488   4.647 -2.9367 -1.4970 -0.8638
  328MOL0     H44230   7.305   9.436   4.489  1.9603  1.4785 -2.5241
  328MOL0     H44231   7.511   9.720   4.386 -0.1391  0.7995  0.7452
  328MOL0     H44232   7.886   9.636   4.439  1.2900  2.4825  1.0671
  328MOL0     H44233   7.787   9.674   4.302 -1.3839 -0.7131  0.1995
  328MOL0     H44234   7.876   9.888   4.356  0.1916 -1.4557  0.4870
  328MOL0     H44235   7.730   9.905   4.446 -1.3243 -0.5568  2.0985
  328MOL0     H44236   7.842   9.841   4.660 -1.2984 -0.2954  0.4250
  328MOL0     H44237   7.939   9.960   4.564 -2.8705  0.0050 -1.1193
  328MOL0     H44238   8.010   9.663   4.590 -2.8413  0.8603 -1.7964
  328MOL0     H44239   8.080   9.797   4.676 -2.0327  2.5152  0.0043
  328MOL0     H44240   8.291   9.754   4.286 -1.8810  0.1491  0.6425
  328MOL0     H44241   8.529   9.687   4.293 -1.7354  0.5692 -0.3866
  328MOL0     H44242   8.806   9.352   4.750  2.2414 -2.8020 -2.2266
  328MOL0     H44243   9.045   9.317   4.813 -1.8447 -0.9081 -0.2872
  328MOL0     H44244   9.349   9.452   4.533 -1.0556 -1.4295  0.0162
  328MOL0     H44245   9.385   9.573   4.670 -1.3875 -0.5077  1.8505
  328MOL0     H44246   9.512   9.423   4.785  1.2641  3.2028 -1.6880
  328MOL0     H44247   9.469   9.286   4.678 -1.5252  0.6553 -1.0929
  328MOL0     H44248   9.688   9.366   4.617  1.5884  1.5091 -3.5022
  328MOL0     H44249   9.569   9.369   4.493 -3.0262 -0.3083  0.1212
  328MOL0     H44250   9.649   9.608   4.680  1.7604  0.1932 -1.0652
  328MOL0     H44251   9.554   9.623   4.530  0.5099 -0.8881 -1.4254
  328MOL0     H44252   9.839   9.521   4.528  1.8425  1.8030 -2.6868
  328MOL0     H44253   9.783   9.694   4.510  1.7815  0.7229  1.8210
  328MOL0     H44254   9.718   9.446   4.335 -1.4731  0.6118  1.3135
  328MOL0     H44255   9.636   9.594   4.321 -1.6804 -2.6096  1.2638
  328MOL0     H44256   9.856   9.713   4.255  4.5538 -0.0793  1.5417
  328MOL0     H44257   9.806   9.592   4.149  2.9668  1.1865 -0.7521
  328MOL0     H44258  10.045   9.575   4.191  2.4669  0.4630  3.4137
  328MOL0     H44259  10.011   9.538   4.360 -0.8622  2.3824  0.9643
  328MOL0     H44260   9.172   9.626   4.558 -4.5076  1.9047 -5.3835
  328MOL0     H44261   8.943   9.705   4.538  2.0920 -0.4531 -1.9713
  328MOL0     H44262   8.477   9.556   4.694 -1.2823 -1.8187  0.1786
  328MOL0     H44263   8.244   9.659   4.699 -0.0736 -0.7679 -0.7585
  328MOL0     H44264   6.502  10.189   4.189  2.5324 -1.3348  1.0516
  328MOL0     H44265   6.305  10.235   4.046  0.0709  0.1736 -1.9254
  328MOL0     H44266   6.055  10.231   3.827  0.4689 -1.4481 -0.8391
  328MOL0     H44267   5.833  10.286   3.725 -1.5232 -1.1137 -0.1234
  328MOL0     H44268   5.679  10.399   3.557  1.8901 -0.5679 -0.2906
  328MOL0     H44269   5.623  10.240   3.608 -6.4269  0.0817 -1.2021
  328MOL0     H44270   5.523  10.197   3.386 -0.5711 -0.5273  1.8955
  328MOL0     H44271   5.575  10.359   3.328 -2.0168  1.6727  0.2536
  328MOL0     H44272   5.432  10.417   3.561 -0.3311  0.4198 -0.3651
  328MOL0     H44273   5.366  10.262   3.528 -0.1996  1.4740  0.9502
  328MOL0     H44274   5.373  10.483   3.324 -1.4753  0.1732 -0.1514
  328MOL0     H44275   5.333  10.327   3.274  0.2378 -0.9427  0.4918
  328MOL0     H44276   4.969  10.464   3.427  0.4074  1.5358  1.0034
  328MOL0     H44277   5.986  10.151   3.346  3.3408 -4.4634  1.1926
  328MOL0     H44278   6.267  10.200   3.359  1.0577  0.1189  2.0410
  328MOL0     H44279   6.308  10.064   3.454 -0.2994  0.3523  0.5152
  328MOL0     H44280   6.201  10.028   3.326  1.3206  0.1121  0.5799
  329MOL0     O44281   6.486   5.324  10.309 -0.9263  0.6382  0.3565
  329MOL0     C44282   6.410   5.411  10.310  0.5728 -0.5384 -0.7423
  329MOL0     O44283   6.424   5.546  10.287 -0.9256 -0.0153 -0.8778
  329MOL0     C44284   6.556   5.601  10.278 -0.0488 -0.6986  0.2300
  329MOL0     C44285   6.602   5.691  10.380 -0.6631 -0.1858  0.0919
  329MOL0     C44286   6.729   5.741  10.379 -0.0855  0.4328  0.6277
  329MOL0     C44287   6.814   5.714  10.276 -0.9613  0.6146 -0.5996
  329MOL0     O44288   6.939   5.775  10.279 -0.8181  0.3579  0.1590
  329MOL0     C44289   7.020   5.759  10.165  0.3834  0.8086 -0.7949
  329MOL0     C44290   7.131   5.865  10.158 -0.1597  0.6704  0.3096
  329MOL0     C44291   7.230   5.835  10.048 -0.0073 -0.2190 -0.4007
  329MOL0     C44292   7.346   5.937  10.065  0.0751  0.5324  0.0711
  329MOL0     C44293   7.462   5.910   9.962 -0.4305  0.1149 -0.1924
  329MOL0     C44294   7.577   6.014   9.980  0.0153 -0.4088 -0.1556
  329MOL0     C44295   7.711   5.967   9.913 -0.6027  0.3378 -0.4185
  329MOL0     C44296   7.829   6.056   9.951  0.3213  0.0731  0.1649
  329MOL0     N44297   7.944   6.014   9.871  0.3393  0.8641  0.1923
  329MOL0     C44298   8.035   5.914   9.903  0.3920  0.1679 -0.0792
  329MOL0     C44299   8.099   5.897   9.785 -0.4588  0.3782 -0.7860
  329MOL0     C44300   8.200   5.793   9.766 -0.3857  0.1649  0.2033
  329MOL0     C44301   8.335   5.814   9.837 -0.7247  0.1715  0.0456
  329MOL0     C44302   8.403   5.941   9.798  0.0534 -0.2263 -0.1169
  329MOL0     C44303   8.415   5.971   9.647  0.7119 -0.2992  0.3970
  329MOL0     O44304   8.466   5.857   9.573 -0.2773  0.3635 -0.6502
  329MOL0     C44305   8.586   5.801   9.615 -0.5777  0.1367  0.2740
  329MOL0     C44306   8.595   5.667   9.608  0.2828  0.3630 -0.0378
  329MOL0     C44307   8.722   5.604   9.634  0.7768  0.2372 -0.1173
  329MOL0     C44308   8.837   5.676   9.676 -0.1312 -0.0774 -0.2167
  329MOL0     C44309   8.965   5.613   9.714  0.0826  0.1341 -0.1710
  329MOL0     O44310   9.064   5.700   9.769 -0.2518  0.0633 -0.2261
  329MOL0     C44311   9.184   5.657   9.817  0.1811  0.1006 -0.1616
  329MOL0     C44312   9.226   5.523   9.858  0.0385  0.3081 -0.0684
  329MOL0     C44313   9.360   5.500   9.897  0.1104  0.6446 -0.3576
  329MOL0     C44314   9.463   5.599   9.888  0.7816  0.0121 -0.9925
  329MOL0     O44315   9.593   5.559   9.916  0.1076  0.0278 -0.0724
  329MOL0     C44316   9.693   5.654   9.910 -0.7245  0.1658 -0.0655
  329MOL0     C44317   9.836   5.587   9.899  0.9122  0.2397  0.1711
  329MOL0     C44318   9.937   5.707   9.919  0.4694  0.2078  0.2875
  329MOL0     C44319  10.079   5.677   9.864  0.7454 -0.0624  0.0377
  329MOL0     C44320  10.177   5.791   9.886 -0.4818  0.1992 -0.0207
  329MOL0     C44321  10.314   5.741   9.831 -0.1657  0.3833 -0.3169
  329MOL0     C44322  10.412   5.846   9.882  0.8396 -0.2423 -0.3908
  329MOL0     C44323  10.552   5.848   9.827  0.5085  0.2113  0.8304
  329MOL0    Cl44324  10.645   5.707   9.864 -0.2805 -0.0869  0.1885
  329MOL0     C44325   9.417   5.732   9.861  0.0983 -0.4404 -0.8774
  329MOL0     C44326   9.273   5.754   9.838 -0.5413 -0.3523  0.5262
  329MOL0     O44327   8.984   5.496   9.688  0.4614  0.6439  0.6871
  329MOL0     C44328   8.819   5.817   9.681 -0.1872  0.4639 -0.4508
  329MOL0     C44329   8.695   5.878   9.652 -0.7880  0.5197  1.0010
  329MOL0     N44330   8.048   5.982   9.688  0.0309  1.2711 -1.3184
  329MOL0     N44331   7.954   6.051   9.746 -0.1959  0.0216  0.1799
  329MOL0     C44332   6.772   5.625  10.178 -0.1749  0.1481 -0.4905
  329MOL0     C44333   6.643   5.572  10.173  0.3141  0.3026  0.2537
  329MOL0     C44334   6.274   5.372  10.337  0.1761  0.8773 -0.7005
  329MOL0     C44335   6.252   5.249  10.410  0.0966  0.1393 -0.0112
  329MOL0     C44336   6.127   5.202  10.436  0.0202 -0.3129 -0.1147
  329MOL0     C44337   6.008   5.276  10.405 -0.6111  0.2426  1.2455
  329MOL0     O44338   5.885   5.228  10.423  0.8013  0.4553 -0.2990
  329MOL0     C44339   5.761   5.292  10.403  0.1529  0.0728 -0.5956
  329MOL0     C44340   5.650   5.184  10.438  0.5246  1.1373 -0.1237
  329MOL0     C44341   5.512   5.233  10.398 -0.2414  0.3592  0.1369
  329MOL0     C44342   5.411   5.116  10.379 -0.1850  0.5574 -0.3122
  329MOL0     C44343   5.277   5.158  10.372  0.9035 -0.3961  0.3462
  329MOL0     C44344   5.169   5.213  10.369 -0.0683 -0.3438  0.5913
  329MOL0     C44345   6.030   5.396  10.331  0.1977 -0.3213 -0.6783
  329MOL0     C44346   6.154   5.454  10.307 -0.0877 -0.1917  0.4533
  329MOL0     C44347   6.157   5.570  10.219  0.3447 -0.3832 -0.5148
  329MOL0     H44348   6.522   5.728  10.443 -0.9084  4.1665 -2.3738
  329MOL0     H44349   6.767   5.796  10.465  3.5041 -0.8577  0.0347
  329MOL0     H44350   7.061   5.658  10.178 -0.3054  0.7553  1.3645
  329MOL0     H44351   6.967   5.764  10.069  1.9521 -2.3952 -1.9635
  329MOL0     H44352   7.178   5.874  10.257  2.0444  3.1066 -0.8237
  329MOL0     H44353   7.076   5.958  10.138 -0.0309  0.7116  0.1445
  329MOL0     H44354   7.184   5.851   9.950  1.4325  0.2674 -1.0209
  329MOL0     H44355   7.277   5.736  10.044  1.0399  0.2817 -0.8740
  329MOL0     H44356   7.308   6.038  10.047 -1.3445 -0.1976 -1.3513
  329MOL0     H44357   7.386   5.925  10.166  0.1334  0.6210  0.0579
  329MOL0     H44358   7.509   5.812   9.979  1.7115  0.8731 -1.4008
  329MOL0     H44359   7.433   5.910   9.857 -0.3867  1.3361 -0.2130
  329MOL0     H44360   7.552   6.111   9.938  1.2342  0.2549  0.5943
  329MOL0     H44361   7.592   6.024  10.088  0.5799 -3.2191  0.1107
  329MOL0     H44362   7.703   5.978   9.804  2.3985 -1.5506 -0.9164
  329MOL0     H44363   7.729   5.862   9.935 -0.7888  0.3493 -0.2093
  329MOL0     H44364   7.795   6.159   9.938  1.2379  0.2302 -1.1447
  329MOL0     H44365   7.844   6.038  10.058  3.4237  1.8724  0.1384
  329MOL0     H44366   8.064   5.863   9.995 -0.1774 -0.1083 -0.0510
  329MOL0     H44367   8.157   5.701   9.808  2.1698 -1.1804  0.0905
  329MOL0     H44368   8.210   5.763   9.661 -0.6169 -0.4550  0.3506
  329MOL0     H44369   8.304   5.811   9.942 -1.5756 -1.1716 -0.2154
  329MOL0     H44370   8.412   5.738   9.822  0.3087  1.3554 -0.9309
  329MOL0     H44371   8.505   5.937   9.838 -0.0663 -0.0746  0.1993
  329MOL0     H44372   8.347   6.023   9.842 -1.5513 -1.4622  0.2279
  329MOL0     H44373   8.472   6.061   9.623  0.1149 -0.0797 -0.2358
  329MOL0     H44374   8.313   5.981   9.609  0.0892 -1.7403  1.5935
  329MOL0     H44375   8.509   5.614   9.569 -0.4751  1.9431 -0.5667
  329MOL0     H44376   8.728   5.496   9.626 -1.2555  0.1013 -0.4989
  329MOL0     H44377   9.144   5.452   9.860  0.1760  0.1650  0.4133
  329MOL0     H44378   9.405   5.405   9.922 -0.2667  0.5592  0.0163
  329MOL0     H44379   9.680   5.716   9.821  0.4704  1.5660  0.6935
  329MOL0     H44380   9.690   5.719   9.998  0.9667 -2.5428  2.1339
  329MOL0     H44381   9.838   5.523   9.988 -0.6698  2.6121  2.0644
  329MOL0     H44382   9.853   5.532   9.806 -0.3849  0.6593 -0.3397
  329MOL0     H44383   9.906   5.796   9.862  1.6037 -0.4861 -1.4905
  329MOL0     H44384   9.945   5.730  10.026  1.6461  0.9563  0.0554
  329MOL0     H44385  10.071   5.653   9.757 -2.5331  0.1875  0.1291
  329MOL0     H44386  10.111   5.588   9.919  0.1556 -0.2009  0.1710
  329MOL0     H44387  10.186   5.804   9.995  0.1751  2.1833 -0.2773
  329MOL0     H44388  10.153   5.883   9.832 -0.0886 -0.0258 -0.5847
  329MOL0     H44389  10.328   5.642   9.876 -2.9830  1.6017  3.8876
  329MOL0     H44390  10.314   5.744   9.722 -1.1818  0.2640 -0.3308
  329MOL0     H44391  10.415   5.829   9.990  3.5435  1.2405 -0.1662
  329MOL0     H44392  10.366   5.943   9.862 -0.8062 -0.6738  1.0697
  329MOL0     H44393  10.538   5.841   9.719 -0.8751 -1.4624  1.0682
  329MOL0     H44394  10.613   5.935   9.853  2.0149 -0.0098 -1.6659
  329MOL0     H44395   9.490   5.810   9.845 -0.4248 -0.3471 -3.0694
  329MOL0     H44396   9.241   5.857   9.823  1.0868  0.0442 -0.4857
  329MOL0     H44397   8.906   5.872   9.713 -0.5959  1.0870 -0.4064
  329MOL0     H44398   8.677   5.985   9.646 -0.7604  0.4197 -2.3227
  329MOL0     H44399   6.837   5.592  10.097  0.6311 -0.0764  0.2445
  329MOL0     H44400   6.602   5.516  10.089  1.7596  1.7085 -1.4918
  329MOL0     H44401   6.334   5.180  10.427  1.3626  1.2980 -1.0812
  329MOL0     H44402   6.109   5.107  10.486 -0.7495  0.5389  1.2868
  329MOL0     H44403   5.745   5.328  10.301  0.7061  2.1436  0.0077
  329MOL0     H44404   5.748   5.371  10.478 -2.2103 -0.3611 -0.4433
  329MOL0     H44405   5.655   5.164  10.546  0.0153  1.8704  0.0429
  329MOL0     H44406   5.679   5.092  10.386  1.6911  0.8179  1.0334
  329MOL0     H44407   5.530   5.278  10.300  0.6802 -0.0962  0.0836
  329MOL0     H44408   5.484   5.308  10.472  0.2197  0.7134 -0.0392
  329MOL0     H44409   5.432   5.062  10.286  1.3331  1.9615 -0.8459
  329MOL0     H44410   5.410   5.058  10.471  0.8883  1.7250  0.4710
  329MOL0     H44411   5.073   5.262  10.365  0.5477  0.8701  0.1008
  329MOL0     H44412   5.939   5.443  10.295 -1.8147 -3.3579  0.1079
  329MOL0     H44413   6.059   5.598  10.179  1.2371  1.1473 -1.7355
  329MOL0     H44414   6.184   5.658  10.278  0.9414  0.5453 -2.1007
  329MOL0     H44415   6.226   5.555  10.136  1.7622 -0.1056  0.5778
  330MOL0     O44416   4.231   1.218   5.430  0.0614 -1.3165 -0.4213
  330MOL0     C44417   4.200   1.103   5.463 -0.3952  0.2240 -0.1273
  330MOL0     O44418   4.292   1.015   5.522  0.2128  0.4022 -0.2217
  330MOL0     C44419   4.422   1.057   5.521  0.0309 -0.4275 -0.3339
  330MOL0     C44420   4.475   1.121   5.630 -0.0991  0.1966 -0.4938
  330MOL0     C44421   4.604   1.172   5.634 -0.6446 -0.5554 -0.1977
  330MOL0     C44422   4.685   1.155   5.519  0.0952  0.0390  0.0018
  330MOL0     O44423   4.811   1.213   5.518  0.6356  0.2920 -0.0523
  330MOL0     C44424   4.857   1.304   5.626 -0.6961  0.3538 -0.0073
  330MOL0     C44425   5.000   1.350   5.587 -0.6078 -0.1716 -0.4441
  330MOL0     C44426   5.071   1.424   5.706 -0.0482 -0.5006  0.1057
  330MOL0     C44427   5.212   1.464   5.666 -0.1615 -0.2576 -0.2966
  330MOL0     C44428   5.284   1.540   5.791  0.1286  0.8690 -0.4386
  330MOL0     C44429   5.404   1.624   5.749  0.6215  0.5208 -0.4520
  330MOL0     C44430   5.496   1.655   5.867 -0.3185 -0.0975 -0.4802
  330MOL0     C44431   5.577   1.524   5.897 -0.4837  0.6426 -0.8313
  330MOL0     N44432   5.699   1.529   5.981 -0.1368  0.2708 -0.6385
  330MOL0     C44433   5.697   1.584   6.109 -0.7072 -0.8018 -0.9559
  330MOL0     C44434   5.821   1.573   6.151  0.2254  0.3684  0.0214
  330MOL0     C44435   5.863   1.627   6.283  0.0548 -0.7790  0.2209
  330MOL0     C44436   6.010   1.600   6.313 -0.1718  0.3851 -0.0398
  330MOL0     C44437   6.105   1.701   6.240 -0.5813  0.4820 -0.1277
  330MOL0     C44438   6.258   1.673   6.255  0.3244  0.6894 -0.0364
  330MOL0     O44439   6.288   1.673   6.395 -0.2472 -0.3009  0.4026
  330MOL0     C44440   6.407   1.721   6.432  0.6114  0.6902 -0.0419
  330MOL0     C44441   6.519   1.729   6.355 -0.2192  0.5665  0.1466
  330MOL0     C44442   6.640   1.781   6.402  0.1135 -0.3914 -0.5520
  330MOL0     C44443   6.650   1.823   6.540 -0.2761 -0.4936  0.1061
  330MOL0     C44444   6.778   1.873   6.598  0.0026 -0.2896  0.7992
  330MOL0     O44445   6.885   1.902   6.503 -0.1014 -0.9352 -0.2080
  330MOL0     C44446   7.012   1.930   6.547 -0.5377  0.9159  0.3663
  330MOL0     C44447   7.110   1.836   6.602  0.8422  0.2908 -0.7400
  330MOL0     C44448   7.241   1.877   6.633 -0.5426  0.4136  0.5069
  330MOL0     C44449   7.279   2.007   6.614 -0.3251  0.1850 -0.8916
  330MOL0     O44450   7.404   2.066   6.654  0.0554 -0.1677  0.2834
  330MOL0     C44451   7.483   1.985   6.737  0.0614  0.4674  0.4262
  330MOL0     C44452   7.594   2.056   6.806  0.0358 -1.2764 -0.8657
  330MOL0     C44453   7.685   2.128   6.705  0.8627  0.4252  0.5218
  330MOL0     C44454   7.780   2.025   6.637 -0.0248 -0.7976  0.2438
  330MOL0     C44455   7.852   2.110   6.527 -1.0030  0.6173 -0.4091
  330MOL0     C44456   7.962   2.013   6.473  0.0174  0.1618  0.0250
  330MOL0     C44457   8.046   2.090   6.377 -0.3998  0.0750  0.6804
  330MOL0     C44458   8.165   2.006   6.319  0.4506  0.0172  0.2955
  330MOL0    Cl44459   8.274   2.092   6.214 -0.6034  0.3146  0.0794
  330MOL0     C44460   7.187   2.094   6.555  0.3310 -0.3136 -1.4765
  330MOL0     C44461   7.062   2.055   6.517 -0.2090 -0.9131 -0.4222
  330MOL0     O44462   6.794   1.870   6.718  0.3915  0.0520 -0.7088
  330MOL0     C44463   6.536   1.818   6.618  0.8822 -0.1376  1.0614
  330MOL0     C44464   6.414   1.770   6.560  0.7061  0.8440 -0.4647
  330MOL0     N44465   5.896   1.493   6.052 -0.3670 -0.0878  0.2384
  330MOL0     N44466   5.824   1.483   5.946  0.1409 -0.0760 -0.2630
  330MOL0     C44467   4.637   1.090   5.407 -0.2637  0.1543  0.4519
  330MOL0     C44468   4.513   1.028   5.417  0.2185 -0.8691  0.4623
  330MOL0     C44469   4.054   1.056   5.457  0.4879 -0.9120 -0.2503
  330MOL0     C44470   3.954   1.157   5.476 -0.0130 -0.6070 -0.0857
  330MOL0     C44471   3.821   1.118   5.462  0.4426 -0.1528  0.0206
  330MOL0     C44472   3.782   0.987   5.419 -0.3689 -0.6083  0.2263
  330MOL0     O44473   3.645   0.967   5.414 -0.0320  0.0322 -1.0213
  330MOL0     C44474   3.613   0.840   5.360 -0.0952  0.1166  0.5863
  330MOL0     C44475   3.461   0.805   5.366  0.3079 -0.1319 -0.5897
  330MOL0     C44476   3.379   0.906   5.291  0.1491 -0.1756  0.4671
  330MOL0     C44477   3.232   0.862   5.289 -0.1942 -1.0643  0.1747
  330MOL0     C44478   3.149   0.915   5.176 -0.1238  0.5980 -0.3529
  330MOL0     C44479   3.077   0.959   5.094  0.2922  0.3075  0.1516
  330MOL0     C44480   3.890   0.899   5.387 -0.5248  0.0383 -0.3816
  330MOL0     C44481   4.019   0.928   5.419 -0.8052  0.3737  0.9521
  330MOL0     C44482   4.124   0.820   5.383  0.6888  0.4604 -0.1992
  330MOL0     H44483   4.400   1.138   5.707 -2.4646  0.8149 -2.8063
  330MOL0     H44484   4.632   1.234   5.719 -2.9056  0.1197  0.1141
  330MOL0     H44485   4.792   1.392   5.628 -2.1271 -0.6744  1.8630
  330MOL0     H44486   4.866   1.261   5.726  0.4332 -0.8005 -0.5677
  330MOL0     H44487   4.981   1.424   5.509 -0.0158 -0.0764 -0.5040
  330MOL0     H44488   5.075   1.282   5.545  1.0636  2.2582 -1.6603
  330MOL0     H44489   5.072   1.353   5.789  0.9706 -3.9297 -2.6212
  330MOL0     H44490   5.011   1.512   5.731 -0.0689 -0.5633  0.2750
  330MOL0     H44491   5.274   1.378   5.639  0.9104 -0.4916  2.5361
  330MOL0     H44492   5.201   1.532   5.581 -1.0921 -0.3283 -0.2491
  330MOL0     H44493   5.207   1.598   5.840 -2.0387 -2.1117 -0.0375
  330MOL0     H44494   5.311   1.455   5.855 -0.7571 -0.9135 -2.2822
  330MOL0     H44495   5.456   1.560   5.677 -0.9027 -0.8158 -0.4138
  330MOL0     H44496   5.370   1.715   5.698  2.5247 -0.0655 -2.9657
  330MOL0     H44497   5.455   1.696   5.960  3.6016 -2.4902  2.5832
  330MOL0     H44498   5.574   1.724   5.832 -0.6809  0.8129  0.4445
  330MOL0     H44499   5.511   1.449   5.941  3.1248 -3.0443 -1.0419
  330MOL0     H44500   5.603   1.484   5.798  1.9269  0.8652 -0.3627
  330MOL0     H44501   5.617   1.635   6.161 -0.8228 -1.5608 -0.3771
  330MOL0     H44502   5.840   1.734   6.286 -0.9816 -0.9955  0.4081
  330MOL0     H44503   5.798   1.593   6.364 -3.8844  1.4883 -1.6693
  330MOL0     H44504   6.015   1.609   6.422 -0.0634  1.6449 -0.1367
  330MOL0     H44505   6.041   1.497   6.291 -0.8581  0.1073  0.2801
  330MOL0     H44506   6.087   1.803   6.274  0.0755  0.2058  1.1119
  330MOL0     H44507   6.080   1.682   6.135 -2.4145 -1.8551  0.6185
  330MOL0     H44508   6.306   1.755   6.200  1.3695  0.7862  0.9941
  330MOL0     H44509   6.282   1.576   6.209  3.2320  1.2031  0.2536
  330MOL0     H44510   6.520   1.683   6.257  0.3227  0.5092  0.1785
  330MOL0     H44511   6.729   1.797   6.342  0.9982 -1.9304  0.2841
  330MOL0     H44512   7.091   1.730   6.615 -0.3186  0.3333 -1.9693
  330MOL0     H44513   7.315   1.802   6.661 -0.8227  0.2794  0.8923
  330MOL0     H44514   7.418   1.942   6.814  1.1114 -1.5059  0.2802
  330MOL0     H44515   7.520   1.900   6.678 -2.7026 -0.1621 -0.5544
  330MOL0     H44516   7.551   2.129   6.875  1.4908 -0.1503 -1.1066
  330MOL0     H44517   7.645   1.985   6.872  0.7627 -0.8232 -0.9304
  330MOL0     H44518   7.617   2.179   6.636  1.8227 -0.8099 -1.4375
  330MOL0     H44519   7.742   2.209   6.752 -0.2471  0.7788  1.2974
  330MOL0     H44520   7.719   1.944   6.596 -0.8587 -0.0231 -0.0972
  330MOL0     H44521   7.849   1.971   6.702  0.5676 -1.6476 -1.0664
  330MOL0     H44522   7.906   2.191   6.576  0.0082  1.1352 -2.2553
  330MOL0     H44523   7.781   2.150   6.454 -2.5293 -1.2895 -0.0601
  330MOL0     H44524   8.021   1.972   6.555 -0.2451  0.4383  0.3524
  330MOL0     H44525   7.907   1.936   6.419  0.2632  0.4125 -0.6075
  330MOL0     H44526   8.085   2.184   6.418  2.1818 -0.7725  0.3722
  330MOL0     H44527   7.982   2.105   6.289 -0.9235 -1.8698  0.6838
  330MOL0     H44528   8.229   1.959   6.395 -0.2473  0.7527  1.3567
  330MOL0     H44529   8.120   1.924   6.263 -0.6172  1.3427 -0.8290
  330MOL0     H44530   7.205   2.200   6.547 -0.6894 -0.0293 -0.3580
  330MOL0     H44531   6.996   2.126   6.468 -0.6082 -1.4302 -0.6462
  330MOL0     H44532   6.534   1.857   6.719  0.1452 -0.0201  1.0058
  330MOL0     H44533   6.324   1.765   6.621  0.5446 -2.5369 -0.7963
  330MOL0     H44534   4.706   1.071   5.326 -1.2295  1.1436 -0.6380
  330MOL0     H44535   4.482   0.969   5.331 -0.2850  0.8526 -0.6032
  330MOL0     H44536   3.986   1.258   5.500 -0.0949 -0.7680  0.7216
  330MOL0     H44537   3.744   1.193   5.476  0.3204  0.1066 -1.7867
  330MOL0     H44538   3.675   0.765   5.410 -0.0913 -1.9705 -2.2885
  330MOL0     H44539   3.636   0.834   5.253  0.1431  2.3532  0.4726
  330MOL0     H44540   3.434   0.811   5.472  0.3335  1.0486 -0.6343
  330MOL0     H44541   3.440   0.704   5.330  2.0522  0.1497 -2.5955
  330MOL0     H44542   3.412   0.915   5.187 -0.1632  0.3471  0.4094
  330MOL0     H44543   3.385   1.004   5.338  1.1318  0.3257 -0.6474
  330MOL0     H44544   3.219   0.754   5.300 -1.7598 -0.8406  0.6694
  330MOL0     H44545   3.191   0.909   5.378  1.1630  0.1547  0.1830
  330MOL0     H44546   3.015   1.002   5.017 -1.9297  0.3371  1.8532
  330MOL0     H44547   3.858   0.804   5.344 -0.6339  0.3287 -0.9588
  330MOL0     H44548   4.139   0.763   5.475 -1.2374 -0.7539 -0.6011
  330MOL0     H44549   4.092   0.754   5.302  0.1012 -0.8427  1.0700
  330MOL0     H44550   4.216   0.863   5.340  0.7844  1.4068  0.8893
  331MOL0     O44551   6.937   5.103   9.458 -0.0726 -0.3764 -0.0582
  331MOL0     C44552   6.882   5.120   9.349 -0.3700  0.1513  0.4975
  331MOL0     O44553   6.922   5.074   9.227  0.1694 -0.3461  0.3266
  331MOL0     C44554   7.017   4.978   9.232  0.0212  0.4347 -0.4091
  331MOL0     C44555   6.984   4.849   9.202  0.8903 -0.6807 -0.0728
  331MOL0     C44556   7.082   4.750   9.201 -0.4095 -0.5969 -0.2088
  331MOL0     C44557   7.222   4.776   9.232 -0.1298  0.3526  0.3532
  331MOL0     O44558   7.333   4.693   9.236 -0.1402  0.7209 -0.6410
  331MOL0     C44559   7.326   4.558   9.179 -0.2061  0.1621  0.2888
  331MOL0     C44560   7.354   4.555   9.030  0.0442  0.6028  0.1459
  331MOL0     C44561   7.500   4.579   8.995  0.1453 -0.4561  0.5303
  331MOL0     C44562   7.538   4.546   8.847  0.2611  0.1411 -0.3865
  331MOL0     C44563   7.686   4.582   8.815 -0.0883  0.2128  0.3781
  331MOL0     C44564   7.708   4.588   8.671 -0.6967 -0.0645 -0.2069
  331MOL0     C44565   7.832   4.664   8.638  0.0521  0.2993  0.0896
  331MOL0     C44566   7.958   4.587   8.672  0.2509 -0.1994  0.2413
  331MOL0     N44567   8.069   4.687   8.703  0.0935  0.5458 -0.1589
  331MOL0     C44568   8.073   4.761   8.817 -0.6876 -0.7426  0.2566
  331MOL0     C44569   8.197   4.821   8.817 -0.3131 -0.6158 -0.4840
  331MOL0     C44570   8.250   4.907   8.920  0.2249  0.1366 -0.0248
  331MOL0     C44571   8.398   4.926   8.904  0.3045  0.5117 -0.3828
  331MOL0     C44572   8.448   5.023   9.009 -0.6446  0.3264 -1.2951
  331MOL0     C44573   8.598   5.053   9.002  0.0502 -0.6836  0.3860
  331MOL0     O44574   8.641   5.138   9.102 -0.2547 -0.0840 -0.4283
  331MOL0     C44575   8.768   5.171   9.117 -0.0510  0.5513 -0.3349
  331MOL0     C44576   8.859   5.165   9.018  0.0592 -0.1193  0.3992
  331MOL0     C44577   8.992   5.205   9.045  0.9260  0.5494  0.0425
  331MOL0     C44578   9.034   5.264   9.159  0.2906  0.3524  0.1431
  331MOL0     C44579   9.167   5.327   9.167 -0.3730 -0.1520  0.0881
  331MOL0     O44580   9.220   5.361   9.288 -0.3545 -0.1358  0.1598
  331MOL0     C44581   9.346   5.415   9.304 -0.4063  0.0573  0.9011
  331MOL0     C44582   9.374   5.445   9.441  0.2943 -0.9033  0.3293
  331MOL0     C44583   9.490   5.510   9.475  0.4885  0.8435 -1.1791
  331MOL0     C44584   9.594   5.537   9.388  0.6986  0.3869  0.1433
  331MOL0     O44585   9.705   5.597   9.430  0.3962  0.7325 -0.2106
  331MOL0     C44586   9.828   5.567   9.367 -0.5644  0.3308  0.0713
  331MOL0     C44587   9.947   5.638   9.432  0.0434 -0.8160 -0.3163
  331MOL0     C44588  10.072   5.579   9.378  0.1787 -0.0076  0.0312
  331MOL0     C44589  10.199   5.660   9.419 -0.3164 -0.1455 -0.8252
  331MOL0     C44590  10.321   5.571   9.397  0.6953  0.0854 -1.1338
  331MOL0     C44591  10.445   5.647   9.441  0.5300  0.2447  0.5191
  331MOL0     C44592  10.565   5.555   9.419  0.0528  0.2674 -0.2195
  331MOL0     C44593  10.681   5.597   9.510  0.2983  0.2180  0.6162
  331MOL0    Cl44594  10.754   5.749   9.441 -0.1858  0.2143  0.2993
  331MOL0     C44595   9.572   5.473   9.263 -0.3852 -1.1490 -0.2735
  331MOL0     C44596   9.456   5.410   9.218  0.5350 -0.7017  0.7445
  331MOL0     O44597   9.219   5.335   9.058  0.3812  0.1953  0.3158
  331MOL0     C44598   8.944   5.267   9.266  0.7414 -0.4295  0.5587
  331MOL0     C44599   8.813   5.224   9.242  0.0266  0.6103  0.0808
  331MOL0     N44600   8.260   4.790   8.699  1.4361  0.7131 -0.0468
  331MOL0     N44601   8.187   4.702   8.634  0.0284 -0.0291  0.2791
  331MOL0     C44602   7.259   4.910   9.253  1.0254  0.4445  0.5354
  331MOL0     C44603   7.156   5.006   9.253 -0.2777 -0.4936  0.1295
  331MOL0     C44604   6.777   5.218   9.354  0.7802 -0.2340  0.6451
  331MOL0     C44605   6.671   5.202   9.445  0.1626  0.5561 -0.8137
  331MOL0     C44606   6.564   5.291   9.450  0.2178 -0.7357  0.1733
  331MOL0     C44607   6.557   5.411   9.373 -0.1487 -0.4456  0.7187
  331MOL0     O44608   6.460   5.504   9.377  0.1936 -0.4082 -0.7326
  331MOL0     C44609   6.380   5.521   9.497 -0.2843  0.4233  0.6291
  331MOL0     C44610   6.230   5.472   9.487 -0.7657  0.1693 -0.3129
  331MOL0     C44611   6.170   5.502   9.626 -0.6853 -0.3290  0.4969
  331MOL0     C44612   6.015   5.504   9.628  0.7485 -0.3938  0.0559
  331MOL0     C44613   5.970   5.377   9.558 -0.6896 -0.7336  0.3094
  331MOL0     C44614   5.931   5.270   9.526  1.0350  0.2176  0.0722
  331MOL0     C44615   6.652   5.420   9.269 -0.7681 -0.6699  0.2991
  331MOL0     C44616   6.764   5.332   9.262  0.3942  0.0742  0.4288
  331MOL0     C44617   6.886   5.367   9.172 -0.2900  0.8381 -0.3678
  331MOL0     H44618   6.880   4.832   9.173  0.9249  0.1587 -0.7228
  331MOL0     H44619   7.049   4.648   9.184 -2.6760  0.1706 -0.7907
  331MOL0     H44620   7.385   4.481   9.229 -0.7435 -0.6536 -0.3142
  331MOL0     H44621   7.224   4.522   9.196 -1.5606  2.9372 -1.3230
  331MOL0     H44622   7.290   4.616   8.966  1.8573  1.2919 -1.0759
  331MOL0     H44623   7.330   4.451   9.003  1.0544 -0.1110  1.8413
  331MOL0     H44624   7.567   4.516   9.053 -0.2305 -1.7287 -0.3518
  331MOL0     H44625   7.517   4.684   9.021  0.1033 -0.4177  0.4079
  331MOL0     H44626   7.534   4.439   8.824  1.4703 -0.1984  0.8400
  331MOL0     H44627   7.470   4.604   8.783  0.5197 -0.3444 -1.1135
  331MOL0     H44628   7.718   4.675   8.863  0.6649  0.6350 -0.9215
  331MOL0     H44629   7.745   4.501   8.858 -1.7675  0.3223  3.2032
  331MOL0     H44630   7.710   4.490   8.621  1.2271 -0.0014 -0.3440
  331MOL0     H44631   7.628   4.652   8.633 -0.5515  0.3291  0.1382
  331MOL0     H44632   7.836   4.753   8.702  0.1283  1.0505 -0.9470
  331MOL0     H44633   7.841   4.692   8.533 -1.3001 -0.5907 -0.2923
  331MOL0     H44634   7.949   4.508   8.747  1.0954 -1.2269 -0.7034
  331MOL0     H44635   7.987   4.524   8.587  0.2298  0.1575 -0.0347
  331MOL0     H44636   7.992   4.765   8.889 -1.3853 -1.0447 -0.4916
  331MOL0     H44637   8.199   5.004   8.918  2.2919  1.2520 -1.5139
  331MOL0     H44638   8.235   4.856   9.016 -0.0296 -0.7370 -0.5125
  331MOL0     H44639   8.449   4.829   8.907  0.4943  0.6068  2.8762
  331MOL0     H44640   8.408   4.976   8.808  1.5704  1.9033  0.4343
  331MOL0     H44641   8.439   4.975   9.107  0.5312  0.5470 -1.0636
  331MOL0     H44642   8.394   5.118   9.016 -2.5654 -0.8065  1.9729
  331MOL0     H44643   8.610   5.115   8.913  1.5368  1.1716  1.8052
  331MOL0     H44644   8.661   4.965   8.985 -1.9001 -1.6741 -2.5045
  331MOL0     H44645   8.816   5.139   8.922  0.2101  1.3971 -0.1132
  331MOL0     H44646   9.060   5.203   8.960  0.8438  3.1481 -0.1668
  331MOL0     H44647   9.300   5.434   9.520  0.0252  2.2867  0.6232
  331MOL0     H44648   9.481   5.543   9.578 -1.6089 -0.7853 -0.7649
  331MOL0     H44649   9.833   5.458   9.367  0.0463  0.3491 -1.4075
  331MOL0     H44650   9.827   5.605   9.265  2.8175 -0.1012 -0.2114
  331MOL0     H44651   9.942   5.745   9.412 -2.2086 -1.3937 -3.7331
  331MOL0     H44652   9.933   5.618   9.539  0.3908  0.5725 -0.0006
  331MOL0     H44653  10.073   5.475   9.414  0.4119 -0.6045 -1.6230
  331MOL0     H44654  10.071   5.571   9.269 -0.7977 -1.8906  0.1273
  331MOL0     H44655  10.196   5.684   9.526 -0.7968 -0.0551 -0.8576
  331MOL0     H44656  10.204   5.752   9.360 -2.7468  0.7445  0.2367
  331MOL0     H44657  10.341   5.553   9.291 -1.9093  2.5554 -2.1733
  331MOL0     H44658  10.310   5.476   9.451 -2.2248  0.3071 -1.1746
  331MOL0     H44659  10.450   5.738   9.381 -0.9647  1.0044  1.4803
  331MOL0     H44660  10.434   5.679   9.545  3.1234  2.1365  0.3020
  331MOL0     H44661  10.585   5.549   9.312 -3.1256 -0.5994 -0.8869
  331MOL0     H44662  10.538   5.453   9.450 -0.8445  0.2329 -1.0575
  331MOL0     H44663  10.630   5.610   9.606  0.0954  0.0709  0.5284
  331MOL0     H44664  10.750   5.512   9.511 -0.8031 -0.8770 -2.8057
  331MOL0     H44665   9.660   5.485   9.201  0.0718  1.6667  0.8055
  331MOL0     H44666   9.438   5.362   9.123  2.1335 -3.8498  1.8862
  331MOL0     H44667   8.949   5.323   9.359  0.2020  1.1933 -0.3491
  331MOL0     H44668   8.745   5.235   9.326  1.4812 -1.9411  1.7179
  331MOL0     H44669   7.360   4.940   9.278  1.5924  0.8855 -2.0793
  331MOL0     H44670   7.182   5.109   9.274  1.3442 -0.7721 -0.4132
  331MOL0     H44671   6.679   5.121   9.517 -0.4113 -2.3414 -3.7191
  331MOL0     H44672   6.484   5.280   9.522  0.6865 -2.1112  0.5167
  331MOL0     H44673   6.362   5.627   9.515 -0.9612  0.2013  1.3379
  331MOL0     H44674   6.411   5.472   9.590  1.1641 -3.3698 -1.6120
  331MOL0     H44675   6.229   5.368   9.455  0.4212  0.1622 -0.3701
  331MOL0     H44676   6.183   5.533   9.409  0.4653  0.6194 -0.7304
  331MOL0     H44677   6.197   5.604   9.653 -0.2740 -0.4514  0.5518
  331MOL0     H44678   6.198   5.424   9.697 -3.3183 -1.9889 -0.1172
  331MOL0     H44679   5.981   5.521   9.731 -0.7036  2.8964 -0.8400
  331MOL0     H44680   5.983   5.587   9.565  1.0071  0.0361  0.4890
  331MOL0     H44681   5.886   5.176   9.501  1.1386 -0.0971  1.0204
  331MOL0     H44682   6.641   5.492   9.188 -0.9229 -0.2235  0.7088
  331MOL0     H44683   6.904   5.291   9.096  3.2415  1.3657 -0.2373
  331MOL0     H44684   6.866   5.463   9.124  0.0880 -0.1692 -2.6643
  331MOL0     H44685   6.978   5.365   9.232 -0.7000 -1.4530  0.2511
  332MOL0     O44686   0.773   7.625   6.035 -0.1955  0.6008 -0.1479
  332MOL0     C44687   0.692   7.678   5.955  0.9269  1.1564  0.0032
  332MOL0     O44688   0.730   7.762   5.861 -0.4415 -0.4734 -0.0034
  332MOL0     C44689   0.860   7.789   5.850 -0.7588  0.3459 -0.7057
  332MOL0     C44690   0.928   7.682   5.793  0.8377 -0.4399 -0.6846
  332MOL0     C44691   1.060   7.713   5.757  0.0245  0.6538  0.6768
  332MOL0     C44692   1.123   7.835   5.770 -0.2147  0.6960  0.0179
  332MOL0     O44693   1.246   7.873   5.721 -0.0586  0.3046 -0.0806
  332MOL0     C44694   1.354   7.774   5.700  1.0966 -0.2076 -0.2148
  332MOL0     C44695   1.488   7.851   5.664  0.3879  0.0733  0.2953
  332MOL0     C44696   1.612   7.765   5.679 -0.1250 -0.4651 -0.5478
  332MOL0     C44697   1.623   7.670   5.554 -0.2417  0.0198  0.3276
  332MOL0     C44698   1.750   7.584   5.563  0.1735 -0.2089  0.7015
  332MOL0     C44699   1.885   7.670   5.545 -0.1698  0.5741 -0.4120
  332MOL0     C44700   1.885   7.759   5.418  0.1860 -0.4480  0.5905
  332MOL0     C44701   1.858   7.700   5.286  0.0160  0.7278 -0.6523
  332MOL0     N44702   1.961   7.605   5.232 -0.3629  0.5641  0.3491
  332MOL0     C44703   1.995   7.580   5.097 -0.5379  0.5092 -0.1160
  332MOL0     C44704   2.108   7.511   5.108 -0.4833  0.3159 -0.7606
  332MOL0     C44705   2.184   7.423   5.003 -0.3604 -0.7642  1.2002
  332MOL0     C44706   2.097   7.328   4.926  1.0074  0.6728 -0.2477
  332MOL0     C44707   2.180   7.252   4.819 -0.0133  0.1061  0.4493
  332MOL0     C44708   2.267   7.147   4.888  0.2267 -0.1342  0.2839
  332MOL0     O44709   2.405   7.175   4.922 -0.1348 -0.7300  0.0389
  332MOL0     C44710   2.474   7.073   4.982  0.2845 -0.2360 -0.0258
  332MOL0     C44711   2.440   6.938   5.002 -0.4042  0.1087 -0.9824
  332MOL0     C44712   2.527   6.847   5.067 -0.1076  0.1761 -0.0808
  332MOL0     C44713   2.648   6.888   5.117  0.0745 -0.3181  0.1219
  332MOL0     C44714   2.749   6.796   5.185 -0.4951  0.5710 -0.2035
  332MOL0     O44715   2.880   6.836   5.200  0.4140  0.0202 -0.1303
  332MOL0     C44716   2.963   6.762   5.282  0.9055 -0.4751  0.0200
  332MOL0     C44717   2.981   6.622   5.269  0.0235 -0.0878  0.2611
  332MOL0     C44718   3.073   6.559   5.348  0.0464  0.1202 -0.2919
  332MOL0     C44719   3.136   6.627   5.456 -0.0981  0.4365  0.2036
  332MOL0     O44720   3.219   6.566   5.544 -0.2041  0.5819  0.7426
  332MOL0     C44721   3.355   6.609   5.554  0.0977 -0.1796 -0.6307
  332MOL0     C44722   3.443   6.564   5.433 -0.3355  0.3298 -0.8684
  332MOL0     C44723   3.447   6.408   5.421  0.1908 -0.0670  1.1005
  332MOL0     C44724   3.561   6.361   5.332  0.2152 -0.2111  0.3471
  332MOL0     C44725   3.695   6.394   5.386 -0.9438  0.2564  0.3075
  332MOL0     C44726   3.803   6.347   5.291  0.1352 -0.5624  0.3148
  332MOL0     C44727   3.801   6.195   5.271  0.1997  0.2817  0.1057
  332MOL0     C44728   3.912   6.138   5.177 -0.0811 -0.2073 -0.0093
  332MOL0    Cl44729   4.056   6.108   5.264 -0.7813 -0.2379  0.0027
  332MOL0     C44730   3.118   6.765   5.468 -0.3001  0.8794  0.5286
  332MOL0     C44731   3.031   6.839   5.386 -0.7442  0.1327  0.2887
  332MOL0     O44732   2.698   6.696   5.244  0.7267 -0.0934 -0.0438
  332MOL0     C44733   2.683   7.029   5.099 -0.1248 -0.2310 -0.1284
  332MOL0     C44734   2.596   7.120   5.043  0.2981 -0.5841  0.6833
  332MOL0     N44735   2.152   7.515   5.240 -1.1082  0.5761  0.5683
  332MOL0     N44736   2.065   7.574   5.307 -0.2532  0.1460 -0.2925
  332MOL0     C44737   1.048   7.941   5.812  0.2490  0.1469  1.0496
  332MOL0     C44738   0.914   7.920   5.842 -0.4861 -0.1858  0.2436
  332MOL0     C44739   0.551   7.632   5.971  1.2993  0.0160  0.9982
  332MOL0     C44740   0.456   7.720   5.910  0.6971  1.0006  0.8884
  332MOL0     C44741   0.323   7.700   5.905  0.5113  0.7646  0.0845
  332MOL0     C44742   0.268   7.588   5.973 -0.4783  0.4345 -0.0586
  332MOL0     O44743   0.137   7.536   5.981 -0.0708 -0.3236  0.2464
  332MOL0     C44744   0.021   7.625   5.959 -1.2830  0.1128  0.3195
  332MOL0     C44745  -0.033   7.660   6.097 -0.3772  0.6839  0.6919
  332MOL0     C44746  -0.172   7.738   6.075 -0.1749  0.2514 -0.5715
  332MOL0     C44747  -0.276   7.657   5.998  0.4167  0.5480  0.6153
  332MOL0     C44748  -0.289   7.523   6.051  0.2726  0.5189  0.1267
  332MOL0     C44749  -0.301   7.405   6.104  1.1370  0.6472  0.8175
  332MOL0     C44750   0.359   7.499   6.033 -0.0844  0.0786  0.1507
  332MOL0     C44751   0.499   7.518   6.049 -0.3682 -0.0924  1.3389
  332MOL0     C44752   0.587   7.416   6.112 -0.0279 -0.4317  0.7066
  332MOL0     H44753   0.893   7.583   5.764  1.3938 -0.3174 -1.8204
  332MOL0     H44754   1.116   7.636   5.706  1.1112  0.2306  2.4192
  332MOL0     H44755   1.366   7.705   5.784  2.8818 -0.7993 -0.9156
  332MOL0     H44756   1.317   7.707   5.622 -1.4314  1.8135 -0.9135
  332MOL0     H44757   1.500   7.932   5.736 -0.8045 -0.3551  0.9989
  332MOL0     H44758   1.483   7.902   5.567 -2.3632 -0.2334  0.1920
  332MOL0     H44759   1.595   7.703   5.767  0.0607  1.1351  0.6416
  332MOL0     H44760   1.698   7.830   5.700  0.1187 -1.0369  0.2474
  332MOL0     H44761   1.535   7.605   5.549 -1.0298  1.0716  0.2699
  332MOL0     H44762   1.621   7.736   5.467  0.5685 -0.0227  0.2714
  332MOL0     H44763   1.753   7.521   5.652 -0.8111  0.7258  1.4200
  332MOL0     H44764   1.751   7.509   5.482  0.1806  0.6345 -0.0947
  332MOL0     H44765   1.897   7.729   5.637 -2.4072 -0.0953  0.3771
  332MOL0     H44766   1.974   7.607   5.542 -0.0463  0.7198  0.0585
  332MOL0     H44767   1.978   7.817   5.413  1.4634 -2.4246  0.0727
  332MOL0     H44768   1.808   7.833   5.438  0.4156  0.1049 -0.5292
  332MOL0     H44769   1.762   7.647   5.290  1.7638 -2.6792  0.9725
  332MOL0     H44770   1.860   7.781   5.213 -0.8162  0.8169 -0.5827
  332MOL0     H44771   1.942   7.608   5.006  2.0289  1.1231 -1.5077
  332MOL0     H44772   2.243   7.487   4.937 -2.6456 -1.3068 -1.5440
  332MOL0     H44773   2.257   7.362   5.057 -3.2565 -4.1866  1.5973
  332MOL0     H44774   2.040   7.269   4.997 -0.3259  0.2956 -1.5670
  332MOL0     H44775   2.022   7.384   4.869 -0.4648  0.3251  1.2897
  332MOL0     H44776   2.246   7.326   4.771  1.5365 -2.1999 -1.1928
  332MOL0     H44777   2.105   7.211   4.751 -1.1046  2.8308 -0.1305
  332MOL0     H44778   2.278   7.071   4.810 -0.6622 -0.5888  0.5839
  332MOL0     H44779   2.215   7.095   4.969 -0.4991  1.1987  0.7119
  332MOL0     H44780   2.347   6.893   4.970 -1.9548  1.2055  1.6529
  332MOL0     H44781   2.502   6.744   5.091 -0.7054  0.8501  2.4949
  332MOL0     H44782   2.924   6.564   5.197  0.8001 -1.0737  0.4170
  332MOL0     H44783   3.086   6.452   5.336  0.2014  0.1611 -0.4778
  332MOL0     H44784   3.372   6.714   5.576 -0.6889 -0.1335 -0.1955
  332MOL0     H44785   3.391   6.555   5.642 -0.0620  0.3088 -0.2651
  332MOL0     H44786   3.393   6.598   5.342  1.0576 -0.1297 -1.8409
  332MOL0     H44787   3.541   6.613   5.436 -0.4329  0.5220  2.3212
  332MOL0     H44788   3.467   6.373   5.523  2.3867  1.3009  1.2087
  332MOL0     H44789   3.357   6.364   5.377  1.5407 -0.4129 -1.4645
  332MOL0     H44790   3.542   6.415   5.240  0.2743  1.5524  1.3227
  332MOL0     H44791   3.548   6.256   5.306  0.9885 -0.4317  0.7943
  332MOL0     H44792   3.714   6.348   5.484  0.3683 -2.7918 -1.2693
  332MOL0     H44793   3.705   6.503   5.393  0.0859  0.1334  0.9513
  332MOL0     H44794   3.771   6.390   5.196  1.3486  0.5589  0.3884
  332MOL0     H44795   3.895   6.393   5.329  0.1062  0.0851 -0.3827
  332MOL0     H44796   3.705   6.164   5.230 -0.5132 -0.2696  2.0727
  332MOL0     H44797   3.814   6.147   5.369  1.7330 -1.6799 -1.0031
  332MOL0     H44798   3.870   6.042   5.145 -2.7202  1.0864 -0.6546
  332MOL0     H44799   3.930   6.195   5.085  1.4431  0.0771  0.4447
  332MOL0     H44800   3.165   6.809   5.556  0.4967 -0.2113  0.6753
  332MOL0     H44801   3.020   6.947   5.392  2.6993  0.5968 -0.0127
  332MOL0     H44802   2.777   7.067   5.137  0.4087  0.2885 -1.8785
  332MOL0     H44803   2.622   7.225   5.046  2.4405 -1.0418 -0.2440
  332MOL0     H44804   1.085   8.042   5.827  1.0767 -0.1844  1.3472
  332MOL0     H44805   0.851   8.007   5.857 -2.4891 -1.6873  1.1170
  332MOL0     H44806   0.493   7.804   5.852  1.6282 -0.3507 -0.5652
  332MOL0     H44807   0.260   7.766   5.846 -0.6384  0.1096  0.5373
  332MOL0     H44808  -0.058   7.575   5.903 -2.1392  1.9031 -0.1362
  332MOL0     H44809   0.048   7.714   5.903  2.8890 -1.5471 -0.6849
  332MOL0     H44810   0.044   7.716   6.151  2.8699 -2.4974 -0.2661
  332MOL0     H44811  -0.045   7.567   6.154  0.7105  0.8541  1.2130
  332MOL0     H44812  -0.149   7.828   6.016  0.1929  0.8877  0.5231
  332MOL0     H44813  -0.205   7.774   6.173 -0.0182  0.4665 -0.5964
  332MOL0     H44814  -0.368   7.714   6.015  0.8689  1.0313  1.5149
  332MOL0     H44815  -0.254   7.668   5.891 -0.4313 -0.4687  0.3198
  332MOL0     H44816  -0.322   7.310   6.149 -0.8632  0.1630 -0.9945
  332MOL0     H44817   0.313   7.411   6.076  2.2151  0.3259  3.5059
  332MOL0     H44818   0.659   7.363   6.048  0.1194 -0.9086  1.2604
  332MOL0     H44819   0.648   7.462   6.190  1.9295 -3.4279  1.1249
  332MOL0     H44820   0.526   7.337   6.157 -0.0710 -1.1140 -0.4908
  333MOL0     O44821   5.469   3.869   1.128  0.1057  0.1625  0.6275
  333MOL0     C44822   5.465   3.983   1.173 -0.2135 -0.5848  0.3687
  333MOL0     O44823   5.568   4.054   1.223 -0.4895 -0.2054  0.1697
  333MOL0     C44824   5.685   3.987   1.240 -0.2145 -0.4471 -0.6097
  333MOL0     C44825   5.789   4.014   1.155 -0.1323  0.1903  0.3790
  333MOL0     C44826   5.915   3.941   1.155  0.1682 -0.3185 -0.3235
  333MOL0     C44827   5.930   3.834   1.248  0.6958 -0.7283  1.1107
  333MOL0     O44828   6.042   3.752   1.268 -0.2014  0.7931  0.5575
  333MOL0     C44829   6.162   3.776   1.195 -0.1438 -0.6497 -0.1714
  333MOL0     C44830   6.217   3.640   1.159 -0.4089  0.5615 -0.8673
  333MOL0     C44831   6.351   3.640   1.071 -0.1158  0.3016 -0.0238
  333MOL0     C44832   6.489   3.607   1.139  0.4351 -0.1054  0.4808
  333MOL0     C44833   6.589   3.598   1.034 -0.2280  0.9208 -0.1591
  333MOL0     C44834   6.728   3.578   1.093 -0.0051 -0.8558 -0.4862
  333MOL0     C44835   6.836   3.551   0.989  0.0933  0.6911  0.7358
  333MOL0     C44836   6.966   3.498   1.056 -0.2852 -0.3557  0.4209
  333MOL0     N44837   7.079   3.533   0.976  0.1113 -0.0017  0.9489
  333MOL0     C44838   7.097   3.495   0.844 -0.0028 -0.0500  0.2869
  333MOL0     C44839   7.198   3.565   0.803  0.7551  0.0610 -0.3434
  333MOL0     C44840   7.251   3.562   0.663 -0.4561 -0.0072  0.7489
  333MOL0     C44841   7.210   3.691   0.590 -0.0368 -0.3305  0.3708
  333MOL0     C44842   7.218   3.693   0.447 -0.2649 -0.4937 -0.2523
  333MOL0     C44843   7.218   3.833   0.386  0.4989 -0.0554 -0.1853
  333MOL0     O44844   7.217   3.847   0.245  0.1608 -0.6317  0.1996
  333MOL0     C44845   7.341   3.838   0.180 -0.0359  0.2880  0.0648
  333MOL0     C44846   7.465   3.810   0.242 -0.0443  0.3553  0.7188
  333MOL0     C44847   7.580   3.799   0.164  0.1912 -0.1689  0.1997
  333MOL0     C44848   7.592   3.822   0.034  0.8265 -0.0359  1.2272
  333MOL0     C44849   7.716   3.814  -0.043 -0.1971 -0.0926 -0.0245
  333MOL0     O44850   7.738   3.887  -0.155 -0.4862  0.3662  0.0221
  333MOL0     C44851   7.862   3.868  -0.222 -0.3173 -0.1513  0.6548
  333MOL0     C44852   7.936   3.982  -0.249 -0.0504 -0.2663  0.1189
  333MOL0     C44853   8.057   3.977  -0.310 -0.1482 -0.6903 -0.1989
  333MOL0     C44854   8.096   3.862  -0.359 -0.5896 -0.3468  0.1247
  333MOL0     O44855   8.196   3.852  -0.444 -0.6945 -0.1507  0.6569
  333MOL0     C44856   8.295   3.756  -0.388  0.4183  1.0750  0.1443
  333MOL0     C44857   8.426   3.785  -0.448 -0.3087 -0.3483  0.5887
  333MOL0     C44858   8.431   3.742  -0.598 -0.0935 -0.3000 -0.7183
  333MOL0     C44859   8.439   3.592  -0.612  0.0042  0.4325  0.5402
  333MOL0     C44860   8.507   3.561  -0.758 -0.5197  0.9543  0.7671
  333MOL0     C44861   8.661   3.538  -0.744  0.3141  0.5896  0.2366
  333MOL0     C44862   8.737   3.527  -0.872  0.3018  0.3688  0.5135
  333MOL0     C44863   8.895   3.526  -0.869 -0.0773  0.0585 -1.0023
  333MOL0    Cl44864   8.929   3.710  -0.849 -0.0111  0.0636  0.0395
  333MOL0     C44865   8.013   3.747  -0.357 -0.4913 -0.1852  1.0247
  333MOL0     C44866   7.900   3.747  -0.278 -0.4436 -0.3589 -0.0137
  333MOL0     O44867   7.801   3.738   0.008  0.5356 -0.2454  0.7512
  333MOL0     C44868   7.472   3.858  -0.024 -0.3584 -0.0714  0.4875
  333MOL0     C44869   7.352   3.863   0.043  0.1736 -0.5102  0.3485
  333MOL0     N44870   7.253   3.627   0.905 -0.2857  0.8950 -1.1595
  333MOL0     N44871   7.173   3.621   1.010 -0.7029 -0.1471 -0.5125
  333MOL0     C44872   5.814   3.798   1.321  0.1428  0.1490  0.6396
  333MOL0     C44873   5.698   3.875   1.332 -0.1713  0.1161 -0.0703
  333MOL0     C44874   5.332   4.022   1.211  1.1508 -0.5834 -0.5532
  333MOL0     C44875   5.223   3.999   1.130 -0.7086  0.3494 -0.7670
  333MOL0     C44876   5.093   4.033   1.162  0.3978  0.4659 -0.0542
  333MOL0     C44877   5.061   4.078   1.282 -0.2968  0.0559 -0.3230
  333MOL0     O44878   4.941   4.118   1.328 -0.4465 -0.5393 -0.2583
  333MOL0     C44879   4.833   4.152   1.240 -0.3602  0.0639  0.6502
  333MOL0     C44880   4.723   4.210   1.322  0.0514 -1.0901 -0.6468
  333MOL0     C44881   4.702   4.131   1.453 -0.5667 -0.3447  0.4599
  333MOL0     C44882   4.566   4.170   1.523 -0.2856 -0.3630  0.1420
  333MOL0     C44883   4.561   4.314   1.553 -0.1779  0.3786  0.2144
  333MOL0     C44884   4.556   4.429   1.588 -0.0098 -0.0258 -1.5270
  333MOL0     C44885   5.169   4.099   1.374  0.3143 -0.0194 -0.4230
  333MOL0     C44886   5.305   4.076   1.345  0.1390 -0.9154 -0.2055
  333MOL0     C44887   5.405   4.095   1.458  0.5525  0.1843  0.2283
  333MOL0     H44888   5.776   4.093   1.083  0.6235  1.1686  1.2813
  333MOL0     H44889   5.988   3.965   1.079 -1.4905 -0.4343 -2.0272
  333MOL0     H44890   6.162   3.843   1.109  0.8638 -1.3039 -0.7084
  333MOL0     H44891   6.226   3.821   1.271 -0.7061 -2.1897  1.2987
  333MOL0     H44892   6.141   3.596   1.093 -1.4318  0.0586  0.5987
  333MOL0     H44893   6.216   3.572   1.245 -2.0340  0.8120 -0.6617
  333MOL0     H44894   6.366   3.739   1.027  3.6300 -0.8135 -1.7138
  333MOL0     H44895   6.337   3.561   0.996  0.7644  0.2760 -0.1751
  333MOL0     H44896   6.500   3.696   1.202 -2.2140  1.7754 -1.4899
  333MOL0     H44897   6.476   3.513   1.194 -0.1490  0.9273  2.1834
  333MOL0     H44898   6.558   3.512   0.973  0.0096  1.8496 -1.6334
  333MOL0     H44899   6.587   3.690   0.976 -0.0145  0.7223 -0.4840
  333MOL0     H44900   6.756   3.664   1.154 -1.5964 -0.4482 -0.2866
  333MOL0     H44901   6.735   3.489   1.157  0.1544 -0.3347  0.2244
  333MOL0     H44902   6.842   3.647   0.937 -0.2036  0.1720 -0.2835
  333MOL0     H44903   6.787   3.487   0.915 -0.5937 -0.2405  1.9536
  333MOL0     H44904   6.972   3.550   1.151  0.7041 -4.2359  2.6905
  333MOL0     H44905   6.969   3.390   1.073 -0.4705 -0.6270 -1.0887
  333MOL0     H44906   7.032   3.431   0.785  0.2342  1.0672 -1.2499
  333MOL0     H44907   7.359   3.544   0.662 -0.6335 -1.1581  0.1779
  333MOL0     H44908   7.212   3.475   0.609 -0.4291 -0.2560  1.1210
  333MOL0     H44909   7.112   3.730   0.621  0.0489 -1.6604  2.4702
  333MOL0     H44910   7.275   3.770   0.628  0.5460 -0.6391  0.0267
  333MOL0     H44911   7.129   3.640   0.412 -2.0790  1.5871  0.9457
  333MOL0     H44912   7.314   3.651   0.416 -0.3995 -0.4189 -0.7891
  333MOL0     H44913   7.292   3.902   0.427  1.7101 -1.2376 -0.2864
  333MOL0     H44914   7.119   3.870   0.415  0.8735  0.8605 -0.0698
  333MOL0     H44915   7.487   3.799   0.348 -0.0009  1.7313  0.8712
  333MOL0     H44916   7.668   3.767   0.218 -0.7846  0.3923  2.2240
  333MOL0     H44917   7.893   4.073  -0.210 -3.3914 -2.4208  1.9777
  333MOL0     H44918   8.118   4.066  -0.323 -1.4471  0.1944 -0.4262
  333MOL0     H44919   8.297   3.774  -0.280  0.0032  2.5141 -0.0720
  333MOL0     H44920   8.263   3.653  -0.405 -0.1598  0.7738  2.6276
  333MOL0     H44921   8.445   3.893  -0.452 -0.4531 -0.1484  3.3888
  333MOL0     H44922   8.508   3.734  -0.398  1.7845 -2.0109 -3.9427
  333MOL0     H44923   8.346   3.783  -0.653  0.9702  2.1879 -0.6639
  333MOL0     H44924   8.520   3.786  -0.644  0.6431  0.7096  1.5579
  333MOL0     H44925   8.339   3.548  -0.611  0.2656 -0.3830 -2.1047
  333MOL0     H44926   8.503   3.548  -0.534  1.9037  1.7492 -0.1888
  333MOL0     H44927   8.484   3.644  -0.825 -0.1801  0.6034  0.2081
  333MOL0     H44928   8.477   3.461  -0.789  2.0766 -0.2461  1.7920
  333MOL0     H44929   8.698   3.622  -0.684  1.8952  0.4239 -0.4598
  333MOL0     H44930   8.684   3.446  -0.689  2.0945  1.0762  0.3690
  333MOL0     H44931   8.691   3.594  -0.946  1.8723 -0.5834 -1.4317
  333MOL0     H44932   8.710   3.432  -0.919  2.4061  0.0189 -0.1151
  333MOL0     H44933   8.915   3.462  -0.782 -0.9044 -0.1630 -0.9726
  333MOL0     H44934   8.941   3.482  -0.958  1.2043 -0.0255 -0.3222
  333MOL0     H44935   8.040   3.661  -0.417 -1.7089  1.2780 -1.7786
  333MOL0     H44936   7.827   3.668  -0.262 -0.1280 -0.6536 -0.0229
  333MOL0     H44937   7.479   3.884  -0.129  0.4556 -0.5769  0.4023
  333MOL0     H44938   7.264   3.887  -0.015  1.7855  0.3704 -1.8506
  333MOL0     H44939   5.813   3.697   1.363  1.1594  0.3833  1.2687
  333MOL0     H44940   5.606   3.841   1.379 -0.9231 -0.3701 -1.8100
  333MOL0     H44941   5.245   3.948   1.037 -0.7315  4.2098 -3.0813
  333MOL0     H44942   5.015   4.014   1.089 -0.2302 -2.0525  1.1803
  333MOL0     H44943   4.807   4.061   1.185  0.0769  2.5252 -4.1555
  333MOL0     H44944   4.871   4.219   1.163  1.8330  0.7232  2.2103
  333MOL0     H44945   4.633   4.217   1.261 -0.3356  0.0946  0.0342
  333MOL0     H44946   4.736   4.318   1.336  0.8376 -1.3217  0.4967
  333MOL0     H44947   4.772   4.149   1.535  0.0736  0.0978 -0.1677
  333MOL0     H44948   4.714   4.025   1.429 -0.5400 -0.5473  1.3468
  333MOL0     H44949   4.480   4.145   1.461 -1.4880  1.0525  1.1610
  333MOL0     H44950   4.562   4.122   1.622 -2.8061 -1.0627 -0.2330
  333MOL0     H44951   4.557   4.532   1.617 -2.7918 -0.4860  0.5942
  333MOL0     H44952   5.147   4.130   1.476 -2.1520  0.6402 -1.0924
  333MOL0     H44953   5.445   4.197   1.460 -1.0733  0.8590  0.2246
  333MOL0     H44954   5.352   4.067   1.549 -1.9172  0.6029 -0.9969
  333MOL0     H44955   5.484   4.020   1.467 -0.5396 -0.7660  2.9301
  334MOL0     O44956  10.249   3.508   8.212  1.0034 -0.3608 -0.2722
  334MOL0     C44957  10.191   3.406   8.174  0.1528 -0.0074 -0.2968
  334MOL0     O44958  10.254   3.290   8.143  0.3690  0.4331 -1.1497
  334MOL0     C44959  10.388   3.305   8.125  0.9150  0.5096  0.0031
  334MOL0     C44960  10.477   3.294   8.230  0.1960  0.1850  0.1802
  334MOL0     C44961  10.616   3.327   8.216 -0.2476 -1.1025  0.9418
  334MOL0     C44962  10.661   3.393   8.100  0.3361  0.8738  0.4020
  334MOL0     O44963  10.787   3.435   8.100  0.0393  0.2220 -0.3337
  334MOL0     C44964  10.843   3.480   7.979  0.5446 -0.6927  0.0206
  334MOL0     C44965  10.987   3.512   7.999 -0.7876 -0.7871 -0.3644
  334MOL0     C44966  11.072   3.385   8.023  0.7121 -0.1842 -0.0759
  334MOL0     C44967  11.205   3.418   8.093 -0.5238 -0.6237 -0.7178
  334MOL0     C44968  11.311   3.304   8.120  0.1170 -0.5307 -0.3278
  334MOL0     C44969  11.451   3.362   8.159  0.0110  0.0380 -0.0266
  334MOL0     C44970  11.455   3.440   8.292 -0.2172 -0.7195 -0.7425
  334MOL0     C44971  11.578   3.516   8.322 -0.2044 -0.3802 -0.3662
  334MOL0     N44972  11.575   3.613   8.433  0.4367 -0.1551  0.5329
  334MOL0     C44973  11.502   3.605   8.553  0.9472  0.4949  0.7047
  334MOL0     C44974  11.507   3.730   8.608 -0.2983  0.4350 -0.5133
  334MOL0     C44975  11.462   3.763   8.744  0.1661  0.2767 -1.0372
  334MOL0     C44976  11.575   3.833   8.825 -0.0203  1.1071 -0.4035
  334MOL0     C44977  11.679   3.737   8.850 -0.8719 -0.0093  0.0191
  334MOL0     C44978  11.785   3.771   8.960 -0.3224  0.3710  0.8131
  334MOL0     O44979  11.889   3.673   8.962  0.9160  0.2205 -0.5015
  334MOL0     C44980  12.022   3.706   8.975  0.4063 -0.4428  0.0759
  334MOL0     C44981  12.104   3.608   8.918 -0.5450 -0.3797  0.4908
  334MOL0     C44982  12.238   3.625   8.906  0.4955  1.1598  0.6636
  334MOL0     C44983  12.298   3.742   8.952 -0.2006 -0.1321 -0.2067
  334MOL0     C44984  12.444   3.751   8.958 -0.6162  0.1755 -0.6217
  334MOL0     O44985  12.518   3.642   8.908  0.6663  0.0697  0.0090
  334MOL0     C44986  12.652   3.665   8.876 -0.0024 -0.2717 -0.3771
  334MOL0     C44987  12.704   3.786   8.829 -1.2603 -0.4983 -0.1470
  334MOL0     C44988  12.845   3.792   8.809  0.6902  1.0378 -0.3833
  334MOL0     C44989  12.933   3.688   8.834 -0.0282 -0.5474 -0.1578
  334MOL0     O44990  13.065   3.721   8.811 -0.9558 -0.6731  0.0920
  334MOL0     C44991  13.154   3.606   8.815 -1.1492  0.3892  0.1472
  334MOL0     C44992  13.281   3.649   8.734  0.1186 -0.7833 -0.1945
  334MOL0     C44993  13.373   3.531   8.750  0.4532  0.1006  0.6865
  334MOL0     C44994  13.518   3.568   8.784  0.0345 -0.1961 -0.3235
  334MOL0     C44995  13.596   3.613   8.665 -0.2991  0.2562 -0.1499
  334MOL0     C44996  13.740   3.650   8.682  0.8409  0.2102 -0.9193
  334MOL0     C44997  13.798   3.677   8.543 -0.2420  0.2933  1.3103
  334MOL0     C44998  13.910   3.778   8.533  0.2946  0.6895 -0.0174
  334MOL0    Cl44999  14.061   3.708   8.611 -0.1843  0.1148 -0.2338
  334MOL0     C45000  12.873   3.565   8.876  0.0044 -1.2170  0.6230
  334MOL0     C45001  12.734   3.553   8.896  1.1452 -0.1693 -0.1355
  334MOL0     O45002  12.498   3.847   9.009  0.1701  0.0740  0.1230
  334MOL0     C45003  12.210   3.842   9.004 -0.5908 -0.2073 -0.0538
  334MOL0     C45004  12.071   3.829   9.010 -0.7087  0.4489  0.6652
  334MOL0     N45005  11.570   3.814   8.520 -0.2446 -0.1663  0.2829
  334MOL0     N45006  11.619   3.743   8.423 -1.1334  0.8265  0.4472
  334MOL0     C45007  10.570   3.405   7.990 -0.2993 -0.2683  0.0528
  334MOL0     C45008  10.439   3.354   8.005 -0.3800  0.3019 -0.5936
  334MOL0     C45009  10.042   3.395   8.196  0.2798 -0.0843 -0.5174
  334MOL0     C45010   9.988   3.292   8.278 -0.4583  0.2598  0.4398
  334MOL0     C45011   9.845   3.280   8.287  0.4335  0.9863  0.4802
  334MOL0     C45012   9.755   3.370   8.222 -0.7389 -0.3309 -0.0239
  334MOL0     O45013   9.616   3.364   8.249 -0.0958  0.6082  0.1202
  334MOL0     C45014   9.551   3.490   8.252 -0.0488 -0.8934 -0.6952
  334MOL0     C45015   9.405   3.493   8.311  0.0094  0.3002  0.5724
  334MOL0     C45016   9.297   3.509   8.190  0.4461  0.2657 -0.7949
  334MOL0     C45017   9.270   3.374   8.122  0.4564 -0.4606  0.2364
  334MOL0     C45018   9.182   3.300   8.206  0.2248  0.0122 -0.8653
  334MOL0     C45019   9.108   3.232   8.275 -0.1694  0.3126 -1.2561
  334MOL0     C45020   9.810   3.472   8.141  0.7783  0.3448 -0.0569
  334MOL0     C45021   9.951   3.482   8.130 -0.1815 -0.6855 -0.9292
  334MOL0     C45022  10.014   3.586   8.035 -0.1100  0.3460  0.3369
  334MOL0     H45023  10.435   3.263   8.325 -1.0926  0.4304 -0.2900
  334MOL0     H45024  10.672   3.305   8.306 -0.1936 -0.6607  1.0184
  334MOL0     H45025  10.831   3.419   7.889  1.4127  1.7426 -1.8651
  334MOL0     H45026  10.785   3.569   7.954  1.2594 -0.6376 -1.5675
  334MOL0     H45027  10.993   3.569   8.092  0.8558 -1.7179  0.1296
  334MOL0     H45028  11.025   3.573   7.916 -3.3601  0.0468 -1.0119
  334MOL0     H45029  11.095   3.344   7.924 -0.7190 -0.6874 -0.2206
  334MOL0     H45030  11.026   3.307   8.085 -0.8573 -2.2342 -3.5132
  334MOL0     H45031  11.245   3.499   8.032 -2.3507 -1.0832 -2.6405
  334MOL0     H45032  11.169   3.464   8.186 -1.5470  2.2197 -2.3945
  334MOL0     H45033  11.283   3.249   8.210 -0.3642  1.4952  0.8196
  334MOL0     H45034  11.327   3.254   8.024  2.2506  0.2824 -0.4257
  334MOL0     H45035  11.517   3.275   8.152 -0.7989 -0.4609 -2.0198
  334MOL0     H45036  11.481   3.428   8.077  0.7103 -2.6019 -2.0266
  334MOL0     H45037  11.433   3.361   8.364 -2.8240 -0.7176 -1.4267
  334MOL0     H45038  11.374   3.513   8.297  0.6959  0.3045 -0.5689
  334MOL0     H45039  11.645   3.432   8.341  0.6751  0.2089 -0.8318
  334MOL0     H45040  11.618   3.573   8.238  0.1713  1.3706  0.9298
  334MOL0     H45041  11.459   3.515   8.596  0.8610  0.5367  0.7088
  334MOL0     H45042  11.384   3.839   8.732  0.4268  0.5119 -1.2681
  334MOL0     H45043  11.415   3.676   8.791  0.0197  1.0124  0.2173
  334MOL0     H45044  11.611   3.921   8.772  1.4667  2.0600  2.0420
  334MOL0     H45045  11.537   3.878   8.917  5.0036 -0.3158  2.8027
  334MOL0     H45046  11.731   3.721   8.755 -1.3784 -2.8576  0.1314
  334MOL0     H45047  11.634   3.643   8.884 -1.4740  0.8431  1.6718
  334MOL0     H45048  11.730   3.793   9.052 -2.8325  0.8002 -0.6805
  334MOL0     H45049  11.830   3.864   8.923 -3.5388  0.9675 -2.1847
  334MOL0     H45050  12.043   3.529   8.874 -0.9458  0.1670  0.0529
  334MOL0     H45051  12.293   3.551   8.849  0.3368  2.6202 -1.4696
  334MOL0     H45052  12.640   3.873   8.824  1.6329  2.1566  3.4261
  334MOL0     H45053  12.882   3.893   8.794  2.0448  0.7673  0.8370
  334MOL0     H45054  13.174   3.584   8.920  2.3808  2.6994  0.1267
  334MOL0     H45055  13.116   3.517   8.764 -0.2467  0.8051 -1.3198
  334MOL0     H45056  13.254   3.670   8.630 -1.6043 -0.4034  0.2864
  334MOL0     H45057  13.326   3.739   8.775  0.8737 -1.4032  0.3579
  334MOL0     H45058  13.338   3.469   8.833 -0.6148  0.1695  0.2953
  334MOL0     H45059  13.365   3.470   8.660  0.4636 -1.5658  1.7695
  334MOL0     H45060  13.566   3.475   8.814  0.1671  0.5830  2.0870
  334MOL0     H45061  13.521   3.634   8.871 -0.0461  0.8205 -1.0623
  334MOL0     H45062  13.541   3.694   8.616  0.1881 -1.1579 -3.2645
  334MOL0     H45063  13.587   3.536   8.588  2.5939  2.8031 -3.3741
  334MOL0     H45064  13.756   3.737   8.746  4.1879 -0.5986 -0.4523
  334MOL0     H45065  13.809   3.580   8.729  1.0565  0.2668 -1.1495
  334MOL0     H45066  13.715   3.703   8.477  0.9853  1.5420  0.1954
  334MOL0     H45067  13.848   3.585   8.511  1.1817  1.1781  0.9259
  334MOL0     H45068  13.927   3.802   8.428 -2.0572 -2.0395 -1.1719
  334MOL0     H45069  13.881   3.863   8.595  0.2105 -0.0537  0.9871
  334MOL0     H45070  12.931   3.476   8.898 -1.1311 -2.0420  0.2996
  334MOL0     H45071  12.686   3.463   8.932 -1.3206  1.2994  0.5092
  334MOL0     H45072  12.251   3.934   9.043  1.7634 -1.0593 -0.3518
  334MOL0     H45073  12.019   3.920   9.037  1.9598  1.4485  2.9305
  334MOL0     H45074  10.588   3.445   7.891 -0.5772 -1.3516 -0.4520
  334MOL0     H45075  10.361   3.361   7.930 -0.7390  3.8295 -0.0395
  334MOL0     H45076  10.055   3.232   8.338  0.7879  0.2952 -0.8729
  334MOL0     H45077   9.800   3.201   8.345 -2.2980 -1.0234 -3.8188
  334MOL0     H45078   9.547   3.529   8.150  2.3663  2.8299  0.4319
  334MOL0     H45079   9.612   3.558   8.312 -1.1909  0.1851 -0.7063
  334MOL0     H45080   9.405   3.586   8.369 -1.3149  1.3222 -0.9621
  334MOL0     H45081   9.386   3.409   8.378 -0.2645 -1.6903 -1.8538
  334MOL0     H45082   9.324   3.584   8.115 -1.2225  1.3821 -0.3305
  334MOL0     H45083   9.206   3.548   8.236  1.2109  0.9149  0.2160
  334MOL0     H45084   9.213   3.374   8.028 -0.3945 -0.6685  0.7431
  334MOL0     H45085   9.364   3.322   8.103  1.4986  1.6276 -0.6476
  334MOL0     H45086   9.039   3.183   8.340 -0.3222  1.2754 -0.6763
  334MOL0     H45087   9.757   3.537   8.072  0.4407 -0.4983 -0.6091
  334MOL0     H45088  10.082   3.542   7.962 -1.4094 -0.0095 -0.6870
  334MOL0     H45089   9.946   3.647   7.974  1.8617  1.2167 -1.0814
  334MOL0     H45090  10.079   3.657   8.087 -1.0701 -0.0137  2.1465
  335MOL0     O45091   9.601   5.030   3.995 -1.0394  0.4590  0.5486
  335MOL0     C45092   9.614   5.105   3.901  0.7793  0.1481 -0.4202
  335MOL0     O45093   9.728   5.123   3.842 -0.6091  0.3651 -0.4479
  335MOL0     C45094   9.824   5.027   3.857 -0.3706  0.9289  0.7199
  335MOL0     C45095   9.908   5.023   3.972 -0.8556  0.5431  0.0752
  335MOL0     C45096  10.002   4.927   3.995  0.5225  0.2860  0.2099
  335MOL0     C45097  10.020   4.824   3.896 -0.0977  0.1271  0.7956
  335MOL0     O45098  10.098   4.716   3.908 -0.1123  0.9391 -0.4522
  335MOL0     C45099  10.121   4.662   4.046  0.2583 -0.7926  0.5316
  335MOL0     C45100  10.269   4.691   4.094  0.5148 -0.2925 -0.1696
  335MOL0     C45101  10.292   4.656   4.236  0.1299 -0.2423  0.1409
  335MOL0     C45102  10.422   4.712   4.288 -0.7352  0.1271 -0.4376
  335MOL0     C45103  10.468   4.661   4.429  0.1011  0.0587  0.5344
  335MOL0     C45104  10.502   4.516   4.428 -0.0862  0.5371  0.0488
  335MOL0     C45105  10.658   4.510   4.454  0.6098  0.0349  0.8664
  335MOL0     C45106  10.741   4.571   4.335  0.5267 -1.2126 -0.5497
  335MOL0     N45107  10.881   4.544   4.357 -0.9420  0.6240  0.0878
  335MOL0     C45108  10.937   4.417   4.317 -1.1479 -0.2552 -0.2021
  335MOL0     C45109  11.069   4.453   4.351  0.6012  0.8716  0.6590
  335MOL0     C45110  11.178   4.359   4.308  0.6817 -1.3390  0.6649
  335MOL0     C45111  11.305   4.379   4.385  0.7264  0.0322 -0.2974
  335MOL0     C45112  11.408   4.269   4.366  0.4686  0.2627 -0.4058
  335MOL0     C45113  11.545   4.327   4.419  0.4676 -1.0425  0.5998
  335MOL0     O45114  11.650   4.228   4.435 -0.1733  0.4601  0.7411
  335MOL0     C45115  11.771   4.269   4.454  0.3162  0.2355 -0.2807
  335MOL0     C45116  11.798   4.356   4.561  0.4764  0.7306  0.2755
  335MOL0     C45117  11.927   4.398   4.587  0.0024 -0.3747  0.3472
  335MOL0     C45118  12.041   4.355   4.518  0.2062 -0.6070  0.7056
  335MOL0     C45119  12.174   4.422   4.542 -0.1493  0.5869  0.1032
  335MOL0     O45120  12.279   4.395   4.458 -0.0461 -0.0756  0.0340
  335MOL0     C45121  12.404   4.449   4.461  0.5837  0.1382 -0.2209
  335MOL0     C45122  12.511   4.365   4.426  0.3446  1.7828 -0.3521
  335MOL0     C45123  12.641   4.409   4.425 -0.3130 -0.2304  0.4253
  335MOL0     C45124  12.668   4.536   4.446  0.0031  0.1162  0.4864
  335MOL0     O45125  12.785   4.597   4.436 -0.8117 -0.0131 -0.5923
  335MOL0     C45126  12.891   4.522   4.366  0.2733  0.6673  0.7428
  335MOL0     C45127  13.033   4.584   4.381 -0.1639  0.4737 -0.3666
  335MOL0     C45128  13.137   4.489   4.318  0.3996 -0.9281  0.2314
  335MOL0     C45129  13.263   4.565   4.278 -0.8857  0.0502  0.1244
  335MOL0     C45130  13.322   4.669   4.377 -0.0047 -0.2586  0.0654
  335MOL0     C45131  13.443   4.740   4.324  1.1326 -0.1762 -0.2859
  335MOL0     C45132  13.485   4.841   4.440  0.1973 -0.0793  0.3871
  335MOL0     C45133  13.612   4.913   4.398 -0.4238 -0.5495  1.0075
  335MOL0    Cl45134  13.735   4.778   4.377  0.0587 -0.0844 -0.1485
  335MOL0     C45135  12.563   4.629   4.482  0.5124 -0.2666 -0.2892
  335MOL0     C45136  12.428   4.583   4.484  0.0300 -0.0389 -0.7645
  335MOL0     O45137  12.178   4.499   4.639  0.3801 -0.0099  0.5055
  335MOL0     C45138  12.020   4.267   4.412 -0.0674 -0.6960  0.0458
  335MOL0     C45139  11.882   4.246   4.372  0.3522  0.4349  0.0687
  335MOL0     N45140  11.080   4.576   4.409 -0.2480  1.5864 -0.1718
  335MOL0     N45141  10.969   4.631   4.417  0.1351 -1.0706 -0.1579
  335MOL0     C45142   9.941   4.828   3.774  0.0109 -0.5002 -0.7388
  335MOL0     C45143   9.844   4.926   3.761 -0.2642 -0.0799  0.3465
  335MOL0     C45144   9.495   5.173   3.851  0.3356 -0.2946  0.1017
  335MOL0     C45145   9.463   5.137   3.723  0.5994  0.4205 -0.3031
  335MOL0     C45146   9.347   5.191   3.662  0.0673 -0.1477 -0.0354
  335MOL0     C45147   9.274   5.284   3.735 -0.2708 -0.1700 -0.2652
  335MOL0     O45148   9.171   5.322   3.660  0.3125  0.4445 -0.4223
  335MOL0     C45149   9.112   5.440   3.707  0.6096 -0.6084  0.7572
  335MOL0     C45150   9.007   5.491   3.612 -0.3156  0.8093 -0.5982
  335MOL0     C45151   8.955   5.629   3.648  0.1574  0.2454  0.8060
  335MOL0     C45152   8.820   5.650   3.578 -0.1985 -0.9142 -0.5318
  335MOL0     C45153   8.775   5.792   3.573  0.0812  0.3952 -0.8767
  335MOL0     C45154   8.742   5.905   3.570 -0.2820  0.5488  0.3505
  335MOL0     C45155   9.311   5.327   3.863 -0.2246 -0.2184 -0.5830
  335MOL0     C45156   9.420   5.268   3.920 -0.2013 -0.0798 -0.8175
  335MOL0     C45157   9.454   5.317   4.060 -0.6143  0.5180 -0.2519
  335MOL0     H45158   9.898   5.108   4.039  1.0504  0.5594  0.4097
  335MOL0     H45159  10.053   4.918   4.090  2.7594 -1.1425 -1.0146
  335MOL0     H45160  10.047   4.701   4.116 -0.5891 -1.1868 -0.1180
  335MOL0     H45161  10.105   4.554   4.037  0.0326 -0.6108 -1.8555
  335MOL0     H45162  10.287   4.797   4.074 -0.2424 -0.0191  0.5534
  335MOL0     H45163  10.340   4.634   4.032  0.8355  1.0762 -1.1158
  335MOL0     H45164  10.296   4.548   4.248 -0.9508 -0.6993 -2.7533
  335MOL0     H45165  10.211   4.690   4.302  2.0469  4.4401  0.4596
  335MOL0     H45166  10.500   4.690   4.215  2.3985  1.0704  2.4277
  335MOL0     H45167  10.402   4.819   4.300 -1.7547 -0.0205 -0.7075
  335MOL0     H45168  10.559   4.717   4.452 -0.4653  2.2974 -2.2370
  335MOL0     H45169  10.402   4.697   4.508 -0.3289 -0.2204  0.3059
  335MOL0     H45170  10.446   4.471   4.511  1.0070  1.7552  1.5270
  335MOL0     H45171  10.471   4.464   4.337  1.7397  0.1266 -0.3634
  335MOL0     H45172  10.678   4.404   4.471  0.9817  0.1274  1.0199
  335MOL0     H45173  10.692   4.562   4.544  0.8733 -0.3943  1.0195
  335MOL0     H45174  10.702   4.536   4.239  1.3809 -3.5871 -0.0991
  335MOL0     H45175  10.737   4.681   4.338  2.2191 -1.0791  3.1759
  335MOL0     H45176  10.887   4.341   4.258 -0.8240  0.3480 -1.2655
  335MOL0     H45177  11.140   4.259   4.332 -1.6421 -0.9442 -0.9881
  335MOL0     H45178  11.186   4.377   4.200 -0.6976 -0.9590  0.6051
  335MOL0     H45179  11.346   4.476   4.355 -0.1121  0.2206 -0.8766
  335MOL0     H45180  11.275   4.385   4.491 -1.4343 -0.1654 -0.8496
  335MOL0     H45181  11.407   4.244   4.259 -0.9447  0.5553 -0.4863
  335MOL0     H45182  11.380   4.182   4.426 -2.3512  1.8529  0.7778
  335MOL0     H45183  11.514   4.379   4.511  0.9684 -1.1094  0.8062
  335MOL0     H45184  11.578   4.403   4.348 -2.1734 -0.8206 -0.4984
  335MOL0     H45185  11.712   4.387   4.619  0.8292  1.3843  0.4558
  335MOL0     H45186  11.934   4.465   4.672  2.6832  1.5237 -1.1977
  335MOL0     H45187  12.494   4.259   4.413  1.4351  1.3503  1.4102
  335MOL0     H45188  12.718   4.338   4.397  0.2301 -0.2620  1.9116
  335MOL0     H45189  12.902   4.422   4.411 -0.1244  0.3620  0.1695
  335MOL0     H45190  12.865   4.518   4.260 -0.0654 -2.4708  0.8465
  335MOL0     H45191  13.031   4.683   4.333 -2.4021  0.8898  0.4634
  335MOL0     H45192  13.060   4.604   4.485  0.6073  0.1513 -0.5038
  335MOL0     H45193  13.167   4.415   4.393 -0.0308  1.3426  2.8341
  335MOL0     H45194  13.089   4.443   4.232 -1.0903 -1.3014  1.2182
  335MOL0     H45195  13.250   4.621   4.185  2.1931 -0.1840 -0.5504
  335MOL0     H45196  13.340   4.493   4.248 -1.3255  0.1285 -1.2594
  335MOL0     H45197  13.348   4.628   4.475  1.0222  1.4406  0.5379
  335MOL0     H45198  13.242   4.740   4.400 -1.3164 -1.0994 -1.6057
  335MOL0     H45199  13.524   4.669   4.306  1.4008 -0.0851  0.4879
  335MOL0     H45200  13.411   4.797   4.236 -1.5812  0.5661  1.0793
  335MOL0     H45201  13.493   4.791   4.536 -0.9224  0.1309  0.6065
  335MOL0     H45202  13.405   4.913   4.458 -1.1586 -1.4529  0.0597
  335MOL0     H45203  13.605   4.962   4.301 -1.5259 -3.0095 -0.2427
  335MOL0     H45204  13.650   4.976   4.479  1.8263 -1.2316  0.5792
  335MOL0     H45205  12.581   4.735   4.488 -0.1619 -0.0706 -1.4810
  335MOL0     H45206  12.353   4.657   4.512  1.5977  0.0135  4.2423
  335MOL0     H45207  12.101   4.222   4.356 -0.3462 -3.9568  2.0186
  335MOL0     H45208  11.863   4.195   4.277  0.2481  1.4910 -0.4887
  335MOL0     H45209   9.941   4.752   3.697 -1.0353 -2.1151  0.7746
  335MOL0     H45210   9.777   4.922   3.676  1.0107 -0.5662 -0.6599
  335MOL0     H45211   9.511   5.056   3.669 -1.9306 -1.3234 -0.1188
  335MOL0     H45212   9.317   5.171   3.560 -0.4495 -1.2426  0.3148
  335MOL0     H45213   9.189   5.518   3.714  0.5502  0.1805 -3.8218
  335MOL0     H45214   9.065   5.436   3.805  2.0326  0.7376  1.5451
  335MOL0     H45215   8.929   5.414   3.607  1.1920 -0.9250  0.9569
  335MOL0     H45216   9.057   5.498   3.514  2.9264  1.6680  0.9928
  335MOL0     H45217   9.033   5.694   3.606  0.3833 -0.6840 -0.2399
  335MOL0     H45218   8.948   5.670   3.749 -1.7459  2.7393 -0.2394
  335MOL0     H45219   8.843   5.629   3.473  0.6355  3.5134 -1.4025
  335MOL0     H45220   8.742   5.591   3.628  2.2575 -3.2954  0.7515
  335MOL0     H45221   8.718   6.007   3.550 -1.5190 -0.1201 -1.9970
  335MOL0     H45222   9.249   5.392   3.925  0.1758  2.1499 -2.5299
  335MOL0     H45223   9.563   5.314   4.061 -0.5976 -0.1710 -1.8092
  335MOL0     H45224   9.415   5.412   4.099  0.3788  0.3545  1.2330
  335MOL0     H45225   9.420   5.250   4.139  2.8370  0.7825  1.6154
  336MOL0     O45226   4.490   1.583   1.735 -0.3694  0.2283 -0.3567
  336MOL0     C45227   4.494   1.706   1.745  0.0652  0.7083 -0.4265
  336MOL0     O45228   4.583   1.774   1.825 -0.0278 -0.0868 -0.6597
  336MOL0     C45229   4.691   1.705   1.873 -0.2318 -0.0859 -0.3177
  336MOL0     C45230   4.796   1.657   1.796  0.3719  0.2001 -0.7150
  336MOL0     C45231   4.907   1.602   1.863 -0.1855  0.2115  0.3402
  336MOL0     C45232   4.916   1.586   2.001  0.2778 -0.3069 -0.4229
  336MOL0     O45233   5.041   1.551   2.050  0.3181 -0.5820  0.0734
  336MOL0     C45234   5.050   1.440   2.135  0.3386 -0.6345  0.3776
  336MOL0     C45235   5.137   1.343   2.050  0.1692  0.8553  0.1351
  336MOL0     C45236   5.153   1.202   2.116  0.6179 -0.5683  0.0347
  336MOL0     C45237   5.241   1.110   2.018  1.3934 -0.1228 -0.0439
  336MOL0     C45238   5.223   0.957   2.055  0.7763 -0.4743 -0.0137
  336MOL0     C45239   5.306   0.867   1.962 -0.2066 -0.4018  0.1007
  336MOL0     C45240   5.458   0.881   1.987 -0.2608 -1.1171 -0.5506
  336MOL0     C45241   5.537   0.758   1.935 -0.0352 -0.3273 -1.4682
  336MOL0     N45242   5.680   0.786   1.942 -0.7077  0.7726 -0.5470
  336MOL0     C45243   5.767   0.755   2.050 -0.8815 -0.4580 -0.3077
  336MOL0     C45244   5.893   0.764   2.004  0.2581 -0.9699  0.0749
  336MOL0     C45245   6.017   0.738   2.083  0.0896 -0.0075  0.8210
  336MOL0     C45246   6.059   0.597   2.074 -0.3277 -0.3937  0.0483
  336MOL0     C45247   6.164   0.561   2.186 -0.2996 -0.5080 -0.5566
  336MOL0     C45248   6.302   0.562   2.129 -0.5041 -0.7146  0.6815
  336MOL0     O45249   6.326   0.700   2.094 -0.0371  0.5543  0.2205
  336MOL0     C45250   6.409   0.791   2.166 -0.0428 -0.4640  0.4486
  336MOL0     C45251   6.501   0.753   2.268  1.0115  0.7683  0.3061
  336MOL0     C45252   6.581   0.854   2.332  1.0009  0.4596 -0.3825
  336MOL0     C45253   6.562   0.990   2.305 -0.5198 -0.1483  0.6706
  336MOL0     C45254   6.640   1.097   2.372 -0.5249  0.0623  0.8200
  336MOL0     O45255   6.658   1.081   2.513 -0.2423 -0.7684 -0.1569
  336MOL0     C45256   6.749   1.156   2.568 -0.2948  0.5688 -0.3864
  336MOL0     C45257   6.877   1.139   2.527 -0.5835 -0.4652  0.4770
  336MOL0     C45258   6.976   1.228   2.575 -0.3987  0.1398  0.3654
  336MOL0     C45259   6.952   1.315   2.686 -1.1610  0.0456  0.6244
  336MOL0     O45260   7.051   1.398   2.731 -0.2115 -0.0155 -0.5610
  336MOL0     C45261   7.162   1.332   2.797  0.1732  0.0638 -0.3303
  336MOL0     C45262   7.287   1.413   2.788 -0.3711 -0.6202 -0.3038
  336MOL0     C45263   7.316   1.466   2.647  0.0245 -0.0209  0.0933
  336MOL0     C45264   7.418   1.373   2.582  0.2011  0.5088  0.6163
  336MOL0     C45265   7.501   1.438   2.463  0.4368 -0.3336 -1.1721
  336MOL0     C45266   7.599   1.341   2.401  1.4506  0.1614 -0.0920
  336MOL0     C45267   7.663   1.409   2.277  0.5174  0.1898  0.2588
  336MOL0     C45268   7.775   1.323   2.209  0.7162 -0.7534  1.3026
  336MOL0    Cl45269   7.827   1.381   2.045  0.1230  0.0813  0.1498
  336MOL0     C45270   6.819   1.321   2.731 -0.1998 -0.5168  0.2679
  336MOL0     C45271   6.716   1.244   2.669 -0.5152 -0.7293 -0.2241
  336MOL0     O45272   6.690   1.187   2.304 -0.9531  0.0654 -1.0680
  336MOL0     C45273   6.466   1.029   2.214 -0.5706 -0.5664  0.7298
  336MOL0     C45274   6.400   0.933   2.138 -0.0775 -0.0363 -0.4791
  336MOL0     N45275   5.885   0.796   1.865  0.0377  0.3445 -0.1712
  336MOL0     N45276   5.757   0.807   1.831 -0.0810 -0.9288 -0.3449
  336MOL0     C45277   4.804   1.619   2.076 -0.0559 -0.2602  0.4483
  336MOL0     C45278   4.695   1.681   2.011 -0.1518  0.9587  0.6445
  336MOL0     C45279   4.386   1.773   1.652 -0.3346 -0.2349 -0.0391
  336MOL0     C45280   4.425   1.899   1.609  0.2067  0.2449  0.8776
  336MOL0     C45281   4.350   1.969   1.519 -0.2141 -0.6997  0.0241
  336MOL0     C45282   4.229   1.911   1.463 -0.3417  0.0063 -0.3846
  336MOL0     O45283   4.175   1.980   1.358 -0.0643 -0.3552  0.4536
  336MOL0     C45284   4.092   1.906   1.274  0.5652  0.1444 -0.8795
  336MOL0     C45285   4.058   1.971   1.145 -0.1580 -0.0252  0.2016
  336MOL0     C45286   4.169   1.928   1.052  1.6791 -0.6106 -0.6146
  336MOL0     C45287   4.169   2.016   0.921 -0.1181  0.8216  0.3578
  336MOL0     C45288   4.199   2.156   0.937 -0.4952 -0.0247 -0.0517
  336MOL0     C45289   4.253   2.270   0.937 -1.1156 -0.0106  0.0454
  336MOL0     C45290   4.188   1.787   1.521  0.2244 -0.1016 -0.1112
  336MOL0     C45291   4.262   1.718   1.606  0.0040  0.8625 -0.0487
  336MOL0     C45292   4.208   1.584   1.648 -0.0479 -0.4023  0.1634
  336MOL0     H45293   4.800   1.674   1.688  2.8626 -1.6952 -1.0010
  336MOL0     H45294   4.998   1.591   1.804 -0.2834 -1.0213  0.3931
  336MOL0     H45295   5.101   1.468   2.228  0.5319  0.5374 -0.0628
  336MOL0     H45296   4.951   1.399   2.158 -0.3276  0.2767 -0.7753
  336MOL0     H45297   5.238   1.384   2.040  1.0757 -0.4208  2.9937
  336MOL0     H45298   5.096   1.322   1.951 -1.2661 -2.0988  1.2424
  336MOL0     H45299   5.057   1.151   2.124 -0.3360  1.1650  0.0984
  336MOL0     H45300   5.198   1.211   2.215 -0.8169 -0.2311  0.6850
  336MOL0     H45301   5.203   1.130   1.917  0.4217  0.3594  0.4015
  336MOL0     H45302   5.346   1.139   2.027  1.2727  0.2000  0.3192
  336MOL0     H45303   5.250   0.941   2.160  0.2265 -0.2918  0.1610
  336MOL0     H45304   5.116   0.933   2.047  0.1700  2.0600 -0.4253
  336MOL0     H45305   5.281   0.767   1.998 -2.5439 -0.3268 -1.1336
  336MOL0     H45306   5.264   0.884   1.863 -0.8483  1.3136  0.6234
  336MOL0     H45307   5.475   0.899   2.094 -0.5257 -0.2988 -0.6398
  336MOL0     H45308   5.498   0.972   1.942 -1.2341  0.3915  1.4548
  336MOL0     H45309   5.505   0.674   1.998  3.6080 -1.4266 -0.8177
  336MOL0     H45310   5.504   0.731   1.835  0.1851 -2.8014 -0.9382
  336MOL0     H45311   5.739   0.736   2.153 -3.9246  1.5923 -0.6557
  336MOL0     H45312   6.099   0.803   2.050 -1.2540  1.6502  0.6405
  336MOL0     H45313   6.004   0.766   2.188  2.1036 -0.5107  1.2608
  336MOL0     H45314   5.973   0.529   2.075 -0.9813  0.4074 -0.5598
  336MOL0     H45315   6.102   0.584   1.974 -3.6190  1.0094 -1.7407
  336MOL0     H45316   6.143   0.460   2.223 -0.4112 -0.2641  0.0509
  336MOL0     H45317   6.153   0.635   2.266 -0.3035  1.7034 -2.4997
  336MOL0     H45318   6.288   0.501   2.039  0.3958  2.1385 -1.5426
  336MOL0     H45319   6.376   0.520   2.198 -1.7131 -3.6443  0.3361
  336MOL0     H45320   6.520   0.650   2.295  2.8387  0.6698 -1.1881
  336MOL0     H45321   6.648   0.814   2.407  1.6471 -2.0678 -2.1631
  336MOL0     H45322   6.901   1.069   2.448  0.5194  0.8001 -0.3514
  336MOL0     H45323   7.077   1.225   2.535 -0.6395 -0.4039 -0.2222
  336MOL0     H45324   7.130   1.299   2.896  0.4592 -1.3260 -0.6788
  336MOL0     H45325   7.191   1.244   2.739 -2.6969  0.4814 -2.6265
  336MOL0     H45326   7.261   1.496   2.855 -0.3000 -1.7046  1.1285
  336MOL0     H45327   7.372   1.357   2.829 -0.4732 -1.6628 -1.4799
  336MOL0     H45328   7.227   1.463   2.585  0.1501 -2.3444 -0.0389
  336MOL0     H45329   7.365   1.564   2.654  3.0590 -1.4123  0.1603
  336MOL0     H45330   7.372   1.284   2.539 -0.3232  1.2892 -0.4763
  336MOL0     H45331   7.488   1.342   2.660  0.8915  2.6476  0.9266
  336MOL0     H45332   7.543   1.533   2.495 -2.6086  1.6760 -2.6050
  336MOL0     H45333   7.414   1.469   2.404 -1.8586 -0.1143  2.0461
  336MOL0     H45334   7.674   1.319   2.477  1.7207  0.3969 -0.2882
  336MOL0     H45335   7.541   1.251   2.376  2.8314 -0.8350  0.1671
  336MOL0     H45336   7.704   1.508   2.298  1.7525  0.0940 -1.4957
  336MOL0     H45337   7.590   1.429   2.198 -0.0979 -0.4333  0.6512
  336MOL0     H45338   7.851   1.302   2.284 -0.2925 -0.0543  2.5680
  336MOL0     H45339   7.720   1.229   2.201  0.9144 -0.7794  0.1019
  336MOL0     H45340   6.788   1.398   2.801  3.0545  4.4882 -3.1876
  336MOL0     H45341   6.612   1.244   2.700 -0.9201 -1.3118 -1.5094
  336MOL0     H45342   6.460   1.135   2.193  2.8905 -0.5119 -0.5381
  336MOL0     H45343   6.343   0.963   2.051  0.1376 -0.6868 -0.8513
  336MOL0     H45344   4.791   1.606   2.183 -2.3315 -0.6452  0.1856
  336MOL0     H45345   4.602   1.702   2.063 -1.0426  0.7454 -0.7871
  336MOL0     H45346   4.520   1.948   1.630  2.4925 -1.3707 -4.2319
  336MOL0     H45347   4.372   2.071   1.487 -0.8531 -0.4712  0.2893
  336MOL0     H45348   4.001   1.913   1.333 -0.3772 -1.3469 -2.0718
  336MOL0     H45349   4.123   1.801   1.270 -0.1102 -0.0357 -1.6363
  336MOL0     H45350   4.057   2.080   1.154  1.3122  0.0675 -0.4086
  336MOL0     H45351   3.959   1.937   1.112 -0.2022 -0.2974  0.6027
  336MOL0     H45352   4.169   1.820   1.034  1.5640 -0.4730 -1.5336
  336MOL0     H45353   4.262   1.946   1.106  2.0276 -2.1091 -0.6524
  336MOL0     H45354   4.238   1.970   0.850 -1.3709  1.6298 -1.4926
  336MOL0     H45355   4.067   2.007   0.881  0.4796 -0.9225 -0.9027
  336MOL0     H45356   4.283   2.373   0.942 -1.5646  0.0497  1.8703
  336MOL0     H45357   4.090   1.750   1.491 -0.0153  2.1335 -2.4122
  336MOL0     H45358   4.262   1.505   1.595  1.1252 -1.0614  2.1853
  336MOL0     H45359   4.224   1.567   1.755  0.7352  1.4374  0.3818
  336MOL0     H45360   4.104   1.569   1.618  0.3339  1.4256 -2.3618
  337MOL0     O45361   5.842  10.360   5.551 -0.0999 -0.2597  0.0469
  337MOL0     C45362   5.830  10.371   5.429  1.1450  0.4500 -0.9810
  337MOL0     O45363   5.909  10.318   5.337  0.4437 -0.2700 -0.8246
  337MOL0     C45364   5.992  10.216   5.377  0.2281  0.3067  0.0726
  337MOL0     C45365   6.130  10.223   5.353 -0.3214  0.2621  0.0818
  337MOL0     C45366   6.221  10.131   5.400 -0.3086 -0.2624  0.0340
  337MOL0     C45367   6.172  10.015   5.459  0.5250 -0.3619 -0.4360
  337MOL0     O45368   6.253   9.908   5.495  0.0920  0.1689 -0.3883
  337MOL0     C45369   6.394   9.921   5.535 -0.6456 -0.5842  0.6547
  337MOL0     C45370   6.454   9.780   5.538 -0.0797 -0.3337  0.1237
  337MOL0     C45371   6.605   9.779   5.577 -0.6224  0.5037 -0.8980
  337MOL0     C45372   6.642   9.886   5.690 -0.0900  0.3592 -0.2238
  337MOL0     C45373   6.784   9.868   5.747 -0.6998  0.5467  0.0160
  337MOL0     C45374   6.804   9.936   5.880  0.5937 -0.4125  0.7845
  337MOL0     C45375   6.950   9.902   5.928 -0.6584 -0.5804 -0.0315
  337MOL0     C45376   6.990   9.979   6.059  0.0811 -0.0976 -0.6199
  337MOL0     N45377   7.011  10.118   6.039 -0.3206 -0.6794  1.0126
  337MOL0     C45378   7.113  10.173   5.962 -0.6135  0.0041  0.1429
  337MOL0     C45379   7.070  10.297   5.943  0.9376  0.1482 -0.4652
  337MOL0     C45380   7.141  10.407   5.873 -0.6313 -0.2103 -0.6663
  337MOL0     C45381   7.276  10.424   5.940 -0.6893 -0.4981  0.0909
  337MOL0     C45382   7.353  10.556   5.908  0.0253  0.0506  0.0201
  337MOL0     C45383   7.495  10.562   5.955 -0.3570 -0.2479 -0.8240
  337MOL0     O45384   7.566  10.482   5.861 -0.5647 -0.2360  0.6792
  337MOL0     C45385   7.701  10.475   5.866 -0.6203  0.1682 -0.1754
  337MOL0     C45386   7.773  10.439   5.750 -0.5213 -0.6196  0.1349
  337MOL0     C45387   7.913  10.410   5.760  0.0098  0.1667  0.5836
  337MOL0     C45388   7.987  10.411   5.880  0.4844 -0.5665 -0.6452
  337MOL0     C45389   8.132  10.381   5.893 -0.2049  0.5584  0.1001
  337MOL0     O45390   8.191  10.370   6.014  0.0416 -0.7746 -0.5779
  337MOL0     C45391   8.325  10.377   6.049  0.0615  0.0829 -0.1686
  337MOL0     C45392   8.367  10.329   6.177  0.0445  0.1716 -0.0869
  337MOL0     C45393   8.495  10.358   6.234 -0.0686  0.3369 -0.3370
  337MOL0     C45394   8.590  10.410   6.145  0.5043  0.4184 -0.8974
  337MOL0     O45395   8.724  10.417   6.171 -0.4672 -0.0834 -0.0618
  337MOL0     C45396   8.783  10.298   6.233  0.9908  0.0411  0.0267
  337MOL0     C45397   8.936  10.312   6.205  0.5085  0.1603  0.4227
  337MOL0     C45398   8.998  10.209   6.302 -0.3015  0.0845  0.5229
  337MOL0     C45399   9.126  10.154   6.226  0.8252 -0.4759 -0.2323
  337MOL0     C45400   9.194  10.055   6.309  0.2907  0.0845 -0.1033
  337MOL0     C45401   9.342  10.033   6.259 -0.2610 -0.7402  0.5243
  337MOL0     C45402   9.360   9.939   6.132 -0.4864 -0.2934  0.4784
  337MOL0     C45403   9.492   9.964   6.064 -0.0743  0.0461 -0.1075
  337MOL0    Cl45404   9.616   9.909   6.189 -0.1364 -0.0202 -0.3408
  337MOL0     C45405   8.549  10.464   6.024 -0.2831  0.1244  0.4884
  337MOL0     C45406   8.425  10.445   5.980  1.1444 -0.3442  0.7651
  337MOL0     O45407   8.195  10.377   5.788  0.1773  0.4526 -0.1992
  337MOL0     C45408   7.913  10.454   5.987 -0.4210 -0.0348  1.2025
  337MOL0     C45409   7.775  10.471   5.987  0.4095  0.3528 -0.0255
  337MOL0     N45410   6.958  10.326   6.017 -0.2886  0.3137  0.3556
  337MOL0     N45411   6.918  10.215   6.067  0.0573  0.3138 -0.1215
  337MOL0     C45412   6.030   9.997   5.479 -1.0636 -0.5402  0.3645
  337MOL0     C45413   5.950  10.099   5.442 -0.8927 -0.0587  0.7186
  337MOL0     C45414   5.708  10.444   5.379  0.5020 -0.1529 -0.0554
  337MOL0     C45415   5.589  10.427   5.458 -0.5859  0.1713  0.9573
  337MOL0     C45416   5.476  10.505   5.417  0.0733 -0.1282 -0.5599
  337MOL0     C45417   5.470  10.576   5.298 -0.0571  0.3502 -0.7137
  337MOL0     O45418   5.363  10.646   5.248  0.1401 -0.3337 -0.3514
  337MOL0     C45419   5.259  10.703   5.328 -0.6718  0.6878  0.1151
  337MOL0     C45420   5.132  10.638   5.282  0.7327  0.0224 -1.0199
  337MOL0     C45421   5.024  10.660   5.390 -0.7222 -0.5938 -0.1760
  337MOL0     C45422   4.905  10.595   5.325 -0.0035 -0.1260 -0.0751
  337MOL0     C45423   4.836  10.671   5.217  0.1915 -0.4362  0.0053
  337MOL0     C45424   4.781  10.734   5.122  0.0384 -0.5872 -0.2507
  337MOL0     C45425   5.584  10.581   5.218  0.8154 -0.3484 -0.1331
  337MOL0     C45426   5.700  10.518   5.255 -0.3287  0.4382  1.4360
  337MOL0     C45427   5.824  10.554   5.170  0.5350 -0.4995  0.0214
  337MOL0     H45428   6.169  10.302   5.290 -0.7304  0.4685  0.0852
  337MOL0     H45429   6.325  10.113   5.377 -1.2494 -7.2996 -0.8523
  337MOL0     H45430   6.452   9.978   5.462 -0.5891  0.5537  1.5548
  337MOL0     H45431   6.409   9.978   5.627  2.1673  1.1186 -0.7477
  337MOL0     H45432   6.461   9.738   5.437 -0.5006  0.3141 -0.1853
  337MOL0     H45433   6.391   9.722   5.606  1.9763 -1.2750  1.3220
  337MOL0     H45434   6.645   9.816   5.483 -0.9494  0.2590 -1.1363
  337MOL0     H45435   6.638   9.679   5.608 -0.8992  1.3043  2.4005
  337MOL0     H45436   6.639   9.989   5.652  0.1383 -0.7669 -3.5686
  337MOL0     H45437   6.574   9.883   5.776  0.6436 -1.4805  0.3399
  337MOL0     H45438   6.802   9.762   5.763  1.1835  1.0545  1.6761
  337MOL0     H45439   6.861   9.915   5.685 -0.8355 -1.7870 -2.0612
  337MOL0     H45440   6.792  10.045   5.879 -0.0202 -0.4050  3.1952
  337MOL0     H45441   6.731   9.905   5.954  0.6117  2.0105  1.9156
  337MOL0     H45442   7.015   9.934   5.846 -1.4609 -0.8785 -0.7973
  337MOL0     H45443   6.961   9.794   5.937  0.0036 -0.4889  0.2569
  337MOL0     H45444   6.913   9.958   6.133  2.2525 -0.6313  1.6182
  337MOL0     H45445   7.084   9.941   6.100 -0.2703 -0.0659  0.2254
  337MOL0     H45446   7.207  10.133   5.927 -1.3381 -0.2317 -1.6337
  337MOL0     H45447   7.169  10.378   5.772 -2.9706  1.2655 -1.8334
  337MOL0     H45448   7.085  10.501   5.869 -0.6871 -0.2773 -1.7272
  337MOL0     H45449   7.265  10.431   6.048 -0.3357  0.2493  0.0913
  337MOL0     H45450   7.339  10.336   5.922 -2.9230 -2.4625  1.3228
  337MOL0     H45451   7.292  10.630   5.960  0.5993 -0.8563  2.0827
  337MOL0     H45452   7.356  10.578   5.801 -0.0715  0.1089  0.0291
  337MOL0     H45453   7.513  10.528   6.058 -0.5535  1.1949 -0.2795
  337MOL0     H45454   7.530  10.665   5.967  1.5542 -1.1269  2.3529
  337MOL0     H45455   7.713  10.432   5.660  0.0609 -2.5557 -0.1541
  337MOL0     H45456   7.969  10.388   5.669  2.2150 -1.1225  2.1418
  337MOL0     H45457   8.289  10.276   6.230 -0.1950  2.0084  1.5214
  337MOL0     H45458   8.520  10.324   6.334 -2.0650  1.0733  0.4459
  337MOL0     H45459   8.757  10.301   6.339 -2.0057 -0.8032 -0.6126
  337MOL0     H45460   8.747  10.202   6.194 -0.4350  0.5737 -0.0232
  337MOL0     H45461   8.941  10.275   6.102 -0.0093  1.5268 -0.1101
  337MOL0     H45462   8.971  10.415   6.208  1.7173 -0.2497  2.3583
  337MOL0     H45463   9.030  10.253   6.396  0.2134  0.2213  0.2878
  337MOL0     H45464   8.924  10.130   6.319 -0.4524  0.2696  0.7244
  337MOL0     H45465   9.194  10.238   6.209  0.3564  0.1662  0.9099
  337MOL0     H45466   9.095  10.112   6.130 -0.5079 -1.9579  0.7781
  337MOL0     H45467   9.139   9.962   6.325  3.2011 -2.1593 -1.8764
  337MOL0     H45468   9.212  10.094   6.409  2.0300 -1.6418  0.3332
  337MOL0     H45469   9.400  10.125   6.241  2.2106 -2.0696  1.2086
  337MOL0     H45470   9.392   9.987   6.344 -0.3897  2.5116  2.5393
  337MOL0     H45471   9.281   9.956   6.059 -1.4454 -2.8943  0.7956
  337MOL0     H45472   9.346   9.837   6.168 -3.4296  0.1638  0.8113
  337MOL0     H45473   9.515   9.904   5.976 -2.3153  2.5297 -2.5891
  337MOL0     H45474   9.495  10.071   6.039 -0.6472 -0.2970 -1.7268
  337MOL0     H45475   8.620  10.522   5.966 -0.4426  1.4790  1.5925
  337MOL0     H45476   8.390  10.479   5.883 -1.4150  0.6076  1.9344
  337MOL0     H45477   7.965  10.470   6.080  0.0481  1.7903  0.6577
  337MOL0     H45478   7.721  10.493   6.078 -2.1889  0.1446 -1.4221
  337MOL0     H45479   5.994   9.907   5.528 -0.4185 -0.7731  0.4093
  337MOL0     H45480   5.844  10.102   5.466 -0.3330  0.7356  3.3182
  337MOL0     H45481   5.591  10.365   5.547 -2.2634 -2.3697 -0.6542
  337MOL0     H45482   5.396  10.494   5.489  0.0345 -2.3365 -0.8818
  337MOL0     H45483   5.269  10.811   5.314  2.0205  0.7602  1.8521
  337MOL0     H45484   5.282  10.679   5.433  1.1922  1.2188 -0.1255
  337MOL0     H45485   5.142  10.532   5.259 -3.0407  0.0969 -3.9003
  337MOL0     H45486   5.095  10.679   5.188 -2.5973  1.5687  0.7834
  337MOL0     H45487   5.014  10.767   5.408  2.5160 -0.2274  0.0421
  337MOL0     H45488   5.061  10.612   5.482 -0.2715  0.4827  0.2212
  337MOL0     H45489   4.930  10.501   5.275  0.6691 -1.1254  2.0021
  337MOL0     H45490   4.830  10.573   5.402  0.0007  1.2854  0.3624
  337MOL0     H45491   4.736  10.792   5.043 -0.4609  1.6313  1.5497
  337MOL0     H45492   5.575  10.641   5.128 -3.6768  0.9690  0.9296
  337MOL0     H45493   5.900  10.479   5.143  4.1268  3.1559 -1.1078
  337MOL0     H45494   5.795  10.603   5.076 -0.4846  0.0914  0.6359
  337MOL0     H45495   5.883  10.625   5.228 -1.7233  1.4198  0.1189
  338MOL0     O45496   1.521   4.789   2.206 -0.1707  0.0882  0.1583
  338MOL0     C45497   1.490   4.685   2.254  1.0737  1.1021 -0.0504
  338MOL0     O45498   1.538   4.625   2.368 -0.3978 -0.0218 -0.1133
  338MOL0     C45499   1.631   4.691   2.432  0.0694 -0.7407 -0.6625
  338MOL0     C45500   1.602   4.800   2.514 -0.0836  0.3375 -0.2966
  338MOL0     C45501   1.708   4.864   2.582 -0.2418  0.8034 -0.2721
  338MOL0     C45502   1.839   4.822   2.563 -0.1789  0.2751 -0.1523
  338MOL0     O45503   1.944   4.871   2.632  0.3069 -0.2323  0.3944
  338MOL0     C45504   1.933   4.980   2.720  0.5295  0.0638 -0.4359
  338MOL0     C45505   2.072   5.008   2.770  0.0722  0.1884  0.7059
  338MOL0     C45506   2.164   5.034   2.646 -0.9746 -0.4948 -0.5461
  338MOL0     C45507   2.305   5.070   2.691 -0.0730  0.5910 -0.8321
  338MOL0     C45508   2.404   5.091   2.575  0.1989 -0.3842  0.3090
  338MOL0     C45509   2.549   5.111   2.621 -0.9030  0.5103 -0.4500
  338MOL0     C45510   2.589   5.224   2.727  0.5821 -0.3172  0.9056
  338MOL0     C45511   2.537   5.358   2.685  0.1152 -0.0756  0.5542
  338MOL0     N45512   2.415   5.389   2.754  0.1755 -0.0992 -0.0816
  338MOL0     C45513   2.303   5.414   2.684  0.5860  0.3762 -0.3838
  338MOL0     C45514   2.212   5.445   2.781 -0.1318  0.5699 -0.0963
  338MOL0     C45515   2.080   5.517   2.759 -0.2352  0.2140 -0.4371
  338MOL0     C45516   1.958   5.415   2.735 -0.2096  0.2963 -0.1699
  338MOL0     C45517   1.830   5.499   2.703 -0.3348 -0.2968 -0.9919
  338MOL0     C45518   1.710   5.418   2.658  0.4143  0.5436  0.0185
  338MOL0     O45519   1.643   5.357   2.765  0.0033  0.0150  0.7086
  338MOL0     C45520   1.541   5.268   2.740  0.0861  0.2455  0.2052
  338MOL0     C45521   1.495   5.185   2.852  0.5151  0.7722 -0.3999
  338MOL0     C45522   1.410   5.075   2.832  0.2694  0.5599 -0.9414
  338MOL0     C45523   1.368   5.039   2.699  0.0127 -1.3569 -0.1379
  338MOL0     C45524   1.271   4.933   2.664 -0.3124 -1.3502  0.1416
  338MOL0     O45525   1.200   4.930   2.545 -0.1077  0.4256 -0.5820
  338MOL0     C45526   1.114   4.824   2.522 -0.7050  0.2052 -0.6926
  338MOL0     C45527   1.167   4.692   2.499 -0.3576 -0.0902  0.8561
  338MOL0     C45528   1.089   4.580   2.474  0.4011  0.8390 -0.2300
  338MOL0     C45529   0.951   4.602   2.468  0.7101  0.5837 -0.3689
  338MOL0     O45530   0.877   4.489   2.447  0.0179 -0.0041 -0.0467
  338MOL0     C45531   0.905   4.448   2.308 -0.6453  0.3261 -0.1256
  338MOL0     C45532   0.785   4.394   2.237  0.6874 -0.0019  0.0834
  338MOL0     C45533   0.653   4.444   2.304  0.0049 -0.2592 -0.6401
  338MOL0     C45534   0.530   4.407   2.227 -0.0564 -0.3077  0.1208
  338MOL0     C45535   0.521   4.256   2.200  0.0179 -0.3849 -0.6894
  338MOL0     C45536   0.381   4.208   2.164  0.8568 -0.4081 -0.6915
  338MOL0     C45537   0.341   4.273   2.026 -0.4472 -1.2280 -0.4503
  338MOL0     C45538   0.260   4.189   1.927  0.7955  0.0584 -0.1767
  338MOL0    Cl45539   0.240   4.269   1.772  0.0361 -0.4126  0.3683
  338MOL0     C45540   0.899   4.733   2.464 -0.2965 -0.1089  0.2993
  338MOL0     C45541   0.982   4.836   2.507  0.6902 -0.1746 -0.2852
  338MOL0     O45542   1.260   4.858   2.758  0.3785  0.1941 -0.8047
  338MOL0     C45543   1.415   5.114   2.590 -0.2910 -0.2067  0.5713
  338MOL0     C45544   1.495   5.225   2.612  0.0569 -0.1998  0.0030
  338MOL0     N45545   2.273   5.440   2.901  0.2007  0.7273 -0.6815
  338MOL0     N45546   2.398   5.408   2.885  0.0525 -0.2124  0.1289
  338MOL0     C45547   1.861   4.720   2.476 -1.1259  0.2304  0.1949
  338MOL0     C45548   1.765   4.655   2.409 -0.1156  0.3040  0.9754
  338MOL0     C45549   1.384   4.605   2.199 -0.0272  0.0254 -0.4853
  338MOL0     C45550   1.401   4.463   2.191  0.9137  0.3951 -1.0138
  338MOL0     C45551   1.297   4.383   2.142 -0.6312 -0.1466  0.7254
  338MOL0     C45552   1.182   4.436   2.091  0.1675 -1.1736  0.6981
  338MOL0     O45553   1.092   4.365   2.023  0.2439  0.3966  0.4335
  338MOL0     C45554   1.089   4.385   1.881  0.4673 -0.1816  1.0387
  338MOL0     C45555   0.954   4.423   1.833  0.6900 -0.4091  0.5966
  338MOL0     C45556   0.958   4.407   1.678  0.4598 -0.4882  0.8508
  338MOL0     C45557   0.823   4.453   1.609 -0.6770 -0.6031  0.5643
  338MOL0     C45558   0.706   4.389   1.659  0.7680  0.5124 -0.6830
  338MOL0     C45559   0.605   4.334   1.709  0.2743  0.3976  0.9889
  338MOL0     C45560   1.164   4.574   2.097  0.7625  0.0027 -0.0548
  338MOL0     C45561   1.259   4.657   2.158  0.2310  0.9954  0.3630
  338MOL0     C45562   1.231   4.801   2.166  0.8510 -0.1900  0.3334
  338MOL0     H45563   1.497   4.826   2.526 -0.2088 -0.0396 -0.5442
  338MOL0     H45564   1.689   4.942   2.654  0.2496 -0.3018  1.1005
  338MOL0     H45565   1.888   5.068   2.673 -1.8488 -0.5465  0.5619
  338MOL0     H45566   1.864   4.960   2.803  1.0669  2.1661  0.5943
  338MOL0     H45567   2.113   4.923   2.826 -0.1695  0.1883  0.8821
  338MOL0     H45568   2.081   5.093   2.838  0.3649  1.4765 -0.8724
  338MOL0     H45569   2.119   5.114   2.587 -0.6128 -0.1540 -0.3660
  338MOL0     H45570   2.172   4.941   2.590  0.2099 -1.0816  0.5395
  338MOL0     H45571   2.310   5.146   2.769  1.7341 -1.5292  1.2802
  338MOL0     H45572   2.332   4.977   2.742 -3.4861  0.1873  0.4776
  338MOL0     H45573   2.386   5.009   2.506 -0.5589  0.6457 -0.7461
  338MOL0     H45574   2.374   5.176   2.513 -1.9265 -2.0370 -1.0690
  338MOL0     H45575   2.576   5.014   2.665 -0.2489  0.4984 -0.8764
  338MOL0     H45576   2.611   5.127   2.533 -0.1546 -0.0807 -0.0414
  338MOL0     H45577   2.698   5.224   2.719  0.4141  0.3313 -3.1238
  338MOL0     H45578   2.556   5.197   2.828  0.7790 -0.2297  0.9945
  338MOL0     H45579   2.609   5.438   2.706  0.9704 -0.5171 -0.5675
  338MOL0     H45580   2.513   5.349   2.578 -1.9412 -0.3274  0.9936
  338MOL0     H45581   2.296   5.427   2.577 -2.1015  3.0259 -0.0289
  338MOL0     H45582   2.073   5.583   2.845  2.3345  0.1911 -0.1271
  338MOL0     H45583   2.091   5.574   2.666 -1.0177 -0.6022 -1.0536
  338MOL0     H45584   1.974   5.353   2.647 -1.7127  0.5856 -0.6608
  338MOL0     H45585   1.947   5.344   2.817  0.6497 -2.2533 -2.1529
  338MOL0     H45586   1.852   5.575   2.628 -2.5203  0.8436 -0.5314
  338MOL0     H45587   1.799   5.556   2.791  3.7214 -1.9764  1.8840
  338MOL0     H45588   1.732   5.359   2.569  2.2335 -1.1526  1.4924
  338MOL0     H45589   1.637   5.492   2.626 -1.0311 -1.1474 -0.7612
  338MOL0     H45590   1.545   5.205   2.946 -0.9427  1.2608  0.3141
  338MOL0     H45591   1.381   5.015   2.918 -0.6943  0.9226 -1.0027
  338MOL0     H45592   1.272   4.673   2.516  0.0236  3.1395  2.9669
  338MOL0     H45593   1.140   4.485   2.466 -0.9835 -0.1901  2.1078
  338MOL0     H45594   0.951   4.522   2.243  0.8446 -0.4444  0.0196
  338MOL0     H45595   0.974   4.363   2.315  0.4922  1.1934 -0.5701
  338MOL0     H45596   0.795   4.435   2.136  4.4979 -1.3154 -0.2084
  338MOL0     H45597   0.794   4.285   2.230  1.0596  0.0218  0.1899
  338MOL0     H45598   0.650   4.403   2.405  3.8208  1.0561  0.1894
  338MOL0     H45599   0.651   4.553   2.301  1.9177 -0.2018 -1.5992
  338MOL0     H45600   0.539   4.461   2.133  2.1299 -0.5568  0.1229
  338MOL0     H45601   0.446   4.445   2.286  1.6589  2.4773  0.9844
  338MOL0     H45602   0.548   4.204   2.293  0.0277 -1.0080 -1.0396
  338MOL0     H45603   0.598   4.235   2.126  2.7134  0.8521  1.5563
  338MOL0     H45604   0.373   4.101   2.148  0.9640 -0.6144  0.5218
  338MOL0     H45605   0.311   4.242   2.241  1.8910  0.4260 -0.0936
  338MOL0     H45606   0.431   4.310   1.976 -0.8348 -1.5130 -1.3887
  338MOL0     H45607   0.271   4.353   2.051  0.2008 -0.3281 -1.4328
  338MOL0     H45608   0.300   4.090   1.906  0.0582 -0.0216 -1.2605
  338MOL0     H45609   0.163   4.172   1.975  1.7876 -3.2385  0.9329
  338MOL0     H45610   0.795   4.757   2.442 -0.1703  0.5028  0.3684
  338MOL0     H45611   0.938   4.935   2.511  0.8708 -0.0426 -1.3397
  338MOL0     H45612   1.385   5.102   2.486  1.7675  1.8526 -0.3646
  338MOL0     H45613   1.533   5.269   2.521 -1.7801  0.7846 -0.3256
  338MOL0     H45614   1.965   4.690   2.475 -1.4171 -0.8626  1.2165
  338MOL0     H45615   1.777   4.569   2.344 -0.0475  0.7011  0.4507
  338MOL0     H45616   1.484   4.407   2.233 -1.2306 -0.3227  2.7311
  338MOL0     H45617   1.312   4.275   2.141  0.6089  0.0053 -0.2272
  338MOL0     H45618   1.112   4.289   1.833 -0.4059 -0.0432  0.3097
  338MOL0     H45619   1.165   4.458   1.853 -2.3396  1.6205 -2.7902
  338MOL0     H45620   0.927   4.525   1.863 -3.8877 -0.1836 -3.0858
  338MOL0     H45621   0.867   4.365   1.865  0.6918 -0.2236  0.9478
  338MOL0     H45622   0.962   4.303   1.644  1.6557 -0.2008  0.0405
  338MOL0     H45623   1.043   4.464   1.641 -0.2653 -0.3073 -0.6518
  338MOL0     H45624   0.820   4.561   1.624 -0.2258  0.3698 -4.5012
  338MOL0     H45625   0.834   4.455   1.500 -0.4593 -0.2872  0.5878
  338MOL0     H45626   0.519   4.279   1.740 -0.3619 -0.4621 -2.0414
  338MOL0     H45627   1.074   4.614   2.052  1.8712  0.4643 -1.9598
  338MOL0     H45628   1.122   4.811   2.165  0.7414 -0.4640 -3.2793
  338MOL0     H45629   1.267   4.849   2.257  0.0308  1.4559 -0.1829
  338MOL0     H45630   1.274   4.847   2.077  0.9548  0.7311  0.8451
  339MOL0     O45631   0.955   6.506   3.104 -0.2628 -0.4810 -0.9134
  339MOL0     C45632   0.963   6.384   3.086 -0.0957 -0.5949  0.2619
  339MOL0     O45633   1.075   6.317   3.073 -0.4235  0.3555  0.8632
  339MOL0     C45634   1.186   6.388   3.101  0.0551  0.1545 -0.2001
  339MOL0     C45635   1.218   6.404   3.237  0.6932 -0.3719 -0.1119
  339MOL0     C45636   1.335   6.468   3.271 -0.2164 -0.0210  1.2286
  339MOL0     C45637   1.428   6.511   3.168 -0.0600  0.7289 -0.2211
  339MOL0     O45638   1.539   6.583   3.188 -0.7604 -0.2054  0.2893
  339MOL0     C45639   1.613   6.555   3.301 -0.3694  0.2890 -1.1512
  339MOL0     C45640   1.725   6.662   3.303  0.4086  0.6015 -0.9583
  339MOL0     C45641   1.809   6.618   3.430 -0.1034  0.1500  0.6699
  339MOL0     C45642   1.903   6.733   3.471  0.0406 -0.2703 -0.3435
  339MOL0     C45643   2.004   6.677   3.578  0.0294 -0.3901 -0.3972
  339MOL0     C45644   2.097   6.570   3.524 -0.2521 -1.2864 -0.1492
  339MOL0     C45645   2.234   6.561   3.596  0.4475  0.2213  0.8728
  339MOL0     C45646   2.219   6.509   3.741 -0.3513 -0.1648  0.4141
  339MOL0     N45647   2.344   6.539   3.811  0.7484  0.8651  0.0716
  339MOL0     C45648   2.434   6.437   3.836 -0.1051 -0.2920 -0.8333
  339MOL0     C45649   2.526   6.498   3.907 -0.4658  0.3067 -0.2777
  339MOL0     C45650   2.638   6.427   3.976  0.4493  0.4776 -0.6542
  339MOL0     C45651   2.765   6.420   3.885  0.0780 -0.0537  0.3739
  339MOL0     C45652   2.745   6.331   3.754 -0.1845 -0.5622 -0.4388
  339MOL0     C45653   2.877   6.271   3.691  0.9413  0.1200  0.1322
  339MOL0     O45654   2.968   6.374   3.651 -0.1666 -0.1394  0.5587
  339MOL0     C45655   3.078   6.340   3.582  0.8930  0.0844 -0.4226
  339MOL0     C45656   3.113   6.217   3.541  0.3836 -1.0562 -0.1043
  339MOL0     C45657   3.244   6.206   3.484  0.4202 -0.2097 -1.1680
  339MOL0     C45658   3.327   6.316   3.464  0.2150 -0.6047  0.0065
  339MOL0     C45659   3.449   6.308   3.380 -0.0811  0.0441  0.4543
  339MOL0     O45660   3.531   6.416   3.386  0.1217  0.3096 -0.5348
  339MOL0     C45661   3.674   6.411   3.367  0.0772  0.6909 -0.2186
  339MOL0     C45662   3.743   6.535   3.365 -0.2766  0.2555  0.9217
  339MOL0     C45663   3.886   6.548   3.386 -0.0603  0.0045  0.1339
  339MOL0     C45664   3.961   6.424   3.408 -0.3447  0.1384 -0.0627
  339MOL0     O45665   4.094   6.421   3.413 -0.1417 -0.5403  0.1431
  339MOL0     C45666   4.182   6.518   3.341  0.1951 -0.2538 -0.4770
  339MOL0     C45667   4.222   6.634   3.442 -0.5299  0.3715 -0.3841
  339MOL0     C45668   4.343   6.713   3.393  0.0566 -0.4867  0.1567
  339MOL0     C45669   4.475   6.645   3.368  0.5270  0.3615  0.1963
  339MOL0     C45670   4.581   6.745   3.331  0.4212  0.2372  0.4298
  339MOL0     C45671   4.709   6.674   3.281  0.7494  0.6589 -0.8600
  339MOL0     C45672   4.815   6.780   3.279  0.2693 -0.7593  0.2016
  339MOL0     C45673   4.943   6.733   3.223  0.6250  0.1407  0.5893
  339MOL0    Cl45674   5.067   6.864   3.247  0.3835 -0.1338 -0.3807
  339MOL0     C45675   3.895   6.304   3.406  0.0580 -0.1297  0.8393
  339MOL0     C45676   3.753   6.296   3.394  0.0149 -0.0201  0.2118
  339MOL0     O45677   3.470   6.204   3.322 -0.0717  0.3351  0.5087
  339MOL0     C45678   3.288   6.440   3.513 -0.3477  0.7226  0.0054
  339MOL0     C45679   3.160   6.451   3.573  0.3081  0.9302 -0.3370
  339MOL0     N45680   2.496   6.637   3.915  0.5497  0.2832 -0.8815
  339MOL0     N45681   2.381   6.652   3.870 -0.5527  0.6403  0.5223
  339MOL0     C45682   1.380   6.514   3.040 -0.7354  0.0903 -0.9063
  339MOL0     C45683   1.270   6.440   2.999 -0.2595 -0.0418 -0.0092
  339MOL0     C45684   0.836   6.309   3.093  0.5738  0.3162 -0.3680
  339MOL0     C45685   0.733   6.352   3.187 -0.3723 -0.3317 -0.5845
  339MOL0     C45686   0.606   6.296   3.177  0.6164 -0.5789 -0.5458
  339MOL0     C45687   0.577   6.192   3.086 -0.0987 -0.7791 -0.5562
  339MOL0     O45688   0.454   6.127   3.077 -0.4094  0.2606  0.4050
  339MOL0     C45689   0.340   6.179   3.149  0.0679  0.1403 -0.6771
  339MOL0     C45690   0.209   6.117   3.104 -0.6644 -0.6991 -0.1906
  339MOL0     C45691   0.104   6.134   3.214  0.0579  0.5008 -0.1298
  339MOL0     C45692  -0.041   6.110   3.162  0.0714 -0.6641  0.7433
  339MOL0     C45693  -0.090   6.214   3.073  0.2303 -0.2176  0.9356
  339MOL0     C45694  -0.123   6.294   2.989  0.3806  0.0207  0.4110
  339MOL0     C45695   0.669   6.154   2.996 -0.7421  0.6081  0.0496
  339MOL0     C45696   0.799   6.211   3.000 -0.4577 -0.3323  0.7086
  339MOL0     C45697   0.901   6.168   2.897 -0.1328  0.1944  0.0976
  339MOL0     H45698   1.144   6.361   3.305 -2.2326 -0.9662 -3.4055
  339MOL0     H45699   1.357   6.491   3.375 -2.3779  2.6416  1.2164
  339MOL0     H45700   1.552   6.559   3.391  1.4790 -0.0215  0.1600
  339MOL0     H45701   1.662   6.457   3.301 -1.4123 -0.3156  1.6054
  339MOL0     H45702   1.674   6.759   3.307 -0.8019  0.0248  3.7227
  339MOL0     H45703   1.784   6.650   3.212  0.3498 -0.3871 -0.8727
  339MOL0     H45704   1.862   6.533   3.386  0.0428  1.2041 -1.2582
  339MOL0     H45705   1.748   6.588   3.516  0.6076 -0.2549  1.0419
  339MOL0     H45706   1.943   6.775   3.379  1.4743 -1.4442 -0.2892
  339MOL0     H45707   1.838   6.811   3.512  0.5375  1.3447 -2.4488
  339MOL0     H45708   2.058   6.761   3.624 -0.8094 -1.3338  2.5443
  339MOL0     H45709   1.945   6.627   3.655  0.3364 -1.1818 -0.6575
  339MOL0     H45710   2.043   6.476   3.531 -2.1119 -0.6547 -3.6824
  339MOL0     H45711   2.105   6.589   3.416 -1.2586  0.3479  0.0219
  339MOL0     H45712   2.273   6.662   3.612  0.2793  0.2064  1.3788
  339MOL0     H45713   2.303   6.500   3.536  0.8609  1.6601 -0.1673
  339MOL0     H45714   2.141   6.571   3.784 -0.6407 -0.3481  0.1589
  339MOL0     H45715   2.187   6.404   3.745 -0.3548 -0.1386  1.0870
  339MOL0     H45716   2.417   6.330   3.821 -0.1780 -0.4844  0.5094
  339MOL0     H45717   2.673   6.486   4.061 -0.7442  1.3324 -0.7422
  339MOL0     H45718   2.606   6.331   4.018  2.0337 -0.4900 -1.5270
  339MOL0     H45719   2.801   6.518   3.854 -0.4513  1.0200  2.8891
  339MOL0     H45720   2.849   6.387   3.948 -1.3432 -0.2518  2.2589
  339MOL0     H45721   2.693   6.387   3.676  1.7811 -0.3097 -1.6178
  339MOL0     H45722   2.672   6.252   3.776 -2.4748  1.8126  1.0702
  339MOL0     H45723   2.850   6.206   3.607  1.3503 -0.0359  0.1208
  339MOL0     H45724   2.914   6.201   3.767 -3.6743 -0.0652  2.5627
  339MOL0     H45725   3.044   6.133   3.551 -2.0385  0.8603  0.2522
  339MOL0     H45726   3.272   6.109   3.443 -1.8105 -1.5961  0.3718
  339MOL0     H45727   3.692   6.628   3.340 -2.2565 -1.0560 -0.2767
  339MOL0     H45728   3.944   6.634   3.354  0.5033 -0.9568 -1.5978
  339MOL0     H45729   4.265   6.455   3.308 -0.5355 -2.4208  1.5725
  339MOL0     H45730   4.143   6.559   3.247  0.4920  0.5900 -0.2435
  339MOL0     H45731   4.143   6.709   3.444  2.0357  3.2798  2.0215
  339MOL0     H45732   4.242   6.594   3.541  0.4792 -2.0890 -1.4947
  339MOL0     H45733   4.318   6.745   3.291  3.6626 -0.4154 -0.8236
  339MOL0     H45734   4.345   6.802   3.457 -1.4374 -1.4573  1.6251
  339MOL0     H45735   4.458   6.562   3.298 -1.1218 -0.9182  1.9942
  339MOL0     H45736   4.505   6.594   3.460 -0.7741 -0.8183  0.0036
  339MOL0     H45737   4.596   6.807   3.420  1.0992 -0.3119  0.7096
  339MOL0     H45738   4.548   6.814   3.253  0.4033 -2.2258 -1.8618
  339MOL0     H45739   4.735   6.599   3.357  0.2537  1.1067 -0.2432
  339MOL0     H45740   4.692   6.621   3.187 -1.1064  0.0941 -0.2427
  339MOL0     H45741   4.828   6.816   3.382 -2.8506  1.9317 -0.1681
  339MOL0     H45742   4.780   6.868   3.224 -1.0370  1.3486  4.0318
  339MOL0     H45743   4.971   6.648   3.287  3.1477 -0.7239 -1.4948
  339MOL0     H45744   4.929   6.711   3.117 -3.1521  1.6360  0.6266
  339MOL0     H45745   3.947   6.209   3.418  0.6784 -0.1082 -1.3356
  339MOL0     H45746   3.703   6.200   3.399  2.1304 -1.1792  0.4697
  339MOL0     H45747   3.349   6.526   3.489  1.4537 -0.8875 -1.4960
  339MOL0     H45748   3.125   6.543   3.617 -1.6280 -0.8063  2.0655
  339MOL0     H45749   1.416   6.578   2.960 -1.6192  2.0733  0.1870
  339MOL0     H45750   1.220   6.428   2.904 -1.7892  0.1499  0.7424
  339MOL0     H45751   0.764   6.433   3.253  0.1378  0.6482 -1.9609
  339MOL0     H45752   0.537   6.325   3.256  0.0499  2.2414 -1.9708
  339MOL0     H45753   0.328   6.287   3.141  0.6556  0.2795  0.1427
  339MOL0     H45754   0.361   6.163   3.255 -1.1669  2.5427 -0.0093
  339MOL0     H45755   0.230   6.011   3.094 -1.6314 -0.7873 -1.5660
  339MOL0     H45756   0.173   6.171   3.015 -1.6407 -0.5183  0.2953
  339MOL0     H45757   0.122   6.239   3.239  2.3727  0.3737 -0.9593
  339MOL0     H45758   0.114   6.077   3.307 -3.6138  1.4386  0.9850
  339MOL0     H45759  -0.038   6.010   3.118  0.0353 -1.9079  3.3656
  339MOL0     H45760  -0.113   6.112   3.245 -0.9772 -1.4774 -0.1159
  339MOL0     H45761  -0.162   6.343   2.901  0.5990  0.1147  0.3652
  339MOL0     H45762   0.652   6.070   2.929 -0.3281  0.8132 -0.3165
  339MOL0     H45763   0.865   6.121   2.805  1.0809  0.8989 -0.7568
  339MOL0     H45764   0.966   6.252   2.872  0.7782 -0.3409  0.6335
  339MOL0     H45765   0.961   6.097   2.955 -1.1132  0.5354  1.5990
  340MOL0     O45766   9.184   2.525   0.405  0.0363  0.0914  0.1742
  340MOL0     C45767   9.185   2.647   0.389 -0.3946 -0.4465  0.0126
  340MOL0     O45768   9.298   2.717   0.414  0.8185  0.2464 -0.2299
  340MOL0     C45769   9.393   2.656   0.494  0.3637  0.6881  0.3935
  340MOL0     C45770   9.365   2.644   0.632  0.3536  0.7259 -0.8743
  340MOL0     C45771   9.484   2.620   0.705  0.0023 -0.2157  0.7297
  340MOL0     C45772   9.613   2.596   0.642  1.5570  0.3651 -0.4080
  340MOL0     O45773   9.719   2.566   0.727  0.3807 -0.1317  0.3957
  340MOL0     C45774   9.853   2.563   0.676  0.1051 -0.2143 -1.3737
  340MOL0     C45775   9.932   2.495   0.792  0.5431  0.8694 -0.5952
  340MOL0     C45776  10.081   2.500   0.750  0.5402 -0.2931  0.7356
  340MOL0     C45777  10.153   2.426   0.870  0.9817  0.1803 -0.1807
  340MOL0     C45778  10.294   2.382   0.847 -0.0564 -0.9329  0.3400
  340MOL0     C45779  10.391   2.505   0.859 -1.5614 -0.2947  0.3801
  340MOL0     C45780  10.528   2.454   0.894 -0.5098 -0.0888 -0.3836
  340MOL0     C45781  10.582   2.355   0.792  0.2114 -0.2171  0.7698
  340MOL0     N45782  10.725   2.334   0.804 -0.5119 -0.7273  0.5971
  340MOL0     C45783  10.794   2.308   0.917 -0.0263 -1.2740 -0.3187
  340MOL0     C45784  10.927   2.303   0.895  0.2095  0.0221  0.1959
  340MOL0     C45785  11.041   2.290   0.996 -0.0256 -0.3847  0.3239
  340MOL0     C45786  11.011   2.200   1.110  0.3004 -0.2880  0.1253
  340MOL0     C45787  10.990   2.054   1.068  0.2975  0.5909  0.2166
  340MOL0     C45788  10.960   1.965   1.188  0.0159 -0.0325  0.3487
  340MOL0     O45789  10.858   2.018   1.280 -0.0660  0.3516 -0.5786
  340MOL0     C45790  10.722   2.001   1.265 -0.1415 -0.4508  0.2986
  340MOL0     C45791  10.669   1.909   1.173 -0.4763 -0.8639  0.2377
  340MOL0     C45792  10.532   1.895   1.165  0.6162 -0.0220 -0.0637
  340MOL0     C45793  10.445   1.974   1.249  0.8096  0.6467  0.4046
  340MOL0     C45794  10.294   1.960   1.253 -0.6269  0.4030  0.2754
  340MOL0     O45795  10.243   1.882   1.144 -0.5824 -0.3614 -0.2331
  340MOL0     C45796  10.113   1.909   1.114  0.5489 -0.1734 -0.2271
  340MOL0     C45797  10.017   1.808   1.140  0.1951 -0.2867  0.1183
  340MOL0     C45798   9.882   1.839   1.099 -0.3338 -0.2083 -0.1521
  340MOL0     C45799   9.842   1.959   1.052 -0.6971 -0.3191 -0.0544
  340MOL0     O45800   9.706   1.970   1.028  0.3196 -0.7649  0.2052
  340MOL0     C45801   9.654   2.100   1.003  0.0311  0.3988 -0.3014
  340MOL0     C45802   9.505   2.082   0.998  0.1539  0.2770  0.3671
  340MOL0     C45803   9.444   2.221   0.961  0.7323  0.0678  0.0989
  340MOL0     C45804   9.299   2.211   0.951  0.5245 -0.5658 -0.1319
  340MOL0     C45805   9.245   2.340   0.895 -0.0434 -0.1676 -0.5286
  340MOL0     C45806   9.094   2.361   0.889 -0.1925  0.5399  0.8760
  340MOL0     C45807   9.060   2.479   0.806  0.3689  0.3692 -0.3349
  340MOL0     C45808   8.904   2.500   0.813 -0.3283 -0.2272  0.4768
  340MOL0    Cl45809   8.808   2.391   0.705  0.0430  0.2208 -0.5114
  340MOL0     C45810   9.934   2.060   1.029 -0.4512 -0.4125  0.2306
  340MOL0     C45811  10.074   2.033   1.056  0.0682 -1.8217  0.2785
  340MOL0     O45812  10.229   2.012   1.341  0.1038 -0.5233  0.2374
  340MOL0     C45813  10.504   2.064   1.343  0.6023 -0.3789 -0.3542
  340MOL0     C45814  10.641   2.082   1.347 -0.1627  0.7304  1.0532
  340MOL0     N45815  10.938   2.352   0.767 -0.7645 -0.4270 -0.0138
  340MOL0     N45816  10.824   2.350   0.706 -0.0169  0.8506  0.3849
  340MOL0     C45817   9.623   2.584   0.510 -0.5139  0.1935  0.0668
  340MOL0     C45818   9.516   2.620   0.433  0.0665 -0.4607 -0.6897
  340MOL0     C45819   9.073   2.722   0.346  0.8123 -0.3451  0.4086
  340MOL0     C45820   9.081   2.868   0.347  0.4242 -0.3425 -0.2721
  340MOL0     C45821   8.982   2.938   0.291 -0.1811 -0.6772 -0.0909
  340MOL0     C45822   8.871   2.879   0.225 -0.7914 -1.1004 -0.6168
  340MOL0     O45823   8.772   2.953   0.171  0.4522 -0.6464  0.2933
  340MOL0     C45824   8.803   3.076   0.104  0.0267  0.3795  0.4458
  340MOL0     C45825   8.671   3.129   0.043 -0.3606 -1.1047 -1.0565
  340MOL0     C45826   8.557   3.165   0.139 -0.5466 -0.6323  0.1291
  340MOL0     C45827   8.602   3.275   0.239 -0.2781 -0.0437 -0.3008
  340MOL0     C45828   8.487   3.342   0.313 -0.3729 -0.6660  1.0981
  340MOL0     C45829   8.391   3.404   0.346  0.3301 -0.0223  0.8943
  340MOL0     C45830   8.856   2.744   0.232 -0.3284 -0.1545 -0.0425
  340MOL0     C45831   8.949   2.666   0.300 -0.1046 -0.2149  0.9796
  340MOL0     C45832   8.905   2.524   0.341  0.0378 -0.7247  0.5453
  340MOL0     H45833   9.271   2.651   0.686  1.4698  0.4209  1.1851
  340MOL0     H45834   9.487   2.619   0.814  2.3084 -3.3790  0.7771
  340MOL0     H45835   9.872   2.488   0.598 -0.6090 -0.4214 -1.3584
  340MOL0     H45836   9.879   2.665   0.646 -1.8219  1.6146  2.4520
  340MOL0     H45837   9.904   2.391   0.815  2.4227  0.5919  0.7256
  340MOL0     H45838   9.909   2.546   0.886 -2.7017 -0.6341 -0.4487
  340MOL0     H45839  10.109   2.605   0.758 -0.2610 -0.0803  0.8108
  340MOL0     H45840  10.111   2.457   0.654  0.0760  2.8938 -0.9659
  340MOL0     H45841  10.136   2.497   0.952 -0.5467  1.0504 -1.2011
  340MOL0     H45842  10.103   2.334   0.903  1.3676  0.2461  0.6248
  340MOL0     H45843  10.321   2.309   0.924 -0.1843 -0.2568  1.0354
  340MOL0     H45844  10.288   2.336   0.748 -1.7445  0.1225 -0.0754
  340MOL0     H45845  10.397   2.568   0.769 -0.3898 -0.0590  0.6035
  340MOL0     H45846  10.363   2.578   0.936  0.2322  0.1579  0.6381
  340MOL0     H45847  10.544   2.410   0.993  0.4503  2.0792  0.5032
  340MOL0     H45848  10.583   2.549   0.892 -1.8754  0.7122 -1.0160
  340MOL0     H45849  10.524   2.263   0.801 -1.1156  0.5345  0.1275
  340MOL0     H45850  10.567   2.392   0.690  2.6057  0.2193  0.4990
  340MOL0     H45851  10.743   2.300   1.012 -0.7491  1.4452 -0.3908
  340MOL0     H45852  11.131   2.251   0.948  1.5050  3.1041  0.1074
  340MOL0     H45853  11.074   2.387   1.033  1.8241 -1.1656  0.8566
  340MOL0     H45854  11.102   2.205   1.171 -0.1779  0.3342  0.8057
  340MOL0     H45855  10.925   2.246   1.160 -0.3068 -2.0324  0.7605
  340MOL0     H45856  11.080   2.014   1.019  0.0789  0.1663  0.1589
  340MOL0     H45857  10.907   2.042   0.998 -1.7884  1.0335  2.5054
  340MOL0     H45858  11.048   1.959   1.253  1.1865  0.7398 -1.1191
  340MOL0     H45859  10.937   1.863   1.155 -2.1158  1.1760 -2.3063
  340MOL0     H45860  10.736   1.859   1.105 -0.1232 -2.6805  1.8167
  340MOL0     H45861  10.487   1.820   1.102 -1.0115 -1.2181  2.3732
  340MOL0     H45862  10.048   1.716   1.189 -0.5025 -0.7564 -0.3108
  340MOL0     H45863   9.799   1.768   1.106 -0.4317 -0.0401  0.4647
  340MOL0     H45864   9.681   2.162   1.089  0.7282 -2.2745  1.5276
  340MOL0     H45865   9.689   2.145   0.910  0.2366 -2.2203 -1.5701
  340MOL0     H45866   9.482   2.010   0.919  2.0654 -0.9402  0.8389
  340MOL0     H45867   9.465   2.036   1.089  0.1288  0.2193  0.3274
  340MOL0     H45868   9.480   2.296   1.032  3.4884 -0.4675 -0.6224
  340MOL0     H45869   9.486   2.244   0.863 -0.3723 -2.9681 -1.1973
  340MOL0     H45870   9.250   2.188   1.046 -0.5200  1.7192 -0.0512
  340MOL0     H45871   9.272   2.131   0.882 -0.6771 -1.0394  0.8293
  340MOL0     H45872   9.272   2.345   0.789 -2.3926 -1.2614 -1.2417
  340MOL0     H45873   9.295   2.414   0.958  0.2094 -1.6440  1.0890
  340MOL0     H45874   9.039   2.277   0.847  0.0731 -0.1596  1.8727
  340MOL0     H45875   9.060   2.375   0.992 -0.7426  2.2266  0.5010
  340MOL0     H45876   9.102   2.468   0.706 -0.7308 -0.9702 -0.6921
  340MOL0     H45877   9.099   2.569   0.855 -0.0998 -0.2152  1.1959
  340MOL0     H45878   8.872   2.488   0.917  1.9876  1.5249  1.4843
  340MOL0     H45879   8.881   2.604   0.791  2.1569  0.5310  1.0882
  340MOL0     H45880   9.897   2.152   0.985 -4.2041 -1.4605  0.8885
  340MOL0     H45881  10.151   2.107   1.038 -1.5262  0.0100  0.6231
  340MOL0     H45882  10.444   2.122   1.412 -1.2077 -1.5670 -0.8760
  340MOL0     H45883  10.690   2.147   1.420  0.9488 -1.7839  2.6688
  340MOL0     H45884   9.717   2.551   0.468 -0.2572 -3.7677  3.2579
  340MOL0     H45885   9.539   2.616   0.327 -2.3874 -1.0436 -1.2613
  340MOL0     H45886   9.172   2.926   0.358 -0.8044  1.7569 -0.5278
  340MOL0     H45887   9.001   3.044   0.307  2.4128 -0.9221 -1.1248
  340MOL0     H45888   8.884   3.063   0.032  1.6940 -5.2680  2.7491
  340MOL0     H45889   8.844   3.145   0.178  3.3704 -0.6481 -0.2980
  340MOL0     H45890   8.636   3.051  -0.025  0.7173 -0.7085 -2.1027
  340MOL0     H45891   8.695   3.223  -0.008 -2.6837 -1.1463 -2.3286
  340MOL0     H45892   8.527   3.080   0.200 -0.9717  0.4847  1.5304
  340MOL0     H45893   8.475   3.209   0.080 -0.2823  2.0552  1.6099
  340MOL0     H45894   8.658   3.223   0.317 -0.9521 -0.1506  0.1142
  340MOL0     H45895   8.669   3.350   0.196 -0.7438 -0.9446 -2.7760
  340MOL0     H45896   8.297   3.455   0.351 -0.5103 -1.4524  0.5121
  340MOL0     H45897   8.758   2.706   0.203 -0.6887  1.0092 -0.4008
  340MOL0     H45898   8.931   2.522   0.447 -1.2146 -1.0727  0.8624
  340MOL0     H45899   8.796   2.516   0.331 -0.1549  2.7125 -1.4162
  340MOL0     H45900   8.952   2.443   0.284 -0.0966  0.3350 -1.1442
  341MOL0     O45901   3.722   9.089  10.697  0.1776  0.8297 -0.4762
  341MOL0     C45902   3.721   9.131  10.582  0.3713  0.4701 -0.4107
  341MOL0     O45903   3.834   9.159  10.510 -0.3536 -0.1744 -0.4484
  341MOL0     C45904   3.958   9.128  10.575  0.1435 -1.3824  1.0342
  341MOL0     C45905   4.021   8.997  10.584  0.7666 -0.4096 -0.3172
  341MOL0     C45906   4.141   8.985  10.650  0.0144  0.1822  0.1903
  341MOL0     C45907   4.209   9.093  10.707  0.9982 -0.0778 -0.2888
  341MOL0     O45908   4.339   9.071  10.733 -0.8862 -0.1197  0.5697
  341MOL0     C45909   4.419   9.182  10.779 -0.1935 -0.0615 -0.8018
  341MOL0     C45910   4.552   9.129  10.834  0.1806  0.2357  0.1535
  341MOL0     C45911   4.627   9.256  10.889 -0.2867 -0.4821 -0.9705
  341MOL0     C45912   4.767   9.217  10.931 -0.4134  0.2181 -0.0801
  341MOL0     C45913   4.854   9.338  10.970  0.1406  0.4898  0.4979
  341MOL0     C45914   4.927   9.415  10.855 -0.3959  0.2356  0.0960
  341MOL0     C45915   4.974   9.553  10.902  0.0929  0.1485 -0.5187
  341MOL0     C45916   5.069   9.620  10.803 -0.9082 -0.1494  0.5463
  341MOL0     N45917   5.209   9.587  10.829 -0.5892  0.1536  0.0975
  341MOL0     C45918   5.274   9.469  10.802 -0.5659  0.9507 -0.2915
  341MOL0     C45919   5.398   9.493  10.847  0.2981 -0.8508 -0.2865
  341MOL0     C45920   5.509   9.390  10.849  0.1696 -0.7575 -0.1829
  341MOL0     C45921   5.573   9.396  10.712  0.1593  0.4667  0.0806
  341MOL0     C45922   5.650   9.534  10.691  0.3360 -0.5332  0.9139
  341MOL0     C45923   5.764   9.522  10.588  0.1189 -0.2402  0.3932
  341MOL0     O45924   5.880   9.442  10.633  0.4949 -0.4131  0.6888
  341MOL0     C45925   6.005   9.460  10.576 -0.1408  0.2328 -0.5353
  341MOL0     C45926   6.059   9.587  10.574  1.1649 -0.6057  0.4209
  341MOL0     C45927   6.184   9.615  10.519 -0.1062  0.4683  0.2543
  341MOL0     C45928   6.262   9.503  10.481 -0.2466  0.2274 -0.3380
  341MOL0     C45929   6.403   9.525  10.420  0.2492  0.3321 -0.1312
  341MOL0     O45930   6.461   9.646  10.412  0.3504 -0.0923 -0.2592
  341MOL0     C45931   6.586   9.685  10.371 -0.3419  0.7689 -0.6070
  341MOL0     C45932   6.601   9.820  10.365  0.4277 -0.3368  0.2392
  341MOL0     C45933   6.738   9.865  10.342  0.6459 -0.4693 -0.3642
  341MOL0     C45934   6.842   9.784  10.319  0.5831 -0.4073 -0.6771
  341MOL0     O45935   6.975   9.817  10.299  0.0084 -0.5547 -0.8566
  341MOL0     C45936   7.011   9.956  10.300 -0.4705  0.6767 -0.0160
  341MOL0     C45937   7.161   9.965  10.292 -0.1018 -0.1159 -0.6984
  341MOL0     C45938   7.197  10.107  10.336  0.0446 -0.4161  0.2085
  341MOL0     C45939   7.348  10.122  10.333 -0.1210 -0.1924  0.4869
  341MOL0     C45940   7.385  10.268  10.344 -0.5334 -0.7983 -0.7425
  341MOL0     C45941   7.533  10.268  10.391 -0.4636  0.4593  0.7935
  341MOL0     C45942   7.588  10.411  10.368  0.3209  0.2174 -0.3750
  341MOL0     C45943   7.741  10.428  10.403  0.8609  0.2531 -0.1834
  341MOL0    Cl45944   7.781  10.387  10.573  0.4584  0.0868  0.0935
  341MOL0     C45945   6.820   9.645  10.323  0.7937 -0.4256 -0.2084
  341MOL0     C45946   6.688   9.595  10.355 -0.7508  0.1175 -0.3425
  341MOL0     O45947   6.445   9.429  10.365  0.1624  0.0107  0.0104
  341MOL0     C45948   6.213   9.373  10.491  0.6317  1.1124  0.0504
  341MOL0     C45949   6.080   9.350  10.534  0.1168  0.2275 -0.0544
  341MOL0     N45950   5.403   9.616  10.911 -0.2451  0.4744 -0.3878
  341MOL0     N45951   5.293   9.671  10.890  0.0947  0.2848  0.5152
  341MOL0     C45952   4.147   9.218  10.698  0.0939  0.3050 -1.0164
  341MOL0     C45953   4.022   9.237  10.637  0.6289  0.4975 -0.0436
  341MOL0     C45954   3.592   9.148  10.518 -0.5586  1.0580 -0.2233
  341MOL0     C45955   3.585   9.205  10.390  0.1344 -0.1287 -0.3412
  341MOL0     C45956   3.461   9.223  10.325 -0.4503  0.3473 -0.1518
  341MOL0     C45957   3.337   9.196  10.391 -0.1793  0.1346  0.1225
  341MOL0     O45958   3.207   9.203  10.339 -0.0426 -0.1923  0.3414
  341MOL0     C45959   3.194   9.296  10.231 -0.5672  0.0110 -0.0120
  341MOL0     C45960   3.200   9.444  10.290 -0.8309 -0.2496  0.5320
  341MOL0     C45961   3.093   9.477  10.387  0.1409 -0.1076 -0.5461
  341MOL0     C45962   3.120   9.618  10.455  0.4371 -0.0843  0.2091
  341MOL0     C45963   3.117   9.722  10.347 -0.6991 -0.2091 -0.4384
  341MOL0     C45964   3.143   9.802  10.257 -0.5930  0.8017 -0.4391
  341MOL0     C45965   3.344   9.130  10.510  0.0484 -1.4642 -0.4079
  341MOL0     C45966   3.468   9.109  10.581 -0.6590  0.4402  0.0924
  341MOL0     C45967   3.447   9.029  10.715  0.0132  0.9990  0.3245
  341MOL0     H45968   3.983   8.910  10.533  0.9478 -0.9328  0.4352
  341MOL0     H45969   4.196   8.893  10.662  3.3979  2.1017  0.8982
  341MOL0     H45970   4.438   9.261  10.705 -2.6774 -0.4572 -1.9721
  341MOL0     H45971   4.365   9.226  10.864  1.7090  2.3155 -0.6896
  341MOL0     H45972   4.612   9.080  10.758  2.0017  0.9324  1.0924
  341MOL0     H45973   4.537   9.062  10.919 -1.5997  2.8789  2.1094
  341MOL0     H45974   4.588   9.310  10.976  2.3291 -0.6470  0.3988
  341MOL0     H45975   4.641   9.329  10.808 -1.9242 -0.2878 -1.1247
  341MOL0     H45976   4.757   9.152  11.018 -1.9979 -0.3508 -0.6692
  341MOL0     H45977   4.821   9.157  10.857  1.6179 -2.5207  3.3256
  341MOL0     H45978   4.792   9.409  11.025  0.7338  0.1136  1.6793
  341MOL0     H45979   4.931   9.301  11.038  0.3508  0.9629  0.5217
  341MOL0     H45980   5.013   9.356  10.820  0.4225  0.7289  1.1937
  341MOL0     H45981   4.855   9.419  10.773 -0.3486 -0.3274  0.0260
  341MOL0     H45982   5.020   9.540  11.000 -1.1635 -0.5010  0.0090
  341MOL0     H45983   4.895   9.623  10.931  0.8126  1.4104 -1.5188
  341MOL0     H45984   5.050   9.597  10.698 -0.6665  2.7188 -0.1909
  341MOL0     H45985   5.056   9.728  10.805 -0.3049 -0.0035 -1.4865
  341MOL0     H45986   5.236   9.378  10.757 -1.1785  2.7887 -3.8901
  341MOL0     H45987   5.581   9.419  10.926 -1.5544  2.2734  0.4396
  341MOL0     H45988   5.461   9.295  10.877 -0.0458 -0.6092 -0.0416
  341MOL0     H45989   5.633   9.306  10.701 -1.4089 -0.5945 -0.1575
  341MOL0     H45990   5.495   9.374  10.638 -0.0599 -2.4830  1.0426
  341MOL0     H45991   5.692   9.568  10.786 -2.0364  0.4979  1.6528
  341MOL0     H45992   5.590   9.618  10.658 -1.2500 -1.1668  2.0382
  341MOL0     H45993   5.801   9.622  10.562 -0.0253 -0.2695  0.0693
  341MOL0     H45994   5.730   9.478  10.493 -0.0819  1.1052 -0.1787
  341MOL0     H45995   5.999   9.670  10.608  1.3835  0.0503 -0.7739
  341MOL0     H45996   6.218   9.716  10.497  0.2514  0.0714 -1.0964
  341MOL0     H45997   6.512   9.879  10.385 -3.2826 -4.2552 -2.7107
  341MOL0     H45998   6.751   9.972  10.349 -3.3724  0.1328  0.1739
  341MOL0     H45999   6.965  10.005  10.214 -0.6038 -0.6315 -0.7250
  341MOL0     H46000   6.980   9.998  10.395 -0.9677  1.3522 -0.4690
  341MOL0     H46001   7.201   9.892  10.364  0.4250  0.9344  0.0911
  341MOL0     H46002   7.192   9.946  10.189  2.3253 -1.3968  0.1824
  341MOL0     H46003   7.160  10.178  10.261  2.3720  1.4313  0.6834
  341MOL0     H46004   7.163  10.149  10.431 -1.0704 -0.7836 -0.0222
  341MOL0     H46005   7.390  10.090  10.237 -1.8745  1.1492 -0.8107
  341MOL0     H46006   7.393  10.060  10.411 -0.8668 -0.6304  0.5802
  341MOL0     H46007   7.325  10.321  10.418 -0.4706 -0.7515 -0.7242
  341MOL0     H46008   7.363  10.315  10.248  0.7353  2.0922  0.2648
  341MOL0     H46009   7.530  10.237  10.496 -1.0225 -1.0853  0.3482
  341MOL0     H46010   7.593  10.198  10.332 -2.0036  0.5491 -0.9900
  341MOL0     H46011   7.528  10.478  10.430  0.4020 -2.1819  2.4926
  341MOL0     H46012   7.566  10.428  10.262  0.4607  0.0870 -0.4247
  341MOL0     H46013   7.798  10.366  10.334  5.4572  2.1725  1.4846
  341MOL0     H46014   7.769  10.532  10.385 -1.0123  0.7910 -0.1883
  341MOL0     H46015   6.908   9.583  10.308 -0.7119 -2.1225 -2.9053
  341MOL0     H46016   6.675   9.487  10.353  1.9729 -0.2642 -2.7806
  341MOL0     H46017   6.271   9.286  10.465  0.0519  0.4884  0.7828
  341MOL0     H46018   6.040   9.249  10.538  0.2100  0.1720 -0.4411
  341MOL0     H46019   4.189   9.303  10.751 -3.0913 -0.3990  3.1569
  341MOL0     H46020   3.977   9.335  10.624 -1.0230 -0.1890  0.2277
  341MOL0     H46021   3.670   9.244  10.335 -0.1758  1.5458  0.3160
  341MOL0     H46022   3.453   9.248  10.220 -0.9690 -1.0558 -0.4744
  341MOL0     H46023   3.095   9.288  10.185 -0.9669  1.1406  0.5927
  341MOL0     H46024   3.276   9.290  10.160  1.4000  2.4694  1.8455
  341MOL0     H46025   3.176   9.510  10.206 -0.1845  2.0416  2.0642
  341MOL0     H46026   3.296   9.466  10.336 -0.3782 -0.6071 -0.2170
  341MOL0     H46027   3.100   9.397  10.462  0.7542  1.0308  0.6531
  341MOL0     H46028   2.997   9.468  10.336 -0.0612  3.1721 -0.9524
  341MOL0     H46029   3.038   9.629  10.525 -2.7613  1.1989 -3.3665
  341MOL0     H46030   3.215   9.615  10.509  0.1376 -0.5581  0.7105
  341MOL0     H46031   3.170   9.875  10.184  0.7501 -0.4545 -1.2602
  341MOL0     H46032   3.249   9.101  10.554  0.5787 -1.9244  0.4567
  341MOL0     H46033   3.451   9.093  10.803  1.5049 -0.9858  1.7834
  341MOL0     H46034   3.346   8.988  10.708  0.4657  0.0599 -1.4737
  341MOL0     H46035   3.519   8.950  10.739  0.7987  1.4021 -0.6538
  342MOL0     O46036   6.685   4.436   5.151 -0.0009 -0.0689 -0.1471
  342MOL0     C46037   6.654   4.534   5.226  0.3080 -0.6120  0.4984
  342MOL0     O46038   6.747   4.607   5.277  0.1142 -0.1435 -0.3023
  342MOL0     C46039   6.882   4.585   5.276 -1.1050 -0.7136 -0.5579
  342MOL0     C46040   6.945   4.469   5.223  0.0038  0.3894  0.5592
  342MOL0     C46041   7.091   4.466   5.211  0.6555  0.0405 -0.0338
  342MOL0     C46042   7.170   4.580   5.262 -0.1154  0.0406  0.0664
  342MOL0     O46043   7.308   4.591   5.266 -0.3627  0.3843 -0.0583
  342MOL0     C46044   7.389   4.521   5.167 -0.2212  0.3039  0.0879
  342MOL0     C46045   7.493   4.619   5.103  0.2942 -0.3496  0.1704
  342MOL0     C46046   7.594   4.563   5.007 -0.1219  0.0495  0.1597
  342MOL0     C46047   7.686   4.668   4.948  1.0195  0.0425  0.3605
  342MOL0     C46048   7.766   4.610   4.830 -0.6404 -0.6721  0.5093
  342MOL0     C46049   7.907   4.556   4.867 -0.1504  0.0223 -0.6288
  342MOL0     C46050   7.981   4.490   4.746 -0.1684  0.0952 -0.4986
  342MOL0     C46051   8.129   4.498   4.728 -0.3404  0.3372  0.4207
  342MOL0     N46052   8.205   4.408   4.822  0.3960  0.2693  0.0459
  342MOL0     C46053   8.196   4.406   4.960  0.6544 -0.3653 -0.1467
  342MOL0     C46054   8.284   4.308   5.004 -0.1494 -0.0301  0.3832
  342MOL0     C46055   8.309   4.264   5.143 -0.5136  0.5518  0.1856
  342MOL0     C46056   8.281   4.119   5.176 -0.1197 -0.2812 -0.5063
  342MOL0     C46057   8.134   4.064   5.163  0.4091 -0.0573 -0.6530
  342MOL0     C46058   8.136   3.919   5.160 -0.0825  0.6478  0.5029
  342MOL0     O46059   8.168   3.864   5.298  0.2749 -0.6910  0.1553
  342MOL0     C46060   8.155   3.729   5.317  0.6205  0.5240 -0.0411
  342MOL0     C46061   8.190   3.688   5.442 -0.0886  0.1262 -0.3132
  342MOL0     C46062   8.198   3.550   5.478  0.2853  0.2525  0.7739
  342MOL0     C46063   8.135   3.455   5.387 -0.3566 -0.8323  0.5022
  342MOL0     C46064   8.112   3.314   5.435  0.4499  0.0530 -0.2370
  342MOL0     O46065   8.121   3.205   5.350 -0.4304 -0.2514  0.6809
  342MOL0     C46066   8.139   3.082   5.407 -0.4503 -0.4616  0.1055
  342MOL0     C46067   8.041   3.028   5.489  0.5836  0.0267 -0.0070
  342MOL0     C46068   8.054   2.900   5.547 -0.0665 -0.2238 -0.2283
  342MOL0     C46069   8.176   2.831   5.530 -0.1591  0.8238  0.8316
  342MOL0     O46070   8.186   2.713   5.592  0.4575  0.1941  0.3080
  342MOL0     C46071   8.284   2.621   5.553  0.0412 -0.1916 -0.2935
  342MOL0     C46072   8.269   2.496   5.635  0.1843 -0.2938 -0.2927
  342MOL0     C46073   8.348   2.374   5.583 -0.1124  1.0892 -0.4166
  342MOL0     C46074   8.410   2.280   5.694  0.8054 -0.3043  0.0504
  342MOL0     C46075   8.509   2.174   5.635 -0.7634 -0.3066  0.2128
  342MOL0     C46076   8.559   2.084   5.751  0.5088 -0.4144 -0.1228
  342MOL0     C46077   8.641   1.969   5.701  0.4190 -0.0202  0.4726
  342MOL0     C46078   8.680   1.880   5.815 -0.9592  0.2866  0.2524
  342MOL0    Cl46079   8.741   1.734   5.735  0.0130 -0.2357 -0.3069
  342MOL0     C46080   8.276   2.886   5.443  0.0877  0.4246  0.9132
  342MOL0     C46081   8.251   3.008   5.378 -0.0803  0.4969 -0.3463
  342MOL0     O46082   8.079   3.312   5.554 -0.0900 -0.0884 -0.3688
  342MOL0     C46083   8.093   3.497   5.261  0.2023  0.1643 -0.6137
  342MOL0     C46084   8.099   3.628   5.226 -0.3357 -0.5538 -0.5247
  342MOL0     N46085   8.336   4.247   4.897 -0.1639  0.2985  0.0053
  342MOL0     N46086   8.306   4.314   4.789 -0.3433  0.1006 -0.4330
  342MOL0     C46087   7.099   4.689   5.316 -0.5208  0.2968  1.1732
  342MOL0     C46088   6.955   4.692   5.328 -0.2907  0.4771  0.2467
  342MOL0     C46089   6.508   4.555   5.256  0.2720 -0.5512  0.0989
  342MOL0     C46090   6.402   4.475   5.210 -0.1460  0.1428  0.3763
  342MOL0     C46091   6.266   4.503   5.228  0.0817 -0.4255 -0.0179
  342MOL0     C46092   6.229   4.624   5.290  0.8311  0.5405 -0.4556
  342MOL0     O46093   6.097   4.649   5.320  0.7610  0.4227  0.5415
  342MOL0     C46094   5.995   4.546   5.271  0.1029 -0.7758  0.5430
  342MOL0     C46095   5.857   4.597   5.297  0.3555 -0.2445  0.6377
  342MOL0     C46096   5.839   4.658   5.435  0.4987  0.3589  0.6716
  342MOL0     C46097   5.690   4.661   5.471 -0.1303  0.4117  0.1219
  342MOL0     C46098   5.598   4.711   5.373  0.0928 -0.3928  0.2970
  342MOL0     C46099   5.527   4.755   5.280 -0.3928 -0.6595 -0.2542
  342MOL0     C46100   6.330   4.711   5.335 -0.3013 -0.8696  0.4518
  342MOL0     C46101   6.471   4.673   5.325  0.1793  0.0478  0.1217
  342MOL0     C46102   6.568   4.770   5.390  0.7076 -0.6508 -1.8094
  342MOL0     H46103   6.891   4.380   5.192 -2.6705  0.9164  3.2009
  342MOL0     H46104   7.146   4.383   5.167  0.5830  0.0722 -0.1859
  342MOL0     H46105   7.446   4.442   5.219 -0.5243  1.2392  1.9444
  342MOL0     H46106   7.335   4.473   5.085 -0.4411  0.7564 -0.0317
  342MOL0     H46107   7.547   4.662   5.188  0.0740  0.6748 -0.1899
  342MOL0     H46108   7.433   4.699   5.058 -0.4242  1.4412  3.8657
  342MOL0     H46109   7.539   4.522   4.921 -2.9347  3.0608  0.3162
  342MOL0     H46110   7.652   4.484   5.055  1.2496  0.8734 -0.0979
  342MOL0     H46111   7.620   4.745   4.907  0.7653 -0.8885 -1.0310
  342MOL0     H46112   7.752   4.719   5.019 -1.0991  2.4340  0.7725
  342MOL0     H46113   7.711   4.528   4.783 -2.2410  2.5233 -3.8856
  342MOL0     H46114   7.778   4.697   4.765 -0.8079 -0.1529  1.1662
  342MOL0     H46115   7.968   4.636   4.910 -0.2669 -1.1488  1.8626
  342MOL0     H46116   7.903   4.480   4.945  2.8221  0.7993  0.3885
  342MOL0     H46117   7.946   4.553   4.665 -1.9062  2.3811  1.8619
  342MOL0     H46118   7.947   4.387   4.733 -1.1979  0.1665  1.3445
  342MOL0     H46119   8.159   4.469   4.627  2.6766  2.5187  0.5709
  342MOL0     H46120   8.159   4.602   4.743  3.7139 -0.1990 -2.3115
  342MOL0     H46121   8.138   4.471   5.025  1.7753  0.0979  0.4176
  342MOL0     H46122   8.408   4.300   5.173 -0.3001  0.0780  0.0518
  342MOL0     H46123   8.236   4.320   5.203 -0.8453  0.6728 -0.3318
  342MOL0     H46124   8.348   4.070   5.105  3.0109  3.2111 -0.2420
  342MOL0     H46125   8.321   4.089   5.273 -3.7019  1.8815  1.8632
  342MOL0     H46126   8.089   4.116   5.078  0.9567  0.4924 -0.6138
  342MOL0     H46127   8.087   4.102   5.255  3.0592  1.1961  0.3007
  342MOL0     H46128   8.207   3.889   5.083  1.5695 -1.5840  2.7399
  342MOL0     H46129   8.040   3.875   5.132  0.3997 -1.1937  1.5696
  342MOL0     H46130   8.226   3.765   5.509  0.5385 -0.3147 -0.1339
  342MOL0     H46131   8.243   3.519   5.572  2.0625 -1.1467 -0.4811
  342MOL0     H46132   7.951   3.088   5.501  2.4050  2.8874  0.3300
  342MOL0     H46133   7.970   2.865   5.606  0.5201  2.6965  2.5939
  342MOL0     H46134   8.280   2.598   5.446  0.4735 -0.5835 -0.2267
  342MOL0     H46135   8.379   2.671   5.576 -0.6175  1.9897 -1.8796
  342MOL0     H46136   8.297   2.525   5.736 -1.8949  2.0197 -0.3007
  342MOL0     H46137   8.164   2.471   5.653 -0.1700  3.1385  4.1837
  342MOL0     H46138   8.283   2.315   5.517  0.5266  0.6833 -0.6984
  342MOL0     H46139   8.440   2.406   5.533  0.5486 -1.0113 -0.6786
  342MOL0     H46140   8.325   2.232   5.742  0.0587  0.8884 -0.0339
  342MOL0     H46141   8.475   2.338   5.761 -0.5408 -0.5214  1.5925
  342MOL0     H46142   8.594   2.229   5.594 -0.3483 -0.3211  1.0287
  342MOL0     H46143   8.460   2.111   5.560 -0.6157  0.1502 -0.2729
  342MOL0     H46144   8.612   2.145   5.826  1.7731 -0.5531 -0.8717
  342MOL0     H46145   8.469   2.045   5.798  0.1049  0.7379  0.0942
  342MOL0     H46146   8.730   1.996   5.644 -0.5491 -1.1745 -1.7419
  342MOL0     H46147   8.568   1.923   5.633  0.7377  1.2668 -0.8050
  342MOL0     H46148   8.764   1.919   5.874  0.3302 -1.4559 -0.3309
  342MOL0     H46149   8.602   1.854   5.887 -0.0643 -2.4396  0.3438
  342MOL0     H46150   8.370   2.835   5.422  0.9408  1.4729  2.0667
  342MOL0     H46151   8.320   3.056   5.310  0.9163 -1.5430 -0.8642
  342MOL0     H46152   8.044   3.421   5.202  1.2229 -0.3023 -0.8765
  342MOL0     H46153   8.068   3.655   5.126 -0.3038  0.5911 -0.2412
  342MOL0     H46154   7.157   4.776   5.343  3.4117 -0.4836 -3.4561
  342MOL0     H46155   6.901   4.772   5.378  2.0189  1.4151  1.3610
  342MOL0     H46156   6.439   4.387   5.158 -0.9780 -0.1440  0.2545
  342MOL0     H46157   6.203   4.422   5.193  1.0946 -0.6203 -1.5232
  342MOL0     H46158   6.010   4.446   5.314  0.3205 -0.2816  1.6703
  342MOL0     H46159   6.011   4.531   5.164 -1.7495  2.2498 -0.2740
  342MOL0     H46160   5.782   4.519   5.280 -1.4566  1.6990 -0.9041
  342MOL0     H46161   5.841   4.673   5.219 -2.6880 -0.6329  0.7777
  342MOL0     H46162   5.887   4.756   5.437 -0.0534  0.6213  1.9255
  342MOL0     H46163   5.894   4.603   5.511 -2.6818 -0.3124  2.6708
  342MOL0     H46164   5.655   4.560   5.497  0.2479  0.0439 -0.7683
  342MOL0     H46165   5.684   4.727   5.558 -1.5442 -1.8578  1.8938
  342MOL0     H46166   5.466   4.797   5.203  0.1667 -1.8620 -1.3851
  342MOL0     H46167   6.305   4.796   5.397  0.3139 -0.3692  0.0325
  342MOL0     H46168   6.514   4.853   5.435  0.6787 -1.8299  0.4412
  342MOL0     H46169   6.624   4.715   5.466  1.2617  1.8939 -0.2872
  342MOL0     H46170   6.643   4.808   5.319  0.5810  0.4768 -1.3447
  343MOL0     O46171   9.399   0.658   1.081 -0.5102 -0.5390  0.5391
  343MOL0     C46172   9.422   0.741   1.171  0.4525  0.4240 -0.2152
  343MOL0     O46173   9.542   0.794   1.197 -0.7816 -0.3085 -0.0164
  343MOL0     C46174   9.664   0.746   1.138 -0.3290 -0.6054 -0.1013
  343MOL0     C46175   9.683   0.755   0.997  0.4217  0.6085 -0.7246
  343MOL0     C46176   9.805   0.718   0.944 -0.7535  0.2248 -0.0054
  343MOL0     C46177   9.916   0.672   1.024  0.0184 -0.4333 -0.2441
  343MOL0     O46178  10.028   0.631   0.958 -0.3760  0.5843 -0.3977
  343MOL0     C46179  10.151   0.637   1.040 -0.5095  0.0552 -0.1940
  343MOL0     C46180  10.276   0.624   0.953 -0.4525 -0.5374 -0.6182
  343MOL0     C46181  10.399   0.595   1.036 -0.0740  0.0211  0.6416
  343MOL0     C46182  10.522   0.572   0.946 -0.5539  0.0238 -1.0347
  343MOL0     C46183  10.654   0.569   1.021 -0.3358  0.0191  0.1177
  343MOL0     C46184  10.775   0.532   0.933  0.0193  1.2196 -1.0362
  343MOL0     C46185  10.894   0.518   1.012 -0.4525  0.2822 -0.1785
  343MOL0     C46186  10.935   0.646   1.085  0.1447  0.0176 -0.3634
  343MOL0     N46187  11.075   0.656   1.113  0.2078  0.6454  0.0790
  343MOL0     C46188  11.177   0.675   1.026 -0.1341 -0.4105 -0.0012
  343MOL0     C46189  11.291   0.667   1.106  0.5282 -0.1585 -0.8113
  343MOL0     C46190  11.429   0.683   1.065 -0.4831  0.3965  0.0835
  343MOL0     C46191  11.522   0.658   1.182  0.0830  0.0367 -0.6383
  343MOL0     C46192  11.666   0.639   1.146  0.2152  0.0479  0.5181
  343MOL0     C46193  11.757   0.656   1.270  0.0767 -0.2649 -0.1417
  343MOL0     O46194  11.896   0.675   1.233  0.8003  0.1394 -0.7617
  343MOL0     C46195  11.979   0.692   1.340 -0.8134 -0.4236 -0.1063
  343MOL0     C46196  11.956   0.667   1.476  0.2640  0.2312  1.1484
  343MOL0     C46197  12.048   0.709   1.571 -0.2507 -0.0772  0.4369
  343MOL0     C46198  12.180   0.752   1.538 -0.2416  0.0428 -0.0015
  343MOL0     C46199  12.287   0.801   1.638 -0.3040 -0.4132  0.2782
  343MOL0     O46200  12.240   0.792   1.769 -0.7633  0.8783 -0.8676
  343MOL0     C46201  12.318   0.824   1.877 -0.1912  0.2931  0.3640
  343MOL0     C46202  12.430   0.915   1.884  0.2359  0.6235 -0.1553
  343MOL0     C46203  12.509   0.937   1.995 -0.8917  0.4615  0.5490
  343MOL0     C46204  12.497   0.845   2.099  0.5061  0.4378  0.1359
  343MOL0     O46205  12.575   0.835   2.212  0.2955  0.1407 -0.3451
  343MOL0     C46206  12.702   0.905   2.213  0.1195  0.2217  1.0370
  343MOL0     C46207  12.778   0.866   2.341 -0.1142 -0.2210  0.8764
  343MOL0     C46208  12.900   0.944   2.359 -0.3961  0.3535  0.1054
  343MOL0     C46209  12.978   0.891   2.478 -0.0445 -0.2385 -0.5931
  343MOL0     C46210  13.113   0.948   2.486 -0.1595  0.0245  0.3174
  343MOL0     C46211  13.181   0.935   2.627 -0.3635 -0.0136  0.5008
  343MOL0     C46212  13.216   0.796   2.665 -0.6450  0.2806  0.4896
  343MOL0     C46213  13.334   0.732   2.582  0.0730  0.1543 -0.0967
  343MOL0    Cl46214  13.454   0.841   2.526 -0.3869  0.2720  0.1305
  343MOL0     C46215  12.397   0.748   2.089  0.1943 -0.2377  0.0630
  343MOL0     C46216  12.303   0.742   1.988  0.1369 -0.2847 -0.1296
  343MOL0     O46217  12.400   0.847   1.608  0.1117 -0.0094  0.6246
  343MOL0     C46218  12.208   0.750   1.398 -0.7324 -0.2288  0.5184
  343MOL0     C46219  12.112   0.720   1.303  0.2005 -0.0359 -0.2565
  343MOL0     N46220  11.246   0.635   1.234 -0.5315  0.3930  0.2551
  343MOL0     N46221  11.120   0.620   1.234 -0.2754  0.7666  0.7633
  343MOL0     C46222   9.891   0.680   1.162  0.1528  0.4347 -0.3928
  343MOL0     C46223   9.775   0.719   1.221  0.0213  0.0298 -0.4322
  343MOL0     C46224   9.304   0.799   1.234 -0.1041  0.1004 -0.1602
  343MOL0     C46225   9.245   0.744   1.351 -0.3791 -0.0805  0.2978
  343MOL0     C46226   9.130   0.802   1.401  0.6019  1.0545  0.0173
  343MOL0     C46227   9.080   0.918   1.338 -0.1777  0.7123 -0.0855
  343MOL0     O46228   8.980   0.981   1.391  0.1574 -0.6752 -0.2363
  343MOL0     C46229   8.851   0.925   1.353 -0.7126 -0.0089  0.5645
  343MOL0     C46230   8.732   0.974   1.424 -0.0502 -0.2096  0.4525
  343MOL0     C46231   8.730   0.928   1.570 -0.2162 -0.8414 -0.0967
  343MOL0     C46232   8.672   0.796   1.603  0.1575  0.3963  0.6102
  343MOL0     C46233   8.527   0.796   1.604  0.0908 -0.7140  0.2306
  343MOL0     C46234   8.408   0.817   1.618 -0.6005 -0.3179  0.5033
  343MOL0     C46235   9.136   0.977   1.222  0.5699  0.6223 -0.4892
  343MOL0     C46236   9.256   0.916   1.171  0.4567  0.7270 -0.2724
  343MOL0     C46237   9.324   0.989   1.061  0.2421 -0.2468 -0.7258
  343MOL0     H46238   9.605   0.783   0.928 -0.1757 -1.8864 -1.1515
  343MOL0     H46239   9.816   0.721   0.836  1.4674 -0.1971  0.1569
  343MOL0     H46240  10.152   0.725   1.105  2.2470 -0.8845  1.1800
  343MOL0     H46241  10.140   0.552   1.108 -0.1444  0.8720  0.9224
  343MOL0     H46242  10.287   0.712   0.889 -1.0019  1.7445  2.2278
  343MOL0     H46243  10.254   0.545   0.880  0.3983 -0.3122 -1.1334
  343MOL0     H46244  10.369   0.512   1.102 -0.0306  1.4330  2.5230
  343MOL0     H46245  10.433   0.674   1.104 -3.8580  2.1303  0.3590
  343MOL0     H46246  10.506   0.475   0.899 -3.5509 -0.2539  0.3569
  343MOL0     H46247  10.522   0.644   0.863 -2.4825  0.4923 -0.6719
  343MOL0     H46248  10.665   0.671   1.060 -2.1344  0.7139 -1.0719
  343MOL0     H46249  10.657   0.493   1.100  2.7459 -0.3794 -0.2741
  343MOL0     H46250  10.755   0.435   0.887  1.3858  0.3182  0.1689
  343MOL0     H46251  10.791   0.616   0.865  0.7423  2.5085  0.6566
  343MOL0     H46252  10.969   0.488   0.938 -0.0988  0.7303 -0.0069
  343MOL0     H46253  10.895   0.436   1.084  1.7947 -0.9739 -1.5116
  343MOL0     H46254  10.900   0.735   1.032  0.8719 -0.8576 -2.4129
  343MOL0     H46255  10.888   0.652   1.184 -0.7472  3.9198 -0.8450
  343MOL0     H46256  11.173   0.708   0.923  0.6759  0.2555  0.1662
  343MOL0     H46257  11.451   0.603   0.995 -1.4445  0.0952  0.1143
  343MOL0     H46258  11.456   0.775   1.012 -1.3931 -0.0366 -1.1614
  343MOL0     H46259  11.516   0.738   1.257  0.3942 -0.1231 -0.4428
  343MOL0     H46260  11.501   0.565   1.234  1.0038  1.0239  1.6467
  343MOL0     H46261  11.702   0.700   1.063 -0.6028 -0.9216 -0.5690
  343MOL0     H46262  11.669   0.542   1.096  0.0501  0.3369 -0.0564
  343MOL0     H46263  11.748   0.565   1.330 -0.5509 -0.1534 -0.0505
  343MOL0     H46264  11.720   0.745   1.322 -3.1065 -0.6449 -1.4780
  343MOL0     H46265  11.865   0.622   1.513 -0.5009  0.4031 -0.4594
  343MOL0     H46266  12.018   0.695   1.675 -1.1511  1.0524  0.3432
  343MOL0     H46267  12.440   0.976   1.795  0.3240 -0.2842 -0.7810
  343MOL0     H46268  12.585   1.014   2.000 -2.3518  2.0694 -0.8784
  343MOL0     H46269  12.762   0.855   2.136 -0.2034  0.1542  0.8277
  343MOL0     H46270  12.695   1.013   2.198  2.7923  0.2839 -0.3248
  343MOL0     H46271  12.706   0.875   2.422 -1.4502  0.5074 -0.3498
  343MOL0     H46272  12.807   0.762   2.320  1.8418  0.5152 -0.3900
  343MOL0     H46273  12.962   0.942   2.268 -1.7525 -0.9248 -0.8456
  343MOL0     H46274  12.872   1.047   2.380 -0.3880 -0.0749  2.3920
  343MOL0     H46275  12.987   0.782   2.471 -0.4923 -0.6545  3.3255
  343MOL0     H46276  12.928   0.917   2.571  1.9416  0.2980  0.3882
  343MOL0     H46277  13.103   1.057   2.475 -3.5796 -0.0264  1.4998
  343MOL0     H46278  13.176   0.898   2.413 -0.6958 -0.3112  0.0757
  343MOL0     H46279  13.274   0.992   2.633 -0.6763  0.5892 -0.2544
  343MOL0     H46280  13.117   0.984   2.701  0.6409 -0.5174  1.7417
  343MOL0     H46281  13.136   0.722   2.654 -0.5388 -0.2744  2.8515
  343MOL0     H46282  13.237   0.790   2.773  3.9735  0.9546 -0.1789
  343MOL0     H46283  13.383   0.654   2.642  0.7321 -0.3075 -1.2143
  343MOL0     H46284  13.291   0.681   2.495  1.7254 -2.3366  0.4404
  343MOL0     H46285  12.400   0.682   2.174  0.4123 -0.7795 -0.3600
  343MOL0     H46286  12.228   0.666   2.004 -0.3615  0.7606  3.3955
  343MOL0     H46287  12.299   0.796   1.360 -1.9135 -0.0826 -2.4193
  343MOL0     H46288  12.145   0.717   1.200  0.8959  1.8651 -0.1369
  343MOL0     H46289   9.979   0.654   1.220 -0.4124  0.7276  0.6066
  343MOL0     H46290   9.759   0.733   1.327  0.1655  0.7374 -0.5013
  343MOL0     H46291   9.277   0.652   1.397  2.1874 -0.0857 -1.2815
  343MOL0     H46292   9.071   0.769   1.486  1.5337 -1.2364 -0.1545
  343MOL0     H46293   8.854   0.816   1.359 -1.5480 -0.0771  0.0517
  343MOL0     H46294   8.827   0.956   1.251 -1.0179 -1.3973  0.1944
  343MOL0     H46295   8.643   0.936   1.374  1.1165 -1.5745 -0.7129
  343MOL0     H46296   8.741   1.083   1.428  0.6970 -0.2737  0.7489
  343MOL0     H46297   8.671   1.002   1.626  2.9715  1.7306  0.1967
  343MOL0     H46298   8.833   0.926   1.608  0.3809 -0.3525 -1.6486
  343MOL0     H46299   8.711   0.719   1.536  0.9142  0.7311  0.6599
  343MOL0     H46300   8.704   0.752   1.698  0.9187  2.1503  1.2048
  343MOL0     H46301   8.302   0.832   1.622 -0.8961 -1.9900 -0.2320
  343MOL0     H46302   9.093   1.067   1.179  2.1924  2.0314  0.7150
  343MOL0     H46303   9.299   1.095   1.067  2.0647  0.1487  1.2024
  343MOL0     H46304   9.433   0.980   1.071  0.5165 -1.4352 -3.7138
  343MOL0     H46305   9.300   0.950   0.962  1.1175 -0.3821 -0.8944
  344MOL0     O46306   9.974   4.740   6.795 -0.1658  0.1756  0.5977
  344MOL0     C46307   9.954   4.687   6.685  0.1398 -0.0061 -0.7502
  344MOL0     O46308  10.036   4.701   6.573  0.3450 -0.1162 -0.0983
  344MOL0     C46309  10.158   4.763   6.591  0.3866  1.0325 -0.2419
  344MOL0     C46310  10.161   4.899   6.623 -0.2540  0.0454 -0.2068
  344MOL0     C46311  10.289   4.959   6.614  0.0063 -0.9085 -0.1343
  344MOL0     C46312  10.411   4.889   6.603 -0.0447 -0.1261  0.0896
  344MOL0     O46313  10.533   4.952   6.597  0.3679 -0.5609  0.2567
  344MOL0     C46314  10.548   5.092   6.634 -0.5726  0.6346 -0.1350
  344MOL0     C46315  10.691   5.144   6.615  0.5506  0.7915  0.5323
  344MOL0     C46316  10.759   5.095   6.482 -0.5143  0.6954 -0.2842
  344MOL0     C46317  10.883   5.155   6.434  0.8027  0.5403  0.0994
  344MOL0     C46318  11.004   5.126   6.527  0.5856  0.5375 -0.6672
  344MOL0     C46319  11.133   5.163   6.460 -0.3114 -0.8040  0.1677
  344MOL0     C46320  11.264   5.148   6.529 -0.3520 -0.1457 -0.0931
  344MOL0     C46321  11.288   5.239   6.653  0.6815  0.0071  0.0843
  344MOL0     N46322  11.411   5.188   6.718  0.1233  0.1619 -0.2109
  344MOL0     C46323  11.540   5.193   6.663 -0.5598  0.3951 -0.0328
  344MOL0     C46324  11.618   5.142   6.766  0.4046  0.5797 -0.2044
  344MOL0     C46325  11.772   5.124   6.774  0.2511  0.0629  0.3731
  344MOL0     C46326  11.847   5.240   6.839 -0.7881  0.2290 -1.1441
  344MOL0     C46327  12.000   5.237   6.821  0.6216 -0.1798 -0.2925
  344MOL0     C46328  12.063   5.119   6.905  0.1853 -0.1873 -0.4291
  344MOL0     O46329  12.202   5.116   6.877  0.5854  0.2327 -0.5465
  344MOL0     C46330  12.290   5.160   6.984 -0.1914 -0.1733  0.4069
  344MOL0     C46331  12.267   5.144   7.120  1.1388 -0.6153  0.1542
  344MOL0     C46332  12.357   5.192   7.211  0.7903 -0.0565 -0.5547
  344MOL0     C46333  12.482   5.240   7.166 -0.2818  0.2895 -0.1089
  344MOL0     C46334  12.592   5.267   7.264 -0.4616  0.1572 -0.0882
  344MOL0     O46335  12.575   5.218   7.386  0.1181  0.0741 -0.4047
  344MOL0     C46336  12.672   5.229   7.486 -0.5725 -0.2950  0.0195
  344MOL0     C46337  12.654   5.317   7.595  0.1103 -0.5012 -0.6896
  344MOL0     C46338  12.766   5.339   7.683 -0.6483  0.2644  0.0522
  344MOL0     C46339  12.884   5.265   7.664 -0.0617 -0.4730  0.0421
  344MOL0     O46340  12.996   5.288   7.738 -0.4857  0.4659 -0.0193
  344MOL0     C46341  12.980   5.383   7.849 -0.0799  0.7249  0.7232
  344MOL0     C46342  13.106   5.373   7.937 -0.0833 -0.2259 -0.3919
  344MOL0     C46343  13.108   5.477   8.041 -0.0625  0.7410 -0.2301
  344MOL0     C46344  13.257   5.492   8.090  0.2325 -0.8988  0.1914
  344MOL0     C46345  13.251   5.627   8.168 -0.5794  0.0668  0.5521
  344MOL0     C46346  13.168   5.618   8.299  0.3770 -0.5308 -0.9490
  344MOL0     C46347  13.192   5.749   8.378  0.0263 -0.2494 -0.0070
  344MOL0     C46348  13.150   5.728   8.524 -0.3850 -0.6786 -0.0932
  344MOL0    Cl46349  13.259   5.598   8.590  0.7140  0.0146 -0.2305
  344MOL0     C46350  12.897   5.185   7.551  0.6079 -0.5406  0.3012
  344MOL0     C46351  12.791   5.165   7.473  0.1555  0.3854  0.2140
  344MOL0     O46352  12.693   5.331   7.228  0.1585 -0.3119  0.0580
  344MOL0     C46353  12.502   5.254   7.034  0.7663 -0.5666  0.8982
  344MOL0     C46354  12.409   5.215   6.944  0.7524 -0.2357 -0.3935
  344MOL0     N46355  11.536   5.111   6.880  0.2428  0.0006 -0.6182
  344MOL0     N46356  11.415   5.128   6.844 -0.0184 -0.1426  0.0572
  344MOL0     C46357  10.394   4.750   6.585 -0.6046 -0.2948  0.0636
  344MOL0     C46358  10.271   4.687   6.568 -0.3251  0.3475 -0.4564
  344MOL0     C46359   9.841   4.585   6.671  0.9543 -0.6718 -0.0217
  344MOL0     C46360   9.815   4.525   6.550 -0.3173  0.6370  0.1637
  344MOL0     C46361   9.708   4.439   6.524 -0.7166 -0.4479  0.2396
  344MOL0     C46362   9.611   4.408   6.618  1.0933  0.4968 -0.5615
  344MOL0     O46363   9.512   4.320   6.599 -0.3052 -0.1868  0.1502
  344MOL0     C46364   9.429   4.337   6.487 -0.8274 -0.3546  0.5129
  344MOL0     C46365   9.284   4.290   6.521  0.0039 -0.2625 -0.4609
  344MOL0     C46366   9.230   4.343   6.653 -0.0311 -0.9371 -1.0688
  344MOL0     C46367   9.238   4.496   6.659 -0.0229  0.3430 -1.1605
  344MOL0     C46368   9.166   4.520   6.784  0.3317 -1.2725  0.4342
  344MOL0     C46369   9.090   4.541   6.875 -0.3713  0.8762  0.1980
  344MOL0     C46370   9.639   4.460   6.748  0.7973  0.7110  1.0629
  344MOL0     C46371   9.748   4.553   6.773  0.3589  0.9542 -0.1470
  344MOL0     C46372   9.750   4.614   6.910  0.0467 -0.1565 -0.0363
  344MOL0     H46373  10.073   4.961   6.639 -0.6554 -0.8070  0.9679
  344MOL0     H46374  10.289   5.062   6.647  2.0885 -0.9962  0.3214
  344MOL0     H46375  10.478   5.150   6.573 -1.0383 -1.3628 -1.6162
  344MOL0     H46376  10.530   5.097   6.742 -0.6018 -1.5468  0.0073
  344MOL0     H46377  10.755   5.104   6.694 -1.1532 -1.3686  0.8856
  344MOL0     H46378  10.695   5.253   6.623 -0.2616  0.7900  1.0202
  344MOL0     H46379  10.683   5.106   6.405  0.0914 -0.6707 -1.1085
  344MOL0     H46380  10.780   4.988   6.492 -0.3384  0.5748 -1.7735
  344MOL0     H46381  10.900   5.115   6.334 -0.4627 -0.0204  0.0892
  344MOL0     H46382  10.867   5.263   6.425 -0.4723  0.3667  0.0966
  344MOL0     H46383  10.996   5.183   6.619 -0.5487  0.4226 -0.6797
  344MOL0     H46384  11.018   5.024   6.563  0.1940  0.7586  0.1239
  344MOL0     H46385  11.142   5.106   6.367  1.4829  1.6217 -1.2886
  344MOL0     H46386  11.130   5.270   6.435  2.1172 -0.6852  0.0911
  344MOL0     H46387  11.346   5.161   6.459 -0.2008 -0.2420  0.0679
  344MOL0     H46388  11.274   5.042   6.553 -0.9450 -0.1491  0.1723
  344MOL0     H46389  11.314   5.341   6.622  4.7885 -0.6089  0.9066
  344MOL0     H46390  11.201   5.244   6.719 -0.6966  2.6632 -1.7359
  344MOL0     H46391  11.576   5.235   6.570 -1.7509  2.9821  0.5665
  344MOL0     H46392  11.797   5.036   6.834  1.4067  1.3939  1.9616
  344MOL0     H46393  11.795   5.108   6.668  0.9613 -0.4975  0.6042
  344MOL0     H46394  11.813   5.337   6.802 -0.4071  1.5862  1.7479
  344MOL0     H46395  11.829   5.251   6.947  1.1082  2.5359 -0.9928
  344MOL0     H46396  12.044   5.331   6.856  0.1780  0.1809 -0.7003
  344MOL0     H46397  12.027   5.225   6.716  0.7770  0.1771 -0.2960
  344MOL0     H46398  12.015   5.022   6.890 -2.0764  0.8667 -0.3635
  344MOL0     H46399  12.058   5.140   7.012  3.7153 -1.0039  0.0381
  344MOL0     H46400  12.174   5.095   7.148 -1.6103  1.9034 -3.6151
  344MOL0     H46401  12.345   5.175   7.318  0.6474 -1.7747 -0.8073
  344MOL0     H46402  12.557   5.365   7.600  0.0215 -0.2637 -3.4035
  344MOL0     H46403  12.753   5.417   7.758 -0.2903 -0.7942  1.2477
  344MOL0     H46404  12.963   5.485   7.814 -2.6101 -0.2724 -1.2787
  344MOL0     H46405  12.896   5.353   7.912 -0.8151 -2.3767 -1.4965
  344MOL0     H46406  13.108   5.275   7.986 -0.9832 -1.3422 -2.4620
  344MOL0     H46407  13.196   5.382   7.876  1.0147  1.7201  1.3940
  344MOL0     H46408  13.080   5.572   7.994  1.7164 -0.0505 -3.1476
  344MOL0     H46409  13.044   5.455   8.127  1.0880 -0.9665  0.2337
  344MOL0     H46410  13.327   5.505   8.007 -2.3148  2.3368 -1.7502
  344MOL0     H46411  13.277   5.417   8.166 -0.1551  1.7451  3.0944
  344MOL0     H46412  13.209   5.702   8.100 -0.6012 -2.0031 -1.8905
  344MOL0     H46413  13.352   5.665   8.182 -1.3771  2.8052 -0.4944
  344MOL0     H46414  13.064   5.599   8.270  0.5954 -2.6030 -0.5479
  344MOL0     H46415  13.206   5.533   8.357  1.4319 -0.8681 -2.0872
  344MOL0     H46416  13.132   5.834   8.343  0.9355  1.2013  1.7981
  344MOL0     H46417  13.295   5.784   8.367 -0.3081  0.0470 -3.4313
  344MOL0     H46418  13.164   5.813   8.591  1.1983 -1.4143  0.5648
  344MOL0     H46419  13.046   5.696   8.517 -1.1729  0.2883  4.3637
  344MOL0     H46420  12.998   5.151   7.532  1.2485  1.4794 -0.1308
  344MOL0     H46421  12.810   5.115   7.379 -1.6292  1.8653 -1.0173
  344MOL0     H46422  12.590   5.305   6.995 -0.2900 -0.0881 -1.0365
  344MOL0     H46423  12.427   5.226   6.838  1.6168 -1.5490 -0.4045
  344MOL0     H46424  10.485   4.697   6.561 -0.6141 -1.3681  2.1836
  344MOL0     H46425  10.263   4.582   6.544  1.0168 -0.4499  2.1724
  344MOL0     H46426   9.861   4.539   6.452 -2.1744 -1.2007 -1.0354
  344MOL0     H46427   9.698   4.404   6.422  1.8412 -0.3382 -0.1185
  344MOL0     H46428   9.471   4.280   6.404  0.9899  0.7325  0.6089
  344MOL0     H46429   9.427   4.438   6.444 -0.1538 -0.4075  0.3468
  344MOL0     H46430   9.281   4.182   6.533 -2.9311 -0.2959 -0.8977
  344MOL0     H46431   9.210   4.313   6.444 -1.8416 -2.3534  0.5959
  344MOL0     H46432   9.293   4.311   6.737 -0.6357  0.5095 -0.0324
  344MOL0     H46433   9.130   4.303   6.670  0.1732 -0.4053  2.0265
  344MOL0     H46434   9.343   4.525   6.668 -0.0353 -0.0413  0.5408
  344MOL0     H46435   9.179   4.536   6.576 -0.6312  1.3255 -0.2705
  344MOL0     H46436   9.027   4.546   6.961  0.0777  2.4731  0.4777
  344MOL0     H46437   9.568   4.441   6.827 -0.7768  1.7658 -0.0513
  344MOL0     H46438   9.849   4.615   6.956  0.1877 -0.4175 -0.3272
  344MOL0     H46439   9.713   4.717   6.906 -0.2126 -0.2438  0.0770
  344MOL0     H46440   9.692   4.556   6.983 -0.2778  1.1857  0.8105
  345MOL0     O46441   0.820   3.020  10.071 -0.4276  0.5996  0.1464
  345MOL0     C46442   0.700   3.008  10.078  0.1888  0.1487  0.0709
  345MOL0     O46443   0.642   2.920  10.161  0.1577 -0.9128  0.1911
  345MOL0     C46444   0.717   2.825  10.221  0.2110 -0.7466 -0.0901
  345MOL0     C46445   0.768   2.721  10.143  0.8721 -0.2179 -0.5008
  345MOL0     C46446   0.843   2.622  10.207  0.1270 -0.1151 -0.2109
  345MOL0     C46447   0.874   2.628  10.341  0.3548 -0.2627  0.2686
  345MOL0     O46448   0.953   2.526  10.383 -0.4757  0.5150 -0.0954
  345MOL0     C46449   0.934   2.489  10.519  0.8945 -0.1270 -0.5487
  345MOL0     C46450   1.024   2.362  10.539 -0.7685 -0.0090  0.1854
  345MOL0     C46451   1.170   2.397  10.530  0.3973 -0.2788  0.5591
  345MOL0     C46452   1.251   2.277  10.525 -0.1604 -0.2223  0.2293
  345MOL0     C46453   1.333   2.250  10.652  0.1063  0.8950 -0.1838
  345MOL0     C46454   1.446   2.352  10.679  0.0210 -0.5997  0.7712
  345MOL0     C46455   1.577   2.357  10.585 -0.2812 -0.4399 -0.1890
  345MOL0     C46456   1.688   2.267  10.637  0.5686  0.0042  0.2575
  345MOL0     N46457   1.818   2.266  10.572 -0.5004  0.9525 -0.7903
  345MOL0     C46458   1.843   2.236  10.438  0.2454 -0.3155 -0.0224
  345MOL0     C46459   1.976   2.261  10.416 -0.0266 -0.2262  0.5299
  345MOL0     C46460   2.066   2.251  10.298 -0.0101 -0.0326 -0.1758
  345MOL0     C46461   2.001   2.305  10.170  1.2996 -0.1835 -0.6946
  345MOL0     C46462   2.084   2.261  10.053 -0.4576 -0.2034  0.8972
  345MOL0     C46463   2.082   2.110  10.025 -0.4171  0.2911 -0.6305
  345MOL0     O46464   2.155   2.098   9.901 -0.0314 -0.4712  0.0612
  345MOL0     C46465   2.291   2.094   9.916  0.1845  0.2158 -0.1581
  345MOL0     C46466   2.345   1.972   9.965 -0.0646 -1.1932 -0.4843
  345MOL0     C46467   2.479   1.971  10.003  0.1432 -0.2286 -0.3068
  345MOL0     C46468   2.568   2.080   9.988 -0.3188  0.0422 -1.0044
  345MOL0     C46469   2.708   2.072  10.039  0.0132 -0.5755 -0.7927
  345MOL0     O46470   2.782   2.188  10.035 -0.3579 -0.5706  0.5350
  345MOL0     C46471   2.900   2.188  10.102 -1.2466 -0.6150 -0.3601
  345MOL0     C46472   3.023   2.168  10.038  0.8656  0.3268  1.0418
  345MOL0     C46473   3.141   2.168  10.102 -0.6109 -0.0368 -0.1758
  345MOL0     C46474   3.153   2.192  10.236  0.5305  0.3631  0.1097
  345MOL0     O46475   3.280   2.194  10.293 -0.0227 -0.2392 -0.2422
  345MOL0     C46476   3.299   2.276  10.406 -1.0671  1.0191 -0.0291
  345MOL0     C46477   3.450   2.265  10.447 -0.1090 -0.5425 -0.1251
  345MOL0     C46478   3.491   2.348  10.574  0.0549  0.6250  0.5563
  345MOL0     C46479   3.454   2.271  10.702  0.7289  0.1544 -0.2883
  345MOL0     C46480   3.462   2.369  10.822 -0.1045  0.0762 -0.4046
  345MOL0     C46481   3.412   2.307  10.953 -0.4522 -0.1037  0.5188
  345MOL0     C46482   3.404   2.411  11.069 -0.5501  0.5102 -0.2581
  345MOL0     C46483   3.308   2.358  11.174 -0.8558 -0.4839 -0.7198
  345MOL0    Cl46484   3.147   2.321  11.107  0.5065 -0.4341 -0.2565
  345MOL0     C46485   3.036   2.224  10.310 -0.1026 -0.8303 -0.1977
  345MOL0     C46486   2.917   2.215  10.244  0.4444  0.1619  0.2357
  345MOL0     O46487   2.748   1.963  10.076 -0.0077  0.4945  0.3921
  345MOL0     C46488   2.512   2.196   9.924  0.1756 -0.2037 -0.0019
  345MOL0     C46489   2.378   2.199   9.896 -0.0315 -0.5975 -0.2101
  345MOL0     N46490   2.036   2.290  10.540  0.6705 -0.7912  0.7751
  345MOL0     N46491   1.943   2.289  10.627 -0.4762 -0.3029  0.3766
  345MOL0     C46492   0.845   2.743  10.411 -0.1022 -0.7175  0.4543
  345MOL0     C46493   0.767   2.841  10.350 -0.2091 -1.0645 -0.0874
  345MOL0     C46494   0.609   3.086   9.984  0.8507  0.2843  0.4172
  345MOL0     C46495   0.469   3.061   9.993  0.3161  0.1286 -0.5909
  345MOL0     C46496   0.385   3.136   9.909 -0.7023  0.3379 -0.0772
  345MOL0     C46497   0.427   3.219   9.803 -0.3065  0.0521 -0.4006
  345MOL0     O46498   0.327   3.267   9.721  0.3810  0.5376  0.5000
  345MOL0     C46499   0.352   3.374   9.634  0.3602 -0.4686  0.4365
  345MOL0     C46500   0.266   3.487   9.690 -0.7056  0.4964  0.0285
  345MOL0     C46501   0.114   3.487   9.657  0.0066 -0.8891 -0.0594
  345MOL0     C46502   0.033   3.562   9.769  1.0702 -0.2196  0.0317
  345MOL0     C46503   0.051   3.710   9.781 -0.0863 -0.0748  0.1801
  345MOL0     C46504   0.065   3.826   9.812 -0.1974  1.0417  0.0891
  345MOL0     C46505   0.564   3.238   9.791  0.5971 -0.3126 -0.9776
  345MOL0     C46506   0.658   3.171   9.876 -0.1895 -0.4791  0.9889
  345MOL0     C46507   0.803   3.196   9.833  0.4449  0.0763 -0.7592
  345MOL0     H46508   0.753   2.721  10.035 -2.0915 -2.4262 -0.2011
  345MOL0     H46509   0.875   2.534  10.152 -0.4621 -0.0992 -0.5900
  345MOL0     H46510   0.968   2.570  10.584  0.2866 -0.6211  0.4073
  345MOL0     H46511   0.830   2.467  10.546  0.5690 -0.5752 -2.0759
  345MOL0     H46512   1.003   2.290  10.459  1.4741 -1.6501  1.0006
  345MOL0     H46513   1.011   2.316  10.637  3.3263  0.4676  1.1339
  345MOL0     H46514   1.194   2.469  10.610 -0.7667  3.2228 -1.9788
  345MOL0     H46515   1.188   2.449  10.435  1.6544 -0.9400  0.4087
  345MOL0     H46516   1.182   2.192  10.517 -0.6061  0.1632 -0.0659
  345MOL0     H46517   1.317   2.275  10.438 -3.1428  1.3727 -2.2662
  345MOL0     H46518   1.261   2.252  10.735 -2.1654  2.6563 -2.0574
  345MOL0     H46519   1.371   2.147  10.649 -3.7774 -0.7223 -3.6344
  345MOL0     H46520   1.408   2.454  10.671  1.3749 -0.1366 -0.1849
  345MOL0     H46521   1.473   2.347  10.785  1.1827 -1.7791  0.4493
  345MOL0     H46522   1.612   2.460  10.594  1.3684 -1.0416  0.6422
  345MOL0     H46523   1.564   2.326  10.481  0.2505 -1.1247 -0.0588
  345MOL0     H46524   1.714   2.293  10.740  1.7242 -0.7131  0.1548
  345MOL0     H46525   1.652   2.164  10.627  2.0978 -0.6144  0.9146
  345MOL0     H46526   1.763   2.197  10.376  0.3655  0.1260 -0.4534
  345MOL0     H46527   2.160   2.302  10.318  0.1794 -0.8600  1.1993
  345MOL0     H46528   2.098   2.146  10.297 -0.8283 -0.3244  1.0459
  345MOL0     H46529   1.897   2.273  10.160  1.3657 -0.2501 -1.1891
  345MOL0     H46530   1.994   2.414  10.181 -3.0521 -0.3861  0.4642
  345MOL0     H46531   2.190   2.290  10.057 -0.0477 -0.7403 -2.6457
  345MOL0     H46532   2.047   2.318   9.967 -0.9428  1.8445  2.3716
  345MOL0     H46533   1.981   2.073  10.007  0.2233 -1.4899 -0.7218
  345MOL0     H46534   2.123   2.048  10.106 -2.7624 -3.4327 -2.0686
  345MOL0     H46535   2.279   1.886   9.975 -0.2833 -0.7962  2.2517
  345MOL0     H46536   2.514   1.876  10.044 -1.1218  0.1876  1.9160
  345MOL0     H46537   3.025   2.154   9.931 -1.2408 -1.5227  1.1883
  345MOL0     H46538   3.225   2.151  10.035 -0.8210  0.7921 -0.6596
  345MOL0     H46539   3.273   2.379  10.379  1.3536  2.1895  1.6719
  345MOL0     H46540   3.242   2.241  10.492 -0.3559  0.5577  0.2586
  345MOL0     H46541   3.475   2.161  10.472  1.1297  0.0730  1.3567
  345MOL0     H46542   3.521   2.297  10.371 -0.9884  3.4665  0.5206
  345MOL0     H46543   3.596   2.377  10.579  0.1259  0.5480 -0.2959
  345MOL0     H46544   3.437   2.443  10.571 -1.0213  0.1093  2.3779
  345MOL0     H46545   3.525   2.188  10.715  3.0427  2.1136  0.2114
  345MOL0     H46546   3.354   2.226  10.697  0.6167  0.2739  0.6520
  345MOL0     H46547   3.393   2.451  10.802 -1.7662 -1.0047  0.6697
  345MOL0     H46548   3.563   2.408  10.842 -0.1117 -0.3804  0.5555
  345MOL0     H46549   3.313   2.263  10.939 -0.4051 -0.4254  1.1706
  345MOL0     H46550   3.476   2.224  10.982  1.1244  1.6927  2.5303
  345MOL0     H46551   3.359   2.506  11.039  1.0061  1.4123  0.1780
  345MOL0     H46552   3.508   2.424  11.099 -0.0289 -2.0030 -0.7144
  345MOL0     H46553   3.350   2.261  11.202  1.4170  0.7903  0.6688
  345MOL0     H46554   3.305   2.424  11.261  0.8543 -1.5216  0.1845
  345MOL0     H46555   3.043   2.256  10.414 -0.9336 -1.0653 -0.0630
  345MOL0     H46556   2.830   2.244  10.302  1.1224  0.1959  1.2615
  345MOL0     H46557   2.576   2.282   9.908  0.0432 -0.1381 -0.1788
  345MOL0     H46558   2.327   2.289   9.864 -0.9226 -1.6960 -2.0769
  345MOL0     H46559   0.871   2.746  10.517 -0.1112 -1.9848  0.5079
  345MOL0     H46560   0.737   2.928  10.408 -0.4859  0.3880 -2.2960
  345MOL0     H46561   0.429   2.993  10.068  1.3067 -1.1571 -1.1912
  345MOL0     H46562   0.278   3.126   9.916 -0.4929 -1.3621  1.2465
  345MOL0     H46563   0.311   3.353   9.535 -0.9016 -0.4741  0.9380
  345MOL0     H46564   0.456   3.407   9.628  0.0873  0.9515  2.4173
  345MOL0     H46565   0.311   3.579   9.651  0.7175 -0.0490  0.3313
  345MOL0     H46566   0.281   3.483   9.799 -0.7846 -1.1203  0.0013
  345MOL0     H46567   0.074   3.385   9.656  2.0096 -1.7077  0.0471
  345MOL0     H46568   0.098   3.527   9.556 -1.5692 -1.6810 -0.1562
  345MOL0     H46569  -0.069   3.549   9.732  0.1400  1.5129  1.7939
  345MOL0     H46570   0.049   3.516   9.867 -0.2187  0.4624  0.5878
  345MOL0     H46571   0.063   3.920   9.864 -2.1419 -0.3523  2.7791
  345MOL0     H46572   0.615   3.292   9.712  3.5841 -0.2103  0.8701
  345MOL0     H46573   0.825   3.294   9.788  2.1285 -0.3357 -0.8928
  345MOL0     H46574   0.872   3.188   9.918 -0.6759  0.7304  0.2388
  345MOL0     H46575   0.821   3.122   9.755 -0.2870 -1.6012  0.6046
  346MOL0     O46576   2.801   0.133   0.050 -0.6169  0.5410 -0.0598
  346MOL0     C46577   2.699   0.118   0.128  0.5316 -0.2825  1.2079
  346MOL0     O46578   2.695   0.123   0.268 -0.4134  0.6886  0.0237
  346MOL0     C46579   2.815   0.150   0.329  0.1466 -1.1798  0.6283
  346MOL0     C46580   2.880   0.047   0.393 -0.5005 -0.1809 -0.2332
  346MOL0     C46581   2.998   0.060   0.457 -0.3155 -0.3602 -0.9101
  346MOL0     C46582   3.052   0.193   0.463 -0.9580 -0.7431  0.3278
  346MOL0     O46583   3.165   0.229   0.538  0.0401  0.5312 -0.4871
  346MOL0     C46584   3.238   0.136   0.610 -0.8883  0.1498  0.3836
  346MOL0     C46585   3.357   0.198   0.668  0.2255  0.4187 -0.6824
  346MOL0     C46586   3.322   0.282   0.789  0.1368 -0.2230 -0.6035
  346MOL0     C46587   3.447   0.330   0.861 -0.1719 -0.0871 -0.0305
  346MOL0     C46588   3.422   0.420   0.984 -0.6652  0.3534 -0.3948
  346MOL0     C46589   3.553   0.476   1.057  0.1422 -0.7088 -0.1628
  346MOL0     C46590   3.644   0.571   0.965 -0.4199 -0.0613  0.4048
  346MOL0     C46591   3.553   0.674   0.891 -1.3849 -0.3603 -0.1922
  346MOL0     N46592   3.619   0.771   0.800 -0.6431  0.1450 -0.6397
  346MOL0     C46593   3.735   0.754   0.725  0.2976  0.4836 -0.0953
  346MOL0     C46594   3.750   0.855   0.641  0.4636  0.3191 -0.8007
  346MOL0     C46595   3.857   0.879   0.541 -0.9117 -0.3010  0.3364
  346MOL0     C46596   3.916   0.755   0.480 -0.2804  0.0409 -0.5256
  346MOL0     C46597   4.038   0.796   0.392  0.1573 -0.2685 -0.7777
  346MOL0     C46598   4.116   0.676   0.339 -0.3042  0.4557 -0.5500
  346MOL0     O46599   4.244   0.717   0.285 -0.2758 -0.0186  0.3260
  346MOL0     C46600   4.355   0.736   0.362  0.9780  0.4667 -1.1537
  346MOL0     C46601   4.464   0.779   0.300 -0.4110  0.3324  0.0883
  346MOL0     C46602   4.588   0.790   0.363 -0.1839  0.1901  0.5465
  346MOL0     C46603   4.596   0.765   0.502 -0.2290  0.1247  0.2554
  346MOL0     C46604   4.725   0.779   0.573 -0.5715  0.3095  0.0925
  346MOL0     O46605   4.812   0.868   0.517  0.9642  0.3398  0.2588
  346MOL0     C46606   4.939   0.896   0.566  0.8600  0.0637  0.1028
  346MOL0     C46607   4.986   0.880   0.698 -0.5063 -0.1295  0.0123
  346MOL0     C46608   5.115   0.911   0.739  0.0134 -0.2393 -1.0248
  346MOL0     C46609   5.204   0.954   0.645 -0.3267 -0.4664  0.1210
  346MOL0     O46610   5.332   0.961   0.694  0.2974 -0.1454 -0.5158
  346MOL0     C46611   5.435   0.942   0.603  0.3335 -0.3567 -0.0337
  346MOL0     C46612   5.450   0.791   0.559 -0.3680  0.3300  0.5026
  346MOL0     C46613   5.596   0.740   0.575  0.8413 -0.3089  0.1323
  346MOL0     C46614   5.621   0.685   0.713  0.3366 -0.8114 -0.1365
  346MOL0     C46615   5.769   0.682   0.751  0.3964  0.0167  1.0699
  346MOL0     C46616   5.854   0.609   0.646  0.3144  0.1684 -0.1038
  346MOL0     C46617   5.849   0.455   0.638 -0.2586 -0.0672 -0.2243
  346MOL0     C46618   5.927   0.389   0.748 -0.4869  0.2225  0.5303
  346MOL0    Cl46619   6.106   0.397   0.713 -0.0472  0.0813 -0.5356
  346MOL0     C46620   5.169   0.951   0.510  0.8346 -1.0625 -0.9811
  346MOL0     C46621   5.035   0.933   0.468  0.1686  0.5804  0.0074
  346MOL0     O46622   4.741   0.720   0.680 -0.0097 -0.3378  0.9234
  346MOL0     C46623   4.481   0.709   0.559  1.2070  0.0698 -0.7265
  346MOL0     C46624   4.360   0.694   0.495  0.3425 -0.1553 -0.1317
  346MOL0     N46625   3.636   0.927   0.654 -0.4798 -0.2024  0.4846
  346MOL0     N46626   3.560   0.879   0.747 -0.1179  0.0029 -0.0579
  346MOL0     C46627   2.993   0.291   0.397 -0.1117 -0.1790 -0.6018
  346MOL0     C46628   2.877   0.272   0.335  0.9810 -0.4417  0.0340
  346MOL0     C46629   2.562   0.109   0.059 -0.2326 -0.0619  0.7163
  346MOL0     C46630   2.470   0.028   0.121 -0.2636  0.2696 -0.2582
  346MOL0     C46631   2.347   0.006   0.064 -0.9845 -0.1520 -0.1302
  346MOL0     C46632   2.317   0.064  -0.059 -0.4404 -0.3166  0.3155
  346MOL0     O46633   2.187   0.041  -0.103 -0.4701  0.4995 -0.4474
  346MOL0     C46634   2.117   0.145  -0.174 -0.3446 -0.0489 -0.6308
  346MOL0     C46635   1.972   0.100  -0.199  0.4874  0.2067  0.2034
  346MOL0     C46636   1.900   0.052  -0.070  0.1061 -0.1085  0.3842
  346MOL0     C46637   1.757   0.109  -0.053 -1.8172  0.4245  0.2799
  346MOL0     C46638   1.671   0.050  -0.159  0.0677 -0.0572 -0.0451
  346MOL0     C46639   1.601   0.018  -0.249  0.1106 -0.0958  0.0979
  346MOL0     C46640   2.410   0.140  -0.129 -0.2796 -0.0568 -0.4339
  346MOL0     C46641   2.536   0.162  -0.074  0.7121  0.0350  1.5952
  346MOL0     C46642   2.630   0.258  -0.145  0.6578  0.4797  0.4065
  346MOL0     H46643   2.835  -0.051   0.409 -2.3222  0.7857  0.9494
  346MOL0     H46644   3.044  -0.015   0.520  2.6769  1.5560 -0.6274
  346MOL0     H46645   3.188   0.086   0.693 -1.1226  0.4816  0.4477
  346MOL0     H46646   3.278   0.065   0.537  3.3711  1.3810  1.2291
  346MOL0     H46647   3.407   0.260   0.593 -0.7047  0.5287 -1.2233
  346MOL0     H46648   3.438   0.130   0.697 -0.6633  0.4413  2.1659
  346MOL0     H46649   3.269   0.221   0.863  1.7359 -3.1548 -1.6931
  346MOL0     H46650   3.271   0.370   0.750 -0.7204 -0.2992  0.3013
  346MOL0     H46651   3.510   0.242   0.881  0.6151  0.2086 -1.1614
  346MOL0     H46652   3.517   0.387   0.799  2.1277 -1.5715  1.0378
  346MOL0     H46653   3.347   0.495   0.954  0.9904  1.2209 -2.6420
  346MOL0     H46654   3.372   0.361   1.062 -1.3419 -0.9955 -1.8050
  346MOL0     H46655   3.508   0.526   1.143 -1.3833  0.5555 -1.6286
  346MOL0     H46656   3.617   0.399   1.102  0.0957 -0.4759  0.3048
  346MOL0     H46657   3.705   0.515   0.893  3.1929 -0.4156  3.4000
  346MOL0     H46658   3.719   0.613   1.033 -0.0661 -0.2238  0.1196
  346MOL0     H46659   3.468   0.624   0.843 -2.9990 -0.8720  2.8874
  346MOL0     H46660   3.493   0.731   0.963 -1.7752 -1.1849  0.1579
  346MOL0     H46661   3.793   0.662   0.724 -0.3440 -0.0854 -4.6233
  346MOL0     H46662   3.817   0.936   0.456 -2.6127 -1.5459  0.2656
  346MOL0     H46663   3.937   0.930   0.596 -2.4538  3.7872 -0.7999
  346MOL0     H46664   3.951   0.693   0.563  0.1677  1.1082  0.1004
  346MOL0     H46665   3.840   0.699   0.425 -0.7897 -1.1639  1.3031
  346MOL0     H46666   4.111   0.860   0.442 -0.2779 -0.0342 -0.4347
  346MOL0     H46667   3.994   0.848   0.307  0.4386 -1.9710 -2.0157
  346MOL0     H46668   4.067   0.629   0.253  0.6255 -0.0159 -0.8410
  346MOL0     H46669   4.125   0.601   0.418 -1.3485 -0.3099 -1.1386
  346MOL0     H46670   4.467   0.791   0.193  0.2440 -0.5858 -0.0144
  346MOL0     H46671   4.676   0.808   0.302  1.0505 -4.8713  0.4304
  346MOL0     H46672   4.926   0.838   0.778  0.9579  1.9143  2.3311
  346MOL0     H46673   5.140   0.904   0.844 -2.8242 -1.4640 -0.3317
  346MOL0     H46674   5.418   1.007   0.516  2.3351  1.9057  1.1439
  346MOL0     H46675   5.525   0.975   0.655  0.4666  0.1849 -0.5995
  346MOL0     H46676   5.389   0.723   0.619  3.4408 -3.0940  0.9256
  346MOL0     H46677   5.423   0.782   0.453 -1.6879 -0.5101  0.8870
  346MOL0     H46678   5.602   0.652   0.511 -0.5661 -0.7486  0.5640
  346MOL0     H46679   5.673   0.814   0.551 -0.4693  1.7867  1.9665
  346MOL0     H46680   5.575   0.586   0.706 -1.7420  0.1918 -2.1459
  346MOL0     H46681   5.569   0.748   0.786  0.3155 -0.1560 -0.7138
  346MOL0     H46682   5.784   0.652   0.855 -0.4280 -0.0364  1.1810
  346MOL0     H46683   5.781   0.790   0.758 -1.0285  0.1601  1.5008
  346MOL0     H46684   5.827   0.650   0.548 -0.5186 -1.5561 -0.6522
  346MOL0     H46685   5.957   0.633   0.675  0.0725  1.8340 -0.5721
  346MOL0     H46686   5.869   0.409   0.541 -0.1922  2.0864 -1.2907
  346MOL0     H46687   5.743   0.429   0.636 -0.0437 -0.9467 -0.9715
  346MOL0     H46688   5.905   0.434   0.845 -2.9852  1.9734 -0.7339
  346MOL0     H46689   5.906   0.282   0.760  0.8565 -0.1434 -0.1458
  346MOL0     H46690   5.233   0.955   0.423  0.3282  0.0933 -1.3123
  346MOL0     H46691   5.006   0.922   0.364 -1.6212 -3.0833  0.7057
  346MOL0     H46692   4.482   0.684   0.665 -3.5228  4.1847  0.7154
  346MOL0     H46693   4.269   0.671   0.550  0.7191 -5.0648 -1.0603
  346MOL0     H46694   3.041   0.388   0.405  0.6856 -0.7066  1.5991
  346MOL0     H46695   2.831   0.356   0.285 -0.6068 -1.6781 -0.6862
  346MOL0     H46696   2.502  -0.018   0.215 -1.2672 -1.6186 -0.7885
  346MOL0     H46697   2.278  -0.064   0.109 -0.3963  0.1564  1.2823
  346MOL0     H46698   2.155   0.167  -0.274  0.7729 -0.9137 -0.4136
  346MOL0     H46699   2.105   0.237  -0.117 -0.6044 -0.3246 -0.2296
  346MOL0     H46700   1.971   0.034  -0.286  1.0160  2.5114 -1.6872
  346MOL0     H46701   1.920   0.191  -0.229 -0.8193 -0.2722  0.9732
  346MOL0     H46702   1.950   0.081   0.023 -0.2462 -0.2128  0.6110
  346MOL0     H46703   1.904  -0.057  -0.072  1.9901 -0.1378  2.2871
  346MOL0     H46704   1.714   0.076   0.042 -0.3377 -3.1535 -0.1361
  346MOL0     H46705   1.757   0.216  -0.073 -1.6657  0.2463 -0.7230
  346MOL0     H46706   1.540  -0.014  -0.331 -1.1459 -1.8200  1.6347
  346MOL0     H46707   2.387   0.194  -0.220 -0.0151  0.9118  0.0713
  346MOL0     H46708   2.704   0.202  -0.203 -1.1486 -1.5765 -0.0564
  346MOL0     H46709   2.576   0.321  -0.217  0.4777 -0.7229 -0.5595
  346MOL0     H46710   2.669   0.333  -0.075  1.5184  0.2923  0.1373
  347MOL0     O46711   1.140   5.696   5.583  0.2564 -0.8574  0.4483
  347MOL0     C46712   1.115   5.658   5.466 -0.1556  0.3577  0.0015
  347MOL0     O46713   1.211   5.614   5.374  0.1686  0.9451  0.2292
  347MOL0     C46714   1.344   5.603   5.401 -0.7862  0.2120 -1.1385
  347MOL0     C46715   1.427   5.539   5.309  0.6497 -0.2857  0.9801
  347MOL0     C46716   1.563   5.528   5.308 -0.0580 -0.7513  0.0085
  347MOL0     C46717   1.632   5.579   5.417 -0.8433 -0.3814 -0.5777
  347MOL0     O46718   1.762   5.542   5.427 -0.4962  0.6601  0.2344
  347MOL0     C46719   1.824   5.581   5.545 -0.0838 -0.5635  0.6181
  347MOL0     C46720   1.967   5.556   5.519  0.7714  0.4118  0.3887
  347MOL0     C46721   2.047   5.605   5.639 -0.5617  0.0462  0.1828
  347MOL0     C46722   2.200   5.576   5.614  0.2901 -0.0249 -0.1790
  347MOL0     C46723   2.291   5.644   5.721 -0.4190  0.8077 -0.2418
  347MOL0     C46724   2.278   5.592   5.860  1.0883 -0.3004  0.1289
  347MOL0     C46725   2.360   5.679   5.959  0.2482 -0.1422  0.2761
  347MOL0     C46726   2.371   5.631   6.101  0.2757  0.6568 -1.1468
  347MOL0     N46727   2.474   5.538   6.138  0.5895  0.4025  0.1056
  347MOL0     C46728   2.602   5.566   6.182  0.1901 -0.1542  0.4651
  347MOL0     C46729   2.657   5.450   6.208  0.4681  0.1683 -0.4741
  347MOL0     C46730   2.795   5.436   6.279  0.2381 -0.2652 -0.3355
  347MOL0     C46731   2.787   5.363   6.417 -0.0233 -0.4392 -0.6308
  347MOL0     C46732   2.925   5.307   6.443 -0.1149  0.2912 -0.3720
  347MOL0     C46733   2.939   5.245   6.585 -0.7329 -0.5586  0.1272
  347MOL0     O46734   3.082   5.232   6.616 -0.0023 -0.3426  0.5008
  347MOL0     C46735   3.145   5.117   6.585  0.3924 -0.8580  0.0818
  347MOL0     C46736   3.284   5.117   6.608  0.1495 -0.3063  0.1911
  347MOL0     C46737   3.359   4.998   6.580 -0.6274  0.1893 -0.5618
  347MOL0     C46738   3.294   4.881   6.543  0.7498 -0.0299  0.2367
  347MOL0     C46739   3.367   4.754   6.518  0.7031 -0.0358  0.3809
  347MOL0     O46740   3.503   4.776   6.524  0.3776  0.5529 -0.0924
  347MOL0     C46741   3.595   4.667   6.526  0.0573  0.8012 -0.4639
  347MOL0     C46742   3.574   4.535   6.573  0.6567  1.2679  0.5677
  347MOL0     C46743   3.678   4.445   6.579 -0.1765  0.0964 -0.1833
  347MOL0     C46744   3.812   4.484   6.544 -0.2366  0.7938 -0.6969
  347MOL0     O46745   3.934   4.413   6.554  0.1655 -0.7410  0.1153
  347MOL0     C46746   3.929   4.286   6.626  0.1276 -0.1812 -0.3244
  347MOL0     C46747   4.074   4.268   6.687 -0.2027  0.3423 -0.1521
  347MOL0     C46748   4.184   4.250   6.580  0.2748  0.0847 -0.3087
  347MOL0     C46749   4.199   4.099   6.549  0.0214 -0.1976 -0.1791
  347MOL0     C46750   4.287   4.016   6.642  0.2933  0.0021 -0.4531
  347MOL0     C46751   4.259   3.862   6.613  0.2399  0.0388 -0.0742
  347MOL0     C46752   4.270   3.823   6.462 -0.0562 -0.0427 -0.0951
  347MOL0     C46753   4.225   3.669   6.456  0.2278 -0.9127  0.1556
  347MOL0    Cl46754   4.328   3.576   6.560 -0.0375 -0.0310  0.2125
  347MOL0     C46755   3.828   4.611   6.498 -0.1572  0.5156 -0.3618
  347MOL0     C46756   3.726   4.701   6.492  0.4958  0.1049  0.5041
  347MOL0     O46757   3.305   4.649   6.495  0.6176  0.1656  0.1947
  347MOL0     C46758   3.154   4.885   6.523  0.8312  0.1462 -0.4518
  347MOL0     C46759   3.080   4.997   6.556 -0.3143  0.6035  1.3338
  347MOL0     N46760   2.571   5.351   6.179  0.3179 -0.1306  0.1545
  347MOL0     N46761   2.464   5.398   6.133 -0.3120  0.2381  0.7394
  347MOL0     C46762   1.556   5.637   5.523  0.4432  0.7589 -0.2339
  347MOL0     C46763   1.415   5.648   5.513  0.1733  0.2431  0.4213
  347MOL0     C46764   0.965   5.662   5.433 -0.1448  0.5759  0.5650
  347MOL0     C46765   0.880   5.709   5.533 -0.1787 -0.1176 -0.9515
  347MOL0     C46766   0.739   5.719   5.511 -0.3175 -0.4583  0.1547
  347MOL0     C46767   0.690   5.696   5.389  0.4874 -0.2164 -0.2043
  347MOL0     O46768   0.557   5.709   5.357 -0.0978  0.2755  0.0946
  347MOL0     C46769   0.456   5.727   5.465  0.0701  0.3458 -0.0927
  347MOL0     C46770   0.324   5.759   5.411  0.3308 -0.9169  0.4275
  347MOL0     C46771   0.229   5.645   5.370  0.1957 -0.2234  0.9364
  347MOL0     C46772   0.288   5.554   5.256 -0.6665  0.5489  0.0368
  347MOL0     C46773   0.188   5.475   5.185  0.4242 -0.4839 -0.3268
  347MOL0     C46774   0.102   5.400   5.147 -0.4685  0.8182  0.2789
  347MOL0     C46775   0.772   5.645   5.292  0.4827  0.7172  0.2161
  347MOL0     C46776   0.908   5.615   5.310  0.6940  0.3843 -0.3941
  347MOL0     C46777   0.992   5.550   5.207  0.4419 -0.2980 -0.1694
  347MOL0     H46778   1.377   5.486   5.229  0.5332 -0.6557  1.2940
  347MOL0     H46779   1.617   5.479   5.228  0.8658  0.0023  0.1511
  347MOL0     H46780   1.815   5.689   5.555 -0.4018 -0.4463 -0.7869
  347MOL0     H46781   1.783   5.522   5.628 -1.9303 -0.0084  0.1370
  347MOL0     H46782   2.010   5.594   5.425  2.3492  1.1386  1.3631
  347MOL0     H46783   1.987   5.448   5.517 -0.0315  0.2378  1.2904
  347MOL0     H46784   2.015   5.553   5.730  0.3018  1.0648  1.0860
  347MOL0     H46785   2.044   5.712   5.659  0.2806  0.5307 -2.0072
  347MOL0     H46786   2.215   5.467   5.611 -4.1568 -0.7902 -1.3703
  347MOL0     H46787   2.232   5.612   5.516  0.0347  0.2331 -0.1700
  347MOL0     H46788   2.391   5.650   5.677 -0.8182 -1.3389 -1.5803
  347MOL0     H46789   2.262   5.748   5.736 -2.3665  0.1577  1.0426
  347MOL0     H46790   2.172   5.601   5.885  0.9325  4.2422 -1.2407
  347MOL0     H46791   2.320   5.492   5.873  1.9533  0.0675  0.2407
  347MOL0     H46792   2.335   5.785   5.968  0.3800 -0.1957  1.4924
  347MOL0     H46793   2.465   5.677   5.930  0.5476  0.9954  1.2027
  347MOL0     H46794   2.383   5.708   6.177 -0.4057 -0.7846  0.4919
  347MOL0     H46795   2.272   5.593   6.127  0.7834  0.9577  1.4932
  347MOL0     H46796   2.632   5.667   6.208  4.4916 -0.7718 -1.2532
  347MOL0     H46797   2.862   5.384   6.210  1.5395 -0.9770  1.3772
  347MOL0     H46798   2.848   5.528   6.303 -2.3919  1.0234  0.9675
  347MOL0     H46799   2.744   5.437   6.485  0.6338 -0.1360 -0.5407
  347MOL0     H46800   2.716   5.279   6.420 -2.2748  1.1943  5.0791
  347MOL0     H46801   3.005   5.381   6.431  2.0727 -1.9596 -0.6116
  347MOL0     H46802   2.950   5.224   6.376  0.9434 -2.7159  3.3597
  347MOL0     H46803   2.879   5.155   6.597 -2.4480  0.7155  1.5959
  347MOL0     H46804   2.896   5.315   6.657 -2.5533  1.0891 -2.4184
  347MOL0     H46805   3.316   5.208   6.658  3.3702 -1.3263  0.1631
  347MOL0     H46806   3.463   5.003   6.612 -1.3690 -2.1673  2.7430
  347MOL0     H46807   3.475   4.505   6.604  1.1546  0.0487  1.0629
  347MOL0     H46808   3.652   4.348   6.621  1.1551 -0.7925 -1.3558
  347MOL0     H46809   3.861   4.292   6.711  1.2565  0.9025  0.5466
  347MOL0     H46810   3.912   4.215   6.545  0.6101  0.4127 -0.9619
  347MOL0     H46811   4.104   4.349   6.754  0.8594 -0.3569  0.2511
  347MOL0     H46812   4.058   4.191   6.764 -0.4071  0.5612  0.0240
  347MOL0     H46813   4.152   4.310   6.494  0.7734 -0.2075 -0.7045
  347MOL0     H46814   4.280   4.290   6.614 -0.1161 -0.9660  2.1982
  347MOL0     H46815   4.242   4.083   6.450  1.0375 -1.2484  0.4055
  347MOL0     H46816   4.094   4.069   6.544 -0.9727  3.0931 -3.3145
  347MOL0     H46817   4.262   4.046   6.744 -2.4177  1.8064 -1.5188
  347MOL0     H46818   4.393   4.036   6.625  0.6178 -1.7530 -0.7212
  347MOL0     H46819   4.336   3.805   6.665  0.6940  0.7371  0.0387
  347MOL0     H46820   4.160   3.831   6.646 -0.4087  1.4224 -0.6405
  347MOL0     H46821   4.372   3.836   6.426 -0.6883  2.7473 -1.1631
  347MOL0     H46822   4.197   3.883   6.406 -1.6395 -0.2963  1.6051
  347MOL0     H46823   4.128   3.642   6.498 -0.0952 -1.1967 -0.7384
  347MOL0     H46824   4.238   3.634   6.353 -2.6741  1.5713 -1.2153
  347MOL0     H46825   3.923   4.650   6.462 -0.6312 -0.0507 -2.3434
  347MOL0     H46826   3.748   4.804   6.463  2.0964  0.6046  3.1328
  347MOL0     H46827   3.094   4.803   6.483 -2.7408  2.2525  0.0900
  347MOL0     H46828   2.979   4.996   6.516  0.9200  3.2914 -2.4702
  347MOL0     H46829   1.598   5.671   5.617 -0.0856 -0.7757  0.5978
  347MOL0     H46830   1.374   5.707   5.594 -1.2695 -0.6349  0.3751
  347MOL0     H46831   0.905   5.745   5.632 -1.0831  1.9005 -1.4098
  347MOL0     H46832   0.674   5.755   5.590  1.1654 -1.2140  1.8030
  347MOL0     H46833   0.478   5.802   5.542 -0.6267  0.2306  0.2228
  347MOL0     H46834   0.444   5.630   5.514 -1.0506 -0.6110 -2.1735
  347MOL0     H46835   0.334   5.830   5.328  0.7169  1.1343  2.1368
  347MOL0     H46836   0.280   5.818   5.492  3.3319  0.1109  1.4227
  347MOL0     H46837   0.126   5.679   5.358  0.2376  0.4639  2.3000
  347MOL0     H46838   0.227   5.583   5.460  0.5274  1.4995  2.1848
  347MOL0     H46839   0.350   5.620   5.194  0.1391  2.3838  2.6318
  347MOL0     H46840   0.350   5.480   5.307  0.4707  1.4065 -0.0582
  347MOL0     H46841   0.027   5.334   5.110 -0.8752  1.8697 -0.8377
  347MOL0     H46842   0.737   5.622   5.192 -1.7495 -2.8257  1.6077
  347MOL0     H46843   1.067   5.619   5.167 -0.1519 -1.1335 -2.9661
  347MOL0     H46844   1.049   5.464   5.244 -0.7396  0.4006  3.6188
  347MOL0     H46845   0.936   5.517   5.119  0.0462 -0.0837 -0.0008
  348MOL0     O46846   4.136   4.620   5.338  0.0818  0.3433  1.2728
  348MOL0     C46847   4.049   4.696   5.307  0.4275  0.1825  0.2458
  348MOL0     O46848   4.067   4.831   5.276  0.0669  0.4634 -1.0411
  348MOL0     C46849   4.200   4.875   5.280  0.6096  0.7783  0.4354
  348MOL0     C46850   4.291   4.876   5.172  0.0769 -0.0752  0.2080
  348MOL0     C46851   4.420   4.930   5.191 -0.4766 -0.1192 -0.3731
  348MOL0     C46852   4.458   4.978   5.317  0.0286 -0.0636 -0.3380
  348MOL0     O46853   4.580   5.045   5.315 -0.1569 -0.1134 -1.0297
  348MOL0     C46854   4.636   5.084   5.446 -0.0615 -0.0114 -0.0197
  348MOL0     C46855   4.784   5.120   5.429  0.2433 -0.3266 -0.4100
  348MOL0     C46856   4.796   5.259   5.378  0.6212 -0.2792 -0.8284
  348MOL0     C46857   4.945   5.289   5.365  1.3852  0.9284 -0.2429
  348MOL0     C46858   4.966   5.426   5.302 -0.2919  0.2298  0.1100
  348MOL0     C46859   5.122   5.442   5.305  0.2366  0.1376  1.2381
  348MOL0     C46860   5.171   5.570   5.238  0.5793 -0.0992  0.6494
  348MOL0     C46861   5.315   5.609   5.276 -0.6151  0.5783 -0.4487
  348MOL0     N46862   5.422   5.515   5.229  0.2526 -0.0046 -0.2506
  348MOL0     C46863   5.458   5.397   5.289 -1.4637  1.1516  0.4789
  348MOL0     C46864   5.557   5.354   5.202 -0.3238  0.9394 -1.1205
  348MOL0     C46865   5.632   5.223   5.235  0.1392 -0.5382  0.3556
  348MOL0     C46866   5.766   5.202   5.173 -0.1041 -0.5330 -0.0667
  348MOL0     C46867   5.813   5.055   5.212  0.5820 -0.2015  0.0358
  348MOL0     C46868   5.958   5.018   5.166  0.0485 -0.0118  0.0036
  348MOL0     O46869   6.042   5.110   5.228 -0.2890  0.3967  0.2808
  348MOL0     C46870   6.173   5.112   5.181 -0.3328 -0.4289 -0.9524
  348MOL0     C46871   6.238   5.233   5.164 -0.2166 -0.3907  0.7783
  348MOL0     C46872   6.376   5.246   5.127 -0.7132  0.2431  0.6823
  348MOL0     C46873   6.459   5.127   5.126  0.2301 -0.3437  0.4551
  348MOL0     C46874   6.593   5.137   5.076 -0.3238 -0.3434 -0.2150
  348MOL0     O46875   6.677   5.024   5.099  0.5228 -1.2842  0.1502
  348MOL0     C46876   6.808   5.016   5.055  0.0083  1.0372 -0.2425
  348MOL0     C46877   6.873   4.891   5.071 -0.5170 -0.0111 -0.3640
  348MOL0     C46878   7.004   4.871   5.022  0.0319  0.2328 -0.0999
  348MOL0     C46879   7.083   4.971   4.970 -0.2414  0.1527  0.1274
  348MOL0     O46880   7.205   4.935   4.939  0.0433  0.2847 -0.2972
  348MOL0     C46881   7.290   5.042   4.896 -0.3633  0.3271  0.4314
  348MOL0     C46882   7.411   4.962   4.850  0.6518  0.5971  0.6480
  348MOL0     C46883   7.501   5.058   4.779  0.4802 -0.0689 -0.5187
  348MOL0     C46884   7.643   4.992   4.746 -0.1079 -0.0640  0.8231
  348MOL0     C46885   7.742   5.037   4.847 -0.3088 -0.1603 -0.2665
  348MOL0     C46886   7.881   4.979   4.810 -0.5223  0.5326  0.4272
  348MOL0     C46887   7.941   5.043   4.681 -0.3833 -0.0605 -0.2810
  348MOL0     C46888   8.096   5.035   4.681 -0.2075 -0.2339  0.8071
  348MOL0    Cl46889   8.163   4.871   4.632  0.1225 -0.4369 -0.1568
  348MOL0     C46890   7.025   5.100   4.961 -0.2049 -0.5785  0.0418
  348MOL0     C46891   6.889   5.121   4.999  0.9915 -0.5896 -0.2776
  348MOL0     O46892   6.631   5.249   5.037 -0.7316 -0.0221  0.9675
  348MOL0     C46893   6.389   5.006   5.148  0.8906  0.3175 -1.2471
  348MOL0     C46894   6.250   4.994   5.178 -0.2807 -0.1513 -0.5936
  348MOL0     N46895   5.577   5.446   5.103 -0.0781  0.2083  1.1540
  348MOL0     N46896   5.496   5.539   5.116 -0.6210 -0.1035 -0.0677
  348MOL0     C46897   4.366   4.977   5.422 -0.5456 -0.1702 -0.0487
  348MOL0     C46898   4.236   4.924   5.405 -0.6989  0.1799  0.2801
  348MOL0     C46899   3.905   4.645   5.287  0.5969  0.0243 -0.8107
  348MOL0     C46900   3.863   4.525   5.343 -0.2860 -1.4595 -0.9347
  348MOL0     C46901   3.735   4.470   5.331 -0.3447 -1.2217  0.6305
  348MOL0     C46902   3.652   4.526   5.238  0.5023  0.9798 -0.6933
  348MOL0     O46903   3.531   4.456   5.223  0.6031 -0.5034 -0.2714
  348MOL0     C46904   3.436   4.517   5.127  0.3692  0.5738 -0.6381
  348MOL0     C46905   3.293   4.459   5.155 -0.0477 -0.7636  0.6867
  348MOL0     C46906   3.276   4.327   5.084 -0.0194 -0.2780 -0.1641
  348MOL0     C46907   3.122   4.291   5.073 -0.0265 -0.4118 -1.0642
  348MOL0     C46908   3.106   4.162   5.012 -0.3695 -0.0917  0.5477
  348MOL0     C46909   3.081   4.064   4.941 -0.1308 -0.1284  0.0905
  348MOL0     C46910   3.686   4.645   5.168  0.0272 -1.0969 -0.7587
  348MOL0     C46911   3.813   4.710   5.194 -0.6850 -0.4375  0.4433
  348MOL0     C46912   3.836   4.831   5.109  0.2102  0.6994 -0.4128
  348MOL0     H46913   4.260   4.837   5.075 -1.0379  0.9220  0.1383
  348MOL0     H46914   4.495   4.939   5.112  0.5781  0.6332  0.6904
  348MOL0     H46915   4.593   5.174   5.489  0.1243  0.7931 -1.4373
  348MOL0     H46916   4.621   5.005   5.520  0.3173 -0.6774 -0.6342
  348MOL0     H46917   4.831   5.056   5.354 -1.6040  0.1090 -2.0515
  348MOL0     H46918   4.828   5.121   5.528  0.3726  2.6896 -0.3913
  348MOL0     H46919   4.766   5.335   5.450 -2.6635 -0.7313 -1.5602
  348MOL0     H46920   4.732   5.271   5.290 -2.1585 -1.0123  0.9581
  348MOL0     H46921   4.989   5.287   5.465  0.4891  1.4032  0.1659
  348MOL0     H46922   4.998   5.209   5.311  1.4438  0.0933  1.0134
  348MOL0     H46923   4.917   5.438   5.205 -0.7290  0.1103  0.3143
  348MOL0     H46924   4.917   5.498   5.367  1.6807  0.6778  1.1476
  348MOL0     H46925   5.145   5.449   5.412 -1.5475 -0.6601  1.7057
  348MOL0     H46926   5.174   5.357   5.260 -0.0915  0.7481 -0.3688
  348MOL0     H46927   5.108   5.657   5.256 -0.5317 -0.1484 -2.3662
  348MOL0     H46928   5.167   5.548   5.131  1.9215 -0.1400  0.5890
  348MOL0     H46929   5.343   5.701   5.224  1.1958 -1.0822 -2.6147
  348MOL0     H46930   5.324   5.625   5.384 -3.3362 -2.6692  0.3989
  348MOL0     H46931   5.431   5.345   5.380 -0.7554  1.0470  0.6391
  348MOL0     H46932   5.642   5.200   5.342  1.4445 -0.2248  0.3133
  348MOL0     H46933   5.559   5.151   5.197 -0.4507  0.4129 -0.3646
  348MOL0     H46934   5.773   5.208   5.064  2.7354 -2.4436 -0.1219
  348MOL0     H46935   5.835   5.277   5.215  0.6417 -1.9392  1.3584
  348MOL0     H46936   5.745   4.986   5.162  2.5983 -3.3077  1.2882
  348MOL0     H46937   5.803   5.035   5.319 -0.3389  0.7626  0.1483
  348MOL0     H46938   5.951   5.014   5.057 -2.0482  0.2582  0.0897
  348MOL0     H46939   5.977   4.914   5.197 -1.0116  0.3841  2.1784
  348MOL0     H46940   6.195   5.333   5.170 -0.4662 -0.4510  0.0751
  348MOL0     H46941   6.407   5.348   5.105 -1.9755  1.0878  2.5712
  348MOL0     H46942   6.809   4.812   5.109  1.1362 -3.2888 -3.6865
  348MOL0     H46943   7.057   4.777   5.029 -0.5937 -0.3400 -2.3099
  348MOL0     H46944   7.237   5.095   4.817 -1.2518 -1.6740 -0.3945
  348MOL0     H46945   7.315   5.107   4.980  2.1294  0.6222 -0.4683
  348MOL0     H46946   7.452   4.904   4.933  1.0144 -1.1182 -0.6752
  348MOL0     H46947   7.371   4.893   4.776 -0.9992  2.3775 -0.2113
  348MOL0     H46948   7.457   5.082   4.682  0.3357  0.8736 -0.2253
  348MOL0     H46949   7.521   5.151   4.834  3.7105 -0.3157 -1.0679
  348MOL0     H46950   7.667   5.033   4.647  1.5506  0.4835  1.4121
  348MOL0     H46951   7.644   4.883   4.747  0.1590 -0.1134 -1.0423
  348MOL0     H46952   7.705   5.012   4.947  0.6192 -1.1275 -0.1594
  348MOL0     H46953   7.749   5.146   4.850 -0.0743 -0.1875  0.2182
  348MOL0     H46954   7.959   4.981   4.887  0.2916  0.6783 -0.3740
  348MOL0     H46955   7.880   4.873   4.786  0.8637  0.7914 -0.9496
  348MOL0     H46956   7.900   5.143   4.670 -1.3428 -0.4750 -0.5333
  348MOL0     H46957   7.912   4.985   4.593  0.5603  1.4167 -1.6307
  348MOL0     H46958   8.130   5.114   4.613 -0.9085  1.8328  2.7458
  348MOL0     H46959   8.129   5.057   4.783  0.8212 -0.7143  0.5901
  348MOL0     H46960   7.069   5.189   4.917 -1.0506 -0.1919 -0.0322
  348MOL0     H46961   6.859   5.224   4.983  0.6522 -0.4853  0.8987
  348MOL0     H46962   6.447   4.915   5.150  0.9060  0.3285  1.0893
  348MOL0     H46963   6.215   4.897   5.211  0.7556  0.0827  1.3884
  348MOL0     H46964   4.392   5.028   5.514  1.9046 -1.4824  0.0586
  348MOL0     H46965   4.165   4.926   5.487 -0.7957  0.5786  0.1856
  348MOL0     H46966   3.928   4.477   5.415  1.2014 -0.3137 -1.4656
  348MOL0     H46967   3.708   4.397   5.407  0.3758 -0.5139  1.5860
  348MOL0     H46968   3.472   4.498   5.025 -1.2395 -0.4486 -1.0455
  348MOL0     H46969   3.411   4.622   5.144 -0.6846  0.1044  0.9505
  348MOL0     H46970   3.223   4.528   5.108  1.2472 -1.1299 -1.9790
  348MOL0     H46971   3.266   4.449   5.261 -0.5119 -1.7778  0.4887
  348MOL0     H46972   3.333   4.251   5.139  2.3670 -0.0001 -2.0947
  348MOL0     H46973   3.315   4.326   4.982 -2.3831 -1.0093 -1.1271
  348MOL0     H46974   3.077   4.293   5.173  2.0845 -2.8742  0.0677
  348MOL0     H46975   3.061   4.363   5.017 -0.7027 -1.8622 -2.2674
  348MOL0     H46976   3.072   3.973   4.886 -0.3412  0.9580 -1.7449
  348MOL0     H46977   3.617   4.691   5.099 -1.6608 -1.0645  0.8629
  348MOL0     H46978   3.939   4.828   5.072  0.7009  0.4004  0.9360
  348MOL0     H46979   3.776   4.823   5.018 -1.3190  0.9413  0.5338
  348MOL0     H46980   3.822   4.928   5.158 -0.2994 -0.7438  2.4974
  349MOL0     O46981   4.365   6.223   9.078  1.0053 -0.2913  0.9376
  349MOL0     C46982   4.281   6.205   9.166 -0.0332  0.5043 -0.7704
  349MOL0     O46983   4.289   6.119   9.275 -0.4375  0.4627  0.8868
  349MOL0     C46984   4.403   6.052   9.300 -0.4370 -0.2352 -0.5017
  349MOL0     C46985   4.519   6.115   9.334 -0.9439 -0.5686 -0.9036
  349MOL0     C46986   4.643   6.052   9.367  0.6923 -0.3430  0.1614
  349MOL0     C46987   4.646   5.913   9.356 -0.4007  0.3531  0.2239
  349MOL0     O46988   4.767   5.845   9.388 -0.2985  0.6024  0.4819
  349MOL0     C46989   4.770   5.703   9.377 -0.0042  0.4174 -0.3140
  349MOL0     C46990   4.777   5.657   9.226  0.3704  0.3713 -0.0637
  349MOL0     C46991   4.917   5.639   9.174 -0.4755  0.5784  0.1006
  349MOL0     C46992   4.917   5.561   9.040 -0.1611 -0.2971 -0.4229
  349MOL0     C46993   5.061   5.512   9.010 -0.1404 -0.2364 -0.5901
  349MOL0     C46994   5.164   5.623   8.993 -0.5550  1.2023  0.0156
  349MOL0     C46995   5.278   5.587   8.911 -0.3832  0.1930  0.4355
  349MOL0     C46996   5.387   5.701   8.901  0.1742  0.3937  0.0962
  349MOL0     N46997   5.501   5.668   8.823 -0.5767 -0.7916  0.5758
  349MOL0     C46998   5.612   5.601   8.856 -0.0400  0.6465  0.3653
  349MOL0     C46999   5.687   5.597   8.738 -0.0742  0.2824  0.4264
  349MOL0     C47000   5.809   5.513   8.717 -0.3743  0.2767  0.3084
  349MOL0     C47001   5.898   5.563   8.601 -0.1532  0.2503 -0.1634
  349MOL0     C47002   6.027   5.479   8.592 -0.9428 -0.0854  0.2037
  349MOL0     C47003   6.149   5.561   8.556  0.5440  0.3650  0.3853
  349MOL0     O47004   6.195   5.515   8.433  0.3841 -0.1023  0.2259
  349MOL0     C47005   6.329   5.529   8.405 -0.1401  0.0515  0.2467
  349MOL0     C47006   6.407   5.635   8.444 -0.6824 -0.0426 -0.3763
  349MOL0     C47007   6.547   5.648   8.413  0.6178  0.3260  0.0222
  349MOL0     C47008   6.606   5.537   8.351 -0.8376 -0.8687  0.5876
  349MOL0     C47009   6.743   5.538   8.308 -0.2355  0.1137  0.1285
  349MOL0     O47010   6.820   5.650   8.337 -0.1445  0.1749  0.1557
  349MOL0     C47011   6.953   5.629   8.299 -0.0055  0.5704 -0.4072
  349MOL0     C47012   7.034   5.531   8.360 -0.4270 -1.0506 -0.8672
  349MOL0     C47013   7.173   5.533   8.329  0.0654 -1.6555 -0.0325
  349MOL0     C47014   7.235   5.632   8.249 -0.0024  0.8985  0.1725
  349MOL0     O47015   7.365   5.623   8.207 -0.1551  0.1886  0.1055
  349MOL0     C47016   7.466   5.539   8.274 -0.2707 -0.0949 -0.3181
  349MOL0     C47017   7.600   5.559   8.197 -0.1083  0.5737 -0.3821
  349MOL0     C47018   7.726   5.499   8.263 -0.3259 -0.7350  0.6994
  349MOL0     C47019   7.719   5.345   8.245  0.6190  0.1152 -0.2973
  349MOL0     C47020   7.818   5.283   8.335 -0.5746  0.2614  0.4108
  349MOL0     C47021   7.846   5.142   8.305 -0.2728  0.2709  0.2935
  349MOL0     C47022   7.921   5.077   8.424  0.5162 -0.1057 -0.8020
  349MOL0     C47023   7.982   4.938   8.390  0.3188 -0.0746 -0.5156
  349MOL0    Cl47024   8.117   4.957   8.269  0.2319  0.6184 -0.2630
  349MOL0     C47025   7.150   5.725   8.188  0.5224  0.3988 -0.6123
  349MOL0     C47026   7.010   5.722   8.216 -0.3301  0.5942 -0.1604
  349MOL0     O47027   6.783   5.441   8.247 -0.7001  0.5376 -0.8074
  349MOL0     C47028   6.522   5.431   8.297 -0.1515  0.3671 -0.4046
  349MOL0     C47029   6.386   5.431   8.333 -0.8168 -0.1300 -0.3142
  349MOL0     N47030   5.608   5.661   8.642 -0.0540 -0.0031  0.4721
  349MOL0     N47031   5.505   5.711   8.697 -0.6658 -0.2387 -0.0325
  349MOL0     C47032   4.531   5.842   9.308 -0.0026  0.1437 -0.7909
  349MOL0     C47033   4.414   5.913   9.286 -0.5420  0.1030 -0.1971
  349MOL0     C47034   4.144   6.258   9.150 -0.4778 -0.0850  0.7743
  349MOL0     C47035   4.051   6.157   9.145  0.1788 -0.9266 -0.7859
  349MOL0     C47036   3.915   6.185   9.118  0.1908  0.3155 -0.4473
  349MOL0     C47037   3.874   6.309   9.084 -0.7281 -0.7800 -0.1681
  349MOL0     O47038   3.737   6.322   9.052 -0.2376 -0.0517  0.2035
  349MOL0     C47039   3.674   6.435   9.106 -0.2030  0.4485 -0.3703
  349MOL0     C47040   3.635   6.524   8.985  0.2625 -0.2573 -0.4265
  349MOL0     C47041   3.583   6.664   9.026  0.3754 -0.3731 -0.3955
  349MOL0     C47042   3.443   6.651   9.083  0.2525 -0.1386  0.1814
  349MOL0     C47043   3.387   6.770   9.138  0.0697 -0.4685  0.2930
  349MOL0     C47044   3.342   6.870   9.188 -0.0987  0.4277 -0.1100
  349MOL0     C47045   3.971   6.418   9.075  0.0106 -0.2528 -0.7579
  349MOL0     C47046   4.107   6.393   9.100 -0.7854  1.0629  0.4808
  349MOL0     C47047   4.208   6.504   9.077  0.1506 -0.3510 -1.1071
  349MOL0     H47048   4.511   6.221   9.355 -3.5908 -0.7077 -0.8664
  349MOL0     H47049   4.735   6.100   9.396  1.5355 -2.0327  0.4005
  349MOL0     H47050   4.857   5.665   9.433 -1.1771 -1.7974  0.1304
  349MOL0     H47051   4.676   5.665   9.418  0.6133 -3.7042 -2.1197
  349MOL0     H47052   4.723   5.722   9.156  1.2197  1.8055  0.5600
  349MOL0     H47053   4.720   5.564   9.217 -0.6546  0.8635  1.0947
  349MOL0     H47054   4.977   5.610   9.261  0.5539  1.3219 -0.3369
  349MOL0     H47055   4.951   5.743   9.163  0.2456  0.5042  1.4303
  349MOL0     H47056   4.856   5.471   9.043  1.7486 -1.6189  0.4159
  349MOL0     H47057   4.885   5.625   8.957  3.9978  1.2956 -1.0342
  349MOL0     H47058   5.100   5.445   9.087 -1.2342 -0.1266  0.0699
  349MOL0     H47059   5.058   5.460   8.914 -2.0744  0.0802 -0.7287
  349MOL0     H47060   5.126   5.705   8.931  1.0463  1.3341 -0.8633
  349MOL0     H47061   5.195   5.667   9.088  0.5380  1.2962 -0.3713
  349MOL0     H47062   5.247   5.560   8.810  0.9804  1.2464 -0.3105
  349MOL0     H47063   5.329   5.496   8.947  1.4819  0.5804 -1.0472
  349MOL0     H47064   5.337   5.787   8.856 -0.3262  1.3650  2.3710
  349MOL0     H47065   5.413   5.732   9.003 -2.6868  1.0519  0.7266
  349MOL0     H47066   5.623   5.566   8.958  2.4891  0.2734  0.0323
  349MOL0     H47067   5.866   5.510   8.810  1.5431 -0.3308 -0.8192
  349MOL0     H47068   5.777   5.413   8.688 -2.3849  0.5155  1.4791
  349MOL0     H47069   5.833   5.550   8.514 -0.5792  1.3561 -0.0302
  349MOL0     H47070   5.922   5.669   8.613 -0.3155  0.4016 -1.1080
  349MOL0     H47071   6.016   5.400   8.517 -0.5427  1.1771 -1.2322
  349MOL0     H47072   6.054   5.436   8.689  1.5702  0.5696 -0.1323
  349MOL0     H47073   6.227   5.537   8.629  1.2212 -1.0062 -0.7443
  349MOL0     H47074   6.135   5.670   8.553  2.4515  0.6464  0.1369
  349MOL0     H47075   6.358   5.716   8.499 -0.4804 -0.6527  0.7380
  349MOL0     H47076   6.601   5.741   8.430 -1.4821  1.7993 -0.9662
  349MOL0     H47077   7.006   5.476   8.449  1.2209  1.2200  1.1793
  349MOL0     H47078   7.224   5.446   8.369  1.4916 -1.3424 -1.0802
  349MOL0     H47079   7.469   5.564   8.380 -2.5266 -1.8893  0.2422
  349MOL0     H47080   7.430   5.436   8.276 -2.9503  0.7791  1.2319
  349MOL0     H47081   7.589   5.527   8.093 -0.5923  2.4237 -0.9358
  349MOL0     H47082   7.610   5.667   8.186 -0.2504  0.4668 -1.6152
  349MOL0     H47083   7.816   5.543   8.221 -0.8406  0.8648  1.1988
  349MOL0     H47084   7.730   5.533   8.367 -0.0690  3.4066 -0.5018
  349MOL0     H47085   7.736   5.311   8.142 -3.0996 -3.5725  0.0436
  349MOL0     H47086   7.620   5.304   8.265  0.8982 -0.9626 -1.0094
  349MOL0     H47087   7.779   5.288   8.437 -0.3393  1.3786  0.4568
  349MOL0     H47088   7.914   5.334   8.346 -0.6885  0.3287  1.1980
  349MOL0     H47089   7.750   5.090   8.299 -0.7052  0.7852  2.1967
  349MOL0     H47090   7.905   5.122   8.215  0.9984 -0.2697  1.2148
  349MOL0     H47091   7.845   5.056   8.499  2.3884 -0.1415  1.1974
  349MOL0     H47092   7.988   5.150   8.470 -0.0692  0.4399 -0.8077
  349MOL0     H47093   8.021   4.898   8.484  1.4326  0.8019 -0.5762
  349MOL0     H47094   7.898   4.878   8.354 -1.0389  2.3079 -1.5905
  349MOL0     H47095   7.192   5.792   8.113 -0.6669  1.1928 -0.5942
  349MOL0     H47096   6.964   5.808   8.167 -0.5843  0.8910  0.5785
  349MOL0     H47097   6.563   5.355   8.232 -0.1828 -2.3910  2.5328
  349MOL0     H47098   6.331   5.341   8.311 -1.4657 -0.7794  3.2720
  349MOL0     H47099   4.529   5.733   9.307  0.7307  0.0641  1.0721
  349MOL0     H47100   4.333   5.846   9.258  1.4397 -2.7364  0.4748
  349MOL0     H47101   4.083   6.056   9.166  1.8850  0.0046  1.4480
  349MOL0     H47102   3.839   6.109   9.127  0.6138 -0.2199 -1.2352
  349MOL0     H47103   3.747   6.478   9.175 -0.1569 -2.5103  1.6156
  349MOL0     H47104   3.589   6.406   9.168  0.0990  0.0488 -0.1413
  349MOL0     H47105   3.556   6.478   8.925  1.0438 -0.0214 -1.6614
  349MOL0     H47106   3.715   6.539   8.912  1.4265  1.0090  1.0537
  349MOL0     H47107   3.586   6.731   8.939  0.2457  0.7253  0.4147
  349MOL0     H47108   3.650   6.703   9.102  0.8416  2.8585 -2.2582
  349MOL0     H47109   3.369   6.633   9.005  0.9887  1.8220 -1.0468
  349MOL0     H47110   3.447   6.583   9.168  0.3379  0.5049  0.6974
  349MOL0     H47111   3.306   6.953   9.245  0.5614  0.4000  0.3605
  349MOL0     H47112   3.933   6.516   9.049  1.1807  0.0020 -1.6045
  349MOL0     H47113   4.149   6.596   9.075 -2.4977 -1.9536 -2.5033
  349MOL0     H47114   4.265   6.497   9.171 -2.1476  1.7718  0.5556
  349MOL0     H47115   4.265   6.493   8.984 -0.9890  2.3196 -2.2316
  350MOL0     O47116   0.706   7.167   0.278 -0.1410 -0.0768 -0.2073
  350MOL0     C47117   0.758   7.058   0.315  0.5385 -0.0742  1.0204
  350MOL0     O47118   0.890   7.035   0.343 -0.2134 -0.7047  0.2110
  350MOL0     C47119   0.978   7.146   0.350  0.0774  0.2637 -0.8572
  350MOL0     C47120   1.017   7.211   0.237 -0.1376 -0.1193 -0.5546
  350MOL0     C47121   1.120   7.307   0.236 -0.0687  0.5577 -0.4400
  350MOL0     C47122   1.181   7.346   0.360 -0.0682  0.2764  1.6496
  350MOL0     O47123   1.286   7.430   0.359  0.3817  0.4073 -0.3652
  350MOL0     C47124   1.390   7.414   0.262 -0.2246  0.0859  0.7535
  350MOL0     C47125   1.520   7.451   0.322  0.5691 -0.0463 -0.1744
  350MOL0     C47126   1.556   7.372   0.448 -0.1333 -0.0376 -0.6673
  350MOL0     C47127   1.705   7.385   0.485  0.3862 -0.7254 -0.0596
  350MOL0     C47128   1.753   7.532   0.497  0.3649  0.2671 -0.1339
  350MOL0     C47129   1.882   7.541   0.572  0.6484 -0.1018  0.0960
  350MOL0     C47130   1.863   7.545   0.724 -0.7089  0.7397  0.6074
  350MOL0     C47131   1.868   7.684   0.779 -1.3589 -0.9453 -0.0995
  350MOL0     N47132   1.744   7.746   0.745 -0.1903 -0.3652  0.0660
  350MOL0     C47133   1.624   7.710   0.801 -0.4406  0.4552 -1.2006
  350MOL0     C47134   1.531   7.785   0.733 -0.0611  0.2723  0.8285
  350MOL0     C47135   1.385   7.799   0.746  0.3403  0.4998 -0.8334
  350MOL0     C47136   1.304   7.705   0.645 -0.1322 -0.6513 -0.2190
  350MOL0     C47137   1.165   7.767   0.630  0.1091  0.0874 -1.0544
  350MOL0     C47138   1.077   7.651   0.580  0.4051 -0.2167  0.0691
  350MOL0     O47139   1.029   7.569   0.682  0.0707 -0.2070  0.5491
  350MOL0     C47140   0.925   7.480   0.656 -0.1226 -0.2595  0.6348
  350MOL0     C47141   0.846   7.482   0.537  0.1919  0.0862 -0.6205
  350MOL0     C47142   0.730   7.400   0.529 -0.4814 -1.0331  0.0090
  350MOL0     C47143   0.698   7.307   0.624  0.8464 -0.2116  0.2176
  350MOL0     C47144   0.577   7.221   0.616 -0.4247  0.2479  0.0711
  350MOL0     O47145   0.473   7.282   0.558 -0.1250  0.7083  0.3899
  350MOL0     C47146   0.351   7.226   0.537  0.0504  0.3112  0.1262
  350MOL0     C47147   0.336   7.083   0.520 -0.5253 -0.6751  0.6257
  350MOL0     C47148   0.205   7.033   0.519 -0.3286 -0.4137 -0.3514
  350MOL0     C47149   0.085   7.123   0.520 -1.1716 -0.3577  0.3259
  350MOL0     O47150  -0.038   7.062   0.503  0.1570 -0.6094 -0.4548
  350MOL0     C47151  -0.157   7.142   0.477  0.1987  0.2205  0.2343
  350MOL0     C47152  -0.278   7.046   0.478  0.7359 -0.2167 -0.6116
  350MOL0     C47153  -0.417   7.108   0.448  0.0119  1.4182 -0.0861
  350MOL0     C47154  -0.517   6.990   0.470  0.0552 -0.5474 -0.1157
  350MOL0     C47155  -0.662   7.026   0.445  0.0880 -0.0838 -0.5422
  350MOL0     C47156  -0.757   6.912   0.468 -1.0862  0.0857 -0.5155
  350MOL0     C47157  -0.901   6.936   0.425 -0.6689 -0.0064  0.4685
  350MOL0     C47158  -0.986   6.808   0.427  0.5932 -0.4682 -0.8792
  350MOL0    Cl47159  -1.151   6.860   0.415 -0.0761 -0.1809  0.1672
  350MOL0     C47160   0.110   7.264   0.526 -0.0252  0.6464 -0.2208
  350MOL0     C47161   0.239   7.308   0.531  0.3956 -0.4011  0.4910
  350MOL0     O47162   0.578   7.108   0.673 -0.2331  0.2821 -0.1356
  350MOL0     C47163   0.781   7.305   0.740  0.1998  0.2064 -0.3413
  350MOL0     C47164   0.888   7.388   0.755 -0.1905  0.3386  0.8442
  350MOL0     N47165   1.595   7.864   0.644 -0.2571  0.8716 -0.1887
  350MOL0     N47166   1.727   7.833   0.641  0.9708 -0.0921 -0.5081
  350MOL0     C47167   1.138   7.287   0.469 -0.2692  0.4932  0.1920
  350MOL0     C47168   1.038   7.182   0.469 -0.3994  0.1713 -0.1008
  350MOL0     C47169   0.656   6.952   0.330  0.0650 -0.2677 -0.5088
  350MOL0     C47170   0.546   6.958   0.240  0.8801  0.1155 -0.1187
  350MOL0     C47171   0.444   6.865   0.242 -0.8947 -0.8466  0.3914
  350MOL0     C47172   0.453   6.754   0.331  0.1575  0.3275 -0.3594
  350MOL0     O47173   0.366   6.644   0.345 -0.1371 -0.0236  0.5920
  350MOL0     C47174   0.305   6.603   0.228  0.2321  0.5312 -0.0598
  350MOL0     C47175   0.197   6.504   0.269  0.6783 -0.7141 -0.0474
  350MOL0     C47176   0.241   6.380   0.348 -0.1289 -0.8994  0.0902
  350MOL0     C47177   0.140   6.264   0.327  0.4075 -0.2244  0.7048
  350MOL0     C47178   0.019   6.284   0.407  0.2127 -0.5004 -0.2560
  350MOL0     C47179  -0.082   6.298   0.476  0.2667 -0.6015 -0.3822
  350MOL0     C47180   0.559   6.751   0.422  0.7853  0.5546  0.0124
  350MOL0     C47181   0.660   6.846   0.425  0.1634 -0.8191  0.5578
  350MOL0     C47182   0.768   6.841   0.533  0.4084 -0.6414  0.0857
  350MOL0     H47183   0.957   7.189   0.149 -2.2122 -0.4413  0.8533
  350MOL0     H47184   1.148   7.345   0.139  1.7645 -1.0762 -0.6116
  350MOL0     H47185   1.405   7.309   0.236  3.1828  0.2329  1.6479
  350MOL0     H47186   1.362   7.477   0.177  1.9368 -1.1572 -1.0081
  350MOL0     H47187   1.530   7.558   0.344  2.0671 -0.3606  0.8340
  350MOL0     H47188   1.600   7.426   0.252  0.0200  0.7428 -1.1074
  350MOL0     H47189   1.550   7.264   0.432 -0.6988 -0.1280  0.0994
  350MOL0     H47190   1.497   7.396   0.537  1.3044  1.5596 -0.0779
  350MOL0     H47191   1.719   7.337   0.582  3.1014  1.0119  0.5220
  350MOL0     H47192   1.768   7.345   0.405 -0.8194 -1.2380 -0.7892
  350MOL0     H47193   1.778   7.580   0.402  2.5146 -0.8396 -0.1803
  350MOL0     H47194   1.665   7.581   0.540 -0.3277 -0.3520 -0.7909
  350MOL0     H47195   1.943   7.453   0.554  1.8797  0.7988 -0.2542
  350MOL0     H47196   1.942   7.623   0.531 -0.5806 -1.2390 -4.5053
  350MOL0     H47197   1.934   7.479   0.773  1.1748  4.1246  2.8637
  350MOL0     H47198   1.766   7.503   0.751 -0.0780  1.1707  3.9605
  350MOL0     H47199   1.875   7.680   0.888 -1.1414  0.7813 -0.0142
  350MOL0     H47200   1.961   7.732   0.750 -0.5855 -1.4868  1.3558
  350MOL0     H47201   1.615   7.628   0.872  0.7697  2.2699  1.1829
  350MOL0     H47202   1.363   7.778   0.851  0.0361  0.9378 -0.8042
  350MOL0     H47203   1.358   7.904   0.729  1.5365  0.8883 -0.3683
  350MOL0     H47204   1.354   7.698   0.548 -0.8010 -0.8693 -0.5512
  350MOL0     H47205   1.297   7.608   0.694  0.8226 -0.8730 -0.5023
  350MOL0     H47206   1.152   7.841   0.551 -1.6504 -2.6406 -3.5411
  350MOL0     H47207   1.124   7.789   0.729 -1.0415 -2.0811 -0.9887
  350MOL0     H47208   1.133   7.597   0.503 -1.3490  1.5804 -2.6319
  350MOL0     H47209   0.992   7.697   0.529 -1.1660  2.0912  4.2685
  350MOL0     H47210   0.853   7.562   0.464 -0.2840  4.3284  3.4922
  350MOL0     H47211   0.663   7.420   0.445 -0.6113 -1.0592  0.1051
  350MOL0     H47212   0.423   7.020   0.509  1.2651  1.9917 -2.4533
  350MOL0     H47213   0.180   6.930   0.494  2.1765 -0.6764 -2.2096
  350MOL0     H47214  -0.171   7.211   0.561  1.6974  0.2823  0.4526
  350MOL0     H47215  -0.143   7.203   0.388  2.8683  1.7382  1.5964
  350MOL0     H47216  -0.252   6.955   0.423  0.6544 -1.0889  0.7574
  350MOL0     H47217  -0.275   7.024   0.585  0.8460  2.8897  0.1182
  350MOL0     H47218  -0.442   7.198   0.504 -2.4768  1.5752 -1.3602
  350MOL0     H47219  -0.411   7.135   0.343 -0.4233  2.3218  0.1152
  350MOL0     H47220  -0.502   6.948   0.570  1.7789 -3.2857 -1.3747
  350MOL0     H47221  -0.486   6.911   0.400 -2.8468 -3.2549  1.4115
  350MOL0     H47222  -0.667   7.062   0.342 -0.6435 -0.7365 -0.7401
  350MOL0     H47223  -0.701   7.106   0.509 -1.9852 -1.0037 -0.6013
  350MOL0     H47224  -0.710   6.827   0.417 -0.3901  0.6070 -0.7603
  350MOL0     H47225  -0.756   6.882   0.573 -0.2817 -1.7891 -1.0147
  350MOL0     H47226  -0.896   6.972   0.322 -0.4401  0.1349  0.5280
  350MOL0     H47227  -0.944   7.010   0.493 -1.0214  0.7118 -0.5285
  350MOL0     H47228  -0.948   6.738   0.352  0.4806  0.2825 -1.6494
  350MOL0     H47229  -0.983   6.755   0.523 -3.0125  0.0149 -0.3659
  350MOL0     H47230   0.027   7.334   0.526 -0.1202  0.8584  4.2449
  350MOL0     H47231   0.260   7.415   0.539  1.8768 -0.6975  0.7856
  350MOL0     H47232   0.758   7.235   0.820  2.5312 -1.0520 -0.6728
  350MOL0     H47233   0.954   7.382   0.840  0.0099 -0.9316  0.6175
  350MOL0     H47234   1.175   7.330   0.562 -1.0710  0.1476  0.6872
  350MOL0     H47235   1.007   7.134   0.561  0.4769 -3.0155 -1.3151
  350MOL0     H47236   0.548   7.032   0.161  0.9682 -0.8783 -1.0842
  350MOL0     H47237   0.366   6.857   0.167 -0.4361 -0.0760 -0.1752
  350MOL0     H47238   0.381   6.551   0.170 -1.6108 -0.4870 -1.7107
  350MOL0     H47239   0.254   6.682   0.173  0.8749  0.2252 -1.1259
  350MOL0     H47240   0.136   6.483   0.181 -0.1636  1.5587 -0.0638
  350MOL0     H47241   0.137   6.559   0.342  1.3929 -2.9586  2.3767
  350MOL0     H47242   0.240   6.413   0.452  1.0611 -0.0523 -0.1387
  350MOL0     H47243   0.341   6.339   0.330  0.6403  0.8315  0.1339
  350MOL0     H47244   0.120   6.253   0.220  2.0487  0.5172  0.2993
  350MOL0     H47245   0.185   6.169   0.356  1.1806 -0.4163 -0.9978
  350MOL0     H47246  -0.161   6.306   0.548  0.3407 -3.3047  0.0994
  350MOL0     H47247   0.565   6.666   0.489 -0.4480 -1.2642 -2.0483
  350MOL0     H47248   0.770   6.925   0.602  2.1351  0.8350 -1.6560
  350MOL0     H47249   0.746   6.743   0.577  2.8055 -2.4536 -2.3598
  350MOL0     H47250   0.868   6.827   0.491  0.4362  1.2873 -0.5990
  351MOL0     O47251   1.475  10.325   1.816  0.6431 -0.2576 -0.3334
  351MOL0     C47252   1.384  10.401   1.865  0.2492  0.1401  0.1488
  351MOL0     O47253   1.411  10.517   1.941  0.2840 -0.2197 -0.7896
  351MOL0     C47254   1.533  10.533   1.998 -0.1589  0.1067  0.6117
  351MOL0     C47255   1.608  10.426   2.059  0.1982  0.0257  0.3814
  351MOL0     C47256   1.725  10.457   2.119  0.7730  0.4591 -0.1095
  351MOL0     C47257   1.782  10.582   2.116  0.4660 -0.0558 -0.7077
  351MOL0     O47258   1.908  10.602   2.174 -0.0817 -0.3511  0.7190
  351MOL0     C47259   1.946  10.724   2.238 -0.1396 -0.0030 -0.4032
  351MOL0     C47260   2.053  10.696   2.344  0.4202  0.6582 -0.2220
  351MOL0     C47261   2.124  10.817   2.395 -0.3584  0.2424 -0.2655
  351MOL0     C47262   2.204  10.791   2.533  0.1139  0.4845  0.4207
  351MOL0     C47263   2.260  10.921   2.600 -0.2100 -0.6191  0.2078
  351MOL0     C47264   2.373  10.995   2.517 -1.0924  0.4545 -0.2480
  351MOL0     C47265   2.454  11.101   2.596  0.2492  0.1894  0.2857
  351MOL0     C47266   2.568  11.156   2.517  0.0347  0.1350  0.4893
  351MOL0     N47267   2.615  11.274   2.577  0.5247 -0.5683  0.7015
  351MOL0     C47268   2.562  11.397   2.560  0.0424  0.3950 -0.1692
  351MOL0     C47269   2.651  11.482   2.620 -0.4363 -0.1038  0.9218
  351MOL0     C47270   2.641  11.632   2.608  0.5682  0.2883  0.3059
  351MOL0     C47271   2.753  11.699   2.680 -0.7242 -0.5033 -0.0305
  351MOL0     C47272   2.878  11.725   2.596  0.2473  0.3714 -0.7052
  351MOL0     C47273   2.966  11.837   2.659  0.4945  0.8677  0.2762
  351MOL0     O47274   3.050  11.765   2.757  1.2008 -0.5118 -0.5047
  351MOL0     C47275   3.156  11.839   2.795 -0.3392 -1.2584 -0.6372
  351MOL0     C47276   3.134  11.938   2.893  0.0525 -1.0926 -0.1092
  351MOL0     C47277   3.237  12.021   2.940 -0.0481  0.2171  0.6361
  351MOL0     C47278   3.363  12.021   2.875 -0.5970  0.5363 -0.2668
  351MOL0     C47279   3.474  12.114   2.914  0.1886 -0.3186 -0.0691
  351MOL0     O47280   3.563  12.144   2.812  0.1013 -0.1236 -0.2440
  351MOL0     C47281   3.679  12.208   2.840 -0.7255  0.1170 -0.2230
  351MOL0     C47282   3.740  12.298   2.755 -1.0364  0.4142  0.0113
  351MOL0     C47283   3.862  12.366   2.779  1.0513 -0.1614 -0.1748
  351MOL0     C47284   3.931  12.346   2.900  0.2223 -0.9554 -0.1051
  351MOL0     O47285   4.035  12.424   2.929  0.2407  0.3713 -0.0703
  351MOL0     C47286   4.155  12.365   2.984  0.3825  0.1516 -0.2786
  351MOL0     C47287   4.234  12.289   2.872 -0.2368  0.3380  0.6155
  351MOL0     C47288   4.339  12.201   2.918 -0.5565  0.1360  0.1058
  351MOL0     C47289   4.449  12.264   3.005  0.2601  0.0953 -0.3417
  351MOL0     C47290   4.567  12.175   3.040  0.9270 -0.4649 -0.2972
  351MOL0     C47291   4.664  12.150   2.926 -0.1668  0.1984  0.2187
  351MOL0     C47292   4.800  12.082   2.985  0.0319 -0.4101 -0.1856
  351MOL0     C47293   4.893  12.035   2.875  0.0176 -0.4803  0.5704
  351MOL0    Cl47294   4.968  12.176   2.792  0.1061  0.5058 -0.0884
  351MOL0     C47295   3.868  12.259   2.999 -0.0544  0.0096  0.7463
  351MOL0     C47296   3.750  12.184   2.960 -0.0445  0.6421  0.2205
  351MOL0     O47297   3.469  12.172   3.019 -0.5298 -0.0844 -0.1331
  351MOL0     C47298   3.381  11.935   2.765 -0.1958 -0.3747 -0.9705
  351MOL0     C47299   3.277  11.842   2.731  0.4456 -0.5534  0.1624
  351MOL0     N47300   2.755  11.403   2.668  0.9345 -0.4525 -0.2914
  351MOL0     N47301   2.733  11.278   2.639 -0.7987 -0.2744  0.1141
  351MOL0     C47302   1.711  10.682   2.048 -0.8848  0.3777 -0.3460
  351MOL0     C47303   1.581  10.660   2.001 -0.6506 -0.5407  0.1203
  351MOL0     C47304   1.241  10.357   1.863  0.7033 -0.1647  0.5739
  351MOL0     C47305   1.219  10.214   1.847  0.0998 -0.4842  0.9566
  351MOL0     C47306   1.085  10.169   1.831 -1.1397 -0.4404 -0.0342
  351MOL0     C47307   0.978  10.258   1.857 -0.0977  0.4868 -0.3584
  351MOL0     O47308   0.852  10.196   1.865  0.2079  0.3389  0.0355
  351MOL0     C47309   0.745  10.285   1.885  0.3719 -0.5662 -0.3147
  351MOL0     C47310   0.604  10.221   1.883 -0.2368  0.0090 -0.0926
  351MOL0     C47311   0.494  10.318   1.921  0.1915 -0.5810  0.3661
  351MOL0     C47312   0.353  10.261   1.892 -0.7186  0.3175  0.2370
  351MOL0     C47313   0.251  10.345   1.953  0.2209  0.6133  0.1980
  351MOL0     C47314   0.147  10.390   1.989  0.5223  0.2962  0.2056
  351MOL0     C47315   0.998  10.392   1.881 -0.3399 -0.0721 -0.4372
  351MOL0     C47316   1.131  10.442   1.887  0.7894 -0.2541  0.1987
  351MOL0     C47317   1.134  10.592   1.888 -0.1389  0.3860  0.2783
  351MOL0     H47318   1.567  10.326   2.068  0.3081 -0.0005  0.5955
  351MOL0     H47319   1.777  10.378   2.173  1.6090  0.8742 -0.2798
  351MOL0     H47320   1.990  10.799   2.171 -0.5834 -0.4704 -1.2293
  351MOL0     H47321   1.858  10.773   2.282 -0.4862 -1.0312  0.0771
  351MOL0     H47322   2.131  10.636   2.297  1.0395  0.5937  0.8439
  351MOL0     H47323   2.002  10.639   2.423 -0.7619  0.4813 -1.0922
  351MOL0     H47324   2.046  10.893   2.408 -1.0762 -0.3754 -0.8658
  351MOL0     H47325   2.204  10.857   2.333  1.1424  1.2697  2.1919
  351MOL0     H47326   2.147  10.737   2.609 -2.0642  2.4531  0.3097
  351MOL0     H47327   2.288  10.726   2.510 -0.5482 -0.2598  0.0393
  351MOL0     H47328   2.176  10.988   2.623 -1.2834 -2.6605  2.8228
  351MOL0     H47329   2.295  10.888   2.699 -2.7990  2.4268  2.3698
  351MOL0     H47330   2.433  10.911   2.482 -0.1010  0.2854  1.7294
  351MOL0     H47331   2.332  11.044   2.428 -2.6081  0.5848  0.4875
  351MOL0     H47332   2.489  11.047   2.685 -1.5870 -3.8006 -1.1665
  351MOL0     H47333   2.386  11.184   2.614  1.3124  2.3914 -4.3773
  351MOL0     H47334   2.652  11.085   2.515  0.9342  1.1246  1.5704
  351MOL0     H47335   2.536  11.179   2.415 -1.7056 -0.5943  0.8297
  351MOL0     H47336   2.470  11.425   2.511 -0.3615 -1.1909 -0.3528
  351MOL0     H47337   2.635  11.666   2.504  0.4246 -1.5190 -0.3118
  351MOL0     H47338   2.548  11.656   2.661 -0.2532 -5.1427  1.9446
  351MOL0     H47339   2.711  11.792   2.718 -0.9192 -0.2703 -0.8018
  351MOL0     H47340   2.784  11.658   2.777  1.0643  1.0888  0.1229
  351MOL0     H47341   2.843  11.756   2.497 -2.0541 -0.8193 -0.3474
  351MOL0     H47342   2.944  11.638   2.591  2.3140  1.1582  5.0449
  351MOL0     H47343   2.911  11.921   2.702 -0.9963 -0.0067  0.1834
  351MOL0     H47344   3.032  11.881   2.584  0.1332 -1.7511 -1.7186
  351MOL0     H47345   3.047  11.942   2.957 -0.1341 -0.7656 -0.3758
  351MOL0     H47346   3.221  12.085   3.026  0.4385  1.1167  0.0749
  351MOL0     H47347   3.694  12.316   2.658 -1.3402 -1.7206 -0.2886
  351MOL0     H47348   3.895  12.434   2.702 -1.9325  1.6045 -0.0413
  351MOL0     H47349   4.215  12.449   3.023  0.7111 -0.3645  0.3510
  351MOL0     H47350   4.120  12.302   3.067 -1.5937  0.2316 -1.0044
  351MOL0     H47351   4.165  12.228   2.813 -0.4520  1.7882 -0.7153
  351MOL0     H47352   4.281  12.358   2.801  0.3084  0.0637  0.7080
  351MOL0     H47353   4.286  12.130   2.982  4.1406 -1.7984  2.3265
  351MOL0     H47354   4.393  12.154   2.836  0.9019  2.4787 -0.3706
  351MOL0     H47355   4.402  12.288   3.101  1.8572 -0.5836  0.6586
  351MOL0     H47356   4.494  12.358   2.971 -0.0212  1.0823  1.8605
  351MOL0     H47357   4.513  12.083   3.063 -1.7196  1.7200  3.1744
  351MOL0     H47358   4.616  12.204   3.134 -0.8966  0.6110  0.3734
  351MOL0     H47359   4.607  12.080   2.864 -1.8191  1.2948  0.4753
  351MOL0     H47360   4.679  12.245   2.874 -0.3546 -0.3493 -0.8619
  351MOL0     H47361   4.770  12.000   3.051 -1.5824 -0.3416 -0.7907
  351MOL0     H47362   4.846  12.151   3.056  0.4737 -0.2496 -0.6185
  351MOL0     H47363   4.976  11.980   2.920 -0.2247 -0.5844  0.8886
  351MOL0     H47364   4.834  11.974   2.806  1.1403 -1.5625  0.5339
  351MOL0     H47365   3.894  12.254   3.104  0.4821 -0.5295  0.5933
  351MOL0     H47366   3.716  12.109   3.031  0.2688 -2.9366 -3.0476
  351MOL0     H47367   3.474  11.932   2.711  1.6974 -0.4578  2.0495
  351MOL0     H47368   3.304  11.775   2.650  3.7419  1.2319 -0.4040
  351MOL0     H47369   1.748  10.783   2.062 -0.1813  0.1971 -0.8386
  351MOL0     H47370   1.522  10.740   1.957 -1.6373 -1.7120 -0.7797
  351MOL0     H47371   1.308  10.153   1.830  1.0180  0.9429  0.4808
  351MOL0     H47372   1.065  10.068   1.795  0.4862  0.6344 -4.7069
  351MOL0     H47373   0.746  10.366   1.811 -1.8251  1.6286  1.8552
  351MOL0     H47374   0.749  10.339   1.980 -2.2244  0.6036 -0.7641
  351MOL0     H47375   0.596  10.128   1.940 -0.0874 -0.9157 -1.5005
  351MOL0     H47376   0.580  10.192   1.780 -0.1840 -0.1432 -0.0619
  351MOL0     H47377   0.518  10.398   1.851  1.5170  0.2756  1.7290
  351MOL0     H47378   0.495  10.342   2.028 -3.4800  1.9880  0.0232
  351MOL0     H47379   0.342  10.264   1.783 -0.9040 -1.2109  0.1954
  351MOL0     H47380   0.342  10.157   1.923  2.1389 -0.2112 -0.3235
  351MOL0     H47381   0.059  10.440   2.023 -0.2579  0.2075 -1.5898
  351MOL0     H47382   0.916  10.461   1.899  1.2567  1.5951  0.8631
  351MOL0     H47383   1.128  10.628   1.991 -2.9830  3.2596 -0.7268
  351MOL0     H47384   1.226  10.627   1.842  1.1231 -1.4262  1.2738
  351MOL0     H47385   1.051  10.633   1.829  2.1679  2.9450 -1.4116
  352MOL0     O47386   3.421   1.127  10.089  0.2635 -0.0467 -0.8859
  352MOL0     C47387   3.375   1.021  10.056  0.9100  0.8846 -1.6678
  352MOL0     O47388   3.425   0.897  10.100 -0.7806 -0.4285 -0.1911
  352MOL0     C47389   3.539   0.900  10.178  0.3047 -0.4802 -0.2884
  352MOL0     C47390   3.525   0.925  10.316  0.7836  0.1568  0.3706
  352MOL0     C47391   3.635   0.925  10.401 -0.0279  0.9262 -0.1246
  352MOL0     C47392   3.760   0.906  10.346 -0.1739  0.5213  0.7755
  352MOL0     O47393   3.868   0.918  10.422 -0.6044 -0.2697  0.5552
  352MOL0     C47394   3.997   0.981  10.373 -0.1301  0.0668  0.1749
  352MOL0     C47395   4.114   0.913  10.439 -0.4375  0.3296 -0.3761
  352MOL0     C47396   4.241   0.992  10.428 -0.9786  0.2449 -0.4636
  352MOL0     C47397   4.368   0.903  10.448  0.1707 -0.9931 -0.2061
  352MOL0     C47398   4.492   0.984  10.446  0.3350  0.4253 -0.6687
  352MOL0     C47399   4.602   0.891  10.480  0.0250  0.2017 -0.2162
  352MOL0     C47400   4.751   0.935  10.451  0.9149  0.1680 -0.4047
  352MOL0     C47401   4.787   1.068  10.520 -0.1966  0.2626  0.5781
  352MOL0     N47402   4.786   1.061  10.670  0.3956 -0.0517  1.2280
  352MOL0     C47403   4.871   0.980  10.742  0.1372 -0.1304 -0.3319
  352MOL0     C47404   4.889   1.051  10.861  0.8815 -0.4794  0.6468
  352MOL0     C47405   4.978   0.995  10.969 -0.2626  0.0969  1.1016
  352MOL0     C47406   5.127   0.993  10.949 -0.3323  0.6481  0.2871
  352MOL0     C47407   5.190   1.131  10.925  0.2888 -0.3268 -0.4822
  352MOL0     C47408   5.339   1.123  10.904 -0.3555  0.6201 -0.0689
  352MOL0     O47409   5.405   1.046  11.006 -0.3967 -0.5149 -0.5673
  352MOL0     C47410   5.533   1.003  10.991  0.3359 -0.2313 -0.1091
  352MOL0     C47411   5.606   1.040  10.882 -0.6827 -0.5213 -0.3077
  352MOL0     C47412   5.740   1.003  10.870 -0.3612 -0.1119  0.1746
  352MOL0     C47413   5.802   0.929  10.975  0.5001 -0.7719 -0.0922
  352MOL0     C47414   5.946   0.892  10.973 -0.2652 -0.0087 -0.6506
  352MOL0     O47415   5.990   0.806  11.072 -0.2651  0.2058 -0.5881
  352MOL0     C47416   6.125   0.773  11.078  0.6651 -0.2527  0.0394
  352MOL0     C47417   6.220   0.750  10.973 -0.4191  0.4710  0.2226
  352MOL0     C47418   6.351   0.720  11.009  0.3838 -0.1661 -0.2441
  352MOL0     C47419   6.395   0.718  11.135  0.2854 -0.7187  0.9486
  352MOL0     O47420   6.526   0.682  11.161  0.3064 -0.9962 -0.5934
  352MOL0     C47421   6.583   0.693  11.288  0.1407  0.0489 -0.2117
  352MOL0     C47422   6.732   0.667  11.273  0.2085  0.7961 -0.4104
  352MOL0     C47423   6.758   0.527  11.214  0.8555 -0.0159  0.4050
  352MOL0     C47424   6.892   0.473  11.253  0.6531 -1.1279  0.0266
  352MOL0     C47425   6.911   0.322  11.202  0.0364 -0.1849 -0.0604
  352MOL0     C47426   6.819   0.221  11.263  0.5296  0.0601  0.1496
  352MOL0     C47427   6.880   0.085  11.222  0.8809 -0.3431  0.6596
  352MOL0     C47428   6.774  -0.022  11.266  0.0362 -0.2356  0.5718
  352MOL0    Cl47429   6.868  -0.170  11.256 -0.1806  0.6453  0.1236
  352MOL0     C47430   6.297   0.728  11.235 -0.1554  0.8618 -0.4527
  352MOL0     C47431   6.166   0.749  11.209  0.5437  0.5143 -0.2033
  352MOL0     O47432   6.007   0.933  10.880  0.4862  0.0637  0.2831
  352MOL0     C47433   5.724   0.886  11.079  0.8012 -0.2331 -0.5878
  352MOL0     C47434   5.594   0.928  11.095 -0.6120  0.1558  1.2613
  352MOL0     N47435   4.828   1.176  10.853  0.0230 -0.5485 -0.1050
  352MOL0     N47436   4.767   1.178  10.738  0.5881  0.5509  0.2469
  352MOL0     C47437   3.769   0.867  10.211  0.0524  0.5628 -0.7104
  352MOL0     C47438   3.665   0.870  10.120 -0.3456 -0.7228 -0.9267
  352MOL0     C47439   3.259   1.015   9.958 -0.1594  0.3477  0.2986
  352MOL0     C47440   3.171   0.904   9.962 -0.1319 -0.0207 -0.5509
  352MOL0     C47441   3.063   0.893   9.878  0.0642  0.1209 -0.0683
  352MOL0     C47442   3.040   0.993   9.773 -0.8633  0.3604 -0.2523
  352MOL0     O47443   2.939   0.978   9.682  0.8575  0.3409  0.2586
  352MOL0     C47444   2.869   0.849   9.686 -0.8738 -0.3627  0.5306
  352MOL0     C47445   2.768   0.832   9.564 -0.4236 -0.3761 -0.0164
  352MOL0     C47446   2.840   0.871   9.435  0.6379  0.2872 -0.5133
  352MOL0     C47447   2.986   0.805   9.425  1.1709 -0.5123 -0.1391
  352MOL0     C47448   3.039   0.792   9.291 -0.1673  0.1117 -0.0902
  352MOL0     C47449   3.084   0.788   9.179 -0.0616  0.0213 -0.3319
  352MOL0     C47450   3.136   1.094   9.759 -0.3604 -0.1588 -1.0108
  352MOL0     C47451   3.241   1.106   9.851 -0.0589  0.2992 -0.2402
  352MOL0     C47452   3.323   1.235   9.838 -0.2189 -0.0743  0.2197
  352MOL0     H47453   3.433   0.937  10.373  1.0733  0.6335  0.7463
  352MOL0     H47454   3.624   0.933  10.509  2.1339 -2.1029  0.4528
  352MOL0     H47455   4.015   0.976  10.266  1.9507 -0.6997  0.5203
  352MOL0     H47456   4.007   1.087  10.401 -1.4140  0.0994  0.5595
  352MOL0     H47457   4.122   0.814  10.393 -0.9870  0.8006 -1.5309
  352MOL0     H47458   4.098   0.903  10.547  1.0801 -0.7307 -0.2049
  352MOL0     H47459   4.248   1.084  10.487  0.2466  0.3597 -0.7581
  352MOL0     H47460   4.237   1.023  10.324  0.5458  2.1923 -0.0079
  352MOL0     H47461   4.369   0.845  10.540 -0.6851 -1.8968 -0.7471
  352MOL0     H47462   4.377   0.827  10.370  0.6076  0.0832 -1.2425
  352MOL0     H47463   4.496   1.035  10.349 -0.5409  4.8813  1.4024
  352MOL0     H47464   4.486   1.067  10.517 -2.0666 -0.9299  0.8789
  352MOL0     H47465   4.585   0.871  10.586  0.7016  1.1201  0.0801
  352MOL0     H47466   4.586   0.796  10.429 -0.6706 -0.9437  2.0168
  352MOL0     H47467   4.758   0.948  10.343 -1.2322  0.3345 -0.5803
  352MOL0     H47468   4.816   0.856  10.489 -0.5741  0.1434  2.3861
  352MOL0     H47469   4.886   1.098  10.485 -0.0681 -2.1246 -1.3731
  352MOL0     H47470   4.716   1.139  10.476  1.5910  0.7860 -1.6431
  352MOL0     H47471   4.909   0.882  10.716 -3.9148 -1.9389 -0.2377
  352MOL0     H47472   4.969   1.052  11.062  0.0123  2.0812 -0.0485
  352MOL0     H47473   4.955   0.890  10.992  3.0083 -1.1258 -0.4269
  352MOL0     H47474   5.164   0.943  11.039  0.3898  1.0290  0.2072
  352MOL0     H47475   5.165   0.923  10.874 -0.0565  0.6640  0.4096
  352MOL0     H47476   5.173   1.189  11.017 -2.4099 -0.2150 -0.9659
  352MOL0     H47477   5.137   1.188  10.848 -0.1963 -0.2577 -0.1039
  352MOL0     H47478   5.392   1.219  10.905  2.5617 -0.8533  0.8103
  352MOL0     H47479   5.348   1.088  10.800 -0.1803  0.1851  0.0888
  352MOL0     H47480   5.568   1.093  10.795 -0.1628  0.4090  0.0190
  352MOL0     H47481   5.787   1.019  10.774 -0.3874  0.7273  0.2954
  352MOL0     H47482   6.175   0.760  10.874  1.1442 -2.4009 -0.8983
  352MOL0     H47483   6.427   0.692  10.936  0.0103  0.7409 -0.9937
  352MOL0     H47484   6.569   0.797  11.319  1.1869  0.3942 -0.8374
  352MOL0     H47485   6.533   0.644  11.372 -3.1154  0.5930 -1.6829
  352MOL0     H47486   6.767   0.737  11.196 -3.4209  1.4955 -1.6203
  352MOL0     H47487   6.785   0.681  11.368  1.9452  0.7599 -1.3305
  352MOL0     H47488   6.677   0.456  11.234 -0.3686  0.6326 -1.8899
  352MOL0     H47489   6.762   0.540  11.105 -1.5338  3.3130  0.5589
  352MOL0     H47490   6.901   0.474  11.362  0.4867 -1.0837  0.0402
  352MOL0     H47491   6.970   0.541  11.216  0.0082 -0.6606 -0.4970
  352MOL0     H47492   7.014   0.292  11.225  0.3449  1.3484  0.6745
  352MOL0     H47493   6.903   0.305  11.094 -3.8923 -3.1635  0.5116
  352MOL0     H47494   6.807   0.241  11.370 -1.2648  2.2942 -0.3738
  352MOL0     H47495   6.718   0.234  11.222  0.9363  2.7859 -0.1632
  352MOL0     H47496   6.964   0.060  11.288  2.9238 -0.3818 -1.7734
  352MOL0     H47497   6.911   0.080  11.117 -1.1816 -0.6088  0.0302
  352MOL0     H47498   6.737  -0.011  11.369  1.9000  1.3855  1.1286
  352MOL0     H47499   6.691  -0.019  11.196 -0.0896 -0.7269  0.6941
  352MOL0     H47500   6.320   0.707  11.339  0.3262 -0.5455 -0.8166
  352MOL0     H47501   6.092   0.749  11.289  0.3909 -0.1798 -0.3388
  352MOL0     H47502   5.766   0.821  11.155  0.1406 -1.0676 -0.9236
  352MOL0     H47503   5.530   0.903  11.178 -0.1484 -0.9138  1.3126
  352MOL0     H47504   3.867   0.856  10.164  0.8631  0.8745  0.8469
  352MOL0     H47505   3.696   0.852  10.018  1.2189 -4.5104  0.0375
  352MOL0     H47506   3.176   0.834  10.045 -1.4842 -0.2597 -0.6572
  352MOL0     H47507   3.014   0.797   9.893 -1.0669  0.9711  2.2208
  352MOL0     H47508   2.811   0.832   9.778 -0.1507 -2.4361  0.6543
  352MOL0     H47509   2.945   0.771   9.679 -0.9801 -0.5287  1.1414
  352MOL0     H47510   2.679   0.892   9.581 -0.1263  0.4827 -1.3379
  352MOL0     H47511   2.736   0.729   9.554 -0.0131 -0.3188 -2.2667
  352MOL0     H47512   2.860   0.979   9.440 -1.4092  0.6659  0.1663
  352MOL0     H47513   2.790   0.840   9.342 -0.1217  1.0306 -0.3640
  352MOL0     H47514   3.061   0.861   9.480  0.7939 -1.8809  1.8794
  352MOL0     H47515   2.995   0.710   9.478  0.7291  1.3361  3.5360
  352MOL0     H47516   3.131   0.772   9.084  2.5874  0.4833  0.8080
  352MOL0     H47517   3.132   1.162   9.675  2.2802  1.4712  0.0508
  352MOL0     H47518   3.427   1.235   9.872 -0.4573  1.0360  1.0329
  352MOL0     H47519   3.335   1.260   9.732  1.6148 -0.6037  0.2702
  352MOL0     H47520   3.265   1.309   9.894 -0.4498 -0.3890  0.4000
  353MOL0     O47521   2.145   6.116   1.950  0.3440  0.2186 -0.2096
  353MOL0     C47522   2.060   6.200   1.939 -0.4736 -0.3072 -0.1752
  353MOL0     O47523   2.086   6.330   1.951 -0.3124  0.1483  0.3449
  353MOL0     C47524   2.208   6.392   1.991 -0.6042 -0.1512  0.2575
  353MOL0     C47525   2.220   6.525   1.973  0.8132 -0.1968 -0.1947
  353MOL0     C47526   2.330   6.598   2.018  1.0863  1.0964 -0.2090
  353MOL0     C47527   2.438   6.537   2.073 -0.4763 -0.3520  0.7053
  353MOL0     O47528   2.538   6.620   2.106 -0.0692 -0.1536  0.1409
  353MOL0     C47529   2.502   6.740   2.176 -0.8314 -0.2606 -0.2425
  353MOL0     C47530   2.616   6.800   2.268 -0.2225 -0.4313 -0.0178
  353MOL0     C47531   2.761   6.814   2.201  0.5509 -0.1653 -0.0160
  353MOL0     C47532   2.879   6.842   2.299  0.3869 -0.3639 -0.0247
  353MOL0     C47533   3.003   6.864   2.215 -0.5199 -0.5445  0.9848
  353MOL0     C47534   3.119   6.900   2.302 -0.4529 -0.3366  0.4303
  353MOL0     C47535   3.249   6.927   2.225  0.5740  0.1729  0.6665
  353MOL0     C47536   3.373   6.912   2.317  0.2584  0.4942  0.0437
  353MOL0     N47537   3.376   7.021   2.408  0.3539 -0.2098 -0.4454
  353MOL0     C47538   3.442   7.138   2.385  0.0175 -0.7370 -0.8001
  353MOL0     C47539   3.425   7.213   2.500  0.8292 -0.3896 -0.2382
  353MOL0     C47540   3.469   7.359   2.498  0.4520  0.0413  0.6036
  353MOL0     C47541   3.620   7.365   2.485 -0.7590 -0.0625 -0.7185
  353MOL0     C47542   3.691   7.313   2.601 -0.2343  0.6441  0.0656
  353MOL0     C47543   3.849   7.327   2.569  0.9391  0.1031  0.0609
  353MOL0     O47544   3.896   7.465   2.551  0.1481  1.0982 -0.6181
  353MOL0     C47545   4.031   7.473   2.561 -1.2532 -0.7316 -0.5531
  353MOL0     C47546   4.126   7.374   2.544 -0.6686 -0.8406  0.0802
  353MOL0     C47547   4.268   7.405   2.548 -0.3781  0.3761  0.2599
  353MOL0     C47548   4.311   7.537   2.566 -0.5902 -0.0990 -0.3678
  353MOL0     C47549   4.458   7.585   2.577  0.8440  0.5427  1.5040
  353MOL0     O47550   4.479   7.720   2.576 -0.1231 -0.4081  0.2445
  353MOL0     C47551   4.608   7.756   2.558 -0.1324 -0.5791  0.4908
  353MOL0     C47552   4.682   7.758   2.674 -0.3120 -0.9252  0.1284
  353MOL0     C47553   4.820   7.771   2.664  0.3729 -0.5612  0.2249
  353MOL0     C47554   4.878   7.792   2.533 -0.4761 -0.8347 -0.6992
  353MOL0     O47555   5.006   7.820   2.515 -0.2246  0.3845  0.4367
  353MOL0     C47556   5.098   7.809   2.620  0.7487  0.1327  0.2925
  353MOL0     C47557   5.244   7.818   2.575  0.2938 -0.1535  0.5385
  353MOL0     C47558   5.268   7.719   2.467  0.3453  0.0954 -0.0233
  353MOL0     C47559   5.417   7.715   2.439 -0.1029  0.4911  0.7396
  353MOL0     C47560   5.451   7.618   2.316  0.0686  0.0123  0.2294
  353MOL0     C47561   5.606   7.604   2.302  0.6019  0.9256 -0.3608
  353MOL0     C47562   5.639   7.488   2.214 -0.3212  0.4138  1.0371
  353MOL0     C47563   5.640   7.512   2.060 -0.3904 -0.0195  0.3800
  353MOL0    Cl47564   5.473   7.519   1.992 -0.3118  0.0628  0.6947
  353MOL0     C47565   4.794   7.795   2.421  0.1666 -0.3288  0.5999
  353MOL0     C47566   4.655   7.797   2.430 -0.2215 -0.3664 -0.5598
  353MOL0     O47567   4.536   7.500   2.595 -0.2852  0.8288  0.0062
  353MOL0     C47568   4.212   7.634   2.592 -0.2310  0.5237  0.0077
  353MOL0     C47569   4.082   7.599   2.579  0.0669  0.1072  0.0925
  353MOL0     N47570   3.364   7.130   2.585  0.0442  0.2801 -0.4195
  353MOL0     N47571   3.324   7.018   2.535  0.0995  0.5266 -0.8350
  353MOL0     C47572   2.436   6.398   2.081  0.8880 -0.5474  0.4499
  353MOL0     C47573   2.322   6.328   2.038 -0.0536  0.2196 -0.6276
  353MOL0     C47574   1.927   6.153   1.888 -0.3573  0.3139 -0.1819
  353MOL0     C47575   1.852   6.257   1.834 -0.1619  0.5703  0.6185
  353MOL0     C47576   1.730   6.224   1.773 -0.5195  0.6346  0.6568
  353MOL0     C47577   1.678   6.095   1.773 -0.0818 -0.1259  0.0052
  353MOL0     O47578   1.565   6.080   1.704 -0.3826 -0.2052  0.1553
  353MOL0     C47579   1.483   5.965   1.714 -0.4018  0.5186 -0.4886
  353MOL0     C47580   1.372   5.975   1.609 -0.1186  0.0587  0.0229
  353MOL0     C47581   1.293   5.852   1.611  0.1612  0.3343 -0.3647
  353MOL0     C47582   1.179   5.849   1.511  0.6453  0.4350  0.0971
  353MOL0     C47583   1.086   5.734   1.554 -0.6752  0.4406  0.7418
  353MOL0     C47584   1.023   5.635   1.578 -0.1396 -1.1102  0.0971
  353MOL0     C47585   1.761   5.994   1.821 -0.0535  1.2173  0.5076
  353MOL0     C47586   1.888   6.017   1.877  0.0947 -0.0005  0.2187
  353MOL0     C47587   1.965   5.897   1.925 -0.3838  0.0097 -0.0259
  353MOL0     H47588   2.147   6.597   1.938  1.3862  0.7778  0.5270
  353MOL0     H47589   2.329   6.707   2.011 -1.1119  1.1341  0.0655
  353MOL0     H47590   2.482   6.826   2.111  0.1080 -0.0060 -0.2047
  353MOL0     H47591   2.416   6.739   2.244  1.6755 -0.6774  3.1603
  353MOL0     H47592   2.636   6.728   2.347  0.9523 -0.8340 -0.6533
  353MOL0     H47593   2.578   6.890   2.318  0.3811  0.4318 -1.0481
  353MOL0     H47594   2.753   6.899   2.132 -1.0940 -0.3563 -0.0925
  353MOL0     H47595   2.776   6.720   2.147  1.7846 -1.6694  2.7352
  353MOL0     H47596   2.869   6.940   2.346 -0.1562  0.1013 -1.0890
  353MOL0     H47597   2.892   6.763   2.374  2.4377 -0.6247 -0.5922
  353MOL0     H47598   3.041   6.778   2.160  0.4754  0.4324  0.0987
  353MOL0     H47599   2.989   6.946   2.143 -3.5999 -0.1363  1.8871
  353MOL0     H47600   3.090   6.990   2.358 -0.4479  1.1684 -1.8571
  353MOL0     H47601   3.139   6.822   2.376 -1.3107 -1.0439 -0.0739
  353MOL0     H47602   3.243   7.026   2.177 -1.0942  0.4014  1.2836
  353MOL0     H47603   3.268   6.846   2.154 -1.9469 -0.3023  0.4418
  353MOL0     H47604   3.381   6.816   2.369  1.9885  0.6915  0.2072
  353MOL0     H47605   3.460   6.922   2.251  0.9595 -0.4786  0.7757
  353MOL0     H47606   3.490   7.179   2.296  1.6962  1.3802  0.9509
  353MOL0     H47607   3.423   7.415   2.416  2.4381 -0.5207 -0.9625
  353MOL0     H47608   3.426   7.400   2.590 -2.2410  2.7761 -1.6511
  353MOL0     H47609   3.653   7.309   2.397  0.5889 -1.4269  0.5886
  353MOL0     H47610   3.650   7.470   2.474  2.0102 -0.7783 -0.6287
  353MOL0     H47611   3.664   7.207   2.609  0.2033  0.5216 -0.0497
  353MOL0     H47612   3.665   7.368   2.692 -0.8560 -2.8081  2.1942
  353MOL0     H47613   3.876   7.261   2.485 -0.3842 -0.5136  0.0877
  353MOL0     H47614   3.901   7.289   2.657 -0.7125 -3.0580 -0.1660
  353MOL0     H47615   4.100   7.271   2.522 -3.1003  0.0286 -1.5496
  353MOL0     H47616   4.341   7.326   2.530 -0.5805  0.2965 -0.2319
  353MOL0     H47617   4.634   7.739   2.769  0.1906 -1.2492  0.3227
  353MOL0     H47618   4.874   7.786   2.757 -3.7754  0.4830  2.7481
  353MOL0     H47619   5.087   7.892   2.690  0.4350 -0.9284  1.5387
  353MOL0     H47620   5.087   7.715   2.675 -0.4679  0.5888  0.8571
  353MOL0     H47621   5.255   7.917   2.530  1.5204 -1.0876 -1.3114
  353MOL0     H47622   5.319   7.811   2.654  0.8452  0.8875  0.1320
  353MOL0     H47623   5.244   7.624   2.515 -2.2467  1.1211  0.8996
  353MOL0     H47624   5.211   7.735   2.375  0.0890 -0.5520  0.0202
  353MOL0     H47625   5.475   7.690   2.528  0.6818 -2.4344 -0.4681
  353MOL0     H47626   5.450   7.816   2.414 -2.8094  1.7898  1.9738
  353MOL0     H47627   5.405   7.666   2.230  0.9843 -0.1585 -0.3720
  353MOL0     H47628   5.412   7.518   2.339 -0.3639 -0.3322 -1.8434
  353MOL0     H47629   5.651   7.699   2.272  0.3588  0.8236 -1.0642
  353MOL0     H47630   5.650   7.579   2.399  0.8921 -1.5520 -1.0770
  353MOL0     H47631   5.564   7.410   2.231 -0.5365  0.3147 -0.2416
  353MOL0     H47632   5.733   7.445   2.250  0.2115  0.0325 -0.7032
  353MOL0     H47633   5.683   7.611   2.043 -0.1990 -0.0778  0.5173
  353MOL0     H47634   5.703   7.434   2.016  0.4098  1.1379 -0.5740
  353MOL0     H47635   4.828   7.815   2.320 -1.0133  2.3623  0.6450
  353MOL0     H47636   4.588   7.810   2.346  0.3220  1.3773 -0.7719
  353MOL0     H47637   4.235   7.739   2.609 -0.7324  0.1919  3.3230
  353MOL0     H47638   4.004   7.675   2.582 -0.2139 -0.1777  3.3000
  353MOL0     H47639   2.527   6.353   2.120  0.8555  0.7707  2.1410
  353MOL0     H47640   2.326   6.220   2.036  0.3410  0.1689  1.1396
  353MOL0     H47641   1.881   6.361   1.825  1.6848  0.0395  0.0443
  353MOL0     H47642   1.663   6.294   1.726  0.0279  0.2654 -0.7319
  353MOL0     H47643   1.430   5.954   1.808  0.2845 -2.8584 -0.3632
  353MOL0     H47644   1.539   5.873   1.692  0.5582  1.3711 -1.8249
  353MOL0     H47645   1.417   5.985   1.510  1.9450  0.9609  0.9815
  353MOL0     H47646   1.309   6.061   1.631  0.2348  0.5431 -0.8244
  353MOL0     H47647   1.263   5.846   1.716  2.3918 -3.1032  0.2545
  353MOL0     H47648   1.359   5.768   1.587 -0.1203  0.2889 -0.9793
  353MOL0     H47649   1.119   5.939   1.522  0.4077  0.3301 -0.3387
  353MOL0     H47650   1.206   5.832   1.407  2.3808 -5.0080  1.0659
  353MOL0     H47651   0.963   5.547   1.588  1.8739 -3.0485 -3.0352
  353MOL0     H47652   1.716   5.896   1.805  2.0546  0.5038 -1.7447
  353MOL0     H47653   2.027   5.910   2.015 -0.1204  0.6761 -0.2983
  353MOL0     H47654   1.889   5.822   1.949 -0.5645  0.4296  0.7222
  353MOL0     H47655   2.039   5.857   1.854 -0.1145 -1.4317  1.0124
  354MOL0     O47656   1.013   6.733   8.966 -0.0536  0.6673  0.0390
  354MOL0     C47657   0.926   6.690   9.037  0.4064  0.3740  0.0582
  354MOL0     O47658   0.936   6.598   9.132  0.2428  0.4903  0.3799
  354MOL0     C47659   1.063   6.575   9.183 -0.6009 -0.0102  0.3575
  354MOL0     C47660   1.152   6.671   9.231  0.1688 -0.0970  0.0554
  354MOL0     C47661   1.278   6.647   9.279  1.0324  0.4847 -0.8767
  354MOL0     C47662   1.312   6.513   9.307 -0.9237 -0.0075  0.8733
  354MOL0     O47663   1.429   6.474   9.365 -1.1568 -0.5490  0.9217
  354MOL0     C47664   1.547   6.561   9.342 -0.3389 -0.1847 -0.1633
  354MOL0     C47665   1.680   6.493   9.400  0.7868 -0.2031  0.4294
  354MOL0     C47666   1.737   6.381   9.309  0.2258 -0.7794 -0.0261
  354MOL0     C47667   1.842   6.300   9.379  0.1833 -0.3917 -0.2915
  354MOL0     C47668   1.967   6.392   9.407 -0.0265  0.9329 -0.4517
  354MOL0     C47669   2.085   6.305   9.468 -0.0634 -1.0186  1.5097
  354MOL0     C47670   2.216   6.391   9.493  0.2481  0.1593 -0.5547
  354MOL0     C47671   2.194   6.494   9.611 -0.4604 -0.9672 -0.4239
  354MOL0     N47672   2.138   6.432   9.731  0.5199  1.1431 -0.4593
  354MOL0     C47673   2.206   6.344   9.816 -0.0226  0.1171  0.3776
  354MOL0     C47674   2.119   6.323   9.920  0.3126  0.2648 -1.1019
  354MOL0     C47675   2.152   6.256  10.051  0.8818  0.3924  0.1216
  354MOL0     C47676   2.259   6.140  10.037 -0.6776 -0.0838  0.4285
  354MOL0     C47677   2.294   6.078  10.166  0.0277 -0.3221  0.7046
  354MOL0     C47678   2.421   6.115  10.221 -0.3931 -0.0280 -0.8643
  354MOL0     O47679   2.432   6.256  10.215  0.2998 -0.2544 -0.2355
  354MOL0     C47680   2.543   6.315  10.259 -0.5217 -0.4931 -0.3362
  354MOL0     C47681   2.658   6.248  10.302  1.0390  0.4327 -0.4253
  354MOL0     C47682   2.780   6.309  10.340  1.5245  0.2312  0.0360
  354MOL0     C47683   2.782   6.449  10.357  0.3225  0.6531  0.1883
  354MOL0     C47684   2.907   6.515  10.403 -0.0573  0.4427 -0.1696
  354MOL0     O47685   3.004   6.439  10.435 -0.2574  0.2474 -0.2984
  354MOL0     C47686   3.125   6.492  10.435  0.0668 -0.7022 -0.6358
  354MOL0     C47687   3.180   6.569  10.332 -0.1865 -0.3600  1.0129
  354MOL0     C47688   3.291   6.650  10.352 -0.7836 -0.3095  0.2035
  354MOL0     C47689   3.364   6.641  10.469 -0.2781 -0.2867  0.3620
  354MOL0     O47690   3.492   6.691  10.487  0.6309  0.3405  0.1524
  354MOL0     C47691   3.565   6.751  10.381  0.3354 -0.2038 -0.7792
  354MOL0     C47692   3.705   6.803  10.412 -0.3662 -0.2077  0.2016
  354MOL0     C47693   3.769   6.776  10.545 -0.3852  0.8764  0.4661
  354MOL0     C47694   3.923   6.795  10.535  0.5029  0.2764 -0.7130
  354MOL0     C47695   3.956   6.837  10.678 -0.1577  0.3801  1.0028
  354MOL0     C47696   4.112   6.839  10.686  0.7888  0.4720 -0.4394
  354MOL0     C47697   4.180   6.942  10.609  1.2618 -0.2083 -0.2727
  354MOL0     C47698   4.125   7.079  10.645 -0.5867 -0.5638 -0.3145
  354MOL0    Cl47699   4.230   7.213  10.591  0.2101 -0.0922 -0.5635
  354MOL0     C47700   3.319   6.555  10.569  0.2265 -0.7944  0.0220
  354MOL0     C47701   3.204   6.486  10.552 -0.1120 -0.1463  0.4341
  354MOL0     O47702   2.896   6.635  10.415 -0.3367  1.0197  0.4979
  354MOL0     C47703   2.662   6.525  10.329 -0.2360  0.5464  0.0320
  354MOL0     C47704   2.548   6.464  10.282 -0.6785  0.5896  0.5417
  354MOL0     N47705   1.998   6.389   9.899 -0.0787  0.1002  0.6954
  354MOL0     N47706   2.015   6.443   9.780 -0.2807  0.5999  0.8042
  354MOL0     C47707   1.226   6.412   9.259 -1.1552  0.5134 -0.4695
  354MOL0     C47708   1.100   6.438   9.200 -0.6920 -0.1696 -0.5833
  354MOL0     C47709   0.784   6.742   9.006  0.1940 -0.6166 -0.4429
  354MOL0     C47710   0.677   6.690   9.074  1.0608 -0.2456 -0.9063
  354MOL0     C47711   0.545   6.739   9.065 -0.4176 -0.4826  0.0559
  354MOL0     C47712   0.517   6.838   8.969 -0.8195 -0.4692 -0.5508
  354MOL0     O47713   0.391   6.883   8.938  0.0460 -0.2730 -0.0523
  354MOL0     C47714   0.277   6.819   8.997 -0.1803  0.1030 -0.2928
  354MOL0     C47715   0.144   6.874   8.944  0.0553  0.0928  0.6009
  354MOL0     C47716   0.117   7.020   8.992  0.2665 -0.0642  0.6849
  354MOL0     C47717  -0.005   7.074   8.936 -0.3599 -0.0083 -0.2911
  354MOL0     C47718  -0.041   7.199   9.009 -0.4365  1.0616 -0.8714
  354MOL0     C47719  -0.062   7.296   9.069  0.0887 -0.4460 -1.3390
  354MOL0     C47720   0.631   6.892   8.906 -0.2885  0.3111  0.1000
  354MOL0     C47721   0.757   6.848   8.924  0.6309 -0.0671 -0.4483
  354MOL0     C47722   0.866   6.935   8.861  0.7126  0.6545 -0.3828
  354MOL0     H47723   1.104   6.768   9.228  3.2964  1.5406 -0.8182
  354MOL0     H47724   1.338   6.729   9.316  4.4704 -2.2049  0.0127
  354MOL0     H47725   1.563   6.574   9.235 -1.4728  0.5676 -0.2629
  354MOL0     H47726   1.528   6.654   9.396  0.2629 -1.0778  1.6885
  354MOL0     H47727   1.659   6.454   9.500  0.7645 -0.5879  0.2769
  354MOL0     H47728   1.752   6.575   9.408  0.5955 -0.0266  0.3595
  354MOL0     H47729   1.776   6.429   9.219  0.1588  1.9874  1.2997
  354MOL0     H47730   1.653   6.326   9.264 -1.7456  2.2435 -0.3678
  354MOL0     H47731   1.813   6.268   9.480  0.9176  1.6149  0.6151
  354MOL0     H47732   1.872   6.219   9.312 -0.1352 -0.2480 -0.6146
  354MOL0     H47733   2.002   6.435   9.313  1.2918 -0.7244 -0.7503
  354MOL0     H47734   1.938   6.466   9.483 -0.6814  0.5931 -0.3657
  354MOL0     H47735   2.040   6.255   9.555 -1.7608 -0.2930  1.0872
  354MOL0     H47736   2.119   6.226   9.400  1.2744  2.3023 -2.0029
  354MOL0     H47737   2.247   6.452   9.408  1.7634 -1.4138 -1.1976
  354MOL0     H47738   2.301   6.324   9.514 -1.2364 -1.0938  1.9892
  354MOL0     H47739   2.296   6.526   9.629  0.0257 -1.6046 -1.8788
  354MOL0     H47740   2.141   6.588   9.589 -0.1677  0.2241  3.2656
  354MOL0     H47741   2.302   6.300   9.791  0.1343  0.7482 -0.1368
  354MOL0     H47742   2.196   6.331  10.117  0.8848 -0.0111  0.5806
  354MOL0     H47743   2.064   6.221  10.106 -1.9226  3.1142 -2.2529
  354MOL0     H47744   2.216   6.055   9.982 -0.1354  0.3467 -0.6945
  354MOL0     H47745   2.349   6.161   9.979  0.3824 -2.2423  1.1906
  354MOL0     H47746   2.307   5.972  10.145 -1.3194  0.0078 -2.2843
  354MOL0     H47747   2.208   6.096  10.233  1.1157 -1.9168  2.6282
  354MOL0     H47748   2.505   6.078  10.161  1.0076 -1.0745  1.5753
  354MOL0     H47749   2.417   6.073  10.322  1.4323 -2.5783 -1.7498
  354MOL0     H47750   2.652   6.139  10.304 -1.1829  0.5009  0.6260
  354MOL0     H47751   2.865   6.245  10.360  2.8603  2.3350  1.3486
  354MOL0     H47752   3.124   6.585  10.240 -0.5632 -1.8075  0.9624
  354MOL0     H47753   3.335   6.703  10.268  1.1802 -0.4682  1.0834
  354MOL0     H47754   3.582   6.662  10.319  1.9726 -0.4039 -0.1014
  354MOL0     H47755   3.507   6.830  10.333 -0.9734 -1.8850 -2.0852
  354MOL0     H47756   3.769   6.758  10.335  1.0429  0.9118  0.6673
  354MOL0     H47757   3.706   6.910  10.391 -1.3288 -0.8056 -3.6500
  354MOL0     H47758   3.732   6.836  10.629 -0.6307 -0.1712  1.1206
  354MOL0     H47759   3.754   6.671  10.572  3.0504  0.2729  0.5620
  354MOL0     H47760   3.941   6.876  10.464 -2.1879  1.4258 -0.2166
  354MOL0     H47761   3.973   6.706  10.497  1.2254 -0.7003  2.2948
  354MOL0     H47762   3.925   6.762  10.751  0.1391 -0.2813  0.4615
  354MOL0     H47763   3.910   6.933  10.706 -2.5195 -0.0683 -0.9745
  354MOL0     H47764   4.145   6.848  10.789 -0.3475  0.1016 -0.0267
  354MOL0     H47765   4.135   6.737  10.654  0.6794  1.1361 -2.8457
  354MOL0     H47766   4.170   6.921  10.502  1.7954  1.8674 -0.7737
  354MOL0     H47767   4.288   6.929  10.616  1.1033 -1.3617  0.2721
  354MOL0     H47768   4.036   7.088  10.583 -1.5408  0.5304  1.1514
  354MOL0     H47769   4.105   7.082  10.752  1.7528 -0.9287  0.1937
  354MOL0     H47770   3.384   6.553  10.656  0.3393  0.3465 -0.0197
  354MOL0     H47771   3.182   6.419  10.634  1.0583 -0.0498  0.8437
  354MOL0     H47772   2.673   6.633  10.337  3.7704  0.4756 -2.0161
  354MOL0     H47773   2.455   6.514  10.256 -0.5629  0.2159 -0.6727
  354MOL0     H47774   1.254   6.307   9.262  2.2221  1.3072  0.9542
  354MOL0     H47775   1.031   6.363   9.163 -0.9167  0.4437 -1.4459
  354MOL0     H47776   0.688   6.604   9.139 -1.5370 -0.3452 -0.4837
  354MOL0     H47777   0.460   6.682   9.102 -0.2151 -2.5572 -2.3847
  354MOL0     H47778   0.271   6.829   9.106 -3.3132  0.1773 -0.3792
  354MOL0     H47779   0.288   6.713   8.971  1.3324  0.0928  0.2893
  354MOL0     H47780   0.066   6.806   8.980 -0.9288  1.4825  1.2105
  354MOL0     H47781   0.152   6.880   8.835  0.7532  1.4975  0.7067
  354MOL0     H47782   0.192   7.087   8.949 -0.8891  1.2752  0.6922
  354MOL0     H47783   0.115   7.028   9.101 -0.5690  1.5918  0.5796
  354MOL0     H47784   0.002   7.097   8.829  2.6117 -0.4643 -0.2875
  354MOL0     H47785  -0.088   7.004   8.947  0.9303 -1.6612 -0.6249
  354MOL0     H47786  -0.086   7.382   9.127  0.6377 -0.8479 -0.4997
  354MOL0     H47787   0.614   6.980   8.845  0.0280 -0.0299 -0.4885
  354MOL0     H47788   0.929   6.981   8.938 -0.9767  3.9943 -0.8222
  354MOL0     H47789   0.918   6.878   8.783  0.0493  0.1130 -0.4389
  354MOL0     H47790   0.825   7.020   8.806 -1.2293  0.7941  1.1738
  355MOL0     O47791   7.849   6.457   7.460  0.5702 -0.3704 -0.3632
  355MOL0     C47792   7.769   6.403   7.386  0.4683  0.1181  0.6887
  355MOL0     O47793   7.799   6.347   7.266  0.3481 -0.4472 -0.1749
  355MOL0     C47794   7.930   6.347   7.220  0.3113 -0.9193  0.6961
  355MOL0     C47795   8.046   6.313   7.288 -0.3757  0.8026 -0.4519
  355MOL0     C47796   8.175   6.318   7.227  0.2760 -0.0207  0.1912
  355MOL0     C47797   8.186   6.379   7.092 -0.3147  1.2956 -0.2549
  355MOL0     O47798   8.310   6.398   7.049 -0.2759 -0.0758 -0.2400
  355MOL0     C47799   8.316   6.410   6.902 -0.1391 -0.9761 -0.6665
  355MOL0     C47800   8.461   6.436   6.849 -0.0689 -0.6411 -1.2817
  355MOL0     C47801   8.471   6.518   6.717  0.3711  0.6897 -0.1473
  355MOL0     C47802   8.439   6.434   6.588  0.2904  0.2039 -0.3347
  355MOL0     C47803   8.395   6.528   6.473 -0.3830  0.0117  0.9251
  355MOL0     C47804   8.286   6.467   6.376 -0.5859 -0.1541  0.7671
  355MOL0     C47805   8.250   6.576   6.264  0.0129  0.2106 -0.4961
  355MOL0     C47806   8.158   6.515   6.159 -0.0584  1.1758  0.1266
  355MOL0     N47807   8.078   6.612   6.084  0.4609 -0.2463  0.3447
  355MOL0     C47808   8.124   6.708   5.990 -0.0078  1.0923 -0.2437
  355MOL0     C47809   8.011   6.739   5.917 -0.6721 -0.3958 -0.7051
  355MOL0     C47810   8.011   6.815   5.795 -0.1244  0.3714  0.1040
  355MOL0     C47811   7.989   6.704   5.684  0.0193  0.5550  0.2375
  355MOL0     C47812   7.973   6.774   5.554 -0.3023  0.4412  0.3218
  355MOL0     C47813   8.098   6.835   5.506  0.0056  0.2062 -0.0245
  355MOL0     O47814   8.198   6.745   5.470  0.2473 -0.1734  0.4666
  355MOL0     C47815   8.303   6.798   5.406 -0.2985 -0.1434 -0.2852
  355MOL0     C47816   8.338   6.930   5.378  0.1619  0.0305 -0.8096
  355MOL0     C47817   8.456   6.966   5.312  1.0020  0.2249 -0.0289
  355MOL0     C47818   8.553   6.878   5.281  0.4995 -0.7322  0.1508
  355MOL0     C47819   8.686   6.927   5.235 -0.2458 -0.0733  0.1568
  355MOL0     O47820   8.759   6.829   5.173  0.1828 -0.0451 -0.7219
  355MOL0     C47821   8.885   6.843   5.128 -0.1889  0.2981  0.1134
  355MOL0     C47822   8.978   6.950   5.146  0.3447 -0.7377 -0.1167
  355MOL0     C47823   9.111   6.941   5.107 -0.8292  0.7713 -0.0410
  355MOL0     C47824   9.153   6.827   5.044 -0.0866 -0.1186 -0.1074
  355MOL0     O47825   9.289   6.828   5.016 -0.1107 -0.0501  0.0235
  355MOL0     C47826   9.348   6.707   4.964  0.8169 -0.2454 -0.6601
  355MOL0     C47827   9.496   6.715   4.914 -1.2083  0.2326  0.1970
  355MOL0     C47828   9.604   6.734   5.021 -0.5557 -0.1829  0.3033
  355MOL0     C47829   9.744   6.673   4.991  0.7877  0.0269 -0.0271
  355MOL0     C47830   9.805   6.717   4.862 -0.4583  0.7898  0.4755
  355MOL0     C47831   9.956   6.677   4.851  0.4699  0.1397 -0.0643
  355MOL0     C47832  10.018   6.761   4.725  0.1365 -0.5627  0.6051
  355MOL0     C47833  10.152   6.706   4.677 -0.0932  0.0827  0.0309
  355MOL0    Cl47834  10.127   6.554   4.585  0.5993  0.0487  0.5189
  355MOL0     C47835   9.064   6.726   5.023  0.5768  1.4933  0.3591
  355MOL0     C47836   8.926   6.737   5.057  0.0563 -0.1800  0.0238
  355MOL0     O47837   8.710   7.043   5.238 -0.1287 -0.2462  0.0819
  355MOL0     C47838   8.521   6.745   5.297  0.7311 -0.5329  0.6784
  355MOL0     C47839   8.404   6.705   5.365  0.3532 -0.0632  0.8699
  355MOL0     N47840   7.906   6.674   5.977  0.9662  0.3257  0.1266
  355MOL0     N47841   7.948   6.594   6.064 -0.7715  0.2090 -0.5366
  355MOL0     C47842   8.063   6.411   7.028  0.3333 -0.6854  0.2044
  355MOL0     C47843   7.941   6.392   7.094 -0.5223 -0.3492 -0.0232
  355MOL0     C47844   7.619   6.407   7.411 -0.6330  0.2079  0.4610
  355MOL0     C47845   7.536   6.344   7.323  1.7369  0.6643  0.7878
  355MOL0     C47846   7.393   6.355   7.349 -0.4342 -0.0224  0.7766
  355MOL0     C47847   7.339   6.422   7.454  0.4177  0.1298  0.1159
  355MOL0     O47848   7.197   6.436   7.456  0.4463 -0.4514 -0.1475
  355MOL0     C47849   7.142   6.391   7.575  0.3064  0.4474  0.1393
  355MOL0     C47850   6.997   6.411   7.586  0.0431  0.8042  0.3214
  355MOL0     C47851   6.956   6.560   7.584 -0.6003  0.7124  0.2731
  355MOL0     C47852   6.808   6.556   7.543  0.7378 -0.0701 -1.1952
  355MOL0     C47853   6.720   6.502   7.648  0.0273  0.1164 -0.5868
  355MOL0     C47854   6.645   6.457   7.733  0.2203 -0.2670  0.4840
  355MOL0     C47855   7.426   6.477   7.545  0.0286  0.3264  0.3519
  355MOL0     C47856   7.562   6.480   7.519 -0.6027 -0.2353 -0.3150
  355MOL0     C47857   7.651   6.558   7.620  0.9197  0.4358 -0.2524
  355MOL0     H47858   8.032   6.266   7.385  1.2673 -1.2091 -1.1197
  355MOL0     H47859   8.270   6.285   7.267 -0.6303 -4.1337 -0.5442
  355MOL0     H47860   8.274   6.315   6.868 -0.4418 -1.3350  0.6325
  355MOL0     H47861   8.252   6.497   6.882 -0.9857 -1.7650 -1.4852
  355MOL0     H47862   8.517   6.343   6.840  1.1493 -0.0477 -0.2121
  355MOL0     H47863   8.515   6.491   6.927 -1.3975 -1.6008  0.4033
  355MOL0     H47864   8.575   6.550   6.710  0.3116  0.8230 -0.4308
  355MOL0     H47865   8.405   6.605   6.715 -0.7543 -0.1072  0.5584
  355MOL0     H47866   8.526   6.381   6.547  2.0793  2.6561  0.0524
  355MOL0     H47867   8.356   6.363   6.602  0.2962  0.1893 -0.3694
  355MOL0     H47868   8.348   6.618   6.514 -0.0394  0.9092 -0.5549
  355MOL0     H47869   8.484   6.572   6.427  0.0199 -0.3931  1.3113
  355MOL0     H47870   8.323   6.378   6.323 -0.2774  0.4799 -0.1022
  355MOL0     H47871   8.191   6.451   6.426 -1.0268 -2.9489 -0.7190
  355MOL0     H47872   8.335   6.613   6.206 -1.6022  1.9068 -1.9228
  355MOL0     H47873   8.205   6.661   6.315  0.9129  0.7837 -0.6434
  355MOL0     H47874   8.230   6.461   6.096  0.0918 -2.2778  2.9281
  355MOL0     H47875   8.093   6.438   6.201 -2.0980  4.0854  2.7064
  355MOL0     H47876   8.226   6.745   5.986 -0.1721  1.5381 -0.3363
  355MOL0     H47877   7.935   6.893   5.798 -0.0688  0.3977  0.9209
  355MOL0     H47878   8.107   6.868   5.790  0.4581 -0.7288 -1.1025
  355MOL0     H47879   8.070   6.630   5.682 -1.7312 -1.4413 -1.0843
  355MOL0     H47880   7.901   6.645   5.708  0.9749 -0.4738  1.3331
  355MOL0     H47881   7.894   6.847   5.573 -0.1532  0.3038  1.5623
  355MOL0     H47882   7.958   6.707   5.468 -2.3036  2.4827 -1.0211
  355MOL0     H47883   8.141   6.898   5.584  2.0502  1.2745 -1.9041
  355MOL0     H47884   8.076   6.904   5.424 -2.3017 -2.0341 -1.4298
  355MOL0     H47885   8.270   7.007   5.412 -0.9226 -0.5483 -1.6196
  355MOL0     H47886   8.470   7.074   5.303 -0.9575  1.0362  4.0035
  355MOL0     H47887   8.948   7.044   5.190  1.5761 -0.0737 -0.6329
  355MOL0     H47888   9.196   7.006   5.127  1.2694 -2.3287  1.9277
  355MOL0     H47889   9.328   6.621   5.029 -1.9498  0.3868 -0.5546
  355MOL0     H47890   9.288   6.684   4.876 -3.9431  0.3346  2.0661
  355MOL0     H47891   9.513   6.625   4.855 -0.9023  0.1977  0.3395
  355MOL0     H47892   9.506   6.801   4.847  0.7872  0.9553  1.3323
  355MOL0     H47893   9.626   6.841   5.029  1.7641 -0.5792 -0.0886
  355MOL0     H47894   9.575   6.706   5.123  1.6154 -1.9784  0.4969
  355MOL0     H47895   9.729   6.565   4.975  0.8787 -0.0300  0.2589
  355MOL0     H47896   9.813   6.684   5.075  0.8398 -0.1917 -0.0387
  355MOL0     H47897   9.795   6.825   4.847  4.2998  1.2389 -0.8970
  355MOL0     H47898   9.740   6.679   4.783 -1.1758  0.1036  1.3771
  355MOL0     H47899  10.009   6.703   4.943  0.7494 -0.0901 -0.1572
  355MOL0     H47900   9.963   6.568   4.841 -1.9179 -0.6007  4.1254
  355MOL0     H47901  10.038   6.864   4.757  1.3374 -0.7601  0.5557
  355MOL0     H47902   9.947   6.768   4.643 -0.1846  2.2027  1.0144
  355MOL0     H47903  10.194   6.773   4.601 -1.8179  3.4152  1.8222
  355MOL0     H47904  10.223   6.694   4.760  1.5261  1.6357 -1.0474
  355MOL0     H47905   9.085   6.631   4.976 -0.2702  0.7031  1.5457
  355MOL0     H47906   8.853   6.660   5.037 -1.1033  0.1398  2.6289
  355MOL0     H47907   8.596   6.671   5.273  1.6273  1.3707 -3.2403
  355MOL0     H47908   8.387   6.603   5.399  0.8698  0.0701  1.5545
  355MOL0     H47909   8.053   6.459   6.931  1.5263 -1.4765 -0.3371
  355MOL0     H47910   7.850   6.428   7.048 -0.1422  0.7536  0.0696
  355MOL0     H47911   7.566   6.290   7.234  0.3183 -3.1948  2.4310
  355MOL0     H47912   7.326   6.318   7.272  0.8559  1.0001 -0.9052
  355MOL0     H47913   7.185   6.430   7.668 -4.0422  2.6837  1.5201
  355MOL0     H47914   7.168   6.285   7.571  1.2726  0.7208 -1.5708
  355MOL0     H47915   6.947   6.372   7.675  1.2213 -0.2989  0.5252
  355MOL0     H47916   6.960   6.357   7.498  3.8132  2.3295 -2.4776
  355MOL0     H47917   7.021   6.608   7.509  0.0457 -0.2210  0.2270
  355MOL0     H47918   6.963   6.619   7.676 -1.7597  0.2863  0.6461
  355MOL0     H47919   6.776   6.660   7.533  1.5490  0.2180 -0.8647
  355MOL0     H47920   6.793   6.511   7.445 -1.2656 -1.9408 -0.1157
  355MOL0     H47921   6.583   6.421   7.813  0.5086  2.2336  1.9169
  355MOL0     H47922   7.405   6.533   7.635  2.0212 -0.3822  1.3074
  355MOL0     H47923   7.705   6.644   7.581  2.3010  1.6653  3.7881
  355MOL0     H47924   7.589   6.596   7.702  1.8290  0.9133  0.2308
  355MOL0     H47925   7.722   6.486   7.663  0.3219 -1.3315 -2.0756
  356MOL0     O47926   5.815   7.040   2.572 -0.5534  1.1413 -0.0036
  356MOL0     C47927   5.836   6.961   2.479  0.1367 -0.3105  0.2911
  356MOL0     O47928   5.923   6.852   2.491 -0.0225  0.7232  0.0993
  356MOL0     C47929   6.004   6.854   2.607  0.2175 -0.1420  0.3040
  356MOL0     C47930   6.137   6.906   2.600  0.2724 -0.4960  0.6494
  356MOL0     C47931   6.226   6.891   2.705  0.5167  0.1705 -0.0552
  356MOL0     C47932   6.189   6.822   2.816 -0.3801  0.4739  0.1139
  356MOL0     O47933   6.286   6.779   2.910 -0.3916  0.2050  0.0402
  356MOL0     C47934   6.363   6.893   2.962  0.2961 -0.1084 -0.5697
  356MOL0     C47935   6.472   6.857   3.062  0.0600 -0.3037 -0.0219
  356MOL0     C47936   6.412   6.805   3.196  0.3682 -0.4368  0.5712
  356MOL0     C47937   6.517   6.770   3.295  0.4719  0.3250 -0.3710
  356MOL0     C47938   6.440   6.750   3.428 -0.0905  0.3497  0.4316
  356MOL0     C47939   6.534   6.668   3.516  0.2082  0.0292  0.1662
  356MOL0     C47940   6.499   6.664   3.664 -0.1772  0.5008  0.2107
  356MOL0     C47941   6.368   6.593   3.696 -0.0634 -0.2183 -0.4168
  356MOL0     N47942   6.365   6.557   3.838  0.1547  0.3759  0.7965
  356MOL0     C47943   6.382   6.651   3.942  0.1189  0.5539  0.0694
  356MOL0     C47944   6.405   6.571   4.049  0.4700 -0.2634 -0.1364
  356MOL0     C47945   6.443   6.603   4.192 -0.1830 -0.4165 -0.3457
  356MOL0     C47946   6.356   6.537   4.305 -0.6151 -0.7011  1.0607
  356MOL0     C47947   6.342   6.386   4.311 -0.3660  0.3764 -0.7315
  356MOL0     C47948   6.474   6.309   4.299  0.6625 -0.9165  0.3788
  356MOL0     O47949   6.580   6.351   4.386  0.2279  0.5477 -0.2160
  356MOL0     C47950   6.698   6.317   4.323  0.3549 -0.3654 -0.7773
  356MOL0     C47951   6.778   6.423   4.278 -0.4064 -0.1558  0.3179
  356MOL0     C47952   6.913   6.390   4.234 -0.0091 -0.6864 -0.3975
  356MOL0     C47953   6.964   6.263   4.230 -0.2688  0.5565 -0.4248
  356MOL0     C47954   7.102   6.233   4.185  0.7880 -0.3337  0.2695
  356MOL0     O47955   7.144   6.102   4.209  0.5290  0.0038 -0.2404
  356MOL0     C47956   7.266   6.061   4.162 -1.3187 -0.0942 -0.4106
  356MOL0     C47957   7.277   5.921   4.154  0.3217 -0.2800 -0.3396
  356MOL0     C47958   7.397   5.861   4.122  1.4552  0.0495 -0.1528
  356MOL0     C47959   7.513   5.937   4.094 -0.2104  0.5683  0.4353
  356MOL0     O47960   7.625   5.859   4.069 -0.4444 -0.5244  0.6888
  356MOL0     C47961   7.748   5.933   4.046  0.3843  0.3849 -1.3819
  356MOL0     C47962   7.860   5.836   4.010 -0.3794  0.2621  0.0188
  356MOL0     C47963   7.987   5.918   4.013  0.3285 -0.3316  0.6977
  356MOL0     C47964   8.014   6.026   3.909  0.0840 -0.9927  0.2739
  356MOL0     C47965   8.120   6.128   3.948  0.9262 -0.3131 -1.1960
  356MOL0     C47966   8.156   6.208   3.826 -0.4848 -0.9516 -0.6893
  356MOL0     C47967   8.270   6.312   3.860 -0.2149 -0.3860  0.7693
  356MOL0     C47968   8.308   6.387   3.731 -0.2249  1.0599 -0.3309
  356MOL0    Cl47969   8.454   6.300   3.663 -0.1193 -0.2968  0.0432
  356MOL0     C47970   7.500   6.075   4.086  0.1479  0.2513 -0.5424
  356MOL0     C47971   7.377   6.134   4.124 -0.3361  0.1509  0.1503
  356MOL0     O47972   7.159   6.326   4.127 -0.4460 -0.3804 -0.1151
  356MOL0     C47973   6.883   6.158   4.274  0.0110  0.4752 -0.0505
  356MOL0     C47974   6.761   6.186   4.335  0.8341 -0.4414 -0.2182
  356MOL0     N47975   6.405   6.441   3.998  0.2833 -0.5133 -0.6274
  356MOL0     N47976   6.376   6.435   3.876 -0.4168  0.1839 -0.5204
  356MOL0     C47977   6.065   6.761   2.824  0.0908  0.1451  0.2742
  356MOL0     C47978   5.969   6.783   2.719  0.1510  0.7615  0.7049
  356MOL0     C47979   5.786   6.990   2.343 -0.0950  0.2379 -0.3456
  356MOL0     C47980   5.841   6.909   2.240  0.3633 -0.2590  0.1616
  356MOL0     C47981   5.802   6.924   2.106  0.4199  0.1257  0.2791
  356MOL0     C47982   5.709   7.022   2.077  0.2429 -0.2478  0.1485
  356MOL0     O47983   5.669   7.055   1.954 -0.1150  0.1237  0.4043
  356MOL0     C47984   5.750   7.007   1.840  0.3935 -0.0366  0.5155
  356MOL0     C47985   5.892   7.087   1.834  0.7872  0.3041 -0.1080
  356MOL0     C47986   5.874   7.235   1.810 -0.9358 -0.0654  0.5880
  356MOL0     C47987   6.002   7.311   1.787 -0.3490  0.3548  0.1059
  356MOL0     C47988   5.985   7.456   1.786 -0.2668  0.3729 -0.0803
  356MOL0     C47989   5.990   7.579   1.777 -0.4516 -0.1050  0.7069
  356MOL0     C47990   5.657   7.108   2.178  0.7525 -0.8072  0.0231
  356MOL0     C47991   5.689   7.092   2.309  0.2456  1.0209 -0.0592
  356MOL0     C47992   5.623   7.185   2.401  0.0392  0.2226 -0.6574
  356MOL0     H47993   6.174   6.943   2.505 -3.0279  1.8352  0.1193
  356MOL0     H47994   6.331   6.916   2.689  0.7198 -0.5303  0.1513
  356MOL0     H47995   6.406   6.951   2.881 -2.2065  0.7208 -1.4011
  356MOL0     H47996   6.291   6.962   3.008 -1.3387 -0.8106 -1.9855
  356MOL0     H47997   6.531   6.945   3.087 -1.7565  1.4032 -1.3656
  356MOL0     H47998   6.540   6.791   3.007  0.8364 -1.3356  2.0890
  356MOL0     H47999   6.341   6.724   3.179 -3.5086  2.9490 -1.2061
  356MOL0     H48000   6.364   6.891   3.244  2.3842  1.1420 -0.0746
  356MOL0     H48001   6.566   6.677   3.264 -0.9868 -1.1885  1.5647
  356MOL0     H48002   6.591   6.847   3.319 -0.5933  1.5129 -0.7786
  356MOL0     H48003   6.425   6.852   3.466  1.7089  1.1702 -0.9580
  356MOL0     H48004   6.343   6.701   3.412 -0.1331  1.1672 -2.2372
  356MOL0     H48005   6.536   6.565   3.478  0.0282 -1.6269  4.1899
  356MOL0     H48006   6.640   6.697   3.513  0.5547 -1.2191 -1.6488
  356MOL0     H48007   6.489   6.767   3.698 -0.2738 -0.0416  1.9087
  356MOL0     H48008   6.580   6.616   3.719 -1.0583  0.1841  1.2666
  356MOL0     H48009   6.280   6.656   3.676  0.1786  0.3680  0.3026
  356MOL0     H48010   6.364   6.500   3.639  0.1782  0.3180 -1.3170
  356MOL0     H48011   6.404   6.757   3.946  2.6802  0.0676  0.0590
  356MOL0     H48012   6.544   6.566   4.207 -0.5720 -0.9585  1.0295
  356MOL0     H48013   6.434   6.710   4.217 -0.5070 -0.8961  1.8071
  356MOL0     H48014   6.409   6.577   4.392  1.0972 -0.4799 -0.0304
  356MOL0     H48015   6.262   6.592   4.299 -1.2132 -1.8212 -1.9138
  356MOL0     H48016   6.285   6.349   4.226  0.8946 -0.6473 -1.1739
  356MOL0     H48017   6.288   6.357   4.402  3.2801 -0.5130  1.3602
  356MOL0     H48018   6.508   6.320   4.196 -3.3540  0.5959 -0.9945
  356MOL0     H48019   6.453   6.203   4.317 -0.0217 -1.2938 -2.1642
  356MOL0     H48020   6.748   6.527   4.272 -1.6420 -0.5585 -0.8104
  356MOL0     H48021   6.978   6.466   4.193 -0.5282  0.9433  1.6109
  356MOL0     H48022   7.198   5.850   4.177  2.1839 -2.5483 -0.6328
  356MOL0     H48023   7.401   5.753   4.126  0.2487  0.0262  1.8744
  356MOL0     H48024   7.727   6.002   3.963  2.2798  0.7486 -1.6148
  356MOL0     H48025   7.773   5.995   4.133  3.1885 -0.8641 -1.1965
  356MOL0     H48026   7.880   5.757   4.084 -1.7660 -2.3784 -2.2316
  356MOL0     H48027   7.845   5.793   3.911  2.1377  0.0523 -0.3419
  356MOL0     H48028   7.995   5.955   4.115  0.6076  1.8576 -0.0571
  356MOL0     H48029   8.074   5.853   3.997  0.1193 -0.8364  1.5562
  356MOL0     H48030   7.922   6.080   3.886 -0.0027 -1.4549 -0.4916
  356MOL0     H48031   8.040   5.978   3.814  3.2937 -0.1941  0.6251
  356MOL0     H48032   8.202   6.076   3.999 -0.6557  0.1647  2.1210
  356MOL0     H48033   8.070   6.196   4.018  0.9895 -0.2823 -1.1815
  356MOL0     H48034   8.194   6.146   3.745  1.2138  0.6107 -1.1562
  356MOL0     H48035   8.070   6.258   3.781 -0.2497 -2.4251 -2.8909
  356MOL0     H48036   8.358   6.270   3.908  0.6604  2.8483  2.2612
  356MOL0     H48037   8.233   6.392   3.926 -3.4294  0.1760 -1.4577
  356MOL0     H48038   8.220   6.385   3.666  0.3265  0.3804 -1.0909
  356MOL0     H48039   8.329   6.490   3.758 -0.9894  0.7525  1.6079
  356MOL0     H48040   7.569   6.153   4.057  1.9109 -1.0049  0.0751
  356MOL0     H48041   7.366   6.241   4.111  1.4797  0.1257 -2.1530
  356MOL0     H48042   6.908   6.053   4.268  1.9320  0.9586 -2.1379
  356MOL0     H48043   6.703   6.107   4.382  1.9333 -0.5653  0.9961
  356MOL0     H48044   6.050   6.691   2.905 -1.3574 -1.7618 -1.5176
  356MOL0     H48045   5.872   6.733   2.722  1.3840 -1.8663 -0.0055
  356MOL0     H48046   5.917   6.837   2.266  0.0316 -0.2168  1.2805
  356MOL0     H48047   5.849   6.858   2.034 -1.8190 -3.9301  2.2201
  356MOL0     H48048   5.696   7.020   1.746  0.5741 -0.6851  0.3167
  356MOL0     H48049   5.779   6.902   1.836  4.2286  0.8337 -3.7680
  356MOL0     H48050   5.962   7.044   1.763  1.2242  1.0975 -0.1690
  356MOL0     H48051   5.942   7.059   1.927  2.5922 -0.1990 -1.2031
  356MOL0     H48052   5.826   7.276   1.899 -0.7135  0.7738  0.3262
  356MOL0     H48053   5.812   7.254   1.722  0.0845  1.4289  0.1630
  356MOL0     H48054   6.044   7.295   1.887  1.7355  3.2435 -0.1806
  356MOL0     H48055   6.061   7.272   1.704 -1.4284  1.9265 -1.4899
  356MOL0     H48056   5.999   7.685   1.772 -1.0013 -0.1194 -1.1503
  356MOL0     H48057   5.576   7.173   2.146 -0.4113 -0.8014  2.7043
  356MOL0     H48058   5.691   7.267   2.426  0.2324  0.1367 -0.9011
  356MOL0     H48059   5.538   7.229   2.350  1.1393  1.2283 -1.6732
  356MOL0     H48060   5.589   7.138   2.494  2.5034 -0.3426  0.0414
  357MOL0     O48061   3.979  10.808  11.185  0.2702  0.7358  0.4451
  357MOL0     C48062   4.069  10.887  11.203  0.1678  0.0438 -0.6629
  357MOL0     O48063   4.087  11.002  11.134 -0.0524  0.2811 -0.2335
  357MOL0     C48064   3.981  11.032  11.049  0.2811  0.0191  0.1822
  357MOL0     C48065   3.963  10.965  10.928 -0.7454 -0.0827  0.3918
  357MOL0     C48066   3.856  10.997  10.842  0.5394 -0.1920  0.1256
  357MOL0     C48067   3.764  11.097  10.874  0.1069  0.0811 -0.4740
  357MOL0     O48068   3.655  11.106  10.791  0.5458 -0.1378 -0.2127
  357MOL0     C48069   3.558  11.214  10.828 -0.1026  0.3023 -0.0204
  357MOL0     C48070   3.438  11.193  10.739  0.2788  0.5604  0.3594
  357MOL0     C48071   3.346  11.319  10.729 -0.1045  0.1719  0.2031
  357MOL0     C48072   3.387  11.425  10.627  0.8035 -0.7045 -0.5976
  357MOL0     C48073   3.279  11.536  10.599  0.9312 -0.6811 -0.0072
  357MOL0     C48074   3.229  11.603  10.730  0.5623 -1.3300  0.2724
  357MOL0     C48075   3.132  11.715  10.684 -0.9327 -0.2387  0.4773
  357MOL0     C48076   3.117  11.824  10.792 -0.1717  0.2980  0.1868
  357MOL0     N48077   3.054  11.771  10.917 -0.4302  0.2432 -0.6628
  357MOL0     C48078   3.121  11.698  11.012  0.0567  0.8155 -0.1490
  357MOL0     C48079   3.038  11.707  11.126 -0.0607  0.2159  0.9748
  357MOL0     C48080   3.046  11.629  11.261 -0.5680 -0.0355  0.9604
  357MOL0     C48081   3.174  11.646  11.343  1.0018  0.3115 -0.9264
  357MOL0     C48082   3.168  11.769  11.439  0.0786  0.1124  0.1715
  357MOL0     C48083   3.286  11.788  11.529 -0.1379  0.2817 -0.1101
  357MOL0     O48084   3.412  11.731  11.483 -0.0662 -0.0895  0.1905
  357MOL0     C48085   3.523  11.736  11.564 -0.0164  0.5410 -0.0832
  357MOL0     C48086   3.509  11.761  11.696 -0.1935 -0.6771  0.9519
  357MOL0     C48087   3.615  11.745  11.786 -0.1402  0.2397 -0.0569
  357MOL0     C48088   3.742  11.715  11.741  1.2743 -0.1821  0.7980
  357MOL0     C48089   3.866  11.693  11.827  0.3604 -1.0151 -0.1901
  357MOL0     O48090   3.995  11.699  11.772 -0.2184 -0.2328 -0.4415
  357MOL0     C48091   4.107  11.676  11.845  0.2737 -0.2165 -0.5434
  357MOL0     C48092   4.128  11.664  11.987 -0.2965 -0.4805 -0.7416
  357MOL0     C48093   4.249  11.621  12.046  0.4956  0.2449 -0.0350
  357MOL0     C48094   4.363  11.608  11.963 -0.2731  0.2009  0.1770
  357MOL0     O48095   4.480  11.572  12.022  0.4671  0.4046 -0.3041
  357MOL0     C48096   4.609  11.597  11.966  0.1481 -0.4586 -0.1264
  357MOL0     C48097   4.714  11.622  12.070  0.9319 -0.0805 -0.5614
  357MOL0     C48098   4.695  11.526  12.193 -0.3392 -0.7242 -0.4714
  357MOL0     C48099   4.795  11.544  12.318  0.2962 -0.1366 -0.0832
  357MOL0     C48100   4.939  11.542  12.264 -0.1111  1.8527  0.3211
  357MOL0     C48101   5.041  11.530  12.384  0.4134 -0.2111 -0.1798
  357MOL0     C48102   5.190  11.551  12.350 -0.0626 -0.1590  0.2701
  357MOL0     C48103   5.253  11.421  12.290  0.2743  0.2766  0.5984
  357MOL0    Cl48104   5.434  11.429  12.291  0.1658  0.1037  0.2454
  357MOL0     C48105   4.352  11.641  11.825  0.1216 -0.0647 -0.2934
  357MOL0     C48106   4.227  11.671  11.770 -0.5646  0.3614 -0.3396
  357MOL0     O48107   3.847  11.688  11.949  0.1508 -0.4038  0.1260
  357MOL0     C48108   3.761  11.700  11.600  0.3121  0.0521 -0.1924
  357MOL0     C48109   3.649  11.709  11.513  0.4489  0.1107  0.6748
  357MOL0     N48110   2.921  11.780  11.095  0.7077 -0.2358 -0.7419
  357MOL0     N48111   2.935  11.819  10.969 -0.6282  0.0691  0.0161
  357MOL0     C48112   3.791  11.165  10.998 -0.3759  0.5623  0.4156
  357MOL0     C48113   3.896  11.135  11.081  0.2029 -0.5460  0.3119
  357MOL0     C48114   4.177  10.863  11.306 -0.2545  0.7155 -0.4790
  357MOL0     C48115   4.273  10.963  11.320  0.8279  0.2304  0.3095
  357MOL0     C48116   4.363  10.965  11.425  0.1837  0.3582 -0.4493
  357MOL0     C48117   4.372  10.854  11.516 -0.2310 -0.5332 -0.1183
  357MOL0     O48118   4.454  10.867  11.622 -1.1263  0.1377  0.6818
  357MOL0     C48119   4.469  10.760  11.720 -0.1121  0.9395  0.5268
  357MOL0     C48120   4.597  10.802  11.805 -0.0016  0.0642 -0.0203
  357MOL0     C48121   4.738  10.795  11.730 -1.2328  0.1971 -0.0035
  357MOL0     C48122   4.851  10.879  11.792  0.1143 -0.1352 -0.6533
  357MOL0     C48123   4.905  10.815  11.922 -0.1681  0.7203 -0.4420
  357MOL0     C48124   4.945  10.755  12.030 -0.2567 -0.2414  0.3560
  357MOL0     C48125   4.271  10.756  11.510  0.1027  0.6951 -0.0058
  357MOL0     C48126   4.170  10.764  11.410 -1.1201 -0.1382 -0.0380
  357MOL0     C48127   4.058  10.667  11.419 -0.3015  0.1688  0.9688
  357MOL0     H48128   4.031  10.890  10.888 -0.5700  0.3140 -0.0684
  357MOL0     H48129   3.856  10.933  10.755 -1.0261  2.2286 -1.7580
  357MOL0     H48130   3.528  11.213  10.933 -1.6764 -0.0831 -0.4509
  357MOL0     H48131   3.605  11.310  10.806 -0.7500  0.9683  1.3968
  357MOL0     H48132   3.378  11.104  10.762 -0.8655  1.0236 -0.7220
  357MOL0     H48133   3.472  11.177  10.636  2.4500 -1.9683  1.3589
  357MOL0     H48134   3.333  11.361  10.829  0.8938 -3.7451  2.2032
  357MOL0     H48135   3.257  11.269  10.690  1.2527 -2.3361  0.1200
  357MOL0     H48136   3.468  11.482  10.673 -2.0096  1.6163  1.9176
  357MOL0     H48137   3.426  11.382  10.534 -0.5236 -3.2666 -0.0609
  357MOL0     H48138   3.338  11.612  10.546 -1.0505  0.5323 -0.5774
  357MOL0     H48139   3.196  11.493  10.542  0.8492  2.2267 -2.3673
  357MOL0     H48140   3.170  11.536  10.794  0.0846 -1.8863 -0.7341
  357MOL0     H48141   3.304  11.651  10.794  0.7994 -3.3037  1.5874
  357MOL0     H48142   3.036  11.672  10.651 -0.7166 -0.6674  0.3931
  357MOL0     H48143   3.171  11.762  10.593 -0.5299 -0.2855  0.6271
  357MOL0     H48144   3.221  11.854  10.806 -0.2373  2.2199 -2.5888
  357MOL0     H48145   3.059  11.910  10.758  0.1187  0.3070 -0.2940
  357MOL0     H48146   3.217  11.648  11.005 -1.2428 -1.8567 -0.4321
  357MOL0     H48147   2.973  11.653  11.339  2.5181  1.6182  3.5914
  357MOL0     H48148   3.038  11.525  11.229  0.4969  0.4032 -0.8785
  357MOL0     H48149   3.185  11.551  11.395 -1.0963 -0.1417 -1.1978
  357MOL0     H48150   3.252  11.660  11.267 -1.0556 -0.8985 -3.4431
  357MOL0     H48151   3.073  11.778  11.492 -0.5229 -1.4571 -0.5800
  357MOL0     H48152   3.187  11.847  11.365  2.1559  0.5324  1.0900
  357MOL0     H48153   3.254  11.729  11.616  1.5168 -0.4964  0.0115
  357MOL0     H48154   3.303  11.893  11.555  3.5777  0.3693 -2.1417
  357MOL0     H48155   3.416  11.797  11.740 -2.3011 -1.9555 -2.0986
  357MOL0     H48156   3.603  11.766  11.891 -2.5412 -1.2068  0.0067
  357MOL0     H48157   4.051  11.697  12.056  2.6618  3.8953  1.0045
  357MOL0     H48158   4.249  11.618  12.155 -4.7413  0.9764  0.2288
  357MOL0     H48159   4.638  11.507  11.911  0.8754 -0.4815  0.2860
  357MOL0     H48160   4.610  11.682  11.898  1.8067  0.8445  1.4367
  357MOL0     H48161   4.811  11.606  12.022  1.0576  0.5670 -0.5313
  357MOL0     H48162   4.709  11.725  12.106 -1.6583 -1.2041  2.8510
  357MOL0     H48163   4.594  11.548  12.229  0.2659 -0.3368  1.0846
  357MOL0     H48164   4.691  11.419  12.169 -1.2012 -1.0397  0.9117
  357MOL0     H48165   4.772  11.459  12.383 -0.0173 -1.2250 -1.5469
  357MOL0     H48166   4.762  11.637  12.364 -0.4325  0.1067 -1.0739
  357MOL0     H48167   4.959  11.634  12.207  0.2720  1.1721 -0.6750
  357MOL0     H48168   4.945  11.460  12.192 -1.3481  0.7680  1.4082
  357MOL0     H48169   5.011  11.606  12.458 -0.0410  0.4220 -0.9981
  357MOL0     H48170   5.019  11.434  12.430  1.7718 -0.9153 -0.9536
  357MOL0     H48171   5.241  11.575  12.444  1.8595  0.8235 -0.9484
  357MOL0     H48172   5.202  11.643  12.293  0.7143 -0.7635 -0.5556
  357MOL0     H48173   5.216  11.338  12.351  0.3715 -0.2588 -0.0647
  357MOL0     H48174   5.214  11.398  12.191 -0.5709 -0.8191  1.1570
  357MOL0     H48175   4.436  11.616  11.760 -1.4332  0.1552 -2.5083
  357MOL0     H48176   4.225  11.671  11.661  1.8342 -1.3965 -0.4463
  357MOL0     H48177   3.861  11.686  11.562  0.4167  2.5168 -1.0033
  357MOL0     H48178   3.663  11.685  11.408  1.0768 -1.2505  1.0507
  357MOL0     H48179   3.724  11.243  11.031  0.3771  1.7927 -0.8484
  357MOL0     H48180   3.906  11.200  11.166 -3.9875 -0.0389  0.6253
  357MOL0     H48181   4.275  11.048  11.252 -2.5061 -1.6222 -2.4160
  357MOL0     H48182   4.420  11.055  11.446 -0.2188 -0.0262  2.8001
  357MOL0     H48183   4.480  10.662  11.672 -1.1556  0.9479  0.2474
  357MOL0     H48184   4.383  10.752  11.787 -1.2750  3.4095 -0.5865
  357MOL0     H48185   4.607  10.748  11.900  1.8233  1.5076  0.6701
  357MOL0     H48186   4.572  10.905  11.829  0.9723  0.3399 -0.1299
  357MOL0     H48187   4.713  10.829  11.630  1.0973  1.1928 -0.2942
  357MOL0     H48188   4.765  10.689  11.728 -5.2980 -1.0075  0.1941
  357MOL0     H48189   4.929  10.877  11.715 -0.8387 -0.4154 -1.6341
  357MOL0     H48190   4.820  10.982  11.808 -0.4097 -0.0243 -2.2014
  357MOL0     H48191   4.985  10.704  12.115  1.1038  4.3031  2.7684
  357MOL0     H48192   4.265  10.674  11.579 -0.0507 -1.2506 -2.2034
  357MOL0     H48193   4.057  10.619  11.517  1.1335  2.2037  2.0561
  357MOL0     H48194   3.962  10.719  11.412 -0.4893 -0.0175  2.0718
  357MOL0     H48195   4.053  10.590  11.342 -0.5277 -0.8540  1.9827
  358MOL0     O48196   6.374   0.270   2.365  0.6232 -0.2765  0.9192
  358MOL0     C48197   6.393   0.200   2.463 -0.3107 -0.2138  0.6073
  358MOL0     O48198   6.302   0.137   2.537  0.1251 -0.0894  0.0587
  358MOL0     C48199   6.167   0.168   2.546  0.9920  0.4548  0.0859
  358MOL0     C48200   6.100   0.070   2.606  0.4894  0.4099 -0.0234
  358MOL0     C48201   5.960   0.066   2.622  0.1616 -0.1549  0.4779
  358MOL0     C48202   5.886   0.166   2.556  0.5502  0.1680 -0.3601
  358MOL0     O48203   5.750   0.158   2.569 -0.1864 -0.2146 -0.2821
  358MOL0     C48204   5.669   0.275   2.561  0.0141  0.1921 -0.5559
  358MOL0     C48205   5.525   0.240   2.536 -0.4688  0.0128 -0.7141
  358MOL0     C48206   5.500   0.135   2.433 -0.4034 -0.2746  0.3151
  358MOL0     C48207   5.415   0.019   2.471 -0.2693 -0.7145  0.4253
  358MOL0     C48208   5.483  -0.060   2.582  0.1323 -0.0816  0.0904
  358MOL0     C48209   5.396  -0.185   2.617  0.3091  0.2119  0.4411
  358MOL0     C48210   5.480  -0.294   2.694 -0.0506 -0.9084 -0.5573
  358MOL0     C48211   5.621  -0.253   2.755 -0.0390 -0.0565 -0.1255
  358MOL0     N48212   5.672  -0.359   2.837  0.0011 -0.0045 -0.3256
  358MOL0     C48213   5.729  -0.477   2.783 -0.3041 -0.4278  0.7150
  358MOL0     C48214   5.785  -0.543   2.883  0.1063  0.1304 -0.1330
  358MOL0     C48215   5.872  -0.660   2.882  0.0384  1.2742 -0.7415
  358MOL0     C48216   5.962  -0.676   2.761 -0.1424  0.3485  0.5406
  358MOL0     C48217   6.068  -0.782   2.777 -0.4247  0.2885  0.1477
  358MOL0     C48218   6.156  -0.783   2.652  0.1981 -0.4253 -0.5783
  358MOL0     O48219   6.267  -0.880   2.667  0.4454 -0.1933 -0.4048
  358MOL0     C48220   6.393  -0.828   2.695  0.4881  0.5035  0.6842
  358MOL0     C48221   6.415  -0.710   2.767  0.2690  0.1689  0.7345
  358MOL0     C48222   6.541  -0.661   2.785  0.1388  0.0542 -0.6440
  358MOL0     C48223   6.657  -0.728   2.734 -0.8886 -0.0332 -0.8068
  358MOL0     C48224   6.793  -0.688   2.755  0.5237  0.1501  0.3557
  358MOL0     O48225   6.890  -0.777   2.730 -0.4304 -0.0308 -0.2082
  358MOL0     C48226   7.012  -0.774   2.798  0.2237 -0.9386  0.5675
  358MOL0     C48227   7.123  -0.792   2.715  0.9363  0.0801  0.5730
  358MOL0     C48228   7.243  -0.810   2.780 -0.5650 -0.0085  0.2249
  358MOL0     C48229   7.257  -0.778   2.913 -0.0705 -0.7670 -0.2798
  358MOL0     O48230   7.372  -0.796   2.985 -0.7496 -0.2978  0.3130
  358MOL0     C48231   7.485  -0.839   2.914 -0.2743 -0.0279  0.0841
  358MOL0     C48232   7.594  -0.843   3.014 -0.0190 -0.4148 -0.0393
  358MOL0     C48233   7.638  -0.700   3.045 -0.2979  0.1794 -0.2189
  358MOL0     C48234   7.770  -0.707   3.133 -0.1316  0.6700  0.2137
  358MOL0     C48235   7.813  -0.575   3.204  0.4586  0.0003 -0.3446
  358MOL0     C48236   7.707  -0.516   3.301 -0.1867 -0.9405  0.9102
  358MOL0     C48237   7.759  -0.379   3.354  0.4364 -0.1064  1.0275
  358MOL0     C48238   7.633  -0.292   3.405 -0.4611 -0.0999  0.5159
  358MOL0    Cl48239   7.591  -0.329   3.573 -0.2558  0.7657  0.4342
  358MOL0     C48240   7.149  -0.752   2.995 -0.0200  0.5117 -0.4092
  358MOL0     C48241   7.025  -0.762   2.938 -0.2214 -0.8764  0.0452
  358MOL0     O48242   6.803  -0.585   2.827 -0.2299  0.4443  1.1515
  358MOL0     C48243   6.633  -0.848   2.661 -0.2003  0.0731 -0.5286
  358MOL0     C48244   6.500  -0.894   2.643  0.2092 -0.8229 -0.4059
  358MOL0     N48245   5.765  -0.470   3.005  0.2175 -0.1718 -0.5751
  358MOL0     N48246   5.704  -0.360   2.969 -0.7996 -0.3116  0.7251
  358MOL0     C48247   5.957   0.270   2.500 -0.6555 -0.1380 -0.0952
  358MOL0     C48248   6.094   0.270   2.490  0.0206 -0.0270  0.1459
  358MOL0     C48249   6.531   0.175   2.514 -0.2504  0.1177  0.2019
  358MOL0     C48250   6.561   0.075   2.609 -0.2250  0.2477 -0.2819
  358MOL0     C48251   6.693   0.043   2.647  0.3417 -0.0917  0.1858
  358MOL0     C48252   6.805   0.107   2.586 -0.6844 -0.7682 -0.1151
  358MOL0     O48253   6.942   0.093   2.624 -0.0671  0.6355  0.3162
  358MOL0     C48254   6.966  -0.016   2.718 -0.8437  0.3764  0.3963
  358MOL0     C48255   7.100  -0.083   2.696  0.4512 -0.0504 -0.0401
  358MOL0     C48256   7.221  -0.017   2.769  0.2432 -0.3096 -0.6997
  358MOL0     C48257   7.244   0.131   2.746  0.3511 -0.8768 -0.2174
  358MOL0     C48258   7.367   0.185   2.805  0.2621  0.4535  0.1421
  358MOL0     C48259   7.458   0.233   2.867 -0.4963  0.2890 -0.5894
  358MOL0     C48260   6.782   0.205   2.491  0.6513 -0.1198 -0.5165
  358MOL0     C48261   6.645   0.241   2.452  0.4934  0.2572  0.1417
  358MOL0     C48262   6.626   0.363   2.361  0.8544  0.5499  0.5407
  358MOL0     H48263   6.157  -0.012   2.650 -0.0695  0.5379  0.9680
  358MOL0     H48264   5.904  -0.024   2.648 -0.7594  0.2058 -0.1888
  358MOL0     H48265   5.673   0.340   2.649  0.3705 -3.3465  2.2776
  358MOL0     H48266   5.698   0.332   2.473 -1.1037 -0.5047 -1.4100
  358MOL0     H48267   5.475   0.332   2.506  1.0414  0.4613 -1.9999
  358MOL0     H48268   5.479   0.208   2.630  1.6863 -1.4044 -0.0624
  358MOL0     H48269   5.597   0.095   2.401 -0.3824 -0.0249  0.0594
  358MOL0     H48270   5.452   0.182   2.347 -2.9025  0.5659  2.0568
  358MOL0     H48271   5.316   0.054   2.504 -1.6569 -2.3996 -1.6473
  358MOL0     H48272   5.406  -0.049   2.386 -0.1372 -1.8471  1.2870
  358MOL0     H48273   5.582  -0.090   2.547  1.6256  2.3937  1.8211
  358MOL0     H48274   5.498   0.000   2.672  1.9511 -0.4281  0.0458
  358MOL0     H48275   5.317  -0.149   2.683 -1.9996  2.0589 -3.0034
  358MOL0     H48276   5.339  -0.221   2.531  0.2124  3.9347 -1.2271
  358MOL0     H48277   5.496  -0.369   2.616 -4.3397 -1.7276 -0.8797
  358MOL0     H48278   5.415  -0.349   2.763 -1.9391 -0.4950 -1.9288
  358MOL0     H48279   5.688  -0.226   2.673  0.1590 -2.3744 -0.7744
  358MOL0     H48280   5.604  -0.167   2.821 -0.9652  1.7506 -2.5373
  358MOL0     H48281   5.730  -0.510   2.680  0.0083 -4.0927  1.7467
  358MOL0     H48282   5.927  -0.659   2.976 -1.9810  0.0014  0.5290
  358MOL0     H48283   5.805  -0.746   2.887  1.4788  0.1081 -0.9933
  358MOL0     H48284   5.905  -0.706   2.672  0.1490 -1.7366  1.0025
  358MOL0     H48285   6.010  -0.580   2.741  0.5512 -0.0448  0.2506
  358MOL0     H48286   6.031  -0.885   2.789 -0.6380  0.3734  0.2134
  358MOL0     H48287   6.123  -0.767   2.870  2.0792 -2.3236 -0.7408
  358MOL0     H48288   6.206  -0.687   2.639  2.4959 -1.7547 -2.2844
  358MOL0     H48289   6.094  -0.798   2.563  0.2365  0.5307 -0.7694
  358MOL0     H48290   6.328  -0.654   2.800 -2.4812 -2.4117 -1.6181
  358MOL0     H48291   6.552  -0.571   2.845 -1.7845 -0.2755  0.3208
  358MOL0     H48292   7.115  -0.820   2.610  0.1195 -2.0383  1.1450
  358MOL0     H48293   7.322  -0.839   2.711 -1.8307  0.2149 -1.3604
  358MOL0     H48294   7.471  -0.943   2.884  0.9715 -0.7130  1.7400
  358MOL0     H48295   7.505  -0.768   2.834  0.8579  0.8450  1.0963
  358MOL0     H48296   7.568  -0.887   3.111  3.3809  0.5862  1.4947
  358MOL0     H48297   7.686  -0.893   2.984  0.1386 -1.4094  1.9465
  358MOL0     H48298   7.655  -0.643   2.953  0.3614  0.5898  0.1456
  358MOL0     H48299   7.546  -0.674   3.097 -0.2664 -3.1218  1.6860
  358MOL0     H48300   7.854  -0.725   3.065  2.1082  3.5962  1.9419
  358MOL0     H48301   7.760  -0.789   3.206 -0.9113  0.1850 -0.4200
  358MOL0     H48302   7.823  -0.486   3.140 -0.5004  2.5768  2.8378
  358MOL0     H48303   7.907  -0.595   3.257  0.2423 -0.6497 -0.2070
  358MOL0     H48304   7.616  -0.492   3.245  1.1307  0.0824 -0.9463
  358MOL0     H48305   7.687  -0.594   3.374  0.0693 -1.4853  0.4054
  358MOL0     H48306   7.807  -0.324   3.273 -2.6765  1.3761  0.0016
  358MOL0     H48307   7.824  -0.393   3.441 -0.2061 -2.1982  1.2178
  358MOL0     H48308   7.660  -0.186   3.403 -1.7353  0.2343 -1.4156
  358MOL0     H48309   7.553  -0.306   3.332  0.9615 -1.1071 -0.9376
  358MOL0     H48310   7.168  -0.736   3.101  1.9673  0.8094 -0.7616
  358MOL0     H48311   6.942  -0.734   3.002 -1.0217  2.3977 -2.1368
  358MOL0     H48312   6.715  -0.907   2.622  2.0372  1.8328  1.2094
  358MOL0     H48313   6.480  -0.982   2.583 -1.1780  0.9827 -2.7447
  358MOL0     H48314   5.901   0.352   2.456  1.1461  1.0208 -0.3222
  358MOL0     H48315   6.146   0.342   2.428 -1.0552  1.1088  0.5375
  358MOL0     H48316   6.486   0.010   2.652  1.0056 -0.4810  0.8337
  358MOL0     H48317   6.707  -0.030   2.727  2.0664  0.0081  0.0176
  358MOL0     H48318   6.898  -0.101   2.704 -0.7417  0.5333 -1.2607
  358MOL0     H48319   6.956   0.003   2.825 -0.3841  0.0634  0.5014
  358MOL0     H48320   7.123  -0.093   2.589  0.2330  0.4959 -0.1450
  358MOL0     H48321   7.085  -0.186   2.727 -2.7995 -0.1574 -1.5644
  358MOL0     H48322   7.314  -0.064   2.737  0.2881 -0.9216  0.2780
  358MOL0     H48323   7.209  -0.026   2.877 -2.1900  2.6373 -0.6071
  358MOL0     H48324   7.233   0.161   2.641 -0.0067 -2.9002 -0.7934
  358MOL0     H48325   7.170   0.182   2.807  0.8437  1.2061 -1.2539
  358MOL0     H48326   7.538   0.280   2.919 -0.0117  1.9215 -2.6576
  358MOL0     H48327   6.867   0.248   2.438  1.5799 -2.0358 -0.7046
  358MOL0     H48328   6.561   0.436   2.410 -1.3093 -1.6746  1.1780
  358MOL0     H48329   6.722   0.412   2.341  0.9441  0.7255  1.3522
  358MOL0     H48330   6.594   0.340   2.259  0.8839  2.9117 -0.0571
  359MOL0     O48331   0.730  10.222   8.038 -0.0236 -0.5512  0.5398
  359MOL0     C48332   0.657  10.267   7.948 -0.1210  0.0737  0.3642
  359MOL0     O48333   0.696  10.370   7.866 -0.3891  0.5532 -0.1986
  359MOL0     C48334   0.829  10.415   7.857  1.0610  0.0424 -0.2465
  359MOL0     C48335   0.855  10.554   7.844  0.4281  0.0039 -0.1292
  359MOL0     C48336   0.987  10.595   7.823 -0.4381  0.8626  0.8128
  359MOL0     C48337   1.103  10.503   7.831  0.0126 -0.1864  0.0107
  359MOL0     O48338   1.239  10.538   7.810  1.1336 -0.2302  0.5642
  359MOL0     C48339   1.345  10.480   7.895 -0.5363  0.3032 -0.6454
  359MOL0     C48340   1.429  10.594   7.949  0.4252  0.2677  0.3530
  359MOL0     C48341   1.540  10.551   8.045 -0.0821  0.0266 -0.1394
  359MOL0     C48342   1.638  10.673   8.063  0.2569  0.1963  0.3782
  359MOL0     C48343   1.764  10.637   8.132  0.3749  0.3331  0.4235
  359MOL0     C48344   1.869  10.551   8.063 -0.0353  0.1035 -0.2966
  359MOL0     C48345   1.927  10.617   7.940  0.3667  0.1286 -0.6433
  359MOL0     C48346   2.063  10.567   7.899 -0.4455  0.8934  0.4800
  359MOL0     N48347   2.160  10.547   8.013 -0.1939 -0.4016  0.5657
  359MOL0     C48348   2.202  10.656   8.083 -0.1670  0.4056 -0.8999
  359MOL0     C48349   2.313  10.618   8.153 -0.6019  0.2541  0.2207
  359MOL0     C48350   2.383  10.710   8.244 -0.1703 -0.1122 -0.1896
  359MOL0     C48351   2.530  10.694   8.232 -0.9065 -0.6270 -0.0723
  359MOL0     C48352   2.604  10.807   8.312  0.1530 -0.4796 -0.0155
  359MOL0     C48353   2.757  10.786   8.293  0.2849 -1.0553  0.0812
  359MOL0     O48354   2.805  10.839   8.168 -0.2610 -0.3115 -0.6052
  359MOL0     C48355   2.938  10.826   8.139  0.3310 -0.6858  0.5511
  359MOL0     C48356   3.038  10.782   8.230 -0.3896  0.0721 -0.3148
  359MOL0     C48357   3.172  10.760   8.192 -0.2696  0.1839  1.1546
  359MOL0     C48358   3.208  10.785   8.057  0.0813 -0.0416 -0.0087
  359MOL0     C48359   3.344  10.777   8.007  0.0507 -0.5381 -0.0964
  359MOL0     O48360   3.361  10.811   7.879 -0.1588 -0.0051 -0.3263
  359MOL0     C48361   3.489  10.821   7.834  0.5561  0.0153  0.3089
  359MOL0     C48362   3.532  10.938   7.772 -0.3711  0.1321  0.0997
  359MOL0     C48363   3.658  10.937   7.706  0.0586 -0.4540  0.0831
  359MOL0     C48364   3.751  10.830   7.710 -0.4742  0.5720  1.1678
  359MOL0     O48365   3.881  10.834   7.658  0.7542  0.4887 -0.7735
  359MOL0     C48366   3.940  10.962   7.644 -0.7950  0.4949 -0.4985
  359MOL0     C48367   4.093  10.946   7.639  0.5505 -0.2749 -1.3312
  359MOL0     C48368   4.166  11.071   7.578 -0.0889 -0.0959  0.2161
  359MOL0     C48369   4.315  11.043   7.553 -1.3370 -1.4365 -0.0971
  359MOL0     C48370   4.389  11.168   7.504 -0.8753 -0.3029 -0.2139
  359MOL0     C48371   4.544  11.152   7.507 -0.0365  0.0685  0.6485
  359MOL0     C48372   4.610  11.269   7.440 -0.0264  0.3056  0.2544
  359MOL0     C48373   4.758  11.253   7.389 -0.2083  0.4668 -0.0456
  359MOL0    Cl48374   4.793  11.129   7.280  0.0315 -0.1000  0.4221
  359MOL0     C48375   3.709  10.725   7.784 -0.0779  0.5188  0.4638
  359MOL0     C48376   3.578  10.711   7.828 -0.2651 -0.1198 -0.1474
  359MOL0     O48377   3.430  10.732   8.084  0.4493  0.1810 -0.1675
  359MOL0     C48378   3.106  10.831   7.968 -0.0535 -0.0786  0.0856
  359MOL0     C48379   2.980  10.858   8.012  0.2196 -0.7344  0.9687
  359MOL0     N48380   2.342  10.490   8.121 -0.3975  0.7805  0.3046
  359MOL0     N48381   2.257  10.452   8.031  0.1323  0.4758  0.2057
  359MOL0     C48382   1.069  10.370   7.854 -0.3090  0.4480 -0.4949
  359MOL0     C48383   0.936  10.324   7.866  0.2285  0.1474 -0.4701
  359MOL0     C48384   0.525  10.203   7.921 -0.2184 -0.8143 -0.1890
  359MOL0     C48385   0.464  10.213   7.791 -0.3870  0.3820 -0.9995
  359MOL0     C48386   0.335  10.159   7.765 -0.3787 -0.6169  0.9732
  359MOL0     C48387   0.257  10.102   7.862  0.2010  0.3982 -0.5240
  359MOL0     O48388   0.135  10.050   7.825 -0.3625  0.8151  0.7623
  359MOL0     C48389   0.036  10.014   7.926 -0.1275  0.2034 -0.3940
  359MOL0     C48390   0.054   9.879   7.993  0.5156 -0.5513 -0.1376
  359MOL0     C48391   0.112   9.771   7.900  0.4984 -0.0195  0.3015
  359MOL0     C48392   0.016   9.712   7.795  0.2402 -0.3164  0.8389
  359MOL0     C48393   0.094   9.621   7.705  0.3888  0.0530 -0.6622
  359MOL0     C48394   0.164   9.546   7.638 -0.5421 -0.3448 -1.0538
  359MOL0     C48395   0.308  10.103   7.993 -0.0959  0.1496  0.0722
  359MOL0     C48396   0.436  10.148   8.024  0.1885  0.3846  0.0776
  359MOL0     C48397   0.466  10.163   8.167  0.0898  0.5349  0.1844
  359MOL0     H48398   0.773  10.625   7.840  1.2663  0.9537 -1.1663
  359MOL0     H48399   0.999  10.694   7.780 -0.8361  0.7109  0.3492
  359MOL0     H48400   1.298  10.429   7.980  2.7095 -0.5937  0.7594
  359MOL0     H48401   1.411  10.415   7.838 -0.1062 -2.2882  2.4987
  359MOL0     H48402   1.371  10.666   8.008  0.8598  0.2267  0.8278
  359MOL0     H48403   1.474  10.651   7.867 -0.0132 -1.2108 -0.9745
  359MOL0     H48404   1.598  10.470   8.000 -0.7240  1.7253 -4.4310
  359MOL0     H48405   1.498  10.512   8.138 -0.8121 -0.9552 -0.8568
  359MOL0     H48406   1.652  10.727   7.969 -1.0603 -1.2448 -0.6900
  359MOL0     H48407   1.592  10.748   8.128  2.2819 -0.4251  2.6691
  359MOL0     H48408   1.811  10.733   8.156 -1.0032  0.6706  1.9238
  359MOL0     H48409   1.725  10.596   8.225 -2.6135  1.5844 -0.1719
  359MOL0     H48410   1.952  10.529   8.131 -0.1578 -0.1048 -0.2113
  359MOL0     H48411   1.827  10.452   8.044  1.0282 -0.8918  2.0278
  359MOL0     H48412   1.938  10.725   7.953  2.4474 -0.0250 -0.7501
  359MOL0     H48413   1.850  10.600   7.864 -1.2112  3.5789 -0.0008
  359MOL0     H48414   2.058  10.473   7.843  1.7209  1.0553 -0.0610
  359MOL0     H48415   2.103  10.634   7.823 -0.5516 -0.3089 -0.6832
  359MOL0     H48416   2.147  10.749   8.082 -0.7317  0.0788 -1.3401
  359MOL0     H48417   2.351  10.812   8.220 -0.0422  0.2499  1.1330
  359MOL0     H48418   2.360  10.678   8.346 -2.2552 -0.1276 -0.6171
  359MOL0     H48419   2.556  10.595   8.272  0.3728 -1.2252 -2.2214
  359MOL0     H48420   2.566  10.697   8.129  2.0391 -2.6830  0.7457
  359MOL0     H48421   2.569  10.794   8.414  0.0118 -1.4813 -0.1865
  359MOL0     H48422   2.588  10.911   8.281  0.2948  0.0752  1.6869
  359MOL0     H48423   2.785  10.682   8.311 -2.5986 -1.9322 -0.0061
  359MOL0     H48424   2.806  10.844   8.371 -0.3165  2.4233 -1.9366
  359MOL0     H48425   3.009  10.755   8.330  0.9946  0.6786  0.2803
  359MOL0     H48426   3.243  10.720   8.264 -0.0884 -1.5529  0.0574
  359MOL0     H48427   3.482  11.034   7.770 -2.3660 -0.7285 -4.3321
  359MOL0     H48428   3.675  11.038   7.669  0.2099 -0.1923  0.8531
  359MOL0     H48429   3.918  10.997   7.542  3.0146 -0.4174 -1.8009
  359MOL0     H48430   3.904  11.037   7.715  0.8450  0.1504  0.7526
  359MOL0     H48431   4.133  10.933   7.740  1.3187 -0.0312 -1.5906
  359MOL0     H48432   4.105  10.855   7.579 -0.4727 -1.9653  0.8924
  359MOL0     H48433   4.122  11.098   7.481  2.8974  1.2394 -0.8937
  359MOL0     H48434   4.168  11.160   7.643  0.8229  0.5515 -0.6666
  359MOL0     H48435   4.319  10.963   7.478 -1.5373 -3.8088  2.2672
  359MOL0     H48436   4.363  10.990   7.636 -0.1796 -0.6782 -0.2700
  359MOL0     H48437   4.373  11.253   7.571  0.8764 -0.9012  1.0407
  359MOL0     H48438   4.351  11.197   7.405 -2.0693  0.6253  0.4892
  359MOL0     H48439   4.574  11.143   7.612 -1.4765 -2.2310  0.9045
  359MOL0     H48440   4.564  11.064   7.446  1.4925  0.8689 -0.0933
  359MOL0     H48441   4.611  11.357   7.505 -0.2921  1.6828 -1.5569
  359MOL0     H48442   4.554  11.301   7.352 -1.7521 -1.2977  0.7127
  359MOL0     H48443   4.795  11.347   7.349  2.5896 -0.0265  1.1406
  359MOL0     H48444   4.822  11.231   7.475 -1.4303  0.2082  0.8153
  359MOL0     H48445   3.786  10.649   7.800 -1.4982 -1.1280 -0.2106
  359MOL0     H48446   3.559  10.613   7.870  1.9386  0.3604  2.2427
  359MOL0     H48447   3.126  10.856   7.864  3.0776  0.1507  0.6195
  359MOL0     H48448   2.907  10.896   7.941  2.9284  4.0904  0.3634
  359MOL0     H48449   1.139  10.286   7.861  0.9620  1.5256  0.2208
  359MOL0     H48450   0.921  10.218   7.882 -0.3598  0.1210 -1.1777
  359MOL0     H48451   0.518  10.261   7.710 -0.2493  0.7103 -0.7150
  359MOL0     H48452   0.297  10.169   7.664  1.2867  5.1843  0.5520
  359MOL0     H48453  -0.054  10.005   7.864  0.4352 -0.6038 -1.1266
  359MOL0     H48454   0.027  10.092   8.001  0.6829 -1.8433  1.9790
  359MOL0     H48455  -0.040   9.836   8.027  0.3164  0.5525  0.7275
  359MOL0     H48456   0.119   9.881   8.081 -0.0649  0.0798  0.2878
  359MOL0     H48457   0.151   9.690   7.963 -1.8666 -0.6974  0.9718
  359MOL0     H48458   0.191   9.823   7.844 -0.8534  0.1398 -1.5273
  359MOL0     H48459  -0.052   9.644   7.847  1.7289 -3.8180 -1.4330
  359MOL0     H48460  -0.032   9.797   7.745 -0.0749  0.2092  1.9988
  359MOL0     H48461   0.230   9.490   7.576  3.7036  1.5906  1.2778
  359MOL0     H48462   0.246  10.071   8.076  0.3162  1.2553  0.8376
  359MOL0     H48463   0.387  10.123   8.230  1.4994 -2.5404  0.1846
  359MOL0     H48464   0.557  10.105   8.184 -1.3592 -1.5565  1.1925
  359MOL0     H48465   0.488  10.268   8.187  0.5534  1.3080 -3.6056
  360MOL0     O48466   5.204   2.534   3.269  0.3326 -0.0478 -0.0725
  360MOL0     C48467   5.114   2.586   3.337 -0.3478 -0.4323  0.4330
  360MOL0     O48468   5.141   2.689   3.425 -0.3862  0.1962 -0.6323
  360MOL0     C48469   5.258   2.762   3.395  0.0965  1.3364  0.2654
  360MOL0     C48470   5.259   2.867   3.305  0.4480 -0.1928  0.1311
  360MOL0     C48471   5.373   2.937   3.276 -0.5732 -0.1073 -0.0700
  360MOL0     C48472   5.491   2.912   3.351  1.3881  1.3470 -0.0791
  360MOL0     O48473   5.614   2.970   3.332  0.4470  0.1350 -0.3178
  360MOL0     C48474   5.621   3.082   3.239  0.1811  0.8562 -0.3643
  360MOL0     C48475   5.763   3.127   3.205 -0.5141 -0.6980 -0.5376
  360MOL0     C48476   5.843   3.152   3.331 -0.0867  0.1090 -0.9836
  360MOL0     C48477   5.992   3.181   3.287 -0.9734  0.1259 -0.7133
  360MOL0     C48478   6.076   3.212   3.411  0.0726 -0.3029  0.0429
  360MOL0     C48479   6.225   3.249   3.384  0.0894  0.6992  0.2576
  360MOL0     C48480   6.271   3.233   3.245 -0.0536 -0.6047  0.4929
  360MOL0     C48481   6.408   3.291   3.231 -0.6072  0.6609 -0.2419
  360MOL0     N48482   6.460   3.282   3.090 -0.2484 -0.5652 -0.3783
  360MOL0     C48483   6.590   3.297   3.050  0.5370 -0.2787 -0.8984
  360MOL0     C48484   6.588   3.258   2.919 -0.4099 -0.5430  0.2568
  360MOL0     C48485   6.699   3.254   2.822 -0.2749  0.1599 -0.0642
  360MOL0     C48486   6.743   3.109   2.773 -0.4326 -0.3237 -0.1752
  360MOL0     C48487   6.742   3.101   2.620 -0.3279 -0.3600 -0.1768
  360MOL0     C48488   6.821   2.974   2.566  1.2077  0.0671 -0.3533
  360MOL0     O48489   6.953   2.959   2.626  0.7384 -0.4696  0.3745
  360MOL0     C48490   7.034   2.881   2.550  0.0419 -0.1772 -1.2727
  360MOL0     C48491   6.992   2.787   2.458  0.2852  1.2245 -0.1078
  360MOL0     C48492   7.083   2.714   2.378 -0.2724  0.3927 -0.3770
  360MOL0     C48493   7.223   2.730   2.397 -0.0079  0.8168  0.2582
  360MOL0     C48494   7.321   2.651   2.316  0.2419  0.7496  0.1642
  360MOL0     O48495   7.446   2.683   2.346  0.0006 -0.6481 -0.0188
  360MOL0     C48496   7.551   2.648   2.272 -1.2604 -0.2086 -0.2919
  360MOL0     C48497   7.672   2.616   2.342  0.5276 -0.9803  0.4699
  360MOL0     C48498   7.781   2.558   2.279  0.3548 -0.3498 -0.5739
  360MOL0     C48499   7.770   2.540   2.141  0.1054  0.1958 -0.1859
  360MOL0     O48500   7.863   2.489   2.050  0.2733  0.4848  0.5475
  360MOL0     C48501   8.001   2.469   2.089 -0.4198  0.0403 -0.2078
  360MOL0     C48502   8.086   2.381   1.992  0.6160 -0.2802 -0.3692
  360MOL0     C48503   8.029   2.247   1.959  0.3574  1.1898  0.6680
  360MOL0     C48504   8.118   2.181   1.854 -0.1514  0.2200  0.2208
  360MOL0     C48505   8.065   2.043   1.820  0.4317 -0.2671  1.0090
  360MOL0     C48506   8.175   1.945   1.797 -0.0882  0.0457 -0.5677
  360MOL0     C48507   8.119   1.811   1.753  1.0218  1.1641 -0.2926
  360MOL0     C48508   8.221   1.693   1.769  0.4939 -1.1364  0.4143
  360MOL0    Cl48509   8.190   1.632   1.926 -0.0914 -0.2330 -0.0139
  360MOL0     C48510   7.662   2.586   2.073  0.4466 -0.6445 -0.3038
  360MOL0     C48511   7.546   2.642   2.136 -0.3795 -0.0650  0.1279
  360MOL0     O48512   7.286   2.572   2.233 -0.4605  0.0259  0.0627
  360MOL0     C48513   7.260   2.821   2.497  0.2253 -0.0330  0.2145
  360MOL0     C48514   7.170   2.910   2.561  0.6443  0.8332  0.3433
  360MOL0     N48515   6.455   3.247   2.882  0.4742  0.0186  0.7039
  360MOL0     N48516   6.378   3.259   2.983 -0.0539  0.7220  0.1491
  360MOL0     C48517   5.486   2.812   3.451 -0.7555  1.3792 -0.1775
  360MOL0     C48518   5.364   2.734   3.475 -0.1188  0.2923 -0.0931
  360MOL0     C48519   4.980   2.537   3.325  0.1155  0.2819  0.1290
  360MOL0     C48520   4.934   2.495   3.206  0.1975 -0.0570 -0.2507
  360MOL0     C48521   4.804   2.453   3.179  0.4411 -0.4735  0.1865
  360MOL0     C48522   4.710   2.464   3.282 -0.1002  1.2752  0.5519
  360MOL0     O48523   4.582   2.421   3.271 -0.3258 -0.2629 -0.1622
  360MOL0     C48524   4.512   2.456   3.149 -0.2304 -0.4609  0.2803
  360MOL0     C48525   4.472   2.610   3.143 -0.0988 -0.0323 -0.3593
  360MOL0     C48526   4.406   2.648   3.275 -0.4168 -1.0668  0.1470
  360MOL0     C48527   4.277   2.573   3.303  0.6706 -0.4232  0.0800
  360MOL0     C48528   4.161   2.622   3.215  0.2349  0.6859 -0.2122
  360MOL0     C48529   4.077   2.672   3.138 -0.7335  0.2512 -1.2588
  360MOL0     C48530   4.757   2.502   3.410  0.3481  0.7355  0.6457
  360MOL0     C48531   4.887   2.540   3.431  0.0183 -0.1259  0.3168
  360MOL0     C48532   4.926   2.555   3.581 -0.0158 -0.5209  0.3976
  360MOL0     H48533   5.162   2.889   3.262 -0.7724 -1.5186  2.0534
  360MOL0     H48534   5.376   3.017   3.202  0.8568 -0.5577 -0.5427
  360MOL0     H48535   5.584   3.050   3.141  2.4878 -2.0077 -0.4321
  360MOL0     H48536   5.557   3.164   3.272  1.0811  1.3400  0.2069
  360MOL0     H48537   5.751   3.219   3.147  1.2303  1.1981  1.8908
  360MOL0     H48538   5.815   3.055   3.141 -0.2724 -1.1498  0.1470
  360MOL0     H48539   5.837   3.055   3.382  0.7145 -0.1236 -1.3302
  360MOL0     H48540   5.806   3.236   3.391  1.1482 -0.2276  0.2992
  360MOL0     H48541   6.040   3.098   3.236 -2.0065 -0.3339 -0.9711
  360MOL0     H48542   5.997   3.261   3.212  1.7549  0.2280 -0.5190
  360MOL0     H48543   6.032   3.302   3.456 -1.0702  0.4677 -2.4351
  360MOL0     H48544   6.059   3.134   3.486 -4.4861  1.2739  1.0246
  360MOL0     H48545   6.236   3.353   3.414 -0.5924  0.6092  0.8361
  360MOL0     H48546   6.290   3.189   3.449  0.3840  1.8041  1.0011
  360MOL0     H48547   6.200   3.290   3.185  1.0263 -0.5809 -0.8040
  360MOL0     H48548   6.276   3.127   3.216 -3.6702 -1.1605  1.4734
  360MOL0     H48549   6.408   3.399   3.252 -0.1466  0.3631  1.4230
  360MOL0     H48550   6.473   3.248   3.307 -3.1365  0.4358  1.9220
  360MOL0     H48551   6.677   3.335   3.103 -0.2844  0.9415 -0.4080
  360MOL0     H48552   6.665   3.315   2.738 -1.8428 -0.4311  0.1146
  360MOL0     H48553   6.787   3.301   2.867  0.6947  0.7071 -2.3614
  360MOL0     H48554   6.839   3.076   2.815 -0.6512 -1.3855 -0.4884
  360MOL0     H48555   6.675   3.038   2.821  0.0842  0.0192  1.1216
  360MOL0     H48556   6.802   3.181   2.575 -0.2989 -0.0614  0.3903
  360MOL0     H48557   6.638   3.110   2.589 -0.5735  1.0637  0.9683
  360MOL0     H48558   6.832   2.994   2.459 -1.0342  2.0462 -0.3001
  360MOL0     H48559   6.753   2.888   2.567 -1.6398  2.1270 -2.0581
  360MOL0     H48560   6.888   2.771   2.432  0.2911  1.6518 -0.3961
  360MOL0     H48561   7.041   2.649   2.303 -0.0242 -0.7136  0.4153
  360MOL0     H48562   7.666   2.627   2.450  0.4580  1.6933  0.2542
  360MOL0     H48563   7.867   2.523   2.336  2.3353  2.6784 -1.4090
  360MOL0     H48564   8.042   2.570   2.089 -2.4018  0.9002 -0.5967
  360MOL0     H48565   8.022   2.430   2.189 -0.7025  2.7563  1.0053
  360MOL0     H48566   8.101   2.444   1.904  1.8330 -1.3174 -0.9314
  360MOL0     H48567   8.184   2.366   2.037 -0.2666  0.6447  2.0720
  360MOL0     H48568   8.038   2.189   2.051  1.0567 -0.0288 -0.1413
  360MOL0     H48569   7.929   2.259   1.918  0.4728  1.6529  0.5080
  360MOL0     H48570   8.224   2.179   1.882 -0.5036  0.3299  1.5938
  360MOL0     H48571   8.125   2.241   1.763  3.3205 -1.7321 -1.0177
  360MOL0     H48572   8.011   2.054   1.725  1.3313 -1.9566  0.2717
  360MOL0     H48573   7.994   2.004   1.894  0.6021 -1.7150  0.4241
  360MOL0     H48574   8.244   1.994   1.727  0.5857 -0.7460 -0.4636
  360MOL0     H48575   8.233   1.922   1.887  1.0393 -0.2108 -1.3371
  360MOL0     H48576   8.095   1.816   1.647  0.6067  0.7924 -0.2182
  360MOL0     H48577   8.023   1.791   1.802  1.0435  1.4002 -0.1476
  360MOL0     H48578   8.187   1.614   1.702 -2.5451 -1.1545  1.8076
  360MOL0     H48579   8.320   1.737   1.755 -0.8382  1.3326 -2.2720
  360MOL0     H48580   7.675   2.583   1.965  2.4309  1.9492 -0.2089
  360MOL0     H48581   7.464   2.676   2.074 -0.4072 -0.5409 -0.1001
  360MOL0     H48582   7.363   2.838   2.527  0.6529 -2.3120  0.1708
  360MOL0     H48583   7.188   2.993   2.628  1.2413  2.1686 -1.4028
  360MOL0     H48584   5.575   2.780   3.504  0.2289  3.6014 -0.3731
  360MOL0     H48585   5.374   2.654   3.548  2.2032 -0.3646 -1.0284
  360MOL0     H48586   4.995   2.482   3.117  0.1881  0.4071 -0.3244
  360MOL0     H48587   4.784   2.422   3.077 -1.5831  1.5090 -0.0963
  360MOL0     H48588   4.421   2.394   3.155 -1.0649  0.5997 -0.8965
  360MOL0     H48589   4.560   2.423   3.056  0.2659  0.4553  0.1978
  360MOL0     H48590   4.408   2.611   3.054  1.4233  1.1315 -1.4951
  360MOL0     H48591   4.554   2.679   3.123  0.3979 -0.5165  0.0006
  360MOL0     H48592   4.377   2.754   3.277 -0.6789 -1.0370 -2.3237
  360MOL0     H48593   4.476   2.625   3.356 -0.4190  0.5497  0.6395
  360MOL0     H48594   4.293   2.466   3.287  2.3029 -0.5205  1.9616
  360MOL0     H48595   4.247   2.587   3.407  0.2662  1.2284 -0.2247
  360MOL0     H48596   3.993   2.712   3.085 -1.9384 -0.8315 -0.2309
  360MOL0     H48597   4.691   2.490   3.496  0.3810  0.4872  0.6374
  360MOL0     H48598   4.935   2.664   3.589  0.0623 -0.4557 -0.4848
  360MOL0     H48599   4.844   2.531   3.648  0.0984 -0.7148  0.4691
  360MOL0     H48600   5.024   2.510   3.600 -0.0790 -0.2450  1.4103
  361MOL0     O48601   6.839   0.460   5.330 -0.1592 -0.2436  0.5860
  361MOL0     C48602   6.835   0.348   5.273  0.4309  0.2299  0.0584
  361MOL0     O48603   6.946   0.290   5.212  0.4135 -0.3193  0.1928
  361MOL0     C48604   7.063   0.358   5.213 -0.4830 -0.3209  0.8565
  361MOL0     C48605   7.144   0.371   5.327 -0.0566  0.1654 -0.4055
  361MOL0     C48606   7.268   0.429   5.321  0.0478 -0.6152 -0.5237
  361MOL0     C48607   7.318   0.488   5.203  0.3261  0.3775 -0.4293
  361MOL0     O48608   7.447   0.547   5.202  0.0267 -0.2090 -0.0669
  361MOL0     C48609   7.515   0.580   5.325  0.1620 -0.4468  1.0425
  361MOL0     C48610   7.639   0.664   5.300 -0.3533  0.5580  0.3985
  361MOL0     C48611   7.672   0.758   5.418 -0.0993  0.6175  0.0906
  361MOL0     C48612   7.692   0.674   5.540  0.5645 -0.0662 -0.4576
  361MOL0     C48613   7.710   0.752   5.675 -1.5663 -0.1597  0.4190
  361MOL0     C48614   7.855   0.810   5.686  0.9428 -0.1423  0.9568
  361MOL0     C48615   7.869   0.893   5.812  0.3251  0.5734  0.0465
  361MOL0     C48616   8.009   0.956   5.825  0.9619  0.1437  1.0320
  361MOL0     N48617   8.110   0.865   5.863 -0.7105  0.3357  0.8859
  361MOL0     C48618   8.107   0.775   5.966 -0.2808  0.2927 -0.3884
  361MOL0     C48619   8.232   0.708   5.955  0.0314  0.0263  0.3717
  361MOL0     C48620   8.288   0.593   6.034 -0.9570 -0.0790 -0.9896
  361MOL0     C48621   8.415   0.629   6.112 -0.7898 -0.2764  0.2026
  361MOL0     C48622   8.391   0.755   6.202 -0.2138 -0.2611 -0.0308
  361MOL0     C48623   8.515   0.783   6.281 -0.1022 -0.6484 -0.2713
  361MOL0     O48624   8.621   0.826   6.195 -0.1568 -0.5881 -0.1274
  361MOL0     C48625   8.745   0.808   6.238  0.4308  0.7637  0.9871
  361MOL0     C48626   8.794   0.694   6.292 -0.6387  0.2046 -0.0491
  361MOL0     C48627   8.925   0.677   6.333  0.9141 -0.0275 -0.3088
  361MOL0     C48628   9.010   0.788   6.319 -0.9291 -0.6092  0.6847
  361MOL0     C48629   9.150   0.774   6.379 -0.0398 -0.0477 -0.6817
  361MOL0     O48630   9.181   0.646   6.432 -0.5370 -0.6350  0.0769
  361MOL0     C48631   9.309   0.614   6.471 -0.2638  0.1532 -0.3579
  361MOL0     C48632   9.310   0.483   6.514  0.6464 -0.5523  0.2584
  361MOL0     C48633   9.436   0.440   6.568  0.4997 -0.4746  0.6326
  361MOL0     C48634   9.550   0.519   6.570 -0.0085  0.4164 -0.0984
  361MOL0     O48635   9.658   0.448   6.626  0.0054  0.4420 -0.2449
  361MOL0     C48636   9.790   0.488   6.582  0.5309  1.1764 -0.9722
  361MOL0     C48637   9.888   0.381   6.637  0.1650  0.3006  0.2745
  361MOL0     C48638  10.035   0.411   6.597 -0.2871 -0.3497  0.5376
  361MOL0     C48639  10.084   0.333   6.478 -0.4068 -0.0430  0.4485
  361MOL0     C48640  10.218   0.376   6.413  0.3858  0.3077 -0.1399
  361MOL0     C48641  10.252   0.276   6.302  0.3536 -0.0235  0.5911
  361MOL0     C48642  10.356   0.350   6.216  0.3393 -0.6076  0.3888
  361MOL0     C48643  10.442   0.261   6.136 -0.1120  0.1385 -0.2557
  361MOL0    Cl48644  10.553   0.189   6.264 -0.0263 -0.0801 -0.0681
  361MOL0     C48645   9.547   0.647   6.527 -0.4812  0.2726 -0.2308
  361MOL0     C48646   9.428   0.693   6.482 -0.2588  0.2569  0.6587
  361MOL0     O48647   9.224   0.869   6.363 -0.3378 -0.3229 -0.6824
  361MOL0     C48648   8.969   0.907   6.246  0.4092 -0.3055  0.1596
  361MOL0     C48649   8.833   0.910   6.211 -0.1268  0.2398 -0.5734
  361MOL0     N48650   8.292   0.757   5.845 -0.8804  0.3750 -0.0761
  361MOL0     N48651   8.220   0.844   5.784 -0.0114  0.0176  0.2574
  361MOL0     C48652   7.241   0.488   5.088 -0.0073 -0.2905  0.1148
  361MOL0     C48653   7.110   0.425   5.095 -0.6208  0.4146 -0.5346
  361MOL0     C48654   6.706   0.274   5.264 -0.9861  0.5698 -0.3646
  361MOL0     C48655   6.705   0.129   5.276 -0.2896  0.8356  0.0183
  361MOL0     C48656   6.586   0.053   5.277  0.9359 -0.4742 -0.9210
  361MOL0     C48657   6.466   0.116   5.264  0.0498 -0.6454  0.5709
  361MOL0     O48658   6.343   0.048   5.243  1.1472  0.3595 -0.6254
  361MOL0     C48659   6.312  -0.070   5.306 -0.6070 -0.2439 -0.0295
  361MOL0     C48660   6.219  -0.070   5.423  0.7287  0.1249  0.4830
  361MOL0     C48661   6.086   0.004   5.395 -0.3237  0.3056  0.8814
  361MOL0     C48662   5.983   0.014   5.506 -0.1555  0.8859  0.3748
  361MOL0     C48663   5.870   0.112   5.478  0.2479 -0.0754  0.7401
  361MOL0     C48664   5.801   0.212   5.479  0.9997  0.9566  0.7206
  361MOL0     C48665   6.469   0.248   5.259 -1.0441 -0.1293  0.2066
  361MOL0     C48666   6.582   0.329   5.252 -0.8177  0.4183 -0.0582
  361MOL0     C48667   6.565   0.477   5.244  0.0721 -0.3789  0.5662
  361MOL0     H48668   7.102   0.338   5.421 -3.4789  2.9562 -0.7659
  361MOL0     H48669   7.337   0.426   5.404 -3.3486  0.3518  2.6007
  361MOL0     H48670   7.456   0.650   5.385  0.6571 -0.1250  1.1633
  361MOL0     H48671   7.547   0.489   5.378  1.5002 -0.9240 -0.4997
  361MOL0     H48672   7.635   0.727   5.210 -0.1619  0.7714  0.5366
  361MOL0     H48673   7.727   0.602   5.283  0.5719  1.8763  0.1895
  361MOL0     H48674   7.584   0.821   5.434 -1.5505 -1.4316  0.5831
  361MOL0     H48675   7.759   0.817   5.388 -1.3217  0.8226 -3.6043
  361MOL0     H48676   7.602   0.615   5.557 -0.7846  2.3384  1.5052
  361MOL0     H48677   7.779   0.614   5.516 -0.0907 -1.2638  0.0784
  361MOL0     H48678   7.642   0.836   5.694 -0.0560  1.0264  0.7307
  361MOL0     H48679   7.700   0.679   5.756 -0.8274 -0.8937 -0.1333
  361MOL0     H48680   7.929   0.729   5.689  1.1303  0.0174  0.7027
  361MOL0     H48681   7.877   0.873   5.600  1.8261  0.7502  1.8101
  361MOL0     H48682   7.833   0.845   5.903  1.1523  1.6219  0.9681
  361MOL0     H48683   7.798   0.976   5.811  0.8902  1.0844  0.5617
  361MOL0     H48684   8.053   0.990   5.731 -3.0190 -1.4984 -1.6995
  361MOL0     H48685   8.007   1.038   5.898 -4.2923  1.1029  0.2461
  361MOL0     H48686   8.025   0.760   6.037  0.4942 -1.6773  0.1399
  361MOL0     H48687   8.220   0.549   6.108  1.5471  0.7116  2.0445
  361MOL0     H48688   8.314   0.513   5.964 -5.1427 -0.9097 -1.8798
  361MOL0     H48689   8.438   0.552   6.187  1.9843  0.9941  0.7743
  361MOL0     H48690   8.502   0.632   6.047  0.0103  0.0780  1.2563
  361MOL0     H48691   8.300   0.744   6.261 -2.6025 -0.1047 -3.3390
  361MOL0     H48692   8.381   0.840   6.134  0.6254  0.3579  0.6189
  361MOL0     H48693   8.538   0.695   6.342 -1.2892 -1.0376 -0.3462
  361MOL0     H48694   8.506   0.859   6.358  1.6414 -1.4327  0.7669
  361MOL0     H48695   8.729   0.607   6.285 -0.6041  0.2710 -1.3452
  361MOL0     H48696   8.947   0.581   6.378  0.5687  0.1866  0.3342
  361MOL0     H48697   9.214   0.433   6.520 -1.3027  2.4726 -2.2879
  361MOL0     H48698   9.443   0.336   6.600  0.2776 -0.8457 -0.4667
  361MOL0     H48699   9.786   0.485   6.473 -1.0298  0.0310 -0.9209
  361MOL0     H48700   9.807   0.589   6.621 -2.3625  2.3402 -2.4293
  361MOL0     H48701   9.879   0.385   6.746 -0.6217  0.2695  0.2146
  361MOL0     H48702   9.861   0.279   6.608 -0.4732  0.6569 -0.4226
  361MOL0     H48703  10.054   0.516   6.572  0.3277 -0.7975 -0.9501
  361MOL0     H48704  10.094   0.372   6.680  0.1978 -2.6246 -0.7991
  361MOL0     H48705  10.010   0.338   6.397  1.3245  2.4324 -1.1309
  361MOL0     H48706  10.091   0.228   6.506 -1.2809 -0.6448 -1.4329
  361MOL0     H48707  10.297   0.367   6.487 -0.7829  0.3608  1.1459
  361MOL0     H48708  10.220   0.476   6.367  2.3982 -1.0801 -3.4663
  361MOL0     H48709  10.294   0.188   6.352  3.0072 -1.1074 -3.1246
  361MOL0     H48710  10.167   0.249   6.239  2.0540 -0.5185 -1.6062
  361MOL0     H48711  10.418   0.401   6.291 -0.4937 -2.3061  2.3306
  361MOL0     H48712  10.313   0.426   6.150 -1.4534 -2.1224 -0.2549
  361MOL0     H48713  10.386   0.185   6.081  1.4903 -0.4086 -1.2062
  361MOL0     H48714  10.510   0.323   6.076 -1.2694  1.3434 -0.3829
  361MOL0     H48715   9.640   0.701   6.510  1.7937 -2.9719  0.8503
  361MOL0     H48716   9.428   0.798   6.456  0.8448  0.2980  0.7957
  361MOL0     H48717   9.029   0.996   6.230  1.6768 -1.5939 -3.2182
  361MOL0     H48718   8.804   0.999   6.156 -1.8545  0.2142  0.2527
  361MOL0     H48719   7.277   0.536   4.998 -0.3321  2.2111  1.2587
  361MOL0     H48720   7.056   0.434   5.001  1.6191 -2.4901 -2.2340
  361MOL0     H48721   6.802   0.082   5.293  0.5959  2.6593  0.2376
  361MOL0     H48722   6.606  -0.051   5.298  1.4421  0.1611  2.2795
  361MOL0     H48723   6.405  -0.124   5.327  0.2691  0.6071 -1.4999
  361MOL0     H48724   6.268  -0.137   5.232  0.2213 -1.0968  0.2294
  361MOL0     H48725   6.264  -0.018   5.508  0.3402 -0.0254  0.7863
  361MOL0     H48726   6.202  -0.170   5.462 -0.6145 -0.1572 -0.7267
  361MOL0     H48727   6.050  -0.052   5.308  1.7108  1.8574 -1.0671
  361MOL0     H48728   6.097   0.108   5.364 -2.1042  0.3789  0.3760
  361MOL0     H48729   5.943  -0.086   5.526  3.2041 -0.4780  0.9677
  361MOL0     H48730   6.025   0.056   5.598 -0.6329  0.8937  0.5918
  361MOL0     H48731   5.738   0.297   5.494 -0.1922  0.2430 -0.0463
  361MOL0     H48732   6.371   0.292   5.246 -0.8365  0.1129 -0.6129
  361MOL0     H48733   6.576   0.522   5.343  0.5548  2.8876 -0.8160
  361MOL0     H48734   6.636   0.512   5.167  0.2373  0.0341  0.9039
  361MOL0     H48735   6.467   0.508   5.207  0.3748  1.1663  0.9866
  362MOL0     O48736   5.654   2.108   9.503 -0.1339 -0.3105  0.1987
  362MOL0     C48737   5.606   2.186   9.587 -0.6197  0.7614 -0.1031
  362MOL0     O48738   5.680   2.286   9.649  0.3062  0.0001 -0.4569
  362MOL0     C48739   5.810   2.276   9.628 -0.9223  0.1803 -0.0376
  362MOL0     C48740   5.889   2.239   9.740  0.4848 -0.2798  0.7558
  362MOL0     C48741   6.032   2.245   9.734  0.1648  0.5431  0.0451
  362MOL0     C48742   6.091   2.280   9.609  0.4169  0.2316  0.2226
  362MOL0     O48743   6.229   2.282   9.601 -0.3651 -0.2763  0.3099
  362MOL0     C48744   6.291   2.371   9.507 -0.3114  1.0403  0.1502
  362MOL0     C48745   6.444   2.389   9.542  1.4171  0.4696 -0.4918
  362MOL0     C48746   6.502   2.249   9.570 -0.0381 -1.1447  0.0263
  362MOL0     C48747   6.655   2.250   9.572  0.5480 -0.2970 -0.1624
  362MOL0     C48748   6.716   2.262   9.429  0.9172 -0.8379 -0.5580
  362MOL0     C48749   6.779   2.120   9.388 -0.0018 -0.9353 -1.0004
  362MOL0     C48750   6.838   2.115   9.249  0.6264 -0.0776 -0.6655
  362MOL0     C48751   6.845   1.967   9.202  0.8682 -0.5151  0.3151
  362MOL0     N48752   6.911   1.884   9.298 -0.4762  0.4377 -0.1541
  362MOL0     C48753   6.864   1.760   9.325 -0.4788  1.0294 -0.2926
  362MOL0     C48754   6.963   1.717   9.402 -0.2923  0.5747 -0.4442
  362MOL0     C48755   6.955   1.594   9.491 -0.0628  0.5210  0.3417
  362MOL0     C48756   6.900   1.469   9.406 -0.6744  0.0554  0.0149
  362MOL0     C48757   6.843   1.356   9.499  1.0346  1.0334 -0.3879
  362MOL0     C48758   6.779   1.249   9.406 -0.3026  0.1893  0.4526
  362MOL0     O48759   6.715   1.148   9.489 -0.0937  0.1734 -0.0733
  362MOL0     C48760   6.590   1.095   9.461 -0.2674  0.4351 -0.6107
  362MOL0     C48761   6.527   1.098   9.338  0.1520  0.1280  0.0327
  362MOL0     C48762   6.401   1.049   9.320  0.7103  0.5689  0.1159
  362MOL0     C48763   6.328   0.986   9.435  0.2058 -0.7842  0.5294
  362MOL0     C48764   6.196   0.928   9.423  0.4930  0.3836  0.1833
  362MOL0     O48765   6.142   0.954   9.300  0.1417 -0.5838  0.5332
  362MOL0     C48766   6.005   0.947   9.268  0.5538 -0.4131  0.1183
  362MOL0     C48767   5.906   0.967   9.363 -0.3384 -0.3605 -0.6339
  362MOL0     C48768   5.770   0.962   9.332 -0.1992  0.1959 -0.1241
  362MOL0     C48769   5.734   0.938   9.198  0.0787 -0.5198 -0.3629
  362MOL0     O48770   5.606   0.923   9.156  0.7264  0.2603 -0.2842
  362MOL0     C48771   5.515   1.033   9.186 -0.2443 -0.2286 -1.3278
  362MOL0     C48772   5.535   1.144   9.088 -0.4301 -0.5956  0.1175
  362MOL0     C48773   5.491   1.111   8.948 -0.2580 -1.1035  0.9899
  362MOL0     C48774   5.595   1.173   8.863  0.2549  0.0943  0.4103
  362MOL0     C48775   5.583   1.127   8.724  0.0758  0.2318 -0.4000
  362MOL0     C48776   5.613   0.985   8.686  0.4490  0.7854 -0.5014
  362MOL0     C48777   5.588   0.942   8.539 -0.2857 -0.5700 -0.1071
  362MOL0     C48778   5.452   0.867   8.510  0.2029  0.0869  0.6472
  362MOL0    Cl48779   5.311   0.992   8.522 -0.1735 -0.1878  0.2941
  362MOL0     C48780   5.835   0.907   9.105 -0.1524  0.3959 -0.7272
  362MOL0     C48781   5.969   0.924   9.139  0.0351  1.2329  0.1824
  362MOL0     O48782   6.138   0.870   9.519 -0.6264 -0.5905 -0.0340
  362MOL0     C48783   6.391   0.989   9.562 -0.3653  0.5738 -0.2535
  362MOL0     C48784   6.523   1.039   9.572 -0.0215 -0.5371 -0.1377
  362MOL0     N48785   7.064   1.805   9.414  0.8772 -0.2514  0.2772
  362MOL0     N48786   7.027   1.913   9.355 -0.2543  0.4828 -0.0647
  362MOL0     C48787   6.009   2.300   9.499 -0.0180 -0.0984  0.2399
  362MOL0     C48788   5.868   2.314   9.508  1.6525 -0.2886 -0.0511
  362MOL0     C48789   5.463   2.194   9.625 -1.0469  0.2977 -0.3752
  362MOL0     C48790   5.419   2.284   9.726 -0.5755 -0.1669  0.6285
  362MOL0     C48791   5.284   2.291   9.765  0.9644 -0.6247  0.2807
  362MOL0     C48792   5.197   2.195   9.709  1.0856 -0.2354  0.1210
  362MOL0     O48793   5.066   2.202   9.754  0.4024  0.2884 -0.4398
  362MOL0     C48794   4.970   2.123   9.701 -0.1286 -0.7264 -1.1301
  362MOL0     C48795   4.925   2.142   9.554  0.3785 -0.2338 -0.4851
  362MOL0     C48796   4.904   2.291   9.525 -0.2242 -0.7994  1.0490
  362MOL0     C48797   4.877   2.320   9.376 -0.4184  0.4146 -0.0430
  362MOL0     C48798   4.762   2.245   9.324  1.0172  0.1537  0.2792
  362MOL0     C48799   4.668   2.194   9.272  0.6004 -0.0838  0.3108
  362MOL0     C48800   5.242   2.098   9.621  0.1101 -0.1952  0.3921
  362MOL0     C48801   5.370   2.099   9.569 -0.4584  0.1845  0.6082
  362MOL0     C48802   5.401   1.994   9.463  0.3169 -0.3247  0.8624
  362MOL0     H48803   5.843   2.216   9.835  0.2235  1.0996  0.9773
  362MOL0     H48804   6.085   2.213   9.823 -0.3768 -0.7220 -0.0578
  362MOL0     H48805   6.279   2.336   9.404 -2.4267 -0.0799  0.7243
  362MOL0     H48806   6.239   2.467   9.502 -0.6022  0.8219 -2.7416
  362MOL0     H48807   6.462   2.455   9.627  4.5358 -1.5586  0.6014
  362MOL0     H48808   6.497   2.433   9.457  0.4169  1.0924 -0.8074
  362MOL0     H48809   6.468   2.184   9.489  3.0257 -0.5018 -1.9259
  362MOL0     H48810   6.462   2.222   9.669  0.2017 -0.0219  0.4460
  362MOL0     H48811   6.693   2.330   9.637  0.8012 -2.4018  2.4801
  362MOL0     H48812   6.693   2.160   9.621 -0.0327  0.5899  2.0592
  362MOL0     H48813   6.645   2.292   9.351  0.6809 -0.9378 -0.3824
  362MOL0     H48814   6.793   2.340   9.424 -1.6445  2.1727  2.2687
  362MOL0     H48815   6.864   2.096   9.454  0.8860  3.1235 -0.3885
  362MOL0     H48816   6.706   2.040   9.399  0.1197 -0.8051  1.4581
  362MOL0     H48817   6.942   2.146   9.236  0.3827  1.0596  0.0019
  362MOL0     H48818   6.770   2.172   9.186 -2.6611 -3.2035 -0.2480
  362MOL0     H48819   6.749   1.920   9.181  1.6056 -0.9580 -2.6059
  362MOL0     H48820   6.894   1.959   9.104  1.3594  0.2782  0.4840
  362MOL0     H48821   6.765   1.716   9.322  0.4745 -1.3217  0.0368
  362MOL0     H48822   7.054   1.568   9.528 -0.7232 -2.6594  0.1084
  362MOL0     H48823   6.895   1.607   9.582  1.1762 -0.8553  1.3889
  362MOL0     H48824   6.834   1.505   9.327  1.3357 -0.1923 -1.9018
  362MOL0     H48825   6.988   1.435   9.349  0.0169 -2.7494  2.5360
  362MOL0     H48826   6.768   1.407   9.560 -0.9022 -1.2168 -0.7825
  362MOL0     H48827   6.915   1.314   9.571  0.6705  2.3262  0.7787
  362MOL0     H48828   6.857   1.206   9.342 -1.3258 -1.7673  0.4394
  362MOL0     H48829   6.701   1.298   9.347  1.5036  2.7074  0.0222
  362MOL0     H48830   6.587   1.120   9.250  1.2274 -1.9144  0.2087
  362MOL0     H48831   6.360   1.055   9.220 -0.4406 -4.1379  0.0820
  362MOL0     H48832   5.938   0.982   9.466 -0.9092 -1.2021 -0.3277
  362MOL0     H48833   5.691   0.981   9.405  0.3454  2.6039 -0.0754
  362MOL0     H48834   5.415   0.991   9.174 -0.1487 -1.1755  0.6354
  362MOL0     H48835   5.526   1.072   9.288 -0.6162 -2.3591 -0.4019
  362MOL0     H48836   5.478   1.229   9.127  1.8869  0.3975  1.6212
  362MOL0     H48837   5.641   1.172   9.087 -0.6661  0.3663 -1.6257
  362MOL0     H48838   5.498   1.002   8.939  1.8118 -1.2023  2.8168
  362MOL0     H48839   5.391   1.153   8.937  0.8369  2.2246  2.5809
  362MOL0     H48840   5.698   1.158   8.896 -0.1974 -0.3054  1.7046
  362MOL0     H48841   5.578   1.281   8.860 -1.9756 -0.2278 -1.4326
  362MOL0     H48842   5.644   1.191   8.659 -1.2212  0.3677 -1.5428
  362MOL0     H48843   5.483   1.154   8.688 -0.0795  1.4382  0.8588
  362MOL0     H48844   5.717   0.967   8.714 -0.3840 -1.9481  1.2192
  362MOL0     H48845   5.562   0.913   8.751  1.6861 -0.4057 -0.8108
  362MOL0     H48846   5.665   0.871   8.507  0.2742 -0.9781  1.9675
  362MOL0     H48847   5.593   1.024   8.468  0.3012 -1.6535 -1.3595
  362MOL0     H48848   5.456   0.838   8.404  0.7318 -0.1033  0.7139
  362MOL0     H48849   5.449   0.779   8.575 -1.6662 -0.4094 -0.0655
  362MOL0     H48850   5.815   0.857   9.010 -0.3861 -3.4977  1.1616
  362MOL0     H48851   6.054   0.892   9.079  1.4001  4.0944  0.4405
  362MOL0     H48852   6.342   0.955   9.653 -1.4125 -2.6897 -1.8491
  362MOL0     H48853   6.565   1.069   9.667  1.3862  2.9440 -1.6893
  362MOL0     H48854   6.063   2.310   9.405  1.3694 -0.6133  0.9396
  362MOL0     H48855   5.808   2.353   9.426 -0.1446 -1.7249  0.5003
  362MOL0     H48856   5.477   2.356   9.783 -0.2053  2.3151 -2.5838
  362MOL0     H48857   5.252   2.355   9.846 -2.4681 -2.2340  0.3890
  362MOL0     H48858   4.882   2.137   9.764  0.0577  0.5104 -1.1309
  362MOL0     H48859   4.995   2.016   9.710 -0.2722 -0.5787  2.3464
  362MOL0     H48860   4.830   2.087   9.550 -1.4016  2.5219  0.7422
  362MOL0     H48861   5.006   2.104   9.491 -0.4728  0.2786 -1.9101
  362MOL0     H48862   4.996   2.343   9.552 -0.2831 -0.5183  0.7085
  362MOL0     H48863   4.833   2.338   9.593  2.0401 -0.1443  3.0891
  362MOL0     H48864   4.856   2.427   9.370  0.8892  0.7912  1.5122
  362MOL0     H48865   4.970   2.290   9.325 -0.2769 -0.5936  0.7832
  362MOL0     H48866   4.589   2.154   9.210  1.9222  0.7417 -2.0461
  362MOL0     H48867   5.176   2.019   9.587  0.2898 -0.5493  0.8421
  362MOL0     H48868   5.478   1.928   9.503  1.5408  1.3174  1.3071
  362MOL0     H48869   5.312   1.941   9.428 -0.0182  1.6650 -1.6052
  362MOL0     H48870   5.451   2.044   9.379  0.4254 -0.2023  1.0004
  363MOL0     O48871   4.668   3.957   1.016 -0.6393 -0.3599 -0.3455
  363MOL0     C48872   4.636   3.927   0.910  0.3807 -0.2912 -0.2231
  363MOL0     O48873   4.713   3.879   0.807  0.2946 -0.9072 -0.1947
  363MOL0     C48874   4.846   3.851   0.825  0.4985  0.6393  0.1471
  363MOL0     C48875   4.922   3.853   0.708  0.4612  1.1510  0.9203
  363MOL0     C48876   5.059   3.806   0.704 -0.8908  0.6237  0.5387
  363MOL0     C48877   5.120   3.762   0.820 -1.0396  0.8597  0.1509
  363MOL0     O48878   5.253   3.712   0.820  0.3147 -0.3806  0.3316
  363MOL0     C48879   5.297   3.644   0.699 -1.6314  1.2842  0.3675
  363MOL0     C48880   5.388   3.533   0.755  0.3916  0.8447  0.3380
  363MOL0     C48881   5.485   3.480   0.646 -0.2149 -0.8157 -0.0027
  363MOL0     C48882   5.539   3.342   0.679 -0.3657  0.0391 -0.4289
  363MOL0     C48883   5.639   3.304   0.564 -0.3792 -0.4152  0.7549
  363MOL0     C48884   5.694   3.161   0.563  0.5273  0.5756 -0.0118
  363MOL0     C48885   5.832   3.157   0.480 -0.7436  0.2327  0.1544
  363MOL0     C48886   5.806   3.195   0.337  0.6630 -0.3829  0.1649
  363MOL0     N48887   5.928   3.242   0.279 -0.0615 -0.5011  0.0220
  363MOL0     C48888   5.991   3.358   0.316  0.2488 -0.6195 -1.7316
  363MOL0     C48889   6.102   3.368   0.239 -0.2579 -1.0405  0.2255
  363MOL0     C48890   6.191   3.496   0.235  0.2739  0.8263  0.6066
  363MOL0     C48891   6.307   3.475   0.144 -0.2583 -0.1303 -0.0306
  363MOL0     C48892   6.390   3.602   0.143 -0.2271 -0.1670  0.9106
  363MOL0     C48893   6.524   3.571   0.089 -0.4639 -0.2582  0.5589
  363MOL0     O48894   6.617   3.682   0.072 -0.3125  0.1897 -0.6210
  363MOL0     C48895   6.739   3.646   0.020 -0.1300 -0.5887  0.2280
  363MOL0     C48896   6.813   3.759  -0.025 -0.2210 -0.7763 -0.0454
  363MOL0     C48897   6.946   3.737  -0.066  0.4623 -0.2191 -0.1868
  363MOL0     C48898   7.001   3.607  -0.065  0.8826 -0.6059 -0.0014
  363MOL0     C48899   7.142   3.579  -0.108  0.0312  0.0882  0.4729
  363MOL0     O48900   7.198   3.455  -0.078  0.1423 -0.2896 -0.0213
  363MOL0     C48901   7.319   3.430  -0.156  0.9120 -0.5965  0.3344
  363MOL0     C48902   7.306   3.390  -0.292  0.7952 -1.3739 -0.3383
  363MOL0     C48903   7.424   3.381  -0.368 -0.7721  0.5661 -0.8337
  363MOL0     C48904   7.549   3.418  -0.316  0.6527  0.1745 -0.0508
  363MOL0     O48905   7.661   3.403  -0.400  1.0225  0.7212  0.4333
  363MOL0     C48906   7.670   3.522  -0.486  0.5823  0.0227 -1.5575
  363MOL0     C48907   7.789   3.483  -0.567  0.0840 -0.0043  0.3067
  363MOL0     C48908   7.813   3.586  -0.678  0.0467 -0.8840  0.0355
  363MOL0     C48909   7.954   3.582  -0.728 -0.3204 -1.5582 -0.0105
  363MOL0     C48910   7.976   3.662  -0.860  0.2116 -0.8652  0.2776
  363MOL0     C48911   7.944   3.816  -0.847 -0.4687 -0.3196  0.7806
  363MOL0     C48912   7.950   3.885  -0.985  0.0874 -0.0694 -0.0226
  363MOL0     C48913   7.964   4.038  -0.973 -0.3636  0.3669 -0.3113
  363MOL0    Cl48914   7.980   4.103  -1.140 -0.1091 -0.2814  0.1501
  363MOL0     C48915   7.564   3.452  -0.179 -0.4573  0.2877  0.5959
  363MOL0     C48916   7.443   3.467  -0.107  0.3241  0.0924 -0.1205
  363MOL0     O48917   7.196   3.663  -0.183 -1.0646 -0.0554  0.1593
  363MOL0     C48918   6.921   3.498  -0.025  0.8684 -0.4040 -0.1119
  363MOL0     C48919   6.793   3.516   0.014  0.7940 -0.0889 -0.8669
  363MOL0     N48920   6.109   3.250   0.162  0.0827 -0.7069 -0.4820
  363MOL0     N48921   6.001   3.176   0.188  0.1022 -0.2504  0.1200
  363MOL0     C48922   5.043   3.761   0.938  0.1659  0.3283  0.8350
  363MOL0     C48923   4.910   3.803   0.939 -0.8231 -0.6052  0.7974
  363MOL0     C48924   4.491   3.949   0.872 -1.1936 -0.0076  0.2771
  363MOL0     C48925   4.458   3.952   0.738 -0.6262  0.3273  1.4048
  363MOL0     C48926   4.326   3.975   0.689 -0.5218  0.3477 -0.6258
  363MOL0     C48927   4.221   3.988   0.779  0.5667  0.1105 -0.5856
  363MOL0     O48928   4.098   3.998   0.718  0.3359  0.0067  0.1817
  363MOL0     C48929   3.982   3.988   0.795  0.5953  0.0845  0.2828
  363MOL0     C48930   3.859   4.000   0.718  0.1917  0.2577 -0.2055
  363MOL0     C48931   3.864   3.915   0.596  0.3930 -0.2720 -0.3486
  363MOL0     C48932   3.775   3.960   0.488 -0.4851  0.0771  0.0005
  363MOL0     C48933   3.634   3.959   0.530 -0.6214  0.2339  0.0753
  363MOL0     C48934   3.515   3.961   0.557  0.3045  0.5651 -0.8096
  363MOL0     C48935   4.251   3.983   0.921  0.1537 -0.2485  0.2264
  363MOL0     C48936   4.385   3.972   0.959 -0.0852  1.4082 -0.4792
  363MOL0     C48937   4.401   3.993   1.109  0.3838 -0.2166 -0.5475
  363MOL0     H48938   4.888   3.902   0.617  1.6079 -2.9955 -2.0366
  363MOL0     H48939   5.117   3.802   0.612  1.6662 -0.8826  2.1042
  363MOL0     H48940   5.206   3.607   0.650 -1.8736  2.0508  0.2280
  363MOL0     H48941   5.350   3.714   0.634  0.6680 -0.2069  0.4969
  363MOL0     H48942   5.325   3.458   0.803  1.1423  0.0292  0.0667
  363MOL0     H48943   5.451   3.577   0.833 -2.4074  0.9718  2.6734
  363MOL0     H48944   5.570   3.548   0.656 -1.1675  0.6382 -1.3210
  363MOL0     H48945   5.445   3.487   0.545 -1.6816  0.0623  0.6058
  363MOL0     H48946   5.600   3.343   0.769 -0.0922  1.9693 -0.5908
  363MOL0     H48947   5.460   3.267   0.695  0.1366 -0.7091 -1.3613
  363MOL0     H48948   5.587   3.322   0.470  1.1790  3.7696  0.4881
  363MOL0     H48949   5.715   3.383   0.565 -0.2657 -0.5150  1.9113
  363MOL0     H48950   5.729   3.120   0.658  2.0029 -2.3242 -1.6744
  363MOL0     H48951   5.613   3.096   0.528 -0.4940 -0.8025  4.2626
  363MOL0     H48952   5.878   3.058   0.488 -2.0413 -0.2622  1.7808
  363MOL0     H48953   5.901   3.226   0.531 -2.4564  0.4708  2.2588
  363MOL0     H48954   5.760   3.114   0.279 -0.7939 -0.6582  1.6201
  363MOL0     H48955   5.741   3.283   0.328 -0.4838 -1.3631 -2.0039
  363MOL0     H48956   5.960   3.431   0.390 -0.1723 -2.6258  0.1600
  363MOL0     H48957   6.127   3.581   0.209  0.0050  0.0915 -1.2389
  363MOL0     H48958   6.221   3.518   0.338 -2.1367 -1.2147  1.8305
  363MOL0     H48959   6.367   3.386   0.168  0.7768  0.4300 -0.4849
  363MOL0     H48960   6.276   3.456   0.041 -0.9840 -1.3017  0.3736
  363MOL0     H48961   6.408   3.646   0.241  1.4866 -1.7299  1.3344
  363MOL0     H48962   6.341   3.672   0.074  3.9835  0.9994 -1.2187
  363MOL0     H48963   6.514   3.527  -0.011  3.4925  3.9959 -2.1148
  363MOL0     H48964   6.562   3.495   0.158 -1.7999  0.2867  1.9566
  363MOL0     H48965   6.770   3.858  -0.028 -2.7988 -1.8526 -0.6919
  363MOL0     H48966   7.001   3.825  -0.096  0.8787 -1.0245 -1.8713
  363MOL0     H48967   7.211   3.348  -0.324  1.1104 -3.0178  0.7659
  363MOL0     H48968   7.428   3.335  -0.466 -1.7593 -2.1103  0.2738
  363MOL0     H48969   7.579   3.543  -0.543  0.8688  0.7934 -1.7444
  363MOL0     H48970   7.690   3.613  -0.427 -1.3776  0.3209 -1.2507
  363MOL0     H48971   7.879   3.477  -0.504  1.0186  0.0735 -0.9901
  363MOL0     H48972   7.781   3.385  -0.615  2.9056  0.2280 -0.8564
  363MOL0     H48973   7.739   3.553  -0.751  0.8407  0.7109 -1.5415
  363MOL0     H48974   7.784   3.687  -0.650  1.2631 -0.6828  0.6373
  363MOL0     H48975   8.006   3.486  -0.726 -0.1136 -1.4760  2.9105
  363MOL0     H48976   8.015   3.627  -0.649  1.4527 -3.2478 -0.3258
  363MOL0     H48977   7.895   3.631  -0.926 -1.6145  0.8212  1.5941
  363MOL0     H48978   8.079   3.643  -0.893  1.2742  1.8570  1.6406
  363MOL0     H48979   7.842   3.828  -0.809 -2.6597  0.3076 -4.4127
  363MOL0     H48980   8.017   3.878  -0.794 -1.1208  2.2970 -1.1420
  363MOL0     H48981   7.851   3.867  -1.026 -1.3699  2.3147  2.0835
  363MOL0     H48982   8.022   3.847  -1.058 -2.2934 -2.5318 -1.2411
  363MOL0     H48983   7.891   4.095  -0.914 -0.8586  0.2455 -0.8005
  363MOL0     H48984   8.063   4.052  -0.927 -0.9148 -1.1838  1.5048
  363MOL0     H48985   7.660   3.490  -0.144  0.7202 -0.1646 -1.9218
  363MOL0     H48986   7.439   3.508  -0.007  0.3744  0.1360 -0.1364
  363MOL0     H48987   6.957   3.396  -0.024 -1.0957 -1.1352  0.4020
  363MOL0     H48988   6.739   3.430   0.053  0.0041  0.2808 -1.1355
  363MOL0     H48989   5.088   3.723   1.029  3.1173  1.1292 -0.1627
  363MOL0     H48990   4.867   3.814   1.039 -2.3531  0.7174  0.0412
  363MOL0     H48991   4.535   3.939   0.664  0.2385 -0.5837  2.4211
  363MOL0     H48992   4.323   3.976   0.580 -2.2236 -1.1158 -0.6323
  363MOL0     H48993   3.984   4.064   0.873  1.2918 -0.3768  0.7222
  363MOL0     H48994   3.983   3.890   0.843 -4.3576  0.1563  1.0250
  363MOL0     H48995   3.837   4.103   0.690  1.5452  0.8178  0.7005
  363MOL0     H48996   3.779   3.975   0.788  0.6057  0.3124  0.2969
  363MOL0     H48997   3.852   3.808   0.619 -3.0497 -0.0652 -0.5756
  363MOL0     H48998   3.963   3.921   0.551  0.2404 -1.2484 -0.8559
  363MOL0     H48999   3.795   4.065   0.466  0.1458  0.0472  0.4186
  363MOL0     H49000   3.789   3.901   0.397  1.2691  1.1777 -0.4918
  363MOL0     H49001   3.411   3.944   0.578  1.1497 -3.3397  1.1011
  363MOL0     H49002   4.174   3.989   0.997 -0.9086 -1.8360 -0.6659
  363MOL0     H49003   4.310   3.979   1.168 -1.1008  1.3324 -2.3126
  363MOL0     H49004   4.482   3.934   1.152 -0.4972 -0.7969  0.3532
  363MOL0     H49005   4.420   4.100   1.119  0.0190 -0.1642 -0.3989
  364MOL0     O49006  10.425   6.761   9.837 -0.2326  0.5262 -0.2146
  364MOL0     C49007  10.390   6.876   9.843 -1.1516  0.1433  0.0886
  364MOL0     O49008  10.472   6.978   9.865 -0.2068 -0.1643  0.1021
  364MOL0     C49009  10.606   6.959   9.820  0.2545  0.0445  0.2978
  364MOL0     C49010  10.642   6.980   9.686  0.1165  0.4550 -0.3783
  364MOL0     C49011  10.772   6.937   9.654  0.4788 -0.4580  0.6114
  364MOL0     C49012  10.860   6.889   9.750 -0.2856  0.3847 -0.0936
  364MOL0     O49013  10.985   6.863   9.703 -0.5496  0.4342  0.8765
  364MOL0     C49014  11.089   6.827   9.792  0.5512 -0.3788 -0.2395
  364MOL0     C49015  11.217   6.806   9.709 -0.1156 -0.0671 -0.7751
  364MOL0     C49016  11.336   6.753   9.797 -0.5535 -0.0029  0.0987
  364MOL0     C49017  11.449   6.732   9.698  0.2601 -0.3293  0.6146
  364MOL0     C49018  11.580   6.675   9.762  1.0533 -0.3775  0.7563
  364MOL0     C49019  11.643   6.768   9.871 -0.0507  0.4501 -0.3926
  364MOL0     C49020  11.781   6.716   9.915 -0.6532  0.2644  0.5558
  364MOL0     C49021  11.889   6.666   9.812 -0.4298  0.0710  0.4549
  364MOL0     N49022  12.020   6.642   9.862 -0.1077  0.3203 -0.4371
  364MOL0     C49023  12.042   6.581   9.978  0.2895 -0.2616 -0.2863
  364MOL0     C49024  12.167   6.621  10.014 -1.1758  0.5629  0.5558
  364MOL0     C49025  12.246   6.607  10.139 -0.5059 -0.5189 -0.3614
  364MOL0     C49026  12.338   6.484  10.146 -0.4553  0.2555  0.0644
  364MOL0     C49027  12.463   6.482  10.038  0.8072 -0.7503  0.1737
  364MOL0     C49028  12.577   6.388  10.066 -0.4006  0.4318 -0.5130
  364MOL0     O49029  12.687   6.411   9.979 -0.7808  0.4598 -0.2930
  364MOL0     C49030  12.812   6.396  10.043 -0.0848 -0.3488  0.2854
  364MOL0     C49031  12.830   6.308  10.155  0.2351 -0.5651 -0.5962
  364MOL0     C49032  12.946   6.305  10.236 -0.0380  0.6997  0.1817
  364MOL0     C49033  13.055   6.384  10.199  0.3477  0.1928 -0.1100
  364MOL0     C49034  13.173   6.390  10.282 -0.4183 -0.1286 -0.4382
  364MOL0     O49035  13.263   6.505  10.273  0.8764  0.1159  0.4994
  364MOL0     C49036  13.378   6.509  10.344  0.6359 -0.0858  0.3751
  364MOL0     C49037  13.462   6.395  10.369  0.7850 -0.1772 -0.9639
  364MOL0     C49038  13.567   6.407  10.471  0.1408 -0.1761  0.1069
  364MOL0     C49039  13.609   6.541  10.513  0.4218  0.1816  0.2877
  364MOL0     O49040  13.705   6.574  10.608  0.3197 -0.2100  0.4243
  364MOL0     C49041  13.771   6.467  10.678  0.7309 -0.0153  0.8408
  364MOL0     C49042  13.875   6.516  10.777  0.0122 -0.0325 -0.1270
  364MOL0     C49043  13.985   6.582  10.696 -0.7358 -0.2854 -0.0000
  364MOL0     C49044  14.083   6.649  10.793  0.5273  0.3597  0.0473
  364MOL0     C49045  14.215   6.720  10.739 -0.1591 -0.2591 -0.7690
  364MOL0     C49046  14.275   6.814  10.841 -1.1312 -0.2814 -0.0615
  364MOL0     C49047  14.420   6.860  10.808  0.1618 -0.4564 -0.2934
  364MOL0     C49048  14.478   6.947  10.922 -0.4588 -0.5852 -0.4830
  364MOL0    Cl49049  14.629   7.012  10.861 -0.3825 -0.0952  0.5911
  364MOL0     C49050  13.523   6.652  10.474 -0.4137  0.1874 -0.7304
  364MOL0     C49051  13.415   6.633  10.397  0.6147 -0.3026 -0.0195
  364MOL0     O49052  13.200   6.290  10.350 -0.1217 -0.4990  0.3441
  364MOL0     C49053  13.042   6.465  10.089  0.3144  0.2529  0.2082
  364MOL0     C49054  12.923   6.467  10.013  0.3098  0.5467  0.5472
  364MOL0     N49055  12.220   6.698   9.913 -0.1362  0.0773  0.0356
  364MOL0     N49056  12.129   6.711   9.828 -0.3969 -0.0732 -0.4557
  364MOL0     C49057  10.822   6.879   9.884 -0.4509  0.7218  0.0307
  364MOL0     C49058  10.697   6.906   9.915  0.8977  0.5721  0.3709
  364MOL0     C49059  10.242   6.896   9.828 -0.1394  0.1516 -0.4828
  364MOL0     C49060  10.163   6.816   9.738 -0.2238  0.0953 -0.3974
  364MOL0     C49061  10.025   6.828   9.726  0.0380  0.7064 -0.3998
  364MOL0     C49062   9.954   6.915   9.811  0.7429  0.1639  0.0961
  364MOL0     O49063   9.818   6.938   9.803  0.2392 -0.2027 -0.0041
  364MOL0     C49064   9.731   6.877   9.710 -0.8011  0.2874 -0.0827
  364MOL0     C49065   9.584   6.911   9.733 -0.0656 -0.4582  0.4273
  364MOL0     C49066   9.503   6.801   9.652  0.2964  0.1879  0.3893
  364MOL0     C49067   9.477   6.852   9.513  1.3639 -0.1021 -0.2084
  364MOL0     C49068   9.582   6.798   9.418  0.0775 -0.2089 -0.2425
  364MOL0     C49069   9.671   6.749   9.354 -0.8885  0.2337  1.3118
  364MOL0     C49070  10.028   6.986   9.901  0.1474 -0.6052 -0.1166
  364MOL0     C49071  10.168   6.982   9.911  1.0240 -0.6627  0.3687
  364MOL0     C49072  10.236   7.076  10.005  0.5787  0.7120 -0.4767
  364MOL0     H49073  10.580   7.029   9.612  0.0403  0.4470 -0.3196
  364MOL0     H49074  10.803   6.947   9.550 -1.0418 -1.1059  0.0622
  364MOL0     H49075  11.112   6.909   9.861  2.5291 -1.4409  0.4514
  364MOL0     H49076  11.073   6.743   9.861 -0.2363  0.9162  1.2332
  364MOL0     H49077  11.244   6.902   9.665 -1.5783  0.1784 -1.1967
  364MOL0     H49078  11.185   6.734   9.632 -0.2754  1.2302 -1.9607
  364MOL0     H49079  11.315   6.654   9.838  0.7552  0.1601  1.2094
  364MOL0     H49080  11.360   6.816   9.884  0.4913 -0.8865  0.4669
  364MOL0     H49081  11.416   6.663   9.619  0.4977 -0.9366  1.0372
  364MOL0     H49082  11.473   6.830   9.654 -0.7565  0.5921  2.0285
  364MOL0     H49083  11.548   6.580   9.807 -0.9203 -1.0708 -1.8228
  364MOL0     H49084  11.650   6.657   9.680 -1.3996  1.4218 -1.9450
  364MOL0     H49085  11.641   6.864   9.820 -1.9945  0.0449 -1.1945
  364MOL0     H49086  11.584   6.771   9.964 -1.7173 -1.7670 -1.2793
  364MOL0     H49087  11.768   6.626   9.977  0.2950  1.2504  2.2449
  364MOL0     H49088  11.825   6.792   9.979 -2.7004  1.7867  0.2475
  364MOL0     H49089  11.852   6.580   9.755 -1.4032  1.4076 -1.0309
  364MOL0     H49090  11.904   6.747   9.740 -1.0953  1.1729  1.5216
  364MOL0     H49091  11.969   6.523  10.034 -1.3384  1.2499 -0.7541
  364MOL0     H49092  12.307   6.697  10.155  1.2036 -1.7608  0.4181
  364MOL0     H49093  12.177   6.612  10.223 -1.6961  0.8011 -1.3782
  364MOL0     H49094  12.375   6.478  10.249 -1.5648  1.1651  0.5353
  364MOL0     H49095  12.284   6.391  10.125 -0.4744  0.3305 -0.2184
  364MOL0     H49096  12.513   6.578  10.028 -0.7169  0.2986  1.8278
  364MOL0     H49097  12.422   6.457   9.940 -0.5673  1.0345  0.2392
  364MOL0     H49098  12.540   6.285  10.058 -0.2536  0.2356  0.9920
  364MOL0     H49099  12.607   6.411  10.168  0.9540 -0.7971 -0.5934
  364MOL0     H49100  12.757   6.239  10.196 -1.9657  2.1338  0.2556
  364MOL0     H49101  12.927   6.237  10.319 -2.4331 -1.8365 -2.2013
  364MOL0     H49102  13.436   6.295  10.337 -1.2222  0.2813 -0.9052
  364MOL0     H49103  13.627   6.323  10.505 -0.9220 -0.8470  0.3629
  364MOL0     H49104  13.691   6.413  10.729 -1.1505  3.0713  1.4611
  364MOL0     H49105  13.831   6.408  10.608 -0.2658 -0.3636  0.2547
  364MOL0     H49106  13.817   6.576  10.847  0.3225 -0.0824  0.1764
  364MOL0     H49107  13.933   6.440  10.831  2.8608  1.3910 -0.9682
  364MOL0     H49108  14.040   6.507  10.639  2.4210  1.7085  0.1858
  364MOL0     H49109  13.946   6.659  10.629  0.9725 -0.9780 -1.9022
  364MOL0     H49110  14.108   6.572  10.866 -0.7246 -0.1205  0.0035
  364MOL0     H49111  14.027   6.722  10.851  2.7211 -0.3823  3.3849
  364MOL0     H49112  14.192   6.771  10.646 -1.5902 -1.2908 -1.0164
  364MOL0     H49113  14.279   6.633  10.719 -0.5783 -0.5374 -0.9238
  364MOL0     H49114  14.207   6.894  10.870 -0.7921  0.9820 -2.4835
  364MOL0     H49115  14.283   6.756  10.933  0.2454  2.3554  1.5925
  364MOL0     H49116  14.415   6.918  10.715 -1.8213 -1.4391 -0.8693
  364MOL0     H49117  14.493   6.781  10.790  1.2925  0.1791  1.2111
  364MOL0     H49118  14.419   7.035  10.951 -1.1915 -1.3975  0.5768
  364MOL0     H49119  14.491   6.892  11.016  1.7142  0.8990  0.1724
  364MOL0     H49120  13.541   6.750  10.516 -1.0207 -0.2459  0.6152
  364MOL0     H49121  13.356   6.720  10.372  0.9967 -0.1302 -0.3297
  364MOL0     H49122  13.121   6.534  10.061  1.8016 -1.7001 -0.5989
  364MOL0     H49123  12.911   6.524   9.922 -1.2741 -0.0606  0.3511
  364MOL0     H49124  10.896   6.846   9.956 -0.6425 -0.2723 -0.2142
  364MOL0     H49125  10.652   6.900  10.014  0.7765  0.8334  0.3348
  364MOL0     H49126  10.210   6.738   9.679 -1.3657 -0.5490 -0.4778
  364MOL0     H49127   9.972   6.764   9.657 -0.3126 -1.9489  2.1735
  364MOL0     H49128   9.733   6.768   9.711 -3.2713  0.1361 -1.5140
  364MOL0     H49129   9.756   6.897   9.605 -0.2016 -2.0938 -0.4405
  364MOL0     H49130   9.559   7.014   9.706  0.5226 -0.4221 -0.0017
  364MOL0     H49131   9.563   6.904   9.840 -0.4616 -0.2020  0.3706
  364MOL0     H49132   9.415   6.796   9.717 -0.1475 -0.8710 -0.2775
  364MOL0     H49133   9.545   6.700   9.651 -1.2739 -0.5178 -1.4481
  364MOL0     H49134   9.380   6.807   9.489 -2.2363  4.7128  3.2186
  364MOL0     H49135   9.468   6.961   9.506  2.7775  0.0093 -0.6351
  364MOL0     H49136   9.759   6.721   9.299 -0.3631 -0.0686  2.2822
  364MOL0     H49137   9.980   7.052   9.973  1.8210  1.9047 -1.1491
  364MOL0     H49138  10.167   7.146  10.053  1.3603  1.5273 -0.5125
  364MOL0     H49139  10.274   7.024  10.093 -4.0925 -0.4841  1.1017
  364MOL0     H49140  10.313   7.128   9.946 -0.2362  1.0909 -1.2349
  365MOL0     O49141   9.788  10.287   8.254  0.2180 -0.4326  0.1341
  365MOL0     C49142   9.766  10.309   8.376 -1.3509 -0.2497 -0.1904
  365MOL0     O49143   9.858  10.334   8.479  0.3189  0.2543 -0.2309
  365MOL0     C49144   9.991  10.354   8.445 -0.8669 -1.0238 -0.0158
  365MOL0     C49145  10.034  10.462   8.364 -0.1281  0.1937  0.6135
  365MOL0     C49146  10.172  10.489   8.350  0.0828  0.9385  0.6315
  365MOL0     C49147  10.265  10.404   8.415  0.4250 -1.0535 -0.7247
  365MOL0     O49148  10.396  10.439   8.400  0.5863  0.4587  0.8825
  365MOL0     C49149  10.485  10.415   8.507 -0.1352 -0.1458 -0.1600
  365MOL0     C49150  10.605  10.514   8.497 -1.1253  0.3245  0.4599
  365MOL0     C49151  10.739  10.435   8.456  0.2761 -0.5136 -0.2272
  365MOL0     C49152  10.861  10.529   8.435  0.2300 -0.8683  0.2192
  365MOL0     C49153  10.968  10.479   8.341 -0.0034  0.1257  0.3285
  365MOL0     C49154  11.066  10.585   8.337  0.5735 -0.9798 -0.1780
  365MOL0     C49155  11.183  10.565   8.235 -0.2388 -0.4260 -0.5312
  365MOL0     C49156  11.288  10.673   8.230 -0.9409  0.3010 -0.5166
  365MOL0     N49157  11.396  10.659   8.333  0.3059 -0.1878 -0.4150
  365MOL0     C49158  11.390  10.707   8.462 -0.2479 -0.6880 -0.1456
  365MOL0     C49159  11.520  10.691   8.510  0.2978  0.4741  0.1355
  365MOL0     C49160  11.553  10.728   8.655 -0.5951 -0.4602 -0.0647
  365MOL0     C49161  11.567  10.609   8.743 -0.0762 -0.2663 -0.3900
  365MOL0     C49162  11.599  10.649   8.882 -0.8053 -0.2280 -0.0352
  365MOL0     C49163  11.595  10.533   8.984 -0.9151  0.0638  0.1592
  365MOL0     O49164  11.682  10.424   8.948 -0.2830 -0.1191  0.1973
  365MOL0     C49165  11.815  10.433   8.988  0.0605  0.0799 -0.3189
  365MOL0     C49166  11.873  10.539   9.053 -0.7403 -0.9513  0.4762
  365MOL0     C49167  12.010  10.543   9.059 -0.0276 -0.0568 -0.5219
  365MOL0     C49168  12.096  10.441   9.019  0.2668  0.7613  0.2100
  365MOL0     C49169  12.240  10.466   9.010  0.5332  0.5118  0.3849
  365MOL0     O49170  12.290  10.552   9.104  0.4634  0.2231 -0.2865
  365MOL0     C49171  12.423  10.557   9.123 -0.5591 -0.0670  0.1199
  365MOL0     C49172  12.487  10.523   9.246 -0.3556  0.1516  0.3124
  365MOL0     C49173  12.620  10.534   9.271 -0.5797 -0.3107  0.0167
  365MOL0     C49174  12.699  10.587   9.162  0.5719  0.0205  0.1315
  365MOL0     O49175  12.832  10.603   9.164 -0.5860  0.0447  0.8828
  365MOL0     C49176  12.895  10.608   9.298  0.8262 -0.8946  0.1035
  365MOL0     C49177  13.034  10.673   9.277  0.4969  0.0578  0.3355
  365MOL0     C49178  13.025  10.802   9.187 -0.5607 -0.3808  0.7798
  365MOL0     C49179  13.157  10.873   9.173 -0.2181 -0.1163 -1.0458
  365MOL0     C49180  13.244  10.798   9.069 -0.0585 -0.8269 -0.4129
  365MOL0     C49181  13.399  10.827   9.077 -0.1197  0.4295 -0.5335
  365MOL0     C49182  13.480  10.724   8.996 -0.2744 -0.5752  0.4633
  365MOL0     C49183  13.624  10.714   9.043  0.0365  1.2059  0.2040
  365MOL0    Cl49184  13.730  10.601   8.950 -0.5115 -0.0234  0.1679
  365MOL0     C49185  12.644  10.619   9.039  0.2669 -0.0271  0.6977
  365MOL0     C49186  12.505  10.608   9.020 -1.3440  0.0840 -0.0903
  365MOL0     O49187  12.307  10.413   8.921  0.4921 -0.1156  0.2315
  365MOL0     C49188  12.040  10.319   8.969  0.4363 -0.4064 -1.0782
  365MOL0     C49189  11.902  10.323   8.949  0.0790 -0.4227  0.4423
  365MOL0     N49190  11.599  10.630   8.417  0.3418 -0.2234 -0.0411
  365MOL0     N49191  11.523  10.622   8.309 -0.2523 -0.0602  0.2793
  365MOL0     C49192  10.222  10.298   8.495 -0.5148 -0.6803 -0.3781
  365MOL0     C49193  10.087  10.273   8.506  0.5776  0.2225  0.5556
  365MOL0     C49194   9.630  10.288   8.431 -0.7803  0.4633  0.4604
  365MOL0     C49195   9.619  10.218   8.557  0.6966 -0.0467  0.0164
  365MOL0     C49196   9.487  10.195   8.609  0.2145 -0.1580  0.1075
  365MOL0     C49197   9.369  10.238   8.544 -0.7246 -0.5263 -0.5368
  365MOL0     O49198   9.254  10.216   8.618  0.1138 -0.3338  0.4087
  365MOL0     C49199   9.130  10.231   8.553  0.2855  0.3014 -0.2920
  365MOL0     C49200   9.049  10.112   8.608 -0.4081  0.6485  0.7110
  365MOL0     C49201   8.938  10.067   8.503  0.1615 -0.2888  0.2207
  365MOL0     C49202   8.893   9.916   8.541  0.2922  0.4722 -0.0333
  365MOL0     C49203   8.806   9.866   8.427 -0.5623 -0.1222 -0.0558
  365MOL0     C49204   8.730   9.815   8.351 -0.2328 -0.3914  0.1158
  365MOL0     C49205   9.383  10.307   8.418 -0.4694 -0.5814  0.6307
  365MOL0     C49206   9.514  10.339   8.365  0.2476  0.0032 -0.3372
  365MOL0     C49207   9.528  10.422   8.243  0.7771 -0.6328  0.3433
  365MOL0     H49208   9.965  10.523   8.307 -0.2825 -1.3363 -0.9453
  365MOL0     H49209  10.203  10.559   8.273  2.7035 -0.5546  0.2148
  365MOL0     H49210  10.444  10.440   8.606 -0.1155 -0.3779 -0.0925
  365MOL0     H49211  10.517  10.311   8.508  0.8143  0.1348 -0.2219
  365MOL0     H49212  10.617  10.566   8.593  2.1069 -1.3610  1.0954
  365MOL0     H49213  10.582  10.587   8.419  0.2487 -2.2795 -2.5773
  365MOL0     H49214  10.715  10.391   8.358 -2.8122  0.6012 -0.0841
  365MOL0     H49215  10.756  10.346   8.516  0.5047 -1.5745 -1.7987
  365MOL0     H49216  10.827  10.630   8.411 -0.8307 -0.5965  2.5807
  365MOL0     H49217  10.901  10.531   8.537 -2.9699  2.9509  1.6581
  365MOL0     H49218  11.015  10.388   8.381  0.5561 -1.7620 -4.0609
  365MOL0     H49219  10.938  10.465   8.237 -2.4815 -0.6003  1.0729
  365MOL0     H49220  11.008  10.671   8.301 -0.6803 -2.3821 -1.6716
  365MOL0     H49221  11.108  10.608   8.435  0.7577 -0.3122 -0.4047
  365MOL0     H49222  11.152  10.554   8.131 -0.4384 -2.1933 -0.3173
  365MOL0     H49223  11.224  10.466   8.254 -0.6380 -0.7111 -1.1139
  365MOL0     H49224  11.328  10.662   8.129  1.5533 -3.7297  0.6575
  365MOL0     H49225  11.224  10.761   8.241 -1.4057 -0.3008  2.9578
  365MOL0     H49226  11.302  10.750   8.508 -1.8037  1.5277 -4.6027
  365MOL0     H49227  11.639  10.797   8.651 -0.3189 -0.7850 -4.3824
  365MOL0     H49228  11.466  10.777   8.700  0.4956  1.7928 -0.2388
  365MOL0     H49229  11.475  10.549   8.740 -1.4723  1.7881 -1.5486
  365MOL0     H49230  11.648  10.544   8.708 -0.5449 -0.7530 -0.5849
  365MOL0     H49231  11.519  10.716   8.916 -1.0518 -0.3977 -0.2764
  365MOL0     H49232  11.692  10.706   8.881 -0.5963 -0.0314  4.9497
  365MOL0     H49233  11.499  10.481   8.993  0.2085 -1.9672  0.9470
  365MOL0     H49234  11.612  10.569   9.086 -0.2792  0.7283 -0.1763
  365MOL0     H49235  11.823  10.630   9.082  0.3646 -0.0242 -0.4133
  365MOL0     H49236  12.053  10.642   9.069  2.2422 -1.1047  0.8420
  365MOL0     H49237  12.437  10.483   9.333 -1.5434  0.3421 -0.2636
  365MOL0     H49238  12.670  10.515   9.365  0.4069 -0.5130 -0.5275
  365MOL0     H49239  12.831  10.676   9.355  1.3704 -2.5204  2.7817
  365MOL0     H49240  12.918  10.513   9.346  0.5898 -1.5358 -1.0302
  365MOL0     H49241  13.080  10.705   9.371  1.7312 -1.4322  0.2684
  365MOL0     H49242  13.102  10.598   9.236 -0.5510  0.6443 -2.8209
  365MOL0     H49243  12.975  10.781   9.092  1.3257 -2.7796  0.2135
  365MOL0     H49244  12.964  10.873   9.243  1.9294  1.7575  0.9525
  365MOL0     H49245  13.212  10.877   9.268 -1.5609 -2.1882 -0.1106
  365MOL0     H49246  13.130  10.975   9.142 -0.2205  0.0195 -0.6143
  365MOL0     H49247  13.219  10.828   8.967  2.4334 -0.7410 -1.0450
  365MOL0     H49248  13.220  10.691   9.068 -1.1415 -0.6037 -1.3491
  365MOL0     H49249  13.426  10.932   9.063 -1.3282  1.1219  1.7673
  365MOL0     H49250  13.423  10.800   9.180  2.2671  0.0643 -1.1197
  365MOL0     H49251  13.478  10.759   8.892 -1.2812  0.5604  0.8463
  365MOL0     H49252  13.439  10.623   8.997  0.3001 -0.8800 -1.3554
  365MOL0     H49253  13.668  10.814   9.042 -0.0072  1.2888  2.4648
  365MOL0     H49254  13.639  10.680   9.146  3.5085 -0.0523 -0.5774
  365MOL0     H49255  12.713  10.639   8.958 -1.0189  0.0434 -0.4232
  365MOL0     H49256  12.461  10.640   8.926  0.9411 -0.1562 -1.3137
  365MOL0     H49257  12.092  10.231   8.931 -0.3203 -0.6913 -1.4810
  365MOL0     H49258  11.859  10.235   8.902  0.5000 -1.0526  1.2321
  365MOL0     H49259  10.299  10.241   8.546  0.7298  1.6133  0.4670
  365MOL0     H49260  10.058  10.190   8.569 -1.2769 -0.8969 -1.6085
  365MOL0     H49261   9.711  10.187   8.605  1.2688  2.7431  0.9018
  365MOL0     H49262   9.469  10.153   8.707 -0.5611 -0.0415  0.0159
  365MOL0     H49263   9.132  10.219   8.445  1.7661  3.9407 -0.8349
  365MOL0     H49264   9.074  10.322   8.577 -1.2838 -0.6349 -0.2712
  365MOL0     H49265   9.015  10.136   8.709 -0.1046 -2.6077  1.6964
  365MOL0     H49266   9.117  10.029   8.630 -2.7940 -1.5833  0.1214
  365MOL0     H49267   9.000  10.065   8.413 -1.1179  1.0972 -0.7308
  365MOL0     H49268   8.853  10.134   8.489 -0.8109 -2.0746 -3.8471
  365MOL0     H49269   8.980   9.851   8.555 -1.0274 -2.2404 -3.0911
  365MOL0     H49270   8.834   9.921   8.633  1.1664  0.4070  0.5424
  365MOL0     H49271   8.660   9.765   8.288  1.2799 -3.0763  0.4387
  365MOL0     H49272   9.295  10.347   8.369 -0.1146  0.8042  1.0753
  365MOL0     H49273   9.594  10.507   8.262  2.4350 -1.2265 -2.3090
  365MOL0     H49274   9.574  10.367   8.161 -1.0518 -2.9322  0.7472
  365MOL0     H49275   9.433  10.468   8.214  1.5722  1.4752  0.9033
  366MOL0     O49276  10.265   1.051   8.289 -0.2460  0.6240  0.3680
  366MOL0     C49277  10.240   1.070   8.407 -0.5572 -0.7167 -0.0094
  366MOL0     O49278  10.315   1.152   8.488  0.2947  0.0520  0.3203
  366MOL0     C49279  10.444   1.184   8.441 -0.2633  0.3518  0.9000
  366MOL0     C49280  10.471   1.313   8.408 -0.3431  0.2291 -0.1043
  366MOL0     C49281  10.600   1.352   8.365 -0.0672  0.6925 -0.2562
  366MOL0     C49282  10.699   1.252   8.347 -0.8429 -0.1993 -0.3138
  366MOL0     O49283  10.827   1.277   8.299 -0.5076  0.0579 -0.6453
  366MOL0     C49284  10.843   1.403   8.231  0.1057  0.1929  0.0341
  366MOL0     C49285  10.986   1.431   8.206  1.2811  0.1575 -0.5250
  366MOL0     C49286  11.052   1.352   8.095 -0.1610 -0.5812 -0.1022
  366MOL0     C49287  11.211   1.367   8.086  0.1173 -0.7937  0.4298
  366MOL0     C49288  11.294   1.307   8.199 -0.1210 -0.3455  0.0987
  366MOL0     C49289  11.438   1.324   8.161  0.4738 -0.2989 -0.3019
  366MOL0     C49290  11.495   1.273   8.026  0.6483  0.4910  0.2128
  366MOL0     C49291  11.506   1.116   8.025  0.1305 -0.0564 -0.3254
  366MOL0     N49292  11.535   1.057   7.892 -0.2240  0.5503 -0.5090
  366MOL0     C49293  11.469   1.083   7.774  0.3005 -0.0443 -0.3217
  366MOL0     C49294  11.529   1.004   7.678  0.5532  0.6655 -0.9401
  366MOL0     C49295  11.500   0.997   7.532  0.0722 -0.3132  0.9651
  366MOL0     C49296  11.628   1.044   7.459  0.2837  0.4462  0.4634
  366MOL0     C49297  11.630   1.016   7.308  0.0409  0.1991  0.3260
  366MOL0     C49298  11.773   1.011   7.254 -0.0523  0.0685 -0.1205
  366MOL0     O49299  11.836   1.137   7.278  0.7208 -0.5675 -0.2246
  366MOL0     C49300  11.967   1.150   7.264  0.5385 -0.4938  0.6652
  366MOL0     C49301  12.055   1.058   7.201  0.5724 -0.6347  0.7031
  366MOL0     C49302  12.193   1.082   7.195  0.1922  0.2354  0.0850
  366MOL0     C49303  12.252   1.192   7.268 -0.7783 -0.3938  0.0709
  366MOL0     C49304  12.401   1.209   7.268  0.5692  0.3042 -0.0718
  366MOL0     O49305  12.478   1.102   7.227  0.6192  0.5709 -0.4883
  366MOL0     C49306  12.610   1.103   7.239  0.3219  0.0515 -0.2144
  366MOL0     C49307  12.665   0.984   7.283 -0.5898 -0.1430 -0.0292
  366MOL0     C49308  12.801   0.963   7.295 -0.3700  0.2139  0.7078
  366MOL0     C49309  12.896   1.069   7.283  0.6932 -0.1844 -0.9457
  366MOL0     O49310  13.030   1.050   7.302  0.0508  0.0274  0.6412
  366MOL0     C49311  13.109   1.156   7.357 -0.3134  0.0094  0.5776
  366MOL0     C49312  13.257   1.110   7.360  0.5417  0.5226 -0.4898
  366MOL0     C49313  13.309   1.066   7.215 -0.2917 -0.3798 -0.3594
  366MOL0     C49314  13.446   0.995   7.237  0.1622  0.6276 -0.7951
  366MOL0     C49315  13.489   0.904   7.118  0.2800 -0.1099  0.3461
  366MOL0     C49316  13.627   0.846   7.136 -0.4030  0.4180 -0.1870
  366MOL0     C49317  13.640   0.724   7.036  0.1180 -0.0761  0.1186
  366MOL0     C49318  13.778   0.678   7.044 -0.5823  0.0789 -0.4479
  366MOL0    Cl49319  13.822   0.615   7.212  0.2539  0.4330  0.2502
  366MOL0     C49320  12.838   1.188   7.242 -1.0161 -0.2927 -0.2801
  366MOL0     C49321  12.703   1.203   7.203 -0.2032  0.4258 -0.2897
  366MOL0     O49322  12.444   1.319   7.312  0.4978  0.6784 -0.4504
  366MOL0     C49323  12.164   1.277   7.333 -0.2751  0.1819  0.9857
  366MOL0     C49324  12.024   1.269   7.320 -0.2122  0.4886 -0.9346
  366MOL0     N49325  11.639   0.944   7.742 -0.7453 -0.1041  0.3646
  366MOL0     N49326  11.638   0.976   7.863  0.0142 -0.0469 -0.4471
  366MOL0     C49327  10.676   1.115   8.381  0.5032 -0.5618  1.1315
  366MOL0     C49328  10.546   1.080   8.422 -0.8068  0.0628 -0.7600
  366MOL0     C49329  10.114   1.015   8.478  0.4860 -0.0558 -0.5804
  366MOL0     C49330  10.097   1.048   8.616 -0.2491  0.3956  0.0645
  366MOL0     C49331   9.991   1.000   8.687 -0.2570 -0.5619 -0.1477
  366MOL0     C49332   9.896   0.922   8.631  0.3569  0.3131 -0.0126
  366MOL0     O49333   9.794   0.857   8.701 -0.2006  0.0327 -0.3632
  366MOL0     C49334   9.757   0.935   8.820 -0.2112  0.1319 -0.2447
  366MOL0     C49335   9.610   0.903   8.857  0.6796 -0.6368 -0.2808
  366MOL0     C49336   9.517   0.923   8.741 -0.1894  0.6297 -0.7784
  366MOL0     C49337   9.371   0.945   8.769  0.9448 -0.3257 -0.5059
  366MOL0     C49338   9.298   0.821   8.797  0.0499  0.0851  0.6919
  366MOL0     C49339   9.236   0.722   8.822  0.0131  0.2270  0.3722
  366MOL0     C49340   9.906   0.882   8.491 -0.6883 -0.2302 -0.3491
  366MOL0     C49341  10.015   0.931   8.412 -0.1552  0.2069  0.4947
  366MOL0     C49342  10.022   0.899   8.269  0.3807  0.3208 -0.4435
  366MOL0     H49343  10.393   1.388   8.415 -1.0657 -0.6559  2.2729
  366MOL0     H49344  10.623   1.456   8.347  0.5735  0.4327 -1.0064
  366MOL0     H49345  10.786   1.402   8.137  2.2551  2.1235 -1.3991
  366MOL0     H49346  10.798   1.482   8.293  1.4540  0.3190  0.8773
  366MOL0     H49347  11.035   1.417   8.303 -1.7625  1.9422  1.4690
  366MOL0     H49348  10.998   1.536   8.179  1.3873  0.3785  0.3368
  366MOL0     H49349  11.005   1.397   8.007  1.8401  0.7077 -0.5983
  366MOL0     H49350  11.034   1.244   8.094 -1.4596 -0.3797  0.2593
  366MOL0     H49351  11.227   1.326   7.986  0.5705  0.1731  0.0996
  366MOL0     H49352  11.232   1.474   8.080  0.1555 -0.7576  1.1717
  366MOL0     H49353  11.272   1.358   8.293  0.1024 -0.2331  0.0905
  366MOL0     H49354  11.260   1.204   8.207 -0.7072 -0.1452  0.2755
  366MOL0     H49355  11.455   1.432   8.167 -2.3460  0.1359  1.8992
  366MOL0     H49356  11.503   1.276   8.235  2.5961 -1.4928 -2.8020
  366MOL0     H49357  11.594   1.320   8.026 -0.6275  3.5083  1.7193
  366MOL0     H49358  11.439   1.309   7.939  3.1288 -0.9838 -2.1782
  366MOL0     H49359  11.589   1.081   8.087 -0.2025 -2.4121 -1.0868
  366MOL0     H49360  11.408   1.080   8.059 -0.2080  2.9788  2.4045
  366MOL0     H49361  11.389   1.155   7.763  1.8140  1.9261  0.9184
  366MOL0     H49362  11.488   0.892   7.504  0.3366 -0.8265  2.6810
  366MOL0     H49363  11.413   1.059   7.509 -0.5726 -0.5347  2.6892
  366MOL0     H49364  11.643   1.151   7.475  2.5879 -0.0725  2.2532
  366MOL0     H49365  11.714   0.988   7.496  0.6669  0.7050 -0.0259
  366MOL0     H49366  11.565   1.095   7.269 -3.2696 -2.4016  0.1554
  366MOL0     H49367  11.580   0.920   7.290 -0.5872  0.4191  0.8364
  366MOL0     H49368  11.767   0.982   7.148  1.1732 -2.1776  0.3476
  366MOL0     H49369  11.834   0.933   7.301  2.7995  2.3135  0.2183
  366MOL0     H49370  12.026   0.972   7.142  1.8858 -0.7033  0.1279
  366MOL0     H49371  12.261   1.013   7.146  0.5331 -0.0967  1.0124
  366MOL0     H49372  12.602   0.899   7.307 -2.4778  1.3130  0.4514
  366MOL0     H49373  12.842   0.865   7.318  1.7108  1.0653  0.8029
  366MOL0     H49374  13.110   1.248   7.298  3.9019  0.9065  1.7525
  366MOL0     H49375  13.074   1.187   7.457 -1.2010  1.6038 -0.1885
  366MOL0     H49376  13.320   1.184   7.412 -0.6510 -0.2549  2.2141
  366MOL0     H49377  13.259   1.025   7.428  0.5083 -0.9278 -2.2073
  366MOL0     H49378  13.242   0.987   7.179 -1.1155  0.0566  0.1934
  366MOL0     H49379  13.319   1.155   7.152 -1.4560  1.9434  2.5193
  366MOL0     H49380  13.427   0.923   7.317 -3.0588  1.6575 -0.5061
  366MOL0     H49381  13.527   1.064   7.261 -0.1235  1.9740 -3.3049
  366MOL0     H49382  13.486   0.956   7.021  3.0444  1.1037  0.7950
  366MOL0     H49383  13.414   0.825   7.110  0.0738 -0.0505  1.5189
  366MOL0     H49384  13.706   0.921   7.132  0.2255 -0.0560  2.0075
  366MOL0     H49385  13.623   0.800   7.235 -1.6756  0.0598 -0.3956
  366MOL0     H49386  13.612   0.767   6.940  0.5523 -1.3558 -0.5977
  366MOL0     H49387  13.569   0.647   7.066  1.6315 -1.5680  0.0132
  366MOL0     H49388  13.799   0.605   6.965  3.6765  2.2445 -1.6366
  366MOL0     H49389  13.840   0.764   7.017 -1.3066 -0.3808 -4.1732
  366MOL0     H49390  12.896   1.280   7.240 -3.3449  1.2825  0.7460
  366MOL0     H49391  12.650   1.288   7.162 -2.5518 -1.3172 -1.1086
  366MOL0     H49392  12.203   1.355   7.398 -0.2964  0.1838  0.9959
  366MOL0     H49393  11.958   1.335   7.375 -0.3259  0.2429 -0.7720
  366MOL0     H49394  10.755   1.042   8.373 -0.5106 -1.5287 -0.7687
  366MOL0     H49395  10.529   0.974   8.432 -1.9791  0.1282 -1.7745
  366MOL0     H49396  10.162   1.111   8.675 -1.7404 -0.2409  2.5333
  366MOL0     H49397   9.987   1.019   8.794  1.1113  1.0970 -0.3623
  366MOL0     H49398   9.763   1.043   8.810 -0.2783  0.0297 -1.5932
  366MOL0     H49399   9.821   0.905   8.904 -1.4977  0.9632  1.0835
  366MOL0     H49400   9.565   0.972   8.930 -4.2597 -0.7861 -2.7372
  366MOL0     H49401   9.598   0.807   8.909 -0.7879 -0.2137  0.2189
  366MOL0     H49402   9.525   0.845   8.664 -0.2017  1.3172 -1.4819
  366MOL0     H49403   9.550   1.012   8.688  1.4727  1.6690  1.8277
  366MOL0     H49404   9.362   1.025   8.842  3.7668 -2.8988  3.0295
  366MOL0     H49405   9.329   0.995   8.681 -0.8554  0.2863  0.6420
  366MOL0     H49406   9.170   0.640   8.844 -2.7411  1.2906 -2.9707
  366MOL0     H49407   9.819   0.837   8.444 -2.0701  0.3760  1.5354
  366MOL0     H49408   9.939   0.830   8.252  0.4468  0.4989 -1.5914
  366MOL0     H49409  10.013   0.984   8.201 -2.4817 -2.0396 -3.3443
  366MOL0     H49410  10.113   0.841   8.248  1.1520  1.1589  0.4665
  367MOL0     O49411   4.338   7.208   4.598 -0.2528 -0.3156 -0.4259
  367MOL0     C49412   4.414   7.218   4.503  0.1598  0.1612  0.6602
  367MOL0     O49413   4.371   7.217   4.373  0.0883  0.1981 -0.2149
  367MOL0     C49414   4.241   7.244   4.348 -0.4502 -1.5299 -0.6187
  367MOL0     C49415   4.172   7.160   4.267  0.5910  0.4887 -0.3196
  367MOL0     C49416   4.034   7.172   4.241  0.3234 -0.1484 -1.5358
  367MOL0     C49417   3.976   7.286   4.284  0.4314 -0.0182  0.4228
  367MOL0     O49418   3.843   7.330   4.256 -0.3273  0.0927  0.7996
  367MOL0     C49419   3.756   7.225   4.201 -0.1849 -0.6276 -1.3849
  367MOL0     C49420   3.620   7.289   4.170  0.2421  0.6276  0.3376
  367MOL0     C49421   3.521   7.186   4.118 -0.5790 -0.2254  0.5455
  367MOL0     C49422   3.390   7.260   4.093 -0.2455  0.2890  0.1940
  367MOL0     C49423   3.290   7.176   4.024  0.4313  0.0174  0.2152
  367MOL0     C49424   3.152   7.238   3.999 -1.1069  0.5253 -0.2493
  367MOL0     C49425   3.067   7.272   4.124 -0.7466 -0.6450  0.2642
  367MOL0     C49426   2.992   7.166   4.195  0.0605 -0.1423 -0.1576
  367MOL0     N49427   3.092   7.070   4.254 -0.3589 -0.6501 -0.3346
  367MOL0     C49428   3.171   7.095   4.360  0.2247 -0.3328  0.1610
  367MOL0     C49429   3.241   6.978   4.382 -0.1259 -0.1192 -0.0774
  367MOL0     C49430   3.319   6.964   4.507 -0.2473  0.4693 -0.7074
  367MOL0     C49431   3.464   7.009   4.485 -0.4937 -1.0228  0.4507
  367MOL0     C49432   3.553   7.007   4.615 -0.1983  0.0136  0.9344
  367MOL0     C49433   3.705   7.038   4.592  0.2816  0.4906  0.3689
  367MOL0     O49434   3.755   6.924   4.512  0.0488 -0.5579 -0.3405
  367MOL0     C49435   3.893   6.913   4.505 -1.4177 -0.2088 -0.0154
  367MOL0     C49436   3.942   6.787   4.475 -0.2266 -0.4057 -0.2305
  367MOL0     C49437   4.073   6.749   4.483  0.4273  0.5983  0.7932
  367MOL0     C49438   4.170   6.843   4.513 -0.8541 -0.0469 -0.4282
  367MOL0     C49439   4.315   6.809   4.511  0.7032 -0.4280 -0.1094
  367MOL0     O49440   4.341   6.689   4.458 -0.3432 -0.0670 -0.9217
  367MOL0     C49441   4.461   6.640   4.429  0.2476 -0.0064  0.2181
  367MOL0     C49442   4.463   6.538   4.326 -0.6398  0.0396 -0.0822
  367MOL0     C49443   4.578   6.480   4.282  0.7457  0.2442 -0.4186
  367MOL0     C49444   4.698   6.517   4.346  0.1869  0.0306 -0.9481
  367MOL0     O49445   4.813   6.456   4.307 -1.3101 -0.8919  0.2465
  367MOL0     C49446   4.867   6.504   4.182  0.2049 -0.5318 -0.2402
  367MOL0     C49447   4.949   6.627   4.215 -0.5458 -0.8504 -0.3506
  367MOL0     C49448   5.055   6.599   4.335  0.3092  0.4251 -0.6166
  367MOL0     C49449   5.204   6.572   4.309 -0.0023 -0.9003  0.3374
  367MOL0     C49450   5.223   6.420   4.315 -0.5186 -0.1169 -0.5568
  367MOL0     C49451   5.352   6.391   4.246 -0.5018  0.6142 -0.1889
  367MOL0     C49452   5.401   6.247   4.284 -0.6029 -0.4873 -0.3057
  367MOL0     C49453   5.533   6.215   4.227  0.1965  0.9239  0.1363
  367MOL0    Cl49454   5.537   6.198   4.052 -0.0333 -0.3694  0.1987
  367MOL0     C49455   4.703   6.613   4.445  0.0428 -0.5067  0.4760
  367MOL0     C49456   4.579   6.667   4.497  0.4879 -0.2310  0.7301
  367MOL0     O49457   4.399   6.896   4.552  0.7110  0.2852  0.9461
  367MOL0     C49458   4.122   6.977   4.535 -0.1307 -0.0465 -0.0609
  367MOL0     C49459   3.986   7.010   4.546  0.2161 -0.2097  0.8134
  367MOL0     N49460   3.218   6.889   4.282  0.5321  0.0457  0.2161
  367MOL0     N49461   3.120   6.945   4.216  0.1728 -0.2089  0.6903
  367MOL0     C49462   4.043   7.378   4.365  0.7303 -0.0984 -0.4310
  367MOL0     C49463   4.179   7.354   4.406  0.5237 -0.0066 -0.1283
  367MOL0     C49464   4.562   7.200   4.543  0.2099  0.2530 -0.4096
  367MOL0     C49465   4.592   7.135   4.660 -0.1824 -0.1891 -0.8311
  367MOL0     C49466   4.721   7.097   4.704  0.1467 -0.0054 -0.6043
  367MOL0     C49467   4.825   7.153   4.632 -0.5753 -0.3560  0.3003
  367MOL0     O49468   4.953   7.122   4.666 -0.3289  0.0180 -1.0045
  367MOL0     C49469   5.041   7.057   4.566  0.7449 -0.3753 -0.4435
  367MOL0     C49470   5.035   6.898   4.598 -0.0710  0.4259 -0.4940
  367MOL0     C49471   5.050   6.866   4.748 -0.5474 -0.5388 -0.5821
  367MOL0     C49472   5.033   6.721   4.791 -0.0635 -0.0206  0.1191
  367MOL0     C49473   5.128   6.632   4.723  0.2213  0.1951 -0.7338
  367MOL0     C49474   5.205   6.563   4.662  0.1161  0.0051 -0.3392
  367MOL0     C49475   4.801   7.234   4.525  0.7885 -0.4535  0.2027
  367MOL0     C49476   4.666   7.248   4.471 -0.5197 -0.0539 -0.0860
  367MOL0     C49477   4.652   7.337   4.349  0.3126  0.3600 -0.3346
  367MOL0     H49478   4.225   7.077   4.220 -2.1724 -2.7206  1.7425
  367MOL0     H49479   3.982   7.100   4.180 -3.7505  1.5350 -0.3583
  367MOL0     H49480   3.798   7.180   4.111  0.3316 -0.7357 -1.0922
  367MOL0     H49481   3.746   7.149   4.278 -1.2909  1.3905  0.5900
  367MOL0     H49482   3.642   7.366   4.095 -0.9654 -0.9155 -1.7079
  367MOL0     H49483   3.585   7.341   4.260 -2.5531 -0.6754  0.1014
  367MOL0     H49484   3.514   7.103   4.189 -0.5187 -0.0674  0.7353
  367MOL0     H49485   3.552   7.142   4.022  1.8271 -1.3605  1.7436
  367MOL0     H49486   3.353   7.293   4.191  0.5570  2.0378 -0.0597
  367MOL0     H49487   3.411   7.349   4.033  0.7636 -1.8377 -2.8213
  367MOL0     H49488   3.329   7.164   3.922 -1.4229 -1.1012 -0.4091
  367MOL0     H49489   3.288   7.074   4.064 -0.5174  0.3731  1.1312
  367MOL0     H49490   3.175   7.330   3.945  3.9367  1.1006  2.2800
  367MOL0     H49491   3.092   7.175   3.933 -1.1810  0.8039 -0.4526
  367MOL0     H49492   2.992   7.343   4.089 -1.8279 -1.0354  1.7055
  367MOL0     H49493   3.130   7.320   4.199  0.9182  0.2440 -1.5967
  367MOL0     H49494   2.939   7.208   4.281  0.6617  1.4803 -0.5465
  367MOL0     H49495   2.927   7.109   4.128 -0.4738  0.9135 -0.5542
  367MOL0     H49496   3.180   7.177   4.431  1.8415  1.8294 -2.3371
  367MOL0     H49497   3.263   7.020   4.583 -3.2654 -0.7348 -1.9040
  367MOL0     H49498   3.322   6.864   4.552  3.0778  2.4502  4.4837
  367MOL0     H49499   3.504   6.945   4.406  1.9166  2.5354 -1.4443
  367MOL0     H49500   3.460   7.109   4.442 -0.5121 -1.0324  0.4310
  367MOL0     H49501   3.539   6.909   4.662  2.3808 -1.9424 -1.9105
  367MOL0     H49502   3.504   7.079   4.680  0.6618  1.1725  0.3388
  367MOL0     H49503   3.767   7.049   4.681  0.6299 -2.0926  0.5487
  367MOL0     H49504   3.729   7.128   4.536  0.3673 -1.8299 -3.7687
  367MOL0     H49505   3.867   6.719   4.438 -1.2933  1.0293 -0.7965
  367MOL0     H49506   4.103   6.648   4.458  0.0454  0.6212  0.2472
  367MOL0     H49507   4.372   6.515   4.271 -0.5816  0.9785 -0.5873
  367MOL0     H49508   4.575   6.415   4.194  1.4778 -0.2266 -0.1066
  367MOL0     H49509   4.948   6.439   4.148  2.1034  0.8667  1.3334
  367MOL0     H49510   4.792   6.522   4.105 -0.1314 -0.0936  0.1859
  367MOL0     H49511   5.002   6.658   4.124 -0.5957 -0.0751 -0.1143
  367MOL0     H49512   4.880   6.704   4.248  1.8300  1.5411 -0.6382
  367MOL0     H49513   5.051   6.694   4.390 -1.2332  0.1164 -0.1183
  367MOL0     H49514   5.030   6.517   4.403  1.5928  1.4470  1.1790
  367MOL0     H49515   5.266   6.628   4.380  0.9556 -0.7463 -0.5931
  367MOL0     H49516   5.244   6.609   4.214 -0.9948 -1.7039 -0.4105
  367MOL0     H49517   5.142   6.366   4.265  0.4087  0.8970 -3.3306
  367MOL0     H49518   5.221   6.375   4.415  0.2301 -1.2198 -1.0183
  367MOL0     H49519   5.348   6.406   4.138  0.2935  0.4257 -0.2551
  367MOL0     H49520   5.426   6.461   4.284  0.1169  0.3680 -0.9095
  367MOL0     H49521   5.330   6.170   4.253 -0.0291  0.0487 -3.2106
  367MOL0     H49522   5.413   6.259   4.393  1.1479  1.5302 -0.6399
  367MOL0     H49523   5.598   6.298   4.256 -0.8868  1.4956  1.0158
  367MOL0     H49524   5.556   6.113   4.261  0.3378  0.3956 -1.4440
  367MOL0     H49525   4.803   6.646   4.474  0.3133 -2.2069  1.6678
  367MOL0     H49526   4.593   6.733   4.582 -1.5431  0.7607  0.3525
  367MOL0     H49527   4.197   7.054   4.546  2.6459 -2.5047 -0.7091
  367MOL0     H49528   3.957   7.111   4.575  0.7200 -0.3426  1.8596
  367MOL0     H49529   3.993   7.469   4.398 -1.6511  0.2067 -4.2848
  367MOL0     H49530   4.245   7.415   4.467  2.2007 -0.2915 -1.5829
  367MOL0     H49531   4.509   7.106   4.724 -1.2848  0.2723 -2.0178
  367MOL0     H49532   4.735   7.032   4.790  1.4475  1.2013  0.1382
  367MOL0     H49533   5.144   7.088   4.580  1.2010 -2.5080  1.6258
  367MOL0     H49534   5.010   7.078   4.464  0.6356 -0.9210 -0.5250
  367MOL0     H49535   5.113   6.846   4.542  0.0973 -1.2617  1.2209
  367MOL0     H49536   4.940   6.857   4.563  0.4648 -1.1655 -0.1403
  367MOL0     H49537   4.979   6.925   4.807 -0.0690 -1.9338  1.5193
  367MOL0     H49538   5.147   6.902   4.784 -1.6100  1.9497  0.0458
  367MOL0     H49539   5.046   6.706   4.899  2.7177  0.3395 -0.0997
  367MOL0     H49540   4.932   6.684   4.771  0.4567 -1.5704  0.2110
  367MOL0     H49541   5.264   6.510   4.590 -0.1776 -0.4244 -0.2721
  367MOL0     H49542   4.880   7.293   4.480 -1.5579  1.9451 -1.0463
  367MOL0     H49543   4.735   7.407   4.333 -1.7650  2.8306 -1.0975
  367MOL0     H49544   4.648   7.272   4.262  1.0398 -2.3029  1.5121
  367MOL0     H49545   4.563   7.401   4.355  1.1690  1.4614  1.9844
  368MOL0     O49546   0.564  10.457   4.439  0.0359 -0.0635  0.4740
  368MOL0     C49547   0.485  10.539   4.390 -0.5646  0.2991 -0.0289
  368MOL0     O49548   0.495  10.601   4.273  0.1789 -0.1686  0.2711
  368MOL0     C49549   0.584  10.548   4.183 -0.5005  0.2483 -1.7877
  368MOL0     C49550   0.567  10.416   4.135  0.0126 -0.5163  0.4524
  368MOL0     C49551   0.656  10.375   4.042  0.3929  1.1061  0.4177
  368MOL0     C49552   0.761  10.447   3.985  0.5409  0.6222 -0.3285
  368MOL0     O49553   0.845  10.412   3.884 -0.1940 -0.2907 -0.4354
  368MOL0     C49554   0.832  10.286   3.818  0.1550 -0.8439 -0.0348
  368MOL0     C49555   0.966  10.258   3.742 -0.6728 -0.6420  0.2893
  368MOL0     C49556   0.953  10.131   3.662  0.2597 -0.0421  0.4731
  368MOL0     C49557   1.083  10.065   3.614 -0.3235 -0.2903 -0.4137
  368MOL0     C49558   1.156   9.989   3.731 -0.6880 -0.0937 -0.1507
  368MOL0     C49559   1.295   9.931   3.690 -0.4704  0.1004  0.1920
  368MOL0     C49560   1.354   9.869   3.813  0.1836  0.1174  0.3098
  368MOL0     C49561   1.426   9.974   3.899 -0.5730  0.4101 -0.0312
  368MOL0     N49562   1.530   9.913   3.977 -0.1487 -0.5059  0.5336
  368MOL0     C49563   1.654   9.971   4.000 -0.4617 -0.0655  0.5451
  368MOL0     C49564   1.701   9.909   4.108 -0.1770  0.1908  0.0046
  368MOL0     C49565   1.826   9.940   4.177  0.1016 -0.3609 -0.1708
  368MOL0     C49566   1.915   9.818   4.198  0.1369 -0.1596  0.6802
  368MOL0     C49567   1.911   9.726   4.074  0.3993 -0.4571 -0.3585
  368MOL0     C49568   2.023   9.621   4.074 -0.8340  0.1172  0.7561
  368MOL0     O49569   2.011   9.562   4.199  0.0596  0.1136 -0.0146
  368MOL0     C49570   2.130   9.532   4.252  0.3102  1.0500 -0.1479
  368MOL0     C49571   2.217   9.433   4.198 -0.0868 -0.0651  0.1772
  368MOL0     C49572   2.347   9.419   4.248  0.6288 -0.3592 -0.0544
  368MOL0     C49573   2.392   9.505   4.348  0.9507 -0.4131 -0.5273
  368MOL0     C49574   2.524   9.515   4.411  0.1180  0.2852 -0.4000
  368MOL0     O49575   2.602   9.417   4.357  0.2410  0.3125 -0.1064
  368MOL0     C49576   2.736   9.425   4.393  0.2597  0.3595  0.5298
  368MOL0     C49577   2.791   9.300   4.413  0.2090  0.6835  0.7899
  368MOL0     C49578   2.927   9.287   4.422  0.2677 -0.4725 -0.5008
  368MOL0     C49579   3.019   9.398   4.410  0.2223  0.6597 -0.1919
  368MOL0     O49580   3.156   9.381   4.422  0.8568  0.4055  0.4264
  368MOL0     C49581   3.215   9.296   4.320 -0.1533 -0.0421 -0.2826
  368MOL0     C49582   3.368   9.314   4.317  0.2195  0.4182 -0.4190
  368MOL0     C49583   3.437   9.287   4.454 -0.1668 -0.4677  0.7598
  368MOL0     C49584   3.584   9.328   4.436 -0.2825 -0.4969  0.1747
  368MOL0     C49585   3.668   9.261   4.538  0.3068 -0.2262 -0.6277
  368MOL0     C49586   3.814   9.304   4.520  0.0200  0.0643  0.9480
  368MOL0     C49587   3.919   9.200   4.585  0.1064 -0.6112 -0.4292
  368MOL0     C49588   4.057   9.234   4.545 -0.2795 -0.5096  0.3554
  368MOL0    Cl49589   4.089   9.195   4.375 -0.0220  0.0336 -0.5949
  368MOL0     C49590   2.957   9.525   4.409 -0.4310 -0.4404 -0.1096
  368MOL0     C49591   2.824   9.541   4.400 -0.0422  0.2081  0.0136
  368MOL0     O49592   2.554   9.597   4.498  1.0024  0.4208 -0.0514
  368MOL0     C49593   2.299   9.604   4.393 -0.8206 -0.0851 -0.1698
  368MOL0     C49594   2.176   9.616   4.345  0.0131 -1.1563 -0.0076
  368MOL0     N49595   1.611   9.812   4.143 -0.7085  0.3367  0.1363
  368MOL0     N49596   1.508   9.816   4.070  0.3827 -0.4489  0.2284
  368MOL0     C49597   0.774  10.579   4.041  0.9368 -0.8007  0.6736
  368MOL0     C49598   0.687  10.631   4.141  0.4183  0.0159  0.1726
  368MOL0     C49599   0.359  10.558   4.460  0.0233 -0.1991 -0.2688
  368MOL0     C49600   0.275  10.444   4.487  0.3150 -0.5357 -0.2951
  368MOL0     C49601   0.160  10.460   4.560 -0.8823 -0.1413 -0.2519
  368MOL0     C49602   0.133  10.584   4.620 -1.0725 -0.0231  0.3231
  368MOL0     O49603   0.016  10.611   4.685 -0.0196  0.0839  0.3862
  368MOL0     C49604  -0.071  10.503   4.721  0.2719  0.1898 -0.4200
  368MOL0     C49605  -0.199  10.548   4.787 -0.7814 -0.0125 -0.1192
  368MOL0     C49606  -0.157  10.648   4.898  0.6250  0.1053  0.5120
  368MOL0     C49607  -0.279  10.707   4.977 -0.3063  0.6420  0.3981
  368MOL0     C49608  -0.365  10.605   5.038  0.3283  0.2963 -0.0760
  368MOL0     C49609  -0.444  10.526   5.096  0.4201 -0.7245  1.0331
  368MOL0     C49610   0.217  10.692   4.594 -0.0142  0.0268  0.5112
  368MOL0     C49611   0.337  10.685   4.516  0.2711  0.0805 -1.0009
  368MOL0     C49612   0.422  10.808   4.500 -0.2105 -0.1309  0.4301
  368MOL0     H49613   0.493  10.347   4.174 -0.1003 -0.9517 -0.5148
  368MOL0     H49614   0.645  10.279   3.993  0.9729  1.4219 -0.3452
  368MOL0     H49615   0.813  10.209   3.893 -1.3202  0.5487  1.0729
  368MOL0     H49616   0.748  10.279   3.748  2.3878 -1.8792 -2.8180
  368MOL0     H49617   1.051  10.259   3.812  0.8039 -3.8324 -1.2500
  368MOL0     H49618   0.986  10.336   3.668  1.0130 -0.7825  0.5442
  368MOL0     H49619   0.894  10.150   3.572  1.7528 -0.1564 -0.5656
  368MOL0     H49620   0.895  10.061   3.723 -0.4737  0.9478  0.9465
  368MOL0     H49621   1.067   9.996   3.530 -0.8832  0.3063 -0.8069
  368MOL0     H49622   1.141  10.145   3.567 -1.3672 -0.6938 -2.4833
  368MOL0     H49623   1.166  10.066   3.809 -0.4920  0.9412 -1.1604
  368MOL0     H49624   1.090   9.907   3.759 -0.6632 -0.7845 -1.9940
  368MOL0     H49625   1.293   9.860   3.606  2.3720  1.9868 -1.6644
  368MOL0     H49626   1.351  10.016   3.650 -0.5757 -0.0384 -0.2657
  368MOL0     H49627   1.420   9.786   3.786 -3.7595 -2.7069 -1.5352
  368MOL0     H49628   1.274   9.820   3.868 -1.9716  2.7456 -0.2358
  368MOL0     H49629   1.459  10.060   3.841  1.7388  0.0697  0.7012
  368MOL0     H49630   1.362  10.027   3.971  1.1176  0.4767  1.5069
  368MOL0     H49631   1.689  10.063   3.954 -2.0375  0.0317 -0.5473
  368MOL0     H49632   1.889  10.011   4.124 -0.0700 -0.1435 -0.0853
  368MOL0     H49633   1.794   9.978   4.274 -1.7023 -0.9009 -0.5070
  368MOL0     H49634   2.018   9.848   4.218  0.3052  0.5621 -1.0869
  368MOL0     H49635   1.891   9.764   4.290 -0.0525  0.2564  0.8759
  368MOL0     H49636   1.918   9.794   3.988 -0.8476 -0.7556 -0.7100
  368MOL0     H49637   1.822   9.663   4.073  1.2643 -1.8838  2.2422
  368MOL0     H49638   2.120   9.669   4.063  0.0739 -1.7908 -0.0036
  368MOL0     H49639   2.009   9.545   3.997 -4.4136  2.4692 -1.1752
  368MOL0     H49640   2.183   9.363   4.123  0.8987  2.0802 -2.4475
  368MOL0     H49641   2.419   9.347   4.209 -1.3834 -2.8266  0.5000
  368MOL0     H49642   2.730   9.210   4.408  0.2464  0.7071 -1.4881
  368MOL0     H49643   2.971   9.189   4.438 -1.3525 -1.2790 -0.7594
  368MOL0     H49644   3.196   9.190   4.344 -1.1573  0.0162 -0.7939
  368MOL0     H49645   3.171   9.325   4.225  0.8129 -0.9469 -1.0256
  368MOL0     H49646   3.400   9.245   4.238  0.4573  0.4026 -0.3095
  368MOL0     H49647   3.392   9.412   4.276 -1.5617  0.5890 -1.1777
  368MOL0     H49648   3.403   9.342   4.542  1.0643 -0.9362  1.5663
  368MOL0     H49649   3.423   9.186   4.494 -5.3920  0.0940  0.9636
  368MOL0     H49650   3.589   9.438   4.438  1.7963 -0.5300  2.5045
  368MOL0     H49651   3.630   9.296   4.342  0.0955 -2.0731  0.8641
  368MOL0     H49652   3.654   9.153   4.527  0.7240 -0.3597  0.1191
  368MOL0     H49653   3.627   9.290   4.636  0.3146  1.0489 -0.9764
  368MOL0     H49654   3.831   9.312   4.412 -1.6438 -0.9095  0.5852
  368MOL0     H49655   3.827   9.405   4.561 -0.2102  1.0796 -1.3274
  368MOL0     H49656   3.900   9.101   4.544  1.5364 -0.1955 -2.2087
  368MOL0     H49657   3.906   9.202   4.694 -2.7453  2.7373 -0.6398
  368MOL0     H49658   4.082   9.338   4.568  2.0174 -1.3859  2.2383
  368MOL0     H49659   4.135   9.181   4.600  2.1547  2.9473  0.5873
  368MOL0     H49660   3.011   9.619   4.411  0.4021 -0.9145  0.1088
  368MOL0     H49661   2.790   9.644   4.392 -2.3266 -0.4188  0.8470
  368MOL0     H49662   2.333   9.663   4.478  4.8144 -2.4218 -0.3477
  368MOL0     H49663   2.112   9.694   4.386  0.9032  0.4886 -1.6282
  368MOL0     H49664   0.842  10.652   3.999 -1.1399 -0.1036 -1.7765
  368MOL0     H49665   0.716  10.726   4.184  2.1264  0.1106 -1.0648
  368MOL0     H49666   0.305  10.347   4.450 -0.0331 -1.0116  0.6324
  368MOL0     H49667   0.096  10.372   4.563 -1.3914  0.2346  0.5940
  368MOL0     H49668  -0.020  10.438   4.793 -0.5263 -1.8876 -1.6419
  368MOL0     H49669  -0.084  10.442   4.632  3.1065 -3.0268  1.1634
  368MOL0     H49670  -0.243  10.459   4.832  0.1624  0.9331  2.9456
  368MOL0     H49671  -0.266  10.587   4.709  0.9226 -0.4691 -1.8730
  368MOL0     H49672  -0.108  10.738   4.857 -4.4665  2.2950 -1.6178
  368MOL0     H49673  -0.096  10.600   4.975  0.7062  0.1845  0.4986
  368MOL0     H49674  -0.258  10.784   5.051 -0.1122 -2.0784  3.3723
  368MOL0     H49675  -0.343  10.758   4.904 -0.7082  2.2018  1.7951
  368MOL0     H49676  -0.497  10.443   5.137  3.6355 -3.3881  0.2160
  368MOL0     H49677   0.194  10.781   4.651 -0.6322  0.4237 -0.3334
  368MOL0     H49678   0.371  10.898   4.536  2.9797  0.8969  2.7830
  368MOL0     H49679   0.516  10.798   4.555 -0.9474 -0.9892  1.5718
  368MOL0     H49680   0.435  10.817   4.392  0.3174 -2.7606  0.2106
  369MOL0     O49681   3.058  10.345  10.581  0.1800  0.3003  0.3238
  369MOL0     C49682   2.981  10.256  10.611  0.6426 -0.2657  0.3968
  369MOL0     O49683   3.006  10.138  10.678  0.0705  0.5713  0.9572
  369MOL0     C49684   3.131  10.098  10.713 -0.4006 -1.2528  0.5628
  369MOL0     C49685   3.152  10.053  10.835  0.1721 -1.4274  0.2571
  369MOL0     C49686   3.276  10.024  10.882 -0.6441  0.0803 -0.9647
  369MOL0     C49687   3.394  10.026  10.804 -0.5899  0.2405  0.1195
  369MOL0     O49688   3.526   9.994  10.846 -0.0243  0.0769  0.4750
  369MOL0     C49689   3.568  10.017  10.974 -0.6305  0.9867 -1.1172
  369MOL0     C49690   3.721  10.009  10.984  0.1951  0.5796  0.0576
  369MOL0     C49691   3.792   9.874  10.932  0.0879  0.0889 -0.0693
  369MOL0     C49692   3.944   9.883  10.929  0.9020  0.6929  0.0810
  369MOL0     C49693   4.007   9.747  10.879 -0.0102 -0.2565  0.2147
  369MOL0     C49694   3.992   9.727  10.728 -0.1292  1.1789 -0.3616
  369MOL0     C49695   4.049   9.843  10.650  0.1825  0.7888 -0.4620
  369MOL0     C49696   4.195   9.882  10.674  0.4714 -0.1222  0.0469
  369MOL0     N49697   4.289   9.772  10.666 -0.8656 -0.8746  1.0192
  369MOL0     C49698   4.379   9.751  10.563  0.0566  0.8395 -0.5150
  369MOL0     C49699   4.459   9.650  10.615  0.4910  0.3559  0.2789
  369MOL0     C49700   4.584   9.598  10.550 -0.0141  0.5638 -0.5123
  369MOL0     C49701   4.712   9.666  10.609  0.3565  0.3473  0.6398
  369MOL0     C49702   4.754   9.791  10.528  0.6231 -0.0542 -0.5344
  369MOL0     C49703   4.899   9.841  10.562  0.0276 -0.5245  0.4275
  369MOL0     O49704   5.002   9.771  10.488  0.0059 -0.0753  0.4013
  369MOL0     C49705   5.130   9.826  10.510 -0.3705 -0.0975  0.1804
  369MOL0     C49706   5.163   9.953  10.539 -0.6094  0.4218  0.2200
  369MOL0     C49707   5.289  10.002  10.550 -0.6073  0.5515 -0.1231
  369MOL0     C49708   5.400   9.913  10.528 -0.1865  0.1884  0.1518
  369MOL0     C49709   5.546   9.962  10.537  0.2282 -0.2119 -0.3849
  369MOL0     O49710   5.639   9.867  10.516  0.2001  0.1576 -0.5382
  369MOL0     C49711   5.769   9.911  10.521 -0.7557  0.0678  0.0059
  369MOL0     C49712   5.842   9.935  10.405  0.4857  1.0151  0.2504
  369MOL0     C49713   5.983   9.952  10.411 -0.4557 -0.4864 -0.2608
  369MOL0     C49714   6.046   9.958  10.543 -0.1416 -0.1817  0.3040
  369MOL0     O49715   6.177   9.992  10.557  0.0263 -0.1291  0.2469
  369MOL0     C49716   6.260  10.030  10.438  0.0654  0.0602  0.1406
  369MOL0     C49717   6.379  10.109  10.496  0.3631  0.4934  0.2270
  369MOL0     C49718   6.453  10.163  10.381 -0.5689 -0.3402  0.2359
  369MOL0     C49719   6.579  10.255  10.424  0.1120 -0.8103  0.4932
  369MOL0     C49720   6.668  10.307  10.312 -0.2294  0.5198  0.7723
  369MOL0     C49721   6.794  10.369  10.363  0.1828 -0.3227  0.0049
  369MOL0     C49722   6.879  10.423  10.240  0.1823  1.1246 -0.6519
  369MOL0     C49723   6.995  10.511  10.279 -0.4275 -0.1266  0.5393
  369MOL0    Cl49724   7.109  10.539  10.151  0.1709  0.2208 -0.0635
  369MOL0     C49725   5.961   9.949  10.659 -0.9570 -1.0607  0.3982
  369MOL0     C49726   5.827   9.920  10.644  0.2104 -0.2687 -0.2788
  369MOL0     O49727   5.567  10.075  10.569  0.4327  0.2308 -0.7634
  369MOL0     C49728   5.363   9.771  10.498 -0.5292 -0.1952 -0.5364
  369MOL0     C49729   5.229   9.733  10.481  0.2111 -0.0908 -0.1227
  369MOL0     N49730   4.409   9.614  10.742  0.0672 -0.1235  0.5527
  369MOL0     N49731   4.310   9.685  10.769 -0.4003  0.2916 -0.1145
  369MOL0     C49732   3.369  10.070  10.672  0.3136 -0.3792  0.0446
  369MOL0     C49733   3.242  10.102  10.625 -0.1532  0.8155  0.2688
  369MOL0     C49734   2.839  10.274  10.565  1.1189 -0.3266  0.3923
  369MOL0     C49735   2.760  10.157  10.570  0.4327  0.4770 -0.3331
  369MOL0     C49736   2.631  10.159  10.522 -0.4312 -0.1704  0.9718
  369MOL0     C49737   2.568  10.277  10.490  0.2001  0.6623 -0.4762
  369MOL0     O49738   2.428  10.265  10.469 -0.1043  0.4222  0.4492
  369MOL0     C49739   2.356  10.385  10.433 -0.2878  0.3234 -0.3118
  369MOL0     C49740   2.206  10.345  10.398 -0.0772 -0.1004 -0.0968
  369MOL0     C49741   2.119  10.331  10.526  0.3518  0.0016 -0.2448
  369MOL0     C49742   1.974  10.312  10.482  1.1631  0.4681  0.3374
  369MOL0     C49743   1.880  10.301  10.594  0.2986 -0.4187 -0.2106
  369MOL0     C49744   1.805  10.292  10.691 -0.2867 -0.2468 -0.8608
  369MOL0     C49745   2.647  10.393  10.486  1.5005  0.1172  0.4506
  369MOL0     C49746   2.777  10.401  10.525 -0.2960  0.2368 -0.3260
  369MOL0     C49747   2.851  10.530  10.520  0.1148  0.6500 -0.4462
  369MOL0     H49748   3.068  10.042  10.903 -0.8012  1.6040 -0.3129
  369MOL0     H49749   3.277   9.991  10.985 -0.5392 -4.0581 -2.0869
  369MOL0     H49750   3.536  10.110  11.022 -1.7904 -0.6783  1.5872
  369MOL0     H49751   3.524   9.936  11.034 -2.0513  1.4071 -1.5462
  369MOL0     H49752   3.750  10.030  11.088 -0.4185  0.4414  0.2614
  369MOL0     H49753   3.763  10.091  10.925 -4.2627  1.6220 -2.0196
  369MOL0     H49754   3.756   9.846  10.833  3.1675 -3.0610 -0.4735
  369MOL0     H49755   3.760   9.784  10.985  1.4290 -0.0487  0.5354
  369MOL0     H49756   3.981   9.972  10.876  1.5203  1.1456  1.2377
  369MOL0     H49757   3.969   9.892  11.035 -1.5786 -1.8916  0.9939
  369MOL0     H49758   4.112   9.741  10.910 -0.3239 -1.9425  1.0305
  369MOL0     H49759   3.956   9.663  10.927 -0.9300 -0.2858 -0.7683
  369MOL0     H49760   4.058   9.644  10.699  0.2388  0.9823  0.9777
  369MOL0     H49761   3.889   9.706  10.698 -0.2798  0.4593  0.6100
  369MOL0     H49762   3.983   9.928  10.673  0.5539  0.8669  0.3624
  369MOL0     H49763   4.026   9.820  10.546 -0.3296  0.2525 -0.2347
  369MOL0     H49764   4.228   9.964  10.609  0.0255  1.0566  1.2598
  369MOL0     H49765   4.190   9.918  10.778 -3.8287 -0.2938  0.0877
  369MOL0     H49766   4.385   9.805  10.469 -0.0598  1.1700 -0.3340
  369MOL0     H49767   4.584   9.492  10.575  0.4863  0.7733  0.3973
  369MOL0     H49768   4.589   9.616  10.442  2.6270  0.1678 -0.5189
  369MOL0     H49769   4.706   9.691  10.715  2.6323 -0.2354  0.9651
  369MOL0     H49770   4.788   9.589  10.597 -2.0560 -2.0169 -0.3275
  369MOL0     H49771   4.677   9.861  10.561 -0.1752 -0.9288 -0.5009
  369MOL0     H49772   4.746   9.766  10.421 -1.2745 -1.2744 -0.1672
  369MOL0     H49773   4.924   9.839  10.669  1.3597 -3.5751  0.1550
  369MOL0     H49774   4.907   9.944  10.525  2.7247 -1.2432 -1.2258
  369MOL0     H49775   5.086  10.024  10.565 -2.4161 -1.8953  1.6802
  369MOL0     H49776   5.305  10.107  10.572 -0.1192  1.2603 -3.3688
  369MOL0     H49777   5.805   9.932  10.302 -0.9543  0.2575  0.7579
  369MOL0     H49778   6.037   9.981  10.322  0.0342  0.1229  0.2179
  369MOL0     H49779   6.297   9.943  10.383  3.4843  0.0953  2.0846
  369MOL0     H49780   6.207  10.096  10.370 -1.1944  0.1216  1.1339
  369MOL0     H49781   6.332  10.192  10.549 -2.3479 -0.3227 -0.7286
  369MOL0     H49782   6.432  10.036  10.558 -1.1378 -1.2920 -0.4793
  369MOL0     H49783   6.481  10.081  10.315  1.5236  0.0362  0.6102
  369MOL0     H49784   6.381  10.226  10.327 -1.4100 -0.5112  1.1325
  369MOL0     H49785   6.644  10.189  10.482  1.9384 -0.6972 -1.3204
  369MOL0     H49786   6.555  10.341  10.487 -0.2089 -0.3611 -0.2285
  369MOL0     H49787   6.609  10.377  10.252  0.0070  1.1479  1.2594
  369MOL0     H49788   6.694  10.221  10.250 -2.8797  1.2617 -1.5427
  369MOL0     H49789   6.772  10.455  10.426  0.0368 -1.0730  1.0150
  369MOL0     H49790   6.850  10.298  10.426 -1.2449  0.8128  2.7256
  369MOL0     H49791   6.809  10.473  10.173 -2.0258 -1.0502 -0.1258
  369MOL0     H49792   6.918  10.331  10.194 -2.3711 -0.8132  0.7682
  369MOL0     H49793   6.954  10.606  10.314  1.3375  0.8385  0.0944
  369MOL0     H49794   7.050  10.465  10.361  1.7072  0.0181 -0.7260
  369MOL0     H49795   6.000   9.959  10.760 -1.2349 -0.8149  0.4846
  369MOL0     H49796   5.755   9.897  10.723  0.5593  1.1235  0.4802
  369MOL0     H49797   5.444   9.705  10.467 -0.0315 -0.6515  1.5716
  369MOL0     H49798   5.202   9.631  10.455 -0.8275  0.3423 -0.8179
  369MOL0     H49799   3.452  10.085  10.603 -0.7308  1.6659 -0.8469
  369MOL0     H49800   3.225  10.132  10.522  2.1298  3.5255  0.5513
  369MOL0     H49801   2.816  10.066  10.592  2.2951  1.9104  1.1273
  369MOL0     H49802   2.565  10.074  10.516  1.0768 -1.2854 -1.9959
  369MOL0     H49803   2.403  10.422  10.341 -1.1298 -0.7829 -1.2270
  369MOL0     H49804   2.379  10.461  10.508  2.1785 -0.4879 -0.1704
  369MOL0     H49805   2.191  10.260  10.330 -1.5771  0.3205 -0.3255
  369MOL0     H49806   2.164  10.433  10.347  1.1681  0.2866 -0.5067
  369MOL0     H49807   2.116  10.424  10.584  0.2139 -0.2180  0.1012
  369MOL0     H49808   2.158  10.252  10.591 -1.4336  0.6973  1.7856
  369MOL0     H49809   1.947  10.399  10.421  3.2043 -0.0488 -1.4362
  369MOL0     H49810   1.975  10.231  10.409  1.8591  3.5241 -3.3622
  369MOL0     H49811   1.754  10.284  10.785 -1.6867  0.6207 -1.5225
  369MOL0     H49812   2.599  10.489  10.470 -0.4323 -0.6316  1.4393
  369MOL0     H49813   2.787  10.615  10.494  2.4759  2.2712 -1.3558
  369MOL0     H49814   2.881  10.555  10.622  2.5036  0.4275 -1.0429
  369MOL0     H49815   2.934  10.527  10.449  1.5248  2.0292  1.0390
  370MOL0     O49816  10.670   8.313   6.569  0.2096 -0.0295 -0.0586
  370MOL0     C49817  10.609   8.353   6.467  0.1168  0.7372 -0.7484
  370MOL0     O49818  10.654   8.355   6.340 -1.3302  0.3818  0.2676
  370MOL0     C49819  10.783   8.304   6.316 -0.5370 -0.0289  0.1223
  370MOL0     C49820  10.793   8.170   6.280 -0.6018 -0.1765  0.2022
  370MOL0     C49821  10.912   8.112   6.254 -0.8004  0.4375 -0.2272
  370MOL0     C49822  11.031   8.183   6.253  0.6380  0.2314  0.0961
  370MOL0     O49823  11.146   8.123   6.215  0.8974  0.2155 -0.6031
  370MOL0     C49824  11.192   8.030   6.318  0.1366 -0.1380  0.1584
  370MOL0     C49825  11.333   7.990   6.272  0.9005  0.8471  0.1119
  370MOL0     C49826  11.433   7.937   6.379 -0.0928 -1.1129 -0.1041
  370MOL0     C49827  11.557   7.881   6.317  0.1211 -0.3203  0.5122
  370MOL0     C49828  11.665   7.834   6.413 -0.5531 -0.1374  0.0113
  370MOL0     C49829  11.784   7.763   6.341  0.3868 -0.3124  0.2677
  370MOL0     C49830  11.884   7.750   6.451 -0.5868  0.6857  0.2617
  370MOL0     C49831  12.011   7.669   6.405  0.2246  0.3427  0.8498
  370MOL0     N49832  12.100   7.666   6.523  0.6099  0.4974  0.3296
  370MOL0     C49833  12.160   7.777   6.583  0.3648  1.4175 -0.9580
  370MOL0     C49834  12.228   7.729   6.686 -0.2106 -0.5997  0.4260
  370MOL0     C49835  12.319   7.825   6.766  0.7740 -0.1427  0.3975
  370MOL0     C49836  12.468   7.813   6.732 -0.3612 -0.0017 -0.2907
  370MOL0     C49837  12.560   7.902   6.818 -0.2519  0.1214 -0.1506
  370MOL0     C49838  12.580   8.040   6.761  0.8935 -0.1482 -0.0135
  370MOL0     O49839  12.616   8.125   6.862 -0.1463  0.1592 -0.8124
  370MOL0     C49840  12.742   8.115   6.922  0.3708 -0.0354  0.6117
  370MOL0     C49841  12.854   8.049   6.873 -0.1705 -0.4658 -0.1635
  370MOL0     C49842  12.968   8.047   6.944 -0.4022  0.0844 -0.6568
  370MOL0     C49843  12.983   8.120   7.070  0.4389 -0.0781  0.1192
  370MOL0     C49844  13.114   8.136   7.135 -0.0300  0.8176 -0.2968
  370MOL0     O49845  13.132   8.243   7.222 -0.4454  0.2331  0.0597
  370MOL0     C49846  13.253   8.262   7.280 -0.1660 -1.6961 -0.4461
  370MOL0     C49847  13.259   8.286   7.421 -0.0381 -0.4119  0.0825
  370MOL0     C49848  13.386   8.314   7.487  0.3061 -0.6866 -0.0903
  370MOL0     C49849  13.502   8.322   7.414 -0.7077  0.1793 -1.0440
  370MOL0     O49850  13.615   8.344   7.478 -0.2516 -0.6601  0.7772
  370MOL0     C49851  13.696   8.448   7.415  0.1136 -0.5931 -0.4684
  370MOL0     C49852  13.804   8.502   7.510 -0.6226  0.3760  0.3756
  370MOL0     C49853  13.874   8.619   7.432  0.7856 -0.3337  0.9108
  370MOL0     C49854  14.018   8.662   7.483  0.2287  0.0774  0.1774
  370MOL0     C49855  14.070   8.791   7.415 -0.2628  0.2354  0.6408
  370MOL0     C49856  14.207   8.834   7.466  0.1963  0.2935 -0.2851
  370MOL0     C49857  14.225   8.982   7.427  1.0354  0.5582 -1.9143
  370MOL0     C49858  14.331   9.045   7.518  0.2345  0.1223 -0.2351
  370MOL0    Cl49859  14.480   8.943   7.546 -0.4089 -0.1604  0.4715
  370MOL0     C49860  13.500   8.290   7.281 -0.0874 -0.2568  0.4490
  370MOL0     C49861  13.381   8.260   7.217 -0.7548  0.1257 -0.1323
  370MOL0     O49862  13.203   8.055   7.105  0.1595 -0.2074 -0.6203
  370MOL0     C49863  12.866   8.179   7.117 -0.2069 -0.5244  0.4820
  370MOL0     C49864  12.750   8.171   7.046  0.5298 -0.7401 -0.8203
  370MOL0     N49865  12.225   7.593   6.678 -0.2932  0.2084  0.3442
  370MOL0     N49866  12.137   7.554   6.590 -0.2109  0.4428  0.6532
  370MOL0     C49867  11.025   8.316   6.286  0.0800 -0.0119  0.7012
  370MOL0     C49868  10.902   8.383   6.317  0.1827  0.2411 -0.1972
  370MOL0     C49869  10.467   8.382   6.491  0.6868  0.1714  1.2886
  370MOL0     C49870  10.404   8.471   6.404  0.8368  0.3044 -0.4395
  370MOL0     C49871  10.261   8.497   6.427  1.2006  0.5323 -0.3309
  370MOL0     C49872  10.194   8.429   6.531  1.0210 -2.0078 -0.9246
  370MOL0     O49873  10.062   8.454   6.564 -0.0116  0.0153 -0.5256
  370MOL0     C49874   9.966   8.512   6.479  0.1313 -0.5598 -0.2830
  370MOL0     C49875   9.837   8.553   6.553 -0.2643 -0.1526  0.0442
  370MOL0     C49876   9.770   8.673   6.480 -0.0800  0.5613  0.2019
  370MOL0     C49877   9.642   8.710   6.563 -0.5406 -0.3087  0.8043
  370MOL0     C49878   9.577   8.822   6.489 -0.2391 -0.3072  0.7228
  370MOL0     C49879   9.504   8.904   6.444 -0.3198  0.1492  0.0475
  370MOL0     C49880  10.256   8.339   6.610  0.3031  0.5590  0.4716
  370MOL0     C49881  10.393   8.316   6.592 -0.5470 -0.3207 -0.0422
  370MOL0     C49882  10.447   8.212   6.693 -0.5498 -0.0792 -0.1122
  370MOL0     H49883  10.708   8.104   6.268  1.2596 -2.3248 -2.1374
  370MOL0     H49884  10.922   8.005   6.239  0.1511  0.0639  2.4580
  370MOL0     H49885  11.200   8.077   6.416 -0.4100  0.2589  0.0207
  370MOL0     H49886  11.128   7.941   6.318 -1.6600  0.9868 -2.8304
  370MOL0     H49887  11.374   8.086   6.241 -2.4329  1.4542 -3.2300
  370MOL0     H49888  11.317   7.927   6.183 -1.6578 -1.6711  2.1607
  370MOL0     H49889  11.375   7.868   6.440 -0.2702 -0.2613  0.7086
  370MOL0     H49890  11.466   8.016   6.447  0.7844 -1.8253  0.3131
  370MOL0     H49891  11.522   7.792   6.263  1.7082  0.5742 -2.2176
  370MOL0     H49892  11.581   7.945   6.231 -3.4423 -1.2056 -1.3413
  370MOL0     H49893  11.709   7.925   6.454 -0.8370  0.9246 -1.9096
  370MOL0     H49894  11.625   7.777   6.497 -0.1702 -2.4811 -1.3184
  370MOL0     H49895  11.751   7.664   6.307  0.5014 -0.6544  1.1352
  370MOL0     H49896  11.826   7.813   6.254  0.3149 -1.0095 -0.1801
  370MOL0     H49897  11.845   7.694   6.536 -1.7667 -1.4026 -1.5312
  370MOL0     H49898  11.923   7.849   6.474  1.9614 -0.6284  2.0679
  370MOL0     H49899  11.990   7.563   6.388  0.7607  0.0398  1.9500
  370MOL0     H49900  12.058   7.707   6.314  1.3376  4.0195  2.7479
  370MOL0     H49901  12.151   7.882   6.556  2.6000  1.5618 -1.2856
  370MOL0     H49902  12.300   7.931   6.749  2.1733  0.0098 -0.4315
  370MOL0     H49903  12.305   7.821   6.874 -0.8250  3.9744  0.5090
  370MOL0     H49904  12.487   7.707   6.756 -3.2184 -0.5268  0.0243
  370MOL0     H49905  12.489   7.827   6.626 -0.9165  0.7285 -0.3092
  370MOL0     H49906  12.657   7.853   6.826  0.4660  1.4318 -0.5315
  370MOL0     H49907  12.520   7.908   6.920 -1.0897  0.8930 -0.4993
  370MOL0     H49908  12.482   8.066   6.718  0.6148  0.7892  1.1250
  370MOL0     H49909  12.649   8.034   6.676 -0.9481  2.0500 -1.8376
  370MOL0     H49910  12.860   8.004   6.774  2.3341  0.1906 -0.3768
  370MOL0     H49911  13.048   7.987   6.901  0.2950  2.3732 -2.7742
  370MOL0     H49912  13.169   8.281   7.481 -0.2320 -0.9557 -0.2430
  370MOL0     H49913  13.378   8.336   7.593  0.2009  2.4263 -0.6559
  370MOL0     H49914  13.744   8.421   7.320 -1.1815  1.0558 -1.6594
  370MOL0     H49915  13.634   8.536   7.397  2.4826  1.1757 -0.5437
  370MOL0     H49916  13.756   8.526   7.605 -1.7087  1.0391 -0.3115
  370MOL0     H49917  13.884   8.428   7.514  1.4070  2.3600 -0.7341
  370MOL0     H49918  13.878   8.597   7.325 -1.2189 -2.5749  1.1928
  370MOL0     H49919  13.808   8.706   7.443 -0.4736 -1.3027  1.4052
  370MOL0     H49920  14.090   8.584   7.458  2.3766  2.4653 -1.5513
  370MOL0     H49921  14.008   8.675   7.591 -0.1582 -1.0068  0.2860
  370MOL0     H49922  13.998   8.870   7.438 -0.8976  0.6043 -2.2897
  370MOL0     H49923  14.072   8.781   7.306 -2.3787  0.3059  0.5462
  370MOL0     H49924  14.206   8.827   7.575  2.1155  0.0035 -0.2385
  370MOL0     H49925  14.289   8.774   7.423 -0.2284  0.4946 -1.4131
  370MOL0     H49926  14.132   9.038   7.431 -0.3146 -1.5320 -2.2082
  370MOL0     H49927  14.261   9.000   7.325  1.2932  0.3699 -1.8580
  370MOL0     H49928  14.359   9.141   7.474 -2.5037  0.5249 -1.3182
  370MOL0     H49929  14.285   9.053   7.617 -0.9791 -1.0323 -0.6818
  370MOL0     H49930  13.601   8.283   7.241 -0.0354 -0.9802  0.6876
  370MOL0     H49931  13.388   8.243   7.110 -1.0128 -0.4683 -0.0629
  370MOL0     H49932  12.869   8.246   7.203 -0.5906  0.8230 -0.5198
  370MOL0     H49933  12.662   8.223   7.082  2.8133  3.0651 -0.0759
  370MOL0     H49934  11.117   8.374   6.282  1.3287 -1.9128 -0.6826
  370MOL0     H49935  10.899   8.491   6.327 -2.6633  0.3019 -0.9527
  370MOL0     H49936  10.460   8.512   6.321  1.0403 -1.1514 -1.0624
  370MOL0     H49937  10.196   8.559   6.367 -2.7632 -0.1719  2.7782
  370MOL0     H49938   9.936   8.436   6.406  0.7310 -0.7374 -0.3474
  370MOL0     H49939   9.999   8.609   6.441 -1.8930  0.5792  0.6878
  370MOL0     H49940   9.862   8.599   6.650 -1.2082  3.7536 -1.3489
  370MOL0     H49941   9.766   8.472   6.570  0.9164 -0.7858  2.4205
  370MOL0     H49942   9.738   8.628   6.385  1.2589 -2.0388  0.8726
  370MOL0     H49943   9.842   8.755   6.470  3.0117 -2.0899 -1.1488
  370MOL0     H49944   9.572   8.627   6.577 -3.1862  1.8222  1.0943
  370MOL0     H49945   9.673   8.748   6.661 -0.8930 -2.6319  1.8987
  370MOL0     H49946   9.444   8.988   6.417 -3.4672 -1.5681  1.1270
  370MOL0     H49947  10.204   8.281   6.686 -0.4277  0.1703 -0.3032
  370MOL0     H49948  10.369   8.164   6.752 -2.2067  2.9018  0.3513
  370MOL0     H49949  10.501   8.131   6.644 -0.5783  0.8218 -1.7057
  370MOL0     H49950  10.513   8.264   6.762 -1.7132  0.0645  0.9211
  371MOL0     O49951   0.096  11.120   8.844 -0.3500 -0.4158  0.5587
  371MOL0     C49952   0.026  11.223   8.819  0.4664 -0.3111  0.2216
  371MOL0     O49953   0.074  11.347   8.806  0.1210  0.2282 -0.0259
  371MOL0     C49954   0.208  11.382   8.787 -0.4958 -0.0843 -0.3906
  371MOL0     C49955   0.240  11.469   8.687  0.7111  0.8776 -0.3406
  371MOL0     C49956   0.373  11.487   8.654 -0.2984 -0.4582 -0.7165
  371MOL0     C49957   0.479  11.427   8.740 -0.1113 -0.6849  0.1675
  371MOL0     O49958   0.615  11.434   8.727 -0.5030 -0.0724  0.5377
  371MOL0     C49959   0.674  11.505   8.615 -0.0404  1.0643 -0.1658
  371MOL0     C49960   0.821  11.477   8.594 -0.1841  0.2274  1.0093
  371MOL0     C49961   0.896  11.436   8.722 -0.0354  0.0414  0.7492
  371MOL0     C49962   1.040  11.392   8.688  0.3120 -0.7068 -0.1292
  371MOL0     C49963   1.132  11.494   8.619 -0.0130 -0.7896 -0.1629
  371MOL0     C49964   1.155  11.624   8.689 -0.1213  0.7041  0.7060
  371MOL0     C49965   1.247  11.732   8.613 -0.4420  0.6136  0.7117
  371MOL0     C49966   1.396  11.692   8.593  0.8906 -0.5957 -0.1199
  371MOL0     N49967   1.471  11.702   8.722 -0.6507 -0.1046 -0.0234
  371MOL0     C49968   1.478  11.809   8.806  0.2760  0.1317  0.0795
  371MOL0     C49969   1.566  11.778   8.900 -1.1961 -0.1441 -0.1595
  371MOL0     C49970   1.599  11.879   9.007 -0.3650 -0.2325  0.2729
  371MOL0     C49971   1.750  11.914   8.998  0.3295 -0.1343 -0.8704
  371MOL0     C49972   1.831  11.800   9.066 -0.9616  0.3364  0.7612
  371MOL0     C49973   1.983  11.831   9.060 -0.5999  0.3703 -0.1707
  371MOL0     O49974   2.059  11.720   9.121 -0.1837  0.3735  0.1436
  371MOL0     C49975   2.190  11.741   9.157  0.7190  0.2189  0.1524
  371MOL0     C49976   2.250  11.868   9.144 -0.4113  0.1631 -0.4915
  371MOL0     C49977   2.389  11.874   9.187  0.5913 -0.5268  0.2419
  371MOL0     C49978   2.466  11.764   9.231  0.4284  0.2041  0.0452
  371MOL0     C49979   2.607  11.780   9.271 -0.0412 -0.4183 -0.8447
  371MOL0     O49980   2.677  11.660   9.293 -0.7417  0.2237  0.4476
  371MOL0     C49981   2.814  11.661   9.288 -0.1768 -0.2294 -0.5178
  371MOL0     C49982   2.897  11.595   9.384 -0.3156 -0.3882 -0.0315
  371MOL0     C49983   3.037  11.594   9.377  0.3422 -0.5533 -0.0122
  371MOL0     C49984   3.105  11.651   9.267 -0.5690  0.1237 -1.0926
  371MOL0     O49985   3.243  11.645   9.260 -0.2095  0.1029  0.0431
  371MOL0     C49986   3.302  11.691   9.140 -0.6408  1.5141 -0.1295
  371MOL0     C49987   3.445  11.637   9.139 -0.2184  0.2887 -0.1869
  371MOL0     C49988   3.505  11.655   9.002 -0.4491  0.0703 -0.0888
  371MOL0     C49989   3.637  11.582   8.971  0.1948 -0.2535 -0.0706
  371MOL0     C49990   3.655  11.571   8.815 -0.5309 -0.5610  0.9220
  371MOL0     C49991   3.805  11.582   8.785 -0.4421  0.7243  0.3431
  371MOL0     C49992   3.829  11.545   8.639 -0.2232 -1.1457  0.3403
  371MOL0     C49993   3.974  11.555   8.613 -0.6408  0.1631 -0.4266
  371MOL0    Cl49994   4.070  11.430   8.705  0.1951  0.2131 -0.3104
  371MOL0     C49995   3.019  11.723   9.172 -0.2472 -0.1484 -0.5071
  371MOL0     C49996   2.881  11.721   9.180  0.2225 -0.5058  0.3718
  371MOL0     O49997   2.653  11.894   9.291 -0.5980  0.1081 -0.4317
  371MOL0     C49998   2.395  11.642   9.251  0.2435  0.3698  0.4474
  371MOL0     C49999   2.265  11.629   9.206 -0.0759 -0.3184 -0.6415
  371MOL0     N50000   1.616  11.654   8.876 -0.9016 -0.1420 -0.0041
  371MOL0     N50001   1.562  11.613   8.763 -0.0970 -0.1872 -1.0033
  371MOL0     C50002   0.441  11.350   8.845  0.1652  1.2642  0.6807
  371MOL0     C50003   0.306  11.327   8.865 -1.0159  0.2118  0.4320
  371MOL0     C50004  -0.116  11.200   8.800 -0.3842 -0.4925 -0.0850
  371MOL0     C50005  -0.167  11.078   8.834 -0.0967  0.1168  0.4497
  371MOL0     C50006  -0.305  11.049   8.838 -0.5477  0.3355  0.3181
  371MOL0     C50007  -0.391  11.152   8.805 -0.2482  0.6772 -0.3507
  371MOL0     O50008  -0.517  11.103   8.823 -0.3305 -0.2018 -0.0275
  371MOL0     C50009  -0.623  11.188   8.793  0.2045  0.1955  0.4971
  371MOL0     C50010  -0.743  11.086   8.783  0.0822 -0.1950  0.0752
  371MOL0     C50011  -0.868  11.151   8.734  0.0363  0.4067  0.1674
  371MOL0     C50012  -0.930  11.248   8.820 -0.0575 -0.3561  0.1219
  371MOL0     C50013  -1.035  11.336   8.764  0.0170 -0.5987  1.0304
  371MOL0     C50014  -1.129  11.396   8.716  0.0230  0.9044  0.1878
  371MOL0     C50015  -0.349  11.275   8.759 -0.3088 -0.1362 -0.2148
  371MOL0     C50016  -0.209  11.302   8.752  0.7296  0.7758 -0.9358
  371MOL0     C50017  -0.180  11.447   8.725 -0.5848  0.5644 -0.2539
  371MOL0     H50018   0.167  11.512   8.619  1.4403  0.6635 -1.2870
  371MOL0     H50019   0.407  11.555   8.577 -2.9354 -0.6386 -2.1635
  371MOL0     H50020   0.635  11.466   8.520  3.5844 -2.8606 -0.3649
  371MOL0     H50021   0.660  11.611   8.636  1.1034  1.1590  0.1892
  371MOL0     H50022   0.866  11.570   8.560 -3.6735  0.6852 -3.2316
  371MOL0     H50023   0.832  11.404   8.513  0.0973  1.8468 -0.4705
  371MOL0     H50024   0.841  11.356   8.774 -4.0244  2.1692  0.2538
  371MOL0     H50025   0.890  11.522   8.789  0.2388  0.6257  0.0385
  371MOL0     H50026   1.091  11.365   8.781  1.9416 -0.2846 -0.8694
  371MOL0     H50027   1.031  11.298   8.633 -0.8467 -1.0328  0.5954
  371MOL0     H50028   1.231  11.449   8.608  0.0177 -0.3801 -1.9053
  371MOL0     H50029   1.097  11.517   8.518  0.3017 -1.8235 -0.5234
  371MOL0     H50030   1.055  11.662   8.712 -1.0392 -1.0899 -0.1468
  371MOL0     H50031   1.215  11.596   8.776 -1.7701 -0.2107  1.5941
  371MOL0     H50032   1.241  11.824   8.671  0.8104  1.2837 -0.1621
  371MOL0     H50033   1.220  11.760   8.510  2.8736 -0.0117 -0.4518
  371MOL0     H50034   1.399  11.586   8.565  0.3339 -0.7204  0.2815
  371MOL0     H50035   1.445  11.746   8.511  0.2402  0.0690 -0.0780
  371MOL0     H50036   1.430  11.904   8.790  0.8365  0.6829  1.5256
  371MOL0     H50037   1.546  11.973   8.991 -2.6296 -1.5903 -0.8294
  371MOL0     H50038   1.580  11.841   9.108 -0.7781  1.0751  0.6949
  371MOL0     H50039   1.782  11.932   8.895  1.5288  1.1279 -0.3035
  371MOL0     H50040   1.749  12.006   9.056 -1.9889 -0.3869 -0.4403
  371MOL0     H50041   1.817  11.700   9.026 -2.4191  0.6344  0.4886
  371MOL0     H50042   1.797  11.810   9.170 -0.0044 -2.1061  1.3843
  371MOL0     H50043   1.987  11.929   9.109  0.4507  0.8827 -1.2411
  371MOL0     H50044   2.010  11.848   8.956  2.4581  2.0388  0.7859
  371MOL0     H50045   2.194  11.945   9.092 -2.3418  1.0034  2.5335
  371MOL0     H50046   2.444  11.967   9.173  1.1379 -0.2559  3.3346
  371MOL0     H50047   2.843  11.536   9.458  0.7748 -0.9459  0.3464
  371MOL0     H50048   3.096  11.546   9.454 -0.9498  1.4353  2.3505
  371MOL0     H50049   3.252  11.664   9.047 -0.6375 -1.2552  0.6042
  371MOL0     H50050   3.299  11.800   9.133 -0.5759  1.4307 -2.9047
  371MOL0     H50051   3.498  11.678   9.225 -1.2075 -1.9213  1.5699
  371MOL0     H50052   3.451  11.533   9.171  3.1937  0.4526  0.0791
  371MOL0     H50053   3.436  11.602   8.935 -1.2529  1.6312 -0.5353
  371MOL0     H50054   3.512  11.760   8.974 -2.4436  0.2008 -0.2032
  371MOL0     H50055   3.642  11.487   9.025  2.1214 -1.3379 -2.0214
  371MOL0     H50056   3.712  11.653   9.007 -1.7814  1.5926  0.6077
  371MOL0     H50057   3.609  11.655   8.762  0.7871 -2.3229 -3.4607
  371MOL0     H50058   3.611  11.485   8.764 -1.7229  0.7442 -0.3181
  371MOL0     H50059   3.849  11.679   8.808  1.5500  0.5499 -2.3117
  371MOL0     H50060   3.863  11.512   8.846  0.2663  1.6343  0.7349
  371MOL0     H50061   3.781  11.621   8.575  2.8506 -0.6710 -1.6297
  371MOL0     H50062   3.799  11.443   8.615  0.7282 -1.1505 -0.9390
  371MOL0     H50063   3.990  11.539   8.506 -1.1846  0.1870 -0.5169
  371MOL0     H50064   4.008  11.654   8.645  1.8255 -0.9871  0.8086
  371MOL0     H50065   3.064  11.769   9.085  0.1828 -0.0022 -0.2132
  371MOL0     H50066   2.819  11.772   9.107 -0.6181 -3.5086 -1.1648
  371MOL0     H50067   2.451  11.554   9.280 -4.1193 -3.1262 -0.6166
  371MOL0     H50068   2.220  11.530   9.210  0.9651 -0.7876 -0.2371
  371MOL0     H50069   0.511  11.300   8.911 -1.0680 -0.5092  0.7423
  371MOL0     H50070   0.285  11.261   8.949  2.4426  2.5404  3.4108
  371MOL0     H50071  -0.106  10.992   8.862 -1.1323 -0.5129  0.8233
  371MOL0     H50072  -0.331  10.948   8.865 -2.0674  0.6953  0.2730
  371MOL0     H50073  -0.609  11.233   8.694  1.0224  0.6920  0.8285
  371MOL0     H50074  -0.650  11.265   8.865 -1.4246  0.5094 -0.3946
  371MOL0     H50075  -0.762  11.032   8.876  0.2478  2.1494  1.5411
  371MOL0     H50076  -0.706  11.016   8.707 -1.4922 -1.4045  0.3719
  371MOL0     H50077  -0.929  11.068   8.696  3.1016 -1.6605 -0.6681
  371MOL0     H50078  -0.842  11.201   8.641 -1.1363 -1.6327 -1.3538
  371MOL0     H50079  -0.976  11.184   8.896 -0.8226 -1.6185 -1.3442
  371MOL0     H50080  -0.861  11.321   8.863  0.8343 -1.0262 -0.1658
  371MOL0     H50081  -1.214  11.457   8.693 -1.1930 -1.5129 -2.2980
  371MOL0     H50082  -0.413  11.361   8.742  3.8650  2.9579 -1.8765
  371MOL0     H50083  -0.270  11.495   8.685 -1.7968 -1.4363 -0.0521
  371MOL0     H50084  -0.140  11.499   8.812 -1.7238 -0.7833  1.1229
  371MOL0     H50085  -0.105  11.454   8.645  1.1743  0.0268  1.2785
  372MOL0     O50086   4.671   6.588   0.241 -0.5327  0.2297 -0.0603
  372MOL0     C50087   4.585   6.568   0.151 -0.4507  0.1086  0.3714
  372MOL0     O50088   4.601   6.500   0.031 -0.1013 -0.4781 -0.6125
  372MOL0     C50089   4.713   6.423   0.022 -0.4587 -0.0392  0.3177
  372MOL0     C50090   4.842   6.471   0.032  0.1296  0.5149 -0.5306
  372MOL0     C50091   4.947   6.383   0.012 -0.0499 -0.3195 -0.3079
  372MOL0     C50092   4.921   6.241  -0.002 -0.8784 -0.3430 -0.0576
  372MOL0     O50093   5.024   6.163   0.021 -0.4311 -0.1923 -0.9235
  372MOL0     C50094   5.026   6.049  -0.069 -1.0221  0.6768 -1.1341
  372MOL0     C50095   5.166   5.979  -0.069  0.0413 -0.6722  0.0690
  372MOL0     C50096   5.286   6.063  -0.141 -0.7966 -0.4728  0.3857
  372MOL0     C50097   5.422   5.996  -0.111  0.5098 -0.0599 -0.2314
  372MOL0     C50098   5.527   6.053  -0.209 -0.2611 -0.0527  0.0579
  372MOL0     C50099   5.668   6.011  -0.166 -0.6728  0.6659  0.1139
  372MOL0     C50100   5.774   6.080  -0.251  0.1971 -0.2097  0.1813
  372MOL0     C50101   5.913   6.041  -0.190 -0.4684  0.0193 -0.4714
  372MOL0     N50102   5.954   6.127  -0.081  0.0739 -0.1829 -0.1450
  372MOL0     C50103   6.083   6.137  -0.037 -0.2913  0.5945 -0.8114
  372MOL0     C50104   6.083   6.219   0.069  0.0507 -0.5751  0.4859
  372MOL0     C50105   6.202   6.239   0.156 -0.0315 -0.0582 -0.4404
  372MOL0     C50106   6.245   6.383   0.130 -1.2724 -0.3109  0.5055
  372MOL0     C50107   6.307   6.413  -0.008  0.5259 -0.6661  0.2054
  372MOL0     C50108   6.454   6.441  -0.002  0.1600  0.1744 -0.0064
  372MOL0     O50109   6.522   6.321   0.053 -0.1356  0.2494 -0.4282
  372MOL0     C50110   6.658   6.309   0.029 -1.0324  0.6339  1.0054
  372MOL0     C50111   6.747   6.418  -0.008 -0.5085  0.1136  0.1038
  372MOL0     C50112   6.878   6.393  -0.062  0.2273 -0.0253 -0.5555
  372MOL0     C50113   6.928   6.253  -0.059 -0.9317 -0.3745  0.0453
  372MOL0     C50114   7.063   6.230  -0.095 -0.2696 -0.0245  0.3777
  372MOL0     O50115   7.118   6.112  -0.065 -0.1199  0.4638 -0.4551
  372MOL0     C50116   7.249   6.089  -0.089  0.2872  0.4854 -0.4339
  372MOL0     C50117   7.309   6.077  -0.216  0.3222 -0.8149  0.1388
  372MOL0     C50118   7.443   6.078  -0.236 -0.0543  0.2487  0.1065
  372MOL0     C50119   7.529   6.045  -0.132 -0.8732  0.3666 -0.3605
  372MOL0     O50120   7.664   6.021  -0.141 -0.4523 -0.3239  0.8432
  372MOL0     C50121   7.726   6.076  -0.255 -0.2708 -0.0139 -0.1753
  372MOL0     C50122   7.875   6.087  -0.218 -0.1427 -0.9117 -0.6375
  372MOL0     C50123   7.970   6.126  -0.335  0.1789 -0.6544 -0.1744
  372MOL0     C50124   7.968   6.285  -0.331 -0.1614  0.3782  0.6331
  372MOL0     C50125   8.089   6.342  -0.405 -0.1453  0.0248  0.5473
  372MOL0     C50126   8.202   6.402  -0.321  0.9610 -0.4068  0.3232
  372MOL0     C50127   8.277   6.293  -0.234 -0.1540  0.0057  0.0057
  372MOL0     C50128   8.406   6.356  -0.187 -0.1033 -0.1480  0.8796
  372MOL0    Cl50129   8.483   6.257  -0.070 -0.0003 -0.4330 -0.1551
  372MOL0     C50130   7.472   6.033  -0.000  0.1112 -0.6426  0.0712
  372MOL0     C50131   7.334   6.072   0.024 -0.5979 -1.1862  0.1830
  372MOL0     O50132   7.120   6.330  -0.139 -0.3088 -0.2722  0.3292
  372MOL0     C50133   6.841   6.149  -0.016 -0.4237  0.6637 -0.2595
  372MOL0     C50134   6.712   6.172   0.029 -0.4749  0.3094 -0.1980
  372MOL0     N50135   5.954   6.266   0.094  0.0901  0.1230  0.2768
  372MOL0     N50136   5.882   6.219  -0.003  0.4327  0.5638  0.3876
  372MOL0     C50137   4.786   6.195  -0.005 -0.1846 -0.1915  0.5032
  372MOL0     C50138   4.686   6.292  -0.006 -0.2362  0.2679  0.0779
  372MOL0     C50139   4.450   6.612   0.187  1.0443 -0.8066 -0.5989
  372MOL0     C50140   4.435   6.722   0.272 -0.2467  0.5464 -0.8741
  372MOL0     C50141   4.315   6.783   0.313  0.3496  0.0032 -0.1685
  372MOL0     C50142   4.196   6.741   0.255  0.2251 -0.5487 -0.0985
  372MOL0     O50143   4.072   6.799   0.277  0.0927 -0.4125 -0.3972
  372MOL0     C50144   4.053   6.931   0.232  0.1926  0.1800  0.1773
  372MOL0     C50145   4.052   6.937   0.078 -0.5508  0.6708  0.2986
  372MOL0     C50146   3.999   7.076   0.024 -0.5119  0.3434  0.2849
  372MOL0     C50147   3.998   7.086  -0.133  0.5558  0.2191  0.0768
  372MOL0     C50148   3.880   7.018  -0.186  0.3471  0.1397 -0.0485
  372MOL0     C50149   3.776   6.976  -0.231  0.1222  0.0403 -0.0842
  372MOL0     C50150   4.209   6.627   0.175  0.9564  0.1726  0.1520
  372MOL0     C50151   4.323   6.556   0.148  0.3153 -0.0301  0.4693
  372MOL0     C50152   4.318   6.430   0.064 -0.2919 -0.4214  0.1604
  372MOL0     H50153   4.883   6.569   0.055 -0.8531  1.0619 -1.0167
  372MOL0     H50154   5.048   6.419   0.029  0.6905 -1.3140 -2.3161
  372MOL0     H50155   4.943   5.981  -0.050 -2.3668  3.0069  2.3774
  372MOL0     H50156   5.014   6.088  -0.171  1.8079 -1.0511 -2.2364
  372MOL0     H50157   5.144   5.884  -0.118  0.8309 -1.3058  0.9045
  372MOL0     H50158   5.198   5.961   0.034  2.1166 -0.2784 -0.4462
  372MOL0     H50159   5.305   6.158  -0.089  0.5909  0.5053 -1.7790
  372MOL0     H50160   5.269   6.087  -0.246  4.0295  3.1343  0.0715
  372MOL0     H50161   5.452   5.997  -0.006  0.3587 -1.0024 -0.1747
  372MOL0     H50162   5.417   5.893  -0.145 -0.8551  0.2070 -0.8926
  372MOL0     H50163   5.503   6.016  -0.309 -2.7000  1.7795 -0.1223
  372MOL0     H50164   5.523   6.163  -0.209  2.1366  0.1411  2.2808
  372MOL0     H50165   5.681   6.020  -0.057  0.3811 -0.7999  0.1368
  372MOL0     H50166   5.678   5.904  -0.187 -0.0941  0.3502  1.8446
  372MOL0     H50167   5.761   6.189  -0.249  0.2501 -0.1662 -1.0720
  372MOL0     H50168   5.775   6.049  -0.356  0.0287  1.3950 -0.3196
  372MOL0     H50169   5.914   5.940  -0.148  0.0110  0.1677 -0.1183
  372MOL0     H50170   5.993   6.039  -0.265  3.1520 -1.5121  3.0776
  372MOL0     H50171   6.170   6.084  -0.073 -0.6468 -0.2438 -0.4586
  372MOL0     H50172   6.171   6.222   0.259 -2.5956 -0.6088 -1.2293
  372MOL0     H50173   6.282   6.171   0.127 -0.1593 -0.3584 -0.0938
  372MOL0     H50174   6.164   6.456   0.137 -2.0034 -0.7736 -1.9751
  372MOL0     H50175   6.330   6.401   0.196  1.3472 -0.7315 -2.5111
  372MOL0     H50176   6.259   6.499  -0.055 -0.0889  0.1464  2.1960
  372MOL0     H50177   6.284   6.329  -0.074  2.5040 -0.5387 -0.7157
  372MOL0     H50178   6.470   6.529   0.061  0.5325  0.7915 -0.9375
  372MOL0     H50179   6.493   6.468  -0.101  0.4803 -0.4331 -0.0527
  372MOL0     H50180   6.720   6.523  -0.002 -0.2090  0.1489  0.9548
  372MOL0     H50181   6.931   6.484  -0.087 -0.9217  1.0828  0.8093
  372MOL0     H50182   7.251   6.091  -0.307  1.7980  0.9714 -0.5882
  372MOL0     H50183   7.501   6.081  -0.328  1.9799  0.3168  1.3396
  372MOL0     H50184   7.711   6.011  -0.341 -0.8604  1.5613 -1.3185
  372MOL0     H50185   7.694   6.179  -0.275 -0.1264 -0.0092 -0.3785
  372MOL0     H50186   7.891   6.152  -0.130  0.5676  1.2840 -2.2914
  372MOL0     H50187   7.907   5.986  -0.190 -0.5689 -0.8835 -0.0212
  372MOL0     H50188   8.074   6.095  -0.322 -0.1253 -0.9620  1.9819
  372MOL0     H50189   7.935   6.089  -0.432  0.5219 -0.0231 -0.5454
  372MOL0     H50190   7.980   6.323  -0.229 -1.5922 -0.8371  1.2910
  372MOL0     H50191   7.882   6.325  -0.384  0.3676  1.0291  0.2533
  372MOL0     H50192   8.046   6.419  -0.469  1.0515 -0.0449 -0.3723
  372MOL0     H50193   8.140   6.272  -0.472 -2.1870 -0.7308 -0.3077
  372MOL0     H50194   8.265   6.464  -0.386 -0.7541 -0.4036 -1.4379
  372MOL0     H50195   8.151   6.474  -0.256  0.7698  0.3946 -0.6885
  372MOL0     H50196   8.290   6.202  -0.294 -0.7600  2.1425 -3.6638
  372MOL0     H50197   8.217   6.262  -0.148  2.2120 -2.0462  1.0656
  372MOL0     H50198   8.471   6.388  -0.270  2.6423 -3.3749  1.5419
  372MOL0     H50199   8.387   6.451  -0.135  1.1954  0.3399  0.5117
  372MOL0     H50200   7.553   6.020   0.071 -0.0121 -1.8448  0.0196
  372MOL0     H50201   7.297   6.064   0.126 -2.6637 -1.8222 -0.5511
  372MOL0     H50202   6.872   6.045  -0.019 -1.8776  0.2263 -0.6929
  372MOL0     H50203   6.662   6.079   0.055 -1.5418  1.2939  1.5163
  372MOL0     H50204   4.766   6.088  -0.001  1.0223 -0.4613  5.3008
  372MOL0     H50205   4.585   6.258  -0.028  0.2400 -2.1851  1.2877
  372MOL0     H50206   4.524   6.767   0.314  0.1333  0.6269 -1.7444
  372MOL0     H50207   4.316   6.861   0.389  2.0867 -0.2994  0.1663
  372MOL0     H50208   4.135   6.988   0.278  0.2965  0.3402 -0.2085
  372MOL0     H50209   3.961   6.968   0.277 -1.5745 -1.0494 -2.2255
  372MOL0     H50210   3.985   6.857   0.044 -2.6660  1.0841  3.1502
  372MOL0     H50211   4.156   6.928   0.045 -0.1992 -2.0371  1.8521
  372MOL0     H50212   4.062   7.165   0.038 -0.3364  0.8601 -2.9404
  372MOL0     H50213   3.897   7.084   0.061 -0.8580 -3.3496  0.5229
  372MOL0     H50214   4.008   7.191  -0.164 -0.0801  0.7196  1.4781
  372MOL0     H50215   4.086   7.031  -0.169  0.7504 -1.7191  3.0843
  372MOL0     H50216   3.689   6.930  -0.273  0.8401 -1.2041 -0.2307
  372MOL0     H50217   4.110   6.595   0.145  0.3905 -0.0970  2.1455
  372MOL0     H50218   4.348   6.344   0.125 -2.5656 -0.8209  0.8126
  372MOL0     H50219   4.218   6.403   0.030 -0.9678  0.0606  1.6430
  372MOL0     H50220   4.381   6.433  -0.025 -1.0275  2.7101 -0.3706
  373MOL0     O50221   3.620   4.408   3.454  0.6801 -0.7339 -0.3837
  373MOL0     C50222   3.555   4.510   3.430 -0.3304  0.8495  0.8411
  373MOL0     O50223   3.613   4.635   3.419 -0.2259  0.7863  0.3295
  373MOL0     C50224   3.755   4.634   3.430 -0.6742  0.6711  0.1223
  373MOL0     C50225   3.815   4.602   3.549 -0.2783 -0.0213  0.7860
  373MOL0     C50226   3.954   4.599   3.557 -0.2208 -0.9204 -0.2786
  373MOL0     C50227   4.034   4.635   3.445  0.5077  0.8684 -0.3528
  373MOL0     O50228   4.164   4.599   3.440 -0.5301 -0.8515 -0.7020
  373MOL0     C50229   4.256   4.663   3.349  0.4978 -0.1053  0.4183
  373MOL0     C50230   4.402   4.661   3.393  0.2301 -0.2625 -0.1079
  373MOL0     C50231   4.466   4.520   3.382  0.1046 -0.8703 -0.7723
  373MOL0     C50232   4.598   4.528   3.460 -0.4545 -0.2178 -0.8636
  373MOL0     C50233   4.657   4.381   3.472  0.3497  0.6357  0.3798
  373MOL0     C50234   4.736   4.360   3.337 -0.9212  0.7962 -0.1687
  373MOL0     C50235   4.784   4.210   3.318 -0.0189  0.8236  0.5029
  373MOL0     C50236   4.866   4.189   3.178  0.0679  0.4015 -0.2799
  373MOL0     N50237   4.977   4.282   3.155 -0.6389 -0.6498 -0.2933
  373MOL0     C50238   5.081   4.312   3.234 -0.3108 -0.3385 -0.0474
  373MOL0     C50239   5.156   4.401   3.170 -0.2831  0.0596  0.6553
  373MOL0     C50240   5.274   4.467   3.235 -0.7873 -0.6886 -0.3805
  373MOL0     C50241   5.394   4.382   3.273 -0.2417 -0.9857 -0.8023
  373MOL0     C50242   5.470   4.343   3.142 -0.6063 -0.3866  0.2579
  373MOL0     C50243   5.554   4.446   3.062 -0.5136 -0.5480  0.8794
  373MOL0     O50244   5.681   4.474   3.126  0.0505 -0.0028 -0.1464
  373MOL0     C50245   5.794   4.485   3.046 -0.0492 -0.1071  0.3847
  373MOL0     C50246   5.916   4.480   3.120  0.2487  0.2435 -0.2446
  373MOL0     C50247   6.038   4.483   3.054  0.7810 -0.3383 -0.2600
  373MOL0     C50248   6.037   4.495   2.913  0.2895 -0.4928 -0.4669
  373MOL0     C50249   6.167   4.470   2.846 -0.2820  0.5474  0.8674
  373MOL0     O50250   6.271   4.430   2.927  0.2141 -0.0785 -0.3541
  373MOL0     C50251   6.394   4.415   2.870  0.0543  0.9303 -0.4882
  373MOL0     C50252   6.444   4.284   2.853  0.7900 -0.7534 -0.0144
  373MOL0     C50253   6.576   4.266   2.806  0.5380  0.5775 -0.6201
  373MOL0     C50254   6.661   4.380   2.780  0.5156  0.0031  0.7690
  373MOL0     O50255   6.788   4.358   2.742 -0.5861  0.1541  0.8483
  373MOL0     C50256   6.891   4.457   2.752  0.8848 -0.1154  0.5944
  373MOL0     C50257   7.023   4.388   2.771 -0.3283 -0.0501 -0.5138
  373MOL0     C50258   7.055   4.300   2.650 -0.2634 -0.1819 -0.4258
  373MOL0     C50259   7.192   4.239   2.663  0.4986 -0.2848  0.8394
  373MOL0     C50260   7.292   4.332   2.604 -0.2373  0.8894  0.5589
  373MOL0     C50261   7.415   4.262   2.559 -0.8099 -0.2405  0.4020
  373MOL0     C50262   7.509   4.369   2.492  0.2155  0.4089 -0.0931
  373MOL0     C50263   7.657   4.329   2.484 -0.3987  0.3662 -0.2396
  373MOL0    Cl50264   7.765   4.449   2.388  0.3388 -0.3067  0.1048
  373MOL0     C50265   6.598   4.510   2.790 -0.1348  0.4057 -0.6858
  373MOL0     C50266   6.470   4.530   2.836  0.0052  0.2282  0.4867
  373MOL0     O50267   6.179   4.473   2.727  0.1957  0.2398 -0.0219
  373MOL0     C50268   5.916   4.508   2.846 -0.0023 -0.1946 -0.0215
  373MOL0     C50269   5.797   4.509   2.910  0.7756 -0.3191 -0.4829
  373MOL0     N50270   5.101   4.421   3.039 -0.1003  0.7087 -0.0472
  373MOL0     N50271   5.003   4.342   3.032 -0.1691  0.1480 -0.5444
  373MOL0     C50272   3.965   4.669   3.321  0.8357 -0.6420 -0.0290
  373MOL0     C50273   3.828   4.668   3.313 -0.2032 -0.1151  0.1051
  373MOL0     C50274   3.413   4.504   3.409  0.1233  0.6242  0.1163
  373MOL0     C50275   3.342   4.630   3.417 -0.4711 -0.2590 -0.1358
  373MOL0     C50276   3.209   4.633   3.399 -0.2724  0.0111  0.2073
  373MOL0     C50277   3.132   4.525   3.358 -0.9945  0.4057 -0.0397
  373MOL0     O50278   2.995   4.552   3.343 -0.4234  0.2624 -0.1535
  373MOL0     C50279   2.916   4.434   3.347  0.1247  0.5511 -0.1866
  373MOL0     C50280   2.770   4.469   3.380 -0.4047  0.1160  0.6126
  373MOL0     C50281   2.742   4.555   3.506 -0.4192 -0.0037 -0.3109
  373MOL0     C50282   2.602   4.571   3.555 -0.2762 -0.0393 -1.1933
  373MOL0     C50283   2.529   4.692   3.502 -0.8833  0.4815 -0.3770
  373MOL0     C50284   2.467   4.788   3.461 -0.3363 -0.0727  0.2003
  373MOL0     C50285   3.201   4.399   3.348  0.1849  0.0025 -0.3815
  373MOL0     C50286   3.332   4.391   3.370  0.5695 -0.5175 -0.1710
  373MOL0     C50287   3.393   4.258   3.338  0.5413 -0.1483  0.6084
  373MOL0     H50288   3.748   4.567   3.626 -0.6734  2.1011  1.4630
  373MOL0     H50289   4.004   4.574   3.650 -0.2951 -0.3378 -0.0797
  373MOL0     H50290   4.257   4.621   3.248 -2.4100  1.8726 -0.6016
  373MOL0     H50291   4.217   4.764   3.330  2.3312  0.9839  2.0401
  373MOL0     H50292   4.409   4.700   3.495 -1.0087 -1.0425  0.3007
  373MOL0     H50293   4.464   4.729   3.333 -0.1657 -0.0569 -0.2919
  373MOL0     H50294   4.484   4.474   3.285  3.4501 -0.2012 -0.5940
  373MOL0     H50295   4.399   4.450   3.433 -1.1436  0.0073 -1.1614
  373MOL0     H50296   4.668   4.594   3.408  0.0660 -0.2154 -0.1624
  373MOL0     H50297   4.593   4.561   3.564 -2.9953  0.2410 -1.0528
  373MOL0     H50298   4.730   4.386   3.554 -1.2627 -0.3576  1.9463
  373MOL0     H50299   4.588   4.306   3.511  0.6702  0.8181  1.3203
  373MOL0     H50300   4.684   4.384   3.244 -0.5429 -1.5741 -1.0634
  373MOL0     H50301   4.831   4.414   3.344  0.7854 -1.6716 -2.3565
  373MOL0     H50302   4.695   4.148   3.309 -0.9744  2.0435  1.2653
  373MOL0     H50303   4.836   4.188   3.412  0.9719 -0.0430 -0.2285
  373MOL0     H50304   4.908   4.088   3.185 -1.2319 -0.0686  1.4890
  373MOL0     H50305   4.791   4.206   3.100 -1.9246 -1.0577  1.2026
  373MOL0     H50306   5.112   4.268   3.328  0.3260 -1.6540 -0.8390
  373MOL0     H50307   5.310   4.544   3.165  0.3040  0.2734  1.1626
  373MOL0     H50308   5.231   4.529   3.315 -3.0727 -2.7919  0.1265
  373MOL0     H50309   5.456   4.449   3.334 -0.2348 -2.1773  0.5584
  373MOL0     H50310   5.372   4.288   3.326 -2.8913 -0.4079 -0.7151
  373MOL0     H50311   5.400   4.290   3.077 -1.4212 -0.8035  1.4400
  373MOL0     H50312   5.538   4.271   3.186 -1.0359 -0.3670  0.9667
  373MOL0     H50313   5.498   4.539   3.050 -1.4431 -1.0926  0.9220
  373MOL0     H50314   5.558   4.413   2.958 -1.6820 -1.0720  0.9799
  373MOL0     H50315   5.914   4.471   3.228 -1.9827  0.0888 -0.2444
  373MOL0     H50316   6.120   4.477   3.124 -1.0554  2.5666  2.4001
  373MOL0     H50317   6.374   4.208   2.887 -0.7147  0.5641 -0.0186
  373MOL0     H50318   6.605   4.162   2.799  0.1038  0.3136  1.0312
  373MOL0     H50319   6.882   4.510   2.657 -1.7537 -0.2265  0.7111
  373MOL0     H50320   6.861   4.530   2.828  0.4214 -1.4131  1.6966
  373MOL0     H50321   7.096   4.465   2.796 -1.2305  1.1213 -1.3472
  373MOL0     H50322   6.999   4.327   2.858 -0.5174  1.0593  0.2365
  373MOL0     H50323   6.991   4.212   2.639  1.7432 -1.9302  1.0531
  373MOL0     H50324   7.045   4.363   2.561  0.0588  2.5560  1.3502
  373MOL0     H50325   7.185   4.143   2.611 -1.4228  1.6280 -2.8449
  373MOL0     H50326   7.221   4.233   2.768 -3.6543  1.5681  2.3178
  373MOL0     H50327   7.320   4.408   2.677  3.3939 -0.6667  0.9808
  373MOL0     H50328   7.247   4.379   2.516  0.7808 -0.1209 -0.5376
  373MOL0     H50329   7.459   4.216   2.648 -0.8508  1.5326  1.3898
  373MOL0     H50330   7.392   4.173   2.500 -0.2870  0.4646 -0.8918
  373MOL0     H50331   7.499   4.461   2.551  0.1675 -0.0375  0.6059
  373MOL0     H50332   7.472   4.376   2.389 -2.3649 -1.7340  0.5835
  373MOL0     H50333   7.696   4.313   2.585  1.1349  1.1474 -0.6861
  373MOL0     H50334   7.659   4.232   2.432  0.5226 -0.1400  0.7124
  373MOL0     H50335   6.656   4.599   2.768 -0.0380  1.4891  3.2361
  373MOL0     H50336   6.421   4.627   2.843 -3.1518 -1.0504 -1.6444
  373MOL0     H50337   5.924   4.514   2.738 -1.4085 -0.8850 -0.1888
  373MOL0     H50338   5.705   4.524   2.854  1.0989  0.2615 -0.8623
  373MOL0     H50339   4.024   4.696   3.234  0.3592  0.1908 -0.0968
  373MOL0     H50340   3.775   4.695   3.223  0.8103  0.1095 -0.4380
  373MOL0     H50341   3.396   4.721   3.442  0.5294 -0.8236 -0.1961
  373MOL0     H50342   3.143   4.719   3.406 -2.0360 -1.2787  0.0692
  373MOL0     H50343   2.954   4.372   3.429  2.5271  1.0922 -0.8237
  373MOL0     H50344   2.925   4.370   3.259  0.4611 -2.7678  2.0934
  373MOL0     H50345   2.705   4.382   3.386 -0.1005 -0.3393 -1.6844
  373MOL0     H50346   2.726   4.523   3.295  1.3038  0.3200 -0.1853
  373MOL0     H50347   2.786   4.655   3.503 -0.6582  0.1067 -0.1555
  373MOL0     H50348   2.787   4.509   3.594  0.3088  2.6115  0.7600
  373MOL0     H50349   2.549   4.476   3.541 -1.8571  0.9258 -2.1090
  373MOL0     H50350   2.608   4.582   3.663 -1.3786 -2.1553 -0.8466
  373MOL0     H50351   2.409   4.870   3.424 -1.2667 -0.0970  1.5539
  373MOL0     H50352   3.144   4.310   3.325  1.0751 -0.8136  0.4763
  373MOL0     H50353   3.445   4.203   3.416  3.7387 -2.5891 -2.8537
  373MOL0     H50354   3.318   4.182   3.310  0.1516  0.8920 -1.4166
  373MOL0     H50355   3.460   4.268   3.253  0.8187  0.7488  0.9331
  374MOL0     O50356  11.170   1.194   6.882 -0.3585  0.4970  0.0356
  374MOL0     C50357  11.112   1.298   6.847 -0.2649 -0.4306 -0.1714
  374MOL0     O50358  11.138   1.366   6.729  0.1929 -0.1068 -0.2019
  374MOL0     C50359  11.242   1.313   6.664 -0.0183  0.6335  0.0925
  374MOL0     C50360  11.229   1.200   6.579 -0.6539 -0.5083  0.4034
  374MOL0     C50361  11.341   1.147   6.514 -0.8904 -0.2554  0.2537
  374MOL0     C50362  11.466   1.205   6.532  0.1034 -0.5700  0.7672
  374MOL0     O50363  11.583   1.149   6.478 -0.1654  0.4413 -0.4403
  374MOL0     C50364  11.690   1.237   6.449  0.2198 -0.9440 -0.2559
  374MOL0     C50365  11.791   1.163   6.360 -0.3529 -0.0880 -0.0168
  374MOL0     C50366  11.922   1.241   6.362  0.3373  0.3951  0.4178
  374MOL0     C50367  12.011   1.207   6.246  1.1835  0.2493 -0.4679
  374MOL0     C50368  12.102   1.312   6.209 -1.0724 -0.7890  0.5867
  374MOL0     C50369  12.178   1.279   6.075 -0.2654 -0.0216 -0.1416
  374MOL0     C50370  12.271   1.387   6.021  0.1593  0.8051  0.3300
  374MOL0     C50371  12.310   1.338   5.879 -0.1230  0.5877 -0.2629
  374MOL0     N50372  12.422   1.403   5.815  0.9459 -0.2090  0.2224
  374MOL0     C50373  12.551   1.386   5.849  0.4050 -0.3739 -0.0307
  374MOL0     C50374  12.621   1.446   5.743  0.4846 -0.5892  0.5084
  374MOL0     C50375  12.769   1.432   5.710 -0.4582  0.2613  0.0840
  374MOL0     C50376  12.838   1.483   5.848  0.6961 -0.1232  0.5893
  374MOL0     C50377  12.973   1.561   5.808  0.0515  1.1595  0.7129
  374MOL0     C50378  13.073   1.581   5.923 -0.3514 -0.1067  1.0824
  374MOL0     O50379  13.180   1.667   5.874 -0.3656  0.6457 -0.5994
  374MOL0     C50380  13.314   1.640   5.900  0.7272  0.1040 -0.1155
  374MOL0     C50381  13.362   1.617   6.026 -0.0853 -0.8521  0.5039
  374MOL0     C50382  13.495   1.584   6.045  0.4368  0.4782  0.7009
  374MOL0     C50383  13.587   1.581   5.936 -0.8078 -1.1345  0.5641
  374MOL0     C50384  13.727   1.546   5.955  1.3381  0.3212 -0.6440
  374MOL0     O50385  13.815   1.533   5.845 -0.2164  0.1433  0.0081
  374MOL0     C50386  13.941   1.486   5.869 -0.1311  0.0604  0.0702
  374MOL0     C50387  13.951   1.346   5.871 -0.5470  0.3889  0.7042
  374MOL0     C50388  14.069   1.281   5.909 -0.4039  0.1914  1.2887
  374MOL0     C50389  14.175   1.363   5.945 -0.9931  0.1429  0.8924
  374MOL0     O50390  14.288   1.295   5.982  0.1070  0.1348 -0.3408
  374MOL0     C50391  14.392   1.352   6.058  0.5449 -0.6001 -0.4860
  374MOL0     C50392  14.461   1.234   6.129  0.3212  0.6902 -0.0949
  374MOL0     C50393  14.556   1.283   6.242  0.3435 -1.1000  1.5431
  374MOL0     C50394  14.482   1.292   6.375  0.2751  0.3111  0.1299
  374MOL0     C50395  14.542   1.384   6.482  0.2092 -0.7462  0.9338
  374MOL0     C50396  14.614   1.305   6.585 -0.3287  0.7735 -0.2053
  374MOL0     C50397  14.751   1.260   6.534  0.8991  0.8185  0.2031
  374MOL0     C50398  14.819   1.181   6.647 -0.0149  0.1306 -0.0379
  374MOL0    Cl50399  14.910   1.289   6.755  0.0069 -0.1627 -0.0969
  374MOL0     C50400  14.166   1.506   5.946  0.4024  0.2361  0.6722
  374MOL0     C50401  14.044   1.564   5.915 -1.2064  0.2708 -0.2211
  374MOL0     O50402  13.752   1.509   6.073 -0.0615 -0.8666 -0.3967
  374MOL0     C50403  13.538   1.601   5.807  0.0135 -0.2457 -0.1679
  374MOL0     C50404  13.399   1.632   5.791 -0.5208  0.8684 -0.2361
  374MOL0     N50405  12.535   1.506   5.658 -0.6709 -0.2990  0.0286
  374MOL0     N50406  12.417   1.484   5.705 -0.3657 -0.3741  0.4657
  374MOL0     C50407  11.479   1.317   6.621 -0.4038 -0.0819  0.5388
  374MOL0     C50408  11.369   1.369   6.685 -0.3727  0.8741 -0.3485
  374MOL0     C50409  10.990   1.322   6.921  0.3354  0.5968  0.3595
  374MOL0     C50410  10.892   1.218   6.901 -0.9889  0.6796 -0.6117
  374MOL0     C50411  10.762   1.241   6.950  0.2683 -0.1126 -0.1332
  374MOL0     C50412  10.725   1.361   7.015 -0.6045  0.3534 -0.1049
  374MOL0     O50413  10.595   1.375   7.059  0.1536  0.1938 -0.5126
  374MOL0     C50414  10.548   1.503   7.103 -0.3832 -0.2151  0.0127
  374MOL0     C50415  10.396   1.503   7.129 -0.1459 -0.2123  0.7783
  374MOL0     C50416  10.319   1.485   7.000 -0.4894  0.4349 -0.2547
  374MOL0     C50417  10.169   1.513   7.008  0.7606  0.2499 -0.3702
  374MOL0     C50418  10.099   1.434   7.111  0.3990  0.0757 -0.1041
  374MOL0     C50419  10.042   1.352   7.182 -0.4142  0.1510 -0.2665
  374MOL0     C50420  10.819   1.463   7.033  0.2573  1.1607  0.0984
  374MOL0     C50421  10.949   1.446   6.982  0.2611 -0.2846 -0.7269
  374MOL0     C50422  11.050   1.562   6.984  0.1063  0.6564 -0.2652
  374MOL0     H50423  11.135   1.148   6.565  0.0708 -1.8701  0.3652
  374MOL0     H50424  11.345   1.054   6.458 -1.7948 -0.5360  0.6235
  374MOL0     H50425  11.646   1.321   6.395  0.3631 -0.5914  0.1815
  374MOL0     H50426  11.734   1.284   6.537 -2.1596 -0.1570  0.5696
  374MOL0     H50427  11.759   1.151   6.256  1.5513 -1.2113 -0.5171
  374MOL0     H50428  11.809   1.059   6.392  2.8928  0.6059  0.8135
  374MOL0     H50429  11.973   1.230   6.458  1.4840  3.1389  0.1915
  374MOL0     H50430  11.886   1.343   6.351 -1.2741  0.0912  2.4474
  374MOL0     H50431  12.069   1.115   6.260  0.8039 -0.1915 -1.6412
  374MOL0     H50432  11.950   1.186   6.157  1.6217  4.4537 -1.9832
  374MOL0     H50433  12.060   1.411   6.191  0.2027 -0.8600 -3.6987
  374MOL0     H50434  12.170   1.323   6.294  0.8119 -0.3537 -0.9123
  374MOL0     H50435  12.235   1.187   6.089  1.7564  0.6116 -3.1578
  374MOL0     H50436  12.094   1.262   6.006  1.2344  1.8034 -2.5776
  374MOL0     H50437  12.366   1.393   6.075 -0.0830 -1.9853  1.2250
  374MOL0     H50438  12.218   1.482   6.027 -1.6285 -0.2035  1.5182
  374MOL0     H50439  12.334   1.231   5.882 -0.1547  0.5954  0.2935
  374MOL0     H50440  12.223   1.361   5.816  1.6184 -0.7321 -3.3962
  374MOL0     H50441  12.592   1.338   5.936 -1.2204  0.4637  1.2683
  374MOL0     H50442  12.789   1.326   5.687  1.6364  0.5199  0.5341
  374MOL0     H50443  12.789   1.503   5.630 -2.1261  0.6609 -0.0016
  374MOL0     H50444  12.772   1.545   5.910 -0.2006 -1.6917  1.2708
  374MOL0     H50445  12.858   1.392   5.905 -0.9798  0.1706  1.7124
  374MOL0     H50446  12.945   1.655   5.758 -0.9730  0.0045 -1.0197
  374MOL0     H50447  13.030   1.516   5.726 -1.3880  3.0311 -1.4422
  374MOL0     H50448  13.109   1.485   5.960  0.1524 -0.2508  0.2247
  374MOL0     H50449  13.018   1.643   5.995  0.1152  2.7131 -0.8348
  374MOL0     H50450  13.295   1.637   6.109 -1.3874  2.2897 -1.1358
  374MOL0     H50451  13.518   1.545   6.143 -0.4305 -4.3424 -0.7674
  374MOL0     H50452  13.864   1.287   5.842  2.0055 -2.5725 -1.6163
  374MOL0     H50453  14.083   1.174   5.914 -0.0677  0.2656  5.1170
  374MOL0     H50454  14.467   1.397   5.992 -0.9184  1.2359 -0.9615
  374MOL0     H50455  14.352   1.432   6.121  1.7884 -0.8119  0.6296
  374MOL0     H50456  14.393   1.159   6.171  0.3881  0.0671 -1.0624
  374MOL0     H50457  14.523   1.183   6.054  1.1912 -0.8082  1.5694
  374MOL0     H50458  14.648   1.225   6.254  0.7275 -0.7169  0.5463
  374MOL0     H50459  14.592   1.379   6.203 -1.0525 -1.7435 -1.6761
  374MOL0     H50460  14.475   1.194   6.423 -0.0628 -0.1100 -0.7647
  374MOL0     H50461  14.377   1.319   6.357  0.3999 -0.4713 -2.1140
  374MOL0     H50462  14.459   1.428   6.538  0.1082 -0.4782  0.5836
  374MOL0     H50463  14.607   1.459   6.436  0.4183 -0.8545  1.0537
  374MOL0     H50464  14.637   1.355   6.679 -1.1300 -1.4935  1.2790
  374MOL0     H50465  14.557   1.218   6.618 -2.1530  2.3897  1.1649
  374MOL0     H50466  14.803   1.353   6.510 -0.0061  0.8656 -1.7763
  374MOL0     H50467  14.736   1.202   6.443 -1.0454  0.1922  0.8663
  374MOL0     H50468  14.749   1.121   6.707  2.1662 -1.2153  1.2814
  374MOL0     H50469  14.893   1.116   6.599 -0.6191 -0.6366  0.0552
  374MOL0     H50470  14.249   1.567   5.980  0.4790 -0.0650  1.0241
  374MOL0     H50471  14.030   1.672   5.913  0.8029  0.5699 -1.5707
  374MOL0     H50472  13.603   1.580   5.722 -2.0069 -0.4805 -1.7286
  374MOL0     H50473  13.357   1.643   5.691  2.1056  1.1987 -1.3648
  374MOL0     H50474  11.574   1.370   6.624  0.5777 -1.6083 -1.2198
  374MOL0     H50475  11.384   1.436   6.769  0.6071 -2.4435  2.3768
  374MOL0     H50476  10.932   1.137   6.841 -0.4818  1.5621 -1.4964
  374MOL0     H50477  10.676   1.175   6.947  0.3983 -0.4230  1.8305
  374MOL0     H50478  10.578   1.570   7.022  1.0019 -1.3097 -0.4286
  374MOL0     H50479  10.604   1.527   7.194  0.3627  0.5848 -0.6383
  374MOL0     H50480  10.354   1.595   7.172 -1.4369 -0.5358  0.2750
  374MOL0     H50481  10.369   1.421   7.196  0.1674 -1.3341 -0.4434
  374MOL0     H50482  10.340   1.388   6.953  0.3167  0.5753 -0.1902
  374MOL0     H50483  10.360   1.559   6.931  1.8971 -2.0275 -1.6713
  374MOL0     H50484  10.151   1.619   7.027  0.7569 -0.0298  1.3439
  374MOL0     H50485  10.122   1.495   6.911 -0.0925 -2.0911  0.4156
  374MOL0     H50486  10.002   1.282   7.253  0.3747 -1.3820 -1.2683
  374MOL0     H50487  10.780   1.547   7.091 -1.2739 -0.7253  1.9610
  374MOL0     H50488  11.010   1.654   7.027  0.5012  0.4680  0.5291
  374MOL0     H50489  11.144   1.529   7.031  0.0831  0.7441 -0.1564
  374MOL0     H50490  11.073   1.595   6.883 -0.2278  2.6094  0.2667
  375MOL0     O50491   8.192   4.648  10.179 -1.0440 -0.0931  0.3205
  375MOL0     C50492   8.068   4.648  10.179 -0.0582 -1.0870  0.8204
  375MOL0     O50493   7.987   4.659  10.069  0.1338  0.5444  0.3083
  375MOL0     C50494   8.038   4.645   9.948  0.0908 -0.4723 -0.0231
  375MOL0     C50495   8.160   4.682   9.902 -0.0063  0.0952  0.4334
  375MOL0     C50496   8.184   4.675   9.765  0.5062 -0.2506  0.9205
  375MOL0     C50497   8.085   4.635   9.670 -0.0836 -0.1959 -0.1389
  375MOL0     O50498   8.095   4.633   9.539  0.6821 -0.8042  0.5426
  375MOL0     C50499   8.207   4.687   9.471  0.3879  0.6909 -0.1837
  375MOL0     C50500   8.312   4.585   9.458 -0.5610  0.1677 -0.5014
  375MOL0     C50501   8.451   4.651   9.426  0.7726  0.1182  0.6341
  375MOL0     C50502   8.456   4.730   9.295  0.0972 -0.4590 -0.2111
  375MOL0     C50503   8.597   4.739   9.226 -0.0978 -0.2602 -0.1324
  375MOL0     C50504   8.699   4.811   9.319 -0.3470  0.5569 -0.0310
  375MOL0     C50505   8.827   4.832   9.244  0.5079  0.2914 -0.3209
  375MOL0     C50506   8.946   4.829   9.343  0.4208 -0.1257 -0.5100
  375MOL0     N50507   9.070   4.827   9.278  0.6455 -0.3363 -0.3958
  375MOL0     C50508   9.122   4.927   9.200  0.0745  0.5918  1.1786
  375MOL0     C50509   9.253   4.892   9.162  0.2490 -0.2148 -0.7296
  375MOL0     C50510   9.353   4.974   9.084 -0.1714 -0.2170  0.1328
  375MOL0     C50511   9.325   5.008   8.940 -0.4240 -0.6898  0.3846
  375MOL0     C50512   9.451   5.072   8.870 -0.4373  0.6377 -0.6007
  375MOL0     C50513   9.547   4.961   8.825  0.4852 -1.1195  0.4618
  375MOL0     O50514   9.691   4.996   8.806  0.4418  0.1165 -0.1930
  375MOL0     C50515   9.786   4.947   8.891  0.6325 -0.6804 -0.3027
  375MOL0     C50516   9.911   5.013   8.867  0.6722  0.4633  0.1986
  375MOL0     C50517  10.022   4.993   8.943 -0.2646 -0.0256 -0.3632
  375MOL0     C50518  10.013   4.895   9.047  0.1060  0.0704 -0.1211
  375MOL0     C50519  10.134   4.867   9.125  0.5871 -0.0175 -0.3033
  375MOL0     O50520  10.249   4.925   9.075 -1.0416 -0.6440 -0.2969
  375MOL0     C50521  10.371   4.878   9.123 -0.0883 -0.4604 -0.1866
  375MOL0     C50522  10.483   4.966   9.122 -0.2102 -0.0398 -0.8557
  375MOL0     C50523  10.609   4.924   9.174  0.3803  0.3697 -0.0162
  375MOL0     C50524  10.632   4.790   9.207  0.7452 -0.0108  0.2438
  375MOL0     O50525  10.751   4.728   9.230 -0.7066 -0.0641 -0.2573
  375MOL0     C50526  10.859   4.811   9.276 -0.4155 -0.2342  0.5034
  375MOL0     C50527  10.973   4.716   9.296  0.3902  0.2905 -0.1881
  375MOL0     C50528  11.083   4.771   9.389 -0.2278  0.5791 -0.4396
  375MOL0     C50529  11.180   4.663   9.414  0.0062 -0.0852  0.2438
  375MOL0     C50530  11.265   4.698   9.537 -1.2899  1.1160  0.2193
  375MOL0     C50531  11.370   4.581   9.575  0.9473  0.5466  0.0561
  375MOL0     C50532  11.453   4.607   9.705  0.5939 -0.4883 -0.3332
  375MOL0     C50533  11.380   4.557   9.830 -0.0978  0.3404  0.0573
  375MOL0    Cl50534  11.405   4.382   9.859 -0.3322  0.0765 -0.5829
  375MOL0     C50535  10.522   4.708   9.205 -0.8601 -0.5687  0.3389
  375MOL0     C50536  10.401   4.748   9.168  1.3687  0.1082 -0.0565
  375MOL0     O50537  10.121   4.804   9.231  0.3201  0.5819  0.3029
  375MOL0     C50538   9.890   4.834   9.076  0.6181  0.5181  0.4840
  375MOL0     C50539   9.778   4.860   8.994  0.4854  0.5357 -0.0910
  375MOL0     N50540   9.279   4.773   9.229  0.2821 -0.2781 -0.3728
  375MOL0     N50541   9.177   4.745   9.314  0.0754 -0.2026  0.1586
  375MOL0     C50542   7.966   4.584   9.724  0.4320 -0.2895 -0.4502
  375MOL0     C50543   7.944   4.584   9.863  1.0506  0.3016 -1.0133
  375MOL0     C50544   7.979   4.647  10.301  0.1197 -0.0159  0.5979
  375MOL0     C50545   8.011   4.738  10.403  0.0363  0.3331 -0.9174
  375MOL0     C50546   7.930   4.738  10.517  0.6206 -0.5815 -0.7353
  375MOL0     C50547   7.812   4.655  10.529  0.5413 -0.3156  0.1714
  375MOL0     O50548   7.721   4.659  10.633  0.5764  0.0525 -0.1873
  375MOL0     C50549   7.723   4.768  10.721  0.7264 -0.3123  0.0521
  375MOL0     C50550   7.600   4.771  10.814 -0.4024 -0.6788  0.1062
  375MOL0     C50551   7.552   4.640  10.865  0.2825  0.1811 -0.2351
  375MOL0     C50552   7.449   4.650  10.974  0.9084  0.5409  0.9029
  375MOL0     C50553   7.319   4.692  10.906 -0.3499  0.3552 -0.3182
  375MOL0     C50554   7.218   4.735  10.855 -0.3433 -0.0075 -0.5249
  375MOL0     C50555   7.786   4.569  10.424 -0.0101  0.2774 -0.0042
  375MOL0     C50556   7.877   4.553  10.316  0.2349  0.4252 -0.6625
  375MOL0     C50557   7.839   4.469  10.205  0.2945  0.1760  0.5969
  375MOL0     H50558   8.237   4.713   9.972  0.8583  0.8555 -0.8161
  375MOL0     H50559   8.286   4.696   9.732 -0.0274 -0.7986 -1.1689
  375MOL0     H50560   8.174   4.728   9.375 -2.4173  3.1651  1.6387
  375MOL0     H50561   8.246   4.775   9.523 -0.1810  2.5301 -2.6656
  375MOL0     H50562   8.288   4.506   9.386 -0.1202 -1.0533  0.6366
  375MOL0     H50563   8.321   4.541   9.558  3.9753  1.2082 -0.2345
  375MOL0     H50564   8.528   4.575   9.407  1.8901  0.1978  4.1623
  375MOL0     H50565   8.487   4.718   9.505 -0.6912  1.7716 -0.0423
  375MOL0     H50566   8.383   4.685   9.227 -0.6797 -1.5043  1.2815
  375MOL0     H50567   8.425   4.833   9.314  2.8254  0.7700 -1.7531
  375MOL0     H50568   8.634   4.640   9.197  1.7911  0.1206  0.8700
  375MOL0     H50569   8.594   4.793   9.131  2.1737 -0.9240 -0.6230
  375MOL0     H50570   8.645   4.900   9.353 -1.1781 -0.6170  1.9830
  375MOL0     H50571   8.717   4.742   9.402 -1.2460 -0.0637 -0.3282
  375MOL0     H50572   8.820   4.930   9.196 -1.1641 -0.1571 -1.0495
  375MOL0     H50573   8.831   4.756   9.166  1.7500  0.1036 -0.1003
  375MOL0     H50574   8.938   4.917   9.407  0.3817  0.0825 -0.7972
  375MOL0     H50575   8.932   4.746   9.413  0.3738  1.4360  1.4075
  375MOL0     H50576   9.072   5.016   9.165  0.1206  0.5306  0.9556
  375MOL0     H50577   9.361   5.068   9.140  2.0076 -0.5792  0.5218
  375MOL0     H50578   9.452   4.927   9.087 -0.2595 -0.4378 -0.3335
  375MOL0     H50579   9.297   4.917   8.886 -1.2861  1.0969 -2.3730
  375MOL0     H50580   9.241   5.077   8.934 -1.2909 -1.8174 -1.7467
  375MOL0     H50581   9.505   5.133   8.943  0.8919  1.2710 -2.0569
  375MOL0     H50582   9.417   5.125   8.781 -1.9361  0.5324 -0.1041
  375MOL0     H50583   9.508   4.930   8.728 -1.4071  0.6656  0.5747
  375MOL0     H50584   9.536   4.877   8.895 -0.7287 -3.4134 -2.2857
  375MOL0     H50585   9.921   5.082   8.784  0.3940  0.9953  0.5966
  375MOL0     H50586  10.113   5.043   8.910  0.5726 -1.7986 -0.8385
  375MOL0     H50587  10.462   5.067   9.090 -0.5238  0.1315 -0.1304
  375MOL0     H50588  10.691   4.995   9.165  0.5690  0.3051  1.0702
  375MOL0     H50589  10.887   4.871   9.189 -1.6779 -2.6446 -1.7164
  375MOL0     H50590  10.835   4.871   9.364  1.8073  0.8765  0.4305
  375MOL0     H50591  10.933   4.629   9.348  0.3424 -0.8104 -1.9751
  375MOL0     H50592  11.009   4.678   9.200 -0.4846  1.9823 -1.2256
  375MOL0     H50593  11.120   4.858   9.334 -2.4973  0.3891 -2.4372
  375MOL0     H50594  11.039   4.806   9.483  0.5395 -2.6971  1.2717
  375MOL0     H50595  11.246   4.655   9.328  2.2653 -0.3150  1.9193
  375MOL0     H50596  11.130   4.567   9.430 -0.3596  0.1315  0.4422
  375MOL0     H50597  11.205   4.718   9.626  0.9287  1.7058  1.6749
  375MOL0     H50598  11.320   4.792   9.519  1.4134 -0.6523 -1.5637
  375MOL0     H50599  11.328   4.480   9.583  2.7481 -0.2613 -0.2448
  375MOL0     H50600  11.437   4.578   9.489 -2.1286 -1.7800 -2.5162
  375MOL0     H50601  11.464   4.715   9.715  0.3136 -0.4107 -0.8573
  375MOL0     H50602  11.556   4.571   9.708  1.1695  1.1228 -0.1835
  375MOL0     H50603  11.422   4.612   9.915  1.1252 -0.3978 -0.0513
  375MOL0     H50604  11.276   4.586   9.814 -0.2112 -1.2019 -2.6980
  375MOL0     H50605  10.529   4.604   9.238 -2.4161 -0.3203  1.6202
  375MOL0     H50606  10.312   4.686   9.172  0.5360  1.2761  0.2729
  375MOL0     H50607   9.886   4.769   9.162 -0.6581 -0.3607 -0.1937
  375MOL0     H50608   9.690   4.807   9.030  0.7458 -0.0928 -0.3705
  375MOL0     H50609   7.892   4.539   9.658  3.2736 -4.5390 -1.1799
  375MOL0     H50610   7.849   4.562   9.911  1.3022  1.0591 -0.1296
  375MOL0     H50611   8.101   4.799  10.398  1.2737 -1.4963 -1.7050
  375MOL0     H50612   7.939   4.805  10.602 -1.8743 -0.7392 -0.2460
  375MOL0     H50613   7.725   4.865  10.669 -0.6020 -0.8880 -1.1473
  375MOL0     H50614   7.812   4.767  10.784 -0.9554 -1.9269  2.5799
  375MOL0     H50615   7.524   4.826  10.758  0.9718  1.0707 -0.1478
  375MOL0     H50616   7.629   4.829  10.902 -0.2161 -0.4209 -0.1220
  375MOL0     H50617   7.640   4.592  10.908 -0.6746  0.1696  1.8128
  375MOL0     H50618   7.518   4.577  10.783 -0.7732  0.2123  0.1638
  375MOL0     H50619   7.438   4.558  11.032 -2.8828  0.2419  0.0118
  375MOL0     H50620   7.484   4.727  11.042  0.3595  1.8232 -0.2062
  375MOL0     H50621   7.122   4.769  10.822  0.4699  3.9318  0.6502
  375MOL0     H50622   7.692   4.515  10.426  0.6899 -0.9706  1.1653
  375MOL0     H50623   7.927   4.440  10.146 -0.8402 -0.3704 -0.9214
  375MOL0     H50624   7.786   4.378  10.237 -0.8846 -0.3473 -2.4353
  375MOL0     H50625   7.769   4.519  10.136  2.8795 -0.1360 -2.4643
  376MOL0     O50626   9.099   1.527  10.127  0.2361  0.6670 -0.0479
  376MOL0     C50627   9.078   1.412  10.142 -0.2142  0.4254 -1.0360
  376MOL0     O50628   9.134   1.318  10.055 -0.4536 -0.1058  0.1436
  376MOL0     C50629   9.221   1.364   9.957  0.1153  0.7485 -0.3845
  376MOL0     C50630   9.347   1.411   9.981 -0.0840 -0.5368 -0.4402
  376MOL0     C50631   9.430   1.466   9.885 -0.0780  0.6720  0.5919
  376MOL0     C50632   9.389   1.453   9.749  0.0674 -0.0978 -0.9761
  376MOL0     O50633   9.475   1.509   9.651  0.3291  0.1320 -0.4753
  376MOL0     C50634   9.435   1.512   9.512  0.5738 -0.2531  0.7055
  376MOL0     C50635   9.493   1.630   9.439  0.6048 -0.2754  0.0587
  376MOL0     C50636   9.649   1.609   9.423  0.7955 -0.3400  0.2808
  376MOL0     C50637   9.701   1.577   9.287  0.1429 -0.2399  0.9875
  376MOL0     C50638   9.859   1.575   9.279  0.3952 -0.3974 -0.3073
  376MOL0     C50639   9.923   1.494   9.390 -0.0064  1.1175 -0.2180
  376MOL0     C50640  10.068   1.455   9.375 -0.5009 -0.0597 -0.2348
  376MOL0     C50641  10.166   1.566   9.411  0.3087 -0.1438  0.3517
  376MOL0     N50642  10.303   1.521   9.425  0.3901  0.3691  0.3867
  376MOL0     C50643  10.348   1.426   9.511 -0.4770 -0.1549  0.2135
  376MOL0     C50644  10.483   1.408   9.473 -0.3628 -0.6838  0.5656
  376MOL0     C50645  10.580   1.313   9.538 -0.1362 -0.5932  0.2751
  376MOL0     C50646  10.725   1.353   9.552  0.1715 -0.0703  1.8171
  376MOL0     C50647  10.795   1.221   9.592 -0.8575  0.5845  1.0668
  376MOL0     C50648  10.937   1.252   9.620  0.2576 -1.0114  0.0168
  376MOL0     O50649  10.982   1.159   9.716  0.1266  0.4166  0.2921
  376MOL0     C50650  11.118   1.175   9.758  0.6566 -0.4118  0.3147
  376MOL0     C50651  11.209   1.272   9.696 -0.5924  0.2317  0.8487
  376MOL0     C50652  11.336   1.285   9.752 -0.1267  0.6114  0.6268
  376MOL0     C50653  11.384   1.194   9.848  0.1329  0.9655 -0.1215
  376MOL0     C50654  11.522   1.209   9.886 -0.0066 -0.2131  0.1014
  376MOL0     O50655  11.599   1.255   9.787  0.1265 -0.2111 -0.2084
  376MOL0     C50656  11.732   1.243   9.802  0.4473 -1.0893  0.1204
  376MOL0     C50657  11.790   1.353   9.862 -1.2060  0.0295 -0.0380
  376MOL0     C50658  11.927   1.360   9.863 -0.1075  0.3788 -0.1082
  376MOL0     C50659  12.009   1.258   9.813 -0.4085  0.3433  0.3629
  376MOL0     O50660  12.139   1.281   9.825 -0.5245 -0.5200  0.0562
  376MOL0     C50661  12.232   1.204   9.748  0.4907 -0.1385 -0.5279
  376MOL0     C50662  12.374   1.251   9.770  0.3340  0.1219  0.2412
  376MOL0     C50663  12.477   1.190   9.676 -0.0068  0.0088 -0.0496
  376MOL0     C50664  12.615   1.241   9.708  0.8551  0.3822 -1.0543
  376MOL0     C50665  12.724   1.171   9.627 -0.2070 -0.5627  0.0340
  376MOL0     C50666  12.856   1.183   9.695  0.0903  0.5836  0.3149
  376MOL0     C50667  12.946   1.297   9.639  0.0157 -0.7066  0.2418
  376MOL0     C50668  13.069   1.309   9.732  0.3819 -0.3568  0.4999
  376MOL0    Cl50669  13.186   1.175   9.694  0.5444 -0.1190  0.0617
  376MOL0     C50670  11.947   1.149   9.746  0.1190 -0.5581  1.1683
  376MOL0     C50671  11.801   1.143   9.736  0.1336  0.1090  0.2429
  376MOL0     O50672  11.561   1.165   9.994  0.1784 -0.0345 -0.5300
  376MOL0     C50673  11.303   1.097   9.898  0.9935 -0.5927 -0.0667
  376MOL0     C50674  11.163   1.095   9.869 -0.1261 -0.2749  0.3192
  376MOL0     N50675  10.512   1.488   9.359  1.1484 -0.2207  0.2640
  376MOL0     N50676  10.405   1.560   9.335 -0.0664  0.8720 -0.2674
  376MOL0     C50677   9.270   1.384   9.726  0.1598  0.4831  0.4929
  376MOL0     C50678   9.182   1.340   9.826 -1.2058  0.0214 -0.5785
  376MOL0     C50679   8.966   1.365  10.234 -0.1951 -0.1956  0.0732
  376MOL0     C50680   8.892   1.249  10.201  0.6693 -0.6385  0.2566
  376MOL0     C50681   8.789   1.203  10.282  0.0161 -0.9445  0.6772
  376MOL0     C50682   8.754   1.274  10.398 -0.1652  0.0394  0.5391
  376MOL0     O50683   8.641   1.246  10.468 -0.4699  0.5682 -0.4324
  376MOL0     C50684   8.575   1.119  10.446  0.4948 -1.1293 -0.1466
  376MOL0     C50685   8.638   0.988  10.490 -0.4719 -0.8421 -0.0282
  376MOL0     C50686   8.685   1.003  10.637 -0.2034  0.2435 -0.1210
  376MOL0     C50687   8.689   0.870  10.717 -0.2093 -0.7415  0.1537
  376MOL0     C50688   8.784   0.776  10.655 -0.1442 -0.3492 -0.1491
  376MOL0     C50689   8.850   0.699  10.598 -0.5585  1.2684  0.3896
  376MOL0     C50690   8.818   1.391  10.428  0.5184  0.6508 -0.0758
  376MOL0     C50691   8.926   1.437  10.351  0.1456 -0.2041 -0.6652
  376MOL0     C50692   9.000   1.568  10.404  0.6411  0.0163 -0.5870
  376MOL0     H50693   9.379   1.410  10.084 -1.2072 -1.7124 -0.0696
  376MOL0     H50694   9.521   1.517   9.913 -1.6215  3.3423  1.1181
  376MOL0     H50695   9.464   1.420   9.460 -0.8321 -0.0936 -0.4235
  376MOL0     H50696   9.326   1.516   9.508  0.3815 -2.8728  1.3435
  376MOL0     H50697   9.479   1.722   9.496  0.3346  0.3360 -0.9713
  376MOL0     H50698   9.450   1.647   9.340 -0.7028  0.3720  0.7245
  376MOL0     H50699   9.684   1.536   9.497  4.0317 -0.1800 -0.8989
  376MOL0     H50700   9.694   1.705   9.449  0.3183 -0.1422  0.3796
  376MOL0     H50701   9.665   1.476   9.263 -0.4404  0.1776  0.0422
  376MOL0     H50702   9.672   1.653   9.214  2.2221 -1.4580 -1.2562
  376MOL0     H50703   9.891   1.537   9.181 -0.0879 -0.7746 -0.3190
  376MOL0     H50704   9.887   1.681   9.282 -1.9538  0.3381 -1.3435
  376MOL0     H50705   9.896   1.551   9.479 -1.6105 -0.0038  0.0565
  376MOL0     H50706   9.876   1.395   9.386 -0.1881  1.1813  0.3386
  376MOL0     H50707  10.088   1.411   9.276 -0.3920  0.5718 -0.4950
  376MOL0     H50708  10.084   1.368   9.439 -0.3945  0.3025  0.2356
  376MOL0     H50709  10.155   1.653   9.346 -0.5104  0.4493  1.2522
  376MOL0     H50710  10.142   1.607   9.509 -2.5438 -0.1446 -0.2467
  376MOL0     H50711  10.292   1.378   9.590 -1.6295 -3.9102 -2.6318
  376MOL0     H50712  10.551   1.293   9.642  0.9017  2.3735  1.2599
  376MOL0     H50713  10.577   1.223   9.477 -1.5601 -1.5048  1.6327
  376MOL0     H50714  10.767   1.397   9.461  2.2592 -1.0240  2.2528
  376MOL0     H50715  10.734   1.430   9.630  1.0525  1.2459  0.4721
  376MOL0     H50716  10.784   1.149   9.511 -0.5213  0.9602  0.6820
  376MOL0     H50717  10.741   1.179   9.677 -2.2374  0.6363  0.2480
  376MOL0     H50718  10.949   1.354   9.656  2.8720 -0.5022 -2.0099
  376MOL0     H50719  11.000   1.245   9.530  0.8895 -0.5277  0.4175
  376MOL0     H50720  11.177   1.342   9.620 -1.3228 -0.5661  0.4071
  376MOL0     H50721  11.395   1.369   9.716 -0.6952  0.8286  0.1811
  376MOL0     H50722  11.733   1.433   9.908 -2.0498 -1.2861  1.3054
  376MOL0     H50723  11.983   1.440   9.910 -1.2212 -0.4652  2.9137
  376MOL0     H50724  12.214   1.097   9.760  0.6979 -0.2126 -0.8466
  376MOL0     H50725  12.202   1.224   9.644  1.1650  0.5101 -0.6041
  376MOL0     H50726  12.375   1.358   9.747  1.9069  0.1307  0.2245
  376MOL0     H50727  12.410   1.231   9.871 -1.0247  0.0231  0.7322
  376MOL0     H50728  12.477   1.081   9.677  0.9906 -0.0146 -0.8289
  376MOL0     H50729  12.474   1.222   9.571  0.8796 -0.8728 -0.3612
  376MOL0     H50730  12.636   1.220   9.813 -0.9403  3.6008  0.0658
  376MOL0     H50731  12.618   1.349   9.693 -1.1412  0.5533 -0.4918
  376MOL0     H50732  12.717   1.219   9.529  0.5936  0.8604  0.6514
  376MOL0     H50733  12.692   1.067   9.621 -0.8836 -0.4825  1.7543
  376MOL0     H50734  12.858   1.174   9.804 -1.2694 -1.8455  0.1867
  376MOL0     H50735  12.906   1.091   9.664 -1.5276  0.4483 -2.1283
  376MOL0     H50736  12.897   1.394   9.624 -2.0882 -2.0391 -2.7161
  376MOL0     H50737  12.975   1.276   9.535  0.0300 -1.9001  0.4808
  376MOL0     H50738  13.125   1.402   9.713 -0.0633 -0.3635 -0.9213
  376MOL0     H50739  13.039   1.305   9.837  0.5211 -1.3057  0.5085
  376MOL0     H50740  12.008   1.072   9.698  2.7214  0.0267  3.3093
  376MOL0     H50741  11.765   1.047   9.700 -0.5129  0.7008 -0.7311
  376MOL0     H50742  11.335   1.027   9.975 -4.6300 -3.1585  0.4624
  376MOL0     H50743  11.089   1.029   9.912  0.0775 -1.4982 -1.1335
  376MOL0     H50744   9.236   1.358   9.626  0.4813 -0.4197  0.6101
  376MOL0     H50745   9.083   1.303   9.804 -0.9952  0.0146 -1.5386
  376MOL0     H50746   8.916   1.185  10.117  0.7193 -0.3385  0.0409
  376MOL0     H50747   8.725   1.123  10.244 -2.0049 -0.3136  2.5486
  376MOL0     H50748   8.541   1.113  10.342  1.8829 -1.5154 -0.6041
  376MOL0     H50749   8.481   1.132  10.501  1.3164  0.7070  0.9080
  376MOL0     H50750   8.729   0.972  10.431 -1.2072 -3.3562 -0.5959
  376MOL0     H50751   8.584   0.894  10.482  1.9561 -2.3028 -0.0687
  376MOL0     H50752   8.611   1.064  10.689  0.5301  1.4184 -0.4075
  376MOL0     H50753   8.781   1.054  10.648 -1.6827  3.0437  0.8581
  376MOL0     H50754   8.699   0.897  10.823 -3.5516 -2.6541  1.1330
  376MOL0     H50755   8.589   0.824  10.717 -1.7387  2.3304  0.4860
  376MOL0     H50756   8.910   0.627  10.545 -2.7918  1.3467 -2.4565
  376MOL0     H50757   8.801   1.438  10.524 -0.9201 -0.8180  0.4246
  376MOL0     H50758   8.975   1.653  10.340 -3.2043 -1.5582 -1.4322
  376MOL0     H50759   8.980   1.587  10.510  3.1432 -0.7366  0.0955
  376MOL0     H50760   9.109   1.553  10.411  1.1551  2.1372 -2.8351
  377MOL0     O50761   7.977   4.626   5.820 -0.0177 -0.5283 -0.1987
  377MOL0     C50762   7.938   4.519   5.856  0.5320 -0.5317 -0.2011
  377MOL0     O50763   7.972   4.400   5.805  0.1573 -0.7440 -0.2215
  377MOL0     C50764   8.077   4.390   5.717 -0.7665 -0.5078  0.3863
  377MOL0     C50765   8.052   4.345   5.590 -0.1767  0.2272  0.2116
  377MOL0     C50766   8.166   4.328   5.502  0.2837  0.3527 -0.9243
  377MOL0     C50767   8.298   4.337   5.554  0.0774 -0.0780 -0.0910
  377MOL0     O50768   8.399   4.320   5.466  0.2402  0.1329 -0.2672
  377MOL0     C50769   8.527   4.374   5.493  0.3418 -0.1069  0.3631
  377MOL0     C50770   8.633   4.334   5.381  0.2609  0.8047 -0.5050
  377MOL0     C50771   8.680   4.186   5.390  0.3537  0.1815  0.4502
  377MOL0     C50772   8.786   4.153   5.283 -0.6655  0.2635 -0.4256
  377MOL0     C50773   8.747   4.159   5.135 -0.8051  0.0597 -0.3562
  377MOL0     C50774   8.855   4.121   5.045 -0.0974  0.1947 -0.0048
  377MOL0     C50775   8.793   4.127   4.902 -0.3315  0.1061 -0.2335
  377MOL0     C50776   8.889   4.073   4.795  0.5739 -0.0883 -0.0507
  377MOL0     N50777   8.949   3.947   4.834 -0.0194  0.0959 -0.0766
  377MOL0     C50778   8.886   3.819   4.851 -0.3857  0.1843  0.6179
  377MOL0     C50779   8.990   3.734   4.875 -0.3139 -0.1111 -0.0358
  377MOL0     C50780   8.968   3.592   4.925  0.2439 -0.2982 -0.1889
  377MOL0     C50781   9.083   3.510   4.867 -0.5828 -0.2371 -0.5064
  377MOL0     C50782   9.072   3.359   4.845 -0.3271 -0.5873 -0.4460
  377MOL0     C50783   8.946   3.324   4.765  0.1680  0.2415  0.6685
  377MOL0     O50784   8.939   3.186   4.732  0.3959  0.4652 -0.0320
  377MOL0     C50785   8.828   3.134   4.681  0.1447  0.3795 -0.4212
  377MOL0     C50786   8.832   3.000   4.647 -0.6805 -0.1328  0.3427
  377MOL0     C50787   8.727   2.940   4.591 -0.0070 -0.7657  0.0664
  377MOL0     C50788   8.609   3.010   4.572  0.1006  0.6509  0.1277
  377MOL0     C50789   8.485   2.936   4.518 -0.0197 -0.4696  0.0644
  377MOL0     O50790   8.366   3.003   4.497  0.2397  0.4347  0.2207
  377MOL0     C50791   8.265   2.943   4.432  0.3081  0.4744  0.6310
  377MOL0     C50792   8.273   2.848   4.326 -0.5088  0.1209 -0.4894
  377MOL0     C50793   8.162   2.809   4.247  0.2658 -0.9915  0.5170
  377MOL0     C50794   8.044   2.876   4.266 -0.1163  0.0228 -0.4578
  377MOL0     O50795   7.938   2.831   4.191  1.0642 -0.8738 -0.3450
  377MOL0     C50796   7.809   2.823   4.262 -0.8962  0.6231 -0.0505
  377MOL0     C50797   7.712   2.734   4.188  0.4291  0.7282  0.3191
  377MOL0     C50798   7.637   2.812   4.077 -0.9293 -1.1699 -0.7791
  377MOL0     C50799   7.594   2.719   3.962  0.1807 -0.6438 -0.1810
  377MOL0     C50800   7.520   2.795   3.858  0.5772 -0.2846  0.1068
  377MOL0     C50801   7.379   2.831   3.908  1.0986  0.6077 -0.9451
  377MOL0     C50802   7.275   2.868   3.797  0.2334 -0.6428  0.1477
  377MOL0     C50803   7.321   2.982   3.704  0.6663  0.5445  1.3521
  377MOL0    Cl50804   7.337   3.135   3.794  0.0839 -0.4320 -0.2198
  377MOL0     C50805   8.034   2.972   4.365 -0.3859 -0.5700  0.4985
  377MOL0     C50806   8.144   3.006   4.439  1.0819  0.1622  0.0955
  377MOL0     O50807   8.496   2.816   4.504  0.7665  0.0220 -0.0561
  377MOL0     C50808   8.598   3.139   4.610 -0.4872  0.3890  0.3998
  377MOL0     C50809   8.709   3.204   4.664  0.0700 -0.2093  0.5244
  377MOL0     N50810   9.109   3.806   4.888  0.9276 -0.3798  0.4427
  377MOL0     N50811   9.078   3.931   4.863 -0.1347  0.2457 -0.0746
  377MOL0     C50812   8.317   4.386   5.682 -0.2506  0.4969 -0.7502
  377MOL0     C50813   8.210   4.410   5.764  0.6858  1.1535 -0.0875
  377MOL0     C50814   7.832   4.520   5.961 -0.5117 -0.5581  0.3069
  377MOL0     C50815   7.758   4.637   5.980  0.0521  0.2243  0.4911
  377MOL0     C50816   7.646   4.634   6.068  0.1519  0.3822 -1.3803
  377MOL0     C50817   7.612   4.530   6.155 -0.2853  0.2244  0.4975
  377MOL0     O50818   7.494   4.502   6.211  0.0241  0.2517  0.2154
  377MOL0     C50819   7.385   4.588   6.183  0.8054 -0.2769  0.0899
  377MOL0     C50820   7.267   4.505   6.236 -0.0193  0.5697  0.5747
  377MOL0     C50821   7.143   4.586   6.269  0.5276  0.0422 -0.6465
  377MOL0     C50822   7.038   4.489   6.336 -1.2468 -0.0617  0.1077
  377MOL0     C50823   6.992   4.395   6.228 -0.1418  0.0688  0.5679
  377MOL0     C50824   6.966   4.321   6.133 -0.0407 -0.6085 -0.9008
  377MOL0     C50825   7.701   4.424   6.145  0.4623  0.3278  0.1863
  377MOL0     C50826   7.810   4.417   6.059  0.6048  0.4954 -0.0588
  377MOL0     C50827   7.905   4.300   6.065 -0.4449  0.2905 -0.5750
  377MOL0     H50828   7.947   4.336   5.561  0.6106 -1.9594 -2.3303
  377MOL0     H50829   8.148   4.295   5.401 -3.7617 -1.2342  0.1129
  377MOL0     H50830   8.525   4.483   5.499 -0.1751 -0.0540 -0.5989
  377MOL0     H50831   8.567   4.338   5.588  0.4852 -1.0857 -0.0514
  377MOL0     H50832   8.718   4.398   5.404  1.9243 -1.8310  1.2002
  377MOL0     H50833   8.590   4.362   5.284 -0.0214 -2.1293 -1.3223
  377MOL0     H50834   8.594   4.125   5.362 -0.7972  1.3246  1.3488
  377MOL0     H50835   8.708   4.157   5.492 -0.8094 -1.0976  0.4363
  377MOL0     H50836   8.868   4.218   5.314 -2.4821  1.0772  3.3382
  377MOL0     H50837   8.800   4.046   5.304 -4.4050 -0.2518  0.1834
  377MOL0     H50838   8.659   4.096   5.119 -0.7930  0.1442 -0.7665
  377MOL0     H50839   8.722   4.262   5.107  1.0314  0.7544  0.3974
  377MOL0     H50840   8.938   4.190   5.061  2.1241 -1.5645 -2.9482
  377MOL0     H50841   8.896   4.023   5.070 -0.7053 -0.0371  0.1012
  377MOL0     H50842   8.753   4.227   4.888  0.4489  0.0438 -3.7421
  377MOL0     H50843   8.706   4.060   4.904 -1.5564  1.6247  2.5574
  377MOL0     H50844   8.825   4.067   4.707 -3.6195  6.1707  1.8143
  377MOL0     H50845   8.966   4.151   4.786 -1.6737  2.8594  3.3408
  377MOL0     H50846   8.781   3.791   4.846 -0.3571  0.1569  0.0445
  377MOL0     H50847   8.975   3.585   5.034  0.8748  0.0699 -0.1984
  377MOL0     H50848   8.873   3.549   4.892  1.5289 -2.2484 -1.5638
  377MOL0     H50849   9.112   3.553   4.771 -0.5216 -0.8182 -0.7571
  377MOL0     H50850   9.172   3.520   4.930  1.7506  0.2838 -3.6385
  377MOL0     H50851   9.060   3.302   4.938 -0.4125  0.9411  0.5052
  377MOL0     H50852   9.159   3.324   4.789 -0.7850 -1.5499 -0.5860
  377MOL0     H50853   8.959   3.374   4.668  3.3329 -0.4937  0.6052
  377MOL0     H50854   8.852   3.347   4.816 -1.4198 -1.7787 -1.1126
  377MOL0     H50855   8.924   2.949   4.673 -0.1997  0.4802 -0.1238
  377MOL0     H50856   8.738   2.836   4.565  0.8110 -1.1825  1.8939
  377MOL0     H50857   8.368   2.799   4.306  0.4151  0.6140  2.2431
  377MOL0     H50858   8.160   2.740   4.163  0.1902  2.0433 -2.1857
  377MOL0     H50859   7.839   2.770   4.353 -1.4622  2.5020  1.2715
  377MOL0     H50860   7.768   2.917   4.299 -0.8341  0.9071 -0.6939
  377MOL0     H50861   7.758   2.648   4.139  2.0057  1.4664  0.4541
  377MOL0     H50862   7.631   2.704   4.255  0.9900 -2.3243 -0.2266
  377MOL0     H50863   7.549   2.854   4.128 -0.4475 -0.7876 -0.2550
  377MOL0     H50864   7.703   2.885   4.030 -2.7552  1.2835  0.2481
  377MOL0     H50865   7.532   2.639   4.004  0.6189 -0.0732  1.6613
  377MOL0     H50866   7.689   2.676   3.930 -0.6511 -2.2529 -0.6113
  377MOL0     H50867   7.514   2.726   3.773  0.8355  0.8447 -0.8444
  377MOL0     H50868   7.587   2.878   3.832 -0.8756  1.6655  2.2430
  377MOL0     H50869   7.339   2.742   3.959  3.4739  0.6171  1.1099
  377MOL0     H50870   7.383   2.902   3.991 -2.2768 -0.2865  0.1522
  377MOL0     H50871   7.177   2.894   3.835  0.2346 -3.0378  2.0640
  377MOL0     H50872   7.254   2.782   3.732 -0.9977  0.9935 -1.7317
  377MOL0     H50873   7.422   2.955   3.672  0.0768 -1.5316  1.0966
  377MOL0     H50874   7.254   2.989   3.618 -0.3659 -1.4767  1.9161
  377MOL0     H50875   7.942   3.023   4.389 -0.1156  1.4645 -2.3880
  377MOL0     H50876   8.133   3.083   4.515 -1.2876  0.7034 -0.6913
  377MOL0     H50877   8.498   3.181   4.599 -1.4197 -1.4670  1.2996
  377MOL0     H50878   8.709   3.310   4.689  3.5016 -0.7925  4.0433
  377MOL0     H50879   8.416   4.394   5.724 -1.2643  1.6377  1.6000
  377MOL0     H50880   8.236   4.444   5.864  3.6653  2.3500 -1.1651
  377MOL0     H50881   7.784   4.727   5.925  1.9599 -0.6068 -0.0695
  377MOL0     H50882   7.580   4.720   6.072  1.1500  1.1821 -1.5248
  377MOL0     H50883   7.377   4.615   6.077  4.3498  0.0449 -0.2351
  377MOL0     H50884   7.397   4.678   6.244 -2.1000 -2.0865  3.7132
  377MOL0     H50885   7.302   4.462   6.331  1.1232  0.5457  0.1453
  377MOL0     H50886   7.240   4.420   6.173 -0.3267  1.1551 -0.0850
  377MOL0     H50887   7.110   4.630   6.175  1.9791 -3.2564 -2.9050
  377MOL0     H50888   7.168   4.654   6.351  0.1318 -0.0770 -0.4245
  377MOL0     H50889   7.079   4.427   6.417 -2.9413  0.5433  1.4606
  377MOL0     H50890   6.956   4.545   6.381 -0.8623  0.0472  0.6870
  377MOL0     H50891   6.964   4.261   6.045  0.9219  1.5035 -2.4519
  377MOL0     H50892   7.677   4.342   6.213  1.3914 -0.6772 -0.6663
  377MOL0     H50893   7.887   4.230   5.983 -0.1505 -0.1451 -0.2752
  377MOL0     H50894   8.013   4.318   6.068 -0.1589 -0.5868 -3.1425
  377MOL0     H50895   7.893   4.238   6.155  0.4507  1.8358  0.6723
  378MOL0     O50896   7.775   4.976   5.401  0.5896  0.3326 -0.2704
  378MOL0     C50897   7.713   5.008   5.498  0.1730 -0.0393 -0.8325
  378MOL0     O50898   7.771   5.047   5.617  0.3134 -0.4062  0.0446
  378MOL0     C50899   7.909   5.029   5.633  0.2792 -0.0292  0.3479
  378MOL0     C50900   7.963   4.912   5.686 -0.5370 -1.0275 -0.5045
  378MOL0     C50901   8.108   4.896   5.693 -0.2241 -0.0225 -0.1173
  378MOL0     C50902   8.196   5.000   5.654 -0.0075 -0.3875  0.2648
  378MOL0     O50903   8.337   5.008   5.655  0.2399 -0.1001 -0.5543
  378MOL0     C50904   8.414   4.900   5.728  0.2314  0.1799 -0.7257
  378MOL0     C50905   8.539   4.874   5.648  0.1183  0.7364  0.5326
  378MOL0     C50906   8.648   4.797   5.724  0.0230 -0.2963 -0.8233
  378MOL0     C50907   8.763   4.746   5.633 -0.9829 -0.0167 -0.0739
  378MOL0     C50908   8.863   4.657   5.715  1.6493 -0.8537 -0.1871
  378MOL0     C50909   8.985   4.620   5.638  0.1051 -0.1953  0.0045
  378MOL0     C50910   9.088   4.736   5.624  0.3836 -0.0929 -0.9147
  378MOL0     C50911   9.231   4.687   5.602 -0.4966 -0.1001 -0.9198
  378MOL0     N50912   9.291   4.607   5.715  0.7991  0.6473 -0.0567
  378MOL0     C50913   9.353   4.638   5.835 -0.5325 -0.3680  1.9139
  378MOL0     C50914   9.411   4.519   5.877 -0.3965  0.0174 -1.0299
  378MOL0     C50915   9.487   4.512   6.010  0.0794  0.0457  0.3605
  378MOL0     C50916   9.416   4.477   6.136  0.1777  0.2448  0.3832
  378MOL0     C50917   9.334   4.591   6.175  0.5523 -0.4061  0.0030
  378MOL0     C50918   9.190   4.579   6.119  0.4184 -0.3694 -0.1806
  378MOL0     O50919   9.118   4.479   6.192  0.3861  0.1836  0.0646
  378MOL0     C50920   9.013   4.415   6.138  0.0753 -0.3985 -0.4006
  378MOL0     C50921   8.963   4.315   6.221 -0.2594  0.2888  0.3307
  378MOL0     C50922   8.855   4.229   6.175 -0.4308 -0.7344  0.0735
  378MOL0     C50923   8.788   4.261   6.059  0.1766  0.1277 -0.1593
  378MOL0     C50924   8.670   4.190   6.027 -0.4418  0.4174 -0.3489
  378MOL0     O50925   8.573   4.258   5.959  0.5855  0.5553  0.2569
  378MOL0     C50926   8.462   4.176   5.924  0.0980 -0.8163  0.9953
  378MOL0     C50927   8.343   4.179   6.003 -0.9729  0.0570 -0.2841
  378MOL0     C50928   8.232   4.107   5.957 -0.1362 -0.0380  0.2478
  378MOL0     C50929   8.243   4.039   5.834  0.2444 -0.2055 -0.2367
  378MOL0     O50930   8.127   3.974   5.791 -0.0920 -0.0490  0.7698
  378MOL0     C50931   8.084   4.001   5.658  0.5640 -0.3739  0.5989
  378MOL0     C50932   7.943   3.943   5.658  0.7742  0.0964  0.1888
  378MOL0     C50933   7.861   3.985   5.778 -0.9860 -0.5929  0.4095
  378MOL0     C50934   7.713   3.966   5.765  0.5375 -0.2759  1.4517
  378MOL0     C50935   7.648   4.020   5.892  0.3035  0.0439 -0.3371
  378MOL0     C50936   7.513   4.088   5.869 -0.2847  0.8970 -0.5849
  378MOL0     C50937   7.449   4.133   6.003 -0.1352  0.1458 -0.1593
  378MOL0     C50938   7.321   4.222   5.982 -0.2194 -0.1270  0.5863
  378MOL0    Cl50939   7.387   4.385   5.933 -0.0574 -0.4701  0.4358
  378MOL0     C50940   8.356   4.038   5.753 -0.4093  0.2965 -0.2451
  378MOL0     C50941   8.464   4.113   5.797 -0.6320  0.2065  0.2531
  378MOL0     O50942   8.655   4.073   6.072 -0.7362 -0.4990  0.1477
  378MOL0     C50943   8.838   4.373   5.978  0.9305  0.8096  0.5806
  378MOL0     C50944   8.956   4.437   6.018 -0.3027 -0.1657 -0.9897
  378MOL0     N50945   9.386   4.425   5.785 -0.5622 -0.1953  0.1613
  378MOL0     N50946   9.317   4.478   5.697  1.0986  0.6813  0.1587
  378MOL0     C50947   8.132   5.125   5.615 -0.8444  0.0839 -0.0916
  378MOL0     C50948   7.995   5.140   5.602  0.4424  0.3002  0.1643
  378MOL0     C50949   7.567   5.018   5.511  0.3619 -0.0396  0.6865
  378MOL0     C50950   7.508   5.032   5.638 -0.6203 -0.9129  0.9969
  378MOL0     C50951   7.372   5.040   5.649 -0.2715  0.0153  0.5579
  378MOL0     C50952   7.283   5.040   5.539 -0.7027 -0.0483  0.1461
  378MOL0     O50953   7.149   5.069   5.554  0.2217 -0.2880  0.2473
  378MOL0     C50954   7.069   5.094   5.447  0.0533  1.2845  0.3572
  378MOL0     C50955   6.941   5.168   5.483  0.0711 -0.2910  0.0997
  378MOL0     C50956   6.871   5.210   5.353  0.0892 -0.2660  0.1296
  378MOL0     C50957   6.751   5.306   5.379  0.4461  0.3116 -0.4281
  378MOL0     C50958   6.625   5.243   5.411 -0.4532  0.1404 -0.6380
  378MOL0     C50959   6.520   5.206   5.455  0.4559 -0.4863 -0.0792
  378MOL0     C50960   7.343   5.022   5.415  0.5207  0.2064  0.8198
  378MOL0     C50961   7.478   5.002   5.399  0.3619 -0.1682  0.2840
  378MOL0     C50962   7.517   4.979   5.261 -0.3205  0.3220  0.8452
  378MOL0     H50963   7.894   4.834   5.718 -1.0323 -0.8927 -1.2121
  378MOL0     H50964   8.133   4.798   5.732 -2.0185 -0.4400  0.0707
  378MOL0     H50965   8.434   4.938   5.828 -0.4250 -1.9479  0.2569
  378MOL0     H50966   8.364   4.805   5.745  0.3783  0.6088  2.6173
  378MOL0     H50967   8.588   4.963   5.607 -0.4784  0.7180 -0.2315
  378MOL0     H50968   8.509   4.819   5.558  0.6461  2.2558 -0.6019
  378MOL0     H50969   8.593   4.722   5.781 -2.0748  1.4326 -0.3997
  378MOL0     H50970   8.688   4.867   5.798 -1.1181  1.0008 -1.3691
  378MOL0     H50971   8.706   4.690   5.558  0.5742  0.0859 -1.3851
  378MOL0     H50972   8.802   4.839   5.592 -0.3033 -0.6015 -0.7705
  378MOL0     H50973   8.887   4.710   5.807  1.6109  0.6077 -0.9850
  378MOL0     H50974   8.814   4.567   5.754 -1.4782  0.3637 -1.0177
  378MOL0     H50975   9.030   4.539   5.696 -1.0258 -1.5132 -0.8932
  378MOL0     H50976   8.957   4.574   5.544  2.4784 -0.0719 -0.8278
  378MOL0     H50977   9.093   4.797   5.714  2.3762  0.5839 -1.4240
  378MOL0     H50978   9.062   4.808   5.546 -1.4544 -0.6402 -0.8506
  378MOL0     H50979   9.232   4.624   5.512  0.5796  0.2389 -1.1580
  378MOL0     H50980   9.291   4.776   5.581 -0.1996 -0.4013 -1.3710
  378MOL0     H50981   9.352   4.733   5.887  0.5375  2.4027 -2.6183
  378MOL0     H50982   9.559   4.432   5.992  1.3502  1.3997 -0.7999
  378MOL0     H50983   9.544   4.605   6.018 -0.2724  0.3717 -0.7362
  378MOL0     H50984   9.353   4.389   6.125 -0.9128  1.2062 -1.6052
  378MOL0     H50985   9.494   4.461   6.210 -1.0092  1.2487  1.9284
  378MOL0     H50986   9.379   4.689   6.153  0.2058  0.0956  1.4706
  378MOL0     H50987   9.321   4.603   6.283  1.7206  2.8544 -0.0897
  378MOL0     H50988   9.193   4.560   6.012 -0.1997  1.9024 -0.6538
  378MOL0     H50989   9.136   4.672   6.136  0.6162 -0.3544  0.4271
  378MOL0     H50990   9.011   4.306   6.318 -0.8677 -0.9670  0.5399
  378MOL0     H50991   8.811   4.158   6.244 -2.0678  1.2251  1.1616
  378MOL0     H50992   8.343   4.233   6.098  1.5991  0.9222 -0.7070
  378MOL0     H50993   8.138   4.104   6.011  0.3557 -2.7933  1.1086
  378MOL0     H50994   8.084   4.109   5.642 -1.9985 -0.3946  0.0582
  378MOL0     H50995   8.148   3.955   5.582  0.5415 -0.7452  0.8053
  378MOL0     H50996   7.908   3.987   5.564  2.1608 -0.4552 -0.6197
  378MOL0     H50997   7.946   3.834   5.654 -1.0051  0.0485 -0.6102
  378MOL0     H50998   7.896   3.933   5.868 -1.1757 -0.0388  0.8163
  378MOL0     H50999   7.878   4.092   5.793  0.5929 -0.6366 -0.7842
  378MOL0     H51000   7.685   3.862   5.743 -1.6153  0.5885 -0.3224
  378MOL0     H51001   7.683   4.029   5.680  0.7294  0.6855  2.0827
  378MOL0     H51002   7.712   4.099   5.931  0.6560 -0.2274 -0.3609
  378MOL0     H51003   7.638   3.935   5.961  0.7461 -1.3341 -1.9025
  378MOL0     H51004   7.528   4.176   5.806 -0.3475  3.1452  2.3090
  378MOL0     H51005   7.439   4.032   5.812  1.7466 -0.9831 -1.5058
  378MOL0     H51006   7.523   4.187   6.062  0.0020  1.2998 -1.3332
  378MOL0     H51007   7.415   4.036   6.041 -0.8333  0.2550 -0.4798
  378MOL0     H51008   7.253   4.188   5.904 -0.5679  3.0000 -0.6268
  378MOL0     H51009   7.262   4.238   6.073 -1.5755 -0.5531 -0.2003
  378MOL0     H51010   8.361   3.988   5.657 -0.0256 -0.6297  0.2416
  378MOL0     H51011   8.555   4.104   5.739 -1.7177 -1.7165 -1.2823
  378MOL0     H51012   8.779   4.388   5.888  0.0687 -1.3494  0.7237
  378MOL0     H51013   9.002   4.507   5.948  1.6125  0.9094  1.1784
  378MOL0     H51014   8.188   5.213   5.584  1.2645  0.1394  3.3189
  378MOL0     H51015   7.952   5.232   5.564 -0.5968  0.0985  0.8365
  378MOL0     H51016   7.555   5.059   5.732 -3.1145  2.9086  1.3525
  378MOL0     H51017   7.330   5.072   5.744  1.8855 -1.0203  1.9576
  378MOL0     H51018   7.060   4.995   5.400  1.2482  0.9224  0.8312
  378MOL0     H51019   7.129   5.157   5.381  3.6137 -2.6608 -0.6240
  378MOL0     H51020   6.971   5.258   5.538 -1.4035 -0.1463  0.7214
  378MOL0     H51021   6.878   5.106   5.548  0.7950 -1.1429  0.0004
  378MOL0     H51022   6.842   5.113   5.312 -1.6025  0.5653 -0.7075
  378MOL0     H51023   6.936   5.263   5.283 -3.1600  0.4248 -2.5740
  378MOL0     H51024   6.771   5.362   5.471  1.9255 -1.3828  0.3491
  378MOL0     H51025   6.736   5.375   5.296  1.1288  0.9717 -0.0166
  378MOL0     H51026   6.424   5.174   5.493  1.3540 -0.7439  2.1284
  378MOL0     H51027   7.276   5.023   5.330 -0.3107 -1.3866  1.4181
  378MOL0     H51028   7.570   4.885   5.248 -1.1709  0.2161 -2.7222
  378MOL0     H51029   7.433   4.969   5.192  0.7570  1.1388 -0.6426
  378MOL0     H51030   7.579   5.060   5.221 -0.2167 -1.0713 -2.0318
  379MOL0     O51031   9.496   6.622   6.056  0.3990 -0.4531 -0.0249
  379MOL0     C51032   9.465   6.718   5.987 -0.3988 -0.0683 -0.9018
  379MOL0     O51033   9.542   6.778   5.889 -0.2316 -0.0430 -0.1980
  379MOL0     C51034   9.665   6.718   5.868 -0.5137  0.3595  1.2021
  379MOL0     C51035   9.677   6.589   5.813  0.5213 -0.5787  0.0687
  379MOL0     C51036   9.803   6.540   5.776 -0.4899  0.5280  0.2133
  379MOL0     C51037   9.921   6.605   5.798  1.0762  0.0608 -0.0378
  379MOL0     O51038  10.033   6.541   5.752 -0.1395 -0.1633  0.2446
  379MOL0     C51039  10.156   6.597   5.798 -0.9472  0.3692 -0.6376
  379MOL0     C51040  10.268   6.528   5.717 -0.5431  0.2912 -0.0125
  379MOL0     C51041  10.412   6.578   5.754 -0.2395  0.1323 -0.2202
  379MOL0     C51042  10.517   6.517   5.659 -0.5400  0.8508 -0.0056
  379MOL0     C51043  10.656   6.574   5.687  0.2953  0.4231  0.3852
  379MOL0     C51044  10.725   6.519   5.808  0.4623 -0.2414  0.1510
  379MOL0     C51045  10.734   6.365   5.797  0.0415  0.4794  0.8385
  379MOL0     C51046  10.831   6.322   5.687 -0.1899 -0.2739 -0.2349
  379MOL0     N51047  10.846   6.176   5.682 -0.3690  0.3409  0.2895
  379MOL0     C51048  10.968   6.121   5.636  0.2531  0.0424 -0.1320
  379MOL0     C51049  10.944   5.987   5.653  0.4174 -0.1210  0.0753
  379MOL0     C51050  11.035   5.873   5.621  0.5387 -1.0693  0.4769
  379MOL0     C51051  11.163   5.861   5.705  0.2021  0.0913 -0.6108
  379MOL0     C51052  11.277   5.761   5.660 -0.2038 -0.2782 -0.6869
  379MOL0     C51053  11.389   5.781   5.762 -0.0234 -0.4807 -0.1069
  379MOL0     O51054  11.463   5.669   5.792  0.1489 -0.0864 -0.7839
  379MOL0     C51055  11.601   5.681   5.803  0.2561  0.5571 -0.3550
  379MOL0     C51056  11.664   5.563   5.810 -1.1151  0.3436  0.4246
  379MOL0     C51057  11.802   5.540   5.821  0.2276  0.2489 -0.1299
  379MOL0     C51058  11.888   5.645   5.846  0.5704 -0.9325 -0.5681
  379MOL0     C51059  12.032   5.627   5.871 -0.2605  0.2923 -0.6778
  379MOL0     O51060  12.067   5.498   5.897 -0.5162 -1.0145 -1.1194
  379MOL0     C51061  12.195   5.467   5.919 -0.0760  0.2337 -0.3119
  379MOL0     C51062  12.309   5.521   5.850  0.2347 -1.7034 -0.7047
  379MOL0     C51063  12.437   5.470   5.864  0.4636 -0.4641 -0.5268
  379MOL0     C51064  12.457   5.359   5.948 -0.2988  0.3616  0.5655
  379MOL0     O51065  12.590   5.315   5.951 -0.0386 -0.8350 -0.0075
  379MOL0     C51066  12.624   5.215   6.046 -0.1918  0.7545  0.3345
  379MOL0     C51067  12.780   5.212   6.054  0.4531  0.1575  0.3057
  379MOL0     C51068  12.836   5.099   6.135 -1.2124  1.3374  0.6859
  379MOL0     C51069  13.000   5.107   6.144  0.2668 -0.0802  0.3321
  379MOL0     C51070  13.039   4.986   6.230  0.2327 -0.3128  0.1537
  379MOL0     C51071  13.195   4.982   6.259 -0.1621  0.5283 -1.4772
  379MOL0     C51072  13.236   4.903   6.382  0.0179  0.0669  0.1318
  379MOL0     C51073  13.382   4.873   6.393  0.4600  0.2878  0.3691
  379MOL0    Cl51074  13.476   5.021   6.434 -0.1056  0.4910  0.1876
  379MOL0     C51075  12.347   5.304   6.019  0.7889  0.5303  0.0140
  379MOL0     C51076  12.219   5.358   6.004 -0.3169 -0.1756  0.5741
  379MOL0     O51077  12.102   5.724   5.873 -0.3405 -0.5554 -0.1403
  379MOL0     C51078  11.826   5.772   5.837 -0.5940 -0.2787  0.5900
  379MOL0     C51079  11.689   5.791   5.819  0.1858 -0.2935  0.1165
  379MOL0     N51080  10.823   5.972   5.721 -0.0678  0.0424  0.8833
  379MOL0     N51081  10.771   6.083   5.736 -0.0281 -0.3620 -0.0114
  379MOL0     C51082   9.907   6.738   5.851  0.0526 -0.7867 -0.3210
  379MOL0     C51083   9.783   6.788   5.889  0.2866 -0.1353 -0.2295
  379MOL0     C51084   9.313   6.741   5.988 -0.6726  0.0099  0.1318
  379MOL0     C51085   9.234   6.663   6.080  1.3037 -0.1724 -0.3728
  379MOL0     C51086   9.102   6.685   6.099 -0.3163 -0.4913 -0.3894
  379MOL0     C51087   9.036   6.785   6.024  1.3316 -0.0914  0.6653
  379MOL0     O51088   8.902   6.808   6.053 -0.2245  0.2829 -0.0598
  379MOL0     C51089   8.817   6.852   5.951 -0.4627 -0.0902  0.2926
  379MOL0     C51090   8.677   6.854   6.009 -0.7304 -0.1726 -0.1193
  379MOL0     C51091   8.594   6.724   5.974  0.5186  0.0507 -0.0353
  379MOL0     C51092   8.624   6.611   6.086 -0.5427  0.7139 -0.0736
  379MOL0     C51093   8.539   6.498   6.053 -0.2308  0.3230 -0.4408
  379MOL0     C51094   8.474   6.404   6.015 -0.3468  0.6553  0.1985
  379MOL0     C51095   9.115   6.866   5.935  0.1834  0.6937 -0.4221
  379MOL0     C51096   9.251   6.850   5.920 -0.5648  0.6790  1.2139
  379MOL0     C51097   9.327   6.957   5.844 -0.8589  0.6906 -0.3236
  379MOL0     H51098   9.584   6.533   5.806  1.2511 -1.9834  1.0814
  379MOL0     H51099   9.801   6.436   5.746 -1.0376  0.9904 -1.5139
  379MOL0     H51100  10.170   6.706   5.792  0.2522  0.5720  3.0721
  379MOL0     H51101  10.160   6.573   5.905 -0.5063 -0.2890 -0.7994
  379MOL0     H51102  10.259   6.550   5.610 -0.1295  0.2422 -0.0587
  379MOL0     H51103  10.257   6.421   5.734 -0.4281  0.2962  0.0949
  379MOL0     H51104  10.437   6.537   5.853  2.5993 -3.4194 -2.1398
  379MOL0     H51105  10.405   6.687   5.749 -1.8380  0.0994  0.6599
  379MOL0     H51106  10.501   6.410   5.668 -1.7089  0.9295 -0.9266
  379MOL0     H51107  10.497   6.538   5.554 -1.1568 -1.2694 -0.3545
  379MOL0     H51108  10.720   6.553   5.602  1.0426  2.0014  0.5124
  379MOL0     H51109  10.651   6.683   5.677  1.6787  0.4278 -0.3938
  379MOL0     H51110  10.822   6.568   5.823  0.0671  0.3706  0.7391
  379MOL0     H51111  10.670   6.555   5.895 -0.9536  0.7595 -1.1037
  379MOL0     H51112  10.639   6.317   5.771  1.5169 -2.4240  0.4370
  379MOL0     H51113  10.755   6.319   5.894  0.1212 -1.0305  0.1432
  379MOL0     H51114  10.799   6.360   5.590 -1.8734 -2.0667 -0.4444
  379MOL0     H51115  10.926   6.375   5.697 -0.6580  0.4976  0.2014
  379MOL0     H51116  11.053   6.169   5.590  0.7455  0.2985  1.0017
  379MOL0     H51117  10.975   5.781   5.621 -3.8283  1.4154 -2.0258
  379MOL0     H51118  11.055   5.870   5.513 -2.3683  0.3147 -0.2046
  379MOL0     H51119  11.222   5.952   5.695  1.6854 -0.8583 -0.7616
  379MOL0     H51120  11.139   5.838   5.810  4.2714 -4.1711 -0.2606
  379MOL0     H51121  11.320   5.790   5.564 -1.4387 -1.2813 -1.5796
  379MOL0     H51122  11.249   5.655   5.667  0.7733 -0.4565  1.0811
  379MOL0     H51123  11.354   5.830   5.854  0.1057  0.8258 -0.7247
  379MOL0     H51124  11.447   5.864   5.722  1.0597  0.0354  2.3301
  379MOL0     H51125  11.621   5.464   5.797  0.4576 -0.0880 -2.3518
  379MOL0     H51126  11.826   5.434   5.815  1.4642  0.1418  4.0872
  379MOL0     H51127  12.299   5.610   5.790 -0.5987  0.0499  1.8785
  379MOL0     H51128  12.526   5.508   5.815  2.5489  0.5412  3.6141
  379MOL0     H51129  12.578   5.230   6.144 -1.0421 -1.4039  0.3184
  379MOL0     H51130  12.598   5.112   6.019  2.8491 -0.4717  1.7032
  379MOL0     H51131  12.815   5.220   5.951 -2.0662  1.8809 -0.5091
  379MOL0     H51132  12.807   5.307   6.100 -2.2271  2.5506 -2.6428
  379MOL0     H51133  12.789   5.106   6.233 -2.9301 -1.5567  0.1880
  379MOL0     H51134  12.810   5.002   6.093  0.9165 -1.5739  5.2593
  379MOL0     H51135  13.031   5.208   6.171 -0.8176  0.5758 -0.7703
  379MOL0     H51136  13.051   5.094   6.048 -0.3468  1.6609 -0.2812
  379MOL0     H51137  13.016   4.906   6.159 -0.2718 -1.9086  2.0057
  379MOL0     H51138  12.978   4.993   6.321 -0.7939  3.2672 -0.6755
  379MOL0     H51139  13.252   4.944   6.173  3.0288 -1.0190  1.1194
  379MOL0     H51140  13.218   5.088   6.275 -1.9533  0.6390  0.7996
  379MOL0     H51141  13.181   4.810   6.370  0.1934  0.0877 -0.9429
  379MOL0     H51142  13.209   4.955   6.475  2.2489  0.4354  0.6291
  379MOL0     H51143  13.394   4.802   6.475 -2.5373  0.6470  1.2352
  379MOL0     H51144  13.417   4.840   6.295 -1.9374  1.5634 -1.0005
  379MOL0     H51145  12.361   5.217   6.082  2.0263  0.2988 -0.5476
  379MOL0     H51146  12.138   5.321   6.066 -1.2915  1.5426  0.4021
  379MOL0     H51147  11.887   5.862   5.844  0.5200 -0.6133 -2.7427
  379MOL0     H51148  11.645   5.890   5.815  1.1525  0.1077 -2.0435
  379MOL0     H51149   9.998   6.796   5.848 -0.5702  0.1942 -0.8375
  379MOL0     H51150   9.774   6.886   5.935 -0.8986 -0.1010 -0.5138
  379MOL0     H51151   9.275   6.586   6.144  0.3243 -0.0222  0.4716
  379MOL0     H51152   9.050   6.622   6.171  1.1466 -0.2910  0.8913
  379MOL0     H51153   8.832   6.777   5.873 -1.0231  1.9240 -1.8680
  379MOL0     H51154   8.843   6.949   5.908 -1.0159  0.5516  1.3640
  379MOL0     H51155   8.631   6.939   5.959 -3.6185 -1.7031 -0.2471
  379MOL0     H51156   8.670   6.856   6.118 -0.3442 -4.1434  0.1531
  379MOL0     H51157   8.619   6.684   5.875  0.1728 -1.0943  0.3240
  379MOL0     H51158   8.487   6.748   5.976  0.7392  1.0617  0.6438
  379MOL0     H51159   8.724   6.566   6.085 -2.5113 -4.2365  0.4787
  379MOL0     H51160   8.595   6.648   6.185 -1.8018 -0.4362 -0.0001
  379MOL0     H51161   8.407   6.326   5.984  2.9609 -2.0031 -0.9045
  379MOL0     H51162   9.063   6.953   5.895 -2.2744 -0.2407  0.5038
  379MOL0     H51163   9.261   7.036   5.809 -4.0094 -2.2592 -1.5560
  379MOL0     H51164   9.396   6.991   5.922 -2.9595 -1.7708  2.8779
  379MOL0     H51165   9.385   6.910   5.764 -1.6931  0.8771 -1.0371
  380MOL0     O51166   4.736   3.790   7.607 -0.0382  0.5785  0.3345
  380MOL0     C51167   4.752   3.813   7.729  0.2327 -0.1818  0.7078
  380MOL0     O51168   4.813   3.922   7.784  0.5795 -0.3453  0.4113
  380MOL0     C51169   4.948   3.927   7.810  0.3594 -0.2717  0.7147
  380MOL0     C51170   5.001   4.039   7.871  0.1213  0.0547 -0.3755
  380MOL0     C51171   5.138   4.057   7.886  0.2608 -0.1249  0.4544
  380MOL0     C51172   5.232   3.979   7.821  0.0175  0.2831  1.0085
  380MOL0     O51173   5.371   3.989   7.836  0.2679  0.3208  0.6524
  380MOL0     C51174   5.415   4.064   7.955  0.3013 -0.6440  0.7524
  380MOL0     C51175   5.566   4.071   7.956  0.0876  0.4422  0.3490
  380MOL0     C51176   5.616   4.159   7.840 -0.0740 -0.0246  0.0737
  380MOL0     C51177   5.768   4.170   7.835 -0.5410  0.7871 -0.9853
  380MOL0     C51178   5.816   4.272   7.732 -0.0778 -0.5824 -0.4718
  380MOL0     C51179   5.791   4.231   7.588 -0.4479 -0.7660  0.4632
  380MOL0     C51180   5.846   4.349   7.494 -0.6019 -0.3804 -0.3053
  380MOL0     C51181   5.762   4.350   7.359 -0.5534 -0.7770  0.5289
  380MOL0     N51182   5.843   4.294   7.252 -0.0256  0.3163  0.2974
  380MOL0     C51183   5.863   4.162   7.239  0.3794  0.1068  0.3047
  380MOL0     C51184   5.960   4.150   7.150  1.1227 -0.4212  0.0088
  380MOL0     C51185   6.047   4.026   7.121 -0.1971 -0.8857  0.1931
  380MOL0     C51186   6.158   4.051   7.010 -0.3382  0.0719 -0.8274
  380MOL0     C51187   6.301   4.080   7.067  0.9713  0.3310 -0.5823
  380MOL0     C51188   6.410   4.151   6.972 -0.4072  0.1251 -0.3206
  380MOL0     O51189   6.472   4.046   6.892 -0.0745  0.0944  0.2374
  380MOL0     C51190   6.596   4.069   6.833  0.1773  0.2657  0.3315
  380MOL0     C51191   6.668   4.187   6.834 -0.4868 -0.3963 -0.7407
  380MOL0     C51192   6.795   4.190   6.776 -0.1499 -0.1216 -1.1827
  380MOL0     C51193   6.864   4.082   6.725 -0.1609  1.2124 -0.1394
  380MOL0     C51194   6.994   4.103   6.670  0.2929  0.1251 -0.6068
  380MOL0     O51195   7.050   4.004   6.586  0.6401  0.0222 -0.3468
  380MOL0     C51196   7.170   4.023   6.531  0.8988 -0.6535  0.4554
  380MOL0     C51197   7.191   4.097   6.415  0.4784 -0.0777  0.1203
  380MOL0     C51198   7.317   4.112   6.359 -0.6225 -0.5375  0.0129
  380MOL0     C51199   7.421   4.036   6.407 -0.1311 -0.1476  0.1006
  380MOL0     O51200   7.544   4.046   6.331 -0.1338  0.2158  0.1973
  380MOL0     C51201   7.658   3.962   6.373  0.8673 -0.2620 -0.0123
  380MOL0     C51202   7.784   4.002   6.288  0.7600  0.1257  0.0134
  380MOL0     C51203   7.904   3.910   6.322 -0.4573  0.5894 -0.0816
  380MOL0     C51204   8.028   3.941   6.229 -0.6284  0.1832 -0.0719
  380MOL0     C51205   8.147   3.871   6.290 -0.2757 -0.7874 -0.2258
  380MOL0     C51206   8.286   3.905   6.231 -0.4498 -0.3991 -0.2513
  380MOL0     C51207   8.387   3.821   6.313 -0.0901 -0.1463  0.1218
  380MOL0     C51208   8.531   3.859   6.276 -0.3039  0.3416  0.4062
  380MOL0    Cl51209   8.649   3.730   6.309  0.0815 -0.2193 -0.1117
  380MOL0     C51210   7.406   3.966   6.527 -0.5114  0.9234  0.8262
  380MOL0     C51211   7.281   3.962   6.592 -0.5469 -0.3359  0.2596
  380MOL0     O51212   7.047   4.207   6.702 -0.1504 -0.0832 -0.4816
  380MOL0     C51213   6.796   3.962   6.740  0.4145 -0.4324  0.5100
  380MOL0     C51214   6.661   3.955   6.787 -0.2590 -0.2684  0.3634
  380MOL0     N51215   5.992   4.279   7.097  0.3066  0.4912  0.2724
  380MOL0     N51216   5.916   4.362   7.162 -0.5251 -0.6431  0.8937
  380MOL0     C51217   5.180   3.870   7.747  0.4671 -0.1481  0.0030
  380MOL0     C51218   5.039   3.844   7.743  0.1533  0.4724 -0.3198
  380MOL0     C51219   4.699   3.712   7.824 -0.2555  0.5509  0.2059
  380MOL0     C51220   4.645   3.760   7.947 -0.0505 -0.1856 -0.4832
  380MOL0     C51221   4.574   3.676   8.033 -0.7211 -0.0879  0.1208
  380MOL0     C51222   4.569   3.543   8.008 -0.3953 -0.8424 -0.8588
  380MOL0     O51223   4.505   3.461   8.097  0.0870  0.0483  0.2629
  380MOL0     C51224   4.436   3.350   8.025 -0.8871  0.8150 -0.2463
  380MOL0     C51225   4.341   3.274   8.124  0.5880  0.6381 -0.3540
  380MOL0     C51226   4.217   3.354   8.161  0.1343 -0.5658  0.2755
  380MOL0     C51227   4.140   3.277   8.269 -0.0860 -0.8911  0.1373
  380MOL0     C51228   4.081   3.158   8.217  0.3854  0.0629 -0.1625
  380MOL0     C51229   4.032   3.066   8.164 -1.1319  0.6054 -0.0047
  380MOL0     C51230   4.634   3.492   7.901 -0.6603 -0.5084  0.6096
  380MOL0     C51231   4.698   3.571   7.803 -0.0281 -0.8679  0.1834
  380MOL0     C51232   4.776   3.507   7.689 -0.5602  0.0771 -0.1736
  380MOL0     H51233   4.938   4.109   7.926  0.9946 -0.0008  0.7307
  380MOL0     H51234   5.158   4.145   7.945 -0.6996  0.8306 -0.5948
  380MOL0     H51235   5.375   4.165   7.944  1.1164 -0.2626  1.1839
  380MOL0     H51236   5.387   4.019   8.050  2.9974 -2.9510  0.5927
  380MOL0     H51237   5.622   3.978   7.968  1.0778  1.0274  0.3507
  380MOL0     H51238   5.585   4.127   8.049  0.1153  0.8943  0.0760
  380MOL0     H51239   5.581   4.262   7.849  1.7902  0.8122 -1.4978
  380MOL0     H51240   5.574   4.116   7.748  0.9167  0.5581 -0.6589
  380MOL0     H51241   5.800   4.210   7.931  2.1765  3.2087 -2.7545
  380MOL0     H51242   5.817   4.072   7.831  1.4774  1.6380  1.0408
  380MOL0     H51243   5.779   4.371   7.761  0.2610 -0.9012  1.1502
  380MOL0     H51244   5.924   4.283   7.746 -0.4114 -1.2988  4.2770
  380MOL0     H51245   5.843   4.139   7.560 -0.0737 -1.3714  2.8846
  380MOL0     H51246   5.683   4.225   7.571 -0.5905  0.9938  0.5693
  380MOL0     H51247   5.953   4.340   7.474 -0.1834 -0.8297  1.8361
  380MOL0     H51248   5.831   4.441   7.550  1.7186  0.2010 -0.5552
  380MOL0     H51249   5.662   4.307   7.375  0.6044 -3.3398  1.5081
  380MOL0     H51250   5.750   4.456   7.338  0.2359 -0.8369 -0.2733
  380MOL0     H51251   5.824   4.080   7.300  1.2232 -0.1303  0.5345
  380MOL0     H51252   6.086   3.985   7.215  0.0467 -1.6369 -0.2249
  380MOL0     H51253   5.981   3.949   7.081  1.9300 -2.1197 -1.1685
  380MOL0     H51254   6.170   3.966   6.942 -1.9023 -0.1363 -0.8798
  380MOL0     H51255   6.137   4.137   6.945  1.1398  3.3715  2.6633
  380MOL0     H51256   6.333   3.987   7.114  1.1317  1.1887  1.0516
  380MOL0     H51257   6.277   4.150   7.147  0.0280 -1.2444  0.5805
  380MOL0     H51258   6.485   4.198   7.037  2.1863 -1.1169 -2.2239
  380MOL0     H51259   6.364   4.221   6.901 -3.9291 -2.7434 -1.1609
  380MOL0     H51260   6.626   4.278   6.876 -0.4637 -1.8943  2.8901
  380MOL0     H51261   6.845   4.287   6.771 -1.0198  0.2853 -2.3673
  380MOL0     H51262   7.093   4.128   6.382 -1.8208 -4.3942  2.0543
  380MOL0     H51263   7.336   4.171   6.269  0.3890  2.0709  1.8124
  380MOL0     H51264   7.683   3.983   6.477  1.1120 -1.2148  0.1251
  380MOL0     H51265   7.634   3.855   6.372 -0.4816 -0.1501  3.8283
  380MOL0     H51266   7.763   3.987   6.182  2.2049  0.2549 -0.3054
  380MOL0     H51267   7.808   4.107   6.306  1.4599 -0.0978  0.4249
  380MOL0     H51268   7.936   3.920   6.426 -0.8852 -2.6224  0.4619
  380MOL0     H51269   7.877   3.805   6.309 -2.0749  0.9787 -0.1432
  380MOL0     H51270   8.050   4.048   6.225  1.3952 -0.1786 -5.1304
  380MOL0     H51271   8.012   3.919   6.123  0.1846  1.0085 -0.3829
  380MOL0     H51272   8.129   3.765   6.271  0.8643 -0.9708 -0.3581
  380MOL0     H51273   8.145   3.881   6.399 -2.9142  0.8869 -0.3580
  380MOL0     H51274   8.293   3.886   6.123  2.1857 -2.8418  0.2370
  380MOL0     H51275   8.301   4.011   6.255 -2.0868 -0.0466 -0.6616
  380MOL0     H51276   8.362   3.716   6.292  0.0209 -0.4959  1.6180
  380MOL0     H51277   8.379   3.818   6.422 -2.0461 -0.6907  0.0016
  380MOL0     H51278   8.538   3.868   6.167 -1.2669  1.8857  0.4395
  380MOL0     H51279   8.566   3.950   6.325 -0.3851 -0.1511  1.4164
  380MOL0     H51280   7.482   3.907   6.578 -1.7473 -3.2078 -1.5786
  380MOL0     H51281   7.275   3.916   6.690 -0.3759  2.0793  1.4774
  380MOL0     H51282   6.829   3.863   6.708  1.9901  0.2772 -0.1968
  380MOL0     H51283   6.620   3.854   6.787 -1.8849  0.3538 -0.9699
  380MOL0     H51284   5.234   3.803   7.682  0.1918 -0.8827  0.5155
  380MOL0     H51285   5.004   3.758   7.687  0.9391  0.2476 -0.4769
  380MOL0     H51286   4.644   3.867   7.966 -0.2584 -0.6641  2.6775
  380MOL0     H51287   4.540   3.722   8.125  3.1647  1.7005  0.8380
  380MOL0     H51288   4.507   3.274   7.993 -2.0589  0.5046 -2.3051
  380MOL0     H51289   4.393   3.388   7.932 -0.6570  2.1574  0.1695
  380MOL0     H51290   4.397   3.239   8.211  2.0050  0.9172 -1.1337
  380MOL0     H51291   4.306   3.178   8.085 -0.8035  0.7273  0.5871
  380MOL0     H51292   4.149   3.375   8.078  1.3869  0.2503 -0.5711
  380MOL0     H51293   4.246   3.450   8.204  0.6163 -1.0552  1.0648
  380MOL0     H51294   4.193   3.239   8.357 -3.1205 -3.1825  1.1146
  380MOL0     H51295   4.063   3.339   8.315 -0.8818 -1.1382 -0.8445
  380MOL0     H51296   4.001   2.973   8.120  1.3592  0.3561 -1.4226
  380MOL0     H51297   4.645   3.385   7.887 -1.1698 -0.9782  3.1864
  380MOL0     H51298   4.717   3.480   7.602 -0.0640  1.8121 -1.0834
  380MOL0     H51299   4.853   3.575   7.651  0.3477 -0.6354  0.3482
  380MOL0     H51300   4.835   3.426   7.734  1.5919  2.2626  1.2458
  381MOL0     O51301   5.098   9.193   2.387  0.3556 -0.8623  0.0476
  381MOL0     C51302   5.039   9.092   2.411 -0.3729  0.3617 -0.4482
  381MOL0     O51303   5.109   8.968   2.418 -0.2838 -0.6387 -0.2260
  381MOL0     C51304   5.239   8.962   2.369 -0.0768  0.2102  0.2807
  381MOL0     C51305   5.349   9.004   2.442  0.4743 -0.3239 -0.1298
  381MOL0     C51306   5.481   9.000   2.385 -0.7333  0.2071 -0.7347
  381MOL0     C51307   5.498   8.941   2.259 -0.1547  1.4140  0.6817
  381MOL0     O51308   5.616   8.921   2.190  0.8650  0.0743  0.7741
  381MOL0     C51309   5.722   9.011   2.218  0.7520 -1.0315 -0.0194
  381MOL0     C51310   5.805   8.993   2.094 -0.5766  0.8053  0.2020
  381MOL0     C51311   5.952   9.053   2.109  0.1171 -0.3018  0.9090
  381MOL0     C51312   6.033   9.040   1.981 -0.6527  0.1320  0.3723
  381MOL0     C51313   6.171   9.101   1.975 -0.4329 -0.6169  0.6568
  381MOL0     C51314   6.247   9.048   1.854  0.5758 -0.1708 -0.2163
  381MOL0     C51315   6.392   9.099   1.830 -0.6262  0.3174 -0.0344
  381MOL0     C51316   6.492   9.043   1.932 -0.0127  0.5380  0.2731
  381MOL0     N51317   6.621   9.102   1.909  0.3855 -0.2922 -0.1167
  381MOL0     C51318   6.708   9.070   1.813 -0.2381 -0.0126  0.8276
  381MOL0     C51319   6.817   9.138   1.835 -0.3498 -0.3323  0.2413
  381MOL0     C51320   6.953   9.102   1.762  0.0129  0.3032  0.1601
  381MOL0     C51321   7.069   9.123   1.859  0.0384  0.0638  1.0486
  381MOL0     C51322   7.202   9.065   1.809 -0.3605  0.1300  0.2449
  381MOL0     C51323   7.292   9.021   1.921 -0.3284 -0.2449  0.0898
  381MOL0     O51324   7.306   9.125   2.025  0.6374 -0.3617  0.2896
  381MOL0     C51325   7.434   9.133   2.074  0.3311  0.3443 -0.3315
  381MOL0     C51326   7.546   9.163   1.998  0.1170 -0.1715  0.0397
  381MOL0     C51327   7.669   9.154   2.058 -0.6080  0.8074  0.2636
  381MOL0     C51328   7.692   9.135   2.193 -0.7266  0.1916  1.0873
  381MOL0     C51329   7.824   9.131   2.252  0.3083  0.6724  0.2778
  381MOL0     O51330   7.924   9.185   2.191 -0.2231  0.2987 -0.2424
  381MOL0     C51331   8.043   9.211   2.256 -0.4062 -0.4085  0.2515
  381MOL0     C51332   8.157   9.221   2.176 -0.6932 -0.5451  0.0179
  381MOL0     C51333   8.282   9.275   2.226  0.2567 -0.0920 -0.5074
  381MOL0     C51334   8.294   9.303   2.360 -0.3284 -0.2254  0.2397
  381MOL0     O51335   8.413   9.356   2.405 -0.9399  0.0953  0.3020
  381MOL0     C51336   8.450   9.350   2.547  0.3127 -0.5402  0.7529
  381MOL0     C51337   8.600   9.327   2.565 -0.5222 -0.6543 -0.8348
  381MOL0     C51338   8.639   9.179   2.544  0.3152  0.8423 -0.2070
  381MOL0     C51339   8.785   9.158   2.541 -0.3376 -0.3052 -0.1342
  381MOL0     C51340   8.851   9.199   2.679 -0.4065  0.5474 -0.2487
  381MOL0     C51341   9.003   9.183   2.678 -0.7953 -0.1025 -0.0697
  381MOL0     C51342   9.069   9.277   2.575  0.1966  0.9452  0.3192
  381MOL0     C51343   9.224   9.289   2.595 -0.5664 -0.6138 -0.2276
  381MOL0    Cl51344   9.311   9.135   2.527  0.2064 -0.3186 -0.3547
  381MOL0     C51345   8.178   9.287   2.443  0.2522  0.1478  0.4831
  381MOL0     C51346   8.051   9.247   2.394  0.1634 -0.0445 -0.1401
  381MOL0     O51347   7.827   9.088   2.368 -0.3435 -0.3674  0.0524
  381MOL0     C51348   7.580   9.116   2.266  0.0131  0.1616 -0.5219
  381MOL0     C51349   7.455   9.108   2.207  0.2866 -0.3606 -0.3035
  381MOL0     N51350   6.793   9.228   1.938  0.8880 -0.0979  0.1773
  381MOL0     N51351   6.675   9.200   1.981  0.1895 -0.2267  0.5262
  381MOL0     C51352   5.391   8.888   2.189  0.7478  0.0804 -0.1495
  381MOL0     C51353   5.262   8.911   2.236  0.2944  0.1566  0.5195
  381MOL0     C51354   4.888   9.099   2.429  0.0462 -0.9828  0.8875
  381MOL0     C51355   4.814   8.988   2.380 -0.3924 -0.0164  0.2317
  381MOL0     C51356   4.677   9.000   2.361  0.5782  0.4094 -0.8717
  381MOL0     C51357   4.603   9.115   2.393  0.9787 -0.3188 -0.5285
  381MOL0     O51358   4.462   9.122   2.364 -0.2623  0.6447  0.4906
  381MOL0     C51359   4.385   9.223   2.418 -0.1375  0.4914  0.4203
  381MOL0     C51360   4.233   9.213   2.374 -0.8280 -0.1554 -0.2113
  381MOL0     C51361   4.196   9.307   2.254 -0.1691  0.7665 -0.6006
  381MOL0     C51362   4.054   9.276   2.218  0.1517 -0.2043 -0.4160
  381MOL0     C51363   4.001   9.371   2.118 -0.5216  0.3608 -0.3541
  381MOL0     C51364   3.951   9.459   2.045  0.9545  0.4426  0.2519
  381MOL0     C51365   4.671   9.211   2.455 -1.8137 -0.3908 -0.6467
  381MOL0     C51366   4.814   9.215   2.474  0.4587 -0.7117  0.6396
  381MOL0     C51367   4.880   9.339   2.527  0.3082 -0.7858  0.3379
  381MOL0     H51368   5.335   9.038   2.544  0.3929  1.2375 -0.6422
  381MOL0     H51369   5.561   9.042   2.446 -2.0285 -1.7408  2.5984
  381MOL0     H51370   5.702   9.118   2.217  0.3720 -1.0845 -2.0307
  381MOL0     H51371   5.775   8.974   2.307 -2.6932 -3.3613  1.3249
  381MOL0     H51372   5.750   9.026   2.006  1.7661  1.2049 -1.1934
  381MOL0     H51373   5.827   8.886   2.085 -1.1564  0.4863  2.0879
  381MOL0     H51374   6.006   9.013   2.195 -1.0492 -0.8773  1.3977
  381MOL0     H51375   5.950   9.161   2.132  1.2072  0.0870 -0.6670
  381MOL0     H51376   6.064   8.937   1.961  0.9108  0.9253 -1.7436
  381MOL0     H51377   5.980   9.058   1.886  1.0113  1.7283 -0.3107
  381MOL0     H51378   6.162   9.209   1.961 -1.0883 -0.7969 -0.4383
  381MOL0     H51379   6.231   9.081   2.065  1.1872 -1.3600 -0.5389
  381MOL0     H51380   6.243   8.939   1.859 -1.5416 -0.0910  3.5224
  381MOL0     H51381   6.188   9.081   1.768  1.6652  1.1369 -0.4819
  381MOL0     H51382   6.390   9.208   1.829 -2.6653  0.3460  1.0685
  381MOL0     H51383   6.431   9.070   1.732 -0.9184  3.0152 -1.0393
  381MOL0     H51384   6.466   9.065   2.035  0.8499  1.5540  0.2959
  381MOL0     H51385   6.489   8.934   1.932  2.2834  0.3783  2.6903
  381MOL0     H51386   6.698   8.991   1.738 -2.3345  1.4615 -0.5590
  381MOL0     H51387   6.940   8.998   1.731  1.2099  0.6102 -1.5256
  381MOL0     H51388   6.975   9.157   1.670  2.4344  1.4987  1.3758
  381MOL0     H51389   7.073   9.233   1.860 -0.9330  0.1124  2.3528
  381MOL0     H51390   7.043   9.088   1.959 -1.7761  1.9400  1.3150
  381MOL0     H51391   7.251   9.149   1.760 -0.2680  1.9180  3.2090
  381MOL0     H51392   7.174   8.984   1.740 -3.2907  1.3565 -0.1537
  381MOL0     H51393   7.389   8.981   1.888  0.1245  1.7378 -1.1795
  381MOL0     H51394   7.249   8.938   1.977 -2.3267  2.2629  2.4670
  381MOL0     H51395   7.529   9.177   1.892  2.5662 -0.9969 -0.5189
  381MOL0     H51396   7.750   9.166   1.987 -0.1523 -1.8688  0.2278
  381MOL0     H51397   8.151   9.200   2.069  0.3854 -0.9942  0.0308
  381MOL0     H51398   8.372   9.282   2.166  0.9904  0.8289  0.6790
  381MOL0     H51399   8.430   9.440   2.606  3.6106  0.4649  0.5236
  381MOL0     H51400   8.410   9.262   2.599 -0.9055  0.3667  1.3960
  381MOL0     H51401   8.667   9.395   2.512 -0.5456  2.0870  2.3280
  381MOL0     H51402   8.617   9.349   2.671  1.8441 -0.7472 -1.1363
  381MOL0     H51403   8.581   9.119   2.615 -0.4179  1.2799 -0.4245
  381MOL0     H51404   8.611   9.148   2.443 -0.1738 -2.0384  0.7236
  381MOL0     H51405   8.821   9.223   2.460  2.4517 -1.1656  0.2963
  381MOL0     H51406   8.798   9.054   2.508 -4.1441 -0.1280 -2.8665
  381MOL0     H51407   8.820   9.122   2.751  0.8702 -2.8050 -2.9815
  381MOL0     H51408   8.830   9.302   2.710  0.5393  1.4299 -2.3739
  381MOL0     H51409   9.053   9.217   2.769  2.2055 -0.5418 -1.4098
  381MOL0     H51410   9.028   9.077   2.662 -2.6107 -0.2065 -2.9184
  381MOL0     H51411   9.032   9.378   2.593 -2.5742 -0.2096  1.6721
  381MOL0     H51412   9.052   9.240   2.473  3.6867 -1.9694  0.5827
  381MOL0     H51413   9.269   9.370   2.536  1.3768  0.6232  2.7412
  381MOL0     H51414   9.257   9.294   2.699  2.0219 -1.8749 -0.9005
  381MOL0     H51415   8.182   9.305   2.550  0.5916  0.7193  0.3780
  381MOL0     H51416   7.970   9.239   2.466  1.9622 -0.6101  1.9198
  381MOL0     H51417   7.583   9.100   2.373  1.2282 -2.8933 -0.9072
  381MOL0     H51418   7.366   9.101   2.269  1.0939  2.1506  1.2665
  381MOL0     H51419   5.403   8.834   2.095  2.8135 -0.3520  0.3165
  381MOL0     H51420   5.175   8.893   2.174  1.5243 -0.1033 -1.2176
  381MOL0     H51421   4.862   8.891   2.372  1.8645  1.0140  0.4460
  381MOL0     H51422   4.627   8.912   2.320  0.7672  0.5285 -1.3725
  381MOL0     H51423   4.425   9.321   2.392  0.1496 -0.4824 -3.5131
  381MOL0     H51424   4.397   9.215   2.527  0.4809  0.3642  0.3456
  381MOL0     H51425   4.163   9.237   2.455 -0.4101 -0.3199  0.2021
  381MOL0     H51426   4.208   9.109   2.350 -1.1887 -0.1609  0.1590
  381MOL0     H51427   4.258   9.306   2.164 -1.0235  2.2741 -1.2653
  381MOL0     H51428   4.197   9.411   2.290 -2.6822  1.0991 -1.2301
  381MOL0     H51429   4.051   9.172   2.184 -3.4595 -0.7487  1.0959
  381MOL0     H51430   3.992   9.266   2.308 -0.1679 -0.7755 -0.6944
  381MOL0     H51431   3.886   9.520   1.986 -0.6712  0.2773  1.8158
  381MOL0     H51432   4.624   9.306   2.477 -4.1045 -1.6644  0.2216
  381MOL0     H51433   4.972   9.322   2.584  0.4298  3.7880  1.8811
  381MOL0     H51434   4.912   9.395   2.438  0.8851  0.8504  1.5412
  381MOL0     H51435   4.821   9.398   2.597  2.7961  0.5304  1.4718
  382MOL0     O51436   3.044   2.201   1.370 -0.4379  0.2101 -0.1551
  382MOL0     C51437   2.991   2.096   1.409  0.3956  0.1241 -0.8850
  382MOL0     O51438   3.058   1.980   1.437 -0.3434 -0.1673 -0.5032
  382MOL0     C51439   3.185   1.972   1.484  0.0238  0.4026  0.7969
  382MOL0     C51440   3.265   2.078   1.535  0.0358  0.2240  0.4566
  382MOL0     C51441   3.386   2.052   1.595 -0.7809 -0.1568 -0.6398
  382MOL0     C51442   3.432   1.917   1.602 -1.4052 -0.2207 -0.3279
  382MOL0     O51443   3.554   1.870   1.658  0.5074 -0.8613 -0.1135
  382MOL0     C51444   3.646   1.971   1.713  0.2260 -0.3898  0.3580
  382MOL0     C51445   3.749   1.893   1.799 -0.3396  0.3486 -0.0844
  382MOL0     C51446   3.863   1.988   1.850  0.0790  0.0146  0.3377
  382MOL0     C51447   3.970   1.904   1.926 -0.9075 -0.3284  0.0197
  382MOL0     C51448   4.076   2.002   1.979 -0.0496 -1.1585 -0.3851
  382MOL0     C51449   4.193   1.934   2.053  0.1452  0.8515  0.1163
  382MOL0     C51450   4.321   2.023   2.067  0.0792  0.5927 -0.0411
  382MOL0     C51451   4.420   1.971   2.163 -0.8451 -0.2519 -0.2375
  382MOL0     N51452   4.551   2.045   2.167  0.2933  0.3424  0.1413
  382MOL0     C51453   4.639   2.053   2.065 -1.0012 -0.2161  0.3158
  382MOL0     C51454   4.730   2.145   2.101 -0.1820  0.2709  0.3555
  382MOL0     C51455   4.855   2.183   2.014 -0.0470  0.9743 -0.3708
  382MOL0     C51456   4.920   2.066   1.954 -0.4004 -0.0947 -0.0683
  382MOL0     C51457   4.985   1.969   2.068 -1.2775  0.0747 -0.6475
  382MOL0     C51458   5.111   2.025   2.141 -0.1121 -0.0802 -1.0558
  382MOL0     O51459   5.192   1.924   2.200 -0.0659 -0.1880  0.0784
  382MOL0     C51460   5.292   1.947   2.289 -0.1486  0.7228  0.9824
  382MOL0     C51461   5.344   2.077   2.316  0.0386 -0.2916  0.3957
  382MOL0     C51462   5.460   2.086   2.392 -0.8205  0.2241 -0.1960
  382MOL0     C51463   5.514   1.973   2.459  1.3991 -0.0887 -0.0041
  382MOL0     C51464   5.640   1.988   2.531  0.4874  0.4782  0.6941
  382MOL0     O51465   5.669   1.889   2.622  0.0781 -0.5778  0.1360
  382MOL0     C51466   5.775   1.908   2.702  0.8950 -0.0107  0.2974
  382MOL0     C51467   5.776   1.989   2.816  0.1725  0.1709  0.2167
  382MOL0     C51468   5.893   1.997   2.896 -0.2852 -0.1925 -0.0665
  382MOL0     C51469   6.013   1.938   2.851 -0.2586  0.3575  0.3602
  382MOL0     O51470   6.131   1.964   2.915  0.8670 -0.3474 -0.8549
  382MOL0     C51471   6.250   1.913   2.869 -0.0407  0.1941 -0.4989
  382MOL0     C51472   6.366   1.984   2.943  0.1383  0.9356  0.7743
  382MOL0     C51473   6.500   1.985   2.878  0.0362 -0.0711  0.5300
  382MOL0     C51474   6.561   1.841   2.876  0.1926  0.1929  0.0168
  382MOL0     C51475   6.646   1.796   2.995  0.3104 -0.2494 -0.2580
  382MOL0     C51476   6.737   1.683   2.950 -0.3729  0.0471  0.0925
  382MOL0     C51477   6.824   1.620   3.062  0.0549  0.7463 -0.1285
  382MOL0     C51478   6.932   1.520   3.020  0.7848 -0.8573  1.0455
  382MOL0    Cl51479   7.022   1.455   3.159  0.4587 -0.4503 -0.7673
  382MOL0     C51480   6.009   1.860   2.731  0.2306 -0.6018 -0.4544
  382MOL0     C51481   5.886   1.839   2.660 -0.6381  0.0282  0.2505
  382MOL0     O51482   5.705   2.094   2.527  0.4102 -0.7258  0.8480
  382MOL0     C51483   5.439   1.852   2.449  0.3161 -0.1946  0.2485
  382MOL0     C51484   5.334   1.829   2.362  0.0846 -0.0472  0.8726
  382MOL0     N51485   4.687   2.203   2.222 -0.0818 -0.2619 -0.7131
  382MOL0     N51486   4.585   2.134   2.267  0.0037 -0.6824  0.4030
  382MOL0     C51487   3.356   1.818   1.552 -0.3388  0.3311  1.1355
  382MOL0     C51488   3.239   1.847   1.489  0.1124  1.1348  0.3224
  382MOL0     C51489   2.842   2.096   1.411 -0.5205 -0.2752  0.1517
  382MOL0     C51490   2.762   2.194   1.346 -0.0948  0.7374  0.1221
  382MOL0     C51491   2.625   2.194   1.354  0.0368  0.3065  0.5903
  382MOL0     C51492   2.557   2.102   1.441  0.7807 -0.1519 -0.0236
  382MOL0     O51493   2.423   2.097   1.467 -0.3567 -0.2379  0.3224
  382MOL0     C51494   2.345   2.191   1.404  0.5202  0.4632  0.4131
  382MOL0     C51495   2.199   2.159   1.409 -0.6343 -0.2286 -0.3149
  382MOL0     C51496   2.123   2.272   1.349  0.4647  0.5909  0.6573
  382MOL0     C51497   2.111   2.405   1.415  0.4257 -0.4313  0.3524
  382MOL0     C51498   2.203   2.499   1.350  0.1191 -0.5176  0.0894
  382MOL0     C51499   2.277   2.577   1.302  0.0022 -1.2672  0.2991
  382MOL0     C51500   2.631   2.020   1.516 -0.7604 -0.3331  0.4428
  382MOL0     C51501   2.771   2.010   1.499 -0.6159 -0.7283  0.5268
  382MOL0     C51502   2.832   1.910   1.598 -0.3592  0.1602 -1.2489
  382MOL0     H51503   3.220   2.176   1.537 -0.3364  0.2208 -2.7103
  382MOL0     H51504   3.445   2.135   1.634  0.0529  0.0063 -2.1512
  382MOL0     H51505   3.684   2.024   1.625  0.8720  0.5645  1.1899
  382MOL0     H51506   3.595   2.038   1.783 -0.1890  0.1784 -0.4721
  382MOL0     H51507   3.799   1.823   1.732 -2.2368 -1.0952 -0.0676
  382MOL0     H51508   3.701   1.858   1.891  0.2664  0.9533  0.4711
  382MOL0     H51509   3.814   2.057   1.919 -2.3051 -2.4088  1.2662
  382MOL0     H51510   3.904   2.044   1.766 -0.7311 -0.9924 -0.7677
  382MOL0     H51511   3.921   1.854   2.010 -0.6393  2.8156  2.2277
  382MOL0     H51512   4.012   1.841   1.848 -0.5221  2.9894 -2.6846
  382MOL0     H51513   4.124   2.053   1.895 -2.5284 -1.3554 -2.0564
  382MOL0     H51514   4.025   2.066   2.052  2.0203  3.7328 -2.8095
  382MOL0     H51515   4.155   1.904   2.151  1.1289 -0.5902  0.1029
  382MOL0     H51516   4.230   1.842   2.006  0.9697 -0.0573  2.3811
  382MOL0     H51517   4.305   2.128   2.093  1.0325  0.6789  0.2291
  382MOL0     H51518   4.373   2.017   1.971  1.7320 -0.0378  0.8535
  382MOL0     H51519   4.380   1.969   2.265  0.5311  1.4817  0.3841
  382MOL0     H51520   4.444   1.869   2.131  0.3031  0.3456 -1.3717
  382MOL0     H51521   4.647   1.992   1.976  2.5729 -0.5564  0.6925
  382MOL0     H51522   4.828   2.246   1.929 -0.7219 -0.0496 -0.9405
  382MOL0     H51523   4.923   2.243   2.075 -0.9443 -1.0357  2.9133
  382MOL0     H51524   4.854   2.004   1.892 -1.0218  1.2833 -0.8125
  382MOL0     H51525   4.996   2.115   1.892 -2.5744  0.8815 -2.0717
  382MOL0     H51526   5.027   1.884   2.014  0.0114  0.5225 -0.3811
  382MOL0     H51527   4.908   1.927   2.133 -0.3017 -1.1407 -0.2373
  382MOL0     H51528   5.073   2.093   2.218 -1.0253  0.3165 -1.8295
  382MOL0     H51529   5.181   2.083   2.080  0.9452  2.1892  2.0254
  382MOL0     H51530   5.310   2.163   2.260 -0.2773  0.0973  1.1690
  382MOL0     H51531   5.515   2.179   2.383  0.5676 -0.6771 -1.3648
  382MOL0     H51532   5.677   2.027   2.840 -0.5110 -0.9285 -0.7464
  382MOL0     H51533   5.881   2.069   2.976 -1.1830  0.7327 -1.0050
  382MOL0     H51534   6.265   1.805   2.882  1.4689  0.4153 -0.1369
  382MOL0     H51535   6.264   1.935   2.763  1.0577 -2.1075 -0.9138
  382MOL0     H51536   6.336   2.087   2.961 -0.5533  0.5064  2.2199
  382MOL0     H51537   6.385   1.932   3.038 -0.4947 -1.5731 -0.3992
  382MOL0     H51538   6.487   2.021   2.776  2.0915  0.0283  0.2668
  382MOL0     H51539   6.574   2.051   2.923 -0.5192  0.2037  1.0594
  382MOL0     H51540   6.623   1.832   2.787  0.7075 -0.1033  0.4043
  382MOL0     H51541   6.472   1.778   2.864  0.3889 -0.2665  0.9081
  382MOL0     H51542   6.582   1.757   3.075  2.0218 -2.5638  0.1141
  382MOL0     H51543   6.700   1.886   3.024 -2.5421  1.9299 -1.2882
  382MOL0     H51544   6.690   1.609   2.885 -1.7474  2.9591 -2.4773
  382MOL0     H51545   6.812   1.719   2.879 -0.3405 -0.2707 -0.0347
  382MOL0     H51546   6.753   1.566   3.124 -0.2838  2.1432  0.7560
  382MOL0     H51547   6.876   1.698   3.119  1.0545 -0.4528  0.6599
  382MOL0     H51548   6.896   1.430   2.969 -0.7338 -0.0895  0.6903
  382MOL0     H51549   7.010   1.572   2.965 -0.0794 -1.2458 -0.6151
  382MOL0     H51550   6.101   1.809   2.707 -0.4355 -2.7784  1.2598
  382MOL0     H51551   5.886   1.774   2.573  1.2433  1.0176 -0.5564
  382MOL0     H51552   5.474   1.773   2.514  1.0889  0.8433  1.1464
  382MOL0     H51553   5.303   1.731   2.328  0.8157 -0.4359  1.2943
  382MOL0     H51554   3.397   1.718   1.549 -0.3368  0.2755  2.4564
  382MOL0     H51555   3.172   1.771   1.452  2.0266  0.4040 -1.8516
  382MOL0     H51556   2.809   2.278   1.297  1.2378 -0.6927 -1.1504
  382MOL0     H51557   2.575   2.271   1.296  0.5215  0.4429  0.3462
  382MOL0     H51558   2.372   2.215   1.301 -0.9638 -3.3295 -1.0215
  382MOL0     H51559   2.360   2.281   1.465  1.8218  0.1032  0.6542
  382MOL0     H51560   2.178   2.157   1.516  1.3061  1.4106  0.1677
  382MOL0     H51561   2.185   2.058   1.368 -1.2300 -0.7824  1.1704
  382MOL0     H51562   2.020   2.237   1.339  1.0887 -0.6911 -2.8201
  382MOL0     H51563   2.144   2.277   1.242 -1.8688 -1.0291  0.0418
  382MOL0     H51564   2.011   2.449   1.411  1.8027  2.9019 -1.0707
  382MOL0     H51565   2.138   2.402   1.521 -2.1351  1.0270  1.1166
  382MOL0     H51566   2.348   2.651   1.270  0.6663 -1.6242  0.9248
  382MOL0     H51567   2.579   1.949   1.580  2.8415 -0.1310  4.0229
  382MOL0     H51568   2.878   1.967   1.679 -2.9018 -1.5036  1.6025
  382MOL0     H51569   2.760   1.843   1.646 -2.2667  2.8824  0.0107
  382MOL0     H51570   2.900   1.847   1.541  1.5850 -0.8348  1.9069
  383MOL0     O51571   5.112   0.509   2.172 -0.6895 -0.4504  0.0700
  383MOL0     C51572   5.154   0.620   2.201  0.4019  0.3626 -0.0811
  383MOL0     O51573   5.278   0.643   2.238 -0.7934 -0.6843 -0.3235
  383MOL0     C51574   5.384   0.553   2.239 -0.6926  0.0876  0.2030
  383MOL0     C51575   5.387   0.416   2.191 -0.4972  0.3659  0.1727
  383MOL0     C51576   5.502   0.336   2.178  0.6392 -0.1890  0.5164
  383MOL0     C51577   5.619   0.395   2.208 -1.0288 -0.1168  0.5146
  383MOL0     O51578   5.734   0.315   2.201  0.1976  0.3490  0.4225
  383MOL0     C51579   5.764   0.289   2.058 -0.7730 -0.6082 -0.4246
  383MOL0     C51580   5.855   0.167   2.037 -0.2453 -0.1569  0.1617
  383MOL0     C51581   5.994   0.188   2.093  0.4499 -0.5391 -0.5747
  383MOL0     C51582   6.074   0.056   2.077 -0.0992 -0.4210 -0.9604
  383MOL0     C51583   6.207   0.058   2.157 -0.5731 -0.5272 -0.7495
  383MOL0     C51584   6.288  -0.074   2.164 -0.6735 -1.1139  0.3210
  383MOL0     C51585   6.216  -0.173   2.250  0.3353  0.4049  0.8508
  383MOL0     C51586   6.289  -0.310   2.264  0.5637 -0.3595  0.3937
  383MOL0     N51587   6.421  -0.296   2.330  0.2308 -0.1285  0.3408
  383MOL0     C51588   6.526  -0.370   2.303 -0.6774  0.6429  0.2573
  383MOL0     C51589   6.608  -0.358   2.409  0.4848  0.1578 -0.7634
  383MOL0     C51590   6.739  -0.433   2.419  0.1769  0.3273  0.1516
  383MOL0     C51591   6.836  -0.362   2.525 -0.0865  0.2924 -0.0064
  383MOL0     C51592   6.976  -0.439   2.534 -0.0203  0.2367 -0.1443
  383MOL0     C51593   7.081  -0.413   2.416  1.4857 -0.0315 -0.0741
  383MOL0     O51594   7.201  -0.475   2.460  0.4733 -0.2502 -0.4419
  383MOL0     C51595   7.291  -0.533   2.366  0.1212 -0.5199 -0.1592
  383MOL0     C51596   7.311  -0.476   2.245 -0.7488  0.8831  0.0972
  383MOL0     C51597   7.416  -0.527   2.162 -0.4830 -0.2759 -0.7565
  383MOL0     C51598   7.503  -0.630   2.214  0.0653  0.1624  0.6137
  383MOL0     C51599   7.615  -0.672   2.123 -0.5172 -0.1638 -0.4969
  383MOL0     O51600   7.700  -0.770   2.172  0.3709 -1.0699 -0.0225
  383MOL0     C51601   7.793  -0.820   2.083 -0.2723 -0.8107 -0.1504
  383MOL0     C51602   7.748  -0.913   2.000  0.3776  0.6060 -0.0298
  383MOL0     C51603   7.810  -0.959   1.897  0.0965 -0.6120 -0.0198
  383MOL0     C51604   7.937  -0.900   1.867  0.3448  0.2327  0.0628
  383MOL0     O51605   8.021  -0.960   1.768 -0.1011 -0.0581  0.0158
  383MOL0     C51606   8.010  -1.101   1.729  0.3307 -0.0608  0.2037
  383MOL0     C51607   8.044  -1.199   1.849  0.2887  0.1743 -0.0937
  383MOL0     C51608   8.187  -1.179   1.919 -0.7332 -0.3266 -0.0425
  383MOL0     C51609   8.289  -1.210   1.811 -0.4273 -0.0547  0.3654
  383MOL0     C51610   8.431  -1.223   1.861 -1.1296 -0.6894 -0.1131
  383MOL0     C51611   8.551  -1.234   1.748 -0.3112 -0.2742 -0.7159
  383MOL0     C51612   8.698  -1.220   1.812 -0.2774 -0.5358 -0.1028
  383MOL0     C51613   8.807  -1.190   1.715  0.2367 -0.1397 -0.3225
  383MOL0    Cl51614   8.763  -1.033   1.638  0.2292 -0.0286 -0.3712
  383MOL0     C51615   7.984  -0.792   1.939 -0.4895  0.5294 -0.7529
  383MOL0     C51616   7.912  -0.759   2.056  0.1559 -0.0953 -0.6516
  383MOL0     O51617   7.634  -0.607   2.020  0.4885  0.0043  0.4014
  383MOL0     C51618   7.485  -0.686   2.340 -0.5298 -0.2504  0.0153
  383MOL0     C51619   7.381  -0.630   2.410  0.3641  0.3631 -0.0006
  383MOL0     N51620   6.552  -0.281   2.502  0.1448 -0.9157  0.0454
  383MOL0     N51621   6.439  -0.231   2.449 -0.3182 -0.2023  0.3192
  383MOL0     C51622   5.625   0.527   2.260  0.3081 -0.2830 -0.2010
  383MOL0     C51623   5.507   0.607   2.276 -0.2742 -0.3350  0.1128
  383MOL0     C51624   5.052   0.726   2.228 -0.5163 -0.4678 -0.0713
  383MOL0     C51625   5.082   0.819   2.326 -0.5235 -1.0874 -0.5001
  383MOL0     C51626   5.008   0.934   2.345 -0.0068 -0.0730  0.0308
  383MOL0     C51627   4.898   0.953   2.273  0.7978 -0.7309 -0.1982
  383MOL0     O51628   4.839   1.078   2.269  0.0655  0.7207 -0.6037
  383MOL0     C51629   4.697   1.084   2.255  0.1955 -0.1376  0.2044
  383MOL0     C51630   4.642   1.226   2.289  0.2974  0.5363 -0.7500
  383MOL0     C51631   4.634   1.326   2.173 -0.4051  0.2324  0.2148
  383MOL0     C51632   4.565   1.274   2.054  0.5572  0.1167  0.4129
  383MOL0     C51633   4.423   1.232   2.083  0.6430 -0.2302 -0.2507
  383MOL0     C51634   4.307   1.213   2.116 -0.0532 -0.6721  0.6718
  383MOL0     C51635   4.862   0.855   2.177  0.5163  0.1154 -0.9846
  383MOL0     C51636   4.932   0.737   2.160  0.1521  0.1885 -0.3791
  383MOL0     C51637   4.888   0.639   2.044  1.0473 -0.4260 -0.4179
  383MOL0     H51638   5.295   0.364   2.169 -0.5388  0.6005 -0.2073
  383MOL0     H51639   5.490   0.233   2.146  1.9564 -1.2352  3.0567
  383MOL0     H51640   5.680   0.257   1.995  1.1177 -1.2650 -2.7427
  383MOL0     H51641   5.812   0.369   2.002  1.9776 -2.4199 -0.8411
  383MOL0     H51642   5.868   0.155   1.929  2.1742  1.1351  0.2384
  383MOL0     H51643   5.812   0.077   2.083  1.8589 -1.5294 -0.4217
  383MOL0     H51644   5.996   0.207   2.200  1.4254  1.3110 -0.8733
  383MOL0     H51645   6.045   0.267   2.036 -0.5227  1.1952  0.8418
  383MOL0     H51646   6.013  -0.026   2.116  1.0115 -1.0377 -0.4675
  383MOL0     H51647   6.093   0.035   1.971 -1.1294  0.4407 -1.3396
  383MOL0     H51648   6.277   0.130   2.113  0.1935 -1.5007 -1.1409
  383MOL0     H51649   6.180   0.079   2.261  1.8801 -0.9313  0.0380
  383MOL0     H51650   6.307  -0.106   2.061 -2.6889 -0.3115 -0.3508
  383MOL0     H51651   6.382  -0.052   2.215 -2.2839  0.6268  2.7398
  383MOL0     H51652   6.111  -0.184   2.219  0.5038 -0.8053  0.6708
  383MOL0     H51653   6.219  -0.122   2.347  2.1288  0.3999  0.8254
  383MOL0     H51654   6.229  -0.374   2.330 -1.3390  1.1569  0.2302
  383MOL0     H51655   6.287  -0.357   2.166  0.7096  2.9351 -1.3295
  383MOL0     H51656   6.541  -0.438   2.220  2.2604  1.1353  0.2623
  383MOL0     H51657   6.716  -0.536   2.447  0.5344  0.1570 -0.1578
  383MOL0     H51658   6.790  -0.435   2.322  0.1838 -1.3207  0.1479
  383MOL0     H51659   6.857  -0.256   2.506  1.3556  0.1232  0.5346
  383MOL0     H51660   6.790  -0.366   2.624  0.1535 -0.0771  0.0923
  383MOL0     H51661   6.957  -0.545   2.551  1.1608  0.3422  2.3753
  383MOL0     H51662   7.027  -0.413   2.628 -0.7261  1.2342 -0.0109
  383MOL0     H51663   7.089  -0.304   2.409  0.5573 -0.0433 -2.0772
  383MOL0     H51664   7.042  -0.450   2.320 -1.1812  0.6780  0.6529
  383MOL0     H51665   7.241  -0.405   2.202 -3.7726 -2.1895 -0.5017
  383MOL0     H51666   7.419  -0.488   2.061 -0.7190  1.3206 -0.1663
  383MOL0     H51667   7.649  -0.950   2.022  0.3827  0.2893 -0.5234
  383MOL0     H51668   7.787  -1.043   1.831 -0.4716  1.0133 -1.9948
  383MOL0     H51669   7.914  -1.126   1.684  0.5302  0.2630 -0.4090
  383MOL0     H51670   8.087  -1.131   1.657 -0.9258  0.1161 -1.2543
  383MOL0     H51671   7.969  -1.183   1.927  1.6444 -0.8153  1.4848
  383MOL0     H51672   8.038  -1.303   1.816 -1.8801 -0.0476  0.8281
  383MOL0     H51673   8.206  -1.075   1.945  1.1747 -1.3285  3.0730
  383MOL0     H51674   8.190  -1.241   2.009 -0.5587  2.0026  1.6413
  383MOL0     H51675   8.294  -1.123   1.746  2.0582 -0.3604  0.0311
  383MOL0     H51676   8.255  -1.293   1.748  0.3776  1.9321 -2.8806
  383MOL0     H51677   8.431  -1.317   1.917  0.9403 -0.4357  0.4063
  383MOL0     H51678   8.458  -1.140   1.927  2.4036 -0.3543 -1.7435
  383MOL0     H51679   8.543  -1.330   1.697  1.4214 -0.9718  0.2680
  383MOL0     H51680   8.516  -1.153   1.682 -0.2635 -0.1833 -0.6302
  383MOL0     H51681   8.722  -1.312   1.866  2.9531 -0.4740 -1.2350
  383MOL0     H51682   8.689  -1.139   1.885 -3.0365 -0.3892 -0.5140
  383MOL0     H51683   8.896  -1.180   1.777 -0.4008  2.3430  0.2873
  383MOL0     H51684   8.819  -1.270   1.641  1.1660 -0.6953  0.4049
  383MOL0     H51685   8.070  -0.737   1.903 -0.3840 -0.4189 -1.9929
  383MOL0     H51686   7.947  -0.676   2.116 -1.0731  2.9684 -3.8418
  383MOL0     H51687   7.546  -0.762   2.388  0.4174  0.3969 -0.1122
  383MOL0     H51688   7.359  -0.674   2.507 -0.5222 -0.2192 -0.4552
  383MOL0     H51689   5.717   0.565   2.303  0.7924  0.0272 -1.4669
  383MOL0     H51690   5.522   0.707   2.315  1.9758 -0.0704 -1.2111
  383MOL0     H51691   5.168   0.808   2.392  0.4856 -1.5653 -1.8455
  383MOL0     H51692   5.038   0.998   2.426  2.2140  0.2915 -1.0050
  383MOL0     H51693   4.647   1.014   2.323 -0.0592 -0.8061 -0.6614
  383MOL0     H51694   4.670   1.065   2.151  2.2188  1.3301 -0.6525
  383MOL0     H51695   4.698   1.271   2.372 -2.0660 -2.6186  2.8390
  383MOL0     H51696   4.545   1.220   2.338  1.0592 -0.1371  0.7403
  383MOL0     H51697   4.738   1.339   2.144 -0.7411  0.2764 -0.9894
  383MOL0     H51698   4.601   1.428   2.195  1.1014  1.2214 -1.7812
  383MOL0     H51699   4.561   1.347   1.973 -1.2615  1.3819  1.5544
  383MOL0     H51700   4.628   1.195   2.013  0.3894  1.1753 -2.0107
  383MOL0     H51701   4.201   1.201   2.130 -0.3170  0.3563 -0.3455
  383MOL0     H51702   4.776   0.870   2.112 -0.6439  0.4209  0.5537
  383MOL0     H51703   4.781   0.643   2.023  1.2939  0.3668 -1.5751
  383MOL0     H51704   4.949   0.666   1.958  1.6997  1.9004  0.7014
  383MOL0     H51705   4.907   0.535   2.075 -0.7578 -1.1905 -1.7349
  384MOL0     O51706   7.239   8.416   7.481  0.1863 -0.4077 -0.0009
  384MOL0     C51707   7.143   8.438   7.401  0.3020 -0.4754 -0.0576
  384MOL0     O51708   7.151   8.458   7.268  0.6563 -0.0424 -0.1175
  384MOL0     C51709   7.284   8.438   7.225  0.0461 -0.0350 -0.0346
  384MOL0     C51710   7.336   8.312   7.206  0.4819 -0.6503  0.7291
  384MOL0     C51711   7.465   8.285   7.158 -0.3546 -0.2544 -0.0963
  384MOL0     C51712   7.552   8.381   7.127  0.1548 -0.0259 -0.3578
  384MOL0     O51713   7.684   8.370   7.100 -0.2579  0.1230  0.4748
  384MOL0     C51714   7.720   8.247   7.032  0.3996  0.7301  0.4181
  384MOL0     C51715   7.840   8.262   6.941 -1.5345 -0.3270 -0.7107
  384MOL0     C51716   7.967   8.290   7.031 -0.1882  0.0902  0.1334
  384MOL0     C51717   8.075   8.360   6.943 -0.2578 -0.1195  0.4423
  384MOL0     C51718   8.208   8.368   7.021 -0.1943 -0.0308  0.5746
  384MOL0     C51719   8.324   8.401   6.921 -0.1209  1.0338  0.4497
  384MOL0     C51720   8.462   8.426   6.994 -0.3217 -0.0599  0.4436
  384MOL0     C51721   8.570   8.476   6.893  0.3788 -0.0108 -0.2836
  384MOL0     N51722   8.681   8.536   6.958  0.4548  0.1464 -0.1666
  384MOL0     C51723   8.776   8.458   7.023  0.1572  0.1179  0.0496
  384MOL0     C51724   8.874   8.555   7.050 -0.0205  0.8549  0.2288
  384MOL0     C51725   8.996   8.533   7.132  0.0477  0.2391  0.0044
  384MOL0     C51726   9.090   8.447   7.051 -0.3961  0.3575  0.1932
  384MOL0     C51727   9.220   8.444   7.124 -0.3380  0.7391  0.2528
  384MOL0     C51728   9.325   8.344   7.058 -0.3623  0.3670  0.2974
  384MOL0     O51729   9.433   8.309   7.146  0.6038  0.0391  0.2609
  384MOL0     C51730   9.524   8.227   7.083  1.1960 -0.6220  0.2702
  384MOL0     C51731   9.646   8.206   7.152 -0.8800  0.4408 -0.7205
  384MOL0     C51732   9.746   8.126   7.103 -0.3313  0.8344  0.0562
  384MOL0     C51733   9.731   8.055   6.980  0.1751  0.2091 -0.8397
  384MOL0     C51734   9.832   7.959   6.937 -0.2710  0.2500 -0.3595
  384MOL0     O51735   9.934   7.916   7.022  0.2452 -0.8703 -0.2324
  384MOL0     C51736  10.038   7.837   6.969 -0.2872  0.2411 -0.8297
  384MOL0     C51737  10.105   7.848   6.849 -0.2688 -0.0980  0.2205
  384MOL0     C51738  10.219   7.773   6.821 -0.0877  0.3529  0.0912
  384MOL0     C51739  10.280   7.698   6.918 -0.2481 -0.5209  0.2122
  384MOL0     O51740  10.407   7.647   6.887 -0.1245  0.5641  0.2696
  384MOL0     C51741  10.438   7.501   6.906  0.5466 -0.3908  0.6983
  384MOL0     C51742  10.588   7.482   6.919 -0.1519  0.3914  0.5794
  384MOL0     C51743  10.668   7.573   6.825  0.1479 -0.9122  0.3366
  384MOL0     C51744  10.810   7.531   6.805 -0.5102  0.1669  0.4983
  384MOL0     C51745  10.912   7.643   6.821  0.0419 -0.9006 -0.3389
  384MOL0     C51746  10.951   7.676   6.966  0.3675 -0.7305  1.0215
  384MOL0     C51747  10.986   7.564   7.061  0.3809  0.3465  0.4159
  384MOL0     C51748  11.120   7.488   7.021  0.0762 -0.4599  0.0041
  384MOL0    Cl51749  11.262   7.583   7.072  0.1803  0.2268  0.4423
  384MOL0     C51750  10.220   7.696   7.045 -0.7506  0.1192  0.6376
  384MOL0     C51751  10.102   7.760   7.073  0.2739  0.2928  0.9579
  384MOL0     O51752   9.813   7.925   6.825  0.2658 -0.0836  0.3019
  384MOL0     C51753   9.607   8.075   6.906  0.9317  0.0473 -0.1471
  384MOL0     C51754   9.507   8.154   6.961 -0.1592 -0.0406 -0.5028
  384MOL0     N51755   8.833   8.677   6.999  0.1711  0.0289 -0.5416
  384MOL0     N51756   8.719   8.667   6.947 -0.1842 -0.1710 -0.0272
  384MOL0     C51757   7.504   8.512   7.147 -0.2130  0.3666  0.0723
  384MOL0     C51758   7.370   8.542   7.197 -0.4228 -0.0488  1.3345
  384MOL0     C51759   7.004   8.448   7.460  0.1521 -0.6271 -0.9519
  384MOL0     C51760   6.897   8.437   7.372  0.3216  0.3858  0.2584
  384MOL0     C51761   6.770   8.454   7.415  0.7134 -0.3595 -0.5835
  384MOL0     C51762   6.736   8.484   7.551  0.1147  0.7603 -0.5931
  384MOL0     O51763   6.602   8.493   7.577 -0.7024  0.2575 -0.7997
  384MOL0     C51764   6.572   8.566   7.693  0.2655  0.4907  0.1813
  384MOL0     C51765   6.448   8.648   7.679  0.1881 -1.1131 -0.8693
  384MOL0     C51766   6.321   8.568   7.694 -0.5114  0.3121 -0.6182
  384MOL0     C51767   6.193   8.655   7.692  0.3245 -0.3289 -0.8839
  384MOL0     C51768   6.073   8.576   7.714 -0.0571  0.0699 -0.7793
  384MOL0     C51769   5.973   8.502   7.729  0.2234  0.0742  0.4837
  384MOL0     C51770   6.839   8.471   7.646  0.2260  0.0890  0.2201
  384MOL0     C51771   6.977   8.455   7.601 -0.2069  0.2364 -0.6317
  384MOL0     C51772   7.080   8.463   7.707 -0.4598 -0.0674 -0.7124
  384MOL0     H51773   7.278   8.222   7.227 -0.6579 -0.0108  0.3717
  384MOL0     H51774   7.490   8.181   7.140 -3.2469 -0.6315 -2.6992
  384MOL0     H51775   7.736   8.176   7.114 -1.9744 -0.2381  0.1252
  384MOL0     H51776   7.630   8.224   6.973  1.0800  1.6445 -1.0349
  384MOL0     H51777   7.823   8.344   6.871 -0.5382 -2.2812 -3.4109
  384MOL0     H51778   7.864   8.173   6.881  2.2410  0.5062 -0.7141
  384MOL0     H51779   8.007   8.194   7.064 -1.4985 -0.7458 -0.5911
  384MOL0     H51780   7.953   8.352   7.120 -0.0857  2.7162 -1.5842
  384MOL0     H51781   8.083   8.298   6.853  1.2252  2.3258 -1.2452
  384MOL0     H51782   8.035   8.454   6.905 -0.7531 -0.7011 -0.4858
  384MOL0     H51783   8.198   8.451   7.092  1.0765 -0.6304  1.5110
  384MOL0     H51784   8.230   8.276   7.076 -0.9248  0.4650  1.7355
  384MOL0     H51785   8.327   8.311   6.859 -2.0496  1.9544 -1.0910
  384MOL0     H51786   8.303   8.483   6.853 -1.2086  0.6105  0.2515
  384MOL0     H51787   8.490   8.340   7.056 -1.2308  0.4318  1.5979
  384MOL0     H51788   8.437   8.514   7.055  3.3562  0.2853  1.6750
  384MOL0     H51789   8.602   8.390   6.833 -3.1733  1.1880 -4.3958
  384MOL0     H51790   8.534   8.553   6.824  0.2137 -1.6122 -2.0777
  384MOL0     H51791   8.775   8.353   7.052 -0.2726 -0.5959 -2.3238
  384MOL0     H51792   9.037   8.631   7.159 -0.3461 -0.2311  2.5604
  384MOL0     H51793   8.968   8.493   7.231  0.6187  1.3223  0.6172
  384MOL0     H51794   9.052   8.344   7.053 -1.5406  0.7653  0.4260
  384MOL0     H51795   9.095   8.480   6.946  1.3347  1.5237  0.6129
  384MOL0     H51796   9.195   8.398   7.220 -4.2234  0.4315 -0.7434
  384MOL0     H51797   9.264   8.543   7.139  2.5224 -0.4998  0.8829
  384MOL0     H51798   9.352   8.396   6.966 -1.4388  3.7761  1.7443
  384MOL0     H51799   9.281   8.246   7.037  2.8374 -0.8375 -1.5303
  384MOL0     H51800   9.674   8.240   7.252  4.2464  1.9949 -2.3894
  384MOL0     H51801   9.835   8.103   7.162 -0.1548 -1.9909 -1.1302
  384MOL0     H51802  10.069   7.919   6.776  1.1892  3.0954  2.4032
  384MOL0     H51803  10.251   7.775   6.717 -0.9599 -2.1676 -0.2969
  384MOL0     H51804  10.393   7.454   6.995 -1.8548 -1.6509 -1.0688
  384MOL0     H51805  10.389   7.451   6.823  0.9490 -0.8476  0.7358
  384MOL0     H51806  10.624   7.509   7.018 -1.3974  0.7300  0.9623
  384MOL0     H51807  10.611   7.379   6.888 -3.3164 -0.1410 -0.3830
  384MOL0     H51808  10.619   7.576   6.727  1.1640  2.3356 -0.1876
  384MOL0     H51809  10.672   7.674   6.867  0.4196 -1.2476  1.1176
  384MOL0     H51810  10.835   7.488   6.707  1.2134 -0.5193  1.2093
  384MOL0     H51811  10.820   7.454   6.882 -2.0596  0.2346  0.8017
  384MOL0     H51812  10.876   7.735   6.774  1.8270  1.3006  2.2362
  384MOL0     H51813  11.001   7.617   6.763 -0.0082 -2.9454  0.4332
  384MOL0     H51814  11.035   7.747   6.960 -0.5543  0.3089 -3.3128
  384MOL0     H51815  10.857   7.721   6.998 -0.2616 -1.1812 -0.1144
  384MOL0     H51816  10.906   7.492   7.077 -1.3506  1.9498 -0.6870
  384MOL0     H51817  11.014   7.603   7.159  1.2047  1.6321 -0.3036
  384MOL0     H51818  11.108   7.390   7.068 -0.7320 -0.5598 -0.3846
  384MOL0     H51819  11.106   7.474   6.913 -3.0477  2.1152 -0.0866
  384MOL0     H51820  10.279   7.646   7.121  4.0984  0.1632 -2.6199
  384MOL0     H51821  10.070   7.751   7.177 -0.6011 -2.9865  0.5273
  384MOL0     H51822   9.584   8.006   6.825  0.6821 -3.0648  2.3643
  384MOL0     H51823   9.419   8.180   6.903  0.5186  4.5735  0.1798
  384MOL0     H51824   7.568   8.600   7.140  1.1405 -0.1647  3.5972
  384MOL0     H51825   7.351   8.649   7.205 -1.3135  0.0282 -0.8769
  384MOL0     H51826   6.908   8.411   7.267  0.5081 -2.3059  0.8607
  384MOL0     H51827   6.690   8.439   7.343 -0.8951  1.6265  0.6672
  384MOL0     H51828   6.657   8.621   7.735  0.7988 -1.5175  1.9596
  384MOL0     H51829   6.556   8.491   7.771 -1.4626  1.2032  0.5598
  384MOL0     H51830   6.448   8.697   7.581  0.3802  1.4608  0.3269
  384MOL0     H51831   6.445   8.710   7.769 -4.0139 -3.1517  0.6843
  384MOL0     H51832   6.330   8.506   7.783 -2.3148  2.0287  0.8419
  384MOL0     H51833   6.318   8.492   7.614  2.1556  0.2434 -0.7186
  384MOL0     H51834   6.199   8.736   7.766  1.8633  0.6606 -2.0405
  384MOL0     H51835   6.184   8.699   7.593 -0.9506 -0.6992 -0.9619
  384MOL0     H51836   5.884   8.444   7.741  0.7678 -0.9975 -0.4630
  384MOL0     H51837   6.815   8.485   7.751  2.1935 -0.6503  0.8290
  384MOL0     H51838   7.145   8.549   7.690 -3.5736  2.9519  1.3374
  384MOL0     H51839   7.048   8.473   7.812  1.1304  2.8074 -0.3935
  384MOL0     H51840   7.137   8.370   7.720  0.7567  0.9909  2.4188
  385MOL0     O51841   9.202   1.023   9.090  0.2479  0.1838  0.1057
  385MOL0     C51842   9.163   1.087   9.183  0.1092  0.6045 -0.2312
  385MOL0     O51843   9.245   1.169   9.250  0.6907 -0.1420 -0.6090
  385MOL0     C51844   9.367   1.190   9.194  0.2463 -0.6750  0.6529
  385MOL0     C51845   9.397   1.296   9.109  0.3231  0.4046  0.7874
  385MOL0     C51846   9.527   1.312   9.055 -0.5785 -0.3579 -0.8334
  385MOL0     C51847   9.627   1.229   9.102 -0.8931  0.0771 -0.5379
  385MOL0     O51848   9.745   1.248   9.037 -0.3619  0.1931 -0.7040
  385MOL0     C51849   9.862   1.184   9.097  0.5741 -0.0814 -0.3466
  385MOL0     C51850   9.995   1.232   9.024 -0.6767  0.5774  0.4899
  385MOL0     C51851  10.112   1.199   9.107  0.4375  0.1376  0.3199
  385MOL0     C51852  10.174   1.062   9.078  0.6455 -0.4845 -0.9248
  385MOL0     C51853  10.318   1.058   9.107 -1.0496 -0.1328  0.2859
  385MOL0     C51854  10.365   0.912   9.096 -0.2103 -0.5025  0.3663
  385MOL0     C51855  10.519   0.883   9.118  0.0711  0.1231  0.5997
  385MOL0     C51856  10.612   0.942   9.008 -0.0579  0.3250 -0.4595
  385MOL0     N51857  10.750   0.927   9.042 -1.1209 -0.0236 -0.6509
  385MOL0     C51858  10.829   0.968   9.149  0.1060 -0.1852  0.3859
  385MOL0     C51859  10.953   0.926   9.116 -0.7053 -0.2623 -0.7393
  385MOL0     C51860  11.069   0.944   9.203  0.1179 -0.4913 -0.3907
  385MOL0     C51861  11.038   0.967   9.353 -0.0607 -0.1692  0.0192
  385MOL0     C51862  11.175   0.951   9.424  0.9232  0.6007 -0.7908
  385MOL0     C51863  11.262   1.073   9.407  0.3308  0.1291  0.1245
  385MOL0     O51864  11.379   1.040   9.479 -0.4097 -0.5263  0.9061
  385MOL0     C51865  11.499   1.078   9.428  0.4558 -0.4338  0.7772
  385MOL0     C51866  11.520   1.204   9.365 -0.5054  0.6168  0.4989
  385MOL0     C51867  11.649   1.243   9.320 -0.1027 -0.0820 -0.8023
  385MOL0     C51868  11.758   1.165   9.353 -0.4197 -0.1326 -1.2497
  385MOL0     C51869  11.892   1.218   9.303  0.2058 -0.7565  0.0724
  385MOL0     O51870  11.891   1.277   9.173 -0.1593  0.1317  0.0194
  385MOL0     C51871  11.992   1.349   9.114  0.4525 -1.0290  0.6603
  385MOL0     C51872  12.083   1.431   9.184 -0.1590  0.5047  1.3150
  385MOL0     C51873  12.178   1.505   9.115 -0.9796 -0.8109 -0.1380
  385MOL0     C51874  12.183   1.506   8.973  0.0876  0.5378  0.3181
  385MOL0     O51875  12.274   1.571   8.900 -0.0097  0.5270  0.1935
  385MOL0     C51876  12.395   1.496   8.868  0.8144 -0.3544  0.5873
  385MOL0     C51877  12.507   1.599   8.839  0.4473  0.5054 -0.1034
  385MOL0     C51878  12.635   1.534   8.793 -0.9275 -0.1404 -0.7438
  385MOL0     C51879  12.752   1.632   8.791 -0.5028 -0.0617 -0.5979
  385MOL0     C51880  12.880   1.573   8.729  0.4687  0.4441 -0.8259
  385MOL0     C51881  12.996   1.667   8.714 -0.5326 -1.4025 -0.4573
  385MOL0     C51882  13.141   1.620   8.694  0.5121 -0.0191 -0.4061
  385MOL0     C51883  13.194   1.535   8.810  0.5002  0.4222  0.1628
  385MOL0    Cl51884  13.351   1.463   8.773  0.1154 -0.2903  0.2549
  385MOL0     C51885  12.101   1.415   8.902 -0.4229 -0.3965 -0.0427
  385MOL0     C51886  12.008   1.344   8.975  0.3880 -0.0550  0.8606
  385MOL0     O51887  11.996   1.198   9.368 -0.5007  0.1572  0.1388
  385MOL0     C51888  11.738   1.049   9.433 -0.2100 -0.1708 -0.5654
  385MOL0     C51889  11.612   1.010   9.472  0.6542  0.0421  0.0697
  385MOL0     N51890  10.953   0.851   8.999 -0.3993 -0.2518 -0.1810
  385MOL0     N51891  10.828   0.844   8.963 -0.1371 -0.2111 -0.2812
  385MOL0     C51892   9.594   1.124   9.197  0.0756  0.5652  0.0790
  385MOL0     C51893   9.469   1.106   9.239 -0.1549  0.0587 -0.3683
  385MOL0     C51894   9.026   1.055   9.229  0.5482 -0.2743  0.1822
  385MOL0     C51895   8.998   1.086   9.367  0.4869  0.1251  0.9597
  385MOL0     C51896   8.881   1.044   9.429  0.4023  0.8666  0.2800
  385MOL0     C51897   8.777   0.993   9.352 -1.1212 -0.3909 -0.6292
  385MOL0     O51898   8.655   0.959   9.401 -0.2436  0.3211 -0.3765
  385MOL0     C51899   8.596   0.999   9.524 -0.2919 -0.1468 -0.6596
  385MOL0     C51900   8.540   1.142   9.529  0.6051  1.2797  0.1673
  385MOL0     C51901   8.420   1.156   9.434 -0.3388 -0.2256 -0.1462
  385MOL0     C51902   8.355   1.290   9.443  0.5373 -0.1073 -0.0014
  385MOL0     C51903   8.438   1.393   9.370 -0.2843 -0.3356 -0.2529
  385MOL0     C51904   8.529   1.466   9.321  0.7136  1.2534  0.5069
  385MOL0     C51905   8.795   0.963   9.220 -0.2646  0.3571  0.2794
  385MOL0     C51906   8.919   0.995   9.152 -1.1925  0.5570  0.2809
  385MOL0     C51907   8.928   0.967   9.007  0.3365 -0.4526 -0.3871
  385MOL0     H51908   9.323   1.370   9.082  1.5128  1.0491 -0.8842
  385MOL0     H51909   9.553   1.389   8.982  0.2530  1.8064  1.6029
  385MOL0     H51910   9.869   1.213   9.202 -2.5557  1.0109 -0.3319
  385MOL0     H51911   9.854   1.075   9.085 -1.7843  0.0328 -0.3441
  385MOL0     H51912   9.995   1.341   9.013  1.3912  0.5914  0.1453
  385MOL0     H51913  10.006   1.186   8.925  1.1258 -1.0249  1.3546
  385MOL0     H51914  10.081   1.199   9.212 -2.0748 -2.0296 -0.2848
  385MOL0     H51915  10.188   1.276   9.092 -0.6055  1.0329 -0.5698
  385MOL0     H51916  10.110   0.984   9.123 -1.1515 -0.5648 -3.4317
  385MOL0     H51917  10.165   1.045   8.971  1.4477 -1.1592 -0.8904
  385MOL0     H51918  10.364   1.115   9.026 -0.6585  0.7419  1.0988
  385MOL0     H51919  10.346   1.105   9.202  0.4260  2.0574 -1.1475
  385MOL0     H51920  10.312   0.855   9.173 -0.8650 -0.1360  0.1967
  385MOL0     H51921  10.334   0.876   8.998  0.7992 -0.6444  0.0853
  385MOL0     H51922  10.539   0.776   9.105 -0.8687  0.0708 -0.5425
  385MOL0     H51923  10.543   0.913   9.220 -1.7065  0.4304  0.9471
  385MOL0     H51924  10.587   0.887   8.917 -1.4168  1.6607 -0.9519
  385MOL0     H51925  10.582   1.047   8.994  1.1950  0.8522  0.6340
  385MOL0     H51926  10.799   1.029   9.234  0.1475  0.3894 -0.0042
  385MOL0     H51927  11.125   0.851   9.199 -0.6637 -0.9649 -0.5963
  385MOL0     H51928  11.129   1.030   9.173  1.6675 -0.2971  2.8781
  385MOL0     H51929  10.991   1.064   9.372  0.1978 -0.0062 -0.1689
  385MOL0     H51930  10.976   0.883   9.387  3.3240 -2.3487  1.4090
  385MOL0     H51931  11.226   0.859   9.398  0.3949 -0.4133  1.5601
  385MOL0     H51932  11.152   0.940   9.531  2.0978  1.3502 -0.4444
  385MOL0     H51933  11.210   1.163   9.441  0.8446  0.0480  1.1995
  385MOL0     H51934  11.288   1.083   9.302  1.7304  0.2144  0.4589
  385MOL0     H51935  11.440   1.276   9.349 -1.0185  0.6362  2.8725
  385MOL0     H51936  11.652   1.335   9.263  0.1338 -0.0508 -0.7412
  385MOL0     H51937  12.088   1.423   9.292 -2.5265  0.4676  1.4770
  385MOL0     H51938  12.252   1.570   9.162 -1.3818 -0.1250 -0.4446
  385MOL0     H51939  12.420   1.419   8.941 -0.3028 -2.3579 -1.0467
  385MOL0     H51940  12.373   1.444   8.774 -1.9947  3.0947 -0.9092
  385MOL0     H51941  12.471   1.668   8.763 -3.4335 -0.1398  0.9260
  385MOL0     H51942  12.534   1.664   8.923  1.7356  0.8221 -0.7261
  385MOL0     H51943  12.666   1.445   8.848  0.3184  0.3234 -0.6631
  385MOL0     H51944  12.606   1.502   8.692  1.5046 -1.7126 -1.0347
  385MOL0     H51945  12.767   1.677   8.889 -0.9990  0.8724 -0.9362
  385MOL0     H51946  12.734   1.717   8.724 -1.9248 -0.5638 -0.8983
  385MOL0     H51947  12.851   1.538   8.629 -2.8385  1.9786 -0.5032
  385MOL0     H51948  12.900   1.486   8.792 -1.1839  0.1961 -0.6051
  385MOL0     H51949  12.982   1.745   8.639  1.5533 -1.6870 -1.2219
  385MOL0     H51950  12.999   1.724   8.808  2.9352 -1.1256 -0.6136
  385MOL0     H51951  13.214   1.700   8.677  1.0765 -0.7894 -1.6498
  385MOL0     H51952  13.129   1.569   8.598 -0.1518  1.7550 -1.3118
  385MOL0     H51953  13.193   1.595   8.901  0.0813  1.3700 -0.4550
  385MOL0     H51954  13.128   1.448   8.818 -0.6991  1.3834  1.1580
  385MOL0     H51955  12.091   1.398   8.795 -0.4177 -1.7386  0.1518
  385MOL0     H51956  11.939   1.273   8.929  1.1619 -0.3155  0.0677
  385MOL0     H51957  11.823   1.007   9.486  0.4791  1.0046 -0.7006
  385MOL0     H51958  11.603   0.924   9.537 -1.8387 -0.1555 -0.4308
  385MOL0     H51959   9.668   1.048   9.218 -1.7708 -1.7275 -1.2649
  385MOL0     H51960   9.443   1.026   9.307  2.0438  0.2200  0.7621
  385MOL0     H51961   9.079   1.126   9.427 -1.8227  0.2610  4.2616
  385MOL0     H51962   8.861   1.053   9.535 -1.2954 -0.2460  0.0895
  385MOL0     H51963   8.670   0.995   9.605 -1.0727  2.0963  0.2608
  385MOL0     H51964   8.514   0.935   9.558  0.2024  0.0698  1.0669
  385MOL0     H51965   8.617   1.209   9.490  0.7824  0.2382 -1.3458
  385MOL0     H51966   8.512   1.164   9.633 -2.0101  0.8283 -0.3925
  385MOL0     H51967   8.347   1.080   9.464  0.9035 -0.4120  2.7404
  385MOL0     H51968   8.445   1.128   9.331  1.9919 -2.2006  0.8571
  385MOL0     H51969   8.258   1.285   9.393  0.3735 -2.3540  0.4251
  385MOL0     H51970   8.343   1.321   9.548 -2.6002 -1.1707  0.0533
  385MOL0     H51971   8.610   1.522   9.279  1.9455 -1.1741 -0.5711
  385MOL0     H51972   8.715   0.915   9.164  1.6091 -1.9109 -0.6209
  385MOL0     H51973   8.831   0.943   8.962 -2.3424  4.8551  1.6897
  385MOL0     H51974   8.940   1.067   8.963 -2.3469 -0.2042 -0.7242
  385MOL0     H51975   9.005   0.894   8.979 -0.3600 -1.1323 -0.5608
  386MOL0     O51976  11.220  10.360   7.932  0.2430  0.0896 -0.0655
  386MOL0     C51977  11.236  10.340   7.810  0.6587  0.5610  0.8407
  386MOL0     O51978  11.341  10.397   7.742  0.2168  0.2597 -0.4929
  386MOL0     C51979  11.432  10.471   7.807 -0.3491 -0.1502  0.6689
  386MOL0     C51980  11.477  10.432   7.931  0.0782  0.3129  0.6175
  386MOL0     C51981  11.577  10.512   7.993  0.1322 -0.8319  1.0863
  386MOL0     C51982  11.628  10.623   7.927 -0.0441  0.6454  0.4342
  386MOL0     O51983  11.722  10.709   7.983 -0.3006 -0.5758 -0.3460
  386MOL0     C51984  11.806  10.664   8.093 -0.0660  0.0254 -0.1998
  386MOL0     C51985  11.928  10.749   8.109  1.1260 -0.1052  0.2566
  386MOL0     C51986  12.001  10.696   8.232 -0.4852  0.5854 -0.6076
  386MOL0     C51987  12.124  10.777   8.270 -0.3413  0.5837 -0.5389
  386MOL0     C51988  12.230  10.784   8.166 -0.1920 -0.7389 -0.6979
  386MOL0     C51989  12.360  10.826   8.243 -0.3859 -0.4100  0.3333
  386MOL0     C51990  12.481  10.842   8.141 -0.0880  0.3385 -0.0955
  386MOL0     C51991  12.483  10.972   8.058  0.4735  0.0001  0.0626
  386MOL0     N51992  12.596  10.982   7.966 -0.2119 -0.2566 -0.0324
  386MOL0     C51993  12.578  10.952   7.829  0.5804  0.4329  0.8374
  386MOL0     C51994  12.713  10.959   7.781  0.4094 -0.2659 -0.2784
  386MOL0     C51995  12.753  10.984   7.639 -0.0494  0.8530  0.6839
  386MOL0     C51996  12.909  10.977   7.612  0.1984  0.1382  0.2502
  386MOL0     C51997  12.972  10.840   7.648  0.4781 -0.0782  0.7200
  386MOL0     C51998  13.116  10.826   7.585 -0.2788  0.5946 -0.3545
  386MOL0     O51999  13.172  10.691   7.595 -0.0775 -0.1103 -0.0560
  386MOL0     C52000  13.302  10.664   7.555  0.4182 -0.1109 -0.6613
  386MOL0     C52001  13.393  10.751   7.508 -0.3660 -1.3329  0.7529
  386MOL0     C52002  13.519  10.711   7.464  0.3077  0.0686 -0.4395
  386MOL0     C52003  13.558  10.576   7.479  0.7982  0.7702  0.2983
  386MOL0     C52004  13.695  10.526   7.429  0.7350 -0.7626 -0.1404
  386MOL0     O52005  13.780  10.620   7.372  0.0504  0.2262 -0.6216
  386MOL0     C52006  13.913  10.586   7.344 -0.5325 -0.0347 -0.0522
  386MOL0     C52007  13.989  10.671   7.259  0.4982  0.3457  0.1987
  386MOL0     C52008  14.125  10.664   7.225  0.8761  0.1185  0.2886
  386MOL0     C52009  14.208  10.572   7.301 -0.4340 -0.0351 -0.4877
  386MOL0     O52010  14.343  10.561   7.285 -0.9170  0.0504  0.2995
  386MOL0     C52011  14.408  10.610   7.162  0.5829  0.3990 -0.6170
  386MOL0     C52012  14.552  10.560   7.135  0.0665  0.0850  0.2697
  386MOL0     C52013  14.645  10.594   7.249 -0.5358  0.1259 -0.2618
  386MOL0     C52014  14.783  10.544   7.205 -0.5205  0.1399  0.0009
  386MOL0     C52015  14.901  10.617   7.272 -0.5504  0.6089  0.2937
  386MOL0     C52016  15.026  10.575   7.200  0.2318 -0.1622  0.3464
  386MOL0     C52017  15.144  10.663   7.255  0.4176  0.0684  1.2404
  386MOL0     C52018  15.278  10.584   7.238 -0.0639  0.4206  0.8013
  386MOL0    Cl52019  15.416  10.675   7.289  0.4279 -0.0661 -0.0242
  386MOL0     C52020  14.141  10.500   7.403 -0.1455  0.3610  0.9545
  386MOL0     C52021  14.003  10.508   7.417  0.6890 -0.5944  0.2660
  386MOL0     O52022  13.715  10.404   7.434  0.0715  0.1682  0.1699
  386MOL0     C52023  13.468  10.482   7.528 -0.1431 -0.4310  0.1864
  386MOL0     C52024  13.342  10.530   7.564  0.2295 -0.1240 -0.0427
  386MOL0     N52025  12.798  10.972   7.886  0.0450  0.4754 -0.6477
  386MOL0     N52026  12.728  10.991   7.991  0.0723  0.3582 -0.5090
  386MOL0     C52027  11.576  10.653   7.797  0.4347  0.2527  1.1149
  386MOL0     C52028  11.478  10.585   7.744  0.1209  1.8807 -0.3828
  386MOL0     C52029  11.114  10.271   7.755 -0.2688 -0.2042 -0.0182
  386MOL0     C52030  11.044  10.181   7.822  0.4989  0.7611 -0.5702
  386MOL0     C52031  10.929  10.119   7.777 -0.0406  0.1850 -0.7723
  386MOL0     C52032  10.875  10.154   7.654 -0.2911 -0.3625 -0.0473
  386MOL0     O52033  10.756  10.120   7.599 -0.3501 -0.9183  0.3947
  386MOL0     C52034  10.730   9.976   7.598  0.1157  0.2860 -0.7623
  386MOL0     C52035  10.824   9.909   7.499  0.0469  0.5598 -0.0012
  386MOL0     C52036  10.793   9.758   7.481  0.5888 -0.3024  0.3103
  386MOL0     C52037  10.779   9.679   7.616 -0.8857 -0.2759  0.4008
  386MOL0     C52038  10.872   9.704   7.723 -1.2372  0.5137 -0.2569
  386MOL0     C52039  10.950   9.732   7.811 -0.3716  0.0115  0.8041
  386MOL0     C52040  10.941  10.252   7.581 -0.5409  0.4202  0.3817
  386MOL0     C52041  11.067  10.302   7.622  0.6077 -0.4489  0.3480
  386MOL0     C52042  11.141  10.404   7.536 -0.5695  0.2036  0.7314
  386MOL0     H52043  11.449  10.338   7.977  3.0116 -1.5665 -1.1092
  386MOL0     H52044  11.616  10.483   8.090  1.3131 -0.3200  0.7862
  386MOL0     H52045  11.743  10.676   8.182 -2.6373 -1.3462 -1.7273
  386MOL0     H52046  11.838  10.561   8.074  0.1074 -0.1230  0.8309
  386MOL0     H52047  11.906  10.855   8.121  2.2539 -0.0285  2.0535
  386MOL0     H52048  11.988  10.741   8.018 -1.5345  2.4058 -1.8899
  386MOL0     H52049  12.035  10.593   8.217 -0.4053  0.3951  0.7503
  386MOL0     H52050  11.933  10.700   8.317  0.0255  0.2467 -0.1755
  386MOL0     H52051  12.101  10.881   8.294 -0.6599  0.0932  1.4352
  386MOL0     H52052  12.169  10.726   8.355  0.3411 -3.0768 -2.8732
  386MOL0     H52053  12.236  10.688   8.115 -1.2316 -1.1617 -0.0523
  386MOL0     H52054  12.210  10.865   8.094  3.1699  1.0571  0.1975
  386MOL0     H52055  12.353  10.919   8.299 -0.8075 -1.0534  1.3711
  386MOL0     H52056  12.387  10.757   8.324 -1.1322  2.0183  2.7978
  386MOL0     H52057  12.487  10.757   8.072  0.6705  0.3199 -0.0157
  386MOL0     H52058  12.572  10.841   8.202 -0.8686 -3.3274  1.2475
  386MOL0     H52059  12.395  10.969   7.992  2.2407  1.3819 -2.4939
  386MOL0     H52060  12.473  11.064   8.116  0.0900 -1.0690  1.8031
  386MOL0     H52061  12.494  10.919   7.767  2.2908  0.1048 -1.4325
  386MOL0     H52062  12.702  10.921   7.565 -0.2011  0.1251  1.4054
  386MOL0     H52063  12.724  11.089   7.623  0.3703  1.3475  2.8740
  386MOL0     H52064  12.926  11.001   7.506 -0.5876  0.3454  0.1662
  386MOL0     H52065  12.955  11.055   7.673  0.0607  1.9617 -1.8521
  386MOL0     H52066  12.910  10.756   7.615  0.6988 -0.1007  0.3584
  386MOL0     H52067  12.970  10.834   7.757 -1.6133  1.1356  0.8155
  386MOL0     H52068  13.191  10.898   7.618 -0.8085  0.8398  0.3370
  386MOL0     H52069  13.113  10.850   7.478  1.9285  3.9259  0.1826
  386MOL0     H52070  13.385  10.859   7.502  2.1494 -1.0015  2.0390
  386MOL0     H52071  13.580  10.797   7.442  0.7982  0.0123  0.6453
  386MOL0     H52072  13.933  10.743   7.200  1.4331  0.2492 -0.8393
  386MOL0     H52073  14.163  10.724   7.143  1.3912 -2.4548 -1.5015
  386MOL0     H52074  14.339  10.579   7.083 -0.2190  1.8483 -0.5372
  386MOL0     H52075  14.412  10.720   7.163  1.0973  0.4586 -3.1602
  386MOL0     H52076  14.558  10.452   7.118 -0.3997 -0.0659  1.0392
  386MOL0     H52077  14.584  10.611   7.043 -0.2012  0.1800  0.2296
  386MOL0     H52078  14.646  10.701   7.274 -1.6775 -0.1554  1.1134
  386MOL0     H52079  14.616  10.542   7.340 -0.3723 -0.2000 -0.3942
  386MOL0     H52080  14.789  10.550   7.096  0.7876  2.9432  0.1594
  386MOL0     H52081  14.777  10.440   7.239 -0.1307  0.4240  0.9994
  386MOL0     H52082  14.919  10.595   7.378  1.9550  2.4782  0.3845
  386MOL0     H52083  14.888  10.725   7.258 -2.2682  0.4473  0.5264
  386MOL0     H52084  15.039  10.467   7.212  3.0780  0.2703  2.0655
  386MOL0     H52085  15.035  10.593   7.093  2.6495  0.3147  0.5700
  386MOL0     H52086  15.138  10.695   7.359  0.5547  3.1646  0.3791
  386MOL0     H52087  15.141  10.749   7.188 -0.0874 -2.0872 -1.7507
  386MOL0     H52088  15.277  10.491   7.295  1.9862 -0.2303 -0.1119
  386MOL0     H52089  15.296  10.542   7.138  0.6353 -2.8270  2.1605
  386MOL0     H52090  14.197  10.437   7.471 -3.6054 -2.8307  1.1643
  386MOL0     H52091  13.974  10.452   7.505 -0.1464 -0.7935 -0.1215
  386MOL0     H52092  13.492  10.378   7.548 -2.8432 -1.2246 -0.3054
  386MOL0     H52093  13.270  10.464   7.611  0.0335  0.5969  0.6725
  386MOL0     H52094  11.602  10.749   7.754 -2.3142  0.7822  0.4444
  386MOL0     H52095  11.427  10.605   7.651  0.2108 -0.5821 -1.0303
  386MOL0     H52096  11.090  10.148   7.915  2.0498  1.7741 -0.9332
  386MOL0     H52097  10.882  10.036   7.829  0.3162  0.5526  0.1595
  386MOL0     H52098  10.626   9.965   7.565 -0.6567  4.4986 -0.3530
  386MOL0     H52099  10.743   9.928   7.695 -1.4694  0.8925 -0.2173
  386MOL0     H52100  10.924   9.910   7.542  0.8450  0.1388 -1.7839
  386MOL0     H52101  10.809   9.967   7.408  1.3572  2.1294  0.7388
  386MOL0     H52102  10.870   9.715   7.416 -0.3886 -2.4568  0.4802
  386MOL0     H52103  10.695   9.742   7.436  0.2862  0.8714  0.5292
  386MOL0     H52104  10.677   9.693   7.652 -0.8669  0.3596  0.2285
  386MOL0     H52105  10.793   9.574   7.592 -0.8920 -0.1560 -0.1472
  386MOL0     H52106  11.027   9.765   7.877  0.5697 -0.1933 -0.1584
  386MOL0     H52107  10.890  10.286   7.491 -1.3153 -2.3835 -0.3213
  386MOL0     H52108  11.173  10.491   7.595  2.0177  0.4837 -0.9247
  386MOL0     H52109  11.233  10.362   7.495 -1.0985  0.6614 -1.0232
  386MOL0     H52110  11.076  10.440   7.456  0.9843 -0.6326 -0.9730
  387MOL0     O52111  11.091   0.934   0.102  0.1459 -0.2183 -1.3848
  387MOL0     C52112  11.026   0.888   0.018  0.6691 -0.0346  0.0020
  387MOL0     O52113  11.066   0.854  -0.103 -0.1952 -0.2315 -0.0540
  387MOL0     C52114  11.196   0.823  -0.136  0.0805  0.5898 -0.6335
  387MOL0     C52115  11.222   0.810  -0.273  0.8569 -0.0734  0.1166
  387MOL0     C52116  11.336   0.761  -0.322 -0.1339  0.0832 -0.1996
  387MOL0     C52117  11.443   0.741  -0.236 -0.7795  0.9817 -0.7289
  387MOL0     O52118  11.568   0.690  -0.266  0.2970  0.8948 -0.2381
  387MOL0     C52119  11.601   0.689  -0.405  0.6038 -0.7429  0.3991
  387MOL0     C52120  11.742   0.647  -0.428  0.1653  0.0014  0.2333
  387MOL0     C52121  11.849   0.727  -0.355 -0.1911  0.0584  0.7018
  387MOL0     C52122  11.876   0.866  -0.426  0.3902  1.1403 -0.2692
  387MOL0     C52123  12.014   0.894  -0.414  0.2453 -0.8433  0.4838
  387MOL0     C52124  12.053   1.037  -0.463  0.3412 -0.9298  0.5325
  387MOL0     C52125  12.194   1.066  -0.424  0.3690  0.9242 -0.8272
  387MOL0     C52126  12.206   1.112  -0.281  0.3490  0.2120 -0.3956
  387MOL0     N52127  12.349   1.146  -0.248  0.2385 -0.1032 -0.1132
  387MOL0     C52128  12.407   1.264  -0.293  0.1406 -0.1145 -0.6329
  387MOL0     C52129  12.547   1.255  -0.302  0.4408  0.5605  0.5168
  387MOL0     C52130  12.650   1.353  -0.339 -0.0292  0.3665  0.0519
  387MOL0     C52131  12.708   1.311  -0.480 -0.3564 -0.1727  0.4482
  387MOL0     C52132  12.792   1.416  -0.548 -0.3936  0.2706  0.0808
  387MOL0     C52133  12.909   1.471  -0.458  0.9810 -0.0200  0.1588
  387MOL0     O52134  12.993   1.564  -0.524 -0.3098 -0.5554  0.4083
  387MOL0     C52135  13.115   1.581  -0.455 -0.1107 -0.6535 -0.2140
  387MOL0     C52136  13.119   1.600  -0.315 -0.2083 -0.5628 -1.4936
  387MOL0     C52137  13.239   1.647  -0.252  1.0517 -0.8224  0.2114
  387MOL0     C52138  13.350   1.667  -0.330 -0.0407  0.0373 -0.0859
  387MOL0     C52139  13.470   1.719  -0.270 -0.8912  0.3034  0.5293
  387MOL0     O52140  13.474   1.737  -0.132 -0.1034 -0.2346 -0.1227
  387MOL0     C52141  13.598   1.747  -0.083  0.0478 -1.2515 -0.9769
  387MOL0     C52142  13.687   1.644  -0.062 -0.4894  0.6583  0.1742
  387MOL0     C52143  13.803   1.666   0.013 -1.0665  0.6940  0.2508
  387MOL0     C52144  13.840   1.791   0.064  1.4641 -1.3648  0.6087
  387MOL0     O52145  13.959   1.816   0.116 -0.2368 -0.7167 -0.5439
  387MOL0     C52146  14.064   1.812   0.026 -0.7995 -0.2747  0.2907
  387MOL0     C52147  14.183   1.886   0.092 -0.2073  0.9353  0.6345
  387MOL0     C52148  14.310   1.882   0.004  0.2798  0.0982 -0.0818
  387MOL0     C52149  14.418   1.972   0.060  0.2504  1.1093  0.0069
  387MOL0     C52150  14.561   1.936  -0.004  0.5887 -0.3661  0.1877
  387MOL0     C52151  14.665   2.030   0.062  0.2484  0.4883 -0.5816
  387MOL0     C52152  14.795   2.036  -0.021  0.3425 -0.5369 -0.1119
  387MOL0     C52153  14.888   2.133   0.046 -0.7968  0.3151 -0.2249
  387MOL0    Cl52154  15.017   2.173  -0.067 -0.2103 -0.4248 -0.0545
  387MOL0     C52155  13.751   1.896   0.041  0.5073  0.1297  0.0294
  387MOL0     C52156  13.633   1.875  -0.035 -0.4282 -0.1648 -0.3844
  387MOL0     O52157  13.563   1.717  -0.345 -0.0033 -0.2657 -0.2203
  387MOL0     C52158  13.350   1.635  -0.471 -0.1352 -0.7326 -0.5331
  387MOL0     C52159  13.232   1.596  -0.534 -0.5649  0.3906  0.1889
  387MOL0     N52160  12.563   1.120  -0.284 -0.7684  0.0580  0.2225
  387MOL0     N52161  12.450   1.059  -0.248  0.7780 -0.4013 -0.0411
  387MOL0     C52162  11.426   0.766  -0.096  0.4923 -0.2351 -0.2102
  387MOL0     C52163  11.302   0.818  -0.048 -0.6159  0.2565 -0.3287
  387MOL0     C52164  10.880   0.907   0.027 -0.1021  0.0770 -0.2903
  387MOL0     C52165  10.840   1.016   0.114 -0.4393  0.6408  0.7606
  387MOL0     C52166  10.705   1.031   0.128  0.0186  0.1018 -0.4146
  387MOL0     C52167  10.605   0.941   0.072  0.2138 -0.4014 -0.8356
  387MOL0     O52168  10.469   0.947   0.098 -0.3716  0.0429 -0.0091
  387MOL0     C52169  10.413   1.035   0.197  0.5946 -0.2000 -0.6144
  387MOL0     C52170  10.261   0.989   0.219 -0.2692  0.1069 -0.4670
  387MOL0     C52171  10.191   1.094   0.294  0.3898  0.8388 -0.4361
  387MOL0     C52172  10.054   1.032   0.324 -0.2743  0.2910 -0.0504
  387MOL0     C52173   9.983   1.130   0.414 -0.4973  0.8459  0.4350
  387MOL0     C52174   9.926   1.223   0.469  0.4330  1.2972  0.0141
  387MOL0     C52175  10.650   0.843  -0.019  0.9989 -0.7756 -0.7163
  387MOL0     C52176  10.789   0.820  -0.034  0.9038 -1.0435 -0.0836
  387MOL0     C52177  10.824   0.693  -0.108 -0.1979  0.1296  0.2756
  387MOL0     H52178  11.141   0.828  -0.342 -0.0237  1.5861  1.5073
  387MOL0     H52179  11.336   0.752  -0.430 -0.9427 -1.1820 -0.1102
  387MOL0     H52180  11.537   0.621  -0.462  1.6940 -2.9423  1.6770
  387MOL0     H52181  11.590   0.793  -0.440 -2.6791 -0.0441  2.9883
  387MOL0     H52182  11.759   0.660  -0.536  0.2542 -0.4948  0.1847
  387MOL0     H52183  11.760   0.543  -0.399  0.1211  0.4112  1.8023
  387MOL0     H52184  11.934   0.658  -0.359 -0.2492  0.0097  0.2510
  387MOL0     H52185  11.823   0.741  -0.250  1.3991  0.3638  1.0749
  387MOL0     H52186  11.850   0.865  -0.532 -2.4835  1.0903  0.3463
  387MOL0     H52187  11.820   0.944  -0.374  1.5493  2.6134 -1.1551
  387MOL0     H52188  12.042   0.879  -0.309 -0.2888  1.1382  0.9617
  387MOL0     H52189  12.065   0.821  -0.478 -1.9470 -0.3271 -2.0220
  387MOL0     H52190  12.043   1.051  -0.571 -1.2002  0.1725  0.7762
  387MOL0     H52191  11.988   1.114  -0.420  0.2140 -0.3317 -0.6974
  387MOL0     H52192  12.227   1.147  -0.490  1.0042  1.0677 -0.3465
  387MOL0     H52193  12.262   0.981  -0.440  0.2346  0.4148  1.1418
  387MOL0     H52194  12.155   1.209  -0.273  0.4850  0.1333  2.6504
  387MOL0     H52195  12.155   1.044  -0.212 -0.7932 -0.6032 -1.9797
  387MOL0     H52196  12.352   1.356  -0.309  0.8778  0.4962  0.2263
  387MOL0     H52197  12.602   1.451  -0.340  0.6570  0.7918  2.3048
  387MOL0     H52198  12.725   1.357  -0.259  1.0048 -1.5805 -0.7415
  387MOL0     H52199  12.773   1.224  -0.459  1.3454  1.4301  2.2526
  387MOL0     H52200  12.621   1.276  -0.536  0.1462 -0.7423  0.0097
  387MOL0     H52201  12.723   1.500  -0.559 -3.4990 -2.0851  0.1988
  387MOL0     H52202  12.819   1.385  -0.650 -0.7777  0.3053 -0.0316
  387MOL0     H52203  12.968   1.386  -0.420 -0.2894 -1.3136 -0.6501
  387MOL0     H52204  12.852   1.515  -0.376 -2.3384 -0.5463 -1.6644
  387MOL0     H52205  13.027   1.609  -0.258 -0.5136 -0.5504 -1.9824
  387MOL0     H52206  13.242   1.672  -0.146  1.3246  0.0850 -0.0012
  387MOL0     H52207  13.665   1.543  -0.096 -0.9082  0.7228  0.2445
  387MOL0     H52208  13.868   1.580   0.028 -0.8778  0.6959 -0.5188
  387MOL0     H52209  14.094   1.709   0.006  0.7467 -0.2633  2.2444
  387MOL0     H52210  14.047   1.858  -0.072 -0.4426 -1.7475 -0.4971
  387MOL0     H52211  14.155   1.989   0.115 -2.3397  1.0632 -2.0570
  387MOL0     H52212  14.209   1.834   0.185  1.7052  0.4416 -0.1322
  387MOL0     H52213  14.349   1.780   0.002 -0.4545 -0.1769 -0.7809
  387MOL0     H52214  14.286   1.909  -0.099 -0.8923  0.5192  0.2845
  387MOL0     H52215  14.424   1.963   0.169 -0.0791 -1.6632 -0.1343
  387MOL0     H52216  14.391   2.074   0.031  2.9316  2.1086  0.7267
  387MOL0     H52217  14.552   1.951  -0.112 -0.8358  3.4905  0.6968
  387MOL0     H52218  14.576   1.829   0.013 -0.3890 -0.8299 -1.6008
  387MOL0     H52219  14.609   2.124   0.071 -1.5095 -0.2324 -2.8210
  387MOL0     H52220  14.692   2.008   0.165 -0.1736  1.7493 -0.1845
  387MOL0     H52221  14.756   2.070  -0.117 -2.9659 -0.9656  0.9645
  387MOL0     H52222  14.842   1.939  -0.036  0.8370 -0.2036 -0.8145
  387MOL0     H52223  14.835   2.224   0.076 -1.1162 -0.5502  2.0312
  387MOL0     H52224  14.929   2.095   0.140 -1.5101 -0.5683 -0.2601
  387MOL0     H52225  13.772   1.999   0.069 -2.1932  0.5866  0.6378
  387MOL0     H52226  13.569   1.962  -0.046  0.5407  0.9616  2.1518
  387MOL0     H52227  13.438   1.636  -0.535  1.6330  0.3524  1.7888
  387MOL0     H52228  13.234   1.569  -0.639  1.6168 -0.1158  0.3355
  387MOL0     H52229  11.499   0.731  -0.024 -2.9554  1.5846  4.7476
  387MOL0     H52230  11.292   0.810   0.059  0.8849 -0.4806 -0.2118
  387MOL0     H52231  10.915   1.083   0.155  1.6660 -0.8653 -0.4303
  387MOL0     H52232  10.677   1.119   0.185 -2.8399 -0.2409 -1.1506
  387MOL0     H52233  10.420   1.138   0.159  3.3119 -0.1607 -0.1664
  387MOL0     H52234  10.456   1.032   0.298 -2.3851 -1.3921  0.7342
  387MOL0     H52235  10.255   0.891   0.269 -1.3821  0.5316  0.2767
  387MOL0     H52236  10.215   0.977   0.121 -0.6431 -1.4515 -0.1273
  387MOL0     H52237  10.180   1.175   0.221 -1.3472  0.3859 -0.7338
  387MOL0     H52238  10.233   1.133   0.387  1.2481 -0.3023 -0.3243
  387MOL0     H52239   9.999   1.026   0.230 -0.1914  0.1382 -0.0892
  387MOL0     H52240  10.054   0.938   0.380 -0.8929  0.8443  0.9229
  387MOL0     H52241   9.874   1.293   0.531 -0.9092 -0.7608  1.3491
  387MOL0     H52242  10.590   0.781  -0.085  0.9134  0.1567 -1.5391
  387MOL0     H52243  10.878   0.622  -0.045 -2.6879 -2.3229 -0.1225
  387MOL0     H52244  10.741   0.642  -0.158 -3.1201  4.0012  0.7247
  387MOL0     H52245  10.891   0.717  -0.191 -0.5198  1.4286  0.3737
  388MOL0     O52246   9.692   1.053  11.205  0.4506  0.0539 -0.0296
  388MOL0     C52247   9.701   1.128  11.303  0.0653  0.4109  0.0784
  388MOL0     O52248   9.809   1.213  11.319 -0.3572 -0.0840 -0.2910
  388MOL0     C52249   9.927   1.217  11.241 -1.0815 -0.1634 -0.8045
  388MOL0     C52250   9.963   1.162  11.115 -0.0622  0.2556  0.0177
  388MOL0     C52251  10.092   1.172  11.062 -0.2832  0.3885 -1.2711
  388MOL0     C52252  10.184   1.264  11.110  0.7546  0.3703  0.3510
  388MOL0     O52253  10.295   1.290  11.036  0.3803  0.5258 -0.3853
  388MOL0     C52254  10.430   1.286  11.089  0.2370  0.4873 -0.0227
  388MOL0     C52255  10.507   1.166  11.016  0.0663  0.0989 -0.2574
  388MOL0     C52256  10.656   1.173  11.053  1.2814  0.6239  0.5288
  388MOL0     C52257  10.737   1.051  11.016 -0.6180  0.2931 -0.3068
  388MOL0     C52258  10.894   1.069  11.031  1.2637  0.2731  0.4180
  388MOL0     C52259  10.968   1.169  10.944 -0.2910 -0.7164 -0.0454
  388MOL0     C52260  11.118   1.160  10.933  0.1949 -0.3096  0.4546
  388MOL0     C52261  11.170   1.246  11.053  0.5043 -0.1887  0.2973
  388MOL0     N52262  11.315   1.257  11.046 -0.9315  0.5638 -0.0629
  388MOL0     C52263  11.395   1.146  11.045 -0.1633  0.2122 -0.7036
  388MOL0     C52264  11.520   1.199  11.053 -0.8843 -0.5764 -0.3675
  388MOL0     C52265  11.643   1.116  11.059 -0.4948 -0.5653 -0.0057
  388MOL0     C52266  11.780   1.185  11.066  0.7151 -1.0401 -0.5193
  388MOL0     C52267  11.782   1.274  11.193 -0.1938  0.2374  0.2240
  388MOL0     C52268  11.924   1.343  11.209 -0.3877  0.2934 -0.0603
  388MOL0     O52269  11.947   1.450  11.118 -0.1011  0.0960 -1.2844
  388MOL0     C52270  12.075   1.497  11.113 -0.4669 -0.0734  0.5635
  388MOL0     C52271  12.183   1.472  11.197  0.3800  0.0267  0.0567
  388MOL0     C52272  12.311   1.523  11.181 -0.5527  0.0958  0.1469
  388MOL0     C52273  12.337   1.630  11.100  0.9242  0.1121  0.4006
  388MOL0     C52274  12.469   1.691  11.091  0.0145 -0.1977  0.6185
  388MOL0     O52275  12.472   1.803  11.011 -0.0661 -0.1322 -0.1929
  388MOL0     C52276  12.590   1.858  10.981 -0.7804  0.4809 -0.2555
  388MOL0     C52277  12.693   1.776  10.928  0.2608 -0.5074 -0.0107
  388MOL0     C52278  12.811   1.832  10.890  0.4472  0.2248  0.1180
  388MOL0     C52279  12.826   1.971  10.892 -0.7118 -0.6798 -0.1628
  388MOL0     O52280  12.947   2.029  10.842  0.5952 -0.2525  0.2207
  388MOL0     C52281  13.066   1.981  10.900 -0.1766 -0.2836  0.0030
  388MOL0     C52282  13.188   2.060  10.851  0.4751 -0.4693 -0.2324
  388MOL0     C52283  13.316   2.020  10.908 -0.1960 -0.0242 -0.3308
  388MOL0     C52284  13.416   2.118  10.853 -0.2332 -0.1408  0.1515
  388MOL0     C52285  13.552   2.052  10.867  0.2961  0.2340 -0.3512
  388MOL0     C52286  13.663   2.126  10.778  0.5765  0.7505  0.0830
  388MOL0     C52287  13.813   2.097  10.811 -0.5320  0.5526  0.0138
  388MOL0     C52288  13.833   1.940  10.840  0.6287 -0.4923  1.0955
  388MOL0    Cl52289  13.978   1.902  10.917 -0.2518 -0.0733 -0.1990
  388MOL0     C52290  12.715   2.051  10.940 -0.5688  0.3180 -0.3290
  388MOL0     C52291  12.604   1.995  10.977 -0.6175  0.2740 -0.1123
  388MOL0     O52292  12.572   1.637  11.145 -0.3755  0.1190  0.3085
  388MOL0     C52293  12.236   1.668  11.007  0.3444 -0.6912 -0.2020
  388MOL0     C52294  12.108   1.603  11.021  0.0459 -0.0804  0.3073
  388MOL0     N52295  11.510   1.340  11.043  0.2757  0.3696 -0.2832
  388MOL0     N52296  11.384   1.376  11.053  0.1057  0.2358 -0.7158
  388MOL0     C52297  10.147   1.319  11.236 -0.2415 -0.2405 -0.1940
  388MOL0     C52298  10.029   1.296  11.298  0.3982  0.2298  0.7861
  388MOL0     C52299   9.591   1.133  11.410 -0.5197  1.1012  0.3859
  388MOL0     C52300   9.611   1.223  11.520 -0.3737  0.1540 -0.2881
  388MOL0     C52301   9.509   1.238  11.615  0.4001  0.1918 -0.1772
  388MOL0     C52302   9.394   1.156  11.612 -0.2186  0.3871 -0.4633
  388MOL0     O52303   9.302   1.172  11.717  0.5976 -0.2395  0.4146
  388MOL0     C52304   9.203   1.068  11.728  1.2110  0.0088  0.6636
  388MOL0     C52305   9.104   1.101  11.844 -0.3604 -0.0377  0.1844
  388MOL0     C52306   8.988   1.006  11.827  1.2517  0.8906 -0.4426
  388MOL0     C52307   8.887   1.007  11.946 -0.2813 -0.1313 -0.0071
  388MOL0     C52308   8.781   0.902  11.942  0.3954 -0.4861  0.0219
  388MOL0     C52309   8.674   0.840  11.933  0.7304 -1.0215 -0.4350
  388MOL0     C52310   9.374   1.068  11.506  0.6551 -0.2820 -0.5917
  388MOL0     C52311   9.468   1.054  11.403 -0.4586 -0.4478 -0.2979
  388MOL0     C52312   9.448   0.940  11.303  0.4995 -0.0895 -0.2486
  388MOL0     H52313   9.887   1.100  11.068 -0.2580 -0.3203  1.0610
  388MOL0     H52314  10.104   1.108  10.975 -0.4991 -1.4486 -0.0121
  388MOL0     H52315  10.490   1.377  11.072  3.1143 -1.6014 -2.1798
  388MOL0     H52316  10.432   1.272  11.197  1.3188 -0.6083 -0.1528
  388MOL0     H52317  10.497   1.174  10.908 -0.9631  1.9609 -0.0559
  388MOL0     H52318  10.464   1.072  11.054  0.4442  0.7566  1.9641
  388MOL0     H52319  10.678   1.197  11.158  1.4966 -0.7976  0.8283
  388MOL0     H52320  10.686   1.261  10.995 -0.1428  0.3916 -0.6015
  388MOL0     H52321  10.698   0.966  11.073 -0.7220 -0.3222 -1.2791
  388MOL0     H52322  10.708   1.032  10.912  0.2669 -3.5348 -0.0158
  388MOL0     H52323  10.906   1.107  11.133 -3.3330  2.5492  0.3856
  388MOL0     H52324  10.935   0.973  10.999  1.2482  0.3169  0.2671
  388MOL0     H52325  10.926   1.157  10.844  0.4710  5.0461 -1.4340
  388MOL0     H52326  10.937   1.266  10.984  2.5784 -0.2426  1.3087
  388MOL0     H52327  11.138   1.204  10.835 -2.5367  3.5366  1.3701
  388MOL0     H52328  11.152   1.057  10.947  1.4766  0.0495  0.0918
  388MOL0     H52329  11.124   1.345  11.043  0.5680 -0.2451 -0.6565
  388MOL0     H52330  11.145   1.201  11.149  0.8810 -1.0474  0.0061
  388MOL0     H52331  11.368   1.041  11.040  2.1939 -0.6721  2.0123
  388MOL0     H52332  11.647   1.055  11.150  1.0881  0.8614  0.9573
  388MOL0     H52333  11.638   1.048  10.973 -0.3174  0.8879 -1.2036
  388MOL0     H52334  11.858   1.110  11.081 -0.0937 -1.6527  0.8826
  388MOL0     H52335  11.790   1.243  10.974  0.6162 -0.9911 -0.4998
  388MOL0     H52336  11.769   1.226  11.290 -0.0902  0.8205  0.5359
  388MOL0     H52337  11.705   1.351  11.186 -1.3033 -0.9687 -1.5920
  388MOL0     H52338  12.000   1.272  11.175  1.2193  0.3094  3.1461
  388MOL0     H52339  11.927   1.362  11.316  0.8095 -0.8220  0.1367
  388MOL0     H52340  12.168   1.396  11.273 -1.3539  0.6692  0.3972
  388MOL0     H52341  12.389   1.491  11.249  0.2129  0.2800 -0.6308
  388MOL0     H52342  12.676   1.670  10.911  2.2111 -0.5324 -2.4428
  388MOL0     H52343  12.893   1.768  10.857 -0.6191 -1.2388  0.2160
  388MOL0     H52344  13.055   1.993  11.008  2.3739 -2.1775  0.5710
  388MOL0     H52345  13.078   1.876  10.871 -0.7739  0.1149 -1.8091
  388MOL0     H52346  13.196   2.055  10.742 -1.8025  0.2076 -0.4835
  388MOL0     H52347  13.176   2.167  10.870  1.7817 -0.1446 -1.1021
  388MOL0     H52348  13.323   2.025  11.017  0.8996 -0.9247 -0.3537
  388MOL0     H52349  13.330   1.915  10.881 -2.7516 -1.2515  2.4592
  388MOL0     H52350  13.406   2.215  10.901 -0.8003 -0.4778  0.7268
  388MOL0     H52351  13.404   2.153  10.750  2.9159  3.4194  0.7715
  388MOL0     H52352  13.554   1.949  10.829 -2.8610 -0.2525  0.5339
  388MOL0     H52353  13.582   2.038  10.971  2.5483 -1.6295 -1.1713
  388MOL0     H52354  13.655   2.121  10.670 -0.2681 -1.6097  0.2041
  388MOL0     H52355  13.658   2.232  10.804  1.8958  1.0184 -0.6930
  388MOL0     H52356  13.841   2.154  10.900  0.7774 -0.7335  0.4669
  388MOL0     H52357  13.873   2.142  10.731  0.2408 -1.5225 -0.6435
  388MOL0     H52358  13.756   1.906  10.911 -0.9229 -0.3837 -0.4622
  388MOL0     H52359  13.807   1.885  10.749  1.2098 -1.0178  1.2433
  388MOL0     H52360  12.716   2.159  10.943 -2.1164  0.3954 -1.1956
  388MOL0     H52361  12.534   2.052  11.037  0.2811 -0.7971  2.0932
  388MOL0     H52362  12.235   1.743  10.929  0.1502  0.5917  0.9997
  388MOL0     H52363  12.023   1.648  10.971  0.0908  1.4887  1.5558
  388MOL0     H52364  10.225   1.383  11.277  0.5480 -1.2516 -0.0619
  388MOL0     H52365  10.006   1.341  11.393  0.5446  0.4298  0.7268
  388MOL0     H52366   9.705   1.275  11.530 -1.1448  1.2042  2.7234
  388MOL0     H52367   9.515   1.302  11.702 -2.4507  0.9573 -0.4503
  388MOL0     H52368   9.251   0.970  11.734 -1.7234 -1.4828  2.2720
  388MOL0     H52369   9.146   1.069  11.634  1.4748 -2.2418  0.4224
  388MOL0     H52370   9.071   1.205  11.843  0.0219  0.0980 -1.5740
  388MOL0     H52371   9.153   1.095  11.942 -0.3127 -0.3482  0.1427
  388MOL0     H52372   9.023   0.903  11.828 -1.3615 -0.0700  0.3932
  388MOL0     H52373   8.933   1.027  11.735 -0.7222  4.1132  1.2952
  388MOL0     H52374   8.936   0.997  12.043 -2.2640  1.2504  1.2215
  388MOL0     H52375   8.840   1.106  11.945 -0.1424 -0.0656 -0.1358
  388MOL0     H52376   8.584   0.786  11.913 -0.4467  1.2899 -1.8153
  388MOL0     H52377   9.286   1.004  11.505  0.5113 -0.2441  2.1659
  388MOL0     H52378   9.384   0.869  11.355 -0.8845  2.9938  2.6237
  388MOL0     H52379   9.399   0.979  11.213  2.3849 -1.3942 -1.9218
  388MOL0     H52380   9.532   0.885  11.259  0.3341  2.7780 -4.8818
  389MOL0     O52381   8.925   1.115   9.815 -0.6574  0.4287 -0.5989
  389MOL0     C52382   8.921   0.992   9.844 -0.0853  1.1399  0.6604
  389MOL0     O52383   9.024   0.905   9.820  0.6412 -0.2987 -0.1109
  389MOL0     C52384   9.136   0.955   9.757  0.0287  0.3682  0.0967
  389MOL0     C52385   9.150   0.935   9.620  0.0729 -0.8236  0.1550
  389MOL0     C52386   9.277   0.969   9.569 -0.4911  0.0267 -0.6249
  389MOL0     C52387   9.377   1.026   9.646  0.1502 -0.1759 -0.0244
  389MOL0     O52388   9.481   1.065   9.572  0.2108  0.1395 -0.0962
  389MOL0     C52389   9.611   1.058   9.644  0.3949 -0.3763 -0.4769
  389MOL0     C52390   9.729   1.032   9.559  1.0140 -0.9465  0.2440
  389MOL0     C52391   9.867   1.045   9.628  0.3724  0.7783  0.1152
  389MOL0     C52392   9.980   1.042   9.531 -0.2080 -0.2508 -0.1215
  389MOL0     C52393  10.120   1.035   9.591  0.6428 -0.3141 -0.1901
  389MOL0     C52394  10.218   1.032   9.481 -0.6201 -0.3463  0.7469
  389MOL0     C52395  10.366   1.041   9.521 -0.5477 -0.0201  0.2559
  389MOL0     C52396  10.412   0.909   9.575 -1.3831 -0.0107  0.8517
  389MOL0     N52397  10.554   0.904   9.597 -0.3389  0.1452 -0.3594
  389MOL0     C52398  10.615   0.881   9.722  0.3554 -0.0356  0.2164
  389MOL0     C52399  10.741   0.868   9.687  0.1992  0.3887  0.2000
  389MOL0     C52400  10.848   0.865   9.789 -1.2707  0.4759 -1.0353
  389MOL0     C52401  10.838   0.758   9.891 -0.1565 -0.4125 -0.6471
  389MOL0     C52402  10.849   0.621   9.826  0.1588 -0.3260  0.6293
  389MOL0     C52403  10.821   0.508   9.926  0.0357 -0.0723  0.5437
  389MOL0     O52404  10.802   0.387   9.856  0.0499 -0.0255  0.5428
  389MOL0     C52405  10.677   0.350   9.817 -0.7127  0.5859  0.6928
  389MOL0     C52406  10.570   0.441   9.814  0.6154  0.3843  0.5135
  389MOL0     C52407  10.443   0.404   9.773 -0.5410  0.6386 -0.3398
  389MOL0     C52408  10.415   0.273   9.730  0.1627 -0.0943 -0.8949
  389MOL0     C52409  10.284   0.215   9.690  0.6750 -0.4529 -0.2762
  389MOL0     O52410  10.270   0.080   9.671  0.2207  0.2223  0.0483
  389MOL0     C52411  10.152   0.018   9.635 -0.8624 -0.4703 -0.1035
  389MOL0     C52412  10.179  -0.114   9.589  0.8392  0.0436  0.4262
  389MOL0     C52413  10.083  -0.184   9.525  0.0346  0.1800 -0.5979
  389MOL0     C52414   9.947  -0.147   9.521  0.4801  0.3563 -0.4600
  389MOL0     O52415   9.857  -0.239   9.470 -0.8546 -0.0065  0.4355
  389MOL0     C52416   9.720  -0.214   9.492  0.6041  0.1015 -0.4730
  389MOL0     C52417   9.632  -0.303   9.412  0.1693 -0.1390 -0.2793
  389MOL0     C52418   9.495  -0.320   9.475  0.8348  0.5925  0.4288
  389MOL0     C52419   9.424  -0.186   9.457 -0.2025  0.6631 -0.0852
  389MOL0     C52420   9.271  -0.200   9.452  0.1160  0.5020  0.5342
  389MOL0     C52421   9.221  -0.217   9.590  0.2930 -0.1095  0.0450
  389MOL0     C52422   9.064  -0.192   9.594  0.0280 -0.1217 -0.3496
  389MOL0     C52423   9.004  -0.206   9.737 -0.1299  0.4969 -0.0603
  389MOL0    Cl52424   9.081  -0.085   9.840 -0.2579 -0.1115 -0.2151
  389MOL0     C52425   9.918  -0.020   9.583  0.0731 -0.1556  0.0149
  389MOL0     C52426  10.024   0.066   9.639  1.0041  0.1177 -1.0808
  389MOL0     O52427  10.193   0.298   9.669 -0.3723  0.2784 -0.0280
  389MOL0     C52428  10.521   0.183   9.730  0.1049 -0.4485  0.4002
  389MOL0     C52429  10.653   0.221   9.768 -0.3589  0.1192 -0.0628
  389MOL0     N52430  10.765   0.876   9.549  0.4419  0.9571 -0.6121
  389MOL0     N52431  10.645   0.889   9.498 -0.1130 -0.4303 -0.7382
  389MOL0     C52432   9.358   1.041   9.784 -0.5305 -0.3796  0.0362
  389MOL0     C52433   9.240   1.013   9.840 -0.7347 -0.4495 -0.8237
  389MOL0     C52434   8.804   0.941   9.910  0.1794  0.5226  0.4218
  389MOL0     C52435   8.812   0.816   9.970  0.0090  0.5687 -0.6221
  389MOL0     C52436   8.723   0.762  10.055  1.0196 -0.4313  0.2585
  389MOL0     C52437   8.609   0.845  10.087 -0.4499 -0.0364 -0.2917
  389MOL0     O52438   8.506   0.811  10.171 -0.0557 -0.2002  0.0441
  389MOL0     C52439   8.459   0.668  10.175  0.0130 -0.2660  0.2057
  389MOL0     C52440   8.383   0.618  10.043 -0.6338  0.0551  0.1560
  389MOL0     C52441   8.298   0.490  10.070  0.3884  0.1840 -0.1164
  389MOL0     C52442   8.360   0.375  10.144  0.0295 -1.0645 -0.5317
  389MOL0     C52443   8.443   0.297  10.051  0.2684  0.4105  0.1769
  389MOL0     C52444   8.514   0.245   9.968 -0.4312  0.1562 -0.2264
  389MOL0     C52445   8.597   0.974  10.032  0.3067 -0.4069  0.3360
  389MOL0     C52446   8.695   1.022   9.939  1.3154  0.3358  0.1390
  389MOL0     C52447   8.666   1.159   9.881  0.1358 -0.2038  0.4466
  389MOL0     H52448   9.080   0.896   9.547 -0.1524  1.1494 -0.7382
  389MOL0     H52449   9.305   0.966   9.465  1.5908  1.1029 -0.1528
  389MOL0     H52450   9.620   1.156   9.691 -0.1325  0.5073 -2.1322
  389MOL0     H52451   9.604   0.978   9.718  1.1128 -0.0607 -0.0553
  389MOL0     H52452   9.736   1.098   9.473  1.3845 -0.6787  0.4761
  389MOL0     H52453   9.729   0.930   9.520  1.5801 -1.3236  1.1813
  389MOL0     H52454   9.871   0.959   9.696 -0.7690 -0.1625 -0.9468
  389MOL0     H52455   9.867   1.128   9.699 -1.9514 -1.9472  3.6667
  389MOL0     H52456   9.961   0.949   9.476  0.2136  0.6874 -1.8962
  389MOL0     H52457   9.973   1.133   9.472  1.6523  1.3484  1.9536
  389MOL0     H52458  10.132   1.119   9.661  2.6750  0.0096 -0.8481
  389MOL0     H52459  10.123   0.947   9.657 -1.9346 -0.7900 -0.6201
  389MOL0     H52460  10.197   0.950   9.412  2.1270 -2.5054  2.2483
  389MOL0     H52461  10.211   1.125   9.423  2.9285 -1.4814 -1.8162
  389MOL0     H52462  10.387   1.122   9.592  0.0947  0.6426 -0.6784
  389MOL0     H52463  10.426   1.062   9.433  0.2901 -0.1280  0.7878
  389MOL0     H52464  10.365   0.884   9.670 -1.8499  1.4779  1.0344
  389MOL0     H52465  10.385   0.829   9.505 -0.4617  0.0485  0.4137
  389MOL0     H52466  10.566   0.876   9.819  0.0638 -2.4136  0.0059
  389MOL0     H52467  10.946   0.860   9.740 -1.9121 -1.1702 -2.2550
  389MOL0     H52468  10.842   0.965   9.833 -0.4117 -0.6768  1.9618
  389MOL0     H52469  10.919   0.774   9.962 -0.4682  3.4101 -0.9231
  389MOL0     H52470  10.745   0.759   9.948  1.4976 -0.0723  2.2327
  389MOL0     H52471  10.943   0.600   9.774 -0.7015 -0.3381 -0.9772
  389MOL0     H52472  10.773   0.619   9.748  0.4847  2.0734  0.1774
  389MOL0     H52473  10.743   0.532   9.999 -0.5602 -0.4096  0.0303
  389MOL0     H52474  10.910   0.504   9.990  0.6977  0.5889 -0.3080
  389MOL0     H52475  10.582   0.545   9.842  0.4251  0.3415  0.7596
  389MOL0     H52476  10.364   0.478   9.770  1.1005  2.5769  1.1799
  389MOL0     H52477  10.282  -0.148   9.591  1.8696  2.4520 -3.0962
  389MOL0     H52478  10.110  -0.277   9.477  2.3693  0.7606 -0.5249
  389MOL0     H52479   9.704  -0.231   9.599  0.7960 -1.1922 -0.6438
  389MOL0     H52480   9.689  -0.111   9.473  1.5112  0.6089  0.6232
  389MOL0     H52481   9.629  -0.262   9.311  3.8663 -0.2686 -0.5826
  389MOL0     H52482   9.689  -0.397   9.411 -2.2856 -1.7405 -0.8196
  389MOL0     H52483   9.434  -0.397   9.428  0.3045  1.5654 -0.5252
  389MOL0     H52484   9.487  -0.359   9.577 -1.0963 -2.9713 -0.9119
  389MOL0     H52485   9.451  -0.136   9.364  0.3901  2.1440  0.8555
  389MOL0     H52486   9.460  -0.128   9.543 -2.0582  1.6186  0.1005
  389MOL0     H52487   9.249  -0.293   9.399  3.2637 -0.4565  0.6655
  389MOL0     H52488   9.234  -0.110   9.403  0.5794 -0.2734 -1.3406
  389MOL0     H52489   9.245  -0.319   9.622 -1.7727 -0.0322  2.1811
  389MOL0     H52490   9.262  -0.143   9.660  2.6658 -0.3356 -1.0333
  389MOL0     H52491   9.011  -0.262   9.528  0.2357 -2.5142  1.8527
  389MOL0     H52492   9.043  -0.093   9.553  0.3439 -0.4404 -1.3292
  389MOL0     H52493   8.898  -0.182   9.733 -0.1320  0.2521 -2.0977
  389MOL0     H52494   9.014  -0.306   9.779  0.9070 -0.5254 -2.5598
  389MOL0     H52495   9.816   0.016   9.580  0.7670  1.9140 -0.8685
  389MOL0     H52496  10.006   0.169   9.670  2.4577 -0.3832  1.7579
  389MOL0     H52497  10.515   0.076   9.714  3.1207 -0.4500 -1.5625
  389MOL0     H52498  10.735   0.152   9.760  0.2627  0.8339  0.0624
  389MOL0     H52499   9.443   1.078   9.842  0.7341 -2.0088 -0.6920
  389MOL0     H52500   9.232   1.030   9.947  2.2193  0.4399 -0.6659
  389MOL0     H52501   8.899   0.751   9.969 -1.3231 -1.5328  2.8960
  389MOL0     H52502   8.734   0.663  10.098  0.7230 -1.0117 -0.9647
  389MOL0     H52503   8.387   0.668  10.258 -0.4559  1.2999 -0.1769
  389MOL0     H52504   8.539   0.596  10.197  0.1546  0.6179  2.9895
  389MOL0     H52505   8.460   0.595   9.970  0.8625  0.1359  1.6539
  389MOL0     H52506   8.314   0.696  10.008 -0.3549 -0.2056 -0.9999
  389MOL0     H52507   8.255   0.452   9.977  0.3914 -2.4038  0.8597
  389MOL0     H52508   8.210   0.518  10.129 -3.7577 -2.2668 -4.4528
  389MOL0     H52509   8.415   0.411  10.232 -0.5868  1.1279 -0.9853
  389MOL0     H52510   8.269   0.323  10.178 -0.1476 -1.8693 -2.1629
  389MOL0     H52511   8.569   0.187   9.896  1.7636 -2.3176  3.1602
  389MOL0     H52512   8.502   1.025  10.047  0.6643  0.8383 -1.3332
  389MOL0     H52513   8.703   1.172   9.779 -0.4659  0.0629  0.2605
  389MOL0     H52514   8.559   1.181   9.884  0.2109  0.1712  3.1533
  389MOL0     H52515   8.714   1.234   9.945  2.8785 -2.8910  1.8876
  390MOL0     O52516   8.261   3.636   4.506 -0.2350  0.0879 -0.6518
  390MOL0     C52517   8.234   3.659   4.628  0.4408  0.6255 -0.3306
  390MOL0     O52518   8.109   3.684   4.672  0.8669  0.3402 -0.2351
  390MOL0     C52519   8.007   3.663   4.585  0.1942 -0.1024 -0.1015
  390MOL0     C52520   7.960   3.528   4.565 -0.2376 -0.2094  0.4877
  390MOL0     C52521   7.852   3.510   4.476 -0.2282 -0.3415 -0.3271
  390MOL0     C52522   7.777   3.620   4.425 -1.2018 -0.0020  0.1905
  390MOL0     O52523   7.677   3.597   4.333 -0.8439  0.6301  0.6616
  390MOL0     C52524   7.548   3.552   4.368 -0.9806 -0.1270  0.1194
  390MOL0     C52525   7.484   3.652   4.453 -0.5524 -0.1708  0.4083
  390MOL0     C52526   7.346   3.629   4.486 -0.4681 -0.1599 -0.9862
  390MOL0     C52527   7.288   3.749   4.557  0.0378 -0.0898 -0.6142
  390MOL0     C52528   7.149   3.697   4.611  0.2714 -1.0425 -0.4772
  390MOL0     C52529   7.044   3.810   4.652 -0.0464 -0.1823  0.2897
  390MOL0     C52530   6.942   3.750   4.750 -0.6048  0.3386  0.2896
  390MOL0     C52531   6.856   3.636   4.689  0.2923 -0.1409 -0.2045
  390MOL0     N52532   6.712   3.684   4.665 -0.0606 -0.4321 -0.6999
  390MOL0     C52533   6.673   3.779   4.576  0.4370 -0.2378 -0.3250
  390MOL0     C52534   6.540   3.800   4.591 -0.1566  0.0382 -0.3888
  390MOL0     C52535   6.469   3.909   4.526 -0.1344  0.2758 -0.2495
  390MOL0     C52536   6.405   4.015   4.624 -0.2518 -0.6193  0.8145
  390MOL0     C52537   6.501   4.076   4.721 -0.2037 -0.1314  0.2666
  390MOL0     C52538   6.568   4.199   4.665 -0.0105 -0.0366  0.3977
  390MOL0     O52539   6.649   4.170   4.545 -0.3617 -0.1976  0.1727
  390MOL0     C52540   6.788   4.157   4.538  0.0753 -0.8203 -0.8906
  390MOL0     C52541   6.857   4.165   4.421 -0.2927 -0.4512  0.0359
  390MOL0     C52542   6.999   4.164   4.425  0.7371 -0.5256 -0.6453
  390MOL0     C52543   7.073   4.148   4.540  0.0952 -0.2298 -0.0839
  390MOL0     C52544   7.218   4.143   4.537  0.5250 -0.5239 -0.2105
  390MOL0     O52545   7.285   4.167   4.416 -0.2179  0.1491  0.1713
  390MOL0     C52546   7.418   4.155   4.398  0.0420 -0.6805  0.3055
  390MOL0     C52547   7.466   4.216   4.275  0.5671  0.2115  0.1339
  390MOL0     C52548   7.606   4.220   4.252 -0.0784  0.3289  0.4065
  390MOL0     C52549   7.691   4.147   4.337 -0.3032  0.2502 -0.3267
  390MOL0     O52550   7.827   4.150   4.298  0.2479  0.0908 -0.3034
  390MOL0     C52551   7.937   4.125   4.389  0.0683 -0.8052 -0.0812
  390MOL0     C52552   8.066   4.100   4.317  0.3366 -0.6222  0.2211
  390MOL0     C52553   8.183   4.079   4.415 -0.5733  0.4869 -0.7140
  390MOL0     C52554   8.320   4.085   4.363 -0.4134  0.1618  0.6440
  390MOL0     C52555   8.422   4.003   4.444  0.0657  0.3448  0.1016
  390MOL0     C52556   8.546   3.977   4.360  0.4088  0.0463 -0.7852
  390MOL0     C52557   8.654   3.908   4.442  0.3141  0.1119 -0.0243
  390MOL0     C52558   8.641   3.756   4.466 -0.5743 -0.1038  0.2303
  390MOL0    Cl52559   8.786   3.696   4.541 -0.2571 -0.3890 -0.0390
  390MOL0     C52560   7.638   4.075   4.443  0.3000  0.5649  0.1077
  390MOL0     C52561   7.502   4.076   4.475  0.2868  0.0895 -0.5983
  390MOL0     O52562   7.276   4.132   4.643  0.0660  0.0628 -0.1132
  390MOL0     C52563   6.996   4.127   4.656 -0.3409  0.2147  0.1611
  390MOL0     C52564   6.859   4.133   4.656 -0.1567 -0.2699 -0.5672
  390MOL0     N52565   6.501   3.713   4.685 -0.0378 -0.1253 -0.7194
  390MOL0     N52566   6.601   3.643   4.727 -0.6859 -0.7330 -0.3194
  390MOL0     C52567   7.817   3.748   4.451 -0.6506 -0.1152  0.3125
  390MOL0     C52568   7.930   3.769   4.530  0.2189 -0.4612  0.7303
  390MOL0     C52569   8.345   3.677   4.723 -0.0328  0.1652 -0.0966
  390MOL0     C52570   8.432   3.570   4.742 -1.0318 -0.9210  0.0174
  390MOL0     C52571   8.533   3.573   4.842  0.3032 -0.0500  0.2138
  390MOL0     C52572   8.541   3.676   4.937  0.2582 -0.5385  0.7071
  390MOL0     O52573   8.637   3.668   5.030 -0.1937  0.3015 -0.1900
  390MOL0     C52574   8.655   3.774   5.130  0.7871  0.1939  0.1577
  390MOL0     C52575   8.545   3.772   5.236  0.4158 -0.6035 -0.3251
  390MOL0     C52576   8.569   3.663   5.341  0.4755 -0.4008  0.8754
  390MOL0     C52577   8.515   3.523   5.299 -1.2076 -0.3342 -0.2919
  390MOL0     C52578   8.502   3.431   5.419 -0.0928 -1.1294 -0.3460
  390MOL0     C52579   8.506   3.362   5.514  0.6539 -0.1343 -0.0766
  390MOL0     C52580   8.448   3.782   4.921  0.6389 -0.7621  0.1719
  390MOL0     C52581   8.355   3.788   4.817  1.1530  0.7429  1.2023
  390MOL0     C52582   8.269   3.906   4.789  0.3443  0.0983  0.5003
  390MOL0     H52583   8.014   3.449   4.617  1.0252 -0.2068 -0.7376
  390MOL0     H52584   7.831   3.409   4.440 -0.9658  0.3158 -1.8520
  390MOL0     H52585   7.497   3.529   4.274 -1.6814 -1.2890  0.7525
  390MOL0     H52586   7.556   3.458   4.424 -1.7484 -0.2843 -0.0170
  390MOL0     H52587   7.488   3.750   4.404 -1.8704 -0.3570 -0.1055
  390MOL0     H52588   7.535   3.650   4.550 -2.3852 -1.3122  1.4182
  390MOL0     H52589   7.340   3.533   4.539  2.8864 -0.0296 -0.1042
  390MOL0     H52590   7.287   3.622   4.394 -2.6373  2.0187  0.1673
  390MOL0     H52591   7.347   3.775   4.645 -1.6085 -0.9632  0.8032
  390MOL0     H52592   7.286   3.835   4.489  1.3285  2.5318  2.4148
  390MOL0     H52593   7.105   3.630   4.537 -1.9410 -1.0811  0.7933
  390MOL0     H52594   7.173   3.628   4.692 -2.3310 -1.2367  0.2301
  390MOL0     H52595   7.096   3.897   4.691  0.7820 -0.0340 -1.0616
  390MOL0     H52596   6.989   3.838   4.561  1.0307  0.9997 -0.0253
  390MOL0     H52597   6.869   3.829   4.770  0.1470  0.8358  1.1864
  390MOL0     H52598   6.992   3.726   4.845 -0.8380 -0.3412  0.2449
  390MOL0     H52599   6.891   3.601   4.591 -2.1428  0.7884 -1.4732
  390MOL0     H52600   6.848   3.556   4.764  0.8638 -0.1156 -0.1075
  390MOL0     H52601   6.734   3.843   4.513 -2.0242  1.5146 -1.0600
  390MOL0     H52602   6.523   3.960   4.445  0.4543 -1.9463 -1.3133
  390MOL0     H52603   6.390   3.855   4.473 -0.9609 -0.2736  1.4757
  390MOL0     H52604   6.366   4.089   4.554  1.0120 -1.0572 -0.4093
  390MOL0     H52605   6.329   3.965   4.684 -1.1789  1.8231  1.8071
  390MOL0     H52606   6.579   4.005   4.751 -1.6969 -0.8612  2.6586
  390MOL0     H52607   6.444   4.108   4.809 -0.6092  0.2451 -0.1266
  390MOL0     H52608   6.631   4.248   4.740  0.5274  1.1739 -0.7996
  390MOL0     H52609   6.492   4.270   4.630  0.1571 -0.8750 -1.8494
  390MOL0     H52610   6.798   4.163   4.330  0.5812  0.2531 -0.5641
  390MOL0     H52611   7.050   4.190   4.333 -0.7865  1.5052 -0.9944
  390MOL0     H52612   7.392   4.261   4.210 -1.5766  0.3872  2.5442
  390MOL0     H52613   7.660   4.268   4.170  2.3008 -1.6899  0.6858
  390MOL0     H52614   7.939   4.216   4.450 -0.9048 -0.0230 -1.1515
  390MOL0     H52615   7.915   4.043   4.457  2.1718 -0.4845  1.0583
  390MOL0     H52616   8.051   4.008   4.260 -1.9623 -0.7262  0.8870
  390MOL0     H52617   8.084   4.185   4.251 -0.5696  0.5029  1.3709
  390MOL0     H52618   8.184   4.153   4.496 -1.9356 -2.2866  2.0360
  390MOL0     H52619   8.163   3.989   4.473 -1.2065  1.7175  1.0812
  390MOL0     H52620   8.352   4.189   4.351  1.6252 -0.5825 -1.1117
  390MOL0     H52621   8.311   4.043   4.263 -2.5010 -0.5552  1.0879
  390MOL0     H52622   8.385   3.902   4.463  0.6727  0.6059  3.2539
  390MOL0     H52623   8.444   4.049   4.541 -1.4173 -2.4690  1.8905
  390MOL0     H52624   8.521   3.922   4.269  1.7654 -0.0192 -1.1460
  390MOL0     H52625   8.584   4.076   4.332  1.9322  0.5955  2.6143
  390MOL0     H52626   8.679   3.951   4.539  0.7725 -4.2036  1.9705
  390MOL0     H52627   8.746   3.918   4.382  1.1155 -0.6405  1.0499
  390MOL0     H52628   8.553   3.728   4.526  1.0193 -1.5509  2.0258
  390MOL0     H52629   8.620   3.699   4.375  0.1363 -1.4665  0.9034
  390MOL0     H52630   7.702   4.010   4.502 -1.4674  0.8959  2.5074
  390MOL0     H52631   7.467   4.010   4.553 -0.2148 -0.0224 -0.9154
  390MOL0     H52632   7.049   4.111   4.749 -0.9492 -1.0911  0.3011
  390MOL0     H52633   6.812   4.108   4.750 -2.1131 -0.5595 -1.5616
  390MOL0     H52634   7.774   3.833   4.400  2.7216  0.8311 -1.2166
  390MOL0     H52635   7.957   3.872   4.555 -1.4391  0.0704  0.4734
  390MOL0     H52636   8.428   3.487   4.672 -1.2742  0.7562 -2.0562
  390MOL0     H52637   8.593   3.484   4.861 -1.9178 -1.5717  0.5154
  390MOL0     H52638   8.665   3.867   5.074  2.6507  1.3733  2.2732
  390MOL0     H52639   8.755   3.764   5.174  0.6690  0.4959  0.5015
  390MOL0     H52640   8.445   3.762   5.193  0.7339 -0.1707 -1.1999
  390MOL0     H52641   8.549   3.868   5.290  0.3551 -0.6128 -0.3043
  390MOL0     H52642   8.526   3.690   5.438 -0.6774  0.9562  0.0246
  390MOL0     H52643   8.676   3.650   5.362  0.7041  0.9168  0.6115
  390MOL0     H52644   8.412   3.537   5.267 -1.0118 -0.8750 -1.1993
  390MOL0     H52645   8.573   3.490   5.212  0.6594  0.1482  0.7093
  390MOL0     H52646   8.510   3.298   5.600 -0.8034 -1.0612 -0.6550
  390MOL0     H52647   8.441   3.866   4.989 -0.2106 -1.0859  0.4990
  390MOL0     H52648   8.297   4.003   4.831  0.3444  0.6326 -0.6955
  390MOL0     H52649   8.257   3.932   4.683 -1.6240 -1.7440  0.2168
  390MOL0     H52650   8.170   3.877   4.824  0.9727 -4.0284 -0.6632
  391MOL0     O52651   7.729   6.281   3.868  0.0638  0.2185  0.6814
  391MOL0     C52652   7.713   6.376   3.798  0.1213  0.5862 -0.2993
  391MOL0     O52653   7.611   6.385   3.704  0.9229 -0.3462 -0.4294
  391MOL0     C52654   7.502   6.303   3.714  0.5593 -0.3192 -0.3495
  391MOL0     C52655   7.496   6.201   3.624  0.5530  0.1060  0.0746
  391MOL0     C52656   7.382   6.116   3.623 -0.4993  1.0160 -0.4456
  391MOL0     C52657   7.281   6.144   3.712  0.2353 -0.7666 -0.6848
  391MOL0     O52658   7.162   6.080   3.713  0.5371 -0.6764 -0.2115
  391MOL0     C52659   7.096   6.039   3.838  0.2209 -0.1007 -0.3456
  391MOL0     C52660   6.994   5.926   3.812  0.1298 -0.9203  0.6584
  391MOL0     C52661   6.932   5.892   3.945  0.6621 -0.2030 -0.2247
  391MOL0     C52662   6.827   5.772   3.921  0.0863  0.2413  0.5783
  391MOL0     C52663   6.733   5.742   4.037  0.2879 -0.9137  0.4062
  391MOL0     C52664   6.651   5.868   4.092  0.6204  0.3226 -0.8208
  391MOL0     C52665   6.587   5.953   3.972  0.0347  0.4264  0.4796
  391MOL0     C52666   6.487   6.054   4.030  0.4195 -1.0876  0.0037
  391MOL0     N52667   6.359   6.092   3.965 -0.1619  0.6363  0.0871
  391MOL0     C52668   6.351   6.096   3.830 -0.5020 -0.1096 -0.5305
  391MOL0     C52669   6.219   6.114   3.806 -0.6321  0.3380  0.2314
  391MOL0     C52670   6.148   6.131   3.673 -0.1268 -0.6771  0.6177
  391MOL0     C52671   6.201   6.250   3.593 -0.5835 -0.3521  0.5785
  391MOL0     C52672   6.107   6.267   3.473  0.5112 -0.4025  0.2013
  391MOL0     C52673   6.176   6.362   3.369  0.3968 -0.0408  0.0106
  391MOL0     O52674   6.315   6.334   3.349 -0.1782  0.2671  0.7845
  391MOL0     C52675   6.388   6.385   3.243 -0.4953  0.0116  0.4905
  391MOL0     C52676   6.333   6.440   3.123  0.2696  0.4084  0.1155
  391MOL0     C52677   6.404   6.463   3.006  0.0384  0.7257 -0.1385
  391MOL0     C52678   6.544   6.438   3.010  0.0335  0.5906  0.4666
  391MOL0     C52679   6.635   6.466   2.893  0.0837 -0.0685 -0.0442
  391MOL0     O52680   6.764   6.424   2.897 -0.2577  0.3087 -0.1788
  391MOL0     C52681   6.845   6.438   2.784 -1.0650 -0.1757 -0.7712
  391MOL0     C52682   6.811   6.388   2.657  0.6391  0.3895 -0.0648
  391MOL0     C52683   6.897   6.400   2.545  0.0195 -0.1436 -0.1362
  391MOL0     C52684   7.019   6.474   2.560  0.4292 -0.2058 -0.8547
  391MOL0     O52685   7.109   6.506   2.454 -0.4040  0.3624 -0.7127
  391MOL0     C52686   7.059   6.557   2.328 -0.1172 -0.7155  0.8946
  391MOL0     C52687   7.172   6.628   2.250 -0.1273 -0.5493 -1.1066
  391MOL0     C52688   7.122   6.688   2.125 -0.1120 -0.4768  0.1108
  391MOL0     C52689   7.237   6.759   2.051 -0.3412  0.0177  0.7328
  391MOL0     C52690   7.223   6.749   1.898  0.1395 -0.0319 -0.3193
  391MOL0     C52691   7.098   6.804   1.838 -0.6127  0.2134  1.8483
  391MOL0     C52692   7.094   6.772   1.684  0.7661 -0.3759 -0.9107
  391MOL0     C52693   6.980   6.855   1.635 -0.2868 -0.2346  0.1879
  391MOL0    Cl52694   6.825   6.845   1.722  0.4495 -0.2118 -0.2656
  391MOL0     C52695   7.064   6.516   2.688  0.1700 -0.3055  0.0564
  391MOL0     C52696   6.975   6.499   2.797 -0.1004 -0.3271 -0.5605
  391MOL0     O52697   6.583   6.546   2.814 -1.1657 -0.6276 -0.0213
  391MOL0     C52698   6.602   6.383   3.129  0.2635  0.1001 -0.3151
  391MOL0     C52699   6.523   6.352   3.242 -0.8088 -0.4257 -0.2230
  391MOL0     N52700   6.150   6.088   3.922 -0.1632  0.3217  0.1447
  391MOL0     N52701   6.238   6.092   4.023 -0.0122  0.5981  0.1246
  391MOL0     C52702   7.293   6.242   3.810 -0.8186 -0.3410  0.1914
  391MOL0     C52703   7.399   6.331   3.804 -0.1353  0.2371 -0.2923
  391MOL0     C52704   7.813   6.482   3.794 -0.0223  0.2405  0.2719
  391MOL0     C52705   7.834   6.555   3.910  0.5647 -0.2888  0.1588
  391MOL0     C52706   7.923   6.665   3.916 -0.4795 -0.2675  0.2885
  391MOL0     C52707   7.990   6.711   3.797 -0.8981 -0.4025  0.1747
  391MOL0     O52708   8.090   6.809   3.809 -0.1882 -0.5927 -0.4121
  391MOL0     C52709   8.178   6.820   3.694 -0.8596  0.1999 -0.6208
  391MOL0     C52710   8.308   6.888   3.745 -0.2457 -0.0594 -0.2430
  391MOL0     C52711   8.417   6.796   3.786 -0.2380  0.5026  0.6644
  391MOL0     C52712   8.505   6.769   3.660 -0.0215 -0.8131  0.3254
  391MOL0     C52713   8.607   6.677   3.687 -0.0300 -0.5255 -0.6634
  391MOL0     C52714   8.698   6.613   3.745  0.0201  0.7422  0.3778
  391MOL0     C52715   7.958   6.645   3.677 -0.3786  0.0911 -0.3742
  391MOL0     C52716   7.876   6.532   3.672  0.1863  0.2658 -0.7229
  391MOL0     C52717   7.844   6.466   3.541 -0.5691 -0.0521 -0.5581
  391MOL0     H52718   7.564   6.190   3.540 -1.9761  0.1511 -2.1396
  391MOL0     H52719   7.384   6.034   3.552 -2.5060  0.3507  0.2155
  391MOL0     H52720   7.167   6.010   3.917  1.1052  0.4821 -0.8957
  391MOL0     H52721   7.053   6.133   3.875  2.2049  1.2592 -1.2978
  391MOL0     H52722   7.045   5.836   3.777  0.8398 -0.2151 -0.1919
  391MOL0     H52723   6.918   5.956   3.740  0.2763 -1.0605  0.4442
  391MOL0     H52724   6.873   5.978   3.977 -0.2698 -1.3730  1.2952
  391MOL0     H52725   7.003   5.868   4.025  0.9534 -0.3672 -0.5296
  391MOL0     H52726   6.769   5.798   3.831  0.4657  1.7035  0.7314
  391MOL0     H52727   6.892   5.688   3.895  1.2712  1.7731 -1.7995
  391MOL0     H52728   6.654   5.679   3.995 -1.8484  2.7219 -1.5829
  391MOL0     H52729   6.776   5.678   4.114 -0.8924 -2.1871  0.0459
  391MOL0     H52730   6.570   5.834   4.157  2.7337  0.9708  2.3734
  391MOL0     H52731   6.713   5.925   4.161  0.9882 -2.3799  1.2342
  391MOL0     H52732   6.536   5.884   3.904 -1.6575 -0.4311  2.4905
  391MOL0     H52733   6.669   5.997   3.915 -0.6977 -0.9922 -1.7877
  391MOL0     H52734   6.469   6.025   4.134  0.5038  0.6198  0.5228
  391MOL0     H52735   6.539   6.150   4.033  2.2678 -1.9099 -2.3680
  391MOL0     H52736   6.439   6.095   3.766  0.6501 -0.9196  0.9768
  391MOL0     H52737   6.151   6.036   3.619  2.9541  0.3759 -1.3365
  391MOL0     H52738   6.041   6.137   3.692 -0.7176  1.4770 -2.7357
  391MOL0     H52739   6.201   6.338   3.659  1.7437  0.2553 -0.1666
  391MOL0     H52740   6.306   6.235   3.568 -0.8790  2.1519 -2.7539
  391MOL0     H52741   6.010   6.311   3.499  0.3581 -0.1433 -0.7521
  391MOL0     H52742   6.096   6.175   3.416  1.0017  0.1694 -0.8547
  391MOL0     H52743   6.170   6.467   3.396  1.2698  0.1221 -0.3674
  391MOL0     H52744   6.140   6.353   3.266 -1.8624 -0.2233  0.7742
  391MOL0     H52745   6.231   6.476   3.121 -0.9710 -2.6728  1.9473
  391MOL0     H52746   6.352   6.509   2.922  0.6527 -0.9218 -1.4997
  391MOL0     H52747   6.719   6.331   2.649  0.9862 -0.4898  1.6372
  391MOL0     H52748   6.877   6.350   2.451 -0.8220 -1.3832  0.6723
  391MOL0     H52749   7.011   6.479   2.268  0.0409  0.1420 -0.3789
  391MOL0     H52750   6.981   6.632   2.347  2.0866  2.3734 -1.3555
  391MOL0     H52751   7.208   6.717   2.302  1.4118 -1.0020 -1.3355
  391MOL0     H52752   7.259   6.566   2.229  1.5388  1.4257 -0.3307
  391MOL0     H52753   7.082   6.606   2.064  0.7019  1.4728 -3.3036
  391MOL0     H52754   7.049   6.768   2.140  0.7391  0.2219  0.6122
  391MOL0     H52755   7.330   6.707   2.075 -0.3806 -2.7947 -3.9744
  391MOL0     H52756   7.236   6.867   2.072  0.9491  0.2707 -0.4169
  391MOL0     H52757   7.233   6.642   1.873 -2.1041 -0.3048 -0.2883
  391MOL0     H52758   7.302   6.818   1.867 -0.7159 -0.0607 -2.8202
  391MOL0     H52759   7.004   6.765   1.878 -2.7381  0.9511 -1.9656
  391MOL0     H52760   7.096   6.910   1.862 -0.4197  1.1298 -1.6918
  391MOL0     H52761   7.069   6.669   1.658  1.5936 -0.0247 -3.3354
  391MOL0     H52762   7.190   6.801   1.640  0.3465 -0.4659 -1.9018
  391MOL0     H52763   7.006   6.961   1.648 -2.3097  0.0847  2.4983
  391MOL0     H52764   6.972   6.835   1.528  1.3848 -3.2696  0.5354
  391MOL0     H52765   7.164   6.559   2.693 -0.1071  0.6914 -1.9786
  391MOL0     H52766   7.008   6.527   2.897  0.2823 -0.1131 -0.7443
  391MOL0     H52767   6.710   6.370   3.129  0.4305  1.3106  0.1820
  391MOL0     H52768   6.564   6.295   3.325 -1.9921  0.4090  0.9797
  391MOL0     H52769   7.211   6.262   3.878 -0.4927 -0.6331  0.6838
  391MOL0     H52770   7.405   6.422   3.864 -1.3185  2.2661 -3.0520
  391MOL0     H52771   7.784   6.506   3.993 -1.1600 -2.1525 -1.8490
  391MOL0     H52772   7.943   6.705   4.014  0.7805 -1.4647  0.5480
  391MOL0     H52773   8.141   6.898   3.627 -3.4006  1.4242  2.0090
  391MOL0     H52774   8.204   6.724   3.648  0.6453  0.6871 -0.8471
  391MOL0     H52775   8.283   6.938   3.839  0.0839 -3.1453  1.5943
  391MOL0     H52776   8.347   6.964   3.676 -0.1923 -0.3099 -0.4896
  391MOL0     H52777   8.383   6.699   3.824  1.5715 -1.1716 -1.6736
  391MOL0     H52778   8.484   6.847   3.855  0.5454 -1.7449  1.6294
  391MOL0     H52779   8.446   6.740   3.572 -1.6267  1.6629  0.4964
  391MOL0     H52780   8.536   6.869   3.627  2.8196 -1.3920  1.0316
  391MOL0     H52781   8.758   6.556   3.813 -2.0067  2.4373  3.9102
  391MOL0     H52782   7.993   6.679   3.581 -1.8430  1.5901 -0.4345
  391MOL0     H52783   7.839   6.358   3.551  1.4201 -0.4986 -3.1839
  391MOL0     H52784   7.748   6.504   3.504 -0.5964  1.1397  0.6720
  391MOL0     H52785   7.924   6.483   3.468 -0.0527 -0.5259 -0.1112
  392MOL0     O52786   3.360   9.758  11.143  0.8411 -0.9449  0.1536
  392MOL0     C52787   3.355   9.649  11.198  0.8361  0.6983  0.4463
  392MOL0     O52788   3.462   9.583  11.260  0.0626  0.5801  0.3125
  392MOL0     C52789   3.583   9.646  11.264  0.5855  0.3782 -0.2102
  392MOL0     C52790   3.604   9.783  11.296  0.9654 -1.6842  0.4125
  392MOL0     C52791   3.737   9.829  11.315  0.1855  0.0009 -0.1377
  392MOL0     C52792   3.850   9.747  11.302  0.0028 -0.4346  0.9185
  392MOL0     O52793   3.975   9.805  11.313  0.1325  0.2325  0.4873
  392MOL0     C52794   4.092   9.725  11.274  0.0302  0.1171 -0.1707
  392MOL0     C52795   4.211   9.814  11.292 -0.7094 -0.2436 -0.2834
  392MOL0     C52796   4.233   9.917  11.169 -0.0724 -0.3580  0.7364
  392MOL0     C52797   4.365   9.992  11.198 -0.7633 -0.0042 -0.6960
  392MOL0     C52798   4.400  10.094  11.095  0.0729  0.3314 -0.1936
  392MOL0     C52799   4.466  10.041  10.968  0.3928 -0.2621 -0.6673
  392MOL0     C52800   4.614  10.064  10.962  0.9538 -0.7608  0.0255
  392MOL0     C52801   4.680  10.003  10.838 -0.0743 -0.2324 -0.2281
  392MOL0     N52802   4.828  10.017  10.842  0.8708 -0.0099  1.1844
  392MOL0     C52803   4.910   9.974  10.930 -0.4122  0.3904 -0.3730
  392MOL0     C52804   5.033  10.026  10.898  0.3168  0.1629 -1.0957
  392MOL0     C52805   5.147  10.000  10.988  0.5253  0.5864 -0.4255
  392MOL0     C52806   5.274  10.019  10.913 -0.1411 -0.0185 -0.4050
  392MOL0     C52807   5.391   9.974  11.008  0.2837  0.4485 -0.3488
  392MOL0     C52808   5.525  10.004  10.942  0.0329  0.1995  0.6085
  392MOL0     O52809   5.623  10.007  11.047 -0.1515  0.5415  0.2555
  392MOL0     C52810   5.743  10.070  11.028  0.2513  0.2502 -0.5076
  392MOL0     C52811   5.775  10.128  10.901 -0.4400 -0.1413 -0.2510
  392MOL0     C52812   5.907  10.186  10.891  0.2633 -0.2435 -0.4226
  392MOL0     C52813   5.997  10.187  10.992 -0.5743 -0.0900 -0.6027
  392MOL0     C52814   6.125  10.247  10.973 -0.4404 -1.0016 -0.1360
  392MOL0     O52815   6.135  10.348  10.882  0.1750 -0.3916  0.2477
  392MOL0     C52816   6.261  10.396  10.858  0.1189  0.5159  0.1403
  392MOL0     C52817   6.283  10.533  10.865  0.5847 -0.3318 -0.5569
  392MOL0     C52818   6.402  10.590  10.838 -0.2704 -1.0302  0.0512
  392MOL0     C52819   6.503  10.513  10.781  0.0810 -0.0598  0.1511
  392MOL0     O52820   6.628  10.561  10.762 -0.1579 -0.1530 -0.1802
  392MOL0     C52821   6.642  10.653  10.652 -0.9690  0.2294  0.2035
  392MOL0     C52822   6.789  10.695  10.653 -0.3994  0.0715  0.1825
  392MOL0     C52823   6.829  10.806  10.744  0.0210 -0.0328 -0.8439
  392MOL0     C52824   6.970  10.864  10.723 -0.2274 -0.9977  0.6807
  392MOL0     C52825   7.010  10.958  10.835 -0.1218 -0.3372  0.4785
  392MOL0     C52826   7.129  11.044  10.794  0.3525  0.4606  0.9268
  392MOL0     C52827   7.187  11.115  10.913 -0.9640 -0.1412 -0.8109
  392MOL0     C52828   7.164  11.271  10.900  0.0036  0.1242  0.1044
  392MOL0    Cl52829   7.232  11.335  10.746  0.4854 -0.1599  0.0140
  392MOL0     C52830   6.488  10.375  10.767  0.2698 -0.8653  0.2097
  392MOL0     C52831   6.364  10.324  10.807  0.4674  0.3061 -0.0663
  392MOL0     O52832   6.222  10.212  11.045  0.7498 -0.2699  0.1663
  392MOL0     C52833   5.961  10.133  11.115 -0.4339 -0.2082  0.4178
  392MOL0     C52834   5.831  10.078  11.137  0.9021  0.0372 -0.0046
  392MOL0     N52835   5.012  10.118  10.797  0.1588 -0.5940  0.9698
  392MOL0     N52836   4.886  10.107  10.755 -0.3423  0.5184  0.6249
  392MOL0     C52837   3.825   9.609  11.277 -0.1903  1.1049 -0.3834
  392MOL0     C52838   3.696   9.567  11.253 -0.3436  1.3505  0.1494
  392MOL0     C52839   3.226   9.577  11.189  0.2525 -1.0869  0.4233
  392MOL0     C52840   3.124   9.637  11.118  0.2036 -0.4381  0.2956
  392MOL0     C52841   2.991   9.588  11.103 -0.9560  0.7357 -0.2808
  392MOL0     C52842   2.959   9.463  11.150  0.5548 -0.9943  0.2940
  392MOL0     O52843   2.828   9.418  11.144 -0.5644 -0.6327  0.4330
  392MOL0     C52844   2.754   9.418  11.269  0.3770 -0.6049 -0.5644
  392MOL0     C52845   2.687   9.557  11.282  0.2978  0.5140 -0.6534
  392MOL0     C52846   2.625   9.604  11.152 -0.1541 -0.6963  0.6344
  392MOL0     C52847   2.496   9.540  11.106 -0.5982  0.1737  0.6884
  392MOL0     C52848   2.386   9.583  11.186 -0.4578 -0.4856  0.0724
  392MOL0     C52849   2.288   9.611  11.245  0.9098 -0.1196 -0.9021
  392MOL0     C52850   3.066   9.390  11.215 -0.0092 -0.4718  0.3968
  392MOL0     C52851   3.198   9.446  11.237 -0.1839  0.0948  0.4976
  392MOL0     C52852   3.301   9.352  11.304 -0.0781  0.0189  0.2045
  392MOL0     H52853   3.521   9.848  11.325  2.3185 -0.8497  2.6895
  392MOL0     H52854   3.754   9.935  11.329 -1.5585 -0.0049  2.6690
  392MOL0     H52855   4.096   9.650  11.354  1.8487  1.5016  1.1205
  392MOL0     H52856   4.089   9.686  11.172  1.8026  2.6792 -1.3165
  392MOL0     H52857   4.298   9.749  11.306 -1.7812 -2.0433 -1.6081
  392MOL0     H52858   4.194   9.884  11.375  1.4519  0.2337 -0.1825
  392MOL0     H52859   4.152   9.991  11.162  2.0184  1.9210 -0.6681
  392MOL0     H52860   4.238   9.854  11.079  1.5398 -1.1604  1.3600
  392MOL0     H52861   4.345  10.044  11.292  2.1664 -0.7420  0.4421
  392MOL0     H52862   4.449   9.923  11.209  0.2200  1.3127  0.3576
  392MOL0     H52863   4.313  10.156  11.073 -0.0470 -0.7410 -3.1923
  392MOL0     H52864   4.473  10.160  11.143  1.8541 -1.7676  0.1628
  392MOL0     H52865   4.460   9.932  10.973  3.6643 -0.4953  2.0811
  392MOL0     H52866   4.405  10.081  10.887 -1.1971 -0.5951  0.3152
  392MOL0     H52867   4.658  10.025  11.055  2.2251 -0.0970 -0.2792
  392MOL0     H52868   4.626  10.172  10.963 -1.0016 -0.3091 -3.9487
  392MOL0     H52869   4.657   9.896  10.835  0.8188 -0.4156 -1.5647
  392MOL0     H52870   4.638  10.054  10.751  0.8653  0.5292 -0.2528
  392MOL0     H52871   4.895   9.914  11.019  2.5403  0.7623  0.4781
  392MOL0     H52872   5.146  10.060  11.079 -1.8291 -2.4957  1.8224
  392MOL0     H52873   5.131   9.894  11.011 -1.1594  1.1024  1.0141
  392MOL0     H52874   5.271   9.953  10.825 -2.6959 -3.3379  1.9107
  392MOL0     H52875   5.274  10.125  10.887 -2.1518  0.0410 -0.2875
  392MOL0     H52876   5.394   9.871  11.044 -0.4756 -0.8615 -3.6582
  392MOL0     H52877   5.378  10.036  11.098  0.6738 -1.3175  0.9782
  392MOL0     H52878   5.521  10.077  10.861 -1.7065 -0.2700  0.2148
  392MOL0     H52879   5.544   9.913  10.884 -0.2807  0.3993  0.1816
  392MOL0     H52880   5.711  10.119  10.814  0.1284  1.0383 -0.8124
  392MOL0     H52881   5.911  10.250  10.803 -3.0416 -0.5857 -0.9555
  392MOL0     H52882   6.211  10.598  10.913  0.8063  0.2315 -0.9728
  392MOL0     H52883   6.413  10.697  10.846 -0.9056 -0.7683 -2.1261
  392MOL0     H52884   6.620  10.592  10.563  0.5934 -0.1862  0.0786
  392MOL0     H52885   6.580  10.743  10.648 -1.2519  0.0515  0.4887
  392MOL0     H52886   6.847  10.602  10.657 -1.8853 -0.9164 -0.5573
  392MOL0     H52887   6.807  10.731  10.551  1.7424 -1.9185 -0.2300
  392MOL0     H52888   6.751  10.882  10.733 -0.0269  0.1187  0.3713
  392MOL0     H52889   6.817  10.768  10.846 -2.2814 -0.7977 -1.3374
  392MOL0     H52890   6.974  10.914  10.626  3.1577 -0.0157  1.1830
  392MOL0     H52891   7.048  10.791  10.700  2.4849  1.8706  0.0876
  392MOL0     H52892   7.049  10.890  10.910  0.1442 -1.3092 -0.5189
  392MOL0     H52893   6.930  11.016  10.883 -0.0157 -0.4083  0.7423
  392MOL0     H52894   7.204  10.980  10.747 -0.9760 -0.4431 -0.0354
  392MOL0     H52895   7.104  11.122  10.721  3.6969  0.6646 -0.1742
  392MOL0     H52896   7.294  11.096  10.921 -0.9767  0.1100  0.1676
  392MOL0     H52897   7.135  11.083  11.004 -0.3379  0.3411 -0.2755
  392MOL0     H52898   7.056  11.287  10.893 -0.3398 -1.1579  1.7071
  392MOL0     H52899   7.213  11.321  10.984 -1.9387  1.4700  0.5108
  392MOL0     H52900   6.569  10.324  10.715 -1.1554 -1.3091 -1.7094
  392MOL0     H52901   6.345  10.217  10.799 -0.4317  0.3166  1.5131
  392MOL0     H52902   6.031  10.135  11.199  3.6858 -0.2473 -2.6887
  392MOL0     H52903   5.800  10.027  11.228 -1.3056  2.3258  0.6133
  392MOL0     H52904   3.908   9.539  11.278 -1.0804 -0.0225  2.0246
  392MOL0     H52905   3.673   9.463  11.233 -0.9626  1.8757 -2.2996
  392MOL0     H52906   3.142   9.737  11.081 -1.3445 -0.4228 -0.5059
  392MOL0     H52907   2.927   9.664  11.061  2.3295  3.7115 -0.3216
  392MOL0     H52908   2.824   9.397  11.350 -1.4759  2.5263  2.1277
  392MOL0     H52909   2.679   9.338  11.272  0.1139 -0.3317  0.5728
  392MOL0     H52910   2.761   9.628  11.321 -1.8066  1.6030  1.6438
  392MOL0     H52911   2.607   9.551  11.357 -1.0745 -0.1729 -2.1213
  392MOL0     H52912   2.695   9.595  11.069 -0.6521 -0.8465  0.2269
  392MOL0     H52913   2.608   9.712  11.159 -0.6081 -0.8607  2.5699
  392MOL0     H52914   2.475   9.582  11.007 -0.0252 -1.6186 -0.2500
  392MOL0     H52915   2.505   9.431  11.103  0.3730  0.2645 -0.8455
  392MOL0     H52916   2.201   9.647  11.296  2.4984  2.2716  0.3236
  392MOL0     H52917   3.053   9.292  11.259  1.2099 -1.2205 -0.8469
  392MOL0     H52918   3.390   9.340  11.241  0.4128  3.0183  0.1724
  392MOL0     H52919   3.329   9.400  11.398 -2.1808 -0.2648  1.0354
  392MOL0     H52920   3.261   9.252  11.323 -2.1935  0.8815  0.5430
  393MOL0     O52921   1.670   9.331   2.838 -0.3595  0.4013  0.0823
  393MOL0     C52922   1.583   9.248   2.809  0.6412  0.2399 -0.2238
  393MOL0     O52923   1.606   9.124   2.771 -0.2279 -0.1864  0.0040
  393MOL0     C52924   1.739   9.084   2.763 -0.1689 -0.0667 -0.1535
  393MOL0     C52925   1.798   9.020   2.868  1.6738 -0.6669  0.0047
  393MOL0     C52926   1.930   8.981   2.858 -0.3466  0.6266  0.3541
  393MOL0     C52927   2.009   8.998   2.742 -0.5681  0.2387  0.6208
  393MOL0     O52928   2.135   8.955   2.723 -0.9034  0.7955 -0.1662
  393MOL0     C52929   2.203   8.878   2.830  0.8265 -0.3017  0.4470
  393MOL0     C52930   2.342   8.815   2.813 -0.9831  0.2706 -0.5019
  393MOL0     C52931   2.456   8.905   2.767 -0.1650  0.0030 -0.0096
  393MOL0     C52932   2.579   8.893   2.866 -0.0643 -0.1785  0.3314
  393MOL0     C52933   2.705   8.958   2.806 -0.1080  1.0027 -0.0712
  393MOL0     C52934   2.689   9.106   2.765 -1.1048  0.2981  0.4778
  393MOL0     C52935   2.694   9.175   2.894  0.1996  0.3160  0.4696
  393MOL0     C52936   2.651   9.320   2.882  0.0090  0.9829 -0.8076
  393MOL0     N52937   2.504   9.334   2.859 -0.3649  0.9197  0.0496
  393MOL0     C52938   2.450   9.344   2.731 -0.0169  0.1324  0.5671
  393MOL0     C52939   2.317   9.329   2.753  0.2552 -0.0436 -0.0908
  393MOL0     C52940   2.218   9.314   2.647  0.8120  1.2067 -0.1347
  393MOL0     C52941   2.227   9.417   2.540 -0.1731  0.0702  0.0662
  393MOL0     C52942   2.183   9.564   2.576  0.7837  0.2173 -0.0956
  393MOL0     C52943   2.275   9.635   2.680  0.2051 -1.0473  0.2503
  393MOL0     O52944   2.412   9.647   2.641 -0.2390  0.5231 -0.4804
  393MOL0     C52945   2.503   9.694   2.739  0.4833  0.1120 -0.4183
  393MOL0     C52946   2.462   9.763   2.851  0.3561 -0.2444  0.4028
  393MOL0     C52947   2.547   9.808   2.952  0.6202  0.7473 -0.6758
  393MOL0     C52948   2.686   9.795   2.932 -0.3511 -0.7089  0.5901
  393MOL0     C52949   2.789   9.845   3.027 -0.1349  0.1817  0.4694
  393MOL0     O52950   2.915   9.790   3.019 -0.8785 -0.1132 -1.2436
  393MOL0     C52951   3.009   9.792   3.118  0.0688 -0.2462  0.1483
  393MOL0     C52952   2.978   9.785   3.248  0.4286  0.1355  0.3044
  393MOL0     C52953   3.082   9.778   3.347  0.4335  0.2451  0.9606
  393MOL0     C52954   3.215   9.782   3.310  0.0580  0.5008 -0.7362
  393MOL0     O52955   3.304   9.776   3.417 -0.2618  0.2953 -0.1728
  393MOL0     C52956   3.438   9.759   3.398  0.0287 -0.1102  0.8350
  393MOL0     C52957   3.500   9.754   3.537 -0.6614 -0.4724  0.3886
  393MOL0     C52958   3.556   9.888   3.587  0.2536  0.4321 -0.0216
  393MOL0     C52959   3.671   9.953   3.508 -0.1285  1.9952  0.3241
  393MOL0     C52960   3.689  10.094   3.558  0.1765 -0.4397  0.1440
  393MOL0     C52961   3.732  10.192   3.450  0.5916 -0.2591 -0.2562
  393MOL0     C52962   3.867  10.174   3.400 -0.1813 -0.2505  0.5560
  393MOL0     C52963   3.989  10.231   3.474  1.2323 -0.1248 -0.0640
  393MOL0    Cl52964   4.140  10.205   3.386 -0.0415 -0.3104 -0.3128
  393MOL0     C52965   3.248   9.804   3.180  0.1530 -0.2764 -1.0436
  393MOL0     C52966   3.148   9.806   3.082 -0.4814 -0.0490 -0.1908
  393MOL0     O52967   2.755   9.914   3.122  0.4495  1.0471 -0.0972
  393MOL0     C52968   2.728   9.729   2.808  0.5439 -0.0034 -0.3441
  393MOL0     C52969   2.637   9.681   2.717  1.0063 -0.5001 -0.0905
  393MOL0     N52970   2.294   9.304   2.883 -0.2397 -0.3857 -0.4311
  393MOL0     N52971   2.406   9.304   2.953  0.1786 -0.3898  0.1880
  393MOL0     C52972   1.943   9.052   2.635 -0.1850 -0.2868  0.0033
  393MOL0     C52973   1.809   9.098   2.639  0.3493 -0.7950 -0.2256
  393MOL0     C52974   1.441   9.272   2.823  1.0720 -1.3548 -0.1270
  393MOL0     C52975   1.343   9.170   2.798 -1.3217 -0.0895 -0.8145
  393MOL0     C52976   1.206   9.193   2.804  0.2826  0.2488  0.1593
  393MOL0     C52977   1.156   9.320   2.832  0.6127  0.7424 -0.4255
  393MOL0     O52978   1.022   9.356   2.838 -0.1217  0.7536 -0.0573
  393MOL0     C52979   0.921   9.310   2.752  0.0043  0.1523  0.8610
  393MOL0     C52980   0.871   9.409   2.640 -0.9595  0.4901  0.0420
  393MOL0     C52981   0.796   9.540   2.676  0.1124 -0.0162  0.4473
  393MOL0     C52982   0.747   9.641   2.573 -0.1110  0.2787  0.1781
  393MOL0     C52983   0.667   9.752   2.633 -0.3743  0.0542 -0.2448
  393MOL0     C52984   0.597   9.839   2.688  0.2372 -0.4438 -0.8318
  393MOL0     C52985   1.242   9.416   2.874  0.9777 -0.2917 -0.3197
  393MOL0     C52986   1.379   9.395   2.868 -0.3948 -0.2435 -0.2400
  393MOL0     C52987   1.464   9.509   2.916 -0.5758  0.1037  1.0303
  393MOL0     H52988   1.750   9.004   2.964  0.2888 -0.2609 -0.5993
  393MOL0     H52989   1.978   8.927   2.939 -0.4167  1.2132  0.7945
  393MOL0     H52990   2.214   8.945   2.915 -1.0778 -0.9415  1.2326
  393MOL0     H52991   2.138   8.797   2.862  0.0617  0.0352 -0.1979
  393MOL0     H52992   2.337   8.733   2.741  1.1775  0.3152 -0.7764
  393MOL0     H52993   2.361   8.771   2.912  1.3129  0.8254 -0.6325
  393MOL0     H52994   2.413   9.005   2.760  0.8362  0.5221  0.7973
  393MOL0     H52995   2.494   8.874   2.670  0.5632  2.7753 -0.7193
  393MOL0     H52996   2.551   8.930   2.965 -1.4143  2.1402 -0.8539
  393MOL0     H52997   2.601   8.787   2.884 -0.2005 -0.5036 -1.2490
  393MOL0     H52998   2.790   8.944   2.874 -2.0049  0.6169  2.3143
  393MOL0     H52999   2.719   8.905   2.711 -1.0048  0.8760 -0.1342
  393MOL0     H53000   2.771   9.128   2.697 -1.5509  1.3859  0.2715
  393MOL0     H53001   2.600   9.119   2.703  0.5776  0.5279 -2.0293
  393MOL0     H53002   2.795   9.174   2.936 -0.0632  0.4663  1.1164
  393MOL0     H53003   2.622   9.127   2.962  0.9615 -0.0217  1.0494
  393MOL0     H53004   2.672   9.351   2.985 -0.4588 -0.4671 -0.2601
  393MOL0     H53005   2.710   9.372   2.807 -0.5635  0.4800 -1.6145
  393MOL0     H53006   2.502   9.338   2.636  0.7870 -5.5612  1.0256
  393MOL0     H53007   2.220   9.211   2.610 -5.5899 -0.2041  2.1513
  393MOL0     H53008   2.125   9.326   2.704  1.0635 -2.0660  1.1578
  393MOL0     H53009   2.326   9.417   2.492  0.4450 -0.2736  1.2897
  393MOL0     H53010   2.166   9.390   2.453 -3.0089  0.6184  1.7707
  393MOL0     H53011   2.078   9.569   2.607  0.0868 -0.2137 -2.2092
  393MOL0     H53012   2.187   9.626   2.486  3.6453  1.1497  0.5668
  393MOL0     H53013   2.268   9.582   2.775 -1.1486 -0.9237  0.2358
  393MOL0     H53014   2.240   9.738   2.693 -3.3333 -1.9289 -0.9533
  393MOL0     H53015   2.359   9.773   2.881  0.8321 -0.7040  2.2839
  393MOL0     H53016   2.500   9.848   3.041 -0.4437 -0.5181 -0.6388
  393MOL0     H53017   2.878   9.775   3.288  0.4143  2.7223  1.1139
  393MOL0     H53018   3.050   9.774   3.451 -0.4687  3.7456  0.9384
  393MOL0     H53019   3.452   9.670   3.335 -0.9930  0.6574 -0.5331
  393MOL0     H53020   3.474   9.843   3.338 -1.0696 -0.1193  0.1278
  393MOL0     H53021   3.426   9.722   3.611  0.2692  0.1547  1.6392
  393MOL0     H53022   3.579   9.680   3.539 -0.5672 -0.3606  0.9497
  393MOL0     H53023   3.474   9.959   3.603 -1.0129 -1.1045  0.5167
  393MOL0     H53024   3.591   9.865   3.688 -1.5412 -0.8427  0.3562
  393MOL0     H53025   3.654   9.952   3.400 -1.3170  1.3039  0.5064
  393MOL0     H53026   3.761   9.893   3.522 -1.4532  0.0187  0.7049
  393MOL0     H53027   3.763  10.073   3.636 -0.1205 -2.2697 -0.0292
  393MOL0     H53028   3.602  10.144   3.604 -0.2272 -0.8064 -0.2159
  393MOL0     H53029   3.659  10.175   3.370 -1.5186  1.4943  1.1469
  393MOL0     H53030   3.715  10.295   3.483 -0.0775 -0.8023  1.2308
  393MOL0     H53031   3.869  10.209   3.296 -1.3656 -1.9291 -0.0769
  393MOL0     H53032   3.886  10.067   3.385  2.6796  0.2675 -0.1171
  393MOL0     H53033   3.972  10.338   3.492  0.6371  0.3155 -2.7710
  393MOL0     H53034   3.994  10.185   3.573  0.2673 -0.2203 -0.0457
  393MOL0     H53035   3.352   9.807   3.148  0.6678 -1.4368  0.3939
  393MOL0     H53036   3.166   9.814   2.975  2.4649  0.6466  0.2693
  393MOL0     H53037   2.833   9.721   2.780  1.7798 -0.9096  3.7990
  393MOL0     H53038   2.663   9.627   2.627 -1.8202 -0.3547 -1.0920
  393MOL0     H53039   2.006   9.062   2.547  0.3418 -0.4505  0.3570
  393MOL0     H53040   1.768   9.160   2.560  0.3610 -0.5028 -0.0048
  393MOL0     H53041   1.369   9.065   2.782  0.0079 -0.4943  2.9752
  393MOL0     H53042   1.132   9.115   2.798 -0.1456  0.4196  2.4681
  393MOL0     H53043   0.845   9.268   2.819  0.7235 -2.0763  0.3627
  393MOL0     H53044   0.964   9.219   2.711  0.4161  0.1985  1.1874
  393MOL0     H53045   0.814   9.357   2.562  0.7326  0.4886 -1.2531
  393MOL0     H53046   0.963   9.450   2.596 -0.7108  1.5889  1.5128
  393MOL0     H53047   0.862   9.589   2.748  1.5337 -1.0748 -0.0894
  393MOL0     H53048   0.705   9.510   2.730 -0.5510 -0.8655 -1.0585
  393MOL0     H53049   0.833   9.681   2.519  0.1131 -0.7856 -0.2921
  393MOL0     H53050   0.691   9.586   2.497 -0.7951  2.1994 -0.7531
  393MOL0     H53051   0.533   9.910   2.737 -0.2979 -1.1253 -0.5313
  393MOL0     H53052   1.207   9.513   2.909 -1.8038 -2.0799  2.2707
  393MOL0     H53053   1.411   9.587   2.971  1.1897  0.2190  2.6938
  393MOL0     H53054   1.544   9.474   2.982  2.4737  0.2576 -2.2863
  393MOL0     H53055   1.507   9.562   2.831 -2.0118 -0.3522 -0.0181
  394MOL0     O53056   8.191   2.201   6.691  0.5683  0.2529 -0.3284
  394MOL0     C53057   8.256   2.265   6.777 -0.4351 -0.4582  1.0513
  394MOL0     O53058   8.346   2.204   6.867  0.1955 -0.5167  0.0496
  394MOL0     C53059   8.327   2.072   6.892 -0.2869  0.2633 -0.5486
  394MOL0     C53060   8.422   1.979   6.854 -0.2592  0.1441 -0.5330
  394MOL0     C53061   8.409   1.846   6.898  0.2144  0.3537 -0.5264
  394MOL0     C53062   8.291   1.801   6.966 -0.7527 -0.2226  0.1458
  394MOL0     O53063   8.285   1.676   7.011 -0.6679  0.5224 -0.3494
  394MOL0     C53064   8.337   1.652   7.140  0.1794 -0.1131  0.7019
  394MOL0     C53065   8.265   1.538   7.215 -0.3578  0.0980  0.2433
  394MOL0     C53066   8.367   1.464   7.304 -0.2492 -0.0979 -0.0233
  394MOL0     C53067   8.304   1.344   7.368 -0.1117  0.0810  0.3048
  394MOL0     C53068   8.406   1.275   7.462  0.4364  0.1740 -1.1635
  394MOL0     C53069   8.516   1.215   7.385 -0.5628 -1.1636  0.9142
  394MOL0     C53070   8.586   1.100   7.463 -0.4594  0.0504 -0.1929
  394MOL0     C53071   8.698   1.041   7.374 -0.1958 -0.4410  0.1358
  394MOL0     N53072   8.775   0.935   7.444  0.3123 -0.6316 -0.0013
  394MOL0     C53073   8.734   0.805   7.428  0.5496 -0.3753 -0.1509
  394MOL0     C53074   8.842   0.748   7.483 -0.2541  0.1305 -0.6790
  394MOL0     C53075   8.861   0.604   7.516 -0.1555  0.6057  0.2421
  394MOL0     C53076   8.733   0.534   7.585 -0.6750 -0.5091  0.4769
  394MOL0     C53077   8.738   0.377   7.592 -0.1938 -0.1599 -0.1675
  394MOL0     C53078   8.618   0.310   7.630 -0.2868 -0.5259 -0.4597
  394MOL0     O53079   8.521   0.338   7.530  0.1331  0.3137  0.6863
  394MOL0     C53080   8.398   0.281   7.533  0.0537 -0.5286  0.0207
  394MOL0     C53081   8.350   0.192   7.626  0.3338  0.9133 -1.1881
  394MOL0     C53082   8.231   0.123   7.612  0.1627  0.6226 -0.3305
  394MOL0     C53083   8.153   0.148   7.501 -0.5431  1.3964  0.1026
  394MOL0     C53084   8.033   0.054   7.483  0.3808  0.6380 -0.4245
  394MOL0     O53085   8.022  -0.056   7.569 -0.2350 -0.0369 -0.0681
  394MOL0     C53086   7.895  -0.106   7.574  0.2206  0.5457 -0.4271
  394MOL0     C53087   7.791  -0.032   7.638  0.0021  0.0798 -0.3356
  394MOL0     C53088   7.659  -0.070   7.630 -0.6682 -0.4624 -0.1873
  394MOL0     C53089   7.628  -0.195   7.583  0.9568 -0.5300 -0.9250
  394MOL0     O53090   7.500  -0.244   7.579  0.3077 -0.0089 -0.3898
  394MOL0     C53091   7.431  -0.239   7.712 -0.2874 -0.0555  0.4569
  394MOL0     C53092   7.404  -0.396   7.733  0.8540 -1.1107  0.5131
  394MOL0     C53093   7.331  -0.413   7.869  0.3528  0.4052 -0.1437
  394MOL0     C53094   7.267  -0.557   7.878 -0.1942  0.1408  0.0037
  394MOL0     C53095   7.180  -0.587   8.000 -0.8552  0.8699  0.9341
  394MOL0     C53096   7.104  -0.715   7.989  0.1490  0.2248 -0.2637
  394MOL0     C53097   7.010  -0.746   8.106  0.6674 -0.4342  0.5281
  394MOL0     C53098   7.073  -0.763   8.241  0.4346 -0.2329  0.7829
  394MOL0    Cl53099   6.958  -0.733   8.370  0.0347  0.3093 -0.2486
  394MOL0     C53100   7.731  -0.273   7.532 -0.1933  0.0782 -0.4343
  394MOL0     C53101   7.858  -0.227   7.522 -0.3943 -0.8281 -0.1698
  394MOL0     O53102   7.945   0.087   7.402 -0.1084  0.2794  0.6341
  394MOL0     C53103   8.188   0.253   7.412  1.1933 -0.4529 -0.4816
  394MOL0     C53104   8.311   0.319   7.427  0.3704 -0.0921  0.0807
  394MOL0     N53105   8.929   0.838   7.538 -0.0120  0.4659  0.7195
  394MOL0     N53106   8.887   0.957   7.511 -0.2504 -0.1486 -0.5517
  394MOL0     C53107   8.200   1.897   7.001  0.3479  0.3375  0.1029
  394MOL0     C53108   8.212   2.027   6.962  0.0237  0.2587 -1.0046
  394MOL0     C53109   8.251   2.417   6.779 -0.2652  0.0109  0.0927
  394MOL0     C53110   8.354   2.485   6.845  0.9063  0.5690  0.1043
  394MOL0     C53111   8.360   2.618   6.862  0.9802 -0.5047  0.7282
  394MOL0     C53112   8.260   2.702   6.808  0.0320 -0.5580 -0.1882
  394MOL0     O53113   8.255   2.838   6.824 -0.0513 -0.8647  0.0249
  394MOL0     C53114   8.365   2.906   6.889  0.0302  1.5644  0.2506
  394MOL0     C53115   8.338   3.047   6.895 -1.0942 -0.9241 -0.5990
  394MOL0     C53116   8.463   3.118   6.942  0.2152  0.5498  0.2587
  394MOL0     C53117   8.425   3.271   6.962 -1.1491  0.4263  0.0269
  394MOL0     C53118   8.562   3.326   6.978  1.0857  0.2176 -0.0783
  394MOL0     C53119   8.673   3.376   6.996  0.0270 -0.0737 -0.9884
  394MOL0     C53120   8.157   2.645   6.740  0.0220 -0.6428  0.3394
  394MOL0     C53121   8.148   2.503   6.731  0.5405 -0.8706  0.5884
  394MOL0     C53122   8.035   2.445   6.652 -0.0542  0.8129 -0.4188
  394MOL0     H53123   8.508   1.998   6.791 -0.2250  0.2101 -0.4668
  394MOL0     H53124   8.478   1.767   6.868 -0.8050  0.5913 -3.9051
  394MOL0     H53125   8.443   1.635   7.121 -0.1246  1.2961 -3.1390
  394MOL0     H53126   8.323   1.737   7.208  2.1980 -0.6777  1.8701
  394MOL0     H53127   8.208   1.469   7.152  0.6457 -1.9379  1.4865
  394MOL0     H53128   8.199   1.587   7.287  0.4245  0.6979  0.5651
  394MOL0     H53129   8.424   1.528   7.371  2.5107  0.8291 -3.0073
  394MOL0     H53130   8.444   1.429   7.234 -1.6298 -1.4850 -0.9380
  394MOL0     H53131   8.229   1.384   7.437  0.1494  1.1241  0.0033
  394MOL0     H53132   8.270   1.272   7.293 -1.8210  1.1723 -0.0360
  394MOL0     H53133   8.457   1.340   7.534  1.2272  0.9475 -2.3698
  394MOL0     H53134   8.355   1.203   7.525 -1.3874  2.8716  0.6676
  394MOL0     H53135   8.476   1.165   7.296  0.4152  0.7571 -0.6868
  394MOL0     H53136   8.581   1.296   7.350  0.2826 -1.7520  1.1067
  394MOL0     H53137   8.504   1.031   7.487 -1.9668  2.4508  2.2202
  394MOL0     H53138   8.629   1.146   7.552 -2.2657  2.3842 -0.4328
  394MOL0     H53139   8.657   1.013   7.277  2.1585 -2.6321 -0.3234
  394MOL0     H53140   8.783   1.108   7.357  0.2698 -1.4220 -1.6525
  394MOL0     H53141   8.641   0.765   7.388 -0.3185  0.8033  0.6183
  394MOL0     H53142   8.871   0.552   7.421 -1.9717 -0.1421  0.4233
  394MOL0     H53143   8.950   0.578   7.575  0.1068 -1.1097 -0.8484
  394MOL0     H53144   8.731   0.566   7.689 -1.3397  2.2016 -0.2991
  394MOL0     H53145   8.639   0.575   7.548 -1.1998  0.4393  2.7243
  394MOL0     H53146   8.816   0.344   7.661 -0.5820 -0.8646 -0.0613
  394MOL0     H53147   8.769   0.330   7.498  1.0128  0.5416 -0.1419
  394MOL0     H53148   8.577   0.356   7.721 -0.9867  1.1274 -1.5758
  394MOL0     H53149   8.629   0.201   7.635 -1.8458 -0.7862 -1.8327
  394MOL0     H53150   8.398   0.175   7.722 -0.6094  1.2588 -0.6397
  394MOL0     H53151   8.197   0.055   7.690  1.2400 -0.4966 -0.8096
  394MOL0     H53152   7.813   0.066   7.679  1.2539 -0.2034 -0.2980
  394MOL0     H53153   7.587   0.001   7.669 -1.3914 -0.7892 -0.8825
  394MOL0     H53154   7.493  -0.208   7.796 -0.7790 -0.1446  0.8579
  394MOL0     H53155   7.340  -0.178   7.707 -0.6705 -0.5404  1.3975
  394MOL0     H53156   7.339  -0.432   7.653 -0.0106  1.5804 -0.0983
  394MOL0     H53157   7.500  -0.446   7.748  1.9062  0.6369 -0.1267
  394MOL0     H53158   7.401  -0.404   7.952 -1.0573  0.8976  1.0446
  394MOL0     H53159   7.248  -0.341   7.868 -0.9756 -1.0658  0.2297
  394MOL0     H53160   7.348  -0.631   7.880 -0.8140 -0.5420  0.4022
  394MOL0     H53161   7.206  -0.579   7.790  0.7448  0.6490 -0.8027
  394MOL0     H53162   7.107  -0.505   8.007 -1.1703  0.7550 -0.6557
  394MOL0     H53163   7.241  -0.581   8.091  1.8014  0.6971 -0.7421
  394MOL0     H53164   7.040  -0.700   7.901 -0.9413  2.5763  0.8363
  394MOL0     H53165   7.172  -0.800   7.982 -0.0189  0.1021 -0.4004
  394MOL0     H53166   6.955  -0.837   8.082 -2.8098  1.7137 -0.3723
  394MOL0     H53167   6.937  -0.665   8.116  0.1713 -0.9832  1.5635
  394MOL0     H53168   7.110  -0.866   8.246  1.2195 -0.1080 -1.2462
  394MOL0     H53169   7.152  -0.688   8.254 -1.1038  1.8229 -0.9593
  394MOL0     H53170   7.706  -0.367   7.484 -1.0498 -1.0534  2.0582
  394MOL0     H53171   7.936  -0.288   7.476  1.6617  1.0972  0.5722
  394MOL0     H53172   8.132   0.282   7.323  0.8243  0.3137 -0.0099
  394MOL0     H53173   8.345   0.399   7.362  0.8573 -0.5631 -0.2483
  394MOL0     H53174   8.115   1.863   7.059 -0.9896 -1.4599 -2.6879
  394MOL0     H53175   8.142   2.106   6.982  2.2803  1.9640  0.7291
  394MOL0     H53176   8.427   2.424   6.896 -1.1352 -0.8464  1.4892
  394MOL0     H53177   8.441   2.652   6.927  3.0021 -3.8810  0.2183
  394MOL0     H53178   8.451   2.884   6.825 -0.2345 -1.4274  0.7661
  394MOL0     H53179   8.384   2.872   6.992 -0.4422  4.5292  1.4127
  394MOL0     H53180   8.252   3.065   6.961  0.0773  0.6552  0.5903
  394MOL0     H53181   8.315   3.080   6.793  0.1763 -0.4596 -0.7651
  394MOL0     H53182   8.541   3.107   6.867 -0.2857  0.6620 -0.2887
  394MOL0     H53183   8.499   3.073   7.035  0.4761 -0.2958 -0.2349
  394MOL0     H53184   8.388   3.309   6.867  1.0664 -1.0388 -1.5238
  394MOL0     H53185   8.354   3.286   7.044 -2.0698 -0.4591 -0.5956
  394MOL0     H53186   8.769   3.424   7.000  0.9215 -1.7238 -1.5654
  394MOL0     H53187   8.081   2.705   6.691 -0.1580 -2.1740 -1.3882
  394MOL0     H53188   8.073   2.386   6.569 -1.0352  2.3164 -2.0112
  394MOL0     H53189   7.971   2.382   6.715  2.5524 -0.7527  0.8411
  394MOL0     H53190   7.973   2.520   6.603 -0.4911 -0.3698 -1.7303
  395MOL0     O53191   7.339   1.408   2.028  0.1849 -0.4996  0.1472
  395MOL0     C53192   7.225   1.367   2.038  0.4557  0.6993 -0.6712
  395MOL0     O53193   7.194   1.233   2.076  0.1417 -0.0995  0.2901
  395MOL0     C53194   7.285   1.139   2.114  0.2312  0.1061 -0.4649
  395MOL0     C53195   7.235   1.028   2.190  0.2484  0.1981 -0.1134
  395MOL0     C53196   7.314   0.924   2.226  0.4889  0.1646 -0.3195
  395MOL0     C53197   7.450   0.917   2.184 -0.6199  0.2758  0.9179
  395MOL0     O53198   7.525   0.807   2.223 -0.5703  0.2693  0.3231
  395MOL0     C53199   7.663   0.816   2.241 -0.5516 -0.1081  0.6480
  395MOL0     C53200   7.732   0.788   2.105 -0.1643 -0.0463 -0.1004
  395MOL0     C53201   7.874   0.820   2.117 -0.2738 -0.9899  0.5319
  395MOL0     C53202   7.947   0.750   1.991  0.5840  0.0805 -0.1923
  395MOL0     C53203   8.103   0.735   2.001 -0.4654  0.1301 -0.4860
  395MOL0     C53204   8.153   0.623   2.092  0.8038  0.0702 -0.7674
  395MOL0     C53205   8.301   0.631   2.098  0.9844 -0.1797  0.1745
  395MOL0     C53206   8.369   0.569   1.977  0.2591 -0.0836  0.8165
  395MOL0     N53207   8.514   0.571   2.004 -0.0154 -0.6219 -0.8711
  395MOL0     C53208   8.571   0.504   2.103  0.0379  0.2832  0.4119
  395MOL0     C53209   8.698   0.552   2.116  0.3547  0.9432 -0.0732
  395MOL0     C53210   8.802   0.478   2.199  0.0810  0.8979 -0.4383
  395MOL0     C53211   8.909   0.396   2.130 -0.4200  0.4989  0.5858
  395MOL0     C53212   8.865   0.243   2.130  0.5620 -0.4713 -0.0627
  395MOL0     C53213   8.966   0.152   2.056  0.2990 -0.4628  0.2057
  395MOL0     O53214   9.093   0.147   2.114 -0.0734  0.2925  0.1559
  395MOL0     C53215   9.183   0.053   2.071  1.1605 -0.9342 -0.3551
  395MOL0     C53216   9.289   0.035   2.157 -1.3942 -0.3381  0.0240
  395MOL0     C53217   9.390  -0.050   2.118 -0.3813 -0.4665  0.5533
  395MOL0     C53218   9.382  -0.135   2.003  0.4798 -0.3483 -0.2758
  395MOL0     C53219   9.479  -0.233   1.977 -0.5588 -0.7147  0.2088
  395MOL0     O53220   9.456  -0.337   1.898  0.0938 -0.0832 -0.2048
  395MOL0     C53221   9.558  -0.428   1.888 -0.9145  0.6799  0.6087
  395MOL0     C53222   9.559  -0.561   1.946  0.1173 -0.5604  0.2592
  395MOL0     C53223   9.670  -0.647   1.933 -0.7921 -0.3961  0.6163
  395MOL0     C53224   9.787  -0.599   1.872 -1.1257  0.2348 -0.1763
  395MOL0     O53225   9.910  -0.668   1.864  0.9372  0.4106  0.3996
  395MOL0     C53226   9.905  -0.811   1.900 -0.2633  0.5362  0.4319
  395MOL0     C53227  10.022  -0.882   1.845 -0.2970 -0.4000 -0.0160
  395MOL0     C53228  10.049  -0.848   1.700  0.1137 -0.0454  0.2335
  395MOL0     C53229  10.149  -0.941   1.642  0.0399  0.5561  0.5528
  395MOL0     C53230  10.299  -0.897   1.670 -0.6472 -0.3733 -0.1125
  395MOL0     C53231  10.415  -0.997   1.626 -0.0283 -0.2303 -0.4340
  395MOL0     C53232  10.553  -0.973   1.696 -0.1511  0.4818 -0.0253
  395MOL0     C53233  10.663  -0.989   1.593 -0.0842  0.8467  0.1776
  395MOL0    Cl53234  10.667  -0.838   1.503  0.2671  0.1544 -0.1146
  395MOL0     C53235   9.789  -0.470   1.816  0.2898  0.7335 -0.1089
  395MOL0     C53236   9.668  -0.392   1.811 -0.0042  0.5663  0.2692
  395MOL0     O53237   9.588  -0.210   2.038  0.3528  0.1380  0.1335
  395MOL0     C53238   9.273  -0.110   1.922 -1.1438  0.0757  0.4196
  395MOL0     C53239   9.171  -0.020   1.956 -0.2216  0.9756  1.4806
  395MOL0     N53240   8.717   0.650   2.024  0.3643 -0.0987  0.0222
  395MOL0     N53241   8.606   0.657   1.958  0.2146  0.4166 -0.2390
  395MOL0     C53242   7.505   1.030   2.120 -0.8545  1.7961 -0.0173
  395MOL0     C53243   7.420   1.138   2.082  0.0397 -0.2928  0.2402
  395MOL0     C53244   7.117   1.471   2.041 -0.6779 -0.2948  0.3768
  395MOL0     C53245   7.118   1.572   1.945 -0.2584  0.7075  0.5238
  395MOL0     C53246   7.016   1.668   1.932  0.7325 -0.4268 -0.1715
  395MOL0     C53247   6.912   1.677   2.029  0.0651  1.0241 -0.3059
  395MOL0     O53248   6.814   1.776   2.013  0.2481 -0.4690 -0.0779
  395MOL0     C53249   6.726   1.802   2.120 -1.1756  0.5212  0.8698
  395MOL0     C53250   6.641   1.924   2.097  1.0186 -0.4756 -0.2415
  395MOL0     C53251   6.600   2.001   2.225  0.3260 -0.6449  0.1671
  395MOL0     C53252   6.474   1.937   2.290  0.2970  0.0722 -0.0773
  395MOL0     C53253   6.426   2.002   2.413 -0.3496 -0.4178  0.0186
  395MOL0     C53254   6.410   2.056   2.514  0.5416  0.0313 -0.1720
  395MOL0     C53255   6.915   1.576   2.131  0.4016 -0.2747  0.6372
  395MOL0     C53256   7.017   1.482   2.138  0.2115  0.2091 -0.1511
  395MOL0     C53257   7.012   1.397   2.262  0.2469  0.4042  0.1483
  395MOL0     H53258   7.132   1.034   2.222  0.0395  0.1727 -0.7742
  395MOL0     H53259   7.274   0.854   2.298 -2.2801  2.8700  0.9892
  395MOL0     H53260   7.693   0.913   2.282 -1.5638  0.6469 -0.3223
  395MOL0     H53261   7.698   0.738   2.309  2.0454 -0.3641 -0.8090
  395MOL0     H53262   7.678   0.848   2.030 -2.1940  1.5614  2.4561
  395MOL0     H53263   7.735   0.684   2.074  2.5153  0.6086 -2.4163
  395MOL0     H53264   7.917   0.786   2.211  0.6069  1.1546  0.9575
  395MOL0     H53265   7.878   0.929   2.113 -3.9656 -0.7435  0.2049
  395MOL0     H53266   7.914   0.648   1.970  0.4308 -0.1907  1.2910
  395MOL0     H53267   7.922   0.794   1.894  2.0235 -2.5179 -1.8743
  395MOL0     H53268   8.142   0.714   1.901  0.1935 -1.4166  0.0591
  395MOL0     H53269   8.144   0.832   2.034 -2.7472  1.0551 -0.2138
  395MOL0     H53270   8.110   0.634   2.192 -1.5211  0.7922 -1.7613
  395MOL0     H53271   8.136   0.518   2.068  1.3116 -0.2585  0.2385
  395MOL0     H53272   8.326   0.583   2.193 -2.0284 -0.9230  0.6928
  395MOL0     H53273   8.335   0.735   2.101 -0.7295  0.4885 -1.4074
  395MOL0     H53274   8.332   0.466   1.965  1.4794 -0.6213  1.4411
  395MOL0     H53275   8.349   0.624   1.885 -1.2001  2.7266  2.6585
  395MOL0     H53276   8.527   0.421   2.157  1.2637 -2.3744 -2.3766
  395MOL0     H53277   8.855   0.561   2.248 -1.5106  1.1622  0.9659
  395MOL0     H53278   8.759   0.420   2.281  1.3066  0.2096 -0.2687
  395MOL0     H53279   8.940   0.427   2.030 -3.0416  3.3810  0.5119
  395MOL0     H53280   8.994   0.399   2.198  0.6736 -0.2580 -0.6943
  395MOL0     H53281   8.768   0.224   2.084 -0.1823 -1.7425  1.8975
  395MOL0     H53282   8.863   0.214   2.235  0.7382 -1.6015 -0.3681
  395MOL0     H53283   8.978   0.192   1.954 -1.3334 -0.1826  0.0956
  395MOL0     H53284   8.926   0.050   2.051 -0.7885 -0.2105  2.6779
  395MOL0     H53285   9.295   0.097   2.246  1.1730 -1.7711  0.9688
  395MOL0     H53286   9.482  -0.053   2.175  0.1085  1.1338 -0.0800
  395MOL0     H53287   9.468  -0.586   2.000 -2.6506  5.5027 -0.7767
  395MOL0     H53288   9.671  -0.744   1.981  2.1617 -0.5984  0.3002
  395MOL0     H53289   9.891  -0.823   2.008 -1.5596  1.2396  0.3608
  395MOL0     H53290   9.823  -0.859   1.848  0.4784 -0.1206 -0.1511
  395MOL0     H53291  10.108  -0.851   1.906  0.6472 -2.9146  0.0408
  395MOL0     H53292  10.011  -0.991   1.847  2.1499 -0.7224 -0.3250
  395MOL0     H53293   9.953  -0.863   1.650 -0.2931  1.5336  0.4834
  395MOL0     H53294  10.070  -0.741   1.697  1.3606 -0.2876 -0.3737
  395MOL0     H53295  10.141  -0.952   1.533  3.1403  1.1924  0.1471
  395MOL0     H53296  10.126  -1.040   1.680 -3.3489  0.8790 -0.3269
  395MOL0     H53297  10.311  -0.878   1.777  2.3316  3.5421 -0.9356
  395MOL0     H53298  10.327  -0.801   1.626 -1.7882  0.2863  0.5740
  395MOL0     H53299  10.397  -1.102   1.651  2.1769 -0.2454  1.3640
  395MOL0     H53300  10.422  -0.989   1.517  1.7318  0.7774 -0.2849
  395MOL0     H53301  10.582  -1.029   1.786  1.8517  2.2286  0.4974
  395MOL0     H53302  10.570  -0.871   1.732  1.2935  0.0178  0.7042
  395MOL0     H53303  10.762  -0.992   1.640  0.1569 -1.7191 -0.3504
  395MOL0     H53304  10.654  -1.073   1.524 -0.2920  0.1649  1.0073
  395MOL0     H53305   9.887  -0.434   1.788  0.4858  0.7106  0.5342
  395MOL0     H53306   9.674  -0.291   1.771  0.7780  0.3079 -0.3008
  395MOL0     H53307   9.265  -0.151   1.821  1.0251  1.1058 -0.2286
  395MOL0     H53308   9.087  -0.022   1.888  1.2006 -1.5901 -0.4212
  395MOL0     H53309   7.610   1.033   2.091 -0.4920 -2.7340  0.1112
  395MOL0     H53310   7.466   1.224   2.033 -0.5069 -1.1323 -1.8515
  395MOL0     H53311   7.198   1.564   1.871 -1.2301 -2.4783 -0.3513
  395MOL0     H53312   7.019   1.738   1.849 -1.5156  0.6879  0.6097
  395MOL0     H53313   6.791   1.803   2.208  1.3363 -0.4891 -0.8603
  395MOL0     H53314   6.663   1.714   2.132 -1.4408  0.9595  3.0337
  395MOL0     H53315   6.554   1.895   2.037  0.7523  3.1171 -1.8351
  395MOL0     H53316   6.697   1.997   2.037  0.9519 -0.1901  0.0384
  395MOL0     H53317   6.563   2.099   2.194  0.4954 -0.0553  1.7307
  395MOL0     H53318   6.685   2.010   2.293 -0.1224 -2.1636  0.9758
  395MOL0     H53319   6.392   1.951   2.219 -0.7839 -0.9114  0.9440
  395MOL0     H53320   6.493   1.832   2.313 -1.5135 -0.3879 -0.5414
  395MOL0     H53321   6.367   2.098   2.603 -2.8379  2.2083 -2.5816
  395MOL0     H53322   6.836   1.575   2.205  0.1223 -1.0558  0.3341
  395MOL0     H53323   6.987   1.295   2.234  0.7687  0.1915  0.4385
  395MOL0     H53324   7.114   1.391   2.302  0.1785  0.9184  0.4096
  395MOL0     H53325   6.939   1.435   2.335 -2.2764  1.2645 -2.6188
  396MOL0     O53326   6.840   6.715   6.524  0.0405  0.1421 -0.5323
  396MOL0     C53327   6.812   6.628   6.606 -0.2786  0.8495 -0.7854
  396MOL0     O53328   6.919   6.560   6.668 -0.2293 -0.2077  0.2471
  396MOL0     C53329   7.053   6.592   6.638  0.1035  0.3423  0.1535
  396MOL0     C53330   7.127   6.499   6.562 -0.4318  0.6966 -0.2060
  396MOL0     C53331   7.262   6.514   6.534 -0.3401 -0.4183  0.5310
  396MOL0     C53332   7.332   6.630   6.562 -0.0110  0.3329 -0.7825
  396MOL0     O53333   7.463   6.644   6.535  0.1606  0.6552  0.3591
  396MOL0     C53334   7.531   6.577   6.428 -0.8160  0.4777 -0.3210
  396MOL0     C53335   7.680   6.609   6.455  0.7963 -0.2002  0.1909
  396MOL0     C53336   7.701   6.761   6.450 -0.3290 -0.4911  0.4432
  396MOL0     C53337   7.839   6.782   6.389 -0.1460 -1.3045  0.4417
  396MOL0     C53338   7.893   6.930   6.414  0.2957  0.3958 -0.6039
  396MOL0     C53339   8.036   6.944   6.363 -0.0202  1.4080  0.6472
  396MOL0     C53340   8.092   7.072   6.404 -1.4364 -0.5339 -0.1403
  396MOL0     C53341   8.218   7.127   6.331  0.6938  0.3227 -0.0689
  396MOL0     N53342   8.326   7.025   6.321 -0.3302  0.1772  0.6451
  396MOL0     C53343   8.430   7.021   6.408  0.2900  0.1012 -0.6669
  396MOL0     C53344   8.505   6.917   6.367 -0.1055 -0.4929  0.2496
  396MOL0     C53345   8.636   6.880   6.437  0.0070 -0.0584  0.5750
  396MOL0     C53346   8.739   6.999   6.423  0.7636  0.0624 -0.0342
  396MOL0     C53347   8.858   6.992   6.513  0.1403  0.4657  0.2970
  396MOL0     C53348   8.989   6.952   6.446 -0.2211  0.4178 -1.0189
  396MOL0     O53349   9.104   6.953   6.537 -0.6749 -0.2735  0.0475
  396MOL0     C53350   9.229   6.901   6.491 -0.3657 -0.1604  0.4134
  396MOL0     C53351   9.270   6.924   6.351 -0.2418  0.5739 -0.2756
  396MOL0     C53352   9.395   6.876   6.307 -0.1877 -0.1331  0.1294
  396MOL0     C53353   9.482   6.808   6.392  0.1769 -0.4160 -0.6505
  396MOL0     C53354   9.613   6.760   6.340  0.3291 -0.2523 -0.6823
  396MOL0     O53355   9.682   6.682   6.431  0.1202  0.9755 -0.2215
  396MOL0     C53356   9.777   6.584   6.394 -0.1595 -1.0225  0.0731
  396MOL0     C53357   9.864   6.530   6.490  1.0346  0.1981 -0.5068
  396MOL0     C53358   9.963   6.443   6.454 -0.4572  0.4791  0.4404
  396MOL0     C53359   9.994   6.403   6.320 -0.9862  0.1218  0.2487
  396MOL0     O53360  10.104   6.309   6.291  1.1299  0.2430 -0.0284
  396MOL0     C53361  10.141   6.285   6.153 -0.3356 -0.4161  0.8029
  396MOL0     C53362  10.263   6.188   6.156  0.6954  0.2181  0.7729
  396MOL0     C53363  10.343   6.194   6.024 -0.5771 -0.5837  0.4683
  396MOL0     C53364  10.470   6.103   6.031 -1.1641  0.0571  0.7477
  396MOL0     C53365  10.598   6.158   6.099  1.3239  0.5607 -0.0325
  396MOL0     C53366  10.723   6.066   6.093 -0.5636 -0.0534 -1.4682
  396MOL0     C53367  10.708   5.953   6.198 -1.1407  0.4216  0.2854
  396MOL0     C53368  10.845   5.880   6.218 -0.7715 -0.5168  0.6178
  396MOL0    Cl53369  10.806   5.731   6.307  0.3164  0.2580  0.4077
  396MOL0     C53370   9.911   6.468   6.226  0.0811 -1.2461  0.1050
  396MOL0     C53371   9.813   6.552   6.263  0.7943 -0.1205 -0.5858
  396MOL0     O53372   9.654   6.796   6.231 -0.7515 -0.4872 -0.1564
  396MOL0     C53373   9.446   6.800   6.530 -0.1336  0.5960 -0.8382
  396MOL0     C53374   9.326   6.845   6.581 -0.0890 -0.9856  0.0807
  396MOL0     N53375   8.448   6.859   6.252  0.5121 -0.2662 -0.2261
  396MOL0     N53376   8.339   6.928   6.223 -0.1702  0.2127 -0.0109
  396MOL0     C53377   7.256   6.723   6.642  0.2652  0.0200  0.0882
  396MOL0     C53378   7.121   6.704   6.686 -0.6072  0.6795  0.7179
  396MOL0     C53379   6.666   6.595   6.624  0.0037 -0.3688  0.4052
  396MOL0     C53380   6.576   6.649   6.529  0.0224  0.2043  0.1541
  396MOL0     C53381   6.439   6.646   6.548 -0.0923  0.4125  0.0255
  396MOL0     C53382   6.385   6.570   6.661 -0.2842  0.3446 -0.4548
  396MOL0     O53383   6.249   6.546   6.692  0.5677  1.0579 -0.1395
  396MOL0     C53384   6.159   6.589   6.585  0.1796  0.1594  0.0829
  396MOL0     C53385   6.014   6.549   6.604 -0.9324 -0.3656  0.1190
  396MOL0     C53386   5.979   6.588   6.751  0.0705  0.4067 -0.1180
  396MOL0     C53387   5.829   6.602   6.757 -1.0061  0.3176 -0.3134
  396MOL0     C53388   5.786   6.744   6.736  0.4480  0.8115  0.4696
  396MOL0     C53389   5.753   6.857   6.711 -1.0813  0.3658 -0.2935
  396MOL0     C53390   6.481   6.523   6.754  0.9097  0.1102 -0.5068
  396MOL0     C53391   6.615   6.534   6.741 -1.0903  0.3990  0.5799
  396MOL0     C53392   6.708   6.466   6.842  0.6008 -0.4002  0.3362
  396MOL0     H53393   7.079   6.413   6.516 -2.9068  0.9362  1.7059
  396MOL0     H53394   7.297   6.439   6.464  1.3010  0.7786  0.0109
  396MOL0     H53395   7.523   6.469   6.442  1.2685  0.1091 -1.5605
  396MOL0     H53396   7.509   6.598   6.323 -0.3631 -3.5065 -1.3847
  396MOL0     H53397   7.749   6.555   6.390  1.8040 -1.8171  2.4492
  396MOL0     H53398   7.692   6.568   6.556  2.1864 -1.8365 -0.5809
  396MOL0     H53399   7.696   6.792   6.555  1.6306 -3.5874  1.5930
  396MOL0     H53400   7.626   6.799   6.381  0.6838  2.4533  0.8355
  396MOL0     H53401   7.904   6.704   6.430 -1.0415 -1.5360  1.4369
  396MOL0     H53402   7.838   6.775   6.279 -1.3138 -0.9531  0.4198
  396MOL0     H53403   7.829   7.000   6.358  0.2083  2.5188  1.9518
  396MOL0     H53404   7.894   6.952   6.521 -2.1290 -1.6499 -0.0599
  396MOL0     H53405   8.103   6.864   6.395  3.6286  2.6179 -3.0248
  396MOL0     H53406   8.039   6.933   6.254 -0.5893  2.0896  0.5560
  396MOL0     H53407   8.129   7.063   6.507 -2.6426 -1.4742  0.2337
  396MOL0     H53408   8.018   7.152   6.411 -2.4580 -1.5826  1.7124
  396MOL0     H53409   8.197   7.163   6.230 -0.2273  3.0301  0.9924
  396MOL0     H53410   8.252   7.211   6.392  1.4476 -1.3893  2.0019
  396MOL0     H53411   8.458   7.082   6.494 -0.7799 -2.4096  1.6055
  396MOL0     H53412   8.609   6.870   6.542 -1.4726  0.3021  0.2622
  396MOL0     H53413   8.681   6.787   6.401 -1.0746 -0.5062  0.3104
  396MOL0     H53414   8.767   7.011   6.318  1.1837 -1.6899 -0.1550
  396MOL0     H53415   8.685   7.085   6.465  3.0449  0.9504  1.2969
  396MOL0     H53416   8.840   6.915   6.588 -2.8549  3.3471  2.8427
  396MOL0     H53417   8.880   7.088   6.562  2.1942  0.2546 -0.1005
  396MOL0     H53418   9.012   7.025   6.368 -0.2584  2.0649  0.4486
  396MOL0     H53419   8.977   6.852   6.406  0.8710 -0.2235  0.1737
  396MOL0     H53420   9.201   6.977   6.287 -0.3150  1.8627  0.8264
  396MOL0     H53421   9.420   6.888   6.202 -0.9708 -0.1113 -0.0591
  396MOL0     H53422   9.840   6.545   6.595  2.8728 -0.0035 -0.0265
  396MOL0     H53423  10.023   6.396   6.532  1.0046 -0.5471 -1.2215
  396MOL0     H53424  10.064   6.239   6.091  1.7956 -1.7659 -0.9707
  396MOL0     H53425  10.159   6.388   6.121  0.8681 -0.0681  2.4716
  396MOL0     H53426  10.328   6.218   6.239 -1.8717 -0.7564  3.2918
  396MOL0     H53427  10.223   6.089   6.178  0.6175  0.0218 -0.2374
  396MOL0     H53428  10.272   6.171   5.944 -0.3056  2.0322 -0.6232
  396MOL0     H53429  10.376   6.297   6.010  0.3481 -0.6093  2.2012
  396MOL0     H53430  10.499   6.076   5.930  0.4271  0.2911  1.1262
  396MOL0     H53431  10.441   6.003   6.066 -0.8661  0.1554  1.2923
  396MOL0     H53432  10.572   6.161   6.205 -0.5530  0.1045 -0.4499
  396MOL0     H53433  10.633   6.253   6.057 -0.2845  1.1217 -0.1811
  396MOL0     H53434  10.738   6.035   5.989 -0.5227 -3.0247 -0.6659
  396MOL0     H53435  10.817   6.119   6.109 -0.7780  0.4781 -1.9448
  396MOL0     H53436  10.634   5.877   6.173  0.2828 -1.1128  0.5803
  396MOL0     H53437  10.680   5.985   6.299  0.6413  0.0141  0.9385
  396MOL0     H53438  10.879   5.856   6.117  0.4229  1.6528  0.4415
  396MOL0     H53439  10.914   5.944   6.273  1.4978 -1.2923 -1.1439
  396MOL0     H53440   9.925   6.458   6.119 -0.3374  3.0876 -0.5280
  396MOL0     H53441   9.764   6.602   6.180 -0.5958  1.1712  0.9323
  396MOL0     H53442   9.523   6.761   6.596  1.3422  1.3081 -2.0586
  396MOL0     H53443   9.316   6.845   6.689  1.8343  2.1311  0.3937
  396MOL0     H53444   7.312   6.809   6.676 -0.4935 -0.4647  2.7935
  396MOL0     H53445   7.072   6.776   6.751 -0.7949  2.4190 -1.2385
  396MOL0     H53446   6.613   6.709   6.447  0.0114  0.3704  0.2707
  396MOL0     H53447   6.366   6.691   6.481 -2.0710  1.3083  2.6036
  396MOL0     H53448   6.196   6.549   6.491 -0.6242 -1.4631  0.4291
  396MOL0     H53449   6.168   6.697   6.568  1.7303  0.2108  1.0235
  396MOL0     H53450   6.006   6.441   6.586 -1.0010 -0.6247  1.5275
  396MOL0     H53451   5.948   6.601   6.534 -0.2649 -1.3665 -1.3137
  396MOL0     H53452   6.025   6.681   6.784 -0.7356  0.4489  0.9471
  396MOL0     H53453   6.009   6.511   6.823 -0.6445 -0.3116 -0.5680
  396MOL0     H53454   5.776   6.541   6.683 -0.6970 -1.7052  1.0469
  396MOL0     H53455   5.789   6.572   6.854  2.6998  0.6894  1.5140
  396MOL0     H53456   5.738   6.961   6.693 -1.3724  0.4302  0.3087
  396MOL0     H53457   6.446   6.461   6.836  1.0048 -0.2879 -0.7669
  396MOL0     H53458   6.776   6.534   6.894  0.1988  0.9095 -0.7943
  396MOL0     H53459   6.653   6.420   6.925  2.2448 -1.5995  0.8076
  396MOL0     H53460   6.763   6.387   6.789  1.5141 -0.0177  0.6984
  397MOL0     O53461   7.233  10.002   5.649  0.3311  0.5573  0.0664
  397MOL0     C53462   7.288  10.108   5.608 -0.4328 -0.0066  0.2016
  397MOL0     O53463   7.412  10.152   5.652  0.3634 -0.1676 -0.0958
  397MOL0     C53464   7.502  10.069   5.716 -0.1856  0.9707  0.1786
  397MOL0     C53465   7.597  10.131   5.798  0.0474  0.6190  1.2601
  397MOL0     C53466   7.706  10.057   5.856 -0.8381  0.0828 -0.1166
  397MOL0     C53467   7.718   9.922   5.845 -0.2891  0.3409 -0.0041
  397MOL0     O53468   7.823   9.842   5.891  0.3891 -0.2347  0.2554
  397MOL0     C53469   7.921   9.882   5.994  0.1176  0.2820 -0.2983
  397MOL0     C53470   8.050   9.810   5.947  0.2244 -0.3187  0.0515
  397MOL0     C53471   8.099   9.850   5.809  0.0534 -0.1554 -0.4460
  397MOL0     C53472   8.201   9.959   5.819 -0.2070 -0.1727  0.6453
  397MOL0     C53473   8.339   9.919   5.865 -0.3902  0.1152 -0.5042
  397MOL0     C53474   8.428  10.041   5.868  0.2001 -0.9889 -0.6134
  397MOL0     C53475   8.566  10.020   5.937 -0.4878  1.0085  1.0479
  397MOL0     C53476   8.664   9.942   5.849  0.6053  0.2675 -0.5916
  397MOL0     N53477   8.780   9.888   5.923 -0.3544  0.3588  0.2845
  397MOL0     C53478   8.833   9.766   5.893 -0.4079  0.5541  0.0519
  397MOL0     C53479   8.953   9.773   5.956 -0.5482 -0.1183  0.4635
  397MOL0     C53480   9.056   9.663   5.964 -0.4162 -0.2433  0.0346
  397MOL0     C53481   9.166   9.698   5.864 -0.4206  0.2325 -0.2740
  397MOL0     C53482   9.295   9.624   5.902  0.1749 -0.1748 -0.1764
  397MOL0     C53483   9.397   9.649   5.797  0.3490 -0.3593 -0.6148
  397MOL0     O53484   9.526   9.610   5.851  0.7589 -0.2797 -0.5707
  397MOL0     C53485   9.631   9.626   5.762 -0.3794  0.6395 -0.3722
  397MOL0     C53486   9.636   9.719   5.661  0.1584  0.8348 -0.5728
  397MOL0     C53487   9.748   9.742   5.590  0.4596 -0.2661 -1.0518
  397MOL0     C53488   9.868   9.672   5.623 -0.5500  0.0899  0.0090
  397MOL0     C53489   9.988   9.706   5.550 -0.0434  0.9200 -0.5824
  397MOL0     O53490  10.113   9.667   5.610  0.3508 -0.1104  0.0703
  397MOL0     C53491  10.235   9.690   5.538 -0.1421 -0.1209 -0.8591
  397MOL0     C53492  10.310   9.576   5.507 -0.3823  0.7217 -0.2630
  397MOL0     C53493  10.441   9.589   5.469 -0.4385  0.7127 -0.5954
  397MOL0     C53494  10.492   9.713   5.438  0.6128 -0.2318  0.1177
  397MOL0     O53495  10.620   9.731   5.390  0.2335 -0.1957  0.4585
  397MOL0     C53496  10.712   9.628   5.393 -0.7813 -1.0746  0.6010
  397MOL0     C53497  10.850   9.687   5.362  0.4784 -0.1859 -0.1601
  397MOL0     C53498  10.940   9.735   5.485  0.5295 -0.0582  0.2854
  397MOL0     C53499  11.088   9.743   5.440 -0.2951  0.2716  0.3366
  397MOL0     C53500  11.176   9.780   5.559  0.8575 -0.2168 -0.6039
  397MOL0     C53501  11.323   9.791   5.515 -0.3998 -0.3948  0.0071
  397MOL0     C53502  11.349   9.929   5.448  0.3385 -0.7928  0.5289
  397MOL0     C53503  11.451   9.918   5.335 -0.1572  0.0142  0.3004
  397MOL0    Cl53504  11.472  10.078   5.283 -0.5535  0.2227 -0.2091
  397MOL0     C53505  10.406   9.826   5.445  0.4702  0.3693  0.7253
  397MOL0     C53506  10.277   9.817   5.502 -0.9113 -0.5737  0.7263
  397MOL0     O53507   9.983   9.749   5.436 -0.5001  0.1709 -0.1697
  397MOL0     C53508   9.865   9.576   5.729  0.2213 -0.7143 -0.2354
  397MOL0     C53509   9.745   9.554   5.800 -0.0581 -1.1647 -0.2794
  397MOL0     N53510   8.955   9.887   6.037 -0.4440  0.7307  0.1013
  397MOL0     N53511   8.848   9.952   6.020 -1.3555 -0.9203 -0.4580
  397MOL0     C53512   7.623   9.860   5.762  0.1380 -0.3760 -0.1794
  397MOL0     C53513   7.520   9.931   5.693 -0.6434  0.2394  0.9999
  397MOL0     C53514   7.207  10.198   5.519  0.2640  0.2836  0.6572
  397MOL0     C53515   7.082  10.153   5.486  0.0738  0.2894  0.5159
  397MOL0     C53516   6.988  10.230   5.423 -0.4448  0.4550  0.0433
  397MOL0     C53517   7.014  10.366   5.390  0.4293  1.2830 -0.6104
  397MOL0     O53518   6.915  10.446   5.351 -0.0179 -0.2129 -0.0236
  397MOL0     C53519   6.931  10.586   5.343 -0.0806  0.3687 -0.4371
  397MOL0     C53520   6.799  10.668   5.337  0.4045 -0.2728 -1.2702
  397MOL0     C53521   6.699  10.636   5.452 -0.0473  0.0565  0.3258
  397MOL0     C53522   6.754  10.663   5.595 -0.1890  0.1067  0.0574
  397MOL0     C53523   6.795  10.532   5.654 -0.3338  0.0834  0.5723
  397MOL0     C53524   6.820  10.425   5.695  0.6744  0.5914  0.2341
  397MOL0     C53525   7.145  10.414   5.419  0.1955 -0.1679  0.2045
  397MOL0     C53526   7.241  10.332   5.473 -0.1693 -0.0758  0.0276
  397MOL0     C53527   7.370  10.396   5.510 -0.3674 -0.3394  0.2797
  397MOL0     H53528   7.578  10.236   5.815 -3.9113  0.1936  0.4783
  397MOL0     H53529   7.775  10.117   5.914 -1.5245 -0.0121  0.8119
  397MOL0     H53530   7.933   9.990   5.985  0.0855  0.2093 -1.4215
  397MOL0     H53531   7.891   9.855   6.096 -0.7933 -2.3478 -1.1622
  397MOL0     H53532   8.027   9.704   5.962  2.1892 -0.6073  1.3767
  397MOL0     H53533   8.127   9.835   6.020 -0.8537  2.4697  0.3547
  397MOL0     H53534   8.026   9.893   5.740 -0.5436  0.7239  0.6882
  397MOL0     H53535   8.154   9.765   5.768  1.4389 -0.5266  1.9841
  397MOL0     H53536   8.204   9.995   5.716 -2.4577 -0.9088  0.2579
  397MOL0     H53537   8.163  10.044   5.876  0.6506  1.5279 -1.1822
  397MOL0     H53538   8.318   9.886   5.967 -0.4578 -0.1022 -0.5880
  397MOL0     H53539   8.385   9.842   5.803 -0.5848  0.0788 -0.6044
  397MOL0     H53540   8.433  10.086   5.768  0.3583  1.0934  0.2613
  397MOL0     H53541   8.384  10.120   5.930  1.3717 -0.2914 -0.6412
  397MOL0     H53542   8.564   9.982   6.039  2.4452 -1.6382  0.3041
  397MOL0     H53543   8.608  10.120   5.952 -1.9550  1.9821 -0.9033
  397MOL0     H53544   8.605   9.859   5.809 -1.3387  2.1527 -1.8488
  397MOL0     H53545   8.705   9.998   5.764 -0.8672  0.5563 -1.1427
  397MOL0     H53546   8.801   9.677   5.840 -1.6907  0.3702  1.0793
  397MOL0     H53547   9.101   9.659   6.063 -0.1556  1.7053  0.0385
  397MOL0     H53548   9.007   9.567   5.944 -0.6272 -0.0584 -0.3563
  397MOL0     H53549   9.143   9.673   5.760  0.2669 -0.5384 -0.2476
  397MOL0     H53550   9.181   9.807   5.862  0.7338  0.0882 -1.8631
  397MOL0     H53551   9.271   9.518   5.907  2.9963 -0.8695  1.1781
  397MOL0     H53552   9.321   9.657   6.003  0.3331  1.7378 -0.7964
  397MOL0     H53553   9.388   9.753   5.765 -0.3364 -0.4021 -0.5716
  397MOL0     H53554   9.371   9.591   5.708 -0.0485  0.3114 -0.9397
  397MOL0     H53555   9.551   9.782   5.637 -1.6487 -1.1567  0.2733
  397MOL0     H53556   9.745   9.811   5.507 -0.2044  0.3751 -0.5081
  397MOL0     H53557  10.263   9.480   5.522  0.3555  0.6416  1.9035
  397MOL0     H53558  10.500   9.501   5.446 -0.3231 -0.2311  2.7708
  397MOL0     H53559  10.718   9.569   5.485  1.6310 -1.9788 -0.0388
  397MOL0     H53560  10.683   9.566   5.308 -4.2078  1.9924 -0.7159
  397MOL0     H53561  10.901   9.612   5.300 -1.4544 -0.2104 -1.8119
  397MOL0     H53562  10.828   9.773   5.298 -1.3652  0.0210  0.7083
  397MOL0     H53563  10.913   9.838   5.512 -0.1938 -0.0792 -0.3056
  397MOL0     H53564  10.922   9.678   5.577 -0.0013  0.6813  0.6627
  397MOL0     H53565  11.095   9.824   5.368 -0.7632  1.3554  1.4763
  397MOL0     H53566  11.120   9.659   5.378 -3.4588  0.2858 -1.5161
  397MOL0     H53567  11.159   9.704   5.636  2.4720 -0.1972 -0.1930
  397MOL0     H53568  11.140   9.872   5.605 -1.1687 -0.3099 -1.8713
  397MOL0     H53569  11.383   9.781   5.606  0.3933 -0.9567 -0.5572
  397MOL0     H53570  11.358   9.711   5.449  1.4984  0.2283  0.1993
  397MOL0     H53571  11.374  10.004   5.523  2.6808 -1.8153  0.8678
  397MOL0     H53572  11.250   9.962   5.415  1.7395  3.0930 -0.3017
  397MOL0     H53573  11.546   9.880   5.373 -0.9261 -0.8936  1.3837
  397MOL0     H53574  11.415   9.847   5.260 -0.6868 -1.2702  1.7180
  397MOL0     H53575  10.435   9.921   5.401 -0.3454  0.2107 -0.1940
  397MOL0     H53576  10.219   9.905   5.526 -1.0225 -0.2654 -0.6142
  397MOL0     H53577   9.951   9.516   5.757  0.3368 -0.9413 -1.0654
  397MOL0     H53578   9.748   9.493   5.890  0.8265 -1.5554 -0.5607
  397MOL0     H53579   7.632   9.755   5.740  0.1189 -0.1129 -1.5383
  397MOL0     H53580   7.458   9.873   5.625  1.8509 -3.2730  1.4159
  397MOL0     H53581   7.042  10.057   5.517 -1.8988  1.4668  1.8652
  397MOL0     H53582   6.894  10.181   5.398  1.0491 -2.0056 -1.0996
  397MOL0     H53583   6.988  10.619   5.256  0.4950  0.2863 -0.0919
  397MOL0     H53584   6.986  10.619   5.431 -0.0486  0.2824 -0.4251
  397MOL0     H53585   6.748  10.644   5.244  0.6683 -0.0122 -1.4847
  397MOL0     H53586   6.810  10.777   5.343  1.8485 -0.4400 -0.3838
  397MOL0     H53587   6.668  10.534   5.430  0.7886  0.5263 -3.8932
  397MOL0     H53588   6.608  10.695   5.437 -0.0301  0.4666  1.7351
  397MOL0     H53589   6.830  10.742   5.600 -3.3854  3.4821 -0.6475
  397MOL0     H53590   6.673  10.704   5.656  0.4917  3.1008 -0.9170
  397MOL0     H53591   6.832  10.330   5.743 -2.7475  0.1869  0.5669
  397MOL0     H53592   7.176  10.517   5.406  0.2363 -0.0826  0.8985
  397MOL0     H53593   7.384  10.397   5.618  1.5243  2.9942  0.1650
  397MOL0     H53594   7.451  10.351   5.452 -0.5426 -0.3030  0.0042
  397MOL0     H53595   7.370  10.503   5.487 -0.6199 -0.3322  0.3153
  398MOL0     O53596   4.963   7.679   6.819 -0.0087 -0.1108  0.5700
  398MOL0     C53597   5.049   7.612   6.871 -0.9380 -0.3354  0.0386
  398MOL0     O53598   5.030   7.503   6.964  0.3000  0.1626  0.2734
  398MOL0     C53599   4.901   7.462   6.992  0.4380  0.7277  0.0048
  398MOL0     C53600   4.862   7.330   6.958  0.9589  0.7516  0.4918
  398MOL0     C53601   4.725   7.297   6.983  0.1755 -0.2843 -0.4146
  398MOL0     C53602   4.633   7.390   7.048  0.7922  0.0738  0.3361
  398MOL0     O53603   4.508   7.359   7.098  0.1362 -0.2086 -0.0611
  398MOL0     C53604   4.446   7.237   7.049 -0.7304  0.1970 -1.1577
  398MOL0     C53605   4.293   7.246   7.087  0.0224  0.2906 -0.0140
  398MOL0     C53606   4.225   7.111   7.047  0.4239 -0.1473 -0.5871
  398MOL0     C53607   4.071   7.113   7.069 -0.4132 -0.4382  0.1830
  398MOL0     C53608   4.007   6.991   7.021  0.4764  0.0729 -0.5732
  398MOL0     C53609   3.853   6.997   7.029 -0.3444  0.9242 -0.2446
  398MOL0     C53610   3.801   7.082   6.910  0.0916  0.1158  0.3355
  398MOL0     C53611   3.651   7.086   6.910 -0.1997 -0.4130  1.2673
  398MOL0     N53612   3.600   7.191   6.817 -0.0877 -0.3896 -0.7716
  398MOL0     C53613   3.516   7.294   6.848  0.5253  0.3427  0.1112
  398MOL0     C53614   3.516   7.365   6.734  0.3729 -0.6932  1.4042
  398MOL0     C53615   3.471   7.511   6.723  0.1208  0.3166 -0.0543
  398MOL0     C53616   3.576   7.624   6.716 -0.1021 -0.1340 -0.0151
  398MOL0     C53617   3.697   7.598   6.797 -0.0018  0.3282  0.7437
  398MOL0     C53618   3.811   7.704   6.792  0.4597 -0.4000  0.3704
  398MOL0     O53619   3.919   7.649   6.864  0.2125  0.6098  0.1541
  398MOL0     C53620   4.023   7.737   6.897  0.6034  0.9382 -0.2734
  398MOL0     C53621   4.028   7.874   6.874 -0.2743 -0.1375 -0.2574
  398MOL0     C53622   4.156   7.933   6.908 -0.2828  0.4194 -0.3448
  398MOL0     C53623   4.261   7.859   6.978 -0.1742 -0.8892 -0.1734
  398MOL0     C53624   4.383   7.935   7.038  0.9279  1.0181  0.1535
  398MOL0     O53625   4.492   7.863   7.031 -0.3682 -0.4475  0.0176
  398MOL0     C53626   4.612   7.915   7.061  0.7130 -0.4030 -0.7700
  398MOL0     C53627   4.709   7.914   6.964  0.6235 -0.4722 -0.0945
  398MOL0     C53628   4.844   7.939   7.002 -0.1974 -0.2012  0.1869
  398MOL0     C53629   4.877   7.972   7.135  1.0225 -0.2767  0.3324
  398MOL0     O53630   5.001   8.002   7.167 -0.2881  0.1923  0.4734
  398MOL0     C53631   5.094   7.892   7.159  0.0170 -0.1633  0.6425
  398MOL0     C53632   5.233   7.957   7.149  0.3093 -0.2009 -0.2846
  398MOL0     C53633   5.271   8.020   7.280 -0.4615 -0.0506 -0.5198
  398MOL0     C53634   5.403   8.104   7.268  0.0647  0.5938  0.3905
  398MOL0     C53635   5.473   8.108   7.407  0.1015 -0.1323 -0.8254
  398MOL0     C53636   5.609   8.169   7.405 -0.7592 -0.1887  0.2711
  398MOL0     C53637   5.601   8.320   7.407  0.0909  0.1494 -0.4559
  398MOL0     C53638   5.554   8.380   7.537 -0.0487  0.2302 -0.0616
  398MOL0    Cl53639   5.590   8.561   7.551  0.0342  0.2263  0.2758
  398MOL0     C53640   4.770   7.971   7.233 -0.2803 -0.0862 -0.3348
  398MOL0     C53641   4.641   7.944   7.192  0.0371  0.5787 -0.2140
  398MOL0     O53642   4.372   8.049   7.072 -0.2697 -0.4798 -1.2963
  398MOL0     C53643   4.249   7.726   6.987  0.2497 -0.3633 -0.5169
  398MOL0     C53644   4.131   7.663   6.946  0.0413  0.1006  0.2667
  398MOL0     N53645   3.578   7.296   6.635 -0.2901  0.4516  0.7053
  398MOL0     N53646   3.630   7.197   6.688 -0.0315 -0.2304  0.0916
  398MOL0     C53647   4.674   7.514   7.081 -0.2076  0.1170  0.1937
  398MOL0     C53648   4.806   7.550   7.051 -0.2256  0.1877  0.2388
  398MOL0     C53649   5.191   7.658   6.864  0.2317 -0.0113 -0.2962
  398MOL0     C53650   5.279   7.626   6.972 -0.2158  0.1522  0.3849
  398MOL0     C53651   5.413   7.651   6.958 -0.6674 -0.9162  0.3214
  398MOL0     C53652   5.469   7.711   6.849 -0.1852 -0.3556  0.3781
  398MOL0     O53653   5.604   7.732   6.849 -0.2233 -0.2077  0.6363
  398MOL0     C53654   5.664   7.777   6.729 -0.4252  0.4955 -0.2358
  398MOL0     C53655   5.814   7.795   6.750  0.6913 -0.5748  0.2081
  398MOL0     C53656   5.842   7.903   6.856 -0.4664  0.5629 -0.2954
  398MOL0     C53657   5.996   7.892   6.886  0.4476  0.9114 -0.5417
  398MOL0     C53658   6.028   8.000   6.984 -0.2799  0.1389  0.5767
  398MOL0     C53659   6.035   8.092   7.067  0.0409  0.0413  0.4648
  398MOL0     C53660   5.385   7.756   6.741 -0.1294  0.1382 -0.0491
  398MOL0     C53661   5.251   7.716   6.742 -0.3023  0.2337 -0.0741
  398MOL0     C53662   5.167   7.724   6.616  0.7739 -0.2771  0.2584
  398MOL0     H53663   4.936   7.259   6.922 -0.3862 -0.0288 -0.8493
  398MOL0     H53664   4.692   7.196   6.961 -1.5215 -0.0528  0.8902
  398MOL0     H53665   4.461   7.222   6.942 -0.1922 -0.6234 -0.9784
  398MOL0     H53666   4.490   7.146   7.091 -1.9169  0.1410  0.0319
  398MOL0     H53667   4.247   7.334   7.043 -0.0740 -0.4955 -1.5537
  398MOL0     H53668   4.291   7.257   7.196  3.4296 -1.2381  0.3373
  398MOL0     H53669   4.273   7.035   7.109  2.3435  0.4717 -1.2278
  398MOL0     H53670   4.254   7.094   6.943 -0.3975 -1.4311 -0.6181
  398MOL0     H53671   4.035   7.119   7.172  0.2749 -2.1460  0.5511
  398MOL0     H53672   4.033   7.201   7.015  1.6881 -0.7400 -1.9295
  398MOL0     H53673   4.038   6.971   6.918  1.5829 -4.0204  0.3587
  398MOL0     H53674   4.039   6.909   7.085  0.2954  0.0041 -0.5707
  398MOL0     H53675   3.812   6.898   7.006 -2.0073  1.6735 -0.6350
  398MOL0     H53676   3.813   7.029   7.126 -1.1161 -1.5252  0.3172
  398MOL0     H53677   3.824   7.031   6.817  2.1020  1.1195  0.2299
  398MOL0     H53678   3.840   7.184   6.913 -3.2267  1.5274  0.0064
  398MOL0     H53679   3.616   6.992   6.868 -1.2129  0.8215 -0.8623
  398MOL0     H53680   3.617   7.104   7.012  0.5500  0.9060  1.3187
  398MOL0     H53681   3.479   7.324   6.945 -2.7151 -2.5411 -0.0378
  398MOL0     H53682   3.400   7.517   6.640 -1.4851 -0.5644  1.2080
  398MOL0     H53683   3.404   7.533   6.806 -2.1109  1.2279 -1.9981
  398MOL0     H53684   3.616   7.639   6.616 -0.0449  0.6884  0.1191
  398MOL0     H53685   3.531   7.718   6.749 -1.4169 -0.4037 -0.9357
  398MOL0     H53686   3.739   7.503   6.764  1.9428  0.8682  1.5349
  398MOL0     H53687   3.667   7.592   6.902  0.3647 -0.4528  0.8090
  398MOL0     H53688   3.779   7.797   6.840  1.8054  0.3538 -0.1202
  398MOL0     H53689   3.841   7.727   6.690 -0.3415 -2.8394 -0.4654
  398MOL0     H53690   3.947   7.924   6.822 -1.0029 -1.0910 -0.0715
  398MOL0     H53691   4.184   8.036   6.889  1.3639 -0.1131 -0.9254
  398MOL0     H53692   4.676   7.889   6.863 -0.8106  1.1382 -0.0684
  398MOL0     H53693   4.920   7.922   6.926  3.0358 -2.3024  3.5435
  398MOL0     H53694   5.083   7.820   7.241 -1.0162 -0.3193  0.3910
  398MOL0     H53695   5.076   7.827   7.073  0.2708  1.1534 -0.4354
  398MOL0     H53696   5.312   7.887   7.122 -0.6843 -0.5837 -2.4635
  398MOL0     H53697   5.227   8.032   7.069 -1.3962 -0.9068 -0.8635
  398MOL0     H53698   5.191   8.075   7.330 -1.5690 -0.2260 -2.0088
  398MOL0     H53699   5.293   7.947   7.359  0.0779 -0.8235 -1.3563
  398MOL0     H53700   5.388   8.203   7.222 -0.8073  0.3372  0.1094
  398MOL0     H53701   5.480   8.057   7.207 -0.7251  0.2377 -0.3518
  398MOL0     H53702   5.487   8.003   7.434 -1.7880  0.2119  1.8075
  398MOL0     H53703   5.411   8.158   7.482 -0.0900  1.7834 -2.1800
  398MOL0     H53704   5.666   8.130   7.490 -0.9375 -1.2450 -0.0780
  398MOL0     H53705   5.671   8.137   7.320  0.1997 -0.3865  1.0210
  398MOL0     H53706   5.534   8.356   7.328 -2.0271 -2.9625 -0.2821
  398MOL0     H53707   5.705   8.353   7.400  0.6139 -1.3329 -0.1705
  398MOL0     H53708   5.447   8.364   7.542 -0.4847  1.8353 -2.4250
  398MOL0     H53709   5.601   8.326   7.619 -1.0160  1.6786  1.5167
  398MOL0     H53710   4.808   7.988   7.333 -2.3862  2.1648  0.1687
  398MOL0     H53711   4.566   7.935   7.270  1.9285 -1.4329  1.5292
  398MOL0     H53712   4.338   7.673   7.019  0.6924  0.2919 -0.6427
  398MOL0     H53713   4.120   7.557   6.968 -1.1097  0.0440 -0.5265
  398MOL0     H53714   4.612   7.574   7.145  0.5324  1.3354 -0.1929
  398MOL0     H53715   4.848   7.648   7.069  1.4641 -0.7731  1.9360
  398MOL0     H53716   5.241   7.576   7.060  0.2285  0.0540  0.5236
  398MOL0     H53717   5.471   7.611   7.041  1.6536  0.7054 -0.4200
  398MOL0     H53718   5.634   7.881   6.711 -0.7327  0.4514  0.0023
  398MOL0     H53719   5.637   7.704   6.653 -1.0582 -0.5338  0.9470
  398MOL0     H53720   5.854   7.823   6.653  2.1280 -0.9774  0.6575
  398MOL0     H53721   5.855   7.696   6.775  0.8822 -1.2503 -2.4547
  398MOL0     H53722   5.790   7.891   6.951  0.1747  0.8052  0.0948
  398MOL0     H53723   5.828   8.000   6.809  1.5709  1.2646  0.4420
  398MOL0     H53724   6.006   7.793   6.930 -0.2991 -0.2210 -2.7759
  398MOL0     H53725   6.048   7.903   6.791 -2.4230  1.0439 -2.2173
  398MOL0     H53726   6.039   8.172   7.137  2.6103 -0.2141  0.7025
  398MOL0     H53727   5.423   7.812   6.655  0.5852 -0.7289 -0.3051
  398MOL0     H53728   5.132   7.828   6.612  3.0169  0.5672  0.9942
  398MOL0     H53729   5.229   7.704   6.528  1.3659 -1.1480  0.8519
  398MOL0     H53730   5.087   7.650   6.608 -1.2068  1.8580 -1.0514
  399MOL0     O53731   4.259   8.429   5.715  0.2595  0.4207  0.2668
  399MOL0     C53732   4.231   8.504   5.805 -0.0972  0.3107  0.6708
  399MOL0     O53733   4.330   8.564   5.879 -0.1226  0.2314 -0.8983
  399MOL0     C53734   4.458   8.538   5.838  0.2352 -0.1771  0.1031
  399MOL0     C53735   4.537   8.444   5.909  0.2297  0.1931  0.6496
  399MOL0     C53736   4.674   8.441   5.893 -0.3674 -0.0831 -0.1857
  399MOL0     C53737   4.740   8.530   5.803  0.3065 -0.3564 -0.5796
  399MOL0     O53738   4.881   8.530   5.799 -0.0905 -0.2653 -0.0259
  399MOL0     C53739   4.940   8.558   5.668 -0.1130 -0.4041 -0.9361
  399MOL0     C53740   5.090   8.524   5.684 -0.0640  0.2817  0.6856
  399MOL0     C53741   5.166   8.634   5.749  0.6357 -0.5579  0.7109
  399MOL0     C53742   5.311   8.603   5.786  0.4202 -0.4954  0.2590
  399MOL0     C53743   5.389   8.731   5.823 -0.1607 -0.0713 -1.1259
  399MOL0     C53744   5.526   8.679   5.854  0.1878  0.2465  0.7018
  399MOL0     C53745   5.606   8.761   5.966 -0.1490 -0.0596  0.0791
  399MOL0     C53746   5.763   8.709   5.977 -0.3167 -0.3849  1.1357
  399MOL0     N53747   5.771   8.563   5.994  0.1591 -0.3104  0.2989
  399MOL0     C53748   5.696   8.489   6.082 -0.6157 -0.2909 -0.2936
  399MOL0     C53749   5.746   8.366   6.082  0.1019  0.5230 -0.2100
  399MOL0     C53750   5.689   8.257   6.161  0.8568  1.0619  0.0730
  399MOL0     C53751   5.531   8.243   6.173 -0.7288 -0.0034 -0.9158
  399MOL0     C53752   5.470   8.228   6.032 -0.9304 -0.1172  0.2652
  399MOL0     C53753   5.315   8.254   6.043  0.3088  0.1674 -0.5934
  399MOL0     O53754   5.245   8.182   5.937 -0.0811 -0.1068 -0.1836
  399MOL0     C53755   5.117   8.145   5.944 -0.4682  0.1886  0.1322
  399MOL0     C53756   5.020   8.193   6.031 -1.0400  0.0906 -0.0719
  399MOL0     C53757   4.889   8.147   6.032  0.0404 -0.3044  0.7928
  399MOL0     C53758   4.847   8.048   5.951  0.2046 -0.3263 -0.1768
  399MOL0     C53759   4.699   8.021   5.937 -0.1356 -1.3411  0.1312
  399MOL0     O53760   4.614   8.109   6.001  0.1010 -0.0944  0.3505
  399MOL0     C53761   4.479   8.074   5.991  0.2579 -0.2249 -0.1162
  399MOL0     C53762   4.400   8.131   5.894 -0.2755 -0.0101  0.4941
  399MOL0     C53763   4.258   8.122   5.900  1.0121  0.5379  0.1728
  399MOL0     C53764   4.200   8.050   6.010 -0.2071 -0.1774 -0.4534
  399MOL0     O53765   4.062   8.040   6.017 -0.8510  0.1984  0.9497
  399MOL0     C53766   3.989   7.993   6.126 -0.4473  0.3371  0.0209
  399MOL0     C53767   3.851   8.058   6.134 -0.7376  0.5365 -0.4017
  399MOL0     C53768   3.856   8.206   6.131 -0.1714  0.1856 -0.5781
  399MOL0     C53769   3.913   8.255   6.261  0.3520  0.4015  0.4540
  399MOL0     C53770   3.877   8.399   6.286  0.0384  0.7788  1.6742
  399MOL0     C53771   3.936   8.444   6.414 -0.7476  0.1317 -0.5669
  399MOL0     C53772   3.936   8.593   6.430 -0.4409 -0.2944 -0.8161
  399MOL0     C53773   3.843   8.640   6.547  0.1614  0.1128  0.8884
  399MOL0    Cl53774   3.684   8.619   6.470  0.0401 -0.0449 -0.2521
  399MOL0     C53775   4.281   7.996   6.108  0.0170  0.4045 -0.0507
  399MOL0     C53776   4.422   7.993   6.095 -0.8444  1.2778  0.4371
  399MOL0     O53777   4.667   7.922   5.870 -0.1935  0.8782 -0.4125
  399MOL0     C53778   4.948   7.985   5.875  0.2276  0.0553 -0.0212
  399MOL0     C53779   5.074   8.031   5.874 -1.4696 -0.3061  0.2387
  399MOL0     N53780   5.845   8.360   5.988 -0.2744  0.4957 -0.2642
  399MOL0     N53781   5.865   8.473   5.934 -0.2211  0.3726  0.8640
  399MOL0     C53782   4.659   8.621   5.724  0.9263 -0.5892 -0.8644
  399MOL0     C53783   4.518   8.625   5.748  0.0869 -0.5646 -0.6416
  399MOL0     C53784   4.091   8.538   5.841  0.1486  0.1914  0.3385
  399MOL0     C53785   4.057   8.615   5.955  0.1620 -0.8840 -0.3704
  399MOL0     C53786   3.928   8.640   5.994 -0.4772 -0.1921 -0.9388
  399MOL0     C53787   3.819   8.582   5.926  0.2060 -0.6468 -0.8319
  399MOL0     O53788   3.687   8.603   5.965 -0.2929 -0.0929 -0.3218
  399MOL0     C53789   3.648   8.689   6.072  0.6791  0.8700  0.8919
  399MOL0     C53790   3.496   8.654   6.113  0.6479  0.3912  0.2346
  399MOL0     C53791   3.497   8.509   6.166  0.6681 -0.0530  0.4459
  399MOL0     C53792   3.354   8.469   6.205  0.2361  0.9606  0.4588
  399MOL0     C53793   3.279   8.421   6.090 -0.4280 -0.5633  0.0232
  399MOL0     C53794   3.209   8.388   5.997  0.4920 -0.0689 -0.8347
  399MOL0     C53795   3.844   8.513   5.818  1.0342  0.1975  0.3597
  399MOL0     C53796   3.976   8.487   5.773  0.2392 -0.3684  1.0657
  399MOL0     C53797   3.988   8.412   5.639 -0.4558 -0.3035 -0.2284
  399MOL0     H53798   4.476   8.392   5.983 -1.2600 -0.4804 -0.9860
  399MOL0     H53799   4.737   8.394   5.968 -0.4814 -1.9606 -1.1975
  399MOL0     H53800   4.894   8.495   5.591  1.0100 -1.4212 -0.7967
  399MOL0     H53801   4.928   8.661   5.635 -1.6132 -0.5097 -0.7856
  399MOL0     H53802   5.128   8.502   5.583 -2.9522  0.9334 -0.6398
  399MOL0     H53803   5.105   8.442   5.755  0.3770 -0.3137 -0.0682
  399MOL0     H53804   5.121   8.673   5.841  0.8457  1.3375  0.0561
  399MOL0     H53805   5.175   8.719   5.680 -1.3822 -0.6426  0.2705
  399MOL0     H53806   5.297   8.544   5.877 -0.1473 -0.4227  0.2260
  399MOL0     H53807   5.354   8.542   5.706 -0.2266  0.5431 -0.9075
  399MOL0     H53808   5.395   8.800   5.739  0.5612 -0.1058 -1.1066
  399MOL0     H53809   5.347   8.771   5.916  1.6582  0.4234 -0.4851
  399MOL0     H53810   5.523   8.574   5.884 -0.5178  0.2669  0.7222
  399MOL0     H53811   5.587   8.691   5.764  0.7128 -0.2109  0.9908
  399MOL0     H53812   5.548   8.765   6.059 -0.8681  1.0104 -0.3938
  399MOL0     H53813   5.609   8.863   5.925  2.3193  0.1700  0.6437
  399MOL0     H53814   5.825   8.736   5.891 -2.1606  1.3071  0.2477
  399MOL0     H53815   5.805   8.765   6.061  5.6506 -0.4009 -1.3304
  399MOL0     H53816   5.606   8.525   6.131 -1.3419 -0.9988 -1.0808
  399MOL0     H53817   5.713   8.159   6.118 -4.8799 -0.4388 -0.5255
  399MOL0     H53818   5.736   8.250   6.260 -4.5172  0.1606  2.9294
  399MOL0     H53819   5.494   8.168   6.243  0.7559 -0.2611 -0.3544
  399MOL0     H53820   5.500   8.341   6.210 -0.2034 -0.1269 -0.1071
  399MOL0     H53821   5.492   8.130   5.989  1.7792  0.3017  0.5220
  399MOL0     H53822   5.499   8.312   5.969 -1.4956  0.5212  0.8283
  399MOL0     H53823   5.291   8.361   6.053 -1.2151 -0.2293  0.5234
  399MOL0     H53824   5.277   8.215   6.138 -3.2084  1.8515 -1.1149
  399MOL0     H53825   5.041   8.263   6.111 -0.1017 -0.0909 -0.1556
  399MOL0     H53826   4.814   8.196   6.094 -0.5706  0.5020 -0.5551
  399MOL0     H53827   4.438   8.188   5.809 -0.5946  0.4218  0.6359
  399MOL0     H53828   4.196   8.175   5.828 -0.6559  0.3281  1.3910
  399MOL0     H53829   3.979   7.885   6.116  0.2292  0.2185  0.5762
  399MOL0     H53830   4.042   8.008   6.220 -1.4562 -1.3304  0.9102
  399MOL0     H53831   3.800   8.015   6.047  1.2675  1.7486 -2.2747
  399MOL0     H53832   3.805   8.025   6.227 -1.0545  0.7070 -0.4959
  399MOL0     H53833   3.908   8.242   6.041 -2.2143  0.0131 -1.8803
  399MOL0     H53834   3.754   8.243   6.129  0.2290  1.4329  0.5070
  399MOL0     H53835   4.021   8.243   6.245  0.2367  0.6416 -0.6301
  399MOL0     H53836   3.880   8.190   6.342 -0.9618  0.7239  0.2099
  399MOL0     H53837   3.768   8.411   6.282  0.2269  2.6405 -0.8719
  399MOL0     H53838   3.915   8.462   6.205 -0.4254 -1.4193 -0.3743
  399MOL0     H53839   3.891   8.398   6.502  0.3879 -2.1429 -1.0859
  399MOL0     H53840   4.036   8.400   6.416 -1.9679 -3.0303 -1.6045
  399MOL0     H53841   3.900   8.642   6.339  0.5474  1.2843 -0.3897
  399MOL0     H53842   4.037   8.630   6.450 -0.6501 -0.7552  1.3360
  399MOL0     H53843   3.865   8.580   6.636 -0.2521  0.9169  1.5476
  399MOL0     H53844   3.866   8.746   6.564  0.8854  0.0038  0.6278
  399MOL0     H53845   4.242   7.924   6.180 -0.2428  2.8283  2.3604
  399MOL0     H53846   4.488   7.940   6.163  0.7785  1.7157 -0.7138
  399MOL0     H53847   4.925   7.894   5.820  0.6578  0.5599 -1.0637
  399MOL0     H53848   5.147   7.985   5.808 -0.7209  0.2518  0.6548
  399MOL0     H53849   4.707   8.699   5.666  2.6079  1.9736  3.5593
  399MOL0     H53850   4.458   8.697   5.694 -1.6905 -1.6962 -0.2726
  399MOL0     H53851   4.134   8.655   6.021  1.5844  1.3007 -3.1308
  399MOL0     H53852   3.912   8.698   6.084 -2.1648 -2.2892  0.2224
  399MOL0     H53853   3.640   8.790   6.032  0.5111 -0.2127 -2.0050
  399MOL0     H53854   3.707   8.684   6.164  2.2969  1.9313 -0.0454
  399MOL0     H53855   3.419   8.662   6.036 -0.4438  0.5927  1.3196
  399MOL0     H53856   3.455   8.714   6.194 -0.8649 -0.5015  0.1703
  399MOL0     H53857   3.556   8.501   6.258 -0.7492 -2.1361  1.2391
  399MOL0     H53858   3.535   8.432   6.099 -0.1897 -1.2932  1.3506
  399MOL0     H53859   3.355   8.385   6.276  0.4532  0.5977  0.0351
  399MOL0     H53860   3.307   8.551   6.259 -1.0183 -0.5387  1.7774
  399MOL0     H53861   3.146   8.363   5.914  0.4892  0.9169 -1.1455
  399MOL0     H53862   3.757   8.469   5.770  1.9096 -2.6646  1.1700
  399MOL0     H53863   4.061   8.330   5.641  1.4960  1.2248 -3.0678
  399MOL0     H53864   3.891   8.381   5.600  0.0427  0.1334 -1.8837
  399MOL0     H53865   4.026   8.478   5.561 -1.2120 -0.3377 -0.6263
  400MOL0     O53866   9.970   2.502   6.759  0.0114  0.2457 -0.7302
  400MOL0     C53867   9.962   2.411   6.839  0.5960  0.5930  0.2153
  400MOL0     O53868  10.062   2.335   6.895  0.4243 -0.0247  0.0923
  400MOL0     C53869  10.190   2.384   6.893  0.9712 -0.1911 -0.3297
  400MOL0     C53870  10.300   2.294   6.902 -0.7831  1.3499 -0.8704
  400MOL0     C53871  10.432   2.330   6.909 -0.3904 -0.6381  0.2536
  400MOL0     C53872  10.469   2.460   6.914 -0.3957 -0.3760  0.1318
  400MOL0     O53873  10.606   2.483   6.905 -0.1257  0.1151 -0.4148
  400MOL0     C53874  10.669   2.575   7.003 -0.2254  0.5147 -0.2387
  400MOL0     C53875  10.801   2.618   6.944 -0.6657 -0.3144  0.2118
  400MOL0     C53876  10.882   2.728   7.017  0.2753  0.0361  0.5466
  400MOL0     C53877  10.999   2.752   6.922  0.0641  0.4934  0.1285
  400MOL0     C53878  11.096   2.864   6.968  1.0253  0.3182 -0.3156
  400MOL0     C53879  11.227   2.851   6.888 -0.5909  0.0106  0.0270
  400MOL0     C53880  11.302   2.978   6.875  0.3597  0.1512 -0.0188
  400MOL0     C53881  11.432   2.973   6.788  0.6872  0.8341 -0.1322
  400MOL0     N53882  11.515   3.098   6.811  0.2501 -0.1966  0.1194
  400MOL0     C53883  11.558   3.192   6.708 -0.6588  0.0639 -0.4206
  400MOL0     C53884  11.644   3.276   6.769  0.5048 -0.0741 -0.6596
  400MOL0     C53885  11.727   3.384   6.714 -0.2314 -0.0658  0.3281
  400MOL0     C53886  11.764   3.375   6.566 -0.1935  0.5484 -0.1013
  400MOL0     C53887  11.906   3.320   6.561  0.8360 -0.0636  0.2508
  400MOL0     C53888  12.001   3.438   6.573 -1.1065 -0.0123  0.0055
  400MOL0     O53889  12.132   3.393   6.553  0.1969 -0.0312  0.1594
  400MOL0     C53890  12.233   3.485   6.564 -0.4345  0.4493  0.5826
  400MOL0     C53891  12.353   3.470   6.485  0.3861  1.2477  0.1802
  400MOL0     C53892  12.466   3.543   6.505  0.3439 -0.9437 -0.0444
  400MOL0     C53893  12.466   3.652   6.596 -0.8769  0.1931  0.1700
  400MOL0     C53894  12.593   3.716   6.625 -0.2423 -0.4986  0.5145
  400MOL0     O53895  12.703   3.663   6.562  0.2199 -0.1208  0.4395
  400MOL0     C53896  12.824   3.712   6.588  0.4124  0.6270  0.3020
  400MOL0     C53897  12.911   3.738   6.475 -0.1941  0.6926 -0.0316
  400MOL0     C53898  13.040   3.778   6.504  0.8881 -0.4773 -0.3984
  400MOL0     C53899  13.097   3.770   6.637 -0.5732 -1.1384  0.4672
  400MOL0     O53900  13.231   3.805   6.653  0.1043  0.3912  0.4375
  400MOL0     C53901  13.324   3.713   6.615 -0.1097 -0.1287 -0.1568
  400MOL0     C53902  13.368   3.645   6.746 -0.1772 -1.0282  0.1393
  400MOL0     C53903  13.466   3.536   6.708  0.4845 -0.3590  0.1701
  400MOL0     C53904  13.609   3.592   6.695 -0.0037 -0.6237 -0.6147
  400MOL0     C53905  13.722   3.497   6.651 -0.2012  1.1482  0.0966
  400MOL0     C53906  13.743   3.361   6.721 -0.6502  0.0738  0.0822
  400MOL0     C53907  13.875   3.300   6.666 -0.3750  0.0933 -0.6032
  400MOL0     C53908  13.884   3.151   6.652  0.8775 -0.3260 -0.2280
  400MOL0    Cl53909  14.060   3.111   6.639 -0.0622 -0.3542 -0.3401
  400MOL0     C53910  13.010   3.745   6.746 -0.1142 -0.5575 -0.1730
  400MOL0     C53911  12.879   3.712   6.715 -0.1668 -0.5706  0.0809
  400MOL0     O53912  12.583   3.814   6.692 -0.1163 -0.2913 -0.1365
  400MOL0     C53913  12.345   3.687   6.653  0.1856  0.5276  0.0787
  400MOL0     C53914  12.231   3.603   6.639  1.0213  0.2575  0.1054
  400MOL0     N53915  11.657   3.229   6.900 -0.3140 -0.3042  0.0026
  400MOL0     N53916  11.582   3.123   6.930  0.3617 -0.2921  0.6619
  400MOL0     C53917  10.366   2.551   6.931 -0.5770 -0.8215 -0.1294
  400MOL0     C53918  10.227   2.515   6.909 -0.7919 -0.5986 -0.3381
  400MOL0     C53919   9.823   2.360   6.849  0.2293  0.3051 -0.2557
  400MOL0     C53920   9.811   2.224   6.903 -0.7415  0.0859 -0.3258
  400MOL0     C53921   9.687   2.183   6.949  0.4459  0.4136 -0.3893
  400MOL0     C53922   9.575   2.258   6.949  0.6008 -0.0569  0.4253
  400MOL0     O53923   9.467   2.206   7.008  0.0659  0.0258 -0.6473
  400MOL0     C53924   9.358   2.283   7.045 -0.3711  0.1315 -0.3457
  400MOL0     C53925   9.248   2.307   6.933 -0.6076  1.1322  0.0922
  400MOL0     C53926   9.157   2.414   6.987  0.4368  0.2816 -0.1454
  400MOL0     C53927   9.069   2.479   6.875 -0.0505 -0.3376 -0.2266
  400MOL0     C53928   9.142   2.539   6.758  0.1272  0.1475 -0.4776
  400MOL0     C53929   9.204   2.586   6.662 -0.2146 -0.1355  0.4624
  400MOL0     C53930   9.582   2.371   6.875  0.6495 -0.1686 -0.0901
  400MOL0     C53931   9.702   2.428   6.830 -0.2350  0.6344 -0.1927
  400MOL0     C53932   9.695   2.567   6.768 -0.1641  0.6864  0.0648
  400MOL0     H53933  10.285   2.187   6.902 -0.0980  1.2511 -0.7648
  400MOL0     H53934  10.505   2.250   6.907 -0.1491 -0.4132 -1.9693
  400MOL0     H53935  10.601   2.660   7.021 -0.9123 -0.4396  2.0530
  400MOL0     H53936  10.687   2.529   7.101  3.1420 -1.2062 -1.4998
  400MOL0     H53937  10.770   2.658   6.847 -1.0658 -0.1022  0.4224
  400MOL0     H53938  10.857   2.527   6.920 -0.0639  0.2860 -0.6946
  400MOL0     H53939  10.936   2.707   7.110  2.5252  0.7106 -0.5341
  400MOL0     H53940  10.822   2.819   7.021  0.4490  0.1085  2.0974
  400MOL0     H53941  11.047   2.656   6.903 -1.1908 -0.0251 -0.5648
  400MOL0     H53942  10.970   2.787   6.822  0.3084 -0.0972 -0.1503
  400MOL0     H53943  11.046   2.962   6.961 -2.5464 -1.3036  0.1453
  400MOL0     H53944  11.108   2.850   7.076 -0.9784 -2.0132 -0.3105
  400MOL0     H53945  11.294   2.784   6.942  1.5038  3.2276  1.7263
  400MOL0     H53946  11.210   2.809   6.788  0.4909 -0.5496  0.0559
  400MOL0     H53947  11.337   3.005   6.975 -0.2548  1.1843 -0.0711
  400MOL0     H53948  11.234   3.051   6.831  1.6817  2.2420  1.2423
  400MOL0     H53949  11.481   2.875   6.792 -0.2856  0.3638  0.8602
  400MOL0     H53950  11.387   2.969   6.689 -0.0806 -0.8749  0.2420
  400MOL0     H53951  11.545   3.173   6.602  1.3108 -1.7428 -0.4085
  400MOL0     H53952  11.664   3.473   6.721  0.6991  0.6748 -0.4065
  400MOL0     H53953  11.817   3.403   6.774  0.5005 -0.3764 -0.6408
  400MOL0     H53954  11.690   3.314   6.514 -0.5745 -1.0195  2.1215
  400MOL0     H53955  11.753   3.473   6.519 -3.1567  0.3614 -0.0091
  400MOL0     H53956  11.917   3.262   6.468  0.0297  1.3935 -0.7960
  400MOL0     H53957  11.912   3.244   6.640  1.1109 -1.5138 -1.0988
  400MOL0     H53958  11.978   3.497   6.662  0.1460 -0.4551  0.6411
  400MOL0     H53959  11.980   3.497   6.484  3.0137  0.9620 -0.5060
  400MOL0     H53960  12.360   3.386   6.417 -1.8230 -0.8824  2.3545
  400MOL0     H53961  12.557   3.508   6.459  1.1359  1.3789 -0.4137
  400MOL0     H53962  12.884   3.750   6.371  2.8580  2.1470 -0.7860
  400MOL0     H53963  13.104   3.809   6.422 -1.5491 -1.2319 -2.7090
  400MOL0     H53964  13.283   3.641   6.543  0.6607 -3.2137  2.2746
  400MOL0     H53965  13.407   3.773   6.576 -0.3187 -0.4802 -1.1885
  400MOL0     H53966  13.410   3.714   6.819 -1.0878 -0.2269 -0.0817
  400MOL0     H53967  13.275   3.599   6.783 -1.1047 -0.2409 -1.1414
  400MOL0     H53968  13.484   3.458   6.782 -0.3520 -3.9865 -3.1467
  400MOL0     H53969  13.435   3.494   6.612 -0.0365  0.5903 -0.0848
  400MOL0     H53970  13.637   3.627   6.795  4.2049  1.4199 -2.2445
  400MOL0     H53971  13.608   3.675   6.624  0.7496  1.4825  1.6866
  400MOL0     H53972  13.818   3.550   6.662  0.5886 -0.4413  1.2190
  400MOL0     H53973  13.709   3.474   6.545 -1.0202 -1.1552  0.6502
  400MOL0     H53974  13.754   3.363   6.830 -2.8254 -0.3188  0.3567
  400MOL0     H53975  13.659   3.295   6.698 -1.3140  1.3735 -1.4809
  400MOL0     H53976  13.957   3.337   6.729 -1.0759 -0.1989  0.4958
  400MOL0     H53977  13.908   3.341   6.570  0.0840 -3.0144 -1.8885
  400MOL0     H53978  13.832   3.114   6.741  2.8348  2.0949  2.0898
  400MOL0     H53979  13.838   3.125   6.556  2.7128 -0.4286 -1.1252
  400MOL0     H53980  13.057   3.740   6.844  0.3865  0.6018 -0.3344
  400MOL0     H53981  12.816   3.680   6.798  0.9568  0.2222  1.2685
  400MOL0     H53982  12.337   3.775   6.716 -1.0780  1.1692 -0.9256
  400MOL0     H53983  12.136   3.631   6.685  1.3205 -1.9409  2.2728
  400MOL0     H53984  10.374   2.655   6.960 -1.2991 -1.0384  0.8727
  400MOL0     H53985  10.142   2.581   6.929  0.1739  0.1044  1.7739
  400MOL0     H53986   9.901   2.164   6.917  2.7749  4.7530 -0.3292
  400MOL0     H53987   9.686   2.086   6.997 -0.4113 -0.3988 -1.9615
  400MOL0     H53988   9.396   2.376   7.088  2.8156 -0.4626 -1.6215
  400MOL0     H53989   9.314   2.233   7.131  1.0451  0.4568  0.6038
  400MOL0     H53990   9.194   2.213   6.917  2.5675 -0.7547 -0.2991
  400MOL0     H53991   9.298   2.340   6.842  1.3428 -0.0916  0.6685
  400MOL0     H53992   9.212   2.498   7.032 -0.8384  0.2696  1.5387
  400MOL0     H53993   9.106   2.384   7.079  0.6522 -2.1535 -0.7537
  400MOL0     H53994   8.998   2.415   6.821  1.2468  0.6831 -3.3925
  400MOL0     H53995   9.013   2.556   6.929 -1.1075  0.4212 -2.2609
  400MOL0     H53996   9.249   2.620   6.570  0.2716  0.2456  0.8378
  400MOL0     H53997   9.495   2.430   6.849 -0.8867 -1.8508  0.9593
  400MOL0     H53998   9.735   2.562   6.666  0.5097  0.5371  0.3316
  400MOL0     H53999   9.594   2.609   6.765 -0.3571  0.4550  2.0077
  400MOL0     H54000   9.766   2.634   6.816  2.2501 -1.0272 -0.9098
  401MOL0     O54001   9.513   9.478   6.365 -0.0843  0.5242  0.2659
  401MOL0     C54002   9.457   9.380   6.323  0.3865 -0.5842  0.4425
  401MOL0     O54003   9.524   9.263   6.293  0.3464  0.1666 -0.5959
  401MOL0     C54004   9.659   9.253   6.313  0.5461 -0.6448  0.6752
  401MOL0     C54005   9.721   9.243   6.436  0.3332  0.2748  0.2398
  401MOL0     C54006   9.865   9.233   6.441 -0.1073 -0.4405  0.2150
  401MOL0     C54007   9.947   9.231   6.326 -0.1549  1.2541  0.2594
  401MOL0     O54008  10.077   9.201   6.324 -0.0652 -0.5518 -0.2886
  401MOL0     C54009  10.147   9.217   6.452  0.5886 -0.1013 -0.3000
  401MOL0     C54010  10.296   9.196   6.437  0.2028  0.1538  0.0147
  401MOL0     C54011  10.376   9.263   6.548  0.2612 -0.4202  0.7279
  401MOL0     C54012  10.377   9.178   6.682 -1.0071  0.5682  0.0137
  401MOL0     C54013  10.424   9.265   6.797 -0.1050 -1.2495  0.4208
  401MOL0     C54014  10.434   9.182   6.932 -0.4051  0.8804 -0.0918
  401MOL0     C54015  10.487   9.263   7.048 -0.2996  0.1473 -0.5458
  401MOL0     C54016  10.506   9.180   7.179  0.3951  0.2245  0.7106
  401MOL0     N54017  10.614   9.083   7.167  0.3367  0.1809  0.0645
  401MOL0     C54018  10.746   9.128   7.152 -0.5378 -0.0414 -0.0261
  401MOL0     C54019  10.815   9.009   7.131  0.2502  0.7277  0.5418
  401MOL0     C54020  10.961   8.983   7.131  0.1779 -0.5259  0.2179
  401MOL0     C54021  11.037   9.016   7.003  0.1142  0.3417 -0.0377
  401MOL0     C54022  10.981   9.145   6.927 -0.3127  0.2195 -0.4179
  401MOL0     C54023  11.082   9.185   6.828 -0.1894  0.1650  0.1401
  401MOL0     O54024  11.132   9.088   6.734 -0.1304 -0.2483  0.0871
  401MOL0     C54025  11.245   9.116   6.656  0.5173 -0.0162  0.0749
  401MOL0     C54026  11.302   9.018   6.580 -0.0708 -0.3456  0.2823
  401MOL0     C54027  11.418   9.041   6.505  0.2578 -0.6454 -0.5905
  401MOL0     C54028  11.488   9.162   6.507 -0.2510 -0.2351 -0.0462
  401MOL0     C54029  11.624   9.175   6.447  0.5115 -0.3441  0.5779
  401MOL0     O54030  11.680   9.293   6.451  0.8910 -0.6072  0.8278
  401MOL0     C54031  11.797   9.305   6.378  0.8258 -0.5492 -0.0537
  401MOL0     C54032  11.782   9.352   6.248 -0.8846 -0.1395 -0.9084
  401MOL0     C54033  11.897   9.383   6.179 -0.7604 -0.4731  0.1878
  401MOL0     C54034  12.024   9.356   6.229  0.5447  0.6383 -0.8943
  401MOL0     O54035  12.138   9.372   6.155 -0.2288  0.0884 -0.1468
  401MOL0     C54036  12.220   9.475   6.216 -0.4986  0.4811  0.1012
  401MOL0     C54037  12.333   9.523   6.119  0.1133  0.1627  0.7358
  401MOL0     C54038  12.427   9.640   6.175 -0.2557  0.2506 -0.3615
  401MOL0     C54039  12.465   9.748   6.080  0.6549 -0.5782  0.7903
  401MOL0     C54040  12.602   9.823   6.103 -0.4993  0.5339 -0.3133
  401MOL0     C54041  12.590   9.914   6.230 -0.2334  0.1226  0.5712
  401MOL0     C54042  12.692  10.026   6.243 -0.0131  0.7130  0.0669
  401MOL0     C54043  12.665  10.116   6.353  0.2402 -0.5764 -0.3696
  401MOL0    Cl54044  12.604  10.276   6.305 -0.0022 -0.6367  0.0377
  401MOL0     C54045  12.036   9.291   6.359  0.0875 -0.5468  0.6027
  401MOL0     C54046  11.919   9.272   6.434  0.0930 -0.7257  0.3929
  401MOL0     O54047  11.664   9.073   6.387 -0.4623 -0.0735 -0.2062
  401MOL0     C54048  11.439   9.262   6.592  0.5960 -0.5013  0.0173
  401MOL0     C54049  11.319   9.238   6.667 -0.5881 -0.0996  0.4038
  401MOL0     N54050  10.728   8.904   7.117 -0.5694  0.7785  0.8167
  401MOL0     N54051  10.604   8.945   7.135 -0.1892 -0.4981  0.4346
  401MOL0     C54052   9.876   9.243   6.206 -0.0269 -0.5639  0.3982
  401MOL0     C54053   9.741   9.241   6.199 -0.1388 -0.1922 -0.2066
  401MOL0     C54054   9.309   9.390   6.301 -0.3499 -0.4636 -0.9249
  401MOL0     C54055   9.241   9.493   6.366  0.4597 -0.7789 -0.6909
  401MOL0     C54056   9.096   9.496   6.368  0.3241 -0.2117 -0.4547
  401MOL0     C54057   9.028   9.385   6.298  0.4303 -0.5677  0.0783
  401MOL0     O54058   8.887   9.388   6.275  0.1271  0.0287 -0.1071
  401MOL0     C54059   8.797   9.492   6.328  0.2964 -0.4944  0.6242
  401MOL0     C54060   8.811   9.620   6.243  0.2177 -0.0071  0.6665
  401MOL0     C54061   8.734   9.740   6.304  0.2440 -0.4533  0.8487
  401MOL0     C54062   8.807   9.833   6.407  0.2553 -0.6057 -0.1167
  401MOL0     C54063   8.722   9.958   6.427 -0.6784  0.4712 -0.2787
  401MOL0     C54064   8.640  10.048   6.443 -0.4243  0.1849  0.2291
  401MOL0     C54065   9.100   9.301   6.219  0.9229  0.6527 -0.3686
  401MOL0     C54066   9.236   9.288   6.231  0.7229  0.2568 -0.3951
  401MOL0     C54067   9.298   9.184   6.140 -0.1840  0.3778 -1.0336
  401MOL0     H54068   9.662   9.233   6.526  1.3044 -0.3941  0.8197
  401MOL0     H54069   9.904   9.212   6.540 -1.8757  0.8891  1.2587
  401MOL0     H54070  10.115   9.317   6.483  1.5144  0.2830 -0.5516
  401MOL0     H54071  10.102   9.140   6.516 -0.4018 -0.4115 -1.3311
  401MOL0     H54072  10.321   9.248   6.344 -2.6261 -1.7611 -1.9984
  401MOL0     H54073  10.316   9.089   6.441 -2.2719 -0.3513  0.9528
  401MOL0     H54074  10.342   9.366   6.556  2.6085  0.5658 -0.6748
  401MOL0     H54075  10.478   9.275   6.509  0.5596 -3.0003  0.5084
  401MOL0     H54076  10.276   9.141   6.704 -0.5039 -1.0408 -0.2421
  401MOL0     H54077  10.441   9.091   6.666 -0.3151  1.5973 -3.6586
  401MOL0     H54078  10.521   9.307   6.770 -0.4892  0.7693  1.9241
  401MOL0     H54079  10.353   9.347   6.813  0.9320 -0.4751  1.1861
  401MOL0     H54080  10.337   9.135   6.951  1.0169 -2.1723  0.2735
  401MOL0     H54081  10.501   9.099   6.909 -2.0771 -0.8503  0.9896
  401MOL0     H54082  10.421   9.349   7.063 -2.4427 -1.5665  0.3981
  401MOL0     H54083  10.587   9.297   7.021  0.3956 -1.3164  0.0961
  401MOL0     H54084  10.518   9.260   7.253  2.5162  3.4521 -2.7753
  401MOL0     H54085  10.415   9.122   7.199 -0.1077  0.4936 -0.7372
  401MOL0     H54086  10.782   9.229   7.167  0.5799 -0.3876 -0.2315
  401MOL0     H54087  11.004   9.050   7.206  0.5260 -1.8755  1.2664
  401MOL0     H54088  10.985   8.881   7.163  1.8759 -0.0000  0.7582
  401MOL0     H54089  11.138   9.025   7.044 -0.0238 -1.8870  0.9070
  401MOL0     H54090  11.025   8.938   6.927 -1.3484 -0.7290  1.2451
  401MOL0     H54091  10.968   9.229   6.996 -1.2757 -0.0886 -0.2158
  401MOL0     H54092  10.883   9.135   6.880  0.1137  2.8759 -2.0576
  401MOL0     H54093  11.171   9.214   6.885  1.5997 -0.5457 -2.1297
  401MOL0     H54094  11.037   9.272   6.779 -0.8309  0.2507  0.8681
  401MOL0     H54095  11.264   8.917   6.590  0.7705 -0.7270 -0.2635
  401MOL0     H54096  11.445   8.952   6.449  0.4983 -1.1253  0.2717
  401MOL0     H54097  11.695   9.385   6.192 -0.1603 -0.0069 -2.0025
  401MOL0     H54098  11.893   9.430   6.081  1.3695  0.8080  0.6427
  401MOL0     H54099  12.157   9.556   6.253 -1.9838 -1.6877  2.6997
  401MOL0     H54100  12.262   9.430   6.307 -3.0158 -0.8711  0.7005
  401MOL0     H54101  12.405   9.441   6.107  0.0596  0.5453 -3.2860
  401MOL0     H54102  12.299   9.540   6.017 -2.3868  0.7430  1.5787
  401MOL0     H54103  12.383   9.689   6.263 -1.1514 -0.1248 -0.5878
  401MOL0     H54104  12.524   9.598   6.201 -0.3154 -0.4490 -1.2120
  401MOL0     H54105  12.384   9.820   6.063  1.5111  0.1393 -0.4319
  401MOL0     H54106  12.472   9.699   5.983 -4.2783  0.9917 -0.6971
  401MOL0     H54107  12.624   9.886   6.016  1.7723  0.3418  0.0700
  401MOL0     H54108  12.685   9.753   6.096 -1.4109 -0.4837 -1.5818
  401MOL0     H54109  12.493   9.960   6.206 -0.4458 -1.1839 -1.3033
  401MOL0     H54110  12.587   9.852   6.320 -0.1330 -0.8506 -0.0697
  401MOL0     H54111  12.696  10.087   6.152  4.5738  0.1089 -0.4089
  401MOL0     H54112  12.791   9.983   6.261 -0.8184 -1.4483 -0.3225
  401MOL0     H54113  12.595  10.068   6.422  0.8288  0.2645  0.8398
  401MOL0     H54114  12.755  10.127   6.413 -0.0154  0.6783 -0.2015
  401MOL0     H54115  12.134   9.270   6.399  0.9646  2.4062  0.2682
  401MOL0     H54116  11.926   9.235   6.536  1.7113  2.0196  1.3606
  401MOL0     H54117  11.481   9.362   6.593 -2.3180  0.9164 -2.4677
  401MOL0     H54118  11.279   9.316   6.730  0.8391 -0.0603  1.2911
  401MOL0     H54119   9.926   9.257   6.111 -2.0374 -1.7050 -0.9171
  401MOL0     H54120   9.691   9.236   6.103 -2.1091 -1.6239  0.8173
  401MOL0     H54121   9.285   9.579   6.414 -1.9492  0.3987 -0.4620
  401MOL0     H54122   9.027   9.566   6.414 -2.1127 -0.4233 -3.4588
  401MOL0     H54123   8.830   9.510   6.430  1.9199 -3.7057  0.7876
  401MOL0     H54124   8.695   9.455   6.340  0.8295 -1.4657  2.3951
  401MOL0     H54125   8.753   9.599   6.153  0.7749  1.5285 -0.0790
  401MOL0     H54126   8.910   9.646   6.204 -0.3485  2.0651  0.4848
  401MOL0     H54127   8.632   9.716   6.337 -0.9397  0.5171 -1.8509
  401MOL0     H54128   8.708   9.808   6.223 -0.9350 -2.4989 -0.5676
  401MOL0     H54129   8.809   9.781   6.504 -2.4874 -3.5551 -1.4838
  401MOL0     H54130   8.908   9.860   6.375  0.0461  1.6566  0.9204
  401MOL0     H54131   8.569  10.127   6.457  0.7627  1.3708 -0.1349
  401MOL0     H54132   9.043   9.233   6.157 -2.2121  3.1400 -0.4647
  401MOL0     H54133   9.384   9.233   6.092  1.1589 -0.3785  0.4787
  401MOL0     H54134   9.342   9.101   6.196 -1.7749  0.4064  0.3251
  401MOL0     H54135   9.229   9.138   6.069  0.1518 -1.2331 -0.3646
  402MOL0     O54136   8.544   9.724  10.314  0.0099  0.3833 -0.5865
  402MOL0     C54137   8.534   9.838  10.301 -0.2193  0.2068 -0.5868
  402MOL0     O54138   8.639   9.922  10.314  0.0870 -0.1451  0.6243
  402MOL0     C54139   8.766   9.880  10.333 -0.6532 -0.4554 -0.5946
  402MOL0     C54140   8.822   9.934  10.448  0.2532 -0.1838  0.1433
  402MOL0     C54141   8.955   9.911  10.478 -1.1776 -0.3250 -1.0308
  402MOL0     C54142   9.030   9.819  10.398  1.1879 -0.3791  0.0092
  402MOL0     O54143   9.155   9.774  10.439 -0.2568 -0.0712 -0.7208
  402MOL0     C54144   9.210   9.828  10.559 -0.8459 -0.1880 -0.1898
  402MOL0     C54145   9.347   9.761  10.577  0.4698 -0.1904 -0.4040
  402MOL0     C54146   9.449   9.867  10.637 -0.5970 -0.1563 -0.8754
  402MOL0     C54147   9.595   9.816  10.647  1.5995 -0.7383  0.6366
  402MOL0     C54148   9.677   9.929  10.718  0.7150  0.2930  0.0615
  402MOL0     C54149   9.832   9.912  10.729  0.1213 -0.0401 -0.8858
  402MOL0     C54150   9.890   9.813  10.632  0.6169 -0.9262  0.1586
  402MOL0     C54151  10.045   9.813  10.641  0.5849  0.8295 -0.3873
  402MOL0     N54152  10.107   9.909  10.559 -0.3676  0.2800 -0.5509
  402MOL0     C54153  10.113   9.903  10.422 -0.4903 -0.2340  0.6465
  402MOL0     C54154  10.187  10.014  10.387 -0.3409  0.2680 -0.2723
  402MOL0     C54155  10.201  10.049  10.244 -1.0534  0.0952  0.0421
  402MOL0     C54156  10.341  10.015  10.204  0.2434 -0.5042  0.8170
  402MOL0     C54157  10.373  10.085  10.071 -0.2089 -0.7150 -0.2817
  402MOL0     C54158  10.504  10.032  10.011  0.0593  0.3273 -0.4004
  402MOL0     O54159  10.614  10.075  10.092 -0.2953 -0.7543 -0.1620
  402MOL0     C54160  10.747  10.069  10.049  0.1063  0.1983 -0.4933
  402MOL0     C54161  10.842  10.133  10.126  0.4941 -0.4313  0.5207
  402MOL0     C54162  10.982  10.127  10.096  0.9739  0.2324 -0.2956
  402MOL0     C54163  11.024  10.047   9.989  0.1305  0.3635  0.0726
  402MOL0     C54164  11.163  10.034   9.952 -0.3358 -0.0439 -0.1422
  402MOL0     O54165  11.260  10.094  10.032  0.2027 -0.4786  0.0457
  402MOL0     C54166  11.393  10.093   9.983  0.1141  0.1961 -0.2747
  402MOL0     C54167  11.478   9.978   9.973  0.0795  0.2908  0.2144
  402MOL0     C54168  11.610  10.007   9.917 -0.0350  0.6790 -0.2527
  402MOL0     C54169  11.662  10.132   9.883 -0.3547  0.0736  0.6221
  402MOL0     O54170  11.793  10.168   9.838  0.5608 -0.8832  0.2414
  402MOL0     C54171  11.884  10.065   9.824 -0.1882  0.3965  0.2728
  402MOL0     C54172  12.004  10.118   9.748 -0.3802  0.1940  0.7427
  402MOL0     C54173  12.107  10.163   9.845  0.0254  0.0113  0.0135
  402MOL0     C54174  12.248  10.184   9.792  0.2315 -0.8315 -0.2661
  402MOL0     C54175  12.349  10.187   9.912 -1.3256  0.7789  0.1052
  402MOL0     C54176  12.478  10.260   9.875  0.6489 -0.3307  1.1359
  402MOL0     C54177  12.527  10.229   9.730  0.1474 -0.2252  0.0307
  402MOL0     C54178  12.665  10.287   9.697 -0.4923 -0.0357  0.6101
  402MOL0    Cl54179  12.785  10.160   9.768 -0.0555 -0.1494 -0.4128
  402MOL0     C54180  11.574  10.244   9.906 -1.3421 -1.3019  0.6583
  402MOL0     C54181  11.448  10.217   9.950  0.3278 -1.0351  0.4278
  402MOL0     O54182  11.192   9.970   9.858 -0.5934  0.4183  0.8479
  402MOL0     C54183  10.924   9.990   9.910  0.5479 -0.6296  0.1574
  402MOL0     C54184  10.783  10.007   9.927  0.4179  0.2286 -0.4256
  402MOL0     N54185  10.212  10.083  10.499 -0.2877  0.4372  0.1575
  402MOL0     N54186  10.169  10.021  10.600  0.1227 -0.2397 -0.4000
  402MOL0     C54187   8.973   9.759  10.285  0.2042  0.8847  0.3062
  402MOL0     C54188   8.842   9.787  10.254  0.1304 -0.0951 -0.1445
  402MOL0     C54189   8.397   9.891  10.280  0.2021 -0.9515 -0.1979
  402MOL0     C54190   8.384  10.027  10.278  0.5157 -0.6107 -0.4988
  402MOL0     C54191   8.257  10.089  10.275  0.1417  0.7229  0.5609
  402MOL0     C54192   8.139  10.008  10.265 -1.0868  0.3934  0.2612
  402MOL0     O54193   8.016  10.070  10.276 -0.3669  1.0846 -0.5049
  402MOL0     C54194   7.897  10.002  10.311 -0.5174  0.1342  0.5488
  402MOL0     C54195   7.888   9.971  10.456  0.2732  0.6815  0.3128
  402MOL0     C54196   7.754   9.901  10.501 -1.2021 -0.2667 -0.7763
  402MOL0     C54197   7.717   9.917  10.654  0.6982  0.1461  0.3404
  402MOL0     C54198   7.583   9.978  10.658 -0.3757 -0.3192 -0.5713
  402MOL0     C54199   7.469  10.023  10.681  0.5627 -0.4395  0.5182
  402MOL0     C54200   8.157   9.872  10.252  0.6594  0.0733  1.1919
  402MOL0     C54201   8.289   9.811  10.266 -0.3093  1.0928 -0.8751
  402MOL0     C54202   8.291   9.658  10.284 -0.1655  0.2800  0.5098
  402MOL0     H54203   8.761   9.989  10.519  0.0182 -1.0060  0.5976
  402MOL0     H54204   9.002   9.955  10.566 -1.4089 -1.5029 -0.2928
  402MOL0     H54205   9.231   9.936  10.555  3.3175 -0.8032  0.5526
  402MOL0     H54206   9.152   9.792  10.645  0.8274 -1.0412  0.6252
  402MOL0     H54207   9.385   9.713  10.486 -1.9275  0.7345 -1.9969
  402MOL0     H54208   9.341   9.687  10.657 -2.8223 -1.1656 -1.4043
  402MOL0     H54209   9.420   9.891  10.739  4.5798  2.2817  0.3335
  402MOL0     H54210   9.450   9.962  10.583 -2.8021  0.4717  0.0795
  402MOL0     H54211   9.607   9.730  10.714  0.0462 -0.5894  1.1537
  402MOL0     H54212   9.626   9.782  10.547 -1.0575  1.8926 -1.2676
  402MOL0     H54213   9.656  10.024  10.668 -3.3568 -0.4065  0.1519
  402MOL0     H54214   9.647   9.936  10.823  1.2403  0.4260  0.2063
  402MOL0     H54215   9.879  10.009  10.710 -1.7380  1.0333 -0.1794
  402MOL0     H54216   9.848   9.879  10.832 -1.0572 -0.5060 -0.8299
  402MOL0     H54217   9.859   9.846  10.533 -3.2260  2.6475  2.2248
  402MOL0     H54218   9.846   9.715  10.655  0.0112 -0.4108  1.2459
  402MOL0     H54219  10.069   9.831  10.746 -1.6221  1.7454  0.0286
  402MOL0     H54220  10.090   9.716  10.621  2.9336  1.8368 -0.3227
  402MOL0     H54221  10.069   9.828  10.358  0.6194 -2.2405  2.1187
  402MOL0     H54222  10.133   9.986  10.186 -2.3183  0.1789  1.3652
  402MOL0     H54223  10.170  10.153  10.242  0.7397  0.6614 -2.0307
  402MOL0     H54224  10.406  10.068  10.276  0.0647  0.3099  0.3959
  402MOL0     H54225  10.360   9.908  10.196  1.8868 -0.2367  0.7038
  402MOL0     H54226  10.396  10.190  10.090  1.9915 -0.6561 -2.6291
  402MOL0     H54227  10.288  10.064  10.005 -0.6911 -2.4302  0.8274
  402MOL0     H54228  10.518  10.085   9.917  0.3211 -1.8666 -1.6543
  402MOL0     H54229  10.502   9.924   9.995  0.8349  0.1807  0.3941
  402MOL0     H54230  10.811  10.194  10.209  1.3437 -1.1700  1.4075
  402MOL0     H54231  11.045  10.179  10.168  0.5433  1.7812 -0.9872
  402MOL0     H54232  11.449   9.878  10.006  3.4125 -0.8616  0.0435
  402MOL0     H54233  11.678   9.923   9.905 -2.5649 -1.5557 -0.0732
  402MOL0     H54234  11.918  10.022   9.918  2.3558  0.6071 -0.4744
  402MOL0     H54235  11.833   9.983   9.773  0.0359 -1.3129  2.6823
  402MOL0     H54236  12.034  10.036   9.682 -1.8672 -0.4545  0.8231
  402MOL0     H54237  11.982  10.198   9.676  0.4191 -0.8554 -0.7106
  402MOL0     H54238  12.081  10.259   9.890  1.2932 -0.1339  1.1086
  402MOL0     H54239  12.109  10.102   9.935  1.7802  0.2743  0.1981
  402MOL0     H54240  12.240  10.280   9.741 -0.8526 -0.6103  0.2673
  402MOL0     H54241  12.277  10.116   9.711  1.8894  0.7816 -1.0900
  402MOL0     H54242  12.359  10.082   9.940 -2.7166  1.0753  1.8976
  402MOL0     H54243  12.308  10.227  10.005  0.8999  0.5326  1.2592
  402MOL0     H54244  12.457  10.367   9.882  0.7954 -0.3601  2.3092
  402MOL0     H54245  12.554  10.241   9.952  1.2403 -2.5602  0.0920
  402MOL0     H54246  12.457  10.278   9.661  1.7984  3.9492  1.0153
  402MOL0     H54247  12.517  10.123   9.707  0.7843 -0.0477 -1.0876
  402MOL0     H54248  12.675  10.301   9.589  0.4344  0.5354  0.7682
  402MOL0     H54249  12.679  10.386   9.741 -0.0441  0.3488 -0.3697
  402MOL0     H54250  11.618  10.341   9.883 -0.3715 -1.6120  1.1419
  402MOL0     H54251  11.386  10.305   9.967  0.7385 -0.0494 -2.5984
  402MOL0     H54252  10.946   9.941   9.815 -0.7750 -0.9196 -0.0211
  402MOL0     H54253  10.703   9.967   9.864 -0.6470 -0.3137  1.1990
  402MOL0     H54254   9.028   9.696  10.216  1.1676  3.8493 -1.8487
  402MOL0     H54255   8.791   9.757  10.163 -0.4731 -0.0042  0.1543
  402MOL0     H54256   8.471  10.092  10.274  0.9003 -1.0072  0.7009
  402MOL0     H54257   8.266  10.197  10.280  0.9597  0.6075  2.7416
  402MOL0     H54258   7.871   9.919  10.245 -1.7717  1.5211 -0.7865
  402MOL0     H54259   7.821  10.077  10.289 -0.2046  0.5799  0.9748
  402MOL0     H54260   7.905  10.064  10.512  0.0324  0.4154  0.8298
  402MOL0     H54261   7.969   9.904  10.482  1.4946  0.2070 -3.9125
  402MOL0     H54262   7.757   9.793  10.486  0.5953 -0.3052 -0.4258
  402MOL0     H54263   7.676   9.943  10.437 -0.0035  3.0726 -0.2409
  402MOL0     H54264   7.711   9.822  10.707 -0.4329 -0.0151 -0.0579
  402MOL0     H54265   7.795   9.983  10.692 -0.2810  2.2759 -1.1514
  402MOL0     H54266   7.369  10.047  10.711  0.0427  0.5177 -1.7243
  402MOL0     H54267   8.063   9.817  10.255 -1.4684  3.2933 -0.7493
  402MOL0     H54268   8.194   9.613  10.262 -1.1333  2.6699 -0.4271
  402MOL0     H54269   8.356   9.601  10.216  0.5081  0.7882  0.7199
  402MOL0     H54270   8.312   9.633  10.388  0.9037  2.2103  0.7911
  403MOL0     O54271   1.875   0.453   8.028 -1.0027 -1.3301  0.3800
  403MOL0     C54272   1.871   0.334   8.030  0.2661 -0.4206  0.6204
  403MOL0     O54273   1.960   0.255   8.093 -0.6258  0.3828 -0.1646
  403MOL0     C54274   2.085   0.295   8.157  0.3368  0.7511 -0.8702
  403MOL0     C54275   2.157   0.408   8.138  0.9648  0.0069  0.1916
  403MOL0     C54276   2.264   0.443   8.221  0.1827 -0.4648 -0.3247
  403MOL0     C54277   2.310   0.357   8.317 -0.0416 -0.1409 -0.3737
  403MOL0     O54278   2.410   0.397   8.402 -0.3623  0.0339 -0.9966
  403MOL0     C54279   2.488   0.292   8.465 -0.5317 -0.5553 -0.5520
  403MOL0     C54280   2.622   0.352   8.500  0.2076 -0.4573  0.3730
  403MOL0     C54281   2.723   0.343   8.388  1.2011  0.5748  0.5590
  403MOL0     C54282   2.863   0.399   8.432  0.1725 -0.5091 -0.5297
  403MOL0     C54283   2.970   0.399   8.321 -0.1514 -0.2552 -0.7825
  403MOL0     C54284   3.115   0.451   8.345 -0.1136  0.1111 -0.4969
  403MOL0     C54285   3.213   0.453   8.225 -0.2413 -0.5905 -0.4306
  403MOL0     C54286   3.361   0.486   8.273  0.4689 -1.3000  0.2113
  403MOL0     N54287   3.455   0.500   8.153  0.3270  0.2860  0.0780
  403MOL0     C54288   3.572   0.430   8.147 -0.4023 -0.8003  0.8559
  403MOL0     C54289   3.622   0.459   8.022 -0.3437 -1.0284  0.1404
  403MOL0     C54290   3.758   0.436   7.963  0.6450  0.5421  0.2320
  403MOL0     C54291   3.847   0.558   7.977  0.3635 -0.0702  0.0082
  403MOL0     C54292   3.989   0.534   7.918  0.2223  0.0260 -0.3506
  403MOL0     C54293   4.062   0.668   7.911 -0.0247  0.6500  1.2713
  403MOL0     O54294   4.181   0.644   7.832  0.5978 -0.0792  0.1848
  403MOL0     C54295   4.300   0.668   7.892 -0.1120 -0.5252  0.5060
  403MOL0     C54296   4.340   0.622   8.021  0.2123 -0.1938  0.7135
  403MOL0     C54297   4.468   0.637   8.070  0.7599 -0.0569  0.1454
  403MOL0     C54298   4.568   0.701   7.997  0.4562 -0.7961 -0.0617
  403MOL0     C54299   4.708   0.734   8.045  0.5020  0.1313 -0.5091
  403MOL0     O54300   4.804   0.741   7.947 -0.1233 -0.2113 -0.0681
  403MOL0     C54301   4.930   0.723   7.992 -0.3910  0.2825  0.2196
  403MOL0     C54302   4.998   0.834   8.044  0.2626  0.2243 -0.2325
  403MOL0     C54303   5.137   0.814   8.075  0.3605 -0.1514 -0.2461
  403MOL0     C54304   5.201   0.694   8.062  0.0035 -0.2346  0.2126
  403MOL0     O54305   5.333   0.693   8.101 -0.5565  0.0308  0.1095
  403MOL0     C54306   5.403   0.565   8.075 -0.3485 -0.1608  0.4502
  403MOL0     C54307   5.549   0.570   8.113 -0.1205  1.1020 -0.2313
  403MOL0     C54308   5.577   0.629   8.254  0.4048 -0.1175  0.5935
  403MOL0     C54309   5.721   0.604   8.299 -0.8237 -0.3084  0.6827
  403MOL0     C54310   5.820   0.698   8.226  0.0198  0.7151 -0.3460
  403MOL0     C54311   5.967   0.695   8.285 -0.5646 -0.3681 -0.3354
  403MOL0     C54312   6.023   0.555   8.291  0.4829  0.4382  0.5683
  403MOL0     C54313   6.170   0.552   8.351 -0.5899  0.6749 -0.0107
  403MOL0    Cl54314   6.269   0.710   8.346  0.0235  0.2606 -0.2431
  403MOL0     C54315   5.126   0.583   8.015 -0.8303  0.0203  0.1283
  403MOL0     C54316   4.991   0.597   7.984 -0.3671 -1.0957  0.1248
  403MOL0     O54317   4.724   0.740   8.169 -0.7060 -0.3837 -0.3691
  403MOL0     C54318   4.527   0.752   7.868 -0.3631 -0.2521 -0.4549
  403MOL0     C54319   4.399   0.737   7.816 -0.1222 -0.2240 -0.4824
  403MOL0     N54320   3.532   0.540   7.958  0.7481 -0.4265 -0.5769
  403MOL0     N54321   3.427   0.554   8.036  0.3737 -0.9386 -0.0472
  403MOL0     C54322   2.241   0.232   8.328 -0.2191  0.7118  0.6881
  403MOL0     C54323   2.132   0.205   8.247 -0.7651  0.0575  0.2137
  403MOL0     C54324   1.767   0.260   7.943  0.1179  0.1567 -0.8265
  403MOL0     C54325   1.742   0.125   7.981 -0.5716 -0.5446  0.2315
  403MOL0     C54326   1.642   0.056   7.925 -0.2014  0.3463  0.1706
  403MOL0     C54327   1.560   0.114   7.824 -0.5662 -0.0173  1.0150
  403MOL0     O54328   1.459   0.042   7.771 -0.0414 -0.0743  0.2186
  403MOL0     C54329   1.343   0.119   7.722 -0.4803 -0.4902 -0.7171
  403MOL0     C54330   1.217   0.026   7.725  0.2563 -1.2471 -0.2740
  403MOL0     C54331   1.087   0.109   7.702  0.0796  0.8445  0.4619
  403MOL0     C54332   0.971   0.038   7.777  0.0501 -0.2754  1.1820
  403MOL0     C54333   0.846   0.082   7.722  0.1924 -0.0462  0.5952
  403MOL0     C54334   0.737   0.110   7.666 -0.6169 -0.6559  0.0509
  403MOL0     C54335   1.583   0.250   7.784  0.0995  0.8395  0.0058
  403MOL0     C54336   1.691   0.321   7.840 -0.1234 -0.6153 -0.0633
  403MOL0     C54337   1.716   0.452   7.774 -0.1806  0.3638 -0.0208
  403MOL0     H54338   2.114   0.480   8.069 -1.8423 -0.1094  1.6893
  403MOL0     H54339   2.315   0.539   8.213 -1.7255  0.6805  0.2920
  403MOL0     H54340   2.431   0.274   8.557  2.0800  1.7832  1.6953
  403MOL0     H54341   2.501   0.206   8.398 -0.0411  0.5452 -1.9399
  403MOL0     H54342   2.668   0.311   8.590 -0.3120 -0.8876  0.4457
  403MOL0     H54343   2.607   0.455   8.535  3.0138  0.1367  0.1226
  403MOL0     H54344   2.673   0.392   8.304  0.6539  0.7121  0.9584
  403MOL0     H54345   2.742   0.241   8.352 -0.7929 -0.1153  1.3279
  403MOL0     H54346   2.855   0.498   8.477 -0.3368 -0.7468 -0.0863
  403MOL0     H54347   2.901   0.340   8.515  0.0320  1.1227  0.7344
  403MOL0     H54348   2.982   0.291   8.305  1.8885 -0.3267  0.8498
  403MOL0     H54349   2.935   0.435   8.224 -0.3355 -0.0910 -0.6557
  403MOL0     H54350   3.106   0.550   8.391  0.5261 -0.0287 -0.0581
  403MOL0     H54351   3.157   0.384   8.421  0.7432 -1.1444 -2.0339
  403MOL0     H54352   3.181   0.529   8.153  1.7663  0.4026 -0.3556
  403MOL0     H54353   3.221   0.354   8.180 -0.0207 -1.2327  0.9646
  403MOL0     H54354   3.358   0.581   8.326 -0.3904 -1.4297  0.4099
  403MOL0     H54355   3.394   0.396   8.327 -1.5128 -3.2362 -1.6049
  403MOL0     H54356   3.622   0.373   8.225  0.2398 -1.2974  0.0953
  403MOL0     H54357   3.815   0.362   8.020  2.0390  2.4154  1.4113
  403MOL0     H54358   3.751   0.405   7.859 -1.0327  0.6474  0.2826
  403MOL0     H54359   3.798   0.631   7.912  0.3702 -0.5920 -0.5923
  403MOL0     H54360   3.855   0.596   8.079 -2.8599  0.3819  0.2153
  403MOL0     H54361   3.991   0.484   7.821 -2.2613 -2.3281  0.6866
  403MOL0     H54362   4.053   0.476   7.985 -1.0844 -0.9441  0.0834
  403MOL0     H54363   4.093   0.710   8.007  1.7223 -0.9435  1.4593
  403MOL0     H54364   3.998   0.737   7.855 -1.0288 -1.0975  0.1875
  403MOL0     H54365   4.259   0.582   8.082 -0.6623  1.7547  0.8893
  403MOL0     H54366   4.484   0.592   8.167 -3.1886 -2.7575 -0.1994
  403MOL0     H54367   4.951   0.931   8.049  0.4562  0.2881  0.4682
  403MOL0     H54368   5.192   0.899   8.115 -1.9357  0.3217  2.1718
  403MOL0     H54369   5.364   0.483   8.136  2.0025 -0.8827  1.0698
  403MOL0     H54370   5.399   0.546   7.968  0.8818  0.9650  0.1720
  403MOL0     H54371   5.586   0.468   8.107 -1.5303  0.5542  0.0515
  403MOL0     H54372   5.600   0.635   8.042 -0.1094 -0.2830 -1.5261
  403MOL0     H54373   5.550   0.735   8.240 -0.6139 -0.6689 -2.2437
  403MOL0     H54374   5.501   0.589   8.321 -0.2901  3.3188  2.0745
  403MOL0     H54375   5.759   0.505   8.270  1.9372  1.2719 -1.6584
  403MOL0     H54376   5.733   0.617   8.406 -1.9338  0.5042  0.7348
  403MOL0     H54377   5.785   0.801   8.235  0.6681  0.7725  2.2075
  403MOL0     H54378   5.813   0.670   8.120 -1.5305 -0.8404  0.1157
  403MOL0     H54379   6.035   0.759   8.226 -0.3996 -0.1975  0.0398
  403MOL0     H54380   5.977   0.735   8.386 -0.0379 -0.0129 -0.5238
  403MOL0     H54381   6.021   0.509   8.192  1.3935 -0.9787  1.1704
  403MOL0     H54382   5.964   0.493   8.359  1.6949 -0.2125  1.0639
  403MOL0     H54383   6.172   0.516   8.454 -0.2605 -0.9182 -0.5484
  403MOL0     H54384   6.231   0.474   8.304  0.4886 -0.8941  3.5937
  403MOL0     H54385   5.173   0.485   8.010  2.0411  1.1518  2.0516
  403MOL0     H54386   4.941   0.502   7.968  1.0323 -1.4716 -2.7403
  403MOL0     H54387   4.600   0.802   7.805  0.7857 -1.2354  0.0426
  403MOL0     H54388   4.380   0.785   7.720  0.8353 -2.5849 -1.9572
  403MOL0     H54389   2.273   0.170   8.411  2.8058  0.7192 -0.3472
  403MOL0     H54390   2.079   0.112   8.262 -0.0554 -0.4081 -0.0757
  403MOL0     H54391   1.793   0.082   8.067  0.1311  1.4192  0.8617
  403MOL0     H54392   1.613  -0.047   7.945 -0.6418 -0.1181 -2.4672
  403MOL0     H54393   1.368   0.149   7.619  1.0428 -0.8537 -0.4765
  403MOL0     H54394   1.318   0.203   7.786 -2.9888 -0.7660 -1.2444
  403MOL0     H54395   1.217  -0.017   7.826  1.7357 -1.1376 -0.2195
  403MOL0     H54396   1.218  -0.040   7.638 -0.4433 -0.9606 -0.5132
  403MOL0     H54397   1.062   0.108   7.595  0.3798 -0.4141  0.3842
  403MOL0     H54398   1.095   0.213   7.735 -1.0785  0.9148  0.5583
  403MOL0     H54399   0.984  -0.069   7.764 -0.4158 -0.1215 -0.8231
  403MOL0     H54400   0.977   0.065   7.883  0.0537  1.3437  0.7959
  403MOL0     H54401   0.645   0.139   7.619  0.2128 -0.7998 -1.7349
  403MOL0     H54402   1.525   0.288   7.700 -1.8227  0.1504  0.9713
  403MOL0     H54403   1.754   0.533   7.836 -0.2312 -0.0386  0.5539
  403MOL0     H54404   1.780   0.432   7.688 -1.0774  0.9329 -0.8420
  403MOL0     H54405   1.616   0.487   7.746  0.4821 -0.1444 -3.4544
  404MOL0     O54406  10.845   7.028  10.190 -0.3488  0.3037  0.3937
  404MOL0     C54407  10.790   7.134  10.202 -0.4667 -0.3779 -0.2384
  404MOL0     O54408  10.846   7.257  10.171 -0.0685 -0.0888 -0.9364
  404MOL0     C54409  10.968   7.251  10.110 -0.6893 -0.6408 -0.3900
  404MOL0     C54410  10.970   7.200   9.978 -1.6623 -0.0515  0.4340
  404MOL0     C54411  11.095   7.185   9.917  0.4893 -0.1115 -0.5156
  404MOL0     C54412  11.213   7.218   9.973  1.2298 -0.2897  0.5874
  404MOL0     O54413  11.316   7.200   9.889 -0.5852  0.0221 -0.6909
  404MOL0     C54414  11.450   7.198   9.948  0.1276  0.3780  0.2502
  404MOL0     C54415  11.556   7.143   9.853 -0.1104 -0.2970 -0.0826
  404MOL0     C54416  11.698   7.173   9.909  0.0079 -0.3469  0.2533
  404MOL0     C54417  11.806   7.152   9.805 -0.9426  0.4051 -0.2769
  404MOL0     C54418  11.936   7.156   9.874 -0.3611 -0.6978  0.5798
  404MOL0     C54419  12.059   7.188   9.788 -0.7232 -0.4598  0.0888
  404MOL0     C54420  12.189   7.199   9.867 -0.0500  0.1712  0.2115
  404MOL0     C54421  12.247   7.054   9.906  0.1815  0.3572  0.8228
  404MOL0     N54422  12.374   7.060   9.976 -0.5947 -0.1871  0.5008
  404MOL0     C54423  12.451   6.950  10.001 -0.1739  0.5455  0.2544
  404MOL0     C54424  12.527   6.976  10.116 -0.0441  0.0719  0.6463
  404MOL0     C54425  12.639   6.887  10.169  0.0768  0.0827 -0.4660
  404MOL0     C54426  12.588   6.777  10.269  0.4349 -0.6529  0.9657
  404MOL0     C54427  12.693   6.657  10.279 -1.1525  0.1062 -0.0425
  404MOL0     C54428  12.819   6.696  10.347  0.8603 -0.3766  0.4313
  404MOL0     O54429  12.817   6.704  10.488  0.6865  0.4260  0.3707
  404MOL0     C54430  12.924   6.750  10.552 -0.7405 -0.1137  0.4845
  404MOL0     C54431  12.917   6.789  10.689  0.1338 -0.1975 -0.1393
  404MOL0     C54432  13.030   6.831  10.760  0.1876  0.4736 -0.2583
  404MOL0     C54433  13.153   6.861  10.699  0.6207 -0.1787 -0.2631
  404MOL0     C54434  13.267   6.909  10.773 -0.0069 -0.0198 -0.0558
  404MOL0     O54435  13.389   6.880  10.723 -0.6630  0.0061  0.2417
  404MOL0     C54436  13.499   6.952  10.768  0.3730 -0.1674  0.0619
  404MOL0     C54437  13.510   7.082  10.828  0.0773 -0.9199  0.3160
  404MOL0     C54438  13.635   7.140  10.871  0.0487 -0.0043 -0.0420
  404MOL0     C54439  13.748   7.057  10.863  0.0456  0.7902 -0.4473
  404MOL0     O54440  13.868   7.079  10.919  0.2957 -0.6881 -0.3489
  404MOL0     C54441  13.890   7.206  10.985 -0.7108  1.1244 -0.0365
  404MOL0     C54442  14.035   7.223  11.008  0.3983 -0.4363  0.6996
  404MOL0     C54443  14.054   7.325  11.125  0.7751  0.0943  0.0472
  404MOL0     C54444  14.203   7.344  11.143  0.4246  0.2754  0.1968
  404MOL0     C54445  14.221   7.457  11.249 -0.4970 -0.3650  0.3035
  404MOL0     C54446  14.373   7.457  11.289 -0.6834  0.2427 -0.0740
  404MOL0     C54447  14.389   7.505  11.438  0.2545 -0.0473  0.6339
  404MOL0     C54448  14.511   7.468  11.514  0.1539 -0.1788  0.4744
  404MOL0    Cl54449  14.653   7.510  11.407 -0.0175 -0.1152 -0.2591
  404MOL0     C54450  13.743   6.933  10.801 -0.5489  0.0925 -0.6732
  404MOL0     C54451  13.624   6.884  10.754  0.2216 -0.2769  0.3555
  404MOL0     O54452  13.248   6.954  10.884 -0.5979 -0.3942 -0.4268
  404MOL0     C54453  13.164   6.834  10.559  0.2022  0.6668 -0.0271
  404MOL0     C54454  13.056   6.773  10.491 -0.1470 -0.7258 -0.9323
  404MOL0     N54455  12.495   7.104  10.157  0.4953  0.6715  0.2330
  404MOL0     N54456  12.411   7.152  10.071 -1.0441 -0.3682  0.1516
  404MOL0     C54457  11.211   7.275  10.098 -0.2972  0.1457  0.3253
  404MOL0     C54458  11.088   7.296  10.165 -0.4417  0.6518  0.3449
  404MOL0     C54459  10.644   7.146  10.241  0.3360  0.3596 -0.2309
  404MOL0     C54460  10.586   7.276  10.232  0.1060 -0.4931  0.2095
  404MOL0     C54461  10.453   7.290  10.270 -0.0898 -0.0270 -0.6660
  404MOL0     C54462  10.377   7.193  10.342 -0.3059 -0.1677  0.3807
  404MOL0     O54463  10.250   7.230  10.376  0.3773 -0.2019 -0.0833
  404MOL0     C54464  10.175   7.124  10.430  0.0436  0.1768  0.3063
  404MOL0     C54465  10.031   7.175  10.451  0.9868 -0.3362  0.1723
  404MOL0     C54466   9.964   7.203  10.319  0.0364  0.3489 -0.7084
  404MOL0     C54467   9.812   7.226  10.347  0.4520  0.1838  0.5685
  404MOL0     C54468   9.746   7.262  10.220  0.8631 -0.8566  0.2235
  404MOL0     C54469   9.684   7.299  10.125 -0.1772 -0.5838  0.6657
  404MOL0     C54470  10.445   7.073  10.363  0.0925  0.4167  0.2989
  404MOL0     C54471  10.574   7.041  10.305  0.3508 -0.0720 -0.5365
  404MOL0     C54472  10.626   6.903  10.338 -0.1821 -0.2550 -0.0968
  404MOL0     H54473  10.878   7.172   9.927 -0.5486 -2.9058 -0.2165
  404MOL0     H54474  11.102   7.144   9.816  0.9247  0.1435 -0.5919
  404MOL0     H54475  11.475   7.301   9.975 -3.1653  0.8717  1.9073
  404MOL0     H54476  11.443   7.132  10.035 -3.5356 -1.1066 -0.9975
  404MOL0     H54477  11.546   7.201   9.760 -1.1742  1.7051  1.2121
  404MOL0     H54478  11.538   7.036   9.843 -0.7033 -0.3945  1.6793
  404MOL0     H54479  11.701   7.097   9.987 -1.0273  0.0469  0.6949
  404MOL0     H54480  11.699   7.273   9.952  3.8038  0.5093 -1.4499
  404MOL0     H54481  11.789   7.056   9.756 -0.5370 -1.4445  2.9298
  404MOL0     H54482  11.810   7.227   9.726  2.1441 -0.1487 -0.7840
  404MOL0     H54483  11.929   7.230   9.955  0.4730 -0.0555  0.0726
  404MOL0     H54484  11.955   7.060   9.923 -1.5682  0.9070  4.5912
  404MOL0     H54485  12.068   7.117   9.706  1.5913 -0.3409  0.1908
  404MOL0     H54486  12.050   7.286   9.741  0.3912  0.5586  1.8669
  404MOL0     H54487  12.172   7.251   9.961  2.5535 -4.1864  3.4779
  404MOL0     H54488  12.259   7.261   9.811 -0.5477  2.8503  2.3496
  404MOL0     H54489  12.175   7.012   9.976 -4.6061  1.6258 -2.8159
  404MOL0     H54490  12.244   6.984   9.822  3.3483 -0.6427  1.3890
  404MOL0     H54491  12.455   6.862   9.939 -1.2819  0.6060  0.0816
  404MOL0     H54492  12.684   6.836  10.083  0.0623  0.4376 -0.6864
  404MOL0     H54493  12.711   6.958  10.209  0.2467 -0.4525  0.1993
  404MOL0     H54494  12.572   6.825  10.366  1.3275 -0.0681  0.8333
  404MOL0     H54495  12.496   6.731  10.233  1.5503 -2.3334  0.1305
  404MOL0     H54496  12.725   6.625  10.179  1.7996  2.9118 -0.1511
  404MOL0     H54497  12.650   6.567  10.325  2.2147 -1.5495  0.1646
  404MOL0     H54498  12.853   6.792  10.306  0.7522  0.5582  2.3990
  404MOL0     H54499  12.885   6.614  10.318 -0.5721 -1.5820  0.4874
  404MOL0     H54500  12.825   6.768  10.743  1.2476 -1.3533  1.3739
  404MOL0     H54501  13.010   6.839  10.866 -1.7042  0.7932 -0.5911
  404MOL0     H54502  13.424   7.148  10.838  1.5315  1.0944  0.0189
  404MOL0     H54503  13.629   7.240  10.913 -2.0829  0.6253 -1.6745
  404MOL0     H54504  13.847   7.290  10.930  3.1198  1.3849 -3.1218
  404MOL0     H54505  13.844   7.203  11.084  0.6449 -3.0341  0.6569
  404MOL0     H54506  14.092   7.132  11.029  0.8806 -1.2354 -3.2517
  404MOL0     H54507  14.084   7.277  10.926  0.3712  2.8009  2.6456
  404MOL0     H54508  14.010   7.425  11.118 -2.1923 -1.1123 -0.3136
  404MOL0     H54509  14.005   7.282  11.213 -1.3423  1.1208 -0.5482
  404MOL0     H54510  14.248   7.376  11.049  0.1263  2.5131  0.7538
  404MOL0     H54511  14.245   7.250  11.179 -0.7688 -0.9008 -1.3783
  404MOL0     H54512  14.169   7.423  11.340 -0.3191  1.1866  1.0329
  404MOL0     H54513  14.169   7.551  11.225  0.4131  0.4154  1.2772
  404MOL0     H54514  14.406   7.354  11.275 -1.7984  0.1498 -2.6486
  404MOL0     H54515  14.431   7.521  11.223  1.5261 -1.4463  0.1072
  404MOL0     H54516  14.305   7.467  11.498  2.4482 -1.2695  3.1569
  404MOL0     H54517  14.388   7.614  11.443 -1.7208 -0.0064  0.3659
  404MOL0     H54518  14.503   7.523  11.608 -0.8448  1.7914 -0.7164
  404MOL0     H54519  14.496   7.360  11.527 -4.4506  0.3483  1.1497
  404MOL0     H54520  13.834   6.874  10.792  0.1945  1.3887 -2.5627
  404MOL0     H54521  13.615   6.790  10.701  1.8408  0.0742 -0.6098
  404MOL0     H54522  13.261   6.847  10.512  1.0251 -1.0933  1.0817
  404MOL0     H54523  13.086   6.778  10.386 -0.5418  4.1238 -1.0303
  404MOL0     H54524  11.305   7.306  10.141 -0.4689  1.3938 -0.1560
  404MOL0     H54525  11.088   7.353  10.257  2.4265  2.1014 -0.4367
  404MOL0     H54526  10.632   7.369  10.199 -0.6973  0.4889  1.7520
  404MOL0     H54527  10.416   7.392  10.267  2.2871  1.0998  2.6973
  404MOL0     H54528  10.222   7.097  10.524  3.6035 -1.3612 -1.7384
  404MOL0     H54529  10.185   7.035  10.368  0.8136  0.5862 -0.1828
  404MOL0     H54530  10.027   7.265  10.513 -2.4253 -0.1912 -0.0623
  404MOL0     H54531   9.968   7.099  10.498  1.9979 -0.7846  0.8465
  404MOL0     H54532   9.971   7.111  10.259 -0.8631 -0.5733  0.5554
  404MOL0     H54533  10.011   7.280  10.256  0.2536  0.6391 -0.1975
  404MOL0     H54534   9.756   7.137  10.376  1.2524 -1.4252 -2.3963
  404MOL0     H54535   9.797   7.295  10.430  0.0950  0.2784  0.4281
  404MOL0     H54536   9.636   7.327  10.033 -3.1744 -0.4898  2.1671
  404MOL0     H54537  10.403   6.990  10.419  0.6607 -1.0344 -1.3354
  404MOL0     H54538  10.714   6.915  10.401 -1.6076  2.5349  1.6004
  404MOL0     H54539  10.555   6.845  10.398 -0.8223  1.0589  0.4588
  404MOL0     H54540  10.648   6.845  10.248 -0.0867 -1.8289  0.9114
  405MOL0     O54541   5.281   4.353   3.617 -0.0314 -0.5727 -0.6698
  405MOL0     C54542   5.279   4.425   3.720  0.2630  1.0283  1.1083
  405MOL0     O54543   5.389   4.472   3.781  0.0226 -0.5642 -0.3563
  405MOL0     C54544   5.516   4.442   3.728  0.8516  0.2190  0.3042
  405MOL0     C54545   5.618   4.412   3.814  0.0576 -0.2976  0.6957
  405MOL0     C54546   5.747   4.391   3.751  0.6376 -0.2191 -0.4046
  405MOL0     C54547   5.776   4.402   3.614  0.0796  0.2918 -0.4166
  405MOL0     O54548   5.895   4.366   3.561  0.2667 -0.2628 -0.0852
  405MOL0     C54549   5.990   4.474   3.549 -0.6686  0.2485  0.0570
  405MOL0     C54550   6.124   4.416   3.491  0.8126  0.3844 -1.3372
  405MOL0     C54551   6.212   4.515   3.417  0.2847  0.1474 -1.0380
  405MOL0     C54552   6.317   4.437   3.338  0.3705 -0.3202 -0.3142
  405MOL0     C54553   6.409   4.537   3.266 -0.2600  0.3084 -0.2513
  405MOL0     C54554   6.531   4.469   3.204 -0.6886 -0.0985  0.0842
  405MOL0     C54555   6.646   4.569   3.206  0.3327 -0.0155  0.4267
  405MOL0     C54556   6.777   4.515   3.149 -0.4460 -0.1338  0.5246
  405MOL0     N54557   6.872   4.630   3.137  0.1694 -0.3346 -0.5358
  405MOL0     C54558   6.985   4.639   3.218  0.5042 -0.2920  0.4066
  405MOL0     C54559   7.068   4.739   3.156  0.3964  0.2764  0.7739
  405MOL0     C54560   7.202   4.780   3.193 -0.1434  0.2823 -0.4589
  405MOL0     C54561   7.315   4.762   3.084  0.0663 -0.0782 -0.4007
  405MOL0     C54562   7.299   4.850   2.960  0.2109  0.8215 -0.3581
  405MOL0     C54563   7.429   4.862   2.894  0.0438 -0.9921 -0.5242
  405MOL0     O54564   7.471   4.742   2.841  0.1763  0.0098 -0.2133
  405MOL0     C54565   7.596   4.724   2.777 -1.2513 -0.4569 -0.6556
  405MOL0     C54566   7.640   4.595   2.751 -0.1814  0.4917  0.0078
  405MOL0     C54567   7.767   4.567   2.701  0.4215 -0.4739  0.0009
  405MOL0     C54568   7.845   4.675   2.661 -0.1999  0.1507  0.2321
  405MOL0     C54569   7.965   4.655   2.579  0.2513  0.0337  0.5729
  405MOL0     O54570   8.025   4.769   2.522 -0.1566  0.7408  0.3295
  405MOL0     C54571   8.131   4.750   2.442  0.0229  1.0799  0.4219
  405MOL0     C54572   8.259   4.785   2.475  0.5768  0.6041 -0.5939
  405MOL0     C54573   8.365   4.735   2.403 -0.1187  0.7047  0.3189
  405MOL0     C54574   8.350   4.672   2.280  0.3041  1.3012 -0.6689
  405MOL0     O54575   8.445   4.633   2.191  0.1926 -0.3772 -0.1108
  405MOL0     C54576   8.581   4.670   2.211  0.2421  0.3400  0.1843
  405MOL0     C54577   8.651   4.676   2.077  0.6987 -0.0584  0.0810
  405MOL0     C54578   8.630   4.543   2.006  0.0720 -0.6694  0.7858
  405MOL0     C54579   8.704   4.542   1.873  0.5294  0.3349 -0.4489
  405MOL0     C54580   8.844   4.477   1.886 -0.0163 -1.0752  0.3198
  405MOL0     C54581   8.929   4.529   1.766  0.3814 -0.3220  0.0629
  405MOL0     C54582   9.071   4.484   1.780  0.1300  0.3061  0.0717
  405MOL0     C54583   9.141   4.525   1.648 -0.1061  0.3808  0.0787
  405MOL0    Cl54584   9.313   4.464   1.659  0.2761  0.2753  0.4520
  405MOL0     C54585   8.215   4.649   2.230 -0.2334  0.1580 -0.3450
  405MOL0     C54586   8.108   4.691   2.316 -0.9627  0.3844  1.4016
  405MOL0     O54587   7.998   4.545   2.556 -0.0945  0.9137 -0.3249
  405MOL0     C54588   7.800   4.801   2.687  0.7041  0.4820  0.6522
  405MOL0     C54589   7.677   4.827   2.744 -1.2605  0.1243 -0.5490
  405MOL0     N54590   6.992   4.777   3.044  0.9121  0.0347  0.5502
  405MOL0     N54591   6.875   4.723   3.036  0.0194  0.3063 -0.4942
  405MOL0     C54592   5.665   4.444   3.538  0.4886 -0.7448  0.4893
  405MOL0     C54593   5.538   4.465   3.594  0.0728 -0.4124  0.0852
  405MOL0     C54594   5.151   4.452   3.782 -0.2081  0.3520 -0.9854
  405MOL0     C54595   5.153   4.552   3.889 -0.2964 -0.5470  0.7631
  405MOL0     C54596   5.040   4.575   3.962 -0.0702 -0.3786 -0.0579
  405MOL0     C54597   4.912   4.514   3.940  0.0065 -0.1411 -0.4439
  405MOL0     O54598   4.802   4.526   4.031 -0.3467  0.1288  0.1762
  405MOL0     C54599   4.667   4.485   4.015 -0.7710  0.8592  0.1534
  405MOL0     C54600   4.638   4.348   4.073  1.2294  0.8521  0.3709
  405MOL0     C54601   4.489   4.348   4.080 -0.3663 -0.5302 -0.3026
  405MOL0     C54602   4.424   4.214   4.108  0.8802 -0.5097  0.3363
  405MOL0     C54603   4.457   4.175   4.242 -0.2446 -0.7937  0.3146
  405MOL0     C54604   4.483   4.132   4.350  0.7176 -0.2209  0.0248
  405MOL0     C54605   4.908   4.422   3.836 -1.2462  0.2336 -0.7910
  405MOL0     C54606   5.021   4.395   3.757 -0.2536  0.3023 -0.4178
  405MOL0     C54607   5.008   4.290   3.649  0.2123  0.2672 -0.0623
  405MOL0     H54608   5.615   4.410   3.923 -0.9140 -0.5974  0.6792
  405MOL0     H54609   5.825   4.366   3.823 -0.0646  0.2353  0.5297
  405MOL0     H54610   5.959   4.544   3.470 -3.1469 -0.4328  0.3276
  405MOL0     H54611   6.005   4.523   3.645 -1.4654 -1.1071  0.9015
  405MOL0     H54612   6.105   4.346   3.410  2.2097 -0.7309 -0.7475
  405MOL0     H54613   6.170   4.363   3.575 -3.6510 -1.0378  0.5207
  405MOL0     H54614   6.264   4.580   3.488 -0.5376 -0.5889  0.2708
  405MOL0     H54615   6.144   4.575   3.356 -1.8069 -0.9918  0.0725
  405MOL0     H54616   6.369   4.364   3.400 -0.6914 -0.9549 -0.1404
  405MOL0     H54617   6.273   4.375   3.259 -0.4965 -1.8885  1.3335
  405MOL0     H54618   6.355   4.584   3.183  1.3321  2.1985 -0.2634
  405MOL0     H54619   6.443   4.614   3.335 -1.5057 -0.4253  1.2215
  405MOL0     H54620   6.558   4.388   3.273 -0.2772 -0.8295 -0.9062
  405MOL0     H54621   6.508   4.427   3.105 -3.1957  1.5237 -0.1123
  405MOL0     H54622   6.665   4.585   3.313  0.1300  1.8852  0.2234
  405MOL0     H54623   6.620   4.669   3.170  1.7719 -0.0449 -0.8340
  405MOL0     H54624   6.816   4.444   3.223  0.5778  0.1104  0.2336
  405MOL0     H54625   6.757   4.467   3.053 -1.0717 -1.1716  1.1519
  405MOL0     H54626   7.008   4.579   3.305 -2.8698 -1.5445  0.6021
  405MOL0     H54627   7.198   4.884   3.229  1.0197  1.0867 -2.4732
  405MOL0     H54628   7.233   4.724   3.282  0.5557  1.7086  0.2333
  405MOL0     H54629   7.407   4.791   3.136  3.4260 -0.7456 -5.3228
  405MOL0     H54630   7.324   4.655   3.062 -0.4369 -0.3276  0.5348
  405MOL0     H54631   7.268   4.949   2.995 -0.7393  0.4855 -0.2331
  405MOL0     H54632   7.221   4.818   2.891  2.2782  3.1507 -4.1427
  405MOL0     H54633   7.496   4.906   2.968  0.4096  2.1721 -2.5614
  405MOL0     H54634   7.424   4.931   2.810 -2.5231 -1.3277 -0.7527
  405MOL0     H54635   7.583   4.507   2.778 -0.3595  0.6839  0.2585
  405MOL0     H54636   7.790   4.463   2.681 -3.4567 -1.9908  2.3222
  405MOL0     H54637   8.269   4.844   2.566 -0.0101  1.1579 -0.8841
  405MOL0     H54638   8.466   4.753   2.439  0.6850  0.2012 -1.5415
  405MOL0     H54639   8.587   4.770   2.253  1.1971  0.6720 -0.7100
  405MOL0     H54640   8.629   4.603   2.284  1.3417 -1.3710 -2.0015
  405MOL0     H54641   8.601   4.753   2.018 -1.2156 -0.3594  1.2289
  405MOL0     H54642   8.757   4.702   2.089  0.0908  2.5896  0.1701
  405MOL0     H54643   8.645   4.459   2.074 -1.4547  0.1947  2.2520
  405MOL0     H54644   8.524   4.532   1.984 -0.4828  4.0216  0.1545
  405MOL0     H54645   8.719   4.646   1.843  1.1315  1.0391  2.0432
  405MOL0     H54646   8.644   4.494   1.795  0.0910  0.1316  0.0034
  405MOL0     H54647   8.832   4.368   1.892 -0.8295 -0.9203  3.7860
  405MOL0     H54648   8.900   4.501   1.977  0.6593  0.9953 -0.5716
  405MOL0     H54649   8.893   4.512   1.664  1.5134  0.3261 -0.4698
  405MOL0     H54650   8.935   4.638   1.768 -1.7447 -0.1696  2.1245
  405MOL0     H54651   9.075   4.375   1.781 -0.3703  0.2852 -0.0100
  405MOL0     H54652   9.120   4.532   1.865 -2.9227  5.1983 -0.4876
  405MOL0     H54653   9.091   4.477   1.563  0.7368  0.4570 -0.4729
  405MOL0     H54654   9.139   4.634   1.641  0.8485  0.3620 -0.7220
  405MOL0     H54655   8.197   4.617   2.129  3.2166  1.2451 -1.4629
  405MOL0     H54656   8.009   4.681   2.273 -0.3198 -0.4082  0.0088
  405MOL0     H54657   7.874   4.879   2.667  0.7737 -0.0546 -1.5364
  405MOL0     H54658   7.649   4.930   2.764 -1.0729  0.1141 -0.2252
  405MOL0     H54659   5.689   4.471   3.435  3.0512  0.0432  1.2278
  405MOL0     H54660   5.463   4.512   3.532 -1.1625 -1.3250  0.8368
  405MOL0     H54661   5.233   4.609   3.935  0.3011 -1.3763  0.7742
  405MOL0     H54662   5.049   4.641   4.048  3.2543 -0.6647 -0.0682
  405MOL0     H54663   4.636   4.481   3.911  2.0177  0.6657 -0.7583
  405MOL0     H54664   4.608   4.560   4.069 -2.9087 -0.5214 -0.1365
  405MOL0     H54665   4.681   4.345   4.173  0.9943  1.9529  0.5183
  405MOL0     H54666   4.673   4.269   4.006 -1.2326 -1.2122  1.3651
  405MOL0     H54667   4.449   4.389   3.987  0.1799  3.0279  0.8663
  405MOL0     H54668   4.451   4.412   4.160  0.4238  0.3656 -0.6219
  405MOL0     H54669   4.316   4.232   4.106  1.1571  1.2631 -1.3382
  405MOL0     H54670   4.464   4.145   4.033 -1.1085 -0.0029 -1.2764
  405MOL0     H54671   4.507   4.115   4.453 -0.4299  0.2766  0.3913
  405MOL0     H54672   4.818   4.370   3.804 -0.5186 -1.8106  0.3053
  405MOL0     H54673   5.076   4.207   3.673 -1.2097 -0.2546  2.5748
  405MOL0     H54674   4.903   4.258   3.645  0.1908  0.3419 -0.0909
  405MOL0     H54675   5.034   4.339   3.555  0.9054 -0.7400 -0.4174
  406MOL0     O54676   8.480   6.344   9.339  0.6076 -0.2161  0.1678
  406MOL0     C54677   8.500   6.225   9.339 -0.7246  0.4785 -0.8200
  406MOL0     O54678   8.615   6.168   9.357 -0.2044  0.4126  0.3054
  406MOL0     C54679   8.734   6.240   9.356 -0.2790  0.2518 -0.3694
  406MOL0     C54680   8.772   6.340   9.254 -0.2217  0.0349 -1.0702
  406MOL0     C54681   8.910   6.382   9.254  0.5859  0.2016  0.6547
  406MOL0     C54682   9.003   6.333   9.349 -0.5071 -0.0746  0.2618
  406MOL0     O54683   9.137   6.382   9.348  0.3367 -0.0958  0.1365
  406MOL0     C54684   9.218   6.365   9.462  0.1286 -0.3763  0.1340
  406MOL0     C54685   9.334   6.467   9.469 -0.1804 -0.5739 -0.3151
  406MOL0     C54686   9.447   6.439   9.367 -0.4876 -0.6562  0.0182
  406MOL0     C54687   9.510   6.297   9.381  0.2786 -0.2931  0.1523
  406MOL0     C54688   9.651   6.301   9.319 -0.0508  0.3228  0.3109
  406MOL0     C54689   9.641   6.365   9.172 -0.3184 -0.1740 -0.6144
  406MOL0     C54690   9.770   6.331   9.093 -0.2946  0.1302  0.4870
  406MOL0     C54691   9.891   6.418   9.142 -0.3142  0.0161  0.0884
  406MOL0     N54692  10.014   6.370   9.075 -0.2205 -0.9390 -0.2817
  406MOL0     C54693  10.049   6.416   8.948 -0.0471 -0.0175  0.1636
  406MOL0     C54694  10.180   6.389   8.931  0.4173  0.4944 -0.0533
  406MOL0     C54695  10.257   6.422   8.804 -1.0188 -0.3278  0.1590
  406MOL0     C54696  10.215   6.327   8.704 -1.4497 -0.3218  0.3543
  406MOL0     C54697  10.264   6.377   8.570  0.4446 -0.4087  0.2469
  406MOL0     C54698  10.232   6.269   8.469  0.2492  0.4644 -0.1156
  406MOL0     O54699  10.283   6.281   8.335  0.2824  0.4461  0.1664
  406MOL0     C54700  10.403   6.231   8.309  0.8021  0.3770  0.3849
  406MOL0     C54701  10.438   6.232   8.170  0.3276  0.3880 -0.9094
  406MOL0     C54702  10.565   6.203   8.132  0.7128 -0.1978  0.6727
  406MOL0     C54703  10.658   6.153   8.227 -0.6556 -0.2712  0.0882
  406MOL0     C54704  10.795   6.112   8.190  0.0329  0.0932 -0.5278
  406MOL0     O54705  10.883   6.116   8.289 -0.2862  0.3351  1.0531
  406MOL0     C54706  11.004   6.066   8.265  0.1112 -0.0048 -0.1002
  406MOL0     C54707  11.097   6.102   8.161 -0.0156 -1.0955 -0.1639
  406MOL0     C54708  11.219   6.044   8.150 -0.2494  0.8751 -0.0432
  406MOL0     C54709  11.261   5.950   8.241 -0.1556 -0.5819  0.4988
  406MOL0     O54710  11.376   5.875   8.226  0.1252 -0.0953 -0.7304
  406MOL0     C54711  11.490   5.908   8.143 -0.5544 -0.1003 -0.0097
  406MOL0     C54712  11.624   5.842   8.192  0.2231  0.3092 -0.7049
  406MOL0     C54713  11.747   5.869   8.101  0.2041 -0.5894  0.5536
  406MOL0     C54714  11.868   5.808   8.177  1.0636 -0.3871 -0.4666
  406MOL0     C54715  11.991   5.853   8.100 -0.3943 -0.2829 -1.2070
  406MOL0     C54716  12.120   5.850   8.189  0.6213  0.1992  0.0993
  406MOL0     C54717  12.211   5.740   8.128 -0.2131 -0.7859  0.0897
  406MOL0     C54718  12.344   5.726   8.205  0.1055  0.8186 -0.6114
  406MOL0    Cl54719  12.431   5.869   8.192 -0.2180  0.2396 -0.1207
  406MOL0     C54720  11.176   5.909   8.343  0.9547 -0.4762  0.6037
  406MOL0     C54721  11.048   5.966   8.353  0.0795  0.7072 -0.1652
  406MOL0     O54722  10.820   6.080   8.077  0.1331 -0.1749  0.3086
  406MOL0     C54723  10.624   6.142   8.363  0.0405 -0.4961  0.2247
  406MOL0     C54724  10.499   6.182   8.401  0.4839 -0.2764  0.9509
  406MOL0     N54725  10.224   6.332   9.049  0.1982 -0.0488 -0.0295
  406MOL0     N54726  10.127   6.321   9.140  0.0305  0.3942  0.2895
  406MOL0     C54727   8.965   6.241   9.443  0.7940 -0.1588 -0.1403
  406MOL0     C54728   8.837   6.192   9.441  0.2606  0.2885  0.0163
  406MOL0     C54729   8.382   6.130   9.323 -0.7016  1.0430 -0.0782
  406MOL0     C54730   8.259   6.166   9.392 -0.7481 -0.1312 -0.1621
  406MOL0     C54731   8.145   6.085   9.378 -0.2638  0.6445 -0.5371
  406MOL0     C54732   8.154   5.961   9.306  0.7450  0.0829 -0.4911
  406MOL0     O54733   8.045   5.878   9.279  0.6458 -0.0413  0.0546
  406MOL0     C54734   7.927   5.874   9.361 -0.1477 -0.1023 -0.2941
  406MOL0     C54735   7.952   5.769   9.466  0.0057  0.2269  0.4396
  406MOL0     C54736   7.833   5.757   9.563 -0.1573 -0.0065  0.2098
  406MOL0     C54737   7.873   5.652   9.668  0.0370  0.0559 -0.1396
  406MOL0     C54738   7.755   5.593   9.737  0.2328 -0.0593 -0.0024
  406MOL0     C54739   7.644   5.560   9.778 -0.0311  1.1168  0.1561
  406MOL0     C54740   8.276   5.923   9.252  0.5862  0.3741 -0.5167
  406MOL0     C54741   8.392   6.005   9.257  0.6172  0.0555 -0.2117
  406MOL0     C54742   8.500   5.955   9.166  0.0198  0.9194 -0.5908
  406MOL0     H54743   8.699   6.395   9.194 -0.8772  3.2061  2.2424
  406MOL0     H54744   8.945   6.452   9.179  0.9673  0.0126  0.6585
  406MOL0     H54745   9.157   6.383   9.551 -0.6096 -0.3738 -0.3622
  406MOL0     H54746   9.257   6.263   9.459  0.2422 -0.3352 -2.8782
  406MOL0     H54747   9.367   6.468   9.574  1.3116  2.4501 -0.7123
  406MOL0     H54748   9.301   6.570   9.455 -0.7540 -0.0895  3.4306
  406MOL0     H54749   9.517   6.523   9.363 -0.1455 -0.8711  1.1598
  406MOL0     H54750   9.400   6.432   9.269 -1.9369 -1.6136  0.7502
  406MOL0     H54751   9.513   6.266   9.486  1.5486  3.3299  1.3361
  406MOL0     H54752   9.448   6.223   9.329  0.1079  1.0537 -1.6425
  406MOL0     H54753   9.727   6.349   9.381  2.3779 -2.1795 -0.5114
  406MOL0     H54754   9.677   6.195   9.318 -1.5465 -0.0847  1.2688
  406MOL0     H54755   9.556   6.327   9.115  0.7480  0.1243 -2.4642
  406MOL0     H54756   9.634   6.473   9.189 -4.1493  0.0131 -2.3827
  406MOL0     H54757   9.745   6.342   8.986  0.7958  0.1238  0.2262
  406MOL0     H54758   9.803   6.227   9.096  1.8261  0.6995 -1.0996
  406MOL0     H54759   9.872   6.523   9.120 -1.2043  0.0610  1.0008
  406MOL0     H54760   9.891   6.407   9.251 -0.7776 -1.7686 -0.0537
  406MOL0     H54761   9.985   6.464   8.875  1.7221 -1.7947 -2.7816
  406MOL0     H54762  10.231   6.523   8.770  0.6486 -0.3412 -1.3028
  406MOL0     H54763  10.363   6.416   8.831  0.5428 -1.0431 -5.0203
  406MOL0     H54764  10.260   6.231   8.730 -1.6335 -0.3257  0.6675
  406MOL0     H54765  10.107   6.313   8.691 -1.0986 -1.2719 -2.0998
  406MOL0     H54766  10.371   6.387   8.586 -0.1362  1.2839  4.2797
  406MOL0     H54767  10.226   6.477   8.549  1.2064 -0.1731 -0.0298
  406MOL0     H54768  10.123   6.264   8.462  0.3369 -0.0410 -1.3154
  406MOL0     H54769  10.266   6.180   8.523 -0.4454  1.6728  2.4929
  406MOL0     H54770  10.360   6.261   8.100 -1.6469  1.6384  1.6480
  406MOL0     H54771  10.586   6.203   8.025 -0.2593  1.1203  0.4567
  406MOL0     H54772  11.065   6.170   8.082 -1.7043 -1.5943  0.0419
  406MOL0     H54773  11.281   6.085   8.070 -0.0980  0.0400 -0.3593
  406MOL0     H54774  11.462   5.881   8.041  1.0317 -3.1976  0.2640
  406MOL0     H54775  11.512   6.015   8.147 -1.9189  0.1732  0.7504
  406MOL0     H54776  11.632   5.883   8.293 -2.8393 -1.5782  0.4632
  406MOL0     H54777  11.601   5.735   8.184 -1.8737  0.5617  1.0494
  406MOL0     H54778  11.723   5.822   8.006 -1.2975 -2.5800  1.8296
  406MOL0     H54779  11.766   5.975   8.084  2.6025 -1.1192 -0.4041
  406MOL0     H54780  11.845   5.701   8.177 -2.9057  0.2138  2.6081
  406MOL0     H54781  11.853   5.841   8.280 -1.3616 -1.8560 -0.2592
  406MOL0     H54782  11.973   5.957   8.073  1.3596  1.1291  2.3696
  406MOL0     H54783  11.998   5.798   8.006 -0.0297  2.1007 -2.6438
  406MOL0     H54784  12.171   5.946   8.171 -1.7383  0.8848 -4.5504
  406MOL0     H54785  12.091   5.831   8.292  0.2696  0.6013  0.0787
  406MOL0     H54786  12.234   5.758   8.023 -0.5368  6.1237  0.7433
  406MOL0     H54787  12.159   5.644   8.133 -2.7048  0.3570 -1.5633
  406MOL0     H54788  12.335   5.699   8.311  2.6359  0.9384 -0.3074
  406MOL0     H54789  12.401   5.642   8.165 -1.2187  0.3063 -1.5067
  406MOL0     H54790  11.203   5.827   8.409  0.0444  0.5185  2.2738
  406MOL0     H54791  10.980   5.935   8.431  0.6569  4.2081  1.9770
  406MOL0     H54792  10.687   6.099   8.439  1.4204 -0.3829 -0.8271
  406MOL0     H54793  10.472   6.164   8.504 -3.1682  0.2009  0.2195
  406MOL0     H54794   9.032   6.189   9.510  1.3042 -0.7256 -1.0610
  406MOL0     H54795   8.820   6.113   9.514  0.7117 -1.2870 -1.5099
  406MOL0     H54796   8.253   6.263   9.441 -1.9581 -0.6346  0.7496
  406MOL0     H54797   8.047   6.110   9.417 -0.3650 -2.0462  1.1789
  406MOL0     H54798   7.839   5.844   9.303 -0.6124 -3.3667  1.7813
  406MOL0     H54799   7.897   5.970   9.402 -0.2234  0.0744 -0.7561
  406MOL0     H54800   8.045   5.797   9.515  0.2957 -0.2099  0.1444
  406MOL0     H54801   7.973   5.675   9.415  0.4782 -0.9593  2.6766
  406MOL0     H54802   7.744   5.721   9.511  0.7130 -0.0655 -1.3057
  406MOL0     H54803   7.815   5.854   9.611  1.2035 -0.4729  1.7532
  406MOL0     H54804   7.925   5.575   9.610  0.4678  1.4702 -1.6971
  406MOL0     H54805   7.937   5.694   9.747  0.3279 -0.9229  0.1539
  406MOL0     H54806   7.549   5.516   9.800  0.2329  1.4747  2.1818
  406MOL0     H54807   8.274   5.839   9.183  1.6300 -0.2000  0.1324
  406MOL0     H54808   8.461   5.899   9.081  2.4882  0.1403 -1.2874
  406MOL0     H54809   8.562   6.031   9.117 -0.2080  0.7963 -1.0742
  406MOL0     H54810   8.568   5.887   9.219  1.5173  2.1830 -0.8101
  407MOL0     O54811   6.221   3.321   7.304 -0.6122  0.4145  0.1780
  407MOL0     C54812   6.179   3.276   7.411 -0.8030 -0.4671 -0.2050
  407MOL0     O54813   6.046   3.275   7.453 -0.2838  0.2599 -0.1595
  407MOL0     C54814   5.950   3.344   7.390  0.1647 -0.3642  0.3585
  407MOL0     C54815   5.930   3.349   7.252  0.0034  0.2875  0.2888
  407MOL0     C54816   5.824   3.416   7.192  0.4707 -0.3971  0.4752
  407MOL0     C54817   5.734   3.486   7.264  0.3987  0.1560 -0.0048
  407MOL0     O54818   5.630   3.542   7.198  0.7254  0.2380  0.3272
  407MOL0     C54819   5.515   3.535   7.275  1.2369  0.0261 -0.5044
  407MOL0     C54820   5.396   3.563   7.180 -0.2279  0.2489 -0.8181
  407MOL0     C54821   5.390   3.448   7.079 -0.0860 -0.5401 -0.4035
  407MOL0     C54822   5.467   3.487   6.945 -0.4137  0.2232  1.0895
  407MOL0     C54823   5.454   3.355   6.864 -0.6197  0.4260 -0.1121
  407MOL0     C54824   5.506   3.358   6.716 -0.5537 -0.2433  0.0367
  407MOL0     C54825   5.652   3.393   6.677  0.2736  0.4687  0.4335
  407MOL0     C54826   5.753   3.271   6.701  0.6685 -0.8544 -0.4207
  407MOL0     N54827   5.873   3.294   6.620  0.3615  0.0913 -0.0748
  407MOL0     C54828   5.887   3.280   6.480  1.0792  0.8596  0.1844
  407MOL0     C54829   6.014   3.313   6.454 -0.4774  0.0785 -0.3179
  407MOL0     C54830   6.087   3.317   6.322 -0.1187 -0.7479 -0.2578
  407MOL0     C54831   6.201   3.423   6.325 -0.4669  0.5843  0.5185
  407MOL0     C54832   6.265   3.445   6.184  0.3074 -0.3271 -0.7973
  407MOL0     C54833   6.364   3.561   6.185 -0.4843  0.5245 -0.1405
  407MOL0     O54834   6.436   3.576   6.057  0.4932 -0.6698 -0.0510
  407MOL0     C54835   6.571   3.569   6.057 -0.0314 -0.5265 -0.0460
  407MOL0     C54836   6.647   3.641   6.147 -0.8983 -0.5895 -0.3034
  407MOL0     C54837   6.790   3.631   6.142 -0.0128  0.4589 -0.2795
  407MOL0     C54838   6.857   3.550   6.052  0.0858  0.5151  0.1771
  407MOL0     C54839   7.009   3.542   6.058  0.0526  0.3796  0.9947
  407MOL0     O54840   7.085   3.639   6.123 -0.1151  0.3389  0.4046
  407MOL0     C54841   7.227   3.628   6.143  0.6298  0.4915  0.3656
  407MOL0     C54842   7.288   3.748   6.178  0.0521 -0.3082 -0.1942
  407MOL0     C54843   7.432   3.755   6.176 -0.2163 -0.1889 -0.3361
  407MOL0     C54844   7.513   3.638   6.167  0.1744  0.4684 -0.2862
  407MOL0     O54845   7.650   3.646   6.185  0.1085 -0.7613  0.3970
  407MOL0     C54846   7.732   3.570   6.097  1.2842 -0.3342 -0.1227
  407MOL0     C54847   7.779   3.649   5.977  0.3542 -0.4867  0.2481
  407MOL0     C54848   7.899   3.579   5.910 -0.5196 -0.2912 -0.0869
  407MOL0     C54849   8.034   3.642   5.960 -0.3167 -0.3360 -0.7109
  407MOL0     C54850   8.161   3.610   5.882 -1.2997 -0.8751 -0.5508
  407MOL0     C54851   8.288   3.687   5.939  0.1506 -0.0425 -0.4131
  407MOL0     C54852   8.417   3.683   5.855 -0.0755  0.0196 -0.0091
  407MOL0     C54853   8.456   3.538   5.827 -0.4560 -0.1936  0.7649
  407MOL0    Cl54854   8.418   3.415   5.962 -0.7087 -0.0383  0.1667
  407MOL0     C54855   7.438   3.516   6.150 -1.0601 -0.5326  0.0125
  407MOL0     C54856   7.300   3.510   6.140 -0.5797 -0.2177  0.1544
  407MOL0     O54857   7.060   3.453   5.980 -0.9243  0.1665 -0.3539
  407MOL0     C54858   6.772   3.472   5.960 -0.2668  0.1269  0.6866
  407MOL0     C54859   6.634   3.487   5.968 -0.3476  0.5453 -0.9915
  407MOL0     N54860   6.076   3.355   6.572  0.2291 -0.7965 -0.6567
  407MOL0     N54861   5.995   3.338   6.673  0.5683 -0.6201 -0.2917
  407MOL0     C54862   5.754   3.495   7.407 -0.2494  0.3645  0.9577
  407MOL0     C54863   5.861   3.422   7.467  0.0938  0.0077 -0.0808
  407MOL0     C54864   6.271   3.215   7.516 -0.4907  0.1302 -0.0871
  407MOL0     C54865   6.240   3.238   7.655 -0.2168  0.6085 -0.5799
  407MOL0     C54866   6.314   3.162   7.747  0.1135  0.8976 -0.1633
  407MOL0     C54867   6.409   3.072   7.710 -0.3987 -0.3161 -0.4508
  407MOL0     O54868   6.452   2.991   7.810  0.3813 -0.1695  0.1811
  407MOL0     C54869   6.569   2.916   7.797  0.2754  0.1242  0.3065
  407MOL0     C54870   6.538   2.771   7.771  1.0971  0.1962 -0.7602
  407MOL0     C54871   6.498   2.732   7.624  0.6612 -0.3835 -1.0328
  407MOL0     C54872   6.623   2.741   7.532  0.4382 -0.3966  0.1990
  407MOL0     C54873   6.725   2.645   7.574 -0.3614  0.2728 -0.3792
  407MOL0     C54874   6.813   2.566   7.609  0.7339 -0.0923 -0.7069
  407MOL0     C54875   6.450   3.068   7.577 -0.2002  0.3290  0.2709
  407MOL0     C54876   6.381   3.133   7.476  0.2642 -0.6869  0.2691
  407MOL0     C54877   6.429   3.110   7.338 -0.3924  0.4024  1.3876
  407MOL0     H54878   6.000   3.300   7.186 -1.3515 -1.6473  0.1914
  407MOL0     H54879   5.798   3.422   7.087  0.6006  0.4040  0.4796
  407MOL0     H54880   5.502   3.435   7.319 -0.6902  0.5335  0.1683
  407MOL0     H54881   5.517   3.602   7.361  4.3208 -2.5240  1.6793
  407MOL0     H54882   5.396   3.668   7.146 -1.5548  0.1174 -1.2993
  407MOL0     H54883   5.310   3.556   7.248 -0.3083  3.4802 -0.3946
  407MOL0     H54884   5.286   3.427   7.052 -0.7172  3.1504 -1.3979
  407MOL0     H54885   5.431   3.354   7.118  0.5883 -0.0365  0.1236
  407MOL0     H54886   5.419   3.570   6.891 -1.7597  0.0427  1.9779
  407MOL0     H54887   5.571   3.513   6.968  0.9298 -1.9006 -1.8832
  407MOL0     H54888   5.496   3.267   6.913  0.5533  0.2831 -1.3034
  407MOL0     H54889   5.347   3.332   6.857 -0.8817  1.5554  0.1276
  407MOL0     H54890   5.487   3.258   6.676  1.1940  0.1940 -2.0299
  407MOL0     H54891   5.438   3.424   6.661 -1.3859 -1.4546 -0.4363
  407MOL0     H54892   5.686   3.489   6.718  0.1109  0.4247  0.6767
  407MOL0     H54893   5.651   3.410   6.569 -3.8370 -1.0581  0.0678
  407MOL0     H54894   5.775   3.265   6.808  1.6548  0.9945 -0.4800
  407MOL0     H54895   5.704   3.176   6.675 -1.5000  0.1162 -0.1502
  407MOL0     H54896   5.809   3.258   6.408  3.5187  0.0496 -2.3898
  407MOL0     H54897   6.123   3.221   6.285  3.8446  0.7547 -0.8627
  407MOL0     H54898   6.014   3.350   6.246  0.7985 -0.7721 -1.1782
  407MOL0     H54899   6.157   3.514   6.366  0.2386  1.1459  0.0508
  407MOL0     H54900   6.281   3.385   6.390  1.5646 -1.7616 -2.9875
  407MOL0     H54901   6.192   3.465   6.105 -1.1574  2.2150  1.0509
  407MOL0     H54902   6.319   3.356   6.150  0.7672  0.1857 -1.4298
  407MOL0     H54903   6.442   3.536   6.257  2.0475  1.7930 -2.2848
  407MOL0     H54904   6.313   3.655   6.207 -2.6103 -0.5125 -0.3293
  407MOL0     H54905   6.607   3.710   6.221  3.3602  1.3420  0.4936
  407MOL0     H54906   6.848   3.699   6.204  1.0056  1.3071 -2.0982
  407MOL0     H54907   7.218   3.831   6.175  0.8793  0.4117  0.0309
  407MOL0     H54908   7.477   3.852   6.193 -2.7009  1.0620 -0.4653
  407MOL0     H54909   7.818   3.537   6.156  1.3211 -0.3772 -0.2007
  407MOL0     H54910   7.688   3.480   6.052 -0.5679 -0.4888  1.8324
  407MOL0     H54911   7.699   3.662   5.904  0.1936  1.6198  0.7296
  407MOL0     H54912   7.791   3.752   6.013  1.4546 -0.5894  0.1874
  407MOL0     H54913   7.902   3.473   5.935 -0.5556 -0.4060 -0.5654
  407MOL0     H54914   7.897   3.591   5.801 -1.4741 -1.3982 -0.2109
  407MOL0     H54915   8.054   3.599   6.058  1.2534 -0.2153 -0.9547
  407MOL0     H54916   8.035   3.751   5.970  1.0228 -0.3611 -0.4546
  407MOL0     H54917   8.143   3.629   5.775 -1.1274  0.4817 -0.3613
  407MOL0     H54918   8.182   3.504   5.898  0.2274 -0.1956  2.9709
  407MOL0     H54919   8.254   3.790   5.945 -2.4452 -0.8833  0.8920
  407MOL0     H54920   8.301   3.651   6.042 -0.8217  1.4834  0.2653
  407MOL0     H54921   8.494   3.726   5.919 -0.8121  1.1464  0.1435
  407MOL0     H54922   8.416   3.746   5.766  2.2176  1.9438  1.2320
  407MOL0     H54923   8.397   3.505   5.741  0.9951 -1.3155  0.1680
  407MOL0     H54924   8.562   3.536   5.799 -0.0067  1.8100  2.1330
  407MOL0     H54925   7.494   3.424   6.157  0.1830  0.2622  0.9457
  407MOL0     H54926   7.258   3.410   6.139  0.7554 -0.8950 -3.6172
  407MOL0     H54927   6.816   3.431   5.870 -0.2662  0.3450  0.5868
  407MOL0     H54928   6.563   3.451   5.895 -0.2799  1.2200 -1.3988
  407MOL0     H54929   5.690   3.560   7.465 -1.7943  1.1272 -1.4499
  407MOL0     H54930   5.881   3.424   7.573  2.6465  2.5998 -0.4885
  407MOL0     H54931   6.163   3.305   7.692  0.5265 -0.2594  2.9318
  407MOL0     H54932   6.283   3.173   7.850 -1.4756 -2.4013 -0.1769
  407MOL0     H54933   6.604   2.917   7.901 -1.9102  1.9057  1.1091
  407MOL0     H54934   6.637   2.956   7.721  0.0949 -1.7673 -0.9318
  407MOL0     H54935   6.453   2.742   7.835  0.6955  0.8858 -0.9737
  407MOL0     H54936   6.610   2.697   7.806 -1.2439 -2.1708 -0.6124
  407MOL0     H54937   6.415   2.794   7.587 -1.3316 -1.0935  1.8127
  407MOL0     H54938   6.455   2.633   7.641 -0.9023  0.5318  0.8595
  407MOL0     H54939   6.598   2.711   7.430  1.5384 -2.8286  0.5899
  407MOL0     H54940   6.659   2.844   7.536 -0.7598 -0.0034  2.8383
  407MOL0     H54941   6.891   2.503   7.645  0.8107  1.1751  1.5445
  407MOL0     H54942   6.534   3.004   7.555 -2.0459 -1.7881 -1.0314
  407MOL0     H54943   6.349   3.056   7.286 -1.7454  1.6009  2.1634
  407MOL0     H54944   6.451   3.199   7.278 -0.7822 -1.6728 -2.1459
  407MOL0     H54945   6.522   3.051   7.337  0.1197  1.1459 -0.5260
  408MOL0     O54946   4.633   2.788   1.271  0.6417 -0.2161 -0.4565
  408MOL0     C54947   4.597   2.880   1.205 -0.8265  0.1889  0.2881
  408MOL0     O54948   4.676   2.961   1.131 -0.5373  0.8520  0.2151
  408MOL0     C54949   4.810   2.942   1.153 -0.2651 -0.0312  0.2185
  408MOL0     C54950   4.895   3.030   1.224 -0.1213  0.2350  0.7599
  408MOL0     C54951   5.031   2.994   1.236 -0.1928  0.6775  0.3624
  408MOL0     C54952   5.087   2.890   1.164  0.0719 -0.0860 -0.4097
  408MOL0     O54953   5.214   2.847   1.168 -0.4191  0.1042  0.4866
  408MOL0     C54954   5.311   2.896   1.260 -0.5762  0.2554 -0.4519
  408MOL0     C54955   5.384   3.024   1.213  1.2089  1.2651  0.0897
  408MOL0     C54956   5.455   2.984   1.080 -0.1607 -0.1062  0.0063
  408MOL0     C54957   5.553   3.094   1.029 -0.1431  0.4775 -0.3870
  408MOL0     C54958   5.635   3.055   0.907  0.8938 -0.3339  0.1777
  408MOL0     C54959   5.754   2.952   0.921 -0.5082  0.1117 -0.0473
  408MOL0     C54960   5.847   2.973   1.041 -0.1426  0.8265 -0.1933
  408MOL0     C54961   5.933   2.852   1.058  0.0137  1.3089 -0.2243
  408MOL0     N54962   5.859   2.722   1.068 -0.0871 -0.5268  0.8499
  408MOL0     C54963   5.755   2.703   1.164  0.0545 -0.1560  0.0001
  408MOL0     C54964   5.700   2.582   1.124  0.3845  0.9204 -0.9455
  408MOL0     C54965   5.596   2.506   1.200 -0.0374  0.3194  0.3083
  408MOL0     C54966   5.453   2.525   1.146  0.5921 -0.3947  0.9306
  408MOL0     C54967   5.438   2.503   0.993 -0.0446 -0.4019  0.0937
  408MOL0     C54968   5.294   2.544   0.953  0.4522  0.6247  0.2964
  408MOL0     O54969   5.206   2.447   0.997  0.1719 -0.4575  0.3180
  408MOL0     C54970   5.074   2.465   0.978  0.1594  0.3771  0.1138
  408MOL0     C54971   4.982   2.436   1.082  0.1773 -0.6078 -0.0546
  408MOL0     C54972   4.848   2.461   1.072 -0.2541  0.1083  0.4045
  408MOL0     C54973   4.790   2.507   0.948 -0.1947 -0.0955 -0.0649
  408MOL0     C54974   4.651   2.543   0.932  0.2998  0.5276  1.1591
  408MOL0     O54975   4.610   2.611   0.819 -0.6420 -0.2474  0.2105
  408MOL0     C54976   4.478   2.638   0.792  0.0815 -0.0285 -0.8332
  408MOL0     C54977   4.405   2.723   0.869  0.1626 -0.4662 -0.4690
  408MOL0     C54978   4.266   2.749   0.849 -0.5886 -0.0405 -0.2247
  408MOL0     C54979   4.206   2.677   0.749  1.4671 -0.5908  0.6493
  408MOL0     O54980   4.078   2.685   0.718  0.0442 -0.2665 -0.2679
  408MOL0     C54981   3.981   2.665   0.821 -0.1192 -0.3911  0.2870
  408MOL0     C54982   3.981   2.515   0.875  0.4838 -0.7277  0.1803
  408MOL0     C54983   3.881   2.513   0.985 -0.3462  0.3338 -0.4320
  408MOL0     C54984   3.832   2.375   1.027 -0.0152  0.8541 -0.5481
  408MOL0     C54985   3.717   2.323   0.939 -0.0315  0.3445 -0.0259
  408MOL0     C54986   3.673   2.182   0.982  0.3198  0.6034  0.0567
  408MOL0     C54987   3.560   2.183   1.088  0.6230 -0.5070 -0.2078
  408MOL0     C54988   3.515   2.046   1.137  0.0654 -0.5544 -0.2432
  408MOL0    Cl54989   3.659   1.994   1.232  0.2563 -0.2691  0.2446
  408MOL0     C54990   4.280   2.587   0.673  0.0997  0.6190  0.0931
  408MOL0     C54991   4.417   2.571   0.691 -0.4904  0.3268 -0.2618
  408MOL0     O54992   4.576   2.503   1.020 -0.1887  0.3934 -1.0822
  408MOL0     C54993   4.882   2.538   0.843 -0.0758  0.2015  0.0851
  408MOL0     C54994   5.022   2.510   0.858  0.9962 -0.2146  0.9253
  408MOL0     N54995   5.773   2.531   1.015  0.1558 -0.0294 -0.3164
  408MOL0     N54996   5.864   2.619   0.986 -0.6980  0.1402  0.4647
  408MOL0     C54997   5.006   2.809   1.091  0.9565 -0.1533 -0.3451
  408MOL0     C54998   4.865   2.829   1.083 -0.0734 -0.2124 -0.3408
  408MOL0     C54999   4.456   2.911   1.212  0.1255  0.0092  0.1333
  408MOL0     C55000   4.412   3.046   1.204  0.9626  0.1070  1.1802
  408MOL0     C55001   4.273   3.080   1.200  0.1652 -0.5178  0.6570
  408MOL0     C55002   4.174   2.984   1.220  0.5612 -0.2987  0.3856
  408MOL0     O55003   4.037   3.012   1.208 -1.3533 -0.0903 -0.1983
  408MOL0     C55004   3.990   3.144   1.181 -0.2197 -0.5364  0.3694
  408MOL0     C55005   3.841   3.140   1.187  0.6916  0.2275  0.5130
  408MOL0     C55006   3.763   3.076   1.076 -0.7177  0.1866  0.2683
  408MOL0     C55007   3.820   2.933   1.042  0.2437 -1.0352 -0.1393
  408MOL0     C55008   3.722   2.859   0.963  0.1579  0.7417  0.6945
  408MOL0     C55009   3.645   2.787   0.891  0.3070  0.3503 -0.3329
  408MOL0     C55010   4.218   2.845   1.228  0.7943 -0.6350  0.4845
  408MOL0     C55011   4.354   2.805   1.225  0.5987 -0.4375  0.0498
  408MOL0     C55012   4.370   2.654   1.237 -0.4369 -0.0212  0.3608
  408MOL0     H55013   4.872   3.130   1.259 -1.3403  0.5869 -0.9211
  408MOL0     H55014   5.091   3.069   1.286  0.6021  1.0500 -1.0872
  408MOL0     H55015   5.258   2.919   1.353  0.9543 -0.9273  0.7813
  408MOL0     H55016   5.378   2.815   1.290  0.2338  1.0477 -0.0539
  408MOL0     H55017   5.458   3.059   1.286  1.5544 -1.1109  1.0032
  408MOL0     H55018   5.302   3.094   1.200 -0.8451 -1.4382 -3.0098
  408MOL0     H55019   5.386   2.954   1.000 -1.3582 -2.0254  1.6393
  408MOL0     H55020   5.517   2.896   1.100 -0.0341  0.0961  0.5024
  408MOL0     H55021   5.484   3.178   1.011 -0.4226 -0.0800 -2.0367
  408MOL0     H55022   5.621   3.115   1.112 -0.4392 -2.3155  0.6637
  408MOL0     H55023   5.574   3.014   0.827  0.5039 -0.8310  0.7237
  408MOL0     H55024   5.678   3.148   0.868 -0.7735 -0.9064 -3.4256
  408MOL0     H55025   5.712   2.853   0.940  1.2455 -0.4652  0.9615
  408MOL0     H55026   5.812   2.949   0.828 -1.4239  2.8227 -0.8197
  408MOL0     H55027   5.788   2.992   1.131 -0.9339  2.4060 -0.9955
  408MOL0     H55028   5.910   3.061   1.022  0.4076  0.1002 -2.0313
  408MOL0     H55029   6.004   2.850   0.976  1.5080  3.4911  0.9275
  408MOL0     H55030   5.995   2.861   1.148 -2.0716  2.5182  1.1828
  408MOL0     H55031   5.730   2.770   1.246 -0.2289  0.8982 -0.9278
  408MOL0     H55032   5.627   2.402   1.191 -2.1685 -0.1814 -3.3080
  408MOL0     H55033   5.600   2.526   1.308  1.5218  1.0598  0.1276
  408MOL0     H55034   5.382   2.457   1.194 -1.2349  0.4073 -0.5251
  408MOL0     H55035   5.418   2.627   1.163  0.3284 -0.6765  2.2112
  408MOL0     H55036   5.458   2.397   0.979 -2.2305 -0.8606  0.0773
  408MOL0     H55037   5.507   2.565   0.936 -0.8109 -0.2270 -0.6691
  408MOL0     H55038   5.297   2.557   0.845 -0.0258 -0.7812  0.0949
  408MOL0     H55039   5.256   2.638   0.995  0.3076  1.4721 -1.6607
  408MOL0     H55040   5.021   2.412   1.181 -1.2462  0.6724  0.8688
  408MOL0     H55041   4.796   2.450   1.166  3.2597 -0.5535  2.4776
  408MOL0     H55042   4.448   2.765   0.959 -2.5546 -2.4150  1.9499
  408MOL0     H55043   4.209   2.804   0.924 -0.1303 -1.8255  1.5216
  408MOL0     H55044   3.988   2.731   0.908 -0.3813 -0.3050  0.2443
  408MOL0     H55045   3.885   2.698   0.780 -0.3898 -0.7794  0.6019
  408MOL0     H55046   3.955   2.442   0.798 -0.0388  0.7330 -1.0644
  408MOL0     H55047   4.082   2.498   0.914  0.7221  0.3289  0.0471
  408MOL0     H55048   3.929   2.549   1.076 -0.4216 -2.3192  0.7751
  408MOL0     H55049   3.800   2.584   0.966  0.3105  1.3442  0.4176
  408MOL0     H55050   3.792   2.383   1.128  0.0542 -1.6721 -0.2431
  408MOL0     H55051   3.920   2.309   1.029  1.3622  2.6023  1.3716
  408MOL0     H55052   3.744   2.310   0.834  0.6552  0.8124  0.0870
  408MOL0     H55053   3.635   2.395   0.934 -0.6328 -0.3278  0.0421
  408MOL0     H55054   3.629   2.130   0.897 -2.2850 -3.2668  3.3924
  408MOL0     H55055   3.758   2.120   1.011  0.7052  0.5902 -1.0666
  408MOL0     H55056   3.471   2.225   1.040  1.7595 -0.3050 -2.2663
  408MOL0     H55057   3.583   2.247   1.174 -0.8904 -2.0652  1.4392
  408MOL0     H55058   3.422   2.059   1.193  1.0481 -2.9412  2.1738
  408MOL0     H55059   3.515   1.973   1.057  1.5890 -0.3524 -0.4509
  408MOL0     H55060   4.226   2.526   0.601  1.1915 -2.7626  1.9412
  408MOL0     H55061   4.469   2.500   0.627  1.4908  0.9326  0.5850
  408MOL0     H55062   4.847   2.566   0.744 -0.2580 -2.3323 -0.6229
  408MOL0     H55063   5.085   2.518   0.770 -1.3402  0.0242 -0.8095
  408MOL0     H55064   5.062   2.732   1.038 -1.6424 -1.7418 -0.9544
  408MOL0     H55065   4.794   2.768   1.027  0.9442  0.1929 -2.1581
  408MOL0     H55066   4.472   3.135   1.185  0.6046 -0.1723 -1.7718
  408MOL0     H55067   4.250   3.184   1.181 -2.7620 -1.4427 -1.6734
  408MOL0     H55068   4.021   3.164   1.078  0.5479 -1.8312  0.3177
  408MOL0     H55069   4.038   3.212   1.252 -0.1783 -1.4870  1.2650
  408MOL0     H55070   3.793   3.237   1.201  1.4745  0.6970  0.0254
  408MOL0     H55071   3.806   3.091   1.278  0.7033 -0.7137  0.0282
  408MOL0     H55072   3.771   3.136   0.986 -0.8907 -0.4829 -0.2018
  408MOL0     H55073   3.658   3.061   1.104 -0.1599 -4.4050  0.7147
  408MOL0     H55074   3.908   2.939   0.978 -1.5045 -3.4545 -3.0630
  408MOL0     H55075   3.834   2.869   1.130  0.9747  1.4141  1.6328
  408MOL0     H55076   3.592   2.726   0.820  1.0291 -0.1323 -0.4584
  408MOL0     H55077   4.140   2.769   1.231  0.5131 -0.3710 -0.0465
  408MOL0     H55078   4.461   2.624   1.290 -0.1844  0.8242  0.4175
  408MOL0     H55079   4.286   2.619   1.298 -1.1199  0.0078 -0.5504
  408MOL0     H55080   4.368   2.613   1.136  0.6287  0.2992  0.1947
  409MOL0     O55081   3.855   2.794   1.553 -0.2552  0.1640 -0.3923
  409MOL0     C55082   3.826   2.864   1.645  0.0643 -0.8020 -0.4108
  409MOL0     O55083   3.927   2.910   1.737  0.5496  0.1665 -0.0931
  409MOL0     C55084   4.057   2.916   1.706  0.4283  1.3820  0.3139
  409MOL0     C55085   4.124   2.921   1.575  0.2268 -0.9087  0.2520
  409MOL0     C55086   4.259   2.936   1.574 -0.1454 -0.5147  1.7117
  409MOL0     C55087   4.335   2.930   1.687  0.6156  0.3304  0.5359
  409MOL0     O55088   4.470   2.922   1.691 -0.1718  0.4048 -0.1698
  409MOL0     C55089   4.552   2.920   1.568  0.1467  0.3614  0.0133
  409MOL0     C55090   4.694   2.958   1.595  0.1721 -0.7566  0.2096
  409MOL0     C55091   4.733   3.087   1.665  0.0655  0.2996 -0.1593
  409MOL0     C55092   4.874   3.137   1.632  1.0087 -0.4231 -0.3872
  409MOL0     C55093   4.883   3.276   1.701  0.5158 -0.0646  0.2425
  409MOL0     C55094   5.008   3.351   1.659  0.6269  0.2782 -0.7110
  409MOL0     C55095   5.136   3.271   1.680 -0.0162  0.1385 -0.0507
  409MOL0     C55096   5.250   3.366   1.674  0.5919  0.6253  0.0501
  409MOL0     N55097   5.373   3.302   1.690 -0.4356  0.9581  0.2926
  409MOL0     C55098   5.433   3.252   1.801  0.0712 -0.7324 -0.5651
  409MOL0     C55099   5.545   3.182   1.761  0.0531  0.8087 -0.2554
  409MOL0     C55100   5.630   3.099   1.857  0.1749 -0.2838  0.6804
  409MOL0     C55101   5.774   3.123   1.831 -0.4202 -0.0916 -0.3600
  409MOL0     C55102   5.881   3.032   1.908  0.3071  0.7635 -0.2637
  409MOL0     C55103   6.017   3.048   1.843  0.6369  0.3853 -0.7102
  409MOL0     O55104   6.116   2.967   1.906 -0.5809 -0.6868  0.2601
  409MOL0     C55105   6.226   2.946   1.836 -0.0274  0.2410 -0.5077
  409MOL0     C55106   6.331   2.884   1.906 -0.7605  0.6892 -0.2097
  409MOL0     C55107   6.450   2.857   1.839 -0.7187  0.1696  0.7116
  409MOL0     C55108   6.468   2.883   1.704 -0.4083 -0.0088  0.2952
  409MOL0     C55109   6.601   2.867   1.643  0.1731  0.9511 -0.6009
  409MOL0     O55110   6.712   2.882   1.718 -0.6084 -0.2134  0.5846
  409MOL0     C55111   6.834   2.845   1.659  0.0654  0.8287  0.0926
  409MOL0     C55112   6.859   2.705   1.637  0.1658  0.9808 -0.0772
  409MOL0     C55113   6.989   2.669   1.587  0.1039  0.5989 -0.3947
  409MOL0     C55114   7.093   2.761   1.562  0.1231  0.7382 -0.8745
  409MOL0     O55115   7.214   2.710   1.525 -0.8913 -0.0796  0.2092
  409MOL0     C55116   7.317   2.804   1.494 -1.0072 -0.2320  0.1764
  409MOL0     C55117   7.451   2.738   1.458  0.1775  0.0465 -0.6750
  409MOL0     C55118   7.570   2.841   1.442  0.0026 -0.5497 -1.2766
  409MOL0     C55119   7.688   2.778   1.371  0.0623  0.3516 -0.2486
  409MOL0     C55120   7.791   2.705   1.456 -0.7453 -0.6263 -0.4081
  409MOL0     C55121   7.788   2.550   1.447 -0.4437  0.4448  0.6646
  409MOL0     C55122   7.913   2.475   1.502 -0.4455 -0.6730  0.5559
  409MOL0     C55123   7.909   2.428   1.645 -0.2653  0.5576 -1.3379
  409MOL0    Cl55124   7.812   2.270   1.668 -0.6797  0.1597  0.4828
  409MOL0     C55125   7.068   2.894   1.607 -0.1307  0.8237 -0.1744
  409MOL0     C55126   6.939   2.933   1.650 -0.2814 -0.1707  0.1909
  409MOL0     O55127   6.604   2.850   1.519  0.0024 -0.0742  0.4653
  409MOL0     C55128   6.368   2.947   1.635 -0.1825  0.8570 -0.5444
  409MOL0     C55129   6.249   2.984   1.704 -0.2917  0.1503 -0.1952
  409MOL0     N55130   5.544   3.171   1.628 -0.0393  0.2311  0.1149
  409MOL0     N55131   5.445   3.248   1.580 -0.4287  0.1133 -0.4691
  409MOL0     C55132   4.277   2.916   1.805  0.1576  0.8045 -0.5938
  409MOL0     C55133   4.137   2.911   1.820  0.1845 -0.1390  0.4989
  409MOL0     C55134   3.688   2.872   1.691 -0.3500 -0.3178 -1.2487
  409MOL0     C55135   3.668   2.887   1.831 -0.3079  0.2370  1.2513
  409MOL0     C55136   3.539   2.915   1.880  0.4662 -0.4721  0.1778
  409MOL0     C55137   3.425   2.918   1.796 -0.0961 -0.1717 -0.1215
  409MOL0     O55138   3.296   2.928   1.839 -0.0606  0.1747  0.1070
  409MOL0     C55139   3.273   2.998   1.962 -0.0894 -1.0293  0.5050
  409MOL0     C55140   3.141   3.075   1.950  0.6207 -0.0715 -0.7114
  409MOL0     C55141   3.019   2.988   1.904  0.2091  0.7841 -0.8088
  409MOL0     C55142   2.888   3.061   1.892 -0.5152 -0.0749 -0.7245
  409MOL0     C55143   2.796   2.975   1.827 -0.8088 -1.0768  0.4700
  409MOL0     C55144   2.710   2.921   1.778  0.9021  0.4462  0.3444
  409MOL0     C55145   3.449   2.890   1.664  0.0767 -0.1767 -0.3314
  409MOL0     C55146   3.579   2.868   1.604  1.6215  0.0898  0.1711
  409MOL0     C55147   3.586   2.837   1.458 -0.4941  0.0510 -0.4795
  409MOL0     H55148   4.079   2.908   1.478 -0.8591 -1.8348  0.8587
  409MOL0     H55149   4.308   2.942   1.477  0.4609  0.8568  2.0658
  409MOL0     H55150   4.559   2.818   1.530  0.5226  0.9964 -1.7170
  409MOL0     H55151   4.518   2.990   1.491  1.0474  1.7330  0.8033
  409MOL0     H55152   4.749   2.957   1.500 -0.1694  0.4159 -0.0208
  409MOL0     H55153   4.731   2.871   1.649 -0.5697 -1.7669 -0.8621
  409MOL0     H55154   4.716   3.066   1.771 -1.0018 -2.0595 -0.7274
  409MOL0     H55155   4.665   3.166   1.631  2.3064  2.0270 -0.8963
  409MOL0     H55156   4.952   3.078   1.680  2.5702  1.0635 -0.9736
  409MOL0     H55157   4.898   3.158   1.527 -3.1832  2.9239 -0.9336
  409MOL0     H55158   4.796   3.339   1.682  0.0542 -1.2032 -1.6938
  409MOL0     H55159   4.899   3.254   1.807 -2.1866 -0.9305  0.5299
  409MOL0     H55160   5.003   3.378   1.553 -0.8926  0.3352 -0.6464
  409MOL0     H55161   5.000   3.438   1.724 -0.5140 -0.7927  0.6510
  409MOL0     H55162   5.152   3.194   1.604  1.4784 -1.4652  1.7561
  409MOL0     H55163   5.124   3.225   1.778  0.7653  3.0792  1.5502
  409MOL0     H55164   5.251   3.408   1.573 -0.0432  0.7653  0.0982
  409MOL0     H55165   5.246   3.448   1.746  3.2344 -0.7878  2.0045
  409MOL0     H55166   5.384   3.252   1.898  1.7340 -0.3556  0.3160
  409MOL0     H55167   5.614   3.124   1.963  0.8418  0.0544  0.7087
  409MOL0     H55168   5.609   2.993   1.843  1.5548 -0.6483  1.2158
  409MOL0     H55169   5.792   3.109   1.724  0.1156  2.0122 -0.5926
  409MOL0     H55170   5.784   3.230   1.850 -2.7055 -0.0675  0.9897
  409MOL0     H55171   5.860   2.925   1.897  0.9110  0.4312  1.4916
  409MOL0     H55172   5.886   3.059   2.014  0.1680 -3.4707  1.0147
  409MOL0     H55173   6.053   3.151   1.844  1.9842  0.0160  3.1576
  409MOL0     H55174   5.991   3.016   1.742 -0.2900 -1.2075  0.0074
  409MOL0     H55175   6.318   2.860   2.011  0.0957  0.2907 -0.1821
  409MOL0     H55176   6.532   2.803   1.885  1.1799  0.1491 -2.4002
  409MOL0     H55177   6.773   2.640   1.645  0.3677 -0.1853 -4.7079
  409MOL0     H55178   7.024   2.569   1.565  1.2829  0.0683  3.2317
  409MOL0     H55179   7.288   2.856   1.402 -0.1029  0.3002  0.1770
  409MOL0     H55180   7.340   2.862   1.583 -0.5590  0.4979 -0.4047
  409MOL0     H55181   7.486   2.667   1.534  0.8741  0.0694 -0.9658
  409MOL0     H55182   7.433   2.675   1.371  1.4876 -2.0277  0.4834
  409MOL0     H55183   7.542   2.920   1.373  0.5926 -1.1136 -2.1799
  409MOL0     H55184   7.595   2.880   1.542 -0.7781  1.0599 -1.6824
  409MOL0     H55185   7.748   2.860   1.330  0.3120 -0.6906 -2.0413
  409MOL0     H55186   7.643   2.727   1.286  1.6253  0.7933 -1.3763
  409MOL0     H55187   7.785   2.733   1.562  0.8770 -0.6926 -0.2800
  409MOL0     H55188   7.894   2.735   1.440 -0.9987  0.9812  0.7280
  409MOL0     H55189   7.693   2.527   1.495 -1.7171  2.5552 -0.6713
  409MOL0     H55190   7.778   2.525   1.341  4.0838 -2.4907  0.6580
  409MOL0     H55191   7.995   2.546   1.487 -0.2786 -0.4601  2.2458
  409MOL0     H55192   7.939   2.397   1.430  2.2857  0.3010  0.3614
  409MOL0     H55193   8.007   2.404   1.688 -0.9172  0.3926  0.1416
  409MOL0     H55194   7.860   2.506   1.703 -2.1665 -3.2637  2.8616
  409MOL0     H55195   7.142   2.972   1.624 -1.6874  2.1052  1.0443
  409MOL0     H55196   6.917   3.037   1.669 -2.1613 -0.5914  0.5256
  409MOL0     H55197   6.379   2.973   1.530  2.4754 -0.4927 -0.6667
  409MOL0     H55198   6.173   3.043   1.654 -0.1303 -0.3374 -1.0430
  409MOL0     H55199   4.335   2.911   1.897 -0.5454 -0.0714 -0.1758
  409MOL0     H55200   4.092   2.905   1.919 -2.5428 -2.5473 -0.7334
  409MOL0     H55201   3.753   2.896   1.897  0.8921 -0.3101 -0.1719
  409MOL0     H55202   3.534   2.939   1.986 -0.5182  0.1840 -0.0052
  409MOL0     H55203   3.356   3.068   1.979 -0.9276  0.3797 -0.9227
  409MOL0     H55204   3.269   2.919   2.037  1.8384 -0.2193  1.5511
  409MOL0     H55205   3.151   3.157   1.878  1.0844  0.7006  0.2091
  409MOL0     H55206   3.121   3.134   2.039 -0.7698 -0.8565 -0.4923
  409MOL0     H55207   3.001   2.913   1.981  0.7836  1.2633 -0.1925
  409MOL0     H55208   3.042   2.941   1.808  2.2438  2.3778 -1.1863
  409MOL0     H55209   2.849   3.092   1.990  0.5952  1.3480 -0.7045
  409MOL0     H55210   2.900   3.152   1.832 -0.3595 -0.8713 -1.9236
  409MOL0     H55211   2.636   2.869   1.720  2.5106 -2.2684  0.5670
  409MOL0     H55212   3.364   2.897   1.598 -0.2632 -3.4650 -0.4017
  409MOL0     H55213   3.661   2.766   1.422  1.2240  1.4486  0.2009
  409MOL0     H55214   3.486   2.801   1.432  0.2306 -1.0176 -1.8746
  409MOL0     H55215   3.613   2.923   1.397 -0.8099 -1.2830 -2.5740
  410MOL0     O55216   9.182   5.541   4.141  0.3620  0.6916 -0.2729
  410MOL0     C55217   9.160   5.662   4.122  2.0345 -0.0924  0.5375
  410MOL0     O55218   9.251   5.754   4.090 -0.8105 -0.1935  0.0846
  410MOL0     C55219   9.373   5.711   4.050  0.3158  0.5806  0.4664
  410MOL0     C55220   9.483   5.726   4.124 -0.7875 -0.6363 -0.0393
  410MOL0     C55221   9.609   5.694   4.073 -0.3545 -1.3668  0.2345
  410MOL0     C55222   9.627   5.644   3.946  0.1001  1.3342  0.7182
  410MOL0     O55223   9.762   5.628   3.906  0.5506  0.1122  0.2700
  410MOL0     C55224   9.787   5.532   3.800  0.1537 -0.8241 -0.6414
  410MOL0     C55225   9.937   5.546   3.784  0.2536  0.4821 -0.6762
  410MOL0     C55226   9.999   5.459   3.906  0.9399  0.2380 -0.3178
  410MOL0     C55227  10.151   5.450   3.888  0.1702  0.3654  0.9896
  410MOL0     C55228  10.220   5.340   3.978  0.6655 -0.0967  0.2984
  410MOL0     C55229  10.188   5.356   4.131 -0.2378 -0.1614 -0.4473
  410MOL0     C55230  10.250   5.243   4.211 -0.6246  0.6444  0.3593
  410MOL0     C55231  10.323   5.287   4.339  0.2373 -0.2633 -0.4469
  410MOL0     N55232  10.415   5.187   4.392 -0.5445  0.7004 -0.5270
  410MOL0     C55233  10.550   5.169   4.356 -0.2957  0.6639  0.5243
  410MOL0     C55234  10.587   5.052   4.411 -0.4885  0.6372  0.3226
  410MOL0     C55235  10.711   4.979   4.369 -0.2620  0.3439 -0.1353
  410MOL0     C55236  10.826   5.075   4.379 -0.6421  0.2010 -0.0648
  410MOL0     C55237  10.960   4.999   4.360  0.7574 -0.4697  0.1462
  410MOL0     C55238  11.080   5.077   4.389  0.9714 -0.7637  0.1326
  410MOL0     O55239  11.059   5.211   4.348  0.1408  0.0842 -0.5628
  410MOL0     C55240  11.158   5.299   4.366  0.5429  0.0136  0.0311
  410MOL0     C55241  11.290   5.278   4.414  0.7347 -0.5575 -0.4564
  410MOL0     C55242  11.383   5.385   4.432 -0.0434  0.6120  0.5117
  410MOL0     C55243  11.347   5.513   4.374  0.5599  0.1007 -0.1549
  410MOL0     C55244  11.445   5.615   4.374 -0.1576 -0.4066 -0.3366
  410MOL0     O55245  11.572   5.590   4.428 -0.0608 -0.3937  0.3988
  410MOL0     C55246  11.664   5.698   4.422  0.3740 -1.1514 -0.3223
  410MOL0     C55247  11.771   5.689   4.335 -0.0351 -0.2795  0.4490
  410MOL0     C55248  11.870   5.788   4.337  0.0263  0.9256  0.2209
  410MOL0     C55249  11.859   5.900   4.416  0.5482  0.0950  0.3960
  410MOL0     O55250  11.959   6.000   4.410 -0.1430 -0.1929  0.5103
  410MOL0     C55251  11.979   6.088   4.517 -0.1143  0.6077  0.1144
  410MOL0     C55252  12.094   6.187   4.485  0.3506 -0.5352 -0.3166
  410MOL0     C55253  12.213   6.095   4.445  0.9741  0.1184  0.9548
  410MOL0     C55254  12.332   6.177   4.410 -0.6307  0.6262  0.4723
  410MOL0     C55255  12.461   6.096   4.432  0.0599 -0.0543 -0.0359
  410MOL0     C55256  12.498   6.072   4.583 -0.6643 -0.1885  0.7657
  410MOL0     C55257  12.640   6.009   4.574 -0.7055 -0.0110 -0.7886
  410MOL0     C55258  12.675   5.992   4.725 -0.5826 -0.0503  0.3577
  410MOL0    Cl55259  12.807   5.873   4.737 -0.3329 -0.0790 -0.1655
  410MOL0     C55260  11.756   5.905   4.507 -0.7036  0.5375  0.0016
  410MOL0     C55261  11.658   5.805   4.515  0.0847  0.8168  0.3107
  410MOL0     O55262  11.404   5.724   4.325  0.4986  0.0784  0.0683
  410MOL0     C55263  11.222   5.522   4.308  0.2037  0.6411 -0.6431
  410MOL0     C55264  11.128   5.421   4.316  0.7146 -0.4262  0.0970
  410MOL0     N55265  10.479   5.007   4.485  0.5444  0.0113 -0.0942
  410MOL0     N55266  10.379   5.088   4.477  0.7620 -0.4533 -0.9895
  410MOL0     C55267   9.511   5.625   3.863  0.0284 -0.4296 -0.6581
  410MOL0     C55268   9.387   5.662   3.920  0.7399 -1.0991  0.0790
  410MOL0     C55269   9.021   5.707   4.162 -0.0905 -0.2559 -0.4275
  410MOL0     C55270   9.008   5.849   4.176 -0.0250 -0.5926 -0.5985
  410MOL0     C55271   8.890   5.915   4.231 -0.2662  0.8768 -0.9171
  410MOL0     C55272   8.786   5.841   4.278  0.0037  0.4076 -0.2096
  410MOL0     O55273   8.668   5.894   4.333  0.0253  0.5885 -0.9936
  410MOL0     C55274   8.629   6.024   4.285 -0.2201  0.2244  0.2677
  410MOL0     C55275   8.480   6.035   4.331 -1.0028 -0.7224 -0.2457
  410MOL0     C55276   8.418   6.159   4.260  0.2245  0.6569 -0.0388
  410MOL0     C55277   8.262   6.182   4.293 -0.1340  0.1995  0.3430
  410MOL0     C55278   8.228   6.321   4.246  0.4950 -0.1991 -0.4898
  410MOL0     C55279   8.200   6.433   4.204  0.5671 -0.7981 -0.0653
  410MOL0     C55280   8.796   5.704   4.261  0.1706  0.1940  1.2635
  410MOL0     C55281   8.912   5.633   4.198  0.3555  0.2317 -0.6430
  410MOL0     C55282   8.903   5.483   4.173 -0.3097 -0.9391 -0.6158
  410MOL0     H55283   9.469   5.772   4.222  0.6486 -1.9264  0.8070
  410MOL0     H55284   9.702   5.715   4.124  0.0680  1.5588 -1.4946
  410MOL0     H55285   9.756   5.432   3.832  0.3968 -1.5857 -2.6397
  410MOL0     H55286   9.735   5.552   3.706  1.4586 -0.9198 -1.4029
  410MOL0     H55287   9.969   5.651   3.773 -0.9698  0.9093 -0.3108
  410MOL0     H55288   9.965   5.494   3.692 -0.0983 -3.8621  1.4397
  410MOL0     H55289   9.957   5.359   3.912  0.8862  0.3485  2.7060
  410MOL0     H55290   9.982   5.505   4.004  3.0848 -3.9837  2.3116
  410MOL0     H55291  10.177   5.410   3.790  0.0277 -1.0202  1.4842
  410MOL0     H55292  10.203   5.545   3.898  0.1381  0.7394 -1.7844
  410MOL0     H55293  10.183   5.242   3.946 -2.9784  0.5626  1.9955
  410MOL0     H55294  10.328   5.348   3.968  0.6031  2.4191  1.1086
  410MOL0     H55295  10.231   5.447   4.174  0.2800 -1.6332  2.3970
  410MOL0     H55296  10.080   5.366   4.149  0.2380  1.0120  2.2417
  410MOL0     H55297  10.322   5.186   4.152 -0.1955 -0.5798  2.0076
  410MOL0     H55298  10.171   5.175   4.242  0.1940  0.2449  1.6528
  410MOL0     H55299  10.390   5.372   4.324  2.1640 -2.0372 -2.5547
  410MOL0     H55300  10.242   5.314   4.407 -0.7933  1.4935 -2.2614
  410MOL0     H55301  10.610   5.228   4.287 -1.3157  0.0357 -0.9441
  410MOL0     H55302  10.734   4.891   4.430  0.3731  0.1520 -0.6410
  410MOL0     H55303  10.697   4.945   4.266  0.6482 -0.5230  0.0154
  410MOL0     H55304  10.816   5.143   4.294 -3.9982 -0.9261 -0.7355
  410MOL0     H55305  10.830   5.122   4.478 -1.1733 -1.4402  0.7772
  410MOL0     H55306  10.959   4.966   4.255 -2.5409  0.1092 -0.1271
  410MOL0     H55307  10.954   4.916   4.431  0.3526 -0.5825 -0.0187
  410MOL0     H55308  11.165   5.032   4.336  0.0402  0.3385 -2.4596
  410MOL0     H55309  11.107   5.073   4.495  3.6954 -3.6280 -0.5035
  410MOL0     H55310  11.316   5.182   4.458  1.1239  0.0835  0.7445
  410MOL0     H55311  11.482   5.379   4.478  0.1182  1.3597  0.2631
  410MOL0     H55312  11.778   5.607   4.265 -1.5824 -1.0930  1.1911
  410MOL0     H55313  11.963   5.771   4.283  0.3829 -0.5397  1.2316
  410MOL0     H55314  11.889   6.140   4.549 -3.0154 -3.2211 -1.0821
  410MOL0     H55315  12.005   6.031   4.607  2.0897  0.7346 -0.3909
  410MOL0     H55316  12.062   6.259   4.410  0.4106 -0.3287 -0.1461
  410MOL0     H55317  12.114   6.248   4.573  0.0418 -1.7944  0.6620
  410MOL0     H55318  12.243   6.035   4.531  2.5292 -0.0062  0.3559
  410MOL0     H55319  12.190   6.022   4.366  1.0594  0.8768  0.2052
  410MOL0     H55320  12.330   6.266   4.474  2.2362 -1.1407  3.3136
  410MOL0     H55321  12.324   6.200   4.303 -0.3538 -1.8603 -0.1467
  410MOL0     H55322  12.531   6.164   4.383 -0.7073  0.6210 -0.2235
  410MOL0     H55323  12.465   6.007   4.369  0.7137 -1.2847  1.6819
  410MOL0     H55324  12.497   6.165   4.641 -1.1584  0.0485  0.3806
  410MOL0     H55325  12.433   6.000   4.633  1.7697 -2.4854  0.8821
  410MOL0     H55326  12.705   6.082   4.525  1.4094 -1.5161 -0.3340
  410MOL0     H55327  12.661   5.921   4.513  2.5894 -1.2735  1.8280
  410MOL0     H55328  12.704   6.083   4.777 -4.1712  0.0202  2.6025
  410MOL0     H55329  12.594   5.949   4.785  0.5107  0.9060  2.6385
  410MOL0     H55330  11.748   5.985   4.580 -1.1196  0.1485  0.3915
  410MOL0     H55331  11.579   5.813   4.589  0.5056  2.3007  0.6367
  410MOL0     H55332  11.202   5.611   4.248  2.5408  1.7914  0.1752
  410MOL0     H55333  11.038   5.433   4.255  0.7944  0.3213  0.1214
  410MOL0     H55334   9.520   5.583   3.764 -1.4145 -1.7372 -0.2750
  410MOL0     H55335   9.304   5.648   3.851  0.6410 -0.5160  0.0739
  410MOL0     H55336   9.087   5.921   4.159 -1.5235  1.4230  0.4594
  410MOL0     H55337   8.892   6.023   4.238  0.9184  0.7856  1.1373
  410MOL0     H55338   8.623   6.030   4.176 -1.8854  0.0087  0.3203
  410MOL0     H55339   8.698   6.103   4.316  0.7326 -0.7526  0.7437
  410MOL0     H55340   8.471   6.048   4.440  0.5576  3.4090 -0.4116
  410MOL0     H55341   8.423   5.942   4.321  1.6338 -2.8280  2.4653
  410MOL0     H55342   8.425   6.150   4.151  2.8968  1.6618 -0.0274
  410MOL0     H55343   8.470   6.250   4.291  1.5398  0.0063 -0.2602
  410MOL0     H55344   8.203   6.114   4.231  0.9398  0.7614 -1.3637
  410MOL0     H55345   8.235   6.159   4.396 -2.9188 -2.1581 -0.7924
  410MOL0     H55346   8.172   6.531   4.173  0.7432 -1.6918 -3.3960
  410MOL0     H55347   8.711   5.644   4.292  0.6598 -0.5961  1.1125
  410MOL0     H55348   8.984   5.427   4.220  1.9734 -0.0527 -3.2368
  410MOL0     H55349   8.804   5.449   4.206 -1.7992  2.8020 -0.7532
  410MOL0     H55350   8.932   5.467   4.069  0.3510  0.8499 -0.7441
  411MOL0     O55351   3.473   3.331   5.658 -0.5133 -0.2154  1.1081
  411MOL0     C55352   3.436   3.449   5.651 -0.5102  0.0007  0.7419
  411MOL0     O55353   3.524   3.553   5.661  0.7802 -0.0229 -0.1500
  411MOL0     C55354   3.657   3.536   5.675 -0.3596 -0.0813 -0.1342
  411MOL0     C55355   3.736   3.429   5.639 -0.2821  0.2537  0.0089
  411MOL0     C55356   3.873   3.418   5.666 -0.1583 -0.3684 -1.4540
  411MOL0     C55357   3.940   3.530   5.715  1.2064 -0.5318 -0.3959
  411MOL0     O55358   4.073   3.521   5.738 -0.7802 -0.4382 -0.1016
  411MOL0     C55359   4.155   3.634   5.699  0.2910 -0.3868 -0.0083
  411MOL0     C55360   4.303   3.596   5.717  0.3116  0.2979  0.6206
  411MOL0     C55361   4.399   3.717   5.708  0.1774 -0.8460  0.4492
  411MOL0     C55362   4.545   3.695   5.731 -0.5276 -0.3190 -0.3749
  411MOL0     C55363   4.623   3.827   5.732  0.5380 -0.4511  1.2143
  411MOL0     C55364   4.763   3.788   5.761 -0.2149  0.0325 -0.6291
  411MOL0     C55365   4.878   3.898   5.755 -0.1619  0.2669 -0.2203
  411MOL0     C55366   5.011   3.843   5.781  0.7640  0.8700  1.0052
  411MOL0     N55367   5.103   3.943   5.746 -0.2053  0.3318  0.9825
  411MOL0     C55368   5.133   3.984   5.611  0.4312 -0.4203  0.4823
  411MOL0     C55369   5.234   4.076   5.623  0.4066 -0.1193  0.2662
  411MOL0     C55370   5.296   4.151   5.505  0.0368 -0.2270  0.1936
  411MOL0     C55371   5.449   4.144   5.509 -0.1269 -0.0171  0.0033
  411MOL0     C55372   5.526   4.226   5.398 -0.0745  0.4459 -0.6539
  411MOL0     C55373   5.668   4.173   5.394  0.8777 -0.3856  0.2024
  411MOL0     O55374   5.714   4.219   5.268 -0.5625  0.3700  0.3395
  411MOL0     C55375   5.855   4.204   5.241  1.2577 -0.2153 -1.0177
  411MOL0     C55376   5.945   4.143   5.332 -0.5440  0.8571  0.1559
  411MOL0     C55377   6.079   4.124   5.302  0.0985  0.6908  0.1473
  411MOL0     C55378   6.126   4.155   5.176 -0.0794  0.0804  0.3006
  411MOL0     C55379   6.264   4.125   5.143 -0.3346  0.2113 -0.5039
  411MOL0     O55380   6.331   4.035   5.227  0.3797 -0.8767  0.2656
  411MOL0     C55381   6.463   4.026   5.185 -0.0279  0.3047 -1.2738
  411MOL0     C55382   6.503   3.935   5.089 -0.0890  0.0925  0.2958
  411MOL0     C55383   6.635   3.915   5.052 -0.7114 -0.4151  0.2925
  411MOL0     C55384   6.736   3.993   5.112  0.0819  0.0769 -0.5962
  411MOL0     O55385   6.875   3.969   5.089  0.0141  0.5208  0.3079
  411MOL0     C55386   6.974   4.074   5.094 -0.1318  0.6423 -0.5756
  411MOL0     C55387   7.106   4.011   5.043  0.1529  0.2757 -0.4291
  411MOL0     C55388   7.211   4.121   5.023 -0.6239 -0.1588  0.6991
  411MOL0     C55389   7.345   4.065   4.996 -0.0125  0.7161 -0.5148
  411MOL0     C55390   7.448   4.175   4.979 -0.8458 -0.0012  0.1826
  411MOL0     C55391   7.581   4.109   4.947  0.3657  0.6775  0.9559
  411MOL0     C55392   7.705   4.193   4.942  0.7132  0.0871  0.4404
  411MOL0     C55393   7.819   4.114   4.904 -0.2261  0.5876  0.5314
  411MOL0    Cl55394   7.810   4.040   4.745 -0.1274 -0.1630  0.2700
  411MOL0     C55395   6.696   4.098   5.201  0.0164  0.2673 -0.4862
  411MOL0     C55396   6.562   4.109   5.240 -0.8381 -0.0905  0.1292
  411MOL0     O55397   6.312   4.182   5.043 -0.0351 -0.4054 -0.3431
  411MOL0     C55398   6.038   4.224   5.087 -0.5652  0.9385  0.1600
  411MOL0     C55399   5.907   4.244   5.117  0.0490  0.2948 -0.6826
  411MOL0     N55400   5.260   4.093   5.755 -0.6903 -0.3892  0.0938
  411MOL0     N55401   5.192   4.013   5.824 -0.1896 -0.1955  0.1650
  411MOL0     C55402   3.862   3.650   5.738 -0.9893 -0.4977  0.1240
  411MOL0     C55403   3.723   3.650   5.723 -0.8979 -0.0402  0.0646
  411MOL0     C55404   3.292   3.476   5.651  0.0329  0.0004  0.0273
  411MOL0     C55405   3.209   3.386   5.583  0.2288 -0.7551  0.0764
  411MOL0     C55406   3.075   3.419   5.560 -0.1363  0.1009 -0.2590
  411MOL0     C55407   3.026   3.536   5.607  0.1997  0.4109 -0.0301
  411MOL0     O55408   2.898   3.560   5.579  0.0562 -0.6024 -0.4937
  411MOL0     C55409   2.821   3.620   5.687  0.4170 -0.1492 -0.7041
  411MOL0     C55410   2.676   3.592   5.680 -0.5224  0.3627  0.4075
  411MOL0     C55411   2.634   3.452   5.733 -0.6607  0.1570  0.5413
  411MOL0     C55412   2.597   3.448   5.883  0.1353 -0.0995 -0.3092
  411MOL0     C55413   2.719   3.437   5.966  0.2991 -0.1120  0.8526
  411MOL0     C55414   2.818   3.431   6.030 -0.2096  0.5526  1.3573
  411MOL0     C55415   3.101   3.630   5.674 -0.6473 -0.6016  0.6328
  411MOL0     C55416   3.239   3.605   5.698  0.4236 -0.0432  0.0213
  411MOL0     C55417   3.319   3.698   5.778  0.6696 -0.6105  0.6513
  411MOL0     H55418   3.700   3.340   5.588  2.5919 -1.5687  0.9375
  411MOL0     H55419   3.932   3.328   5.652 -0.1337 -0.6710  0.3038
  411MOL0     H55420   4.142   3.652   5.592 -1.7797 -4.9010 -0.7774
  411MOL0     H55421   4.137   3.725   5.757  2.3637  1.2997 -1.8568
  411MOL0     H55422   4.327   3.514   5.647  1.3023  0.8214  0.3287
  411MOL0     H55423   4.310   3.549   5.815 -0.7969 -3.8618 -1.0681
  411MOL0     H55424   4.368   3.806   5.764  0.9107  1.3696 -2.3646
  411MOL0     H55425   4.395   3.759   5.607 -3.4525  3.5976  2.0618
  411MOL0     H55426   4.560   3.649   5.830  0.2303 -1.2705 -0.9133
  411MOL0     H55427   4.576   3.630   5.648 -2.0722 -1.9816  0.2661
  411MOL0     H55428   4.613   3.874   5.633 -0.5859  0.2144  1.6128
  411MOL0     H55429   4.588   3.900   5.805  1.6057 -1.8328  3.1909
  411MOL0     H55430   4.767   3.747   5.863 -0.2596 -0.3929 -0.7987
  411MOL0     H55431   4.789   3.704   5.697 -1.8155  0.6967 -2.2352
  411MOL0     H55432   4.849   3.978   5.824  0.0755 -0.3610  0.6310
  411MOL0     H55433   4.872   3.932   5.651  0.1884 -1.1762 -0.7290
  411MOL0     H55434   5.033   3.824   5.886  1.1037  1.3868  1.0296
  411MOL0     H55435   5.025   3.753   5.719 -0.9116 -0.5075  2.5037
  411MOL0     H55436   5.075   3.942   5.529  0.4285  0.3543  0.0851
  411MOL0     H55437   5.253   4.092   5.424 -1.7362  1.2716 -0.0329
  411MOL0     H55438   5.252   4.251   5.517  2.6610  0.8650  1.6474
  411MOL0     H55439   5.491   4.180   5.604  0.8089  2.3993 -1.2197
  411MOL0     H55440   5.471   4.038   5.499 -2.8032 -0.6645  0.2662
  411MOL0     H55441   5.521   4.330   5.430 -2.0399  0.1158  0.2759
  411MOL0     H55442   5.482   4.211   5.299  0.0266  2.7570 -1.0835
  411MOL0     H55443   5.676   4.065   5.410  3.1766 -0.5828 -1.7092
  411MOL0     H55444   5.720   4.220   5.478 -1.6217 -0.4368  1.8898
  411MOL0     H55445   5.916   4.097   5.426 -0.0987  1.5608  0.6465
  411MOL0     H55446   6.140   4.077   5.378 -2.0852 -3.4050 -0.3650
  411MOL0     H55447   6.420   3.879   5.045 -1.2632  3.0671 -1.5787
  411MOL0     H55448   6.670   3.849   4.973  1.9230  3.0250 -1.6549
  411MOL0     H55449   6.940   4.156   5.031  0.2459  1.0030 -0.3128
  411MOL0     H55450   6.986   4.111   5.197  0.0719  0.5396 -0.5628
  411MOL0     H55451   7.150   3.934   5.107  1.4184 -0.1982 -1.7826
  411MOL0     H55452   7.091   3.964   4.945 -0.8972  1.3865 -0.8285
  411MOL0     H55453   7.182   4.204   4.958  0.6431  0.9197  1.4581
  411MOL0     H55454   7.227   4.172   5.119  0.8218  0.4719  0.1455
  411MOL0     H55455   7.347   4.013   4.900  1.1026  0.6050 -0.4340
  411MOL0     H55456   7.378   3.994   5.072  1.8038  1.0143 -0.9796
  411MOL0     H55457   7.458   4.236   5.069 -1.0303 -3.1945  2.5180
  411MOL0     H55458   7.420   4.239   4.894 -0.8718 -0.0216  0.1761
  411MOL0     H55459   7.592   4.032   5.024  0.0645 -0.7476 -0.3760
  411MOL0     H55460   7.564   4.048   4.858  1.0955 -1.7595  2.3967
  411MOL0     H55461   7.727   4.225   5.045  2.3682 -1.4104  0.5948
  411MOL0     H55462   7.690   4.272   4.868  0.2954  0.3275  0.7775
  411MOL0     H55463   7.915   4.164   4.924 -0.7125  1.3214  1.0930
  411MOL0     H55464   7.829   4.027   4.970  2.6797 -1.9317 -2.8174
  411MOL0     H55465   6.767   4.167   5.246 -0.5699 -0.0068  0.9143
  411MOL0     H55466   6.533   4.196   5.298  0.1559 -0.2340  0.8670
  411MOL0     H55467   6.067   4.231   4.983 -1.1052 -3.2597 -0.4564
  411MOL0     H55468   5.837   4.279   5.043 -3.6849  0.3589  2.5211
  411MOL0     H55469   3.902   3.747   5.765 -0.8280 -0.9856  1.7335
  411MOL0     H55470   3.666   3.739   5.747 -2.1795 -1.3430  2.1502
  411MOL0     H55471   3.243   3.291   5.543  0.8285 -0.3413 -0.4246
  411MOL0     H55472   3.011   3.358   5.498 -0.6282  0.1076  0.2373
  411MOL0     H55473   2.828   3.728   5.675 -1.3388 -0.1288 -1.8546
  411MOL0     H55474   2.858   3.587   5.785 -1.5981  0.5760  0.3605
  411MOL0     H55475   2.637   3.614   5.580  1.5825 -1.0956 -0.8304
  411MOL0     H55476   2.628   3.675   5.733  2.7765  1.3112  2.1813
  411MOL0     H55477   2.709   3.374   5.721 -1.9980 -0.8831 -1.9251
  411MOL0     H55478   2.554   3.415   5.668  0.7267  0.5075 -1.4691
  411MOL0     H55479   2.535   3.534   5.913  0.4058  0.2241 -0.6768
  411MOL0     H55480   2.536   3.358   5.893  1.2465 -0.7149  1.4980
  411MOL0     H55481   2.913   3.417   6.076  0.8243 -0.4917 -0.9304
  411MOL0     H55482   3.067   3.730   5.699 -1.0764 -0.5114 -0.2520
  411MOL0     H55483   3.262   3.787   5.806 -0.8902 -0.6976 -1.9163
  411MOL0     H55484   3.373   3.649   5.860  3.6011 -0.4235 -1.0056
  411MOL0     H55485   3.397   3.738   5.711  2.4853 -2.4616  1.5447
  412MOL0     O55486   0.199   6.089   4.687  0.4414 -0.5237  0.0347
  412MOL0     C55487   0.133   6.191   4.726  0.3608  0.4110 -0.2409
  412MOL0     O55488   0.184   6.312   4.736 -0.7904  0.1236  0.0038
  412MOL0     C55489   0.317   6.331   4.743 -0.3951  0.0770  0.3912
  412MOL0     C55490   0.364   6.444   4.684  0.0739  0.0429 -0.1728
  412MOL0     C55491   0.493   6.477   4.696 -0.8416 -0.4833  0.0216
  412MOL0     C55492   0.585   6.415   4.787 -0.3072 -0.4439  0.8559
  412MOL0     O55493   0.716   6.455   4.783  0.7164  0.6829 -0.6185
  412MOL0     C55494   0.756   6.493   4.910 -0.1585 -0.0221 -0.2811
  412MOL0     C55495   0.890   6.560   4.896  0.2724  0.2710  0.7107
  412MOL0     C55496   0.996   6.458   4.864  0.1756  0.0223  0.0233
  412MOL0     C55497   1.136   6.527   4.865 -0.7504 -0.0049  0.3131
  412MOL0     C55498   1.248   6.428   4.817  0.7872  0.0067  0.1921
  412MOL0     C55499   1.387   6.503   4.799  0.4651  0.2007 -0.1974
  412MOL0     C55500   1.506   6.407   4.785  0.3976  0.0045  0.0878
  412MOL0     C55501   1.639   6.482   4.768  0.0902  0.2080  0.9391
  412MOL0     N55502   1.744   6.395   4.726  0.2608 -0.1396  0.9396
  412MOL0     C55503   1.781   6.286   4.809  0.1157 -0.5172  0.6566
  412MOL0     C55504   1.852   6.209   4.726  0.5047 -0.1683 -0.9173
  412MOL0     C55505   1.924   6.094   4.783  0.2462 -0.4604  0.0351
  412MOL0     C55506   2.069   6.097   4.732  0.3040  0.1441 -0.0362
  412MOL0     C55507   2.143   6.208   4.801  0.1469  0.3241  0.0518
  412MOL0     C55508   2.293   6.218   4.776 -0.3461  0.1383 -0.2929
  412MOL0     O55509   2.351   6.101   4.833 -0.4399  0.3542 -0.4799
  412MOL0     C55510   2.490   6.068   4.815  0.1754 -0.7861 -0.0252
  412MOL0     C55511   2.542   5.964   4.894  1.1422  0.4999  0.3860
  412MOL0     C55512   2.670   5.920   4.868 -0.8550  0.2166  0.0880
  412MOL0     C55513   2.755   5.961   4.757  0.3482 -0.6043  0.3180
  412MOL0     C55514   2.892   5.920   4.741  1.1285 -0.8786 -0.5312
  412MOL0     O55515   2.947   5.856   4.852 -0.5800 -0.4418  0.0084
  412MOL0     C55516   3.077   5.814   4.858  0.2085 -0.0962  0.1513
  412MOL0     C55517   3.138   5.821   4.987 -0.0894  0.3893  0.1049
  412MOL0     C55518   3.271   5.788   5.005  0.4935  0.5888  0.0477
  412MOL0     C55519   3.349   5.740   4.896  0.3667  0.6679 -0.8942
  412MOL0     O55520   3.477   5.695   4.925 -0.2718  0.4294 -0.1474
  412MOL0     C55521   3.567   5.644   4.826  0.0322  0.3315 -0.1644
  412MOL0     C55522   3.689   5.578   4.897 -0.5169  0.2136  0.0835
  412MOL0     C55523   3.786   5.683   4.960 -1.0443 -0.3462 -0.1749
  412MOL0     C55524   3.925   5.622   5.001 -0.5150  0.2107 -0.2504
  412MOL0     C55525   4.035   5.726   5.013  0.0058 -0.7011  0.3919
  412MOL0     C55526   4.164   5.671   5.062 -0.4793 -0.2667  0.0782
  412MOL0     C55527   4.283   5.749   5.003  0.6613 -0.2463  0.1750
  412MOL0     C55528   4.256   5.893   5.027 -0.5527  0.1228 -0.4283
  412MOL0    Cl55529   4.395   6.000   4.973 -0.0398  0.0771 -0.0901
  412MOL0     C55530   3.285   5.731   4.770  0.2250 -0.4421 -0.7631
  412MOL0     C55531   3.148   5.758   4.752  0.2663  0.1732  0.3377
  412MOL0     O55532   2.948   5.941   4.633  0.1697  0.4662  0.2823
  412MOL0     C55533   2.695   6.061   4.677  0.6362  0.7174  0.1756
  412MOL0     C55534   2.565   6.112   4.702  0.4191  0.7323  0.1373
  412MOL0     N55535   1.842   6.264   4.599  0.4051  0.1592 -0.2662
  412MOL0     N55536   1.770   6.370   4.598 -0.3584 -0.5783 -0.2285
  412MOL0     C55537   0.540   6.293   4.840 -0.3043  0.5941  0.3791
  412MOL0     C55538   0.404   6.250   4.816 -0.2747 -0.4467 -0.0964
  412MOL0     C55539  -0.017   6.175   4.736 -0.6452 -0.2632  0.6857
  412MOL0     C55540  -0.090   6.294   4.729  0.2814 -0.0486 -0.1919
  412MOL0     C55541  -0.229   6.293   4.740  0.0939  0.2214 -0.1032
  412MOL0     C55542  -0.299   6.167   4.756  0.3067 -0.3425  0.3897
  412MOL0     O55543  -0.436   6.162   4.763  0.3740  0.0472 -0.4930
  412MOL0     C55544  -0.498   6.096   4.649  0.0407  0.5429  0.7208
  412MOL0     C55545  -0.521   6.206   4.543 -0.7241 -0.4731 -0.1985
  412MOL0     C55546  -0.578   6.152   4.411 -0.2965 -0.4636  0.2845
  412MOL0     C55547  -0.587   6.273   4.319 -0.2339  0.2913  0.2539
  412MOL0     C55548  -0.700   6.273   4.226  0.0380 -0.0083 -0.4610
  412MOL0     C55549  -0.802   6.275   4.157 -0.1151 -0.9026  0.0066
  412MOL0     C55550  -0.220   6.054   4.759  0.3882  0.1427 -0.2517
  412MOL0     C55551  -0.083   6.053   4.752  0.3716 -0.1182 -0.8333
  412MOL0     C55552  -0.026   5.913   4.777  0.9521 -0.2458  0.2000
  412MOL0     H55553   0.297   6.509   4.630  2.3642  0.9375 -2.1083
  412MOL0     H55554   0.532   6.571   4.657 -0.2813  0.3211  2.3488
  412MOL0     H55555   0.684   6.556   4.963 -0.0396  0.3804 -0.5996
  412MOL0     H55556   0.777   6.407   4.974 -1.0687  0.6070  0.9004
  412MOL0     H55557   0.911   6.598   4.996 -2.8444  0.0128  1.5657
  412MOL0     H55558   0.891   6.641   4.822  2.1940 -0.4988 -0.1791
  412MOL0     H55559   0.977   6.415   4.766  0.4833  0.1388 -0.0912
  412MOL0     H55560   0.992   6.379   4.939 -2.9228 -2.0727 -2.1394
  412MOL0     H55561   1.143   6.615   4.800  0.5070 -0.3328 -0.0374
  412MOL0     H55562   1.160   6.557   4.968 -1.7889 -0.7787  0.7918
  412MOL0     H55563   1.255   6.349   4.893  1.5261 -1.2336 -1.1076
  412MOL0     H55564   1.219   6.376   4.726  0.6421  1.0742 -0.3891
  412MOL0     H55565   1.370   6.563   4.710 -1.0832  0.6648  0.3816
  412MOL0     H55566   1.402   6.567   4.887 -1.8169 -1.0300  1.1856
  412MOL0     H55567   1.481   6.348   4.696  0.5467 -0.1002  0.1132
  412MOL0     H55568   1.514   6.347   4.876  0.5099  0.0511  0.1097
  412MOL0     H55569   1.616   6.556   4.691  0.2663  1.3159  1.9198
  412MOL0     H55570   1.670   6.534   4.859 -0.2920 -0.1312  1.2638
  412MOL0     H55571   1.742   6.276   4.910  0.3968  1.1151  0.9515
  412MOL0     H55572   1.920   6.104   4.892  0.6694 -0.2357  0.0307
  412MOL0     H55573   1.879   6.003   4.742  3.9594 -2.3869 -0.1784
  412MOL0     H55574   2.107   5.995   4.741 -0.1762 -0.3316 -2.7013
  412MOL0     H55575   2.069   6.124   4.626 -0.8130  1.6714  0.3192
  412MOL0     H55576   2.130   6.191   4.909  0.3800  1.2707  0.2423
  412MOL0     H55577   2.086   6.299   4.778  0.6646  0.2753 -1.5031
  412MOL0     H55578   2.345   6.306   4.816 -0.1552  0.5130 -1.3429
  412MOL0     H55579   2.305   6.211   4.668  0.3023  0.0206 -0.2208
  412MOL0     H55580   2.492   5.916   4.978  2.5698 -2.5736 -0.3917
  412MOL0     H55581   2.709   5.840   4.930 -1.9116 -0.3751  0.0189
  412MOL0     H55582   3.069   5.858   5.061 -0.1605 -0.4220  0.4527
  412MOL0     H55583   3.311   5.780   5.106 -2.0901  1.0802  1.1873
  412MOL0     H55584   3.513   5.573   4.764 -0.8180 -0.3878  1.3568
  412MOL0     H55585   3.606   5.724   4.763  0.8723 -0.1272 -0.2408
  412MOL0     H55586   3.655   5.509   4.975  0.2937  1.0290  1.1919
  412MOL0     H55587   3.740   5.512   4.827  2.5986  1.9235  0.5226
  412MOL0     H55588   3.812   5.764   4.891  1.2233 -1.3740 -0.6121
  412MOL0     H55589   3.730   5.728   5.043 -1.4032 -1.2396  0.0796
  412MOL0     H55590   3.940   5.555   4.916 -1.8027  0.4055 -0.6499
  412MOL0     H55591   3.918   5.565   5.094 -0.8398  1.8537  0.7814
  412MOL0     H55592   4.003   5.808   5.078  1.7271  1.1941 -1.0501
  412MOL0     H55593   4.044   5.767   4.912 -0.8813 -0.6919  0.3018
  412MOL0     H55594   4.166   5.682   5.171  1.8805  1.0238 -0.0330
  412MOL0     H55595   4.175   5.568   5.027 -1.2026 -0.0382 -0.8383
  412MOL0     H55596   4.285   5.734   4.894  1.1666  1.4548 -0.0857
  412MOL0     H55597   4.383   5.729   5.043  0.9385 -0.0443 -0.3993
  412MOL0     H55598   4.159   5.924   4.987 -1.3485 -1.7959 -0.0691
  412MOL0     H55599   4.257   5.896   5.136  0.6872 -2.7800 -0.2882
  412MOL0     H55600   3.344   5.702   4.684  1.3727  0.8401 -0.4374
  412MOL0     H55601   3.095   5.740   4.659 -2.9382  0.5328  1.9511
  412MOL0     H55602   2.739   6.104   4.588  0.4363 -0.4584 -0.5143
  412MOL0     H55603   2.529   6.189   4.635  1.9315  2.2793  1.0184
  412MOL0     H55604   0.616   6.234   4.890 -0.7426  0.0887  0.4656
  412MOL0     H55605   0.369   6.151   4.843  0.6087 -0.6806  0.1872
  412MOL0     H55606  -0.050   6.391   4.702 -2.1296  0.5904 -1.7478
  412MOL0     H55607  -0.280   6.388   4.740 -0.1212  0.1090 -0.7498
  412MOL0     H55608  -0.595   6.058   4.681  0.3563 -0.3074  0.6771
  412MOL0     H55609  -0.436   6.013   4.613 -1.3770  0.4577 -1.7717
  412MOL0     H55610  -0.420   6.248   4.537  0.0606 -1.7681  2.2924
  412MOL0     H55611  -0.588   6.279   4.589  0.2865 -0.1581  0.8445
  412MOL0     H55612  -0.669   6.096   4.436  0.0501 -1.4765 -0.6931
  412MOL0     H55613  -0.503   6.087   4.366 -0.8063 -1.3675  0.7207
  412MOL0     H55614  -0.593   6.363   4.380  1.1357  0.8206 -0.3540
  412MOL0     H55615  -0.494   6.284   4.263  0.1360 -0.9631  0.5970
  412MOL0     H55616  -0.897   6.294   4.111  0.1970 -0.5451 -0.5008
  412MOL0     H55617  -0.278   5.967   4.787 -0.9346  1.5085  1.5308
  412MOL0     H55618  -0.024   5.843   4.693  0.5780 -0.7712  0.6189
  412MOL0     H55619   0.077   5.918   4.814  0.3529  1.5099  1.8292
  412MOL0     H55620  -0.102   5.872   4.845  0.7133  1.8705  1.2836
  413MOL0     O55621   3.553  11.204  10.297 -0.3806  0.4600  0.5952
  413MOL0     C55622   3.448  11.157  10.339  0.0512 -0.4753 -0.5067
  413MOL0     O55623   3.445  11.038  10.408 -0.2058  0.5724  0.0390
  413MOL0     C55624   3.552  10.953  10.419  0.9712  0.4945 -0.0623
  413MOL0     C55625   3.575  10.889  10.545  0.0787 -0.7678  0.2005
  413MOL0     C55626   3.685  10.815  10.570  0.1049  0.6481  0.3114
  413MOL0     C55627   3.783  10.782  10.474  0.7502 -1.5930 -0.3707
  413MOL0     O55628   3.893  10.719  10.525  0.4096 -0.2282  0.0637
  413MOL0     C55629   4.009  10.728  10.436 -0.1924 -0.5146 -0.1006
  413MOL0     C55630   4.124  10.665  10.507 -0.6548 -0.7503 -0.0307
  413MOL0     C55631   4.185  10.739  10.626  0.3489 -0.2204 -1.1339
  413MOL0     C55632   4.287  10.844  10.594 -0.4881 -0.0932  0.8213
  413MOL0     C55633   4.366  10.890  10.715  0.7828 -0.2965 -0.4470
  413MOL0     C55634   4.419  11.038  10.695 -0.4450  0.8914  0.2916
  413MOL0     C55635   4.519  11.061  10.579  0.3004  0.4304  0.0312
  413MOL0     C55636   4.637  10.964  10.576 -0.1894 -0.1909  0.3140
  413MOL0     N55637   4.718  10.974  10.698  0.2255  0.9857  0.4460
  413MOL0     C55638   4.815  11.065  10.728 -0.3287  0.3858  0.2863
  413MOL0     C55639   4.866  11.017  10.847 -0.2959 -0.2068 -0.6592
  413MOL0     C55640   4.994  11.066  10.912 -0.0907 -0.4852 -0.3283
  413MOL0     C55641   5.120  11.068  10.818 -1.0837 -0.1536  0.2100
  413MOL0     C55642   5.236  11.140  10.886  0.2315 -0.0525  0.9779
  413MOL0     C55643   5.377  11.129  10.817  0.6637 -0.7124  1.0336
  413MOL0     O55644   5.476  11.190  10.892  0.5841 -0.0216 -0.3110
  413MOL0     C55645   5.601  11.204  10.840 -0.4429  0.2074  0.3701
  413MOL0     C55646   5.696  11.229  10.931  0.0186  0.6138  0.8590
  413MOL0     C55647   5.827  11.242  10.904 -0.5129  0.4958 -0.1455
  413MOL0     C55648   5.883  11.214  10.773  0.0343 -0.3164 -0.5728
  413MOL0     C55649   6.030  11.221  10.750  0.5239  1.0004  0.6570
  413MOL0     O55650   6.073  11.153  10.643 -0.4616  0.3312  0.5192
  413MOL0     C55651   6.208  11.143  10.628 -0.9996  0.0638  0.4551
  413MOL0     C55652   6.285  11.257  10.619  0.1923  0.0549  0.5461
  413MOL0     C55653   6.419  11.245  10.597  0.8034 -0.1110  0.4574
  413MOL0     C55654   6.484  11.124  10.578  1.0822  0.5351 -0.9941
  413MOL0     O55655   6.620  11.104  10.557  1.1572  0.4581  0.7928
  413MOL0     C55656   6.702  11.220  10.527 -0.1682 -0.5506 -0.2562
  413MOL0     C55657   6.846  11.189  10.540  0.7271  1.0088  0.0812
  413MOL0     C55658   6.928  11.295  10.477 -0.4748 -1.2300  0.4601
  413MOL0     C55659   7.069  11.244  10.440 -0.2719  0.0566  0.1318
  413MOL0     C55660   7.146  11.340  10.347  0.0085  0.2795 -0.2907
  413MOL0     C55661   7.246  11.415  10.433  0.4263  0.3525  0.6071
  413MOL0     C55662   7.362  11.488  10.358  0.6618  0.7995  0.0805
  413MOL0     C55663   7.442  11.392  10.259 -0.4000 -0.4414  0.0063
  413MOL0    Cl55664   7.586  11.478  10.188 -0.3675 -0.3013 -0.3613
  413MOL0     C55665   6.403  11.010  10.589 -0.3352  0.5169 -0.3055
  413MOL0     C55666   6.268  11.016  10.615 -0.9534  0.0152 -0.1237
  413MOL0     O55667   6.098  11.285  10.826 -0.0639  0.3969 -0.5387
  413MOL0     C55668   5.785  11.175  10.677  0.3229  0.2764  0.3124
  413MOL0     C55669   5.645  11.171  10.708  0.0114  0.3751  0.0294
  413MOL0     N55670   4.789  10.915  10.892 -0.0590  0.7878 -0.2679
  413MOL0     N55671   4.710  10.886  10.803  0.6990  0.0220  0.5748
  413MOL0     C55672   3.753  10.837  10.341  0.3487 -0.4819  0.5394
  413MOL0     C55673   3.642  10.923  10.318 -0.3551  0.2273  0.3206
  413MOL0     C55674   3.327  11.237  10.328  0.8376 -0.0244 -0.0693
  413MOL0     C55675   3.219  11.209  10.417  0.3894 -0.2277 -0.1933
  413MOL0     C55676   3.089  11.265  10.401 -0.4175 -0.1143 -0.2376
  413MOL0     C55677   3.075  11.370  10.309  0.5112  0.6476  0.6138
  413MOL0     O55678   2.949  11.424  10.306  0.3692 -0.2598  0.5935
  413MOL0     C55679   2.920  11.519  10.198 -0.1004  0.7197 -0.1855
  413MOL0     C55680   2.785  11.579  10.204 -0.2794  0.2007  0.5490
  413MOL0     C55681   2.676  11.475  10.182  0.2514 -0.0910  0.7416
  413MOL0     C55682   2.531  11.534  10.161 -0.7739  0.4516 -0.5932
  413MOL0     C55683   2.481  11.580  10.292 -0.5575  0.3474 -0.3117
  413MOL0     C55684   2.463  11.622  10.408 -0.0865  0.2948 -0.4902
  413MOL0     C55685   3.183  11.408  10.226  0.3053  1.5821 -0.2657
  413MOL0     C55686   3.303  11.343  10.238 -0.4162  0.3918  0.3834
  413MOL0     C55687   3.412  11.387  10.142  0.0843 -0.6716  0.4350
  413MOL0     H55688   3.504  10.911  10.624  1.0756  2.8255  0.2786
  413MOL0     H55689   3.710  10.771  10.666  1.9307 -0.8666 -0.7910
  413MOL0     H55690   3.981  10.665  10.352  1.2823 -0.6488 -0.5205
  413MOL0     H55691   4.040  10.832  10.422  0.3065 -0.6074  0.2513
  413MOL0     H55692   4.193  10.628  10.431 -2.2524 -0.3433 -1.7855
  413MOL0     H55693   4.086  10.569  10.543 -1.7871 -0.2099  0.2711
  413MOL0     H55694   4.243  10.672  10.690 -0.7579  1.5327  1.9193
  413MOL0     H55695   4.102  10.784  10.682 -0.0827 -2.5772  0.2344
  413MOL0     H55696   4.354  10.810  10.514 -1.3191  2.3864 -1.0855
  413MOL0     H55697   4.243  10.931  10.543 -1.9351 -1.3753 -0.2134
  413MOL0     H55698   4.305  10.892  10.805  1.3252  1.3683 -0.0820
  413MOL0     H55699   4.449  10.823  10.739  2.5919  2.2731  0.9350
  413MOL0     H55700   4.330  11.099  10.681  0.5474  2.5445  0.8919
  413MOL0     H55701   4.470  11.083  10.781  2.7490  2.8716 -2.3753
  413MOL0     H55702   4.556  11.164  10.574  1.0952  0.1162 -0.7643
  413MOL0     H55703   4.457  11.046  10.490  0.7251 -2.0549  0.0699
  413MOL0     H55704   4.608  10.859  10.565  0.5755 -0.3496 -0.2291
  413MOL0     H55705   4.695  10.989  10.487 -2.6836  2.1257 -0.8358
  413MOL0     H55706   4.848  11.147  10.665 -1.1948  0.5595  0.0329
  413MOL0     H55707   4.964  11.169  10.936 -2.1655 -0.3033 -3.1463
  413MOL0     H55708   5.017  11.013  11.005 -0.2480  1.3330  0.8064
  413MOL0     H55709   5.155  10.969  10.791  1.5114  0.9018 -0.5828
  413MOL0     H55710   5.089  11.123  10.728  0.5097  1.3719  0.5391
  413MOL0     H55711   5.252  11.104  10.988  1.0197 -0.4997  0.7087
  413MOL0     H55712   5.204  11.244  10.895 -3.0916 -0.8464 -0.3454
  413MOL0     H55713   5.372  11.180  10.721 -0.8955 -0.0201  1.4423
  413MOL0     H55714   5.402  11.029  10.782  0.1885  0.2859 -2.5384
  413MOL0     H55715   5.655  11.231  11.031 -0.2124 -3.3259  1.0020
  413MOL0     H55716   5.895  11.268  10.985  0.2586  0.0027 -0.6133
  413MOL0     H55717   6.231  11.350  10.624 -0.0606  0.2762 -3.4961
  413MOL0     H55718   6.482  11.333  10.587  1.8321 -0.9479 -0.8852
  413MOL0     H55719   6.686  11.248  10.422  3.4798  0.8072 -0.5867
  413MOL0     H55720   6.687  11.305  10.593 -0.0992  0.9434 -2.0629
  413MOL0     H55721   6.882  11.177  10.643 -0.0735  0.5936  0.3182
  413MOL0     H55722   6.859  11.095  10.486 -2.3814  0.1151  0.7279
  413MOL0     H55723   6.871  11.334  10.392 -0.8558 -3.1569 -0.2146
  413MOL0     H55724   6.934  11.371  10.555 -1.1006 -1.5397  0.8167
  413MOL0     H55725   7.056  11.150  10.385 -1.7379 -0.0909  0.6873
  413MOL0     H55726   7.126  11.217  10.529 -0.0808 -1.0805 -0.3130
  413MOL0     H55727   7.086  11.407  10.285 -2.9879 -0.8814  1.1543
  413MOL0     H55728   7.189  11.273  10.271  1.4318  0.0085  0.7123
  413MOL0     H55729   7.207  11.498  10.494  1.0346 -0.5259  2.2657
  413MOL0     H55730   7.294  11.342  10.500  1.9739  2.2967  1.7426
  413MOL0     H55731   7.435  11.523  10.432  0.1301 -1.2752  1.6648
  413MOL0     H55732   7.331  11.579  10.306  0.4150  0.2488 -0.7471
  413MOL0     H55733   7.478  11.307  10.318  0.3210 -0.0020  0.2170
  413MOL0     H55734   7.376  11.351  10.182  0.2757 -0.2677 -0.6732
  413MOL0     H55735   6.456  10.915  10.586 -1.8751 -0.4175  0.7120
  413MOL0     H55736   6.213  10.923  10.626  0.3853 -0.7139  0.6732
  413MOL0     H55737   5.810  11.160  10.572 -1.7590  1.2417 -0.3785
  413MOL0     H55738   5.581  11.132  10.629  3.0652 -2.5437 -1.2784
  413MOL0     H55739   3.824  10.823  10.260 -0.7237  2.7677 -1.1607
  413MOL0     H55740   3.633  10.957  10.216 -1.6790 -3.1077 -0.8074
  413MOL0     H55741   3.231  11.130  10.490  3.4018  0.9868  0.7736
  413MOL0     H55742   3.015  11.222  10.467  0.8544 -0.2306  1.1599
  413MOL0     H55743   2.929  11.469  10.101 -1.0389  0.5458 -0.1899
  413MOL0     H55744   2.993  11.600  10.192 -0.4194  1.0183 -0.0071
  413MOL0     H55745   2.781  11.662  10.133  1.9533 -0.2348 -0.1715
  413MOL0     H55746   2.762  11.625  10.301  0.1431  0.9962  0.2833
  413MOL0     H55747   2.684  11.395  10.256 -1.7661 -1.3650 -0.3440
  413MOL0     H55748   2.709  11.427  10.090  1.5381  2.2534 -0.1159
  413MOL0     H55749   2.530  11.607  10.081 -0.1927 -0.2424 -1.2480
  413MOL0     H55750   2.471  11.454  10.116 -0.8287 -0.5141  1.0974
  413MOL0     H55751   2.460  11.664  10.507  0.9566 -0.1116 -0.2633
  413MOL0     H55752   3.177  11.477  10.143  0.6198 -1.5617 -3.0963
  413MOL0     H55753   3.508  11.398  10.194  0.4282  0.8440 -0.4661
  413MOL0     H55754   3.421  11.304  10.071  0.5268 -0.6679  0.4830
  413MOL0     H55755   3.386  11.479  10.089  0.4090 -0.5176  0.5453
  414MOL0     O55756   1.202   1.997   4.017 -0.4277  0.5543  0.8286
  414MOL0     C55757   1.125   2.060   3.937  0.3577  0.1775 -0.2086
  414MOL0     O55758   1.146   2.172   3.863  0.4824  0.2771 -0.2685
  414MOL0     C55759   1.278   2.202   3.869  0.0299  0.4156  0.0388
  414MOL0     C55760   1.320   2.324   3.924  0.0833 -0.2619 -0.5976
  414MOL0     C55761   1.454   2.367   3.921  0.4657  0.2357  1.5671
  414MOL0     C55762   1.553   2.287   3.860  0.6389 -0.3712 -0.0104
  414MOL0     O55763   1.683   2.338   3.845  0.3693  0.2638  1.0891
  414MOL0     C55764   1.781   2.235   3.857 -0.4622 -0.3771  0.1279
  414MOL0     C55765   1.910   2.318   3.836 -0.2593 -0.0209 -0.0365
  414MOL0     C55766   2.017   2.219   3.806 -0.5932 -0.1213  0.2440
  414MOL0     C55767   2.139   2.301   3.757  0.0026 -0.5210 -0.4899
  414MOL0     C55768   2.271   2.236   3.752 -0.2086 -0.1475  0.4676
  414MOL0     C55769   2.378   2.331   3.695 -0.0149 -0.7427 -0.3179
  414MOL0     C55770   2.518   2.271   3.684  0.0490  0.5359  0.2070
  414MOL0     C55771   2.607   2.385   3.658  0.2627 -0.5985  0.7887
  414MOL0     N55772   2.742   2.337   3.642 -0.1073 -0.4012  0.5979
  414MOL0     C55773   2.834   2.323   3.741 -0.2473 -0.5675 -0.3805
  414MOL0     C55774   2.933   2.251   3.688 -0.9631  0.6769  0.0783
  414MOL0     C55775   3.052   2.184   3.756 -0.4130  0.9669 -0.1389
  414MOL0     C55776   3.134   2.273   3.850  0.2538  0.1725  0.4078
  414MOL0     C55777   3.232   2.192   3.938  1.0676 -0.9641 -0.4076
  414MOL0     C55778   3.289   2.280   4.046  0.7994  0.1910 -0.4691
  414MOL0     O55779   3.335   2.186   4.140  0.0558  0.1539  0.6869
  414MOL0     C55780   3.434   2.233   4.222 -0.6678 -0.6092 -0.4625
  414MOL0     C55781   3.466   2.365   4.248 -0.1330 -0.7393  0.6664
  414MOL0     C55782   3.575   2.402   4.334  0.3258  0.3096 -0.5282
  414MOL0     C55783   3.655   2.305   4.383  0.5028  0.0314 -0.2465
  414MOL0     C55784   3.772   2.344   4.457 -0.0823 -0.2111  0.0752
  414MOL0     O55785   3.858   2.244   4.494  0.8665  0.5072  0.6938
  414MOL0     C55786   3.979   2.264   4.563 -0.4037 -0.1631  0.2536
  414MOL0     C55787   4.018   2.158   4.640 -0.2054  1.3425  0.4327
  414MOL0     C55788   4.141   2.157   4.703 -0.3404  0.0053  0.8138
  414MOL0     C55789   4.227   2.267   4.699 -0.0216 -0.2710 -0.0118
  414MOL0     O55790   4.359   2.269   4.738 -0.4147 -0.4927 -0.4313
  414MOL0     C55791   4.406   2.162   4.823 -0.6805 -0.0495 -0.5759
  414MOL0     C55792   4.550   2.202   4.868  0.3487 -0.7506 -0.4717
  414MOL0     C55793   4.589   2.096   4.982  0.4526  0.9870  0.1533
  414MOL0     C55794   4.719   2.130   5.052 -0.2443 -0.1623 -0.2923
  414MOL0     C55795   4.847   2.104   4.971  1.1377  0.1983  0.5141
  414MOL0     C55796   4.973   2.122   5.067 -0.1247  0.4019 -0.7454
  414MOL0     C55797   5.105   2.091   4.986 -0.8594  0.3220 -0.7922
  414MOL0     C55798   5.218   2.078   5.083 -0.4837 -0.2730 -0.2933
  414MOL0    Cl55799   5.347   1.999   5.000 -0.1056  0.0484 -0.2182
  414MOL0     C55800   4.176   2.392   4.649 -0.2663  0.1899  0.2922
  414MOL0     C55801   4.059   2.384   4.569 -0.3583 -0.3488 -0.1503
  414MOL0     O55802   3.788   2.461   4.498  0.9101 -0.2372 -0.4191
  414MOL0     C55803   3.625   2.170   4.351  0.3403  0.4573 -0.0415
  414MOL0     C55804   3.512   2.138   4.277 -0.0999  0.6061  0.6751
  414MOL0     N55805   2.917   2.261   3.554  0.1397 -0.6789 -0.0295
  414MOL0     N55806   2.804   2.314   3.518 -0.0091  0.0892 -0.4237
  414MOL0     C55807   1.515   2.161   3.806 -0.6011 -0.2887 -0.0883
  414MOL0     C55808   1.379   2.125   3.803  0.3018  0.3403 -0.6403
  414MOL0     C55809   0.999   1.988   3.893  0.4145  0.0061 -0.9902
  414MOL0     C55810   0.959   2.008   3.757  0.9625 -0.0690  0.4383
  414MOL0     C55811   0.843   1.947   3.714 -1.4141  0.4837  0.0471
  414MOL0     C55812   0.772   1.863   3.795 -0.3467 -0.2614  0.3018
  414MOL0     O55813   0.661   1.796   3.752 -0.3707 -0.6362 -0.8920
  414MOL0     C55814   0.667   1.737   3.623  0.0704  0.1641  1.0715
  414MOL0     C55815   0.599   1.593   3.623 -0.0575 -0.8159 -0.0256
  414MOL0     C55816   0.590   1.523   3.761  0.3194  0.3175 -0.8083
  414MOL0     C55817   0.504   1.392   3.747  0.0591  0.5872 -0.1135
  414MOL0     C55818   0.356   1.403   3.709  0.5078 -0.4255 -0.1133
  414MOL0     C55819   0.234   1.402   3.682  0.2349 -0.6133  1.0038
  414MOL0     C55820   0.810   1.834   3.919  0.4780  0.0104 -0.1508
  414MOL0     C55821   0.926   1.898   3.974  1.3895  0.1297  0.2737
  414MOL0     C55822   0.952   1.860   4.116 -0.4388 -0.2505  0.1288
  414MOL0     H55823   1.242   2.386   3.967 -1.9472 -2.3602 -1.0844
  414MOL0     H55824   1.491   2.466   3.944  0.1461  0.6524  0.3756
  414MOL0     H55825   1.786   2.184   3.954  0.9900 -1.3825 -0.4498
  414MOL0     H55826   1.774   2.154   3.785  5.7796 -1.1933 -0.0663
  414MOL0     H55827   1.949   2.360   3.929  1.7742 -4.6047  1.4823
  414MOL0     H55828   1.900   2.396   3.760 -1.7245 -0.8851 -0.7827
  414MOL0     H55829   1.983   2.152   3.726 -2.5530  0.2648  0.7078
  414MOL0     H55830   2.048   2.165   3.896 -2.0880  3.4048  3.0859
  414MOL0     H55831   2.108   2.324   3.655  1.0475  0.0104 -0.6888
  414MOL0     H55832   2.151   2.389   3.821 -0.7590 -0.8584  0.1426
  414MOL0     H55833   2.297   2.198   3.851 -1.3028 -3.3520 -0.3527
  414MOL0     H55834   2.273   2.154   3.679  1.3468  1.1684 -1.0390
  414MOL0     H55835   2.347   2.367   3.596 -0.6575  1.8173  0.7261
  414MOL0     H55836   2.392   2.420   3.758  4.4449 -2.3154  1.3156
  414MOL0     H55837   2.514   2.206   3.596 -2.6253 -2.1047  2.0545
  414MOL0     H55838   2.552   2.203   3.763 -0.7161 -2.2100 -1.6675
  414MOL0     H55839   2.571   2.440   3.570 -1.0371 -2.9838 -0.2614
  414MOL0     H55840   2.616   2.461   3.736 -0.7887  0.2640  0.1004
  414MOL0     H55841   2.823   2.339   3.848 -1.5235 -2.4118 -0.1970
  414MOL0     H55842   3.020   2.093   3.808 -0.0437 -0.0837 -1.6769
  414MOL0     H55843   3.116   2.149   3.674  0.4125  0.8055  0.5569
  414MOL0     H55844   3.195   2.337   3.786  0.4026  0.2226  0.5970
  414MOL0     H55845   3.072   2.346   3.903  1.0958  0.3479  1.1889
  414MOL0     H55846   3.308   2.147   3.874 -2.1180 -3.5349 -2.7793
  414MOL0     H55847   3.175   2.112   3.987  2.1833 -0.1585  2.3824
  414MOL0     H55848   3.216   2.348   4.091  0.8670  0.5985 -0.9645
  414MOL0     H55849   3.364   2.349   4.007  1.0035 -0.0110 -0.4371
  414MOL0     H55850   3.403   2.438   4.197  0.3412  0.2025  1.3818
  414MOL0     H55851   3.585   2.509   4.351 -5.1794  1.1880 -0.7063
  414MOL0     H55852   3.954   2.072   4.626  2.4650 -0.5352 -1.2863
  414MOL0     H55853   4.172   2.066   4.755 -0.2064  1.0167  2.5893
  414MOL0     H55854   4.337   2.155   4.907  0.4536 -2.1718  0.2666
  414MOL0     H55855   4.408   2.066   4.769 -1.2652 -0.5288  0.2186
  414MOL0     H55856   4.614   2.204   4.780  1.7983  0.1032  0.5634
  414MOL0     H55857   4.538   2.303   4.909 -1.1604 -0.2356 -2.0610
  414MOL0     H55858   4.506   2.094   5.053  0.0713  0.9516 -0.2918
  414MOL0     H55859   4.608   1.999   4.935  3.0038  1.6045 -0.2447
  414MOL0     H55860   4.720   2.066   5.141  2.1179 -0.4620 -0.4659
  414MOL0     H55861   4.723   2.235   5.085  2.4387 -0.0921 -0.5828
  414MOL0     H55862   4.860   2.174   4.888  1.2437 -0.0676  0.3085
  414MOL0     H55863   4.853   2.007   4.922  3.9276  2.2531 -3.9204
  414MOL0     H55864   4.982   2.218   5.118 -1.6697 -0.1559  0.6568
  414MOL0     H55865   4.964   2.040   5.138  2.6699  1.4803  1.0494
  414MOL0     H55866   5.121   2.178   4.922  3.2814  0.4862  0.1400
  414MOL0     H55867   5.090   2.000   4.927 -0.8749  0.2601 -0.6925
  414MOL0     H55868   5.254   2.178   5.109 -1.5485  0.8125 -2.7121
  414MOL0     H55869   5.182   2.026   5.173 -2.1551  0.6672 -0.3765
  414MOL0     H55870   4.243   2.477   4.645  1.1739 -0.9247 -0.0053
  414MOL0     H55871   4.032   2.468   4.506  0.8562 -0.3305 -0.6820
  414MOL0     H55872   3.673   2.084   4.398 -3.1050 -3.0878 -2.3746
  414MOL0     H55873   3.493   2.032   4.264 -0.5416  0.6516  0.9284
  414MOL0     H55874   1.574   2.085   3.757  0.1932  0.6534 -0.6405
  414MOL0     H55875   1.346   2.033   3.756 -1.6913  0.2417  0.8430
  414MOL0     H55876   1.017   2.073   3.692 -0.0184  1.3519  0.9497
  414MOL0     H55877   0.815   1.953   3.610 -0.8299  2.2493 -0.0295
  414MOL0     H55878   0.767   1.720   3.582 -0.3267  1.1546 -0.3933
  414MOL0     H55879   0.609   1.797   3.552  0.9877 -1.2647 -0.9919
  414MOL0     H55880   0.645   1.528   3.547 -0.6974 -0.2649 -0.9037
  414MOL0     H55881   0.500   1.597   3.575  1.6899 -2.3411 -4.3099
  414MOL0     H55882   0.553   1.584   3.844 -0.2356  1.4538 -1.8593
  414MOL0     H55883   0.693   1.493   3.785  0.6895 -1.0663 -3.6716
  414MOL0     H55884   0.560   1.322   3.684 -1.6773 -1.2474  0.2713
  414MOL0     H55885   0.514   1.340   3.842 -0.7030  0.4853 -0.0836
  414MOL0     H55886   0.129   1.410   3.664  0.3112  1.0796  1.0991
  414MOL0     H55887   0.753   1.761   3.975  0.1009  0.1762 -0.3131
  414MOL0     H55888   0.895   1.775   4.154 -0.4628 -1.0170 -1.5303
  414MOL0     H55889   1.053   1.826   4.138 -0.5617  1.8146  5.3416
  414MOL0     H55890   0.949   1.955   4.171 -0.3020 -0.0851 -0.1453
  415MOL0     O55891   3.243   5.279   0.428  0.0883 -0.1115 -0.3113
  415MOL0     C55892   3.187   5.317   0.329  0.1616  0.5840  0.4757
  415MOL0     O55893   3.194   5.444   0.280  0.0292 -0.0911  0.2432
  415MOL0     C55894   3.289   5.516   0.342  0.3560  0.3526 -0.7628
  415MOL0     C55895   3.418   5.530   0.292 -0.5203  0.1905  0.3926
  415MOL0     C55896   3.512   5.600   0.353  0.2401 -0.8999 -0.6857
  415MOL0     C55897   3.483   5.669   0.476 -0.0632 -0.9621 -1.0847
  415MOL0     O55898   3.577   5.738   0.551 -0.0234 -0.1868  0.1317
  415MOL0     C55899   3.715   5.719   0.510  0.0764  0.6576 -1.0578
  415MOL0     C55900   3.792   5.811   0.608 -0.5718 -0.1914  0.3893
  415MOL0     C55901   3.946   5.806   0.597  0.5828 -0.0204  0.0570
  415MOL0     C55902   4.003   5.910   0.684  0.4919  0.0160 -0.5668
  415MOL0     C55903   4.155   5.904   0.695  0.4935  0.0551 -0.8025
  415MOL0     C55904   4.185   6.007   0.794 -0.9675  0.0617 -0.4700
  415MOL0     C55905   4.332   5.995   0.835 -0.3629  0.5542  0.2540
  415MOL0     C55906   4.383   6.120   0.894  0.3732  0.3331  1.0440
  415MOL0     N55907   4.527   6.123   0.903  0.3899 -0.5567 -0.0258
  415MOL0     C55908   4.600   6.196   0.993  1.4076 -0.1689 -0.2889
  415MOL0     C55909   4.727   6.197   0.939  0.6269  0.9547 -1.1681
  415MOL0     C55910   4.845   6.252   0.999 -0.0504 -0.2826 -0.9185
  415MOL0     C55911   4.897   6.378   0.927  0.0545  0.7515 -0.5459
  415MOL0     C55912   5.038   6.430   0.969 -1.1360 -0.1093 -0.2027
  415MOL0     C55913   5.153   6.365   0.881  0.3618 -0.2156 -0.3596
  415MOL0     O55914   5.278   6.424   0.931  0.1669  0.1774  0.5740
  415MOL0     C55915   5.389   6.386   0.874  0.1823 -0.2705  0.2185
  415MOL0     C55916   5.398   6.267   0.794 -0.0955 -0.2086 -0.2278
  415MOL0     C55917   5.523   6.228   0.762 -0.3018 -0.5993 -0.0035
  415MOL0     C55918   5.641   6.303   0.788  0.5458  0.5608 -0.7166
  415MOL0     C55919   5.762   6.254   0.717  0.1886  0.0150  0.8576
  415MOL0     O55920   5.870   6.335   0.718  0.6159 -0.4171  0.1472
  415MOL0     C55921   5.993   6.304   0.655  0.0821 -0.1741  0.2066
  415MOL0     C55922   6.056   6.188   0.692  0.6136  0.2154 -0.1554
  415MOL0     C55923   6.175   6.148   0.631 -0.1120 -0.2377  0.4121
  415MOL0     C55924   6.233   6.236   0.532 -0.0538 -0.7681 -0.0078
  415MOL0     O55925   6.363   6.228   0.488 -1.0787 -0.7849  0.2303
  415MOL0     C55926   6.419   6.099   0.502 -0.0056  0.1248  0.5307
  415MOL0     C55927   6.553   6.093   0.430  0.1790 -0.3182  0.2030
  415MOL0     C55928   6.665   6.161   0.509 -0.2382 -0.0763  0.2099
  415MOL0     C55929   6.794   6.169   0.431 -0.2173  0.3641  0.2447
  415MOL0     C55930   6.887   6.043   0.427  0.3729  0.9492  0.4666
  415MOL0     C55931   7.012   6.062   0.341  0.0523  0.0492  0.4618
  415MOL0     C55932   7.083   6.193   0.314  0.0721 -0.3199 -0.1804
  415MOL0     C55933   7.169   6.253   0.424  0.1235 -0.1415  0.0329
  415MOL0    Cl55934   7.311   6.150   0.448  0.6984  0.0405  0.0018
  415MOL0     C55935   6.176   6.359   0.503  0.2290 -0.3822  0.2733
  415MOL0     C55936   6.049   6.395   0.561 -0.3949  0.4251 -0.6953
  415MOL0     O55937   5.763   6.143   0.668  0.2544 -0.0462  0.0631
  415MOL0     C55938   5.627   6.417   0.864  0.4607 -0.5925  0.7791
  415MOL0     C55939   5.503   6.467   0.909  0.2317  0.2784  1.2754
  415MOL0     N55940   4.723   6.133   0.817 -0.6319  0.0850  0.8857
  415MOL0     N55941   4.601   6.090   0.795  0.8209 -0.1523  0.2708
  415MOL0     C55942   3.357   5.649   0.530  0.1645 -0.7665 -0.6611
  415MOL0     C55943   3.264   5.573   0.470 -0.5237  0.3228 -0.0967
  415MOL0     C55944   3.078   5.229   0.279 -0.2049  0.0078  0.5592
  415MOL0     C55945   3.009   5.274   0.160 -0.4453 -0.6699  0.2875
  415MOL0     C55946   2.910   5.201   0.106 -0.4636  0.8141  0.5010
  415MOL0     C55947   2.879   5.072   0.155 -0.3978 -0.2740  0.1555
  415MOL0     O55948   2.772   5.001   0.117 -0.0856 -0.2550  0.9475
  415MOL0     C55949   2.662   5.062   0.036 -0.4457  0.6046 -0.0514
  415MOL0     C55950   2.553   4.965   0.021  0.5478 -0.3429  0.0946
  415MOL0     C55951   2.450   4.994   0.125  0.7088 -0.5546  0.3258
  415MOL0     C55952   2.327   4.901   0.117 -0.3540 -1.7247 -0.1560
  415MOL0     C55953   2.217   4.936   0.208 -0.0243 -0.0810  0.7017
  415MOL0     C55954   2.120   4.960   0.270  1.2475  0.2898 -0.8202
  415MOL0     C55955   2.939   5.027   0.264 -0.2182  0.1759 -0.4858
  415MOL0     C55956   3.037   5.107   0.333 -1.0951 -0.4624  0.6196
  415MOL0     C55957   3.090   5.050   0.461  0.2460 -0.2262 -0.4387
  415MOL0     H55958   3.435   5.484   0.196 -3.2918  1.1113 -0.6233
  415MOL0     H55959   3.604   5.626   0.301 -0.4126 -0.0274 -1.4342
  415MOL0     H55960   3.747   5.616   0.525  3.6526  1.5097 -1.7780
  415MOL0     H55961   3.734   5.759   0.410 -1.9243 -0.0346 -1.7797
  415MOL0     H55962   3.764   5.773   0.706 -1.2436  0.2047  0.3562
  415MOL0     H55963   3.760   5.914   0.594 -1.7852 -0.4941  0.8167
  415MOL0     H55964   3.984   5.830   0.497 -0.5245  0.9532 -0.1491
  415MOL0     H55965   3.977   5.705   0.625 -1.2348 -0.6420 -0.0590
  415MOL0     H55966   3.974   6.008   0.645  0.8395  0.4680  0.2711
  415MOL0     H55967   3.955   5.905   0.782  2.2721 -0.3071  0.3349
  415MOL0     H55968   4.199   5.805   0.704 -0.9076 -0.8055 -2.6021
  415MOL0     H55969   4.194   5.933   0.596  0.8559  0.0963 -0.6486
  415MOL0     H55970   4.162   6.112   0.772  0.3305  0.5530  0.3533
  415MOL0     H55971   4.135   5.985   0.888  1.3857  2.6759  1.5736
  415MOL0     H55972   4.392   5.963   0.750  0.8417  2.4958  0.3056
  415MOL0     H55973   4.330   5.914   0.909 -3.9604 -0.0928 -0.3570
  415MOL0     H55974   4.353   6.206   0.832  0.0962 -0.4038  0.1334
  415MOL0     H55975   4.342   6.125   0.995  0.0726 -0.7406  0.9892
  415MOL0     H55976   4.576   6.232   1.092  1.5333 -1.4413  0.2249
  415MOL0     H55977   4.816   6.267   1.104 -1.2875 -0.6662 -1.1930
  415MOL0     H55978   4.925   6.177   0.998 -1.9530 -2.4406 -1.1734
  415MOL0     H55979   4.904   6.364   0.819 -1.6730 -2.3980 -0.3780
  415MOL0     H55980   4.831   6.463   0.946  2.3832  2.1796  2.0698
  415MOL0     H55981   5.061   6.396   1.071 -0.5391  1.0111  0.0587
  415MOL0     H55982   5.043   6.537   0.951 -0.6323  0.0522  0.7849
  415MOL0     H55983   5.150   6.392   0.775  4.5191  1.4538 -0.2384
  415MOL0     H55984   5.142   6.258   0.900 -1.3643  0.0682  0.4203
  415MOL0     H55985   5.326   6.193   0.761  0.1046 -0.7869  0.6036
  415MOL0     H55986   5.521   6.134   0.707 -0.2402 -0.1588 -0.7869
  415MOL0     H55987   6.005   6.135   0.772 -0.7701  3.7238  1.4764
  415MOL0     H55988   6.224   6.058   0.666 -1.2280 -1.0924 -0.1371
  415MOL0     H55989   6.437   6.071   0.606 -1.3249  1.0428  1.0339
  415MOL0     H55990   6.358   6.023   0.452 -0.3140  0.0735  0.9761
  415MOL0     H55991   6.584   5.991   0.407  1.0150 -0.5843  2.2776
  415MOL0     H55992   6.537   6.140   0.333  1.6379  2.1285  1.0617
  415MOL0     H55993   6.628   6.258   0.544  1.1916  0.5324  0.1166
  415MOL0     H55994   6.682   6.109   0.604  0.2428  0.1250  0.2374
  415MOL0     H55995   6.857   6.243   0.483 -0.9195  0.2755  1.2533
  415MOL0     H55996   6.770   6.200   0.329  0.9824 -0.4652 -0.3098
  415MOL0     H55997   6.836   5.952   0.395  4.1146 -1.2644  0.2290
  415MOL0     H55998   6.918   6.029   0.531  1.8134  2.3687  0.2713
  415MOL0     H55999   7.084   5.991   0.382  0.8956  1.1283  0.8913
  415MOL0     H56000   6.985   6.024   0.242  3.1257  0.1541 -0.5270
  415MOL0     H56001   7.011   6.265   0.274  0.0589 -1.3079 -2.0124
  415MOL0     H56002   7.150   6.178   0.229 -1.1537 -2.3131 -0.8520
  415MOL0     H56003   7.190   6.360   0.414  0.9127 -0.2153  0.7799
  415MOL0     H56004   7.106   6.239   0.513 -0.8373 -1.2832 -0.8037
  415MOL0     H56005   6.221   6.431   0.436  1.8166 -0.5074  1.1482
  415MOL0     H56006   6.005   6.492   0.537 -0.0875  1.3325  2.0361
  415MOL0     H56007   5.703   6.492   0.884  0.2171  0.9276 -3.0593
  415MOL0     H56008   5.486   6.560   0.963 -0.7608  0.1630  1.1774
  415MOL0     H56009   3.336   5.685   0.631  0.1502  1.8967 -1.5478
  415MOL0     H56010   3.177   5.550   0.530  0.2819  0.6682  1.2371
  415MOL0     H56011   3.032   5.371   0.116 -0.3360 -0.7386  0.1941
  415MOL0     H56012   2.854   5.232   0.018 -4.6477  1.3781  3.0559
  415MOL0     H56013   2.697   5.089  -0.065 -1.1910  0.5019 -0.3423
  415MOL0     H56014   2.627   5.145   0.098 -1.8737 -0.1766  0.2118
  415MOL0     H56015   2.581   4.860   0.027  0.7867 -0.4456 -2.1557
  415MOL0     H56016   2.507   4.976  -0.077 -1.6302  0.2011  1.1125
  415MOL0     H56017   2.421   5.099   0.112  1.5289 -0.3696 -0.0179
  415MOL0     H56018   2.500   4.981   0.221  0.3280  2.4397  1.0277
  415MOL0     H56019   2.293   4.908   0.013 -4.5641  0.5010  1.1834
  415MOL0     H56020   2.357   4.800   0.145  2.1667 -0.4874  2.1033
  415MOL0     H56021   2.026   4.971   0.322  1.2704 -2.1320 -0.1642
  415MOL0     H56022   2.899   4.937   0.308 -0.7610  0.2094 -0.8952
  415MOL0     H56023   3.039   4.958   0.492  0.9311 -0.7986 -0.9631
  415MOL0     H56024   3.197   5.027   0.451  0.0783  0.0751 -5.9358
  415MOL0     H56025   3.069   5.120   0.543 -0.1418 -0.7105 -0.1186
  416MOL0     O56026   2.023   0.989  10.288 -1.2971  0.0502  0.8145
  416MOL0     C56027   2.044   0.976  10.168  0.1475 -0.6113 -0.5499
  416MOL0     O56028   1.967   0.890  10.095 -0.2028 -0.4976  0.1614
  416MOL0     C56029   1.856   0.837  10.156  0.0191 -0.3655  0.3070
  416MOL0     C56030   1.730   0.857  10.111 -0.3684  0.3653 -0.0532
  416MOL0     C56031   1.626   0.797  10.175 -0.3937  0.3778  0.3011
  416MOL0     C56032   1.647   0.712  10.286  0.4307  0.2633 -0.5450
  416MOL0     O56033   1.530   0.661  10.349 -0.2670  0.3556  0.0351
  416MOL0     C56034   1.533   0.590  10.475  0.0547  0.0554  0.2442
  416MOL0     C56035   1.383   0.570  10.526 -0.1758 -0.2011  0.2726
  416MOL0     C56036   1.294   0.493  10.426 -0.0540  0.0484 -0.2825
  416MOL0     C56037   1.141   0.521  10.456 -0.1768 -0.2804 -1.1420
  416MOL0     C56038   1.064   0.449  10.346 -0.3561  0.5730  0.9463
  416MOL0     C56039   1.030   0.305  10.392  0.0301 -0.3769 -0.9086
  416MOL0     C56040   0.936   0.220  10.301 -0.2337  0.2525 -1.0170
  416MOL0     C56041   0.930   0.079  10.348 -0.9287  0.6147  0.9771
  416MOL0     N56042   1.061   0.006  10.338  0.1678 -0.2215  0.1292
  416MOL0     C56043   1.126  -0.011  10.220  0.5203  0.2279 -0.7823
  416MOL0     C56044   1.249  -0.056  10.256 -1.0917 -0.8109 -0.3229
  416MOL0     C56045   1.334  -0.124  10.152  0.7666 -0.4661 -1.0945
  416MOL0     C56046   1.474  -0.171  10.200 -0.1306 -0.7937 -0.9953
  416MOL0     C56047   1.572  -0.052  10.209 -0.2500  0.2928  0.3681
  416MOL0     C56048   1.702  -0.100  10.268 -0.5660  0.2977 -0.3373
  416MOL0     O56049   1.791  -0.137  10.166 -0.6700 -0.6330 -0.5331
  416MOL0     C56050   1.927  -0.144  10.196  0.1218  0.5381  0.1275
  416MOL0     C56051   1.985  -0.190  10.315 -0.3682 -0.4632 -0.8136
  416MOL0     C56052   2.126  -0.197  10.322  0.4743 -0.1888  0.3726
  416MOL0     C56053   2.213  -0.163  10.208  0.6496 -0.1481 -0.2393
  416MOL0     C56054   2.354  -0.170  10.228 -0.0645 -0.5626 -1.0029
  416MOL0     O56055   2.400  -0.248  10.340 -0.6667  0.6275  0.2015
  416MOL0     C56056   2.538  -0.263  10.347 -1.2115  0.1531  0.7743
  416MOL0     C56057   2.622  -0.169  10.404  0.1260 -0.4426 -0.6338
  416MOL0     C56058   2.765  -0.195  10.423  0.0526 -0.2620  0.6459
  416MOL0     C56059   2.820  -0.310  10.383 -0.7967  0.3781  0.4958
  416MOL0     O56060   2.951  -0.330  10.416 -1.0952 -0.0423 -0.2213
  416MOL0     C56061   2.986  -0.469  10.422  0.1289  0.1958 -0.2269
  416MOL0     C56062   3.130  -0.485  10.456 -0.3076  0.6361 -1.0386
  416MOL0     C56063   3.170  -0.634  10.456 -0.0867 -0.3904  0.6068
  416MOL0     C56064   3.328  -0.658  10.448 -0.5495 -0.6777 -0.6306
  416MOL0     C56065   3.367  -0.795  10.402 -1.6068 -0.1636 -0.4236
  416MOL0     C56066   3.516  -0.788  10.373 -0.5142  0.4673 -0.8777
  416MOL0     C56067   3.555  -0.915  10.294 -0.0492 -0.0588  0.5276
  416MOL0     C56068   3.706  -0.943  10.320 -0.0406 -0.0542  0.2183
  416MOL0    Cl56069   3.807  -0.826  10.228  0.2693 -0.6468  0.4435
  416MOL0     C56070   2.734  -0.399  10.311 -0.0886 -0.8454  0.0053
  416MOL0     C56071   2.594  -0.377  10.304 -0.1495 -0.6500 -0.3405
  416MOL0     O56072   2.420  -0.103  10.146  0.0387 -0.0929 -0.2054
  416MOL0     C56073   2.149  -0.129  10.090  0.1264 -0.2239  0.2968
  416MOL0     C56074   2.005  -0.120  10.085  0.0801  0.2678  1.0536
  416MOL0     N56075   1.267  -0.051  10.397  0.2267  0.2728 -0.7414
  416MOL0     N56076   1.152  -0.014  10.445  0.1892 -0.5123 -0.2740
  416MOL0     C56077   1.768   0.676  10.322  0.0738 -0.2548  0.2250
  416MOL0     C56078   1.874   0.740  10.256 -0.0683  0.2400  0.2093
  416MOL0     C56079   2.156   1.053  10.095  0.3709 -0.5335  0.4183
  416MOL0     C56080   2.166   1.034   9.959 -1.0554  0.5056  0.1736
  416MOL0     C56081   2.270   1.089   9.886  0.7580 -0.3160 -0.4290
  416MOL0     C56082   2.370   1.158   9.955  0.6792 -0.1129  0.1865
  416MOL0     O56083   2.470   1.214   9.877 -1.1974 -0.2811  0.0339
  416MOL0     C56084   2.606   1.203   9.929  0.4513  0.0995  0.2388
  416MOL0     C56085   2.700   1.183   9.805  0.0671  0.3435 -0.3059
  416MOL0     C56086   2.691   1.282   9.696  0.1867 -1.1672  0.0482
  416MOL0     C56087   2.788   1.250   9.588  0.0443 -0.3663  0.4162
  416MOL0     C56088   2.743   1.319   9.468  0.0826  0.1306  0.0331
  416MOL0     C56089   2.704   1.393   9.374  0.5372 -0.0511 -0.0189
  416MOL0     C56090   2.365   1.178  10.091 -0.6552 -0.4584 -0.0077
  416MOL0     C56091   2.251   1.135  10.161 -0.4228 -0.5294 -0.5247
  416MOL0     C56092   2.240   1.181  10.303  0.3537  0.3512  0.2986
  416MOL0     H56093   1.700   0.922  10.029 -1.5619  2.3289  1.8391
  416MOL0     H56094   1.525   0.812  10.139  0.5029  2.2599 -1.6763
  416MOL0     H56095   1.580   0.494  10.455  0.5734  0.1403  0.9921
  416MOL0     H56096   1.604   0.631  10.548 -1.4165 -0.3708  1.9650
  416MOL0     H56097   1.334   0.664  10.551 -1.8446 -1.4748  2.1540
  416MOL0     H56098   1.373   0.510  10.617 -0.3864 -0.9870 -0.2478
  416MOL0     H56099   1.302   0.385  10.436 -1.4456  0.0209  1.0006
  416MOL0     H56100   1.318   0.520  10.323 -0.2484 -1.6368 -0.7882
  416MOL0     H56101   1.114   0.488  10.557  0.8961  0.1135 -0.7143
  416MOL0     H56102   1.115   0.627  10.455  0.1715 -0.1831 -2.9344
  416MOL0     H56103   0.965   0.490  10.324 -0.0789  0.2905 -0.9604
  416MOL0     H56104   1.111   0.436  10.248 -3.7539 -3.0538 -0.4616
  416MOL0     H56105   1.125   0.255  10.410  0.4973  0.7183 -0.2368
  416MOL0     H56106   0.972   0.320  10.484 -2.9869  0.3406 -2.7655
  416MOL0     H56107   0.960   0.229  10.194 -1.2514  1.2275 -1.1944
  416MOL0     H56108   0.834   0.259  10.308 -0.9931 -1.5421 -1.4880
  416MOL0     H56109   0.898   0.078  10.453 -1.0546  0.8731  0.9423
  416MOL0     H56110   0.854   0.031  10.286  1.6799 -1.6137 -0.7597
  416MOL0     H56111   1.081   0.000  10.122  2.0179  1.2203 -1.3978
  416MOL0     H56112   1.273  -0.210  10.123 -2.4947  2.1693 -2.7067
  416MOL0     H56113   1.357  -0.057  10.068  1.1872  0.6375 -0.1231
  416MOL0     H56114   1.469  -0.213  10.301  2.1281  2.2538  0.5369
  416MOL0     H56115   1.517  -0.245  10.132  1.5939  1.2013 -2.2327
  416MOL0     H56116   1.539   0.025  10.279  1.4361 -0.1910  1.7740
  416MOL0     H56117   1.582  -0.001  10.113 -0.4560  2.1106  1.2685
  416MOL0     H56118   1.702  -0.179  10.345  1.8275  1.6153  1.1256
  416MOL0     H56119   1.746  -0.014  10.319  1.9084  0.0450 -1.8869
  416MOL0     H56120   1.924  -0.206  10.404  0.9871 -1.2272  0.0123
  416MOL0     H56121   2.161  -0.223  10.422  0.7681 -1.3475 -0.0144
  416MOL0     H56122   2.572  -0.075  10.425  3.2815  1.5740 -1.4330
  416MOL0     H56123   2.819  -0.109  10.460 -1.4752  1.9879 -1.9429
  416MOL0     H56124   2.920  -0.517  10.495  0.1167 -0.7193 -0.8187
  416MOL0     H56125   2.967  -0.516  10.325 -0.7995 -1.6735  0.8078
  416MOL0     H56126   3.188  -0.446  10.372 -0.2316 -1.1896 -1.8878
  416MOL0     H56127   3.168  -0.435  10.546 -0.8737 -0.4372 -0.1671
  416MOL0     H56128   3.129  -0.682  10.546  2.5529 -0.8514  1.6609
  416MOL0     H56129   3.128  -0.675  10.364  0.2904  0.5202  0.0204
  416MOL0     H56130   3.362  -0.633  10.549 -0.1231  1.6977 -1.3002
  416MOL0     H56131   3.368  -0.576  10.388 -0.3987 -0.3865 -0.1423
  416MOL0     H56132   3.307  -0.831  10.318 -0.3859 -0.7282 -1.0911
  416MOL0     H56133   3.354  -0.866  10.484  2.0280  1.4272  1.8210
  416MOL0     H56134   3.525  -0.698  10.312  1.3920  1.6369  0.9989
  416MOL0     H56135   3.578  -0.767  10.460 -0.8537  1.6416 -0.8963
  416MOL0     H56136   3.532  -0.904  10.188  0.8011 -0.9565  0.2354
  416MOL0     H56137   3.489  -0.985  10.346  0.8522 -1.7264 -0.4815
  416MOL0     H56138   3.716  -0.947  10.429  4.1630 -2.0811 -0.0213
  416MOL0     H56139   3.732  -1.044  10.289  2.5677  0.0649  1.6954
  416MOL0     H56140   2.777  -0.487  10.264  2.0679 -0.7661  1.6831
  416MOL0     H56141   2.540  -0.459  10.258  0.4105 -2.3980  1.9067
  416MOL0     H56142   2.206  -0.104  10.000  0.5517 -0.0017  0.6245
  416MOL0     H56143   1.955  -0.099   9.991  1.3336 -1.5969 -0.0996
  416MOL0     H56144   1.783   0.599  10.397 -0.5022 -0.1904  0.4167
  416MOL0     H56145   1.978   0.717  10.277 -0.0908 -1.1474 -0.9827
  416MOL0     H56146   2.100   0.965   9.907 -1.6842  3.0217 -2.6586
  416MOL0     H56147   2.262   1.082   9.778 -1.6717  1.4390 -0.4401
  416MOL0     H56148   2.617   1.123  10.003  0.7763 -0.8324 -0.7894
  416MOL0     H56149   2.628   1.297   9.980  0.3787 -0.5776  1.5569
  416MOL0     H56150   2.693   1.086   9.756  0.0705 -0.3366  0.9977
  416MOL0     H56151   2.804   1.182   9.839  0.7072 -0.2267 -2.2094
  416MOL0     H56152   2.719   1.380   9.736 -1.5087 -0.5415 -0.2261
  416MOL0     H56153   2.588   1.285   9.662 -0.5154  3.4857  1.9310
  416MOL0     H56154   2.892   1.283   9.598  0.5117 -1.2579 -1.1642
  416MOL0     H56155   2.794   1.145   9.557 -2.3363 -0.5543  0.4091
  416MOL0     H56156   2.671   1.452   9.291  0.4385 -0.4048 -0.2332
  416MOL0     H56157   2.439   1.243  10.137 -0.9338  0.1758 -0.4477
  416MOL0     H56158   2.147   1.231  10.329  1.4727  1.6309  2.1508
  416MOL0     H56159   2.255   1.098  10.372 -3.5131  1.7930  3.2120
  416MOL0     H56160   2.311   1.263  10.320 -1.8547  2.5443 -0.3954
  417MOL0     O56161   8.124  10.978   5.030 -0.1899 -0.3391  0.6065
  417MOL0     C56162   8.071  11.058   4.954  0.1548 -0.1477 -0.3667
  417MOL0     O56163   8.137  11.117   4.855  0.3065 -0.2909  0.0804
  417MOL0     C56164   8.276  11.114   4.852  0.5246 -0.0642 -0.3103
  417MOL0     C56165   8.326  11.247   4.851  0.3437  0.3184 -0.2608
  417MOL0     C56166   8.465  11.271   4.845  0.3393 -1.1175  0.0879
  417MOL0     C56167   8.558  11.158   4.859 -0.6934  0.6618  0.2425
  417MOL0     O56168   8.695  11.161   4.877  0.7997 -0.8205 -0.0262
  417MOL0     C56169   8.769  11.235   4.780 -0.2729 -0.0119  0.5160
  417MOL0     C56170   8.919  11.196   4.817 -0.2002 -0.8511  0.6630
  417MOL0     C56171   8.968  11.069   4.750  0.8844  0.5764 -0.2119
  417MOL0     C56172   8.986  11.099   4.602 -0.2123  0.2334 -0.4721
  417MOL0     C56173   9.062  10.984   4.542  0.6701 -0.1565 -0.6205
  417MOL0     C56174   9.072  11.023   4.394 -0.7219 -0.2762  0.2286
  417MOL0     C56175   9.152  10.917   4.314 -0.9980  0.0062 -0.3227
  417MOL0     C56176   9.288  10.950   4.256  0.4003 -0.0100  0.5808
  417MOL0     N56177   9.378  10.947   4.368  0.5759 -0.6937  0.1318
  417MOL0     C56178   9.385  11.023   4.486 -0.4897 -0.1371 -0.3288
  417MOL0     C56179   9.496  10.985   4.559  0.2776 -0.3060  0.2368
  417MOL0     C56180   9.543  11.043   4.685 -0.0795  0.8760  0.8341
  417MOL0     C56181   9.586  11.190   4.677  0.3804  1.1738 -0.0496
  417MOL0     C56182   9.700  11.229   4.768  1.4065 -0.1732  0.0793
  417MOL0     C56183   9.830  11.156   4.756  0.5065 -0.2066  0.2124
  417MOL0     O56184   9.889  11.183   4.629 -0.5176 -0.0754  0.1923
  417MOL0     C56185   9.970  11.076   4.593 -0.2709 -0.0276  0.0232
  417MOL0     C56186   9.953  11.020   4.467 -0.0665  0.2301 -0.2204
  417MOL0     C56187  10.048  10.927   4.432  0.2225  0.1810 -0.0471
  417MOL0     C56188  10.149  10.877   4.520 -0.2143  0.6903  0.6750
  417MOL0     C56189  10.242  10.773   4.461 -0.4907  0.8944 -0.5667
  417MOL0     O56190  10.238  10.738   4.336  0.1310  0.4882 -0.2510
  417MOL0     C56191  10.330  10.660   4.266 -0.2325  0.0864  0.3256
  417MOL0     C56192  10.291  10.537   4.210  0.7571  0.2516  0.0110
  417MOL0     C56193  10.382  10.452   4.137 -0.1108  0.3603 -0.0912
  417MOL0     C56194  10.512  10.498   4.131 -0.3485  0.3207  1.0393
  417MOL0     O56195  10.605  10.415   4.070  0.1135 -0.1154 -0.1540
  417MOL0     C56196  10.651  10.311   4.156 -0.4881 -0.1294  0.2892
  417MOL0     C56197  10.779  10.242   4.112 -0.3477  0.1904  0.3738
  417MOL0     C56198  10.774  10.206   3.966 -0.1427  0.3954  0.1622
  417MOL0     C56199  10.914  10.157   3.928  0.7478  1.1145 -0.1052
  417MOL0     C56200  10.909  10.088   3.794  0.9198 -0.6531  1.0488
  417MOL0     C56201  11.036  10.029   3.737  0.3196  0.3058 -0.9396
  417MOL0     C56202  11.018   9.994   3.591  1.1358  0.2456  0.8159
  417MOL0     C56203  11.103   9.888   3.541  0.0631  0.0500  0.5125
  417MOL0    Cl56204  11.275   9.888   3.607  0.0967  0.4306 -0.3726
  417MOL0     C56205  10.551  10.621   4.181 -0.3869 -0.4549 -0.3070
  417MOL0     C56206  10.463  10.700   4.251 -0.2333  0.6589 -1.0537
  417MOL0     O56207  10.329  10.728   4.544  0.3639  0.2933 -0.1892
  417MOL0     C56208  10.162  10.938   4.646  0.0768 -0.4552  0.6722
  417MOL0     C56209  10.075  11.032   4.679  0.4171 -0.2033  0.0584
  417MOL0     N56210   9.548  10.882   4.482 -0.6321  0.4535 -0.0191
  417MOL0     N56211   9.488  10.869   4.372  0.4173 -0.4141  0.1957
  417MOL0     C56212   8.497  11.029   4.873 -0.1413 -0.7357 -0.2573
  417MOL0     C56213   8.359  11.003   4.861 -0.1881 -0.7291 -0.3023
  417MOL0     C56214   7.913  11.069   4.963  0.4634  0.5087  0.3908
  417MOL0     C56215   7.841  10.979   5.049  0.5138 -0.4009 -0.4601
  417MOL0     C56216   7.701  10.983   5.058 -0.4021 -0.0023  0.1569
  417MOL0     C56217   7.624  11.074   4.989 -0.2861  0.4288 -0.0494
  417MOL0     O56218   7.492  11.081   4.984 -0.5850  0.1272 -0.4502
  417MOL0     C56219   7.413  10.969   5.023  0.2017  0.0916  0.0466
  417MOL0     C56220   7.326  11.007   5.142 -0.2608  0.1680  0.5959
  417MOL0     C56221   7.226  10.887   5.174 -0.5579 -0.7101 -0.7940
  417MOL0     C56222   7.145  10.916   5.302 -0.6695  1.2629 -0.3556
  417MOL0     C56223   7.220  10.885   5.426  0.3634 -0.6605  0.3989
  417MOL0     C56224   7.276  10.873   5.531 -0.1452  0.5899  0.4082
  417MOL0     C56225   7.694  11.167   4.910 -0.4358  0.7833  0.0968
  417MOL0     C56226   7.833  11.162   4.895 -0.3161 -0.4388 -0.0063
  417MOL0     C56227   7.890  11.268   4.809 -0.0898 -0.2957 -0.3023
  417MOL0     H56228   8.251  11.325   4.845 -0.8769 -0.7429  0.4120
  417MOL0     H56229   8.501  11.372   4.830  0.9850 -1.3130  0.2487
  417MOL0     H56230   8.741  11.210   4.678 -1.3379 -2.2834  1.3067
  417MOL0     H56231   8.749  11.341   4.801  0.2497  0.1945 -0.0010
  417MOL0     H56232   8.924  11.172   4.923 -1.0082  1.6116  1.3202
  417MOL0     H56233   8.977  11.284   4.789 -0.0872 -0.9898  0.4555
  417MOL0     H56234   8.898  10.985   4.756 -0.9036  1.9489 -0.8177
  417MOL0     H56235   9.057  11.022   4.794  0.8236  1.2533  0.6720
  417MOL0     H56236   8.891  11.103   4.548  0.5056 -2.3335 -2.1333
  417MOL0     H56237   9.053  11.184   4.586  0.7877 -0.5966 -0.8379
  417MOL0     H56238   9.154  10.954   4.593 -0.4232  0.2271  1.7059
  417MOL0     H56239   9.001  10.893   4.539 -1.8588  1.1487  3.5104
  417MOL0     H56240   8.967  11.025   4.360 -1.1532  1.0280  1.5636
  417MOL0     H56241   9.106  11.126   4.381 -1.4364  0.0951  1.1919
  417MOL0     H56242   9.083  10.876   4.239 -0.4490 -3.2477  0.8160
  417MOL0     H56243   9.169  10.833   4.382 -2.2873 -1.0101 -1.1902
  417MOL0     H56244   9.326  10.880   4.181  2.5757  4.0293 -2.4786
  417MOL0     H56245   9.295  11.049   4.210 -3.3040  0.6593  1.1200
  417MOL0     H56246   9.319  11.105   4.511  3.0693  2.8388  0.0865
  417MOL0     H56247   9.466  11.035   4.762  0.7620  2.6421  1.9506
  417MOL0     H56248   9.625  10.976   4.713  0.2055  0.6519 -0.4711
  417MOL0     H56249   9.613  11.212   4.573  0.3814 -1.2541 -0.6241
  417MOL0     H56250   9.496  11.244   4.709 -0.9195 -1.7490  1.6449
  417MOL0     H56251   9.664  11.187   4.863  0.0837 -0.7332 -0.6428
  417MOL0     H56252   9.698  11.338   4.770  2.8480 -0.1312  0.2424
  417MOL0     H56253   9.818  11.048   4.762 -2.6546  0.1014  1.3444
  417MOL0     H56254   9.888  11.202   4.837  2.2134  1.0926 -1.6289
  417MOL0     H56255   9.866  11.046   4.408 -3.0586 -1.9190  2.8528
  417MOL0     H56256  10.025  10.883   4.336 -0.6249 -0.6486  0.5174
  417MOL0     H56257  10.192  10.506   4.242 -0.1112  1.5302 -1.3134
  417MOL0     H56258  10.350  10.352   4.112 -1.3045  0.4942  0.8226
  417MOL0     H56259  10.666  10.357   4.254  0.6636 -0.7602  0.4282
  417MOL0     H56260  10.578  10.231   4.168 -1.4650  0.8962  1.4147
  417MOL0     H56261  10.867  10.305   4.125  1.2555 -1.4700 -1.7993
  417MOL0     H56262  10.798  10.153   4.172 -0.8586  0.3043  0.7098
  417MOL0     H56263  10.698  10.129   3.950 -0.0777  0.8440 -2.9350
  417MOL0     H56264  10.756  10.294   3.903  2.6038  0.7656 -0.2324
  417MOL0     H56265  10.948  10.093   4.010 -4.1058 -2.8424 -0.6735
  417MOL0     H56266  10.979  10.245   3.927  0.2823  1.4651  0.3078
  417MOL0     H56267  10.892  10.170   3.723  2.6192 -0.9680  0.2173
  417MOL0     H56268  10.831  10.012   3.787  0.2959 -0.0767  1.6510
  417MOL0     H56269  11.114  10.104   3.755 -1.0725  1.9850 -1.6481
  417MOL0     H56270  11.063   9.939   3.793  0.8182  2.2090  2.1240
  417MOL0     H56271  11.057  10.081   3.537 -0.9277  0.6714 -0.0585
  417MOL0     H56272  10.915   9.988   3.556  0.4629  1.0338  2.5502
  417MOL0     H56273  11.053   9.795   3.571 -2.8681  1.6135  0.7961
  417MOL0     H56274  11.103   9.887   3.431 -0.3688  1.0743  0.4899
  417MOL0     H56275  10.657  10.645   4.174 -0.4185 -0.6705 -1.8555
  417MOL0     H56276  10.493  10.797   4.288 -0.5109 -0.0868  1.3195
  417MOL0     H56277  10.245  10.910   4.710  0.2109 -0.2437  0.5939
  417MOL0     H56278  10.093  11.064   4.781  2.2531 -1.9909  0.3561
  417MOL0     H56279   8.565  10.944   4.881 -0.9931 -1.3612  0.6120
  417MOL0     H56280   8.322  10.901   4.852 -0.8959 -0.5098  0.0612
  417MOL0     H56281   7.890  10.897   5.100  0.2700  1.0359  2.2930
  417MOL0     H56282   7.652  10.905   5.115 -1.2594  0.9349  0.7410
  417MOL0     H56283   7.467  10.875   5.036  0.4005  0.1112 -0.5593
  417MOL0     H56284   7.352  10.954   4.933  1.5014 -0.0686 -0.8511
  417MOL0     H56285   7.266  11.095   5.114  1.0399  0.8134 -0.3095
  417MOL0     H56286   7.390  11.032   5.226  0.3572 -0.4881  0.3254
  417MOL0     H56287   7.272  10.789   5.189 -0.2483 -0.0443  4.4017
  417MOL0     H56288   7.169  10.867   5.084  1.0501 -2.0507 -1.5643
  417MOL0     H56289   7.119  11.022   5.307 -1.8659  0.9873 -0.4811
  417MOL0     H56290   7.053  10.857   5.307 -0.2856  0.5772 -1.1831
  417MOL0     H56291   7.312  10.864   5.632  1.4747  1.4656 -0.0452
  417MOL0     H56292   7.647  11.248   4.855 -1.4026  1.3449  1.6495
  417MOL0     H56293   7.962  11.324   4.869  2.3918 -3.1917 -0.3036
  417MOL0     H56294   7.921  11.224   4.713  0.2459 -0.3293 -0.1783
  417MOL0     H56295   7.816  11.342   4.777  1.9630  2.0772  0.0733
  418MOL0     O56296  10.030   5.129   7.864 -1.0288 -0.1785 -0.1818
  418MOL0     C56297   9.989   5.135   7.740 -0.4146  0.4566 -0.5934
  418MOL0     O56298  10.070   5.152   7.628 -0.0896  0.4917 -0.0030
  418MOL0     C56299  10.207   5.151   7.641 -0.0514  0.9706  0.1347
  418MOL0     C56300  10.280   5.242   7.712 -0.2351 -0.6260 -0.7934
  418MOL0     C56301  10.415   5.223   7.747  1.4095 -0.5565 -0.2212
  418MOL0     C56302  10.495   5.123   7.685 -0.1427  0.2471  0.2517
  418MOL0     O56303  10.629   5.098   7.707  0.1057  0.6420  0.2710
  418MOL0     C56304  10.696   5.205   7.777  0.4237 -0.1078  0.1734
  418MOL0     C56305  10.844   5.185   7.749 -0.2153 -0.7010 -0.3972
  418MOL0     C56306  10.931   5.315   7.776 -0.8257 -0.7637  0.6906
  418MOL0     C56307  11.082   5.280   7.813  0.0536  0.1782 -0.0544
  418MOL0     C56308  11.151   5.212   7.699 -0.6219  0.4519 -0.1977
  418MOL0     C56309  11.262   5.121   7.756  0.3233 -0.8093  0.2123
  418MOL0     C56310  11.352   5.076   7.641 -0.9489 -0.1104  0.0658
  418MOL0     C56311  11.457   5.175   7.586  0.1533  0.4312 -0.0579
  418MOL0     N56312  11.583   5.191   7.665  0.5177 -0.1510 -0.5486
  418MOL0     C56313  11.598   5.270   7.772 -0.1200 -0.0542 -0.9262
  418MOL0     C56314  11.723   5.250   7.804  0.1498  0.2500  0.8995
  418MOL0     C56315  11.775   5.335   7.918 -0.5615  0.8165 -0.3329
  418MOL0     C56316  11.896   5.408   7.884 -0.2573 -0.5693 -0.0034
  418MOL0     C56317  11.939   5.464   8.014  0.1251 -0.6088 -0.8254
  418MOL0     C56318  12.031   5.365   8.081 -0.4919 -0.1492  0.7161
  418MOL0     O56319  12.060   5.409   8.206  0.5386 -0.1400  0.2575
  418MOL0     C56320  12.171   5.363   8.268 -0.3068  0.0693 -0.5641
  418MOL0     C56321  12.210   5.443   8.378  0.4747 -0.0248 -0.7297
  418MOL0     C56322  12.322   5.402   8.460 -0.1570 -0.0586 -0.1079
  418MOL0     C56323  12.398   5.290   8.424  0.3676  0.8665 -0.8130
  418MOL0     C56324  12.513   5.248   8.508 -0.3793 -0.0129  0.2073
  418MOL0     O56325  12.556   5.121   8.489 -0.3364 -0.0447 -0.3080
  418MOL0     C56326  12.657   5.072   8.566 -0.7488 -0.6686 -1.1367
  418MOL0     C56327  12.651   5.057   8.708  0.7843 -0.2162  0.2947
  418MOL0     C56328  12.758   5.006   8.785 -0.8960 -0.4735 -0.3917
  418MOL0     C56329  12.876   4.959   8.718 -0.4619 -0.5805  0.2854
  418MOL0     O56330  12.982   4.908   8.795  0.3434  0.3399  0.6524
  418MOL0     C56331  13.091   4.845   8.725  0.1106 -0.4829 -0.5291
  418MOL0     C56332  13.187   4.779   8.832 -0.2905  0.1799  0.8124
  418MOL0     C56333  13.308   4.709   8.759  0.6689 -0.0171  0.1088
  418MOL0     C56334  13.397   4.641   8.859 -0.3610 -0.3080  0.7914
  418MOL0     C56335  13.520   4.601   8.778 -0.1173  0.4747  0.0217
  418MOL0     C56336  13.636   4.518   8.841  0.9287  0.3055 -0.3962
  418MOL0     C56337  13.586   4.440   8.969  1.1264  0.6624  0.2340
  418MOL0     C56338  13.683   4.331   8.998  0.2434 -0.0344 -1.2832
  418MOL0    Cl56339  13.844   4.402   9.020  0.3946  0.1248 -0.0640
  418MOL0     C56340  12.883   4.973   8.577  0.9384 -0.3336 -0.3426
  418MOL0     C56341  12.777   5.031   8.504  0.0749 -0.2428  0.8299
  418MOL0     O56342  12.562   5.327   8.588  0.6182  0.5101 -0.3335
  418MOL0     C56343  12.360   5.214   8.312  0.6882  0.8146  0.3305
  418MOL0     C56344  12.248   5.253   8.236 -0.0870  0.3798 -0.0852
  418MOL0     N56345  11.783   5.165   7.720 -0.3632  0.1038  0.8918
  418MOL0     N56346  11.698   5.131   7.629 -0.4000  0.7590 -0.6318
  418MOL0     C56347  10.424   5.033   7.599 -0.7189  0.2831 -0.6267
  418MOL0     C56348  10.282   5.056   7.576  0.2020  0.5014 -0.5521
  418MOL0     C56349   9.854   5.106   7.706  1.0445  0.3462 -0.4181
  418MOL0     C56350   9.825   5.056   7.581  0.0497 -0.2011  0.0463
  418MOL0     C56351   9.693   5.029   7.552  0.1220  1.0992 -0.1066
  418MOL0     C56352   9.589   5.032   7.644  0.3377 -0.4643 -0.1668
  418MOL0     O56353   9.465   4.988   7.605 -0.3840  0.2752  0.0048
  418MOL0     C56354   9.401   4.888   7.684  0.2704  0.9211  0.7047
  418MOL0     C56355   9.353   4.766   7.598  0.9078 -1.0542  0.0013
  418MOL0     C56356   9.286   4.808   7.467  0.5037 -0.3247  0.4683
  418MOL0     C56357   9.233   4.689   7.390  1.0101  1.1909 -0.4956
  418MOL0     C56358   9.168   4.734   7.258 -0.1445 -0.4892 -0.3207
  418MOL0     C56359   9.116   4.763   7.156 -0.6610 -0.1547  0.1945
  418MOL0     C56360   9.616   5.092   7.764 -0.3943  0.1630 -0.1126
  418MOL0     C56361   9.748   5.129   7.796 -0.1919 -0.6270  0.6097
  418MOL0     C56362   9.773   5.186   7.940  0.7047  0.6309  0.0522
  418MOL0     H56363  10.216   5.315   7.761 -2.9395 -2.3075 -1.6138
  418MOL0     H56364  10.470   5.281   7.821  0.1246  1.3200 -0.6751
  418MOL0     H56365  10.660   5.298   7.732 -1.8296 -0.9350  0.1268
  418MOL0     H56366  10.679   5.202   7.885 -0.8107 -0.4192 -0.0231
  418MOL0     H56367  10.843   5.158   7.643  2.0770 -1.5244 -0.2591
  418MOL0     H56368  10.875   5.103   7.813 -0.3503 -0.4086  0.0489
  418MOL0     H56369  10.884   5.372   7.857  0.7496  2.5962 -0.5682
  418MOL0     H56370  10.937   5.374   7.684 -0.6307 -0.5288  0.8545
  418MOL0     H56371  11.143   5.366   7.842 -1.0032  0.4676  1.3725
  418MOL0     H56372  11.074   5.220   7.903  0.5848  1.6229  0.9898
  418MOL0     H56373  11.090   5.143   7.640 -1.7098  0.7468  0.5523
  418MOL0     H56374  11.192   5.285   7.629  1.2086 -2.6814 -2.6321
  418MOL0     H56375  11.321   5.175   7.830  2.5440 -0.8767 -1.4051
  418MOL0     H56376  11.223   5.033   7.810 -2.5140 -0.1724 -0.6594
  418MOL0     H56377  11.290   5.044   7.556  1.3918  0.7964 -2.1124
  418MOL0     H56378  11.398   4.981   7.672  0.8009  1.5989  3.1328
  418MOL0     H56379  11.487   5.131   7.491  1.0757 -0.8733  0.7914
  418MOL0     H56380  11.408   5.271   7.570 -2.1685 -0.2943  1.9569
  418MOL0     H56381  11.534   5.338   7.827  2.5263 -0.1650  2.6826
  418MOL0     H56382  11.702   5.414   7.940 -1.6005 -0.5786  1.5049
  418MOL0     H56383  11.775   5.271   8.006 -2.1943 -0.4979 -1.2416
  418MOL0     H56384  11.967   5.347   7.828  0.6685  2.3084 -2.2090
  418MOL0     H56385  11.874   5.491   7.816 -1.0331 -0.2013  0.6755
  418MOL0     H56386  11.849   5.491   8.068  0.9386 -0.4434  0.4762
  418MOL0     H56387  11.996   5.556   7.998 -0.3694  0.0913  1.2841
  418MOL0     H56388  12.118   5.372   8.015 -1.7937 -0.1470 -1.1017
  418MOL0     H56389  11.988   5.265   8.087 -1.6616  0.3765  1.5744
  418MOL0     H56390  12.135   5.508   8.420  0.2241 -2.3267  2.8700
  418MOL0     H56391  12.344   5.457   8.550 -2.7359  1.6791 -0.4423
  418MOL0     H56392  12.567   5.086   8.771 -1.1218  0.1379 -2.2693
  418MOL0     H56393  12.758   5.005   8.893  1.6487 -3.5708 -0.2643
  418MOL0     H56394  13.057   4.755   8.674  0.4640 -0.9750  0.0782
  418MOL0     H56395  13.135   4.922   8.660  0.1650 -1.2233 -1.3875
  418MOL0     H56396  13.222   4.856   8.900  0.7226  1.8946 -1.4973
  418MOL0     H56397  13.134   4.703   8.889 -0.1752  0.3835  1.1905
  418MOL0     H56398  13.276   4.631   8.690  0.4653  1.2166 -1.2403
  418MOL0     H56399  13.364   4.782   8.700  0.2852 -0.8802 -1.3526
  418MOL0     H56400  13.342   4.552   8.892 -0.2439 -1.8500 -2.6985
  418MOL0     H56401  13.420   4.712   8.939 -3.0065  2.2186 -0.5052
  418MOL0     H56402  13.559   4.693   8.735 -1.2989  1.5388  1.1384
  418MOL0     H56403  13.495   4.542   8.690  1.3378 -2.6564  1.5339
  418MOL0     H56404  13.665   4.445   8.765 -0.6776 -2.6952  1.6514
  418MOL0     H56405  13.715   4.589   8.868 -2.0372  3.5992  0.3937
  418MOL0     H56406  13.488   4.395   8.952  1.6418 -0.7487  0.8989
  418MOL0     H56407  13.583   4.513   9.052  1.0664 -0.0578  0.8769
  418MOL0     H56408  13.651   4.274   9.086 -2.3897  0.1131 -2.0734
  418MOL0     H56409  13.683   4.264   8.912 -0.5934  1.7129 -2.6997
  418MOL0     H56410  12.970   4.935   8.524  2.2389 -1.0998  2.1921
  418MOL0     H56411  12.787   5.047   8.397 -1.4072 -1.0336  0.5439
  418MOL0     H56412  12.419   5.128   8.283  0.9409  0.9316  0.4890
  418MOL0     H56413  12.222   5.184   8.156 -1.9419  1.9397 -0.9196
  418MOL0     H56414  10.474   4.950   7.550  1.3408 -0.1357  1.9873
  418MOL0     H56415  10.239   4.983   7.509  1.3384 -1.1748  0.4659
  418MOL0     H56416   9.895   5.054   7.498 -2.1227 -0.0618 -1.9012
  418MOL0     H56417   9.679   4.979   7.457  1.6617 -1.0989  0.7479
  418MOL0     H56418   9.316   4.945   7.721  2.6748  4.4968  1.2569
  418MOL0     H56419   9.461   4.847   7.767 -0.0371  1.5276  1.2407
  418MOL0     H56420   9.272   4.724   7.659 -1.0365  1.8849 -0.2966
  418MOL0     H56421   9.434   4.696   7.579 -0.3825 -2.3932 -0.8529
  418MOL0     H56422   9.364   4.861   7.411 -0.0715 -0.3870 -0.4226
  418MOL0     H56423   9.210   4.885   7.488 -0.0561 -1.2333  1.9258
  418MOL0     H56424   9.318   4.621   7.377  0.4036  0.1261  0.8805
  418MOL0     H56425   9.159   4.634   7.449  1.3250  1.6937  0.3763
  418MOL0     H56426   9.070   4.800   7.066 -0.5741  2.6076  1.1949
  418MOL0     H56427   9.540   5.105   7.840 -0.3914 -0.6850  0.0401
  418MOL0     H56428   9.827   5.107   7.992  0.7751 -0.5694 -1.7252
  418MOL0     H56429   9.830   5.279   7.933  0.5910  0.7198  0.2906
  418MOL0     H56430   9.683   5.200   8.001 -0.0290 -0.5198 -0.7377
  419MOL0     O56431   7.157   4.287   9.288 -0.7109 -0.3907 -0.1196
  419MOL0     C56432   7.171   4.212   9.381  0.4397  0.4707  0.1972
  419MOL0     O56433   7.291   4.152   9.416 -0.0837 -0.1088 -0.3963
  419MOL0     C56434   7.407   4.185   9.356  0.0008  0.3728  0.1709
  419MOL0     C56435   7.524   4.202   9.439  0.0771  0.7229  0.9610
  419MOL0     C56436   7.649   4.209   9.374 -0.1439 -0.2433  0.2994
  419MOL0     C56437   7.665   4.233   9.236 -0.0402 -0.0088 -0.1145
  419MOL0     O56438   7.781   4.233   9.167  0.1955  0.2850  0.6118
  419MOL0     C56439   7.909   4.250   9.225 -0.0636 -0.6798 -0.0623
  419MOL0     C56440   7.973   4.393   9.213 -0.0625  0.7038 -0.7089
  419MOL0     C56441   8.000   4.441   9.072 -0.0520  0.0554  0.3926
  419MOL0     C56442   8.115   4.376   8.992  0.2259 -0.5473  0.2716
  419MOL0     C56443   8.256   4.426   9.018 -0.7309 -0.0386  0.3317
  419MOL0     C56444   8.326   4.476   8.896  0.0216  0.4288  0.3886
  419MOL0     C56445   8.472   4.514   8.920  0.6782 -0.1997  0.5617
  419MOL0     C56446   8.561   4.556   8.793  0.0627  0.0685 -0.6961
  419MOL0     N56447   8.690   4.606   8.839 -0.2436  0.0891 -0.1734
  419MOL0     C56448   8.804   4.525   8.871 -0.8165  0.2977  0.1761
  419MOL0     C56449   8.899   4.614   8.901 -0.1555 -0.4835 -0.1325
  419MOL0     C56450   9.045   4.594   8.934  0.6251 -0.6609  0.9386
  419MOL0     C56451   9.136   4.655   8.834 -0.2646  0.0374  0.4689
  419MOL0     C56452   9.276   4.605   8.875  0.6368 -0.6351 -0.2301
  419MOL0     C56453   9.377   4.660   8.764  0.3786 -0.0805  0.5772
  419MOL0     O56454   9.503   4.606   8.799  0.4241  0.0756  0.3003
  419MOL0     C56455   9.609   4.631   8.719 -0.0281  1.0510  0.2833
  419MOL0     C56456   9.611   4.695   8.595 -0.3631 -0.0471  0.1176
  419MOL0     C56457   9.740   4.730   8.538  0.1693 -0.7811 -0.1887
  419MOL0     C56458   9.864   4.702   8.597  0.5282 -0.3534 -0.5799
  419MOL0     C56459   9.994   4.748   8.546  0.2498 -0.2847  0.3376
  419MOL0     O56460  10.101   4.705   8.613  0.3654 -0.0141 -0.7164
  419MOL0     C56461  10.216   4.779   8.615  0.3770 -0.5261 -0.9124
  419MOL0     C56462  10.304   4.761   8.507  0.5181 -1.0559  0.0563
  419MOL0     C56463  10.421   4.834   8.505 -0.2030 -0.3344 -0.5671
  419MOL0     C56464  10.457   4.921   8.606 -0.0631  0.1823  0.8566
  419MOL0     O56465  10.577   4.994   8.609 -0.1639  0.2642  0.0491
  419MOL0     C56466  10.689   4.937   8.539 -1.4295 -0.8146  0.6842
  419MOL0     C56467  10.811   5.026   8.581 -0.2371  0.1173 -0.2686
  419MOL0     C56468  10.802   5.162   8.514  1.1687  0.2229 -0.5735
  419MOL0     C56469  10.887   5.264   8.589 -0.5612  0.0151  0.7760
  419MOL0     C56470  11.039   5.232   8.560  0.0173 -0.1311  0.1730
  419MOL0     C56471  11.121   5.312   8.656 -0.5950 -0.0942 -0.5967
  419MOL0     C56472  11.264   5.262   8.638  0.5886 -1.0544  0.2540
  419MOL0     C56473  11.353   5.355   8.715  0.0888 -0.7253  0.4912
  419MOL0    Cl56474  11.338   5.310   8.884 -0.4204 -0.1777 -0.1511
  419MOL0     C56475  10.374   4.933   8.713 -0.2026  0.5118 -0.4820
  419MOL0     C56476  10.254   4.863   8.723  0.0841  0.5990 -0.8706
  419MOL0     O56477   9.996   4.829   8.455  0.2980 -0.6599  0.2704
  419MOL0     C56478   9.851   4.634   8.723  0.0839 -0.1374  0.5136
  419MOL0     C56479   9.732   4.593   8.780 -0.0719 -0.8608  0.6159
  419MOL0     N56480   8.845   4.738   8.906  0.2351  0.2774  0.0594
  419MOL0     N56481   8.718   4.732   8.865 -0.3424 -0.9921 -0.2612
  419MOL0     C56482   7.552   4.213   9.156 -0.2416 -0.0626 -0.2739
  419MOL0     C56483   7.426   4.201   9.215 -0.0282  0.5450  0.4149
  419MOL0     C56484   7.059   4.191   9.474 -1.2340 -1.0003  0.1750
  419MOL0     C56485   7.095   4.145   9.598 -0.3125  0.6338 -0.9831
  419MOL0     C56486   7.004   4.120   9.700 -0.3673 -0.1978 -0.6508
  419MOL0     C56487   6.869   4.140   9.683 -0.6110  0.0490  0.5206
  419MOL0     O56488   6.784   4.115   9.786 -0.0959  0.3646 -0.1765
  419MOL0     C56489   6.762   4.226   9.866  0.9533  0.4867 -0.3665
  419MOL0     C56490   6.639   4.184   9.948 -0.6203 -0.3639 -0.3979
  419MOL0     C56491   6.508   4.199   9.886  0.1276 -0.8529 -0.0648
  419MOL0     C56492   6.472   4.101   9.781  0.4233  0.3128  0.2284
  419MOL0     C56493   6.335   4.124   9.741  0.7278 -0.6069  0.3151
  419MOL0     C56494   6.213   4.142   9.728 -0.4342 -0.1182 -0.0402
  419MOL0     C56495   6.827   4.165   9.548  1.4945 -1.0289 -0.6435
  419MOL0     C56496   6.921   4.206   9.451  0.1267 -0.1393  0.1758
  419MOL0     C56497   6.875   4.243   9.312  0.3367  0.4570  0.8609
  419MOL0     H56498   7.516   4.183   9.546 -3.0508  3.8670  1.4553
  419MOL0     H56499   7.728   4.214   9.449 -1.1899  1.1390  1.3798
  419MOL0     H56500   7.903   4.223   9.331  1.8688 -1.4979 -0.1275
  419MOL0     H56501   7.981   4.180   9.182  1.5737  2.4371 -2.8425
  419MOL0     H56502   8.056   4.397   9.284 -1.5874 -0.3869  1.2748
  419MOL0     H56503   7.897   4.458   9.259 -1.4983 -1.8149  0.7224
  419MOL0     H56504   8.015   4.549   9.082 -0.3415  0.3254 -1.6501
  419MOL0     H56505   7.906   4.438   9.016 -0.1718 -0.9168  0.6312
  419MOL0     H56506   8.117   4.267   9.002  1.8969 -0.5924 -0.2033
  419MOL0     H56507   8.093   4.397   8.887  2.0409 -2.3338 -0.5432
  419MOL0     H56508   8.259   4.501   9.098 -0.8744 -1.0664  1.3229
  419MOL0     H56509   8.310   4.338   9.053  0.2305  0.9407  1.4020
  419MOL0     H56510   8.329   4.389   8.830  1.7328 -0.2328  1.2567
  419MOL0     H56511   8.263   4.554   8.854 -1.7231 -1.6261 -0.9967
  419MOL0     H56512   8.518   4.422   8.958 -0.3454 -2.1537 -2.5332
  419MOL0     H56513   8.475   4.592   8.997  1.2298  1.1941 -0.8243
  419MOL0     H56514   8.574   4.466   8.732  0.6467 -4.2519  4.9539
  419MOL0     H56515   8.508   4.639   8.745 -1.1826  0.8969  1.9304
  419MOL0     H56516   8.813   4.417   8.870  3.5698  0.4790  0.5839
  419MOL0     H56517   9.067   4.641   9.030  2.0904  3.0819 -1.0266
  419MOL0     H56518   9.063   4.486   8.938  0.5979 -0.7101 -0.0850
  419MOL0     H56519   9.112   4.623   8.733 -1.0195 -0.2906  0.7451
  419MOL0     H56520   9.133   4.764   8.840  1.2452  0.0477  2.0812
  419MOL0     H56521   9.275   4.496   8.886 -1.5533 -0.7293 -0.9861
  419MOL0     H56522   9.307   4.645   8.972 -3.3340  2.4439  0.0210
  419MOL0     H56523   9.383   4.770   8.761  5.3718 -0.1016  1.4199
  419MOL0     H56524   9.344   4.626   8.666  2.1723 -1.3618  0.3724
  419MOL0     H56525   9.524   4.729   8.540 -1.4915 -2.3165  0.3744
  419MOL0     H56526   9.736   4.793   8.449  2.2176  1.7353  1.3489
  419MOL0     H56527  10.273   4.699   8.423 -1.3217 -0.2326  0.0712
  419MOL0     H56528  10.497   4.818   8.428 -1.1517 -3.1505 -1.0179
  419MOL0     H56529  10.718   4.834   8.563  0.7096 -0.6563 -0.8934
  419MOL0     H56530  10.678   4.955   8.432  0.6508 -0.2620  0.5115
  419MOL0     H56531  10.816   5.041   8.689 -1.5979  2.2741 -0.4352
  419MOL0     H56532  10.899   4.966   8.558 -0.3931 -0.4802  0.6325
  419MOL0     H56533  10.825   5.150   8.408 -0.3491 -4.1050 -0.5861
  419MOL0     H56534  10.699   5.194   8.528  0.5450 -2.1795  0.9095
  419MOL0     H56535  10.862   5.261   8.696 -0.8132 -0.6649  0.6985
  419MOL0     H56536  10.867   5.361   8.542  1.8307 -0.2356 -0.9091
  419MOL0     H56537  11.064   5.251   8.455  0.5816  0.2089  0.3633
  419MOL0     H56538  11.053   5.125   8.582  3.9189  0.2620  0.3374
  419MOL0     H56539  11.109   5.420   8.643  1.6040  0.1771 -0.8104
  419MOL0     H56540  11.102   5.287   8.761  1.1611 -0.7682 -0.4044
  419MOL0     H56541  11.296   5.276   8.534 -1.4920 -1.7988 -0.5246
  419MOL0     H56542  11.280   5.158   8.670 -0.1922 -0.8363  1.3600
  419MOL0     H56543  11.460   5.351   8.690  0.2423  0.7486  0.7762
  419MOL0     H56544  11.322   5.458   8.698 -2.9076 -2.1195 -4.2448
  419MOL0     H56545  10.402   4.989   8.802 -0.2991  0.8465 -0.6652
  419MOL0     H56546  10.200   4.854   8.818  0.0715  0.0486 -0.9219
  419MOL0     H56547   9.939   4.596   8.775 -2.9967 -3.2336  4.1575
  419MOL0     H56548   9.719   4.532   8.869 -0.9569 -1.8723 -0.1891
  419MOL0     H56549   7.561   4.221   9.049  0.8643  1.8142 -0.0883
  419MOL0     H56550   7.340   4.206   9.149 -0.1245  0.8445  0.5642
  419MOL0     H56551   7.198   4.130   9.629 -1.2677 -2.3809  1.1416
  419MOL0     H56552   7.035   4.086   9.798 -0.3050 -0.8422 -0.8950
  419MOL0     H56553   6.734   4.312   9.805  0.1581  0.3796 -0.1611
  419MOL0     H56554   6.840   4.248   9.940 -0.9775  1.4918  1.4585
  419MOL0     H56555   6.646   4.249  10.036  0.3941 -0.4150 -0.4330
  419MOL0     H56556   6.648   4.081   9.983 -0.0779 -0.6709 -1.4128
  419MOL0     H56557   6.495   4.298   9.841 -3.7205 -0.4924  1.3907
  419MOL0     H56558   6.433   4.193   9.966  0.4789 -0.6378  0.2852
  419MOL0     H56559   6.528   4.132   9.692 -2.5419  1.3806 -1.4376
  419MOL0     H56560   6.482   3.997   9.813 -1.9295 -0.9429 -2.6095
  419MOL0     H56561   6.108   4.153   9.707 -0.2400 -0.4900 -1.2945
  419MOL0     H56562   6.720   4.158   9.531  1.3931  1.9702 -1.6744
  419MOL0     H56563   6.766   4.255   9.317  0.4163  2.2192 -0.6212
  419MOL0     H56564   6.912   4.338   9.273  2.8110 -0.1850  1.4352
  419MOL0     H56565   6.896   4.160   9.244 -0.4695 -0.0228  1.1886
  420MOL0     O56566   0.304   6.216   3.512  0.1582 -0.0095 -0.1175
  420MOL0     C56567   0.296   6.115   3.587 -0.1744 -0.1802  0.4158
  420MOL0     O56568   0.405   6.067   3.658  0.2101  0.5506 -0.1806
  420MOL0     C56569   0.535   6.106   3.617 -0.4071  0.8585 -0.7407
  420MOL0     C56570   0.579   6.115   3.485 -0.5423  0.3601  0.3785
  420MOL0     C56571   0.717   6.139   3.465 -0.0311  0.5235  0.4489
  420MOL0     C56572   0.809   6.154   3.575 -0.0875 -0.1682 -0.5075
  420MOL0     O56573   0.938   6.193   3.544 -0.3651  0.3262 -0.0825
  420MOL0     C56574   1.022   6.252   3.642 -0.1660 -0.4544 -0.9134
  420MOL0     C56575   1.166   6.259   3.593 -0.1101 -0.4191  0.0269
  420MOL0     C56576   1.256   6.303   3.717  0.2317 -0.1893  0.1659
  420MOL0     C56577   1.392   6.339   3.655 -0.5307 -0.2977  0.3639
  420MOL0     C56578   1.496   6.323   3.765 -0.1514 -0.5898  0.2790
  420MOL0     C56579   1.625   6.413   3.731 -0.0832 -0.1464 -0.0094
  420MOL0     C56580   1.715   6.412   3.856  0.6319 -0.3331  0.4827
  420MOL0     C56581   1.763   6.268   3.873 -0.3949 -0.3887 -0.6830
  420MOL0     N56582   1.899   6.259   3.922 -0.5198  0.5504  0.4051
  420MOL0     C56583   1.942   6.305   4.036 -1.1221 -0.2983  0.0137
  420MOL0     C56584   2.074   6.289   4.038  0.8891 -1.0396 -0.5266
  420MOL0     C56585   2.162   6.308   4.155  0.1675 -0.2962  0.1886
  420MOL0     C56586   2.290   6.371   4.115 -0.1623  0.5028  0.0523
  420MOL0     C56587   2.383   6.406   4.227  0.4212  0.2105 -0.2678
  420MOL0     C56588   2.425   6.291   4.319 -0.1093  1.1494 -0.1680
  420MOL0     O56589   2.537   6.229   4.258 -0.8934  0.0265 -0.4938
  420MOL0     C56590   2.607   6.123   4.311 -0.4505 -0.5321  0.3751
  420MOL0     C56591   2.540   6.010   4.351  0.5504  1.1482  0.6344
  420MOL0     C56592   2.614   5.902   4.394  0.3849  0.2936 -0.2921
  420MOL0     C56593   2.756   5.899   4.399  0.5403  0.0569  0.4481
  420MOL0     C56594   2.831   5.780   4.427 -0.4721 -0.1023 -0.0951
  420MOL0     O56595   2.955   5.771   4.384  0.9775  0.5099 -0.0636
  420MOL0     C56596   3.028   5.656   4.400 -0.1125 -0.2012 -0.5395
  420MOL0     C56597   2.988   5.524   4.394 -0.1140 -0.4003  0.0481
  420MOL0     C56598   3.079   5.418   4.401  0.1947 -0.1962 -0.1409
  420MOL0     C56599   3.213   5.443   4.420 -0.2330  0.5159 -0.3465
  420MOL0     O56600   3.307   5.341   4.421 -0.0574  0.4566 -0.0535
  420MOL0     C56601   3.318   5.276   4.542 -0.2782  0.0078  0.0489
  420MOL0     C56602   3.342   5.352   4.671  0.2927 -0.4946  0.4402
  420MOL0     C56603   3.393   5.261   4.781 -0.6976 -0.2499 -0.5828
  420MOL0     C56604   3.353   5.315   4.918 -0.4851  0.7181 -0.7744
  420MOL0     C56605   3.391   5.218   5.022 -0.0948  0.2460 -0.2709
  420MOL0     C56606   3.333   5.074   5.016  0.2433 -0.5344  0.6054
  420MOL0     C56607   3.325   5.004   5.151  0.5830 -0.0275 -0.1410
  420MOL0     C56608   3.254   4.877   5.138 -0.1872  0.2103  0.5581
  420MOL0    Cl56609   3.240   4.792   5.292 -0.0522  0.2165 -0.3345
  420MOL0     C56610   3.253   5.573   4.422 -0.5533 -0.3585  0.1343
  420MOL0     C56611   3.166   5.672   4.405  1.0473  0.1679  0.3097
  420MOL0     O56612   2.777   5.682   4.479  0.6129 -0.2506  0.2040
  420MOL0     C56613   2.827   6.011   4.356  0.7321 -0.3025  1.3270
  420MOL0     C56614   2.747   6.124   4.310 -0.1112  0.6961  0.2375
  420MOL0     N56615   2.114   6.224   3.921  0.9200 -0.0719  0.7780
  420MOL0     N56616   2.007   6.213   3.850  0.3077  0.5988 -1.5168
  420MOL0     C56617   0.751   6.146   3.704  0.1302 -0.2563 -0.0632
  420MOL0     C56618   0.623   6.107   3.724  0.7892  0.2075 -0.3056
  420MOL0     C56619   0.164   6.048   3.596  0.4445 -0.5347  1.0631
  420MOL0     C56620   0.047   6.127   3.581 -0.5286 -0.2421  0.2401
  420MOL0     C56621  -0.079   6.073   3.601  0.5456  0.6546 -0.5044
  420MOL0     C56622  -0.097   5.930   3.626  0.0571  0.2802 -0.0689
  420MOL0     O56623  -0.212   5.861   3.647  0.1704 -0.2237 -1.0520
  420MOL0     C56624  -0.338   5.938   3.632  0.2263 -0.5177  0.4307
  420MOL0     C56625  -0.446   5.833   3.615 -0.8958 -0.1974 -0.1859
  420MOL0     C56626  -0.575   5.907   3.634  0.0350 -0.4460 -0.4018
  420MOL0     C56627  -0.693   5.816   3.604 -0.3638 -0.3590 -0.6411
  420MOL0     C56628  -0.724   5.706   3.699 -0.0583 -0.6751  0.0681
  420MOL0     C56629  -0.740   5.608   3.767 -0.3333  0.2577  0.1913
  420MOL0     C56630   0.020   5.854   3.644 -0.3500 -0.4223  0.6177
  420MOL0     C56631   0.143   5.910   3.620 -0.2259  0.0421  1.2174
  420MOL0     C56632   0.265   5.818   3.637 -0.0534  0.0186 -0.7544
  420MOL0     H56633   0.513   6.115   3.399 -2.5318  1.9971  1.8134
  420MOL0     H56634   0.753   6.161   3.365  2.2178 -0.3060  1.0204
  420MOL0     H56635   0.975   6.345   3.674  3.1162  0.1465  2.9483
  420MOL0     H56636   1.019   6.189   3.731 -0.1836 -0.6807 -1.0736
  420MOL0     H56637   1.175   6.328   3.509  1.5993 -0.3745  0.2132
  420MOL0     H56638   1.204   6.161   3.560  2.2341  0.6844 -0.8035
  420MOL0     H56639   1.258   6.231   3.799  2.2411 -0.1781  0.1644
  420MOL0     H56640   1.213   6.395   3.759  0.9093 -0.2920  1.1088
  420MOL0     H56641   1.425   6.272   3.575  1.0781  0.1648  0.6037
  420MOL0     H56642   1.393   6.442   3.617  1.9209 -1.3233 -2.8596
  420MOL0     H56643   1.459   6.347   3.865 -0.7529 -1.5478  0.3049
  420MOL0     H56644   1.522   6.217   3.773 -1.0078 -0.8795 -0.4980
  420MOL0     H56645   1.686   6.373   3.650 -1.4932 -1.1458 -0.6395
  420MOL0     H56646   1.601   6.516   3.701 -1.3800  0.4234  2.7041
  420MOL0     H56647   1.663   6.450   3.944  1.1885  0.3101  0.5401
  420MOL0     H56648   1.797   6.482   3.836  0.4683 -0.0615  0.7580
  420MOL0     H56649   1.698   6.207   3.937  1.5286 -0.1144  1.6602
  420MOL0     H56650   1.759   6.224   3.773  0.8190 -0.1902 -0.8244
  420MOL0     H56651   1.880   6.349   4.114 -2.9127 -1.4435 -0.7100
  420MOL0     H56652   2.100   6.370   4.221  0.9755 -0.0256  0.7085
  420MOL0     H56653   2.183   6.209   4.195 -1.2555 -0.1636  1.3474
  420MOL0     H56654   2.348   6.304   4.050  1.3175  1.4289  0.3691
  420MOL0     H56655   2.261   6.464   4.067 -0.0842  0.6788  0.3427
  420MOL0     H56656   2.332   6.483   4.284 -2.1775 -1.9426  0.4850
  420MOL0     H56657   2.469   6.464   4.190  0.3706  0.6663  0.3241
  420MOL0     H56658   2.350   6.212   4.331  1.3394 -0.3131 -0.2590
  420MOL0     H56659   2.459   6.325   4.417  1.7124 -0.0707 -0.3147
  420MOL0     H56660   2.432   6.005   4.344  0.6898 -2.4629 -1.8156
  420MOL0     H56661   2.564   5.814   4.434  1.3010 -0.3719 -0.5890
  420MOL0     H56662   2.884   5.496   4.379 -1.1314  2.9123 -0.0198
  420MOL0     H56663   3.047   5.316   4.384 -0.5936  0.1340 -0.6777
  420MOL0     H56664   3.221   5.229   4.554 -0.7638  1.2819  1.4022
  420MOL0     H56665   3.399   5.205   4.525  0.5496  0.4961  1.7273
  420MOL0     H56666   3.425   5.422   4.656  0.6165 -0.7571  0.9901
  420MOL0     H56667   3.256   5.415   4.696  0.3771  0.1770 -0.8818
  420MOL0     H56668   3.349   5.161   4.770  0.5035 -1.1526  2.0325
  420MOL0     H56669   3.500   5.242   4.778 -0.7598 -1.0769  1.0874
  420MOL0     H56670   3.244   5.326   4.918 -0.3743  2.7488 -3.1774
  420MOL0     H56671   3.392   5.414   4.943 -1.0975  0.5041  1.2030
  420MOL0     H56672   3.360   5.262   5.117 -3.0219 -2.5715  0.2791
  420MOL0     H56673   3.500   5.220   5.011  0.1430  1.3874  1.8272
  420MOL0     H56674   3.231   5.073   4.975 -0.2109 -1.3824  1.6977
  420MOL0     H56675   3.402   5.016   4.954 -0.5819 -2.0967  1.0884
  420MOL0     H56676   3.284   5.069   5.230  1.4975 -0.1910  0.4818
  420MOL0     H56677   3.424   4.978   5.188  0.4070 -1.2773 -0.4950
  420MOL0     H56678   3.151   4.907   5.118 -0.7834  0.0534  3.0479
  420MOL0     H56679   3.301   4.817   5.060  0.0980 -0.1010  0.9658
  420MOL0     H56680   3.358   5.592   4.440 -0.1458 -2.4080  0.1549
  420MOL0     H56681   3.192   5.777   4.407 -0.6768  0.6735 -0.9787
  420MOL0     H56682   2.936   6.007   4.354  0.6868 -1.9523  0.9857
  420MOL0     H56683   2.788   6.214   4.266 -2.1239  0.4687 -2.3575
  420MOL0     H56684   0.808   6.160   3.796 -1.1999  0.4808  0.6731
  420MOL0     H56685   0.589   6.063   3.817 -1.2767 -2.3743 -2.1260
  420MOL0     H56686   0.053   6.232   3.553 -2.3593  0.0432  0.7724
  420MOL0     H56687  -0.165   6.138   3.588  1.0982  1.2183 -1.3867
  420MOL0     H56688  -0.327   6.006   3.547  0.5228  0.7552  1.4675
  420MOL0     H56689  -0.354   6.000   3.720 -0.4398 -1.3516  0.9162
  420MOL0     H56690  -0.433   5.751   3.686  3.2539  2.6624  2.8781
  420MOL0     H56691  -0.442   5.795   3.513 -1.5413 -0.0653 -0.2651
  420MOL0     H56692  -0.589   5.992   3.567 -0.7674  1.8292  2.4624
  420MOL0     H56693  -0.584   5.941   3.737 -0.8844 -0.1792 -0.5681
  420MOL0     H56694  -0.786   5.874   3.601 -0.2484 -0.1767 -3.5016
  420MOL0     H56695  -0.673   5.777   3.503  3.0766 -0.7631  0.0780
  420MOL0     H56696  -0.750   5.517   3.823  1.1693 -0.5696 -0.8091
  420MOL0     H56697  -0.001   5.751   3.669 -2.3063 -0.6537 -1.6203
  420MOL0     H56698   0.336   5.838   3.717 -1.2839 -1.2986  0.7302
  420MOL0     H56699   0.223   5.717   3.638 -1.3023  0.5240  0.3821
  420MOL0     H56700   0.325   5.812   3.545  0.3540 -0.0785 -0.4827
  421MOL0     O56701   5.147   0.642   5.354  0.0158  0.6554 -0.9922
  421MOL0     C56702   5.057   0.703   5.292 -0.3140  0.5292  0.2178
  421MOL0     O56703   5.051   0.831   5.269 -0.4984 -0.4582  0.3816
  421MOL0     C56704   5.165   0.906   5.303 -0.0327  0.5334  0.5154
  421MOL0     C56705   5.298   0.865   5.265 -0.2000 -0.4021  0.1655
  421MOL0     C56706   5.408   0.946   5.287 -0.6084 -0.1255 -0.8529
  421MOL0     C56707   5.393   1.071   5.350  0.3629  0.2801  0.8700
  421MOL0     O56708   5.507   1.146   5.367 -0.4896  0.0400  0.3458
  421MOL0     C56709   5.505   1.279   5.325  0.7737 -0.4337 -0.5379
  421MOL0     C56710   5.644   1.333   5.319 -0.0293  0.3263 -0.1131
  421MOL0     C56711   5.694   1.343   5.460  0.0642  0.5205  0.5489
  421MOL0     C56712   5.834   1.415   5.465 -0.3828 -0.2335  0.2738
  421MOL0     C56713   5.880   1.427   5.607  0.2006 -0.2692  0.3376
  421MOL0     C56714   6.013   1.499   5.612 -0.8014 -0.0919  0.0844
  421MOL0     C56715   6.137   1.435   5.545 -0.3997  0.0512 -0.0700
  421MOL0     C56716   6.242   1.534   5.541 -0.4345 -0.8026  0.3916
  421MOL0     N56717   6.357   1.479   5.464 -0.3572  0.3754  0.9318
  421MOL0     C56718   6.449   1.400   5.528 -0.3518 -0.0001 -0.0443
  421MOL0     C56719   6.548   1.387   5.432 -0.4409  0.5657 -0.2344
  421MOL0     C56720   6.670   1.312   5.439 -0.5465 -1.0503 -0.8223
  421MOL0     C56721   6.786   1.377   5.519 -0.7725  0.2516 -0.4175
  421MOL0     C56722   6.757   1.398   5.667 -0.9095 -0.2377  0.1902
  421MOL0     C56723   6.883   1.444   5.745  0.1706 -0.2002 -0.1751
  421MOL0     O56724   6.965   1.331   5.793  0.6580 -0.6665 -0.3600
  421MOL0     C56725   7.093   1.341   5.839 -0.4140  0.9974 -0.3884
  421MOL0     C56726   7.139   1.214   5.881 -0.8848  0.9298  0.0257
  421MOL0     C56727   7.270   1.199   5.942  0.4095  0.6460 -0.2539
  421MOL0     C56728   7.344   1.320   5.956  0.2045  0.4194 -0.5264
  421MOL0     C56729   7.477   1.308   6.004 -0.7518  1.1663 -0.3782
  421MOL0     O56730   7.516   1.188   6.059  0.1150 -0.0660 -0.4902
  421MOL0     C56731   7.640   1.157   6.106  0.6262 -0.2638 -0.6899
  421MOL0     C56732   7.668   1.021   6.116  0.5580 -0.4115  0.0738
  421MOL0     C56733   7.789   0.982   6.168 -0.0804  0.5481  0.2032
  421MOL0     C56734   7.893   1.065   6.180  0.8741  0.1089 -0.3714
  421MOL0     O56735   8.016   1.015   6.216 -1.1922  1.0893 -0.3856
  421MOL0     C56736   8.031   0.979   6.358 -0.4407 -0.3548  0.2113
  421MOL0     C56737   8.108   1.089   6.430 -0.4501  0.0721 -0.6869
  421MOL0     C56738   8.263   1.088   6.396 -0.0788 -0.2393 -0.1874
  421MOL0     C56739   8.325   1.214   6.450  0.3521  0.3391 -0.1142
  421MOL0     C56740   8.482   1.230   6.424  0.0005  0.2269  0.3793
  421MOL0     C56741   8.523   1.243   6.279 -0.3549  0.1955 -0.3958
  421MOL0     C56742   8.668   1.291   6.264  0.2929  0.2095 -0.0571
  421MOL0     C56743   8.764   1.209   6.345  0.3463  0.5527 -0.0790
  421MOL0    Cl56744   8.927   1.232   6.271  0.5987 -0.6030 -0.3697
  421MOL0     C56745   7.871   1.204   6.158  0.3508  0.7546  0.0633
  421MOL0     C56746   7.743   1.252   6.129 -0.1757 -0.4816  0.1534
  421MOL0     O56747   7.547   1.406   5.979  0.2669  0.1601 -0.5476
  421MOL0     C56748   7.290   1.445   5.921  0.9339 -0.0609 -0.1855
  421MOL0     C56749   7.166   1.455   5.856  0.6898  0.0445  0.3795
  421MOL0     N56750   6.513   1.463   5.317 -0.1569  0.0392  0.4251
  421MOL0     N56751   6.402   1.523   5.343 -0.5823 -0.0209  0.0134
  421MOL0     C56752   5.266   1.122   5.374 -0.1132  0.6258 -0.1240
  421MOL0     C56753   5.154   1.036   5.363 -0.8434 -0.6521 -0.6875
  421MOL0     C56754   4.926   0.634   5.277  0.4227  0.8302 -0.3612
  421MOL0     C56755   4.807   0.706   5.278  0.0361 -0.5088  0.1367
  421MOL0     C56756   4.690   0.645   5.282 -0.0622  0.5918 -0.1316
  421MOL0     C56757   4.680   0.509   5.291 -0.1670  0.5066 -0.4958
  421MOL0     O56758   4.560   0.432   5.289  0.1102 -0.1627  0.3132
  421MOL0     C56759   4.436   0.496   5.240 -0.0955  0.3633  0.0434
  421MOL0     C56760   4.352   0.573   5.336 -0.5379  0.4846 -0.0985
  421MOL0     C56761   4.287   0.479   5.446  0.8876  0.0089 -0.2911
  421MOL0     C56762   4.381   0.389   5.528 -0.5756  0.3827  0.1967
  421MOL0     C56763   4.311   0.361   5.656 -0.3538  0.1027 -0.4851
  421MOL0     C56764   4.281   0.334   5.769  0.4106  0.0868  0.5989
  421MOL0     C56765   4.795   0.431   5.300 -0.1519 -1.0378  1.0774
  421MOL0     C56766   4.917   0.491   5.276  0.4131 -0.1893 -0.2829
  421MOL0     C56767   5.032   0.402   5.256 -0.3608  0.3707  0.6661
  421MOL0     H56768   5.304   0.774   5.207 -0.9784  0.9230 -2.0936
  421MOL0     H56769   5.514   0.922   5.280 -0.4601  0.0102  0.7126
  421MOL0     H56770   5.459   1.295   5.227 -0.6721  1.2305  0.3657
  421MOL0     H56771   5.444   1.335   5.396  2.0023 -1.0892  1.0776
  421MOL0     H56772   5.660   1.429   5.269  1.7387 -0.2274 -0.7076
  421MOL0     H56773   5.708   1.264   5.262  1.0864  0.3881  1.0178
  421MOL0     H56774   5.715   1.245   5.503 -2.4219 -0.0336  0.6511
  421MOL0     H56775   5.624   1.388   5.532 -1.7487  0.6127 -1.1916
  421MOL0     H56776   5.910   1.358   5.410  0.1197  0.3113  0.3900
  421MOL0     H56777   5.842   1.516   5.424 -1.0745 -0.5086 -0.5837
  421MOL0     H56778   5.812   1.480   5.675  0.9929  0.4855  0.5524
  421MOL0     H56779   5.889   1.331   5.657  0.3011  0.1525  1.1499
  421MOL0     H56780   6.005   1.601   5.573  0.3668 -0.5128 -1.3557
  421MOL0     H56781   6.037   1.526   5.716 -1.8217  2.6674 -0.3020
  421MOL0     H56782   6.114   1.410   5.441  2.2753  1.4330 -1.0834
  421MOL0     H56783   6.171   1.350   5.605  0.5118  0.9977  0.7757
  421MOL0     H56784   6.212   1.616   5.474  1.4610 -2.5942 -2.8747
  421MOL0     H56785   6.267   1.562   5.644 -3.0000  1.0869  0.6178
  421MOL0     H56786   6.442   1.356   5.627 -0.0631  0.8644  0.3725
  421MOL0     H56787   6.649   1.214   5.485 -1.6220 -1.5735 -2.3115
  421MOL0     H56788   6.703   1.289   5.337  1.7585 -0.4108 -0.2740
  421MOL0     H56789   6.879   1.320   5.511 -0.7676  0.5179 -3.1514
  421MOL0     H56790   6.812   1.477   5.482 -1.7341  0.4333 -0.6119
  421MOL0     H56791   6.718   1.308   5.717 -1.7797  0.3101  0.5089
  421MOL0     H56792   6.678   1.473   5.672 -1.2140 -0.3650 -1.8003
  421MOL0     H56793   6.838   1.491   5.832 -1.3415 -0.6399 -0.6885
  421MOL0     H56794   6.941   1.516   5.687 -0.2864 -1.0702 -1.7850
  421MOL0     H56795   7.074   1.130   5.856  0.8816 -0.7723  0.9414
  421MOL0     H56796   7.303   1.102   5.976 -1.6230 -0.9281 -2.4359
  421MOL0     H56797   7.588   0.958   6.080  0.2764  0.1916 -0.3873
  421MOL0     H56798   7.824   0.882   6.190  0.6519  1.5665  4.7138
  421MOL0     H56799   7.934   0.960   6.404  0.3188 -3.6991  0.6344
  421MOL0     H56800   8.086   0.885   6.354  0.6222  0.2018  1.1160
  421MOL0     H56801   8.072   1.190   6.407  0.9604  0.6249 -0.5666
  421MOL0     H56802   8.096   1.073   6.537  2.9268 -2.8872 -0.5588
  421MOL0     H56803   8.312   0.999   6.437 -3.0716 -1.2672  1.4964
  421MOL0     H56804   8.268   1.088   6.287 -0.7430 -2.1936 -0.2658
  421MOL0     H56805   8.323   1.215   6.559  1.3540 -3.6864  0.1140
  421MOL0     H56806   8.267   1.297   6.409 -0.9363  0.5322  1.9963
  421MOL0     H56807   8.537   1.150   6.475 -1.7946  0.6967  3.2688
  421MOL0     H56808   8.506   1.326   6.470 -0.8578  1.4540 -1.6007
  421MOL0     H56809   8.523   1.147   6.226 -0.5457  0.5033 -0.9681
  421MOL0     H56810   8.447   1.308   6.235 -0.7935 -1.7157 -2.7513
  421MOL0     H56811   8.680   1.397   6.290  0.2363 -0.1893  1.7116
  421MOL0     H56812   8.694   1.275   6.159 -0.3389 -0.1244 -0.1698
  421MOL0     H56813   8.760   1.251   6.446  0.1833 -0.6826  0.4478
  421MOL0     H56814   8.730   1.105   6.338 -1.2747  1.1211 -1.3660
  421MOL0     H56815   7.960   1.267   6.160  0.1689  0.9970  1.3210
  421MOL0     H56816   7.727   1.359   6.120  1.1875 -0.1310  1.3368
  421MOL0     H56817   7.355   1.531   5.932  2.2481 -0.2495 -4.4273
  421MOL0     H56818   7.119   1.546   5.822  0.9181  0.7568  1.9010
  421MOL0     H56819   5.248   1.216   5.426 -0.9467 -1.4320  3.7522
  421MOL0     H56820   5.065   1.077   5.410 -1.0772 -3.2898  1.4534
  421MOL0     H56821   4.807   0.814   5.277 -1.0300 -0.4982 -0.7116
  421MOL0     H56822   4.610   0.718   5.276 -0.6685 -0.0161  0.4269
  421MOL0     H56823   4.376   0.417   5.193 -1.1361  1.3948 -0.4290
  421MOL0     H56824   4.458   0.565   5.158 -0.2987  1.4828  0.9015
  421MOL0     H56825   4.263   0.615   5.287 -0.9156 -2.6858 -2.3988
  421MOL0     H56826   4.417   0.654   5.372  0.2696 -0.3922  0.4794
  421MOL0     H56827   4.204   0.414   5.417 -0.7456  1.7001  0.4242
  421MOL0     H56828   4.242   0.552   5.514  0.3219  0.6694 -1.3418
  421MOL0     H56829   4.401   0.295   5.476 -0.3664 -0.0367  1.0166
  421MOL0     H56830   4.481   0.425   5.551 -0.3579 -0.3559  0.4335
  421MOL0     H56831   4.269   0.300   5.869 -0.5483  0.1302  0.5109
  421MOL0     H56832   4.793   0.323   5.299 -0.5642 -1.0386 -0.5161
  421MOL0     H56833   4.991   0.302   5.241  0.3853  0.1131  0.2906
  421MOL0     H56834   5.088   0.430   5.166 -0.3100 -2.7949 -0.3853
  421MOL0     H56835   5.087   0.381   5.348  0.2009 -0.6658  0.1146
  422MOL0     O56836   7.535  10.272   9.458  0.0233 -0.1552 -0.2402
  422MOL0     C56837   7.467  10.210   9.374 -0.7357 -0.5606  0.0244
  422MOL0     O56838   7.520  10.122   9.286 -0.1389  0.2676  0.0147
  422MOL0     C56839   7.652  10.130   9.258  0.4453 -0.7401  0.2347
  422MOL0     C56840   7.727  10.250   9.244 -0.6219 -0.3547  0.6223
  422MOL0     C56841   7.868  10.241   9.222  0.2810  0.8055 -0.8459
  422MOL0     C56842   7.929  10.110   9.219  0.6927  0.4109 -0.0812
  422MOL0     O56843   8.063  10.079   9.203 -0.6667  0.7633  1.1124
  422MOL0     C56844   8.135  10.176   9.136 -0.8884  0.4480  0.4455
  422MOL0     C56845   8.273  10.123   9.110  0.2800  0.4313 -0.8285
  422MOL0     C56846   8.328  10.080   9.242 -0.0399 -0.1942  0.1171
  422MOL0     C56847   8.475  10.083   9.232  0.5747 -0.8065 -0.6302
  422MOL0     C56848   8.539  10.014   9.353  0.0649 -0.2425 -0.2231
  422MOL0     C56849   8.518   9.862   9.359  0.2920 -0.1405 -0.7873
  422MOL0     C56850   8.565   9.806   9.493 -0.3597 -0.2246  0.1347
  422MOL0     C56851   8.530   9.655   9.518 -0.2264 -0.2006  0.4606
  422MOL0     N56852   8.610   9.560   9.430  0.1896 -0.6525 -0.0210
  422MOL0     C56853   8.739   9.526   9.465 -0.5034  0.9081  0.4432
  422MOL0     C56854   8.786   9.452   9.361 -0.3251 -0.0660 -0.7123
  422MOL0     C56855   8.918   9.386   9.382  0.4473  0.8020  0.8742
  422MOL0     C56856   9.016   9.396   9.264  0.0255  0.1717  0.1867
  422MOL0     C56857   9.067   9.529   9.223 -0.0312 -0.1699 -0.8516
  422MOL0     C56858   9.184   9.521   9.119 -0.0643  0.5570  0.0838
  422MOL0     O56859   9.299   9.467   9.190 -0.0734 -0.1207  0.1504
  422MOL0     C56860   9.413   9.460   9.109 -0.2607  0.1761  0.0540
  422MOL0     C56861   9.421   9.519   8.983  0.3829 -0.0274  0.1837
  422MOL0     C56862   9.545   9.517   8.920 -0.3786 -1.3617 -0.5552
  422MOL0     C56863   9.656   9.467   8.974 -0.0025  0.5243  0.3310
  422MOL0     C56864   9.779   9.469   8.894  0.2377 -0.6005  0.4025
  422MOL0     O56865   9.873   9.389   8.951 -0.4241  0.4146 -0.8922
  422MOL0     C56866  10.010   9.399   8.919  0.5167  0.9004 -1.4897
  422MOL0     C56867  10.073   9.520   8.912 -0.6715 -0.4160 -0.0034
  422MOL0     C56868  10.210   9.531   8.890 -0.1424 -0.1974  0.3454
  422MOL0     C56869  10.294   9.412   8.879  0.1191 -0.1300  1.2999
  422MOL0     O56870  10.425   9.416   8.834  0.0129  0.4462  0.3486
  422MOL0     C56871  10.492   9.537   8.817 -0.1636 -0.1435 -0.2226
  422MOL0     C56872  10.631   9.506   8.763  0.1396 -0.2321  0.4945
  422MOL0     C56873  10.715   9.642   8.745 -0.5954  0.6745  0.4438
  422MOL0     C56874  10.858   9.610   8.706  0.3192  0.2951 -0.2884
  422MOL0     C56875  10.942   9.740   8.703  0.8122  0.4378  0.1360
  422MOL0     C56876  10.868   9.867   8.657  0.5600  0.6154 -0.3612
  422MOL0     C56877  10.967   9.981   8.682 -0.2052 -0.0468 -0.0157
  422MOL0     C56878  10.904  10.111   8.624  0.0441  0.8534  0.2950
  422MOL0    Cl56879  11.044  10.233   8.633 -0.0439 -0.4218  0.0788
  422MOL0     C56880  10.223   9.293   8.880 -0.1881 -0.4165 -0.4614
  422MOL0     C56881  10.078   9.285   8.892  0.1273 -0.1980  0.7589
  422MOL0     O56882   9.795   9.553   8.804 -0.2013  0.2648  0.3901
  422MOL0     C56883   9.652   9.400   9.096 -0.0174 -1.0290 -0.3392
  422MOL0     C56884   9.529   9.406   9.167 -0.4425 -0.1158 -0.4809
  422MOL0     N56885   8.689   9.444   9.262 -0.1042 -0.0287  0.0795
  422MOL0     N56886   8.593   9.515   9.298  0.6622  0.1326  0.5585
  422MOL0     C56887   7.848   9.997   9.225 -0.5527 -0.0910 -0.3450
  422MOL0     C56888   7.711  10.010   9.253  0.2625  0.3725 -0.3901
  422MOL0     C56889   7.315  10.210   9.386  0.1423 -0.2761  0.4018
  422MOL0     C56890   7.248  10.088   9.348 -0.1685  0.0349 -0.4596
  422MOL0     C56891   7.114  10.080   9.364 -0.4512 -0.3313 -0.4044
  422MOL0     C56892   7.030  10.183   9.394  0.4107 -0.0061  0.0306
  422MOL0     O56893   6.892  10.178   9.376 -0.4070 -0.1101  0.1672
  422MOL0     C56894   6.822  10.055   9.353 -0.7297  0.1740 -0.7833
  422MOL0     C56895   6.670  10.073   9.329 -0.1753  0.2310  0.6203
  422MOL0     C56896   6.601  10.192   9.389 -0.3713 -0.5215  0.7029
  422MOL0     C56897   6.614  10.206   9.541 -0.5023 -0.5751 -0.0983
  422MOL0     C56898   6.565  10.103   9.631 -0.0402 -0.0614  0.3173
  422MOL0     C56899   6.535  10.024   9.705 -0.1029  0.1807 -0.5065
  422MOL0     C56900   7.100  10.303   9.435 -0.0591  0.1913 -0.4504
  422MOL0     C56901   7.235  10.318   9.426 -0.2096  0.9813 -0.7176
  422MOL0     C56902   7.285  10.448   9.475  0.4996  0.4951 -0.7061
  422MOL0     H56903   7.684  10.349   9.239  2.1702  0.8995 -2.7267
  422MOL0     H56904   7.918  10.330   9.187  4.7791 -0.9833  0.2238
  422MOL0     H56905   8.099  10.196   9.035  2.0301  1.0667 -0.5743
  422MOL0     H56906   8.151  10.275   9.181  3.3369  0.3370 -0.4635
  422MOL0     H56907   8.331  10.200   9.057 -1.0433  3.4663  1.7617
  422MOL0     H56908   8.260  10.040   9.040  1.4755 -2.4948  2.1335
  422MOL0     H56909   8.304   9.976   9.269  1.3083 -0.4232  0.5013
  422MOL0     H56910   8.302  10.143   9.327  2.4661 -0.8761  1.4715
  422MOL0     H56911   8.520  10.039   9.142  2.3569  0.4114 -0.3866
  422MOL0     H56912   8.509  10.187   9.227  0.8764 -0.9133 -0.8194
  422MOL0     H56913   8.646  10.034   9.353 -0.2789  2.0929 -2.6827
  422MOL0     H56914   8.502  10.054   9.448  0.1277  0.3159 -0.4283
  422MOL0     H56915   8.414   9.828   9.349 -0.5364  1.9045  0.2435
  422MOL0     H56916   8.584   9.821   9.282  2.6690  0.1532  0.9943
  422MOL0     H56917   8.522   9.867   9.573  1.1128  0.1233  0.6959
  422MOL0     H56918   8.672   9.825   9.508 -0.3058 -0.5295  0.1535
  422MOL0     H56919   8.541   9.636   9.625  0.1277  1.1931  0.6934
  422MOL0     H56920   8.425   9.636   9.495 -0.0290 -0.0809 -0.6084
  422MOL0     H56921   8.801   9.547   9.551  2.3482  2.1659 -1.7407
  422MOL0     H56922   8.972   9.428   9.468  3.5089  2.6738 -1.7305
  422MOL0     H56923   8.882   9.284   9.394 -3.0575  2.0681  2.7569
  422MOL0     H56924   9.108   9.339   9.281 -0.6710 -0.7641  0.9122
  422MOL0     H56925   8.971   9.345   9.178  4.1759 -1.4336 -1.3034
  422MOL0     H56926   9.093   9.582   9.316 -1.5248 -0.0031 -0.5129
  422MOL0     H56927   8.982   9.583   9.182 -0.1440 -0.6778 -1.3000
  422MOL0     H56928   9.204   9.618   9.073  0.4689 -0.8127 -2.7760
  422MOL0     H56929   9.161   9.473   9.024  0.6508  1.6841 -0.6825
  422MOL0     H56930   9.339   9.567   8.930 -0.7144 -0.6660  1.2573
  422MOL0     H56931   9.550   9.570   8.826  0.9259 -3.1173 -1.5399
  422MOL0     H56932  10.026   9.615   8.934  0.1180 -0.1445  0.5644
  422MOL0     H56933  10.264   9.625   8.894 -0.1660 -0.2338  2.0106
  422MOL0     H56934  10.441   9.609   8.751  2.2811  3.1445  1.2058
  422MOL0     H56935  10.497   9.585   8.915  3.5484 -1.6322  0.4569
  422MOL0     H56936  10.682   9.446   8.839  0.0023  1.7243  2.2256
  422MOL0     H56937  10.622   9.457   8.666 -1.6854 -1.7551  1.3737
  422MOL0     H56938  10.666   9.706   8.672  3.0317  0.8232 -2.1232
  422MOL0     H56939  10.719   9.698   8.839  0.6046  0.7671  0.3624
  422MOL0     H56940  10.858   9.568   8.605  1.6805 -0.1112 -0.1414
  422MOL0     H56941  10.901   9.545   8.783 -0.7256  0.4488  0.4375
  422MOL0     H56942  11.028   9.729   8.637  0.2388  0.9337 -0.7163
  422MOL0     H56943  10.973   9.759   8.806  0.0755 -0.2747  0.4930
  422MOL0     H56944  10.849   9.864   8.549 -1.8079 -1.8883  0.0195
  422MOL0     H56945  10.773   9.882   8.709  1.8050 -1.1747  2.7064
  422MOL0     H56946  11.066   9.981   8.636 -0.1872  2.1019 -0.1049
  422MOL0     H56947  10.977   9.990   8.791  0.9195  1.6008 -0.2209
  422MOL0     H56948  10.872  10.091   8.521 -0.0782 -2.5885  0.8775
  422MOL0     H56949  10.818  10.134   8.688 -1.5650 -1.5052 -0.8302
  422MOL0     H56950  10.282   9.207   8.846  0.6682 -0.3138  0.7077
  422MOL0     H56951  10.032   9.187   8.889 -2.8152  1.1130  0.2355
  422MOL0     H56952   9.740   9.359   9.144 -1.3652 -3.5505  0.1740
  422MOL0     H56953   9.515   9.381   9.272 -1.1159 -0.0241 -0.5388
  422MOL0     H56954   7.900   9.902   9.217 -0.8910 -0.2739 -0.3665
  422MOL0     H56955   7.656   9.922   9.285 -0.5731  0.5360 -1.3136
  422MOL0     H56956   7.298  10.004   9.302  1.6991  0.4515  0.7300
  422MOL0     H56957   7.084   9.981   9.333 -0.8008 -0.1080 -0.7970
  422MOL0     H56958   6.826  10.001   9.448 -1.5777  2.0370  0.3638
  422MOL0     H56959   6.857   9.997   9.267 -2.4592 -3.2381  0.6347
  422MOL0     H56960   6.615   9.988   9.369  0.3935  0.7337  2.5828
  422MOL0     H56961   6.663  10.086   9.221  1.7059 -0.8087  0.3313
  422MOL0     H56962   6.494  10.175   9.371  0.0806 -0.4656 -2.7879
  422MOL0     H56963   6.632  10.283   9.336 -0.6166 -1.5537 -1.2780
  422MOL0     H56964   6.721  10.218   9.560 -0.8923 -0.9011  2.6460
  422MOL0     H56965   6.564  10.297   9.576  0.0499 -0.4296  0.3186
  422MOL0     H56966   6.516   9.948   9.778  1.5269 -0.3971 -0.6480
  422MOL0     H56967   7.034  10.386   9.459 -1.9849 -0.9152 -1.6333
  422MOL0     H56968   7.200  10.514   9.500 -1.7208 -2.7643  1.1026
  422MOL0     H56969   7.350  10.436   9.562 -0.2155 -2.5885 -0.5056
  422MOL0     H56970   7.339  10.500   9.396 -0.5751  0.9412 -1.1785
  423MOL0     O56971   7.140   5.016   2.061  0.0434 -0.6814 -0.3399
  423MOL0     C56972   7.071   5.016   1.959  0.3086 -0.0778  0.7933
  423MOL0     O56973   7.118   5.044   1.826 -0.1552 -0.1335  0.4523
  423MOL0     C56974   7.256   5.012   1.801 -0.6673 -0.7022 -0.3445
  423MOL0     C56975   7.362   5.087   1.845 -0.0832 -0.4632  0.6456
  423MOL0     C56976   7.493   5.049   1.817 -0.0822 -0.0706  0.0659
  423MOL0     C56977   7.519   4.922   1.763 -0.9042  0.1654  0.6150
  423MOL0     O56978   7.652   4.880   1.768  0.6516 -0.1136 -0.4156
  423MOL0     C56979   7.717   4.873   1.644  0.2234 -1.4792  0.6746
  423MOL0     C56980   7.828   4.757   1.651  0.5393 -0.3573  0.2840
  423MOL0     C56981   7.932   4.776   1.537 -0.1238  0.1976 -0.2586
  423MOL0     C56982   8.009   4.648   1.522 -0.2541  0.2113  0.7262
  423MOL0     C56983   8.082   4.637   1.386 -0.2066 -0.0535 -0.4770
  423MOL0     C56984   8.175   4.521   1.348  0.3942 -0.4423 -0.8172
  423MOL0     C56985   8.198   4.533   1.195 -0.0731 -0.1307  0.3637
  423MOL0     C56986   8.296   4.433   1.138 -0.1800  0.4572 -0.0535
  423MOL0     N56987   8.434   4.434   1.197 -0.0253  0.3540 -0.9218
  423MOL0     C56988   8.478   4.384   1.320 -0.4770 -0.0012  0.3680
  423MOL0     C56989   8.598   4.431   1.333  0.4538  0.1919 -0.1996
  423MOL0     C56990   8.699   4.407   1.438  0.7503  0.6507 -0.1730
  423MOL0     C56991   8.782   4.280   1.421  0.8170 -0.1227  0.0507
  423MOL0     C56992   8.866   4.245   1.551 -0.3794 -0.9490  0.2703
  423MOL0     C56993   8.891   4.098   1.564 -0.6137 -0.6744 -0.4296
  423MOL0     O56994   8.996   4.072   1.662 -0.4104 -0.1268  0.0417
  423MOL0     C56995   9.119   4.088   1.623 -0.8171 -0.8421  0.3312
  423MOL0     C56996   9.184   4.072   1.500  0.9372 -0.1700  0.6687
  423MOL0     C56997   9.317   4.101   1.478  0.3638  0.0474 -0.1942
  423MOL0     C56998   9.397   4.138   1.581  0.3529 -0.4280  0.6754
  423MOL0     C56999   9.535   4.168   1.556  0.0347  0.6477 -0.1047
  423MOL0     O57000   9.605   4.227   1.653  0.6824  0.4330  0.2759
  423MOL0     C57001   9.743   4.241   1.616 -0.1052 -0.3922 -0.6836
  423MOL0     C57002   9.795   4.362   1.559 -0.7640 -0.3948  0.3476
  423MOL0     C57003   9.931   4.364   1.522 -0.0409 -0.2238  0.1931
  423MOL0     C57004  10.020   4.261   1.557  0.9241  0.5518 -0.3116
  423MOL0     O57005  10.158   4.272   1.525  0.6820 -0.2290 -0.8587
  423MOL0     C57006  10.255   4.181   1.592  0.3199  0.8702 -0.1424
  423MOL0     C57007  10.400   4.209   1.558  0.4089  0.0517 -0.4395
  423MOL0     C57008  10.492   4.118   1.646 -0.0193 -0.4532  0.1832
  423MOL0     C57009  10.636   4.121   1.595 -0.6166  0.6429  0.3037
  423MOL0     C57010  10.736   4.047   1.682 -0.1048 -0.3741  0.0694
  423MOL0     C57011  10.879   4.088   1.634 -0.0965 -0.3144  0.5304
  423MOL0     C57012  10.976   3.999   1.700  0.6432  0.3022 -0.8986
  423MOL0     C57013  11.122   4.038   1.662  0.3074  0.4193 -0.1908
  423MOL0    Cl57014  11.226   3.901   1.718  0.0026 -0.4833  0.2268
  423MOL0     C57015   9.969   4.145   1.621  0.3874  0.2445 -0.9149
  423MOL0     C57016   9.827   4.142   1.656 -0.5222 -0.6002  0.1338
  423MOL0     O57017   9.575   4.123   1.449  0.3116 -0.5122 -0.7773
  423MOL0     C57018   9.343   4.158   1.703 -0.2554 -0.4663 -0.6200
  423MOL0     C57019   9.204   4.138   1.718 -0.5910 -1.1663 -0.7442
  423MOL0     N57020   8.630   4.507   1.219 -0.3689 -0.0034 -0.7035
  423MOL0     N57021   8.532   4.510   1.142  0.3078  0.1599 -0.2695
  423MOL0     C57022   7.410   4.838   1.725 -0.5141 -0.3103  0.4625
  423MOL0     C57023   7.277   4.893   1.740 -0.7605  0.8231  0.2247
  423MOL0     C57024   6.929   5.003   1.982  0.0535 -0.1278 -0.4924
  423MOL0     C57025   6.839   5.034   1.879  0.2534  0.0390 -0.1357
  423MOL0     C57026   6.703   5.020   1.902  0.1621 -0.1359  0.7800
  423MOL0     C57027   6.646   4.993   2.024 -0.0100  0.4815 -0.6912
  423MOL0     O57028   6.506   4.965   2.029  0.1256  0.6848 -0.1302
  423MOL0     C57029   6.436   4.978   2.154 -1.0328  0.1766 -0.4130
  423MOL0     C57030   6.287   5.000   2.129 -0.0963  0.1693  0.3966
  423MOL0     C57031   6.206   5.078   2.235 -0.5362  0.3956 -0.0656
  423MOL0     C57032   6.056   5.105   2.199 -0.3368 -0.0920 -0.6921
  423MOL0     C57033   6.034   5.198   2.087  0.3579 -0.1028 -0.0141
  423MOL0     C57034   6.019   5.278   1.998 -0.0618  0.2806 -0.0948
  423MOL0     C57035   6.732   4.974   2.130  0.0598 -0.2326  0.1979
  423MOL0     C57036   6.876   4.972   2.115  0.7830 -0.4060 -0.1394
  423MOL0     C57037   6.953   4.946   2.237 -0.0114 -0.4513  0.7661
  423MOL0     H57038   7.356   5.183   1.895  0.5045 -0.5384  0.8711
  423MOL0     H57039   7.568   5.117   1.858  1.3983 -1.9016  0.5207
  423MOL0     H57040   7.648   4.842   1.566 -1.1080  2.1178  0.2255
  423MOL0     H57041   7.770   4.963   1.612  0.5525 -1.8397  0.1893
  423MOL0     H57042   7.768   4.666   1.638  0.4678 -0.2273 -0.3460
  423MOL0     H57043   7.890   4.750   1.740  1.6778  1.7597 -0.2699
  423MOL0     H57044   7.981   4.872   1.556 -2.2082  1.7204 -1.9938
  423MOL0     H57045   7.876   4.795   1.445 -2.4865 -0.2425  0.9929
  423MOL0     H57046   8.081   4.632   1.603  0.4003  1.7826  0.5056
  423MOL0     H57047   7.952   4.556   1.539  2.8701 -1.8581  0.8778
  423MOL0     H57048   8.009   4.640   1.304  1.2321  0.7390 -1.7867
  423MOL0     H57049   8.134   4.732   1.374 -1.3758  0.6452 -0.1256
  423MOL0     H57050   8.271   4.514   1.399  0.2549 -1.3556 -0.6615
  423MOL0     H57051   8.116   4.434   1.378 -0.4912  0.6870  0.8495
  423MOL0     H57052   8.240   4.631   1.169  1.0012 -0.8227 -0.5916
  423MOL0     H57053   8.102   4.514   1.147 -1.0361  1.5762  1.4857
  423MOL0     H57054   8.254   4.335   1.162  0.6553  0.4935  1.7758
  423MOL0     H57055   8.312   4.450   1.031  1.9849 -1.8260 -0.1790
  423MOL0     H57056   8.432   4.341   1.409  0.4991  1.5220  1.6771
  423MOL0     H57057   8.767   4.492   1.441  0.6110  0.8096 -1.0717
  423MOL0     H57058   8.651   4.397   1.536  0.8667 -1.6132 -0.2805
  423MOL0     H57059   8.703   4.205   1.407 -1.1937  1.4508  2.1001
  423MOL0     H57060   8.833   4.294   1.325  1.2890  0.8737  0.4289
  423MOL0     H57061   8.829   4.281   1.648 -1.1364 -2.6049  0.6290
  423MOL0     H57062   8.963   4.294   1.537 -0.9133  0.2737  0.7091
  423MOL0     H57063   8.904   4.043   1.470  0.7128  1.2582 -1.4493
  423MOL0     H57064   8.805   4.043   1.605 -0.8746 -0.6402 -0.9298
  423MOL0     H57065   9.112   4.042   1.424 -0.3941  2.7727  0.6229
  423MOL0     H57066   9.358   4.088   1.379 -0.9189 -2.5210 -0.4765
  423MOL0     H57067   9.737   4.451   1.536  1.4492  1.2104  0.6932
  423MOL0     H57068   9.964   4.458   1.479 -0.1834 -1.1402 -2.0831
  423MOL0     H57069  10.231   4.171   1.698 -1.3662 -1.7825 -0.6859
  423MOL0     H57070  10.236   4.080   1.555  0.1546  0.8642 -0.0446
  423MOL0     H57071  10.412   4.204   1.449 -1.0929  2.3666 -0.8083
  423MOL0     H57072  10.411   4.315   1.582 -0.3360  1.2048 -4.3532
  423MOL0     H57073  10.487   4.148   1.751  1.2521  0.3278  0.0510
  423MOL0     H57074  10.462   4.013   1.648 -0.4489 -0.3207  0.9002
  423MOL0     H57075  10.661   4.227   1.580  1.1665  0.1604 -0.3684
  423MOL0     H57076  10.640   4.063   1.503 -1.7452  2.7763 -1.1632
  423MOL0     H57077  10.714   3.940   1.677  1.2937 -0.7021  0.4223
  423MOL0     H57078  10.723   4.094   1.780  1.3535  1.2350 -0.4580
  423MOL0     H57079  10.890   4.064   1.528  3.4351 -1.7803  1.1060
  423MOL0     H57080  10.899   4.194   1.651 -0.2627 -0.2139  0.1260
  423MOL0     H57081  10.952   3.895   1.674  1.8480 -0.6208  1.3577
  423MOL0     H57082  10.968   3.996   1.809  3.0245  1.0950 -0.6444
  423MOL0     H57083  11.130   4.051   1.553 -1.0399  1.9732 -0.1574
  423MOL0     H57084  11.134   4.134   1.713 -3.2492  1.4225 -0.9716
  423MOL0     H57085  10.029   4.063   1.657 -1.7169 -2.1779 -2.5588
  423MOL0     H57086   9.803   4.061   1.724 -0.3778  0.6266  1.7104
  423MOL0     H57087   9.407   4.183   1.787  0.6572 -1.4677 -1.0027
  423MOL0     H57088   9.158   4.141   1.817 -0.8052  0.0175 -0.8717
  423MOL0     H57089   7.431   4.740   1.684  0.5605 -0.2709  0.8937
  423MOL0     H57090   7.206   4.821   1.701  0.4978  0.3438 -1.3178
  423MOL0     H57091   6.875   5.067   1.782  1.6869 -0.7989  0.0866
  423MOL0     H57092   6.654   5.037   1.806  1.5716  0.8003  0.1860
  423MOL0     H57093   6.474   5.066   2.207 -1.5128 -0.1550  0.5171
  423MOL0     H57094   6.453   4.890   2.218  2.4418  1.0567  0.0625
  423MOL0     H57095   6.237   4.905   2.110  0.4229 -0.0789  0.2406
  423MOL0     H57096   6.286   5.053   2.034 -2.0303 -1.1492 -0.3807
  423MOL0     H57097   6.258   5.171   2.262  0.0286  0.3646 -1.0013
  423MOL0     H57098   6.203   5.017   2.325 -0.6971 -2.6057 -1.9705
  423MOL0     H57099   6.002   5.013   2.173 -0.9693  0.4494 -1.3292
  423MOL0     H57100   6.016   5.148   2.292  1.5164  0.4044 -0.0870
  423MOL0     H57101   5.992   5.346   1.920 -0.7638 -1.8178 -1.7663
  423MOL0     H57102   6.691   4.955   2.229  0.8189  2.5177  1.1170
  423MOL0     H57103   6.996   5.042   2.269 -2.6500  0.3800  2.1084
  423MOL0     H57104   6.894   4.918   2.325 -1.0975  3.5565  1.5203
  423MOL0     H57105   7.033   4.873   2.228  0.8150  0.2890  1.7802
  424MOL0     O57106   2.002  10.299   4.282  0.2489 -0.3018  0.4879
  424MOL0     C57107   1.935  10.313   4.381 -0.1664 -0.9949 -0.3995
  424MOL0     O57108   1.972  10.265   4.507  0.5030 -1.1944  0.1538
  424MOL0     C57109   2.098  10.206   4.523 -0.4208 -0.3115 -0.5193
  424MOL0     C57110   2.134  10.091   4.462 -1.3319  0.5545  0.0378
  424MOL0     C57111   2.262  10.021   4.481 -0.8474 -0.3623 -0.1391
  424MOL0     C57112   2.352  10.080   4.573 -0.8470 -0.8095  0.8321
  424MOL0     O57113   2.477  10.029   4.607 -0.0772  0.0092  0.1707
  424MOL0     C57114   2.547   9.953   4.506  0.1243 -0.2761  0.4184
  424MOL0     C57115   2.685   9.904   4.556  0.4236 -0.0098  0.2799
  424MOL0     C57116   2.773  10.023   4.602  0.1971  0.5431  0.1947
  424MOL0     C57117   2.875   9.962   4.703 -0.8991 -0.6962  0.2357
  424MOL0     C57118   2.999  10.042   4.740  0.6809 -0.5371  0.2007
  424MOL0     C57119   3.091   9.948   4.819  0.1873 -0.0163  0.4010
  424MOL0     C57120   3.228  10.021   4.849 -0.3655 -0.2061  0.8798
  424MOL0     C57121   3.221  10.117   4.964 -0.1989  0.2332  0.1018
  424MOL0     N57122   3.347  10.156   5.029 -0.2259 -0.0853 -0.5822
  424MOL0     C57123   3.435  10.244   4.977 -0.2390  0.0399 -0.1522
  424MOL0     C57124   3.531  10.270   5.073  0.7834 -0.4763 -0.1319
  424MOL0     C57125   3.645  10.363   5.066 -0.0814  0.2438  0.7611
  424MOL0     C57126   3.727  10.378   4.942  0.7195  0.1370  0.3443
  424MOL0     C57127   3.799  10.257   4.890 -0.4504  0.2293  0.3606
  424MOL0     C57128   3.926  10.201   4.959  1.1601  0.5336 -0.7017
  424MOL0     O57129   4.012  10.306   4.953 -0.8493  0.3898  0.2303
  424MOL0     C57130   4.143  10.288   4.997  0.3916  0.0619 -0.0258
  424MOL0     C57131   4.232  10.385   4.950  1.1438 -0.1945  0.1447
  424MOL0     C57132   4.364  10.385   4.968  0.2244  0.0004 -0.1184
  424MOL0     C57133   4.414  10.282   5.044  0.0068  0.2699 -0.4198
  424MOL0     C57134   4.561  10.276   5.064  0.5158 -0.5551  0.6187
  424MOL0     O57135   4.616  10.164   5.119  0.4636 -0.0964  0.5058
  424MOL0     C57136   4.748  10.168   5.146 -0.2896  0.2485  0.1842
  424MOL0     C57137   4.836  10.122   5.047 -0.2025 -0.2330  0.5400
  424MOL0     C57138   4.979  10.118   5.061 -0.3780 -0.4044 -0.3998
  424MOL0     C57139   5.034  10.176   5.176  0.2713  0.1449  0.8673
  424MOL0     O57140   5.170  10.186   5.196 -0.2496  0.5454  0.1117
  424MOL0     C57141   5.252  10.102   5.121  0.2429 -0.1620 -0.5496
  424MOL0     C57142   5.390  10.121   5.180  0.2206 -0.2843  0.3843
  424MOL0     C57143   5.498  10.081   5.092 -0.1865  0.6869  0.4161
  424MOL0     C57144   5.635  10.141   5.126 -0.6687 -0.4059  0.8212
  424MOL0     C57145   5.737  10.067   5.034 -0.1745 -0.1887 -0.2098
  424MOL0     C57146   5.877  10.119   5.048 -0.2634 -0.5368 -0.3282
  424MOL0     C57147   5.982  10.031   4.968  0.0491 -0.0126  0.0191
  424MOL0     C57148   6.127  10.070   4.991  0.7359  0.3193  0.3905
  424MOL0    Cl57149   6.142  10.239   4.941 -0.1786 -0.1612 -0.5406
  424MOL0     C57150   4.948  10.235   5.265 -0.4990 -0.0310  0.1141
  424MOL0     C57151   4.811  10.231   5.256  0.1053 -0.2790  0.0146
  424MOL0     O57152   4.617  10.381   5.044 -0.7902  0.0111  0.4696
  424MOL0     C57153   4.328  10.177   5.088 -0.1081  0.4522 -0.5900
  424MOL0     C57154   4.194  10.180   5.062 -0.4033 -0.5478 -0.2044
  424MOL0     N57155   3.487  10.197   5.187  0.7081 -0.0192 -0.3921
  424MOL0     N57156   3.388  10.120   5.152  0.1025 -0.3418 -1.1762
  424MOL0     C57157   2.316  10.203   4.637 -0.3261  0.6956  0.7444
  424MOL0     C57158   2.193  10.264   4.614  1.3576 -0.4200  0.3279
  424MOL0     C57159   1.805  10.377   4.355 -0.3492 -0.2188 -0.5587
  424MOL0     C57160   1.743  10.434   4.463  0.3335 -0.7357  0.2577
  424MOL0     C57161   1.614  10.496   4.453  1.0590 -0.5390 -0.3898
  424MOL0     C57162   1.545  10.488   4.331 -0.4699  0.9951  0.3515
  424MOL0     O57163   1.420  10.539   4.304  0.4456  0.4176 -0.5205
  424MOL0     C57164   1.339  10.596   4.404 -0.1823  0.3097  0.3207
  424MOL0     C57165   1.228  10.675   4.331  0.1287 -0.1680  0.4318
  424MOL0     C57166   1.107  10.591   4.273 -0.4331 -1.1902  0.6938
  424MOL0     C57167   1.012  10.540   4.379  0.6855  0.2666  0.1099
  424MOL0     C57168   0.966  10.640   4.485 -0.6512  0.2191 -0.1142
  424MOL0     C57169   0.916  10.712   4.566 -0.3839 -0.4468  0.1521
  424MOL0     C57170   1.614  10.427   4.226  0.8346  0.2859 -1.3867
  424MOL0     C57171   1.740  10.366   4.231  0.0797 -0.8374  0.7132
  424MOL0     C57172   1.781  10.292   4.103 -0.0441 -0.2533  0.0091
  424MOL0     H57173   2.060  10.058   4.389  0.9145  0.1811 -2.2061
  424MOL0     H57174   2.264   9.922   4.437  0.3723 -1.0509  1.3687
  424MOL0     H57175   2.483   9.868   4.483 -0.3488  0.0936  0.3510
  424MOL0     H57176   2.562  10.016   4.417  0.7186  0.4381  1.0060
  424MOL0     H57177   2.725   9.844   4.474 -0.1673 -2.1259  1.4825
  424MOL0     H57178   2.665   9.831   4.635  0.8649  1.0136  1.3671
  424MOL0     H57179   2.717  10.098   4.659 -0.3455  0.6886 -0.5200
  424MOL0     H57180   2.823  10.067   4.515 -0.0228 -0.2084 -0.3297
  424MOL0     H57181   2.823   9.938   4.797 -0.7716 -1.6238  0.0737
  424MOL0     H57182   2.914   9.866   4.669 -1.0130 -0.9475  0.7907
  424MOL0     H57183   3.054  10.074   4.651 -1.2562  0.5100 -0.6691
  424MOL0     H57184   2.973  10.133   4.795  0.1538 -1.9988  2.4846
  424MOL0     H57185   3.039   9.928   4.914 -0.7015  2.1257  0.4301
  424MOL0     H57186   3.107   9.853   4.766 -1.0749  0.9627 -1.8659
  424MOL0     H57187   3.256  10.066   4.753  2.1124 -3.8732 -0.3365
  424MOL0     H57188   3.303   9.942   4.858 -0.4928 -0.5334 -0.6941
  424MOL0     H57189   3.167  10.207   4.935 -0.5304  0.9027  2.5445
  424MOL0     H57190   3.162  10.063   5.039 -2.6918  1.5403 -0.8022
  424MOL0     H57191   3.421  10.290   4.880  2.3450  0.6769 -0.2935
  424MOL0     H57192   3.615  10.464   5.094  0.4137  0.1486  1.6883
  424MOL0     H57193   3.715  10.333   5.145 -0.3777 -1.9932  0.2404
  424MOL0     H57194   3.654  10.415   4.869 -0.2570  0.9129  1.6708
  424MOL0     H57195   3.806  10.452   4.955  2.4221 -1.4941 -0.3423
  424MOL0     H57196   3.828  10.270   4.785  1.9652 -1.8819  0.6696
  424MOL0     H57197   3.722  10.179   4.895  0.3194 -0.4945  4.3494
  424MOL0     H57198   3.972  10.119   4.903  0.3516  0.6172 -1.5227
  424MOL0     H57199   3.905  10.181   5.064  0.5534 -2.2539 -1.2776
  424MOL0     H57200   4.188  10.465   4.891  1.4672  0.2385  0.4856
  424MOL0     H57201   4.426  10.462   4.923  1.2140 -0.5666  0.2408
  424MOL0     H57202   4.785  10.093   4.955 -0.4791  0.8872  0.3205
  424MOL0     H57203   5.033  10.073   4.978  1.4844  1.3288 -0.1995
  424MOL0     H57204   5.220   9.997   5.126  1.1491 -0.4148  2.8044
  424MOL0     H57205   5.257  10.131   5.016  1.7322 -0.0645 -0.4791
  424MOL0     H57206   5.392  10.228   5.203 -2.5945  0.6237 -2.7496
  424MOL0     H57207   5.405  10.082   5.282 -2.5360 -1.9122  0.2846
  424MOL0     H57208   5.517   9.973   5.102 -0.3229  0.6350  0.1240
  424MOL0     H57209   5.475  10.113   4.990 -1.4601  1.4181  0.9105
  424MOL0     H57210   5.665  10.121   5.229 -0.7996  0.4613  1.0412
  424MOL0     H57211   5.643  10.250   5.115 -1.2020 -0.4625 -0.2740
  424MOL0     H57212   5.696  10.085   4.934  1.0225  1.7595 -0.4003
  424MOL0     H57213   5.735   9.960   5.057  1.1183 -0.1233  0.2734
  424MOL0     H57214   5.879  10.223   5.016  1.0623 -0.3345  0.3697
  424MOL0     H57215   5.901  10.119   5.155  0.5088  0.9262 -0.4803
  424MOL0     H57216   5.957  10.042   4.862 -1.3090  1.8018  0.4903
  424MOL0     H57217   5.971   9.925   4.995  0.2028  0.4621  2.0926
  424MOL0     H57218   6.150  10.052   5.096  2.7269 -1.1663 -0.2322
  424MOL0     H57219   6.194  10.014   4.925  1.2905  1.3170  0.0920
  424MOL0     H57220   4.995  10.291   5.345 -0.2433  3.3823 -2.1801
  424MOL0     H57221   4.755  10.291   5.327  2.2467  0.4564  1.1759
  424MOL0     H57222   4.355  10.094   5.152 -2.8104  0.2262  0.3564
  424MOL0     H57223   4.131  10.100   5.101  1.5190 -2.5992 -1.0533
  424MOL0     H57224   2.393  10.243   4.702  1.9595 -1.2536 -0.5760
  424MOL0     H57225   2.174  10.362   4.655  0.0736 -0.2583 -0.5957
  424MOL0     H57226   1.790  10.433   4.561  1.8107  1.6142 -0.3537
  424MOL0     H57227   1.571  10.553   4.534 -1.3062  0.8640 -2.4948
  424MOL0     H57228   1.398  10.668   4.460 -3.8458  3.2772  0.7837
  424MOL0     H57229   1.295  10.525   4.475  1.3222 -3.6042 -2.3571
  424MOL0     H57230   1.267  10.730   4.244 -1.2552  0.8921  0.4465
  424MOL0     H57231   1.192  10.755   4.397 -1.2696  2.3032 -2.9957
  424MOL0     H57232   1.149  10.516   4.205  2.6560  1.9157 -1.2333
  424MOL0     H57233   1.059  10.659   4.202  1.3716 -0.2411  0.3152
  424MOL0     H57234   0.921  10.504   4.329 -1.1630  0.5026  3.0881
  424MOL0     H57235   1.068  10.461   4.430  2.1317 -0.6774 -2.7165
  424MOL0     H57236   0.868  10.788   4.624  0.9691 -0.6802  1.6634
  424MOL0     H57237   1.566  10.415   4.130 -0.7313  0.7820 -0.7069
  424MOL0     H57238   1.696  10.261   4.042 -0.1254  1.6377 -0.9131
  424MOL0     H57239   1.838  10.350   4.030  0.3310 -2.3929 -1.4823
  424MOL0     H57240   1.836  10.202   4.131  0.2734  0.4294  1.6997
  425MOL0     O57241   1.415   8.758  10.794 -0.7202 -0.5494  0.4190
  425MOL0     C57242   1.350   8.671  10.854  0.4616 -0.3538  0.2597
  425MOL0     O57243   1.406   8.597  10.959 -0.2153  0.0677  0.5144
  425MOL0     C57244   1.535   8.613  11.003 -0.4519  0.6191  0.1490
  425MOL0     C57245   1.582   8.740  11.049 -0.3242  0.3058  0.4587
  425MOL0     C57246   1.702   8.750  11.111 -0.2941  0.4032 -0.0947
  425MOL0     C57247   1.793   8.636  11.126  0.2504 -0.1730  0.8106
  425MOL0     O57248   1.916   8.629  11.188 -0.0617  0.3574  0.0837
  425MOL0     C57249   1.972   8.747  11.254  0.3550  0.0367  0.4153
  425MOL0     C57250   2.043   8.839  11.149  0.4098  0.6895  0.2012
  425MOL0     C57251   2.074   8.984  11.200  0.5081  0.6538 -0.2302
  425MOL0     C57252   2.215   9.014  11.244  0.3622  0.3961  0.4189
  425MOL0     C57253   2.219   9.155  11.313 -0.0840 -0.4482 -0.2363
  425MOL0     C57254   2.356   9.213  11.347  0.3164 -0.8613 -0.5253
  425MOL0     C57255   2.410   9.184  11.488 -0.0095 -0.5040 -0.4631
  425MOL0     C57256   2.531   9.266  11.542 -0.2170  0.9659 -0.2475
  425MOL0     N57257   2.553   9.240  11.686  0.1665  0.5555  0.5886
  425MOL0     C57258   2.650   9.154  11.741 -0.6303 -0.0622  0.3474
  425MOL0     C57259   2.642   9.164  11.877 -0.0090 -0.1346  0.0876
  425MOL0     C57260   2.723   9.101  11.983 -0.1507 -0.5260 -1.0009
  425MOL0     C57261   2.854   9.164  12.021  0.2861 -0.0567  0.6437
  425MOL0     C57262   2.967   9.167  11.911  0.5117 -0.2399  0.0318
  425MOL0     C57263   3.076   9.272  11.938 -0.4125  0.2126 -0.6037
  425MOL0     O57264   3.166   9.231  12.042 -0.3613 -0.2032  0.1739
  425MOL0     C57265   3.297   9.272  12.035  0.0375  0.0918  0.2494
  425MOL0     C57266   3.334   9.407  12.013  0.6761 -0.8139  0.5484
  425MOL0     C57267   3.470   9.440  12.013 -0.5636  0.1112 -0.4743
  425MOL0     C57268   3.566   9.346  12.055 -0.5035 -0.3192 -0.7684
  425MOL0     C57269   3.710   9.391  12.050 -0.1724 -0.0014 -0.7729
  425MOL0     O57270   3.791   9.317  12.131  0.1755 -0.5817 -0.1278
  425MOL0     C57271   3.923   9.345  12.129  0.4248  0.1294 -0.0462
  425MOL0     C57272   3.983   9.375  12.245  0.0067 -0.9649  0.4068
  425MOL0     C57273   4.126   9.394  12.256  0.2942  0.5098  0.2217
  425MOL0     C57274   4.198   9.396  12.142  0.4703 -0.0065  0.4625
  425MOL0     O57275   4.333   9.412  12.146 -0.9776  0.4476  0.6135
  425MOL0     C57276   4.378   9.537  12.079 -0.2712  0.1190 -0.5382
  425MOL0     C57277   4.523   9.565  12.114  0.0615  0.6559  0.1952
  425MOL0     C57278   4.564   9.705  12.068  0.2710  0.1735 -0.0648
  425MOL0     C57279   4.707   9.734  12.110 -0.3874 -0.5543  0.1877
  425MOL0     C57280   4.753   9.875  12.079  0.9151 -0.0516  0.4144
  425MOL0     C57281   4.862   9.911  12.175  0.3962  1.1302 -0.0710
  425MOL0     C57282   4.910  10.059  12.185  0.2858  0.7869 -0.4893
  425MOL0     C57283   5.051  10.081  12.245 -0.0537 -0.2972  0.2525
  425MOL0    Cl57284   5.072  10.258  12.274  0.4037 -0.2241  0.0357
  425MOL0     C57285   4.138   9.370  12.015  0.6764  0.2293  0.3723
  425MOL0     C57286   3.995   9.348  12.012 -0.1282  0.0342 -0.6860
  425MOL0     O57287   3.747   9.483  11.971  0.4700 -0.3444 -0.6808
  425MOL0     C57288   3.529   9.214  12.090  1.3248  0.2785  0.1902
  425MOL0     C57289   3.390   9.181  12.086  0.2452 -0.7466 -0.4015
  425MOL0     N57290   2.536   9.241  11.902  0.1076  0.3858  0.0234
  425MOL0     N57291   2.486   9.289  11.792 -0.0309 -0.1445  0.1484
  425MOL0     C57292   1.745   8.516  11.078 -0.1719 -0.1692  0.1463
  425MOL0     C57293   1.624   8.502  11.010  0.5783  1.1725 -0.7716
  425MOL0     C57294   1.223   8.629  10.793  0.1761 -0.6594  0.8482
  425MOL0     C57295   1.166   8.513  10.844  0.7596  0.5588 -0.4621
  425MOL0     C57296   1.050   8.454  10.787  0.6351  0.4914  0.0199
  425MOL0     C57297   0.982   8.520  10.683  0.2321 -0.1688 -0.1501
  425MOL0     O57298   0.875   8.471  10.612  0.5445  0.1854  0.0304
  425MOL0     C57299   0.778   8.398  10.700 -0.2648 -1.1543 -0.3811
  425MOL0     C57300   0.643   8.387  10.629 -0.0236 -0.5535  0.1110
  425MOL0     C57301   0.531   8.331  10.713 -0.4016 -0.6145 -0.8061
  425MOL0     C57302   0.411   8.284  10.628 -0.4700  0.4659  0.1659
  425MOL0     C57303   0.356   8.377  10.530 -0.6324  0.0309  0.5651
  425MOL0     C57304   0.313   8.464  10.465  0.4190  0.2501 -0.2669
  425MOL0     C57305   1.037   8.635  10.624 -0.3708  0.3390 -0.0570
  425MOL0     C57306   1.157   8.692  10.681  0.4240  0.7745  0.1812
  425MOL0     C57307   1.220   8.800  10.589 -0.5001  0.1016 -0.2926
  425MOL0     H57308   1.507   8.818  11.045 -0.3604  0.3557  1.6662
  425MOL0     H57309   1.724   8.848  11.151  0.9031  1.2951 -2.7211
  425MOL0     H57310   1.887   8.793  11.306 -1.2482 -0.8685 -1.3011
  425MOL0     H57311   2.045   8.714  11.329  0.0904 -0.7504  0.3356
  425MOL0     H57312   1.979   8.859  11.063 -3.0685  0.4741  2.5323
  425MOL0     H57313   2.135   8.788  11.118 -0.9746 -2.9573  1.6333
  425MOL0     H57314   2.002   9.015  11.277  0.8242 -0.7676  0.6645
  425MOL0     H57315   2.055   9.053  11.117  1.6190  1.1982 -0.0454
  425MOL0     H57316   2.234   8.928  11.309  0.2074 -0.5619 -0.7652
  425MOL0     H57317   2.284   9.010  11.159  0.1417  0.4518  0.2369
  425MOL0     H57318   2.181   9.231  11.244  1.4681  2.0694  1.5300
  425MOL0     H57319   2.164   9.151  11.407 -1.9145  0.1293 -1.2483
  425MOL0     H57320   2.435   9.193  11.273  1.4821  2.3645 -0.3245
  425MOL0     H57321   2.355   9.323  11.344 -2.2735 -0.8301 -2.3083
  425MOL0     H57322   2.436   9.079  11.502 -0.6436 -0.5183  0.6726
  425MOL0     H57323   2.327   9.212  11.553  0.1334  1.3183 -1.0020
  425MOL0     H57324   2.621   9.245  11.484 -0.1926  2.6592 -0.8993
  425MOL0     H57325   2.507   9.373  11.538  2.2856  1.8591  3.5576
  425MOL0     H57326   2.704   9.072  11.694  0.7225  0.7387  0.4667
  425MOL0     H57327   2.673   9.115  12.079  2.1823  1.3951  0.0628
  425MOL0     H57328   2.744   8.996  11.963  1.4527 -0.7955  1.7162
  425MOL0     H57329   2.824   9.266  12.045 -0.7407  0.8000 -3.4495
  425MOL0     H57330   2.885   9.102  12.106 -1.8215  0.1813  1.6587
  425MOL0     H57331   2.923   9.197  11.815  1.5136  0.6993 -0.1458
  425MOL0     H57332   3.015   9.071  11.889  1.1454  0.7722 -3.8510
  425MOL0     H57333   3.037   9.368  11.973 -0.9583 -0.7866  1.7360
  425MOL0     H57334   3.131   9.279  11.844  0.1306 -1.8464 -0.4802
  425MOL0     H57335   3.261   9.487  12.003  2.2746  0.8432  1.5358
  425MOL0     H57336   3.503   9.540  11.986  3.2206 -0.1232  2.4253
  425MOL0     H57337   3.925   9.374  12.337  0.1727  2.0991  0.6349
  425MOL0     H57338   4.192   9.409  12.341  3.4805  1.9342 -2.2516
  425MOL0     H57339   4.365   9.529  11.971  1.1178 -0.8741 -0.6675
  425MOL0     H57340   4.326   9.625  12.117  1.0064  0.9280 -0.5892
  425MOL0     H57341   4.534   9.557  12.223  3.0647 -2.4405 -0.1915
  425MOL0     H57342   4.585   9.490  12.066 -0.3932 -1.1933  2.3213
  425MOL0     H57343   4.565   9.709  11.959  2.0007 -0.8668 -0.1181
  425MOL0     H57344   4.491   9.774  12.110 -0.4787 -2.3830  3.2898
  425MOL0     H57345   4.774   9.664  12.060 -0.5515 -1.3845  1.1110
  425MOL0     H57346   4.706   9.723  12.218 -1.5788  1.6458  0.4622
  425MOL0     H57347   4.673   9.945  12.104  1.3490  1.2943 -1.7349
  425MOL0     H57348   4.783   9.883  11.974  1.3333 -3.1087  0.2071
  425MOL0     H57349   4.825   9.882  12.274 -1.4078 -2.6058 -1.6661
  425MOL0     H57350   4.943   9.842  12.149 -0.1068  0.7189 -0.5729
  425MOL0     H57351   4.837  10.106  12.253 -1.5371 -2.0591 -0.3089
  425MOL0     H57352   4.891  10.121  12.097  2.2185 -0.1690 -1.6211
  425MOL0     H57353   5.059  10.027  12.339  3.1950 -2.2575 -0.9788
  425MOL0     H57354   5.124  10.036  12.177 -0.4182 -0.8122  0.1978
  425MOL0     H57355   4.199   9.369  11.925  0.9338 -4.0694  0.4016
  425MOL0     H57356   3.950   9.326  11.916 -1.2557  1.1632 -0.4513
  425MOL0     H57357   3.589   9.140  12.142  3.6637  2.8360  1.3560
  425MOL0     H57358   3.362   9.080  12.112 -0.4007 -0.4208  0.1719
  425MOL0     H57359   1.814   8.432  11.076  0.2816  0.1846 -2.4269
  425MOL0     H57360   1.589   8.404  10.977  1.1439  2.0609 -4.4500
  425MOL0     H57361   1.214   8.466  10.929 -2.7304  0.1517  1.5078
  425MOL0     H57362   1.019   8.355  10.820 -2.4507  0.5500 -2.1621
  425MOL0     H57363   0.763   8.443  10.799  1.9946  0.7998 -0.8459
  425MOL0     H57364   0.821   8.297  10.707  0.7109 -0.7682 -0.6828
  425MOL0     H57365   0.660   8.333  10.535  2.0099 -0.1814  0.2044
  425MOL0     H57366   0.597   8.479  10.591 -4.2640 -2.6256 -0.3466
  425MOL0     H57367   0.511   8.406  10.790  0.5772 -0.2708 -0.8775
  425MOL0     H57368   0.575   8.245  10.764 -0.9129  0.4596  1.5479
  425MOL0     H57369   0.465   8.200  10.583  2.3375  2.2276  0.0170
  425MOL0     H57370   0.328   8.257  10.695 -0.1347  1.3353  0.9549
  425MOL0     H57371   0.256   8.533  10.406 -4.3437 -1.4919  1.7520
  425MOL0     H57372   0.990   8.688  10.541 -0.8366  0.2036  0.1173
  425MOL0     H57373   1.309   8.854  10.622  0.6943 -1.1238 -1.3605
  425MOL0     H57374   1.262   8.751  10.501  2.4986  3.6231 -1.0518
  425MOL0     H57375   1.142   8.866  10.550  0.5800 -0.8412 -4.4585
  426MOL0     O57376   5.220  10.444   7.980 -0.4036  0.1632  0.5270
  426MOL0     C57377   5.158  10.471   7.880  0.0709 -0.5806 -0.1801
  426MOL0     O57378   5.199  10.514   7.764  0.2802  0.6139 -0.3326
  426MOL0     C57379   5.334  10.544   7.741 -0.0790  0.9350 -0.1772
  426MOL0     C57380   5.429  10.440   7.743 -0.6269 -0.6500 -0.2232
  426MOL0     C57381   5.562  10.479   7.731  0.3810 -0.3866  0.3803
  426MOL0     C57382   5.597  10.610   7.688  1.0949  0.5559  0.2925
  426MOL0     O57383   5.718  10.648   7.640  0.8959 -0.2566 -0.3432
  426MOL0     C57384   5.796  10.554   7.564  0.3531 -0.3088 -0.7299
  426MOL0     C57385   5.935  10.600   7.538  0.3786 -0.6047  0.8979
  426MOL0     C57386   5.938  10.689   7.414  0.2415 -0.2283 -0.9311
  426MOL0     C57387   5.921  10.614   7.287 -0.1608  0.4297 -0.0252
  426MOL0     C57388   5.909  10.707   7.172  0.0885 -0.0548 -0.6859
  426MOL0     C57389   6.039  10.776   7.116  0.0460 -0.3116 -0.3465
  426MOL0     C57390   6.086  10.909   7.182 -0.4362 -0.1136 -0.7132
  426MOL0     C57391   6.215  10.948   7.114 -0.5526 -0.1694 -0.3833
  426MOL0     N57392   6.269  11.082   7.145 -0.1133  0.8544 -0.0782
  426MOL0     C57393   6.318  11.153   7.043 -0.0356 -0.0427 -0.1101
  426MOL0     C57394   6.343  11.276   7.094  0.0017 -0.5543  0.6855
  426MOL0     C57395   6.423  11.379   7.028  1.1362  0.1592  0.3510
  426MOL0     C57396   6.560  11.376   7.093 -0.8947  0.2333 -0.0674
  426MOL0     C57397   6.558  11.456   7.222  0.0169  0.2162 -1.0885
  426MOL0     C57398   6.690  11.488   7.282 -0.4507 -0.5202  0.4521
  426MOL0     O57399   6.792  11.382   7.290 -0.0993 -0.6915 -0.9906
  426MOL0     C57400   6.917  11.416   7.353 -0.4430 -0.2802 -0.1275
  426MOL0     C57401   6.950  11.541   7.407 -0.0368 -0.3296  0.9493
  426MOL0     C57402   7.073  11.558   7.476 -0.4317  0.8560  0.5428
  426MOL0     C57403   7.172  11.453   7.482 -0.7765 -0.0626 -0.0341
  426MOL0     C57404   7.301  11.464   7.561  0.8085 -0.6257 -0.2410
  426MOL0     O57405   7.350  11.596   7.567  0.2205  0.7929  0.0739
  426MOL0     C57406   7.475  11.604   7.620 -0.4064  0.0671 -0.7434
  426MOL0     C57407   7.492  11.608   7.763 -1.6293 -0.3571 -0.1980
  426MOL0     C57408   7.628  11.604   7.804  0.5371 -0.5413 -0.3940
  426MOL0     C57409   7.736  11.601   7.717  0.0350 -0.2821 -0.3445
  426MOL0     O57410   7.868  11.590   7.759 -0.3864  0.0458  0.4742
  426MOL0     C57411   7.918  11.629   7.889 -0.1269  0.5117 -0.6939
  426MOL0     C57412   8.067  11.639   7.888 -0.1760  0.4927 -0.7862
  426MOL0     C57413   8.120  11.759   7.800  0.1520 -0.1570  0.5175
  426MOL0     C57414   8.245  11.806   7.861  0.0729 -0.0107  0.5729
  426MOL0     C57415   8.318  11.895   7.765  0.1215 -0.0553  0.4333
  426MOL0     C57416   8.446  11.961   7.828  1.2222  0.3023 -0.1759
  426MOL0     C57417   8.475  12.092   7.762  1.0778 -0.2187  0.4267
  426MOL0     C57418   8.610  12.148   7.803  0.5774 -0.6152  0.7781
  426MOL0    Cl57419   8.608  12.162   7.977 -0.4186 -0.3418 -0.0297
  426MOL0     C57420   7.717  11.602   7.579  0.5994 -0.2580 -0.1823
  426MOL0     C57421   7.586  11.602   7.532  0.3207 -0.7118 -0.4048
  426MOL0     O57422   7.350  11.363   7.605  0.3306 -0.3455 -0.8720
  426MOL0     C57423   7.123  11.339   7.426 -0.2973 -0.3192 -0.4027
  426MOL0     C57424   7.006  11.313   7.362  1.3940  0.4068  0.0795
  426MOL0     N57425   6.301  11.277   7.223  1.1453 -0.0519 -0.2903
  426MOL0     N57426   6.237  11.165   7.248  0.1048  0.0781 -0.3121
  426MOL0     C57427   5.500  10.710   7.695  0.1900  0.6049 -0.5523
  426MOL0     C57428   5.363  10.676   7.723 -0.1677  0.0204  0.0973
  426MOL0     C57429   5.010  10.468   7.892 -0.4207 -0.2328 -0.0781
  426MOL0     C57430   4.951  10.340   7.917 -0.2321  0.5207 -0.2572
  426MOL0     C57431   4.816  10.330   7.937 -0.9143  0.1009 -0.1077
  426MOL0     C57432   4.734  10.437   7.922  0.5649 -0.5668  0.1454
  426MOL0     O57433   4.596  10.427   7.939  0.0854  0.1950 -0.4737
  426MOL0     C57434   4.546  10.323   8.017  0.9323 -0.8412 -0.5138
  426MOL0     C57435   4.573  10.323   8.167 -0.1296  0.0005  0.2434
  426MOL0     C57436   4.518  10.436   8.260  0.1234 -0.5852  0.6004
  426MOL0     C57437   4.609  10.562   8.261  0.0618  0.2241 -0.4368
  426MOL0     C57438   4.534  10.667   8.331  0.3463  0.1570 -0.3240
  426MOL0     C57439   4.470  10.758   8.377 -0.0310  0.0179  0.0943
  426MOL0     C57440   4.793  10.560   7.895  0.7950  0.5448 -0.2292
  426MOL0     C57441   4.930  10.576   7.877 -0.0056  0.0575  0.4733
  426MOL0     C57442   4.988  10.721   7.867 -0.1474  0.6940 -0.4025
  426MOL0     H57443   5.399  10.338   7.765  2.1940 -0.9837  2.8906
  426MOL0     H57444   5.642  10.408   7.747  0.5622 -0.2413  0.1198
  426MOL0     H57445   5.812  10.468   7.630  2.2329  0.2159 -0.4410
  426MOL0     H57446   5.738  10.535   7.474 -0.9266  1.7537 -0.3999
  426MOL0     H57447   6.013  10.526   7.518 -0.8050 -1.6720  0.0109
  426MOL0     H57448   5.962  10.659   7.626  3.1392 -0.4412  0.0415
  426MOL0     H57449   6.025  10.756   7.413 -0.4695  0.7914  0.7944
  426MOL0     H57450   5.849  10.752   7.425 -0.6262 -1.5444 -0.1129
  426MOL0     H57451   6.007  10.549   7.274 -1.5377 -2.1079  2.3871
  426MOL0     H57452   5.831  10.552   7.283  0.4819 -0.5741  0.6157
  426MOL0     H57453   5.863  10.649   7.091  1.6143 -0.4392 -1.3034
  426MOL0     H57454   5.829  10.776   7.200  0.3476 -0.4644  1.1946
  426MOL0     H57455   6.119  10.702   7.129 -0.2827 -0.2418  2.9135
  426MOL0     H57456   6.029  10.803   7.010 -2.1351  0.3753 -0.0127
  426MOL0     H57457   6.106  10.896   7.289 -1.1290  0.8025 -0.4537
  426MOL0     H57458   6.010  10.986   7.166  0.0428  0.0574 -2.4129
  426MOL0     H57459   6.300  10.888   7.150 -1.5235  0.3616  3.1637
  426MOL0     H57460   6.201  10.930   7.007 -2.3474 -2.7363  0.1824
  426MOL0     H57461   6.371  11.131   6.951 -0.0469  0.2965 -0.2003
  426MOL0     H57462   6.444  11.366   6.921  0.1737  2.5985 -0.1919
  426MOL0     H57463   6.373  11.476   7.037  0.4095 -0.1605 -0.0866
  426MOL0     H57464   6.584  11.272   7.118  1.0608  0.7603  0.4070
  426MOL0     H57465   6.634  11.412   7.021 -0.1288 -1.0932  0.0367
  426MOL0     H57466   6.501  11.397   7.295 -0.0975 -0.9433 -2.0896
  426MOL0     H57467   6.514  11.555   7.204  1.9148  1.5513  1.0087
  426MOL0     H57468   6.683  11.537   7.380 -0.6655  2.2507 -0.8694
  426MOL0     H57469   6.722  11.564   7.211 -3.2389  0.7213  0.3695
  426MOL0     H57470   6.892  11.630   7.382 -3.0472 -2.0676  1.2413
  426MOL0     H57471   7.105  11.659   7.496  2.4295  0.2704 -0.5806
  426MOL0     H57472   7.410  11.601   7.834 -2.3593  2.6550 -0.5979
  426MOL0     H57473   7.641  11.583   7.909 -3.2215 -1.4720  0.0508
  426MOL0     H57474   7.884  11.730   7.915 -1.4584  0.1134 -0.8031
  426MOL0     H57475   7.883  11.552   7.958 -2.1199 -1.0651 -3.2908
  426MOL0     H57476   8.095  11.650   7.994  1.9659  1.1769 -1.3851
  426MOL0     H57477   8.118  11.548   7.854  1.0980  0.6044  0.6889
  426MOL0     H57478   8.142  11.718   7.702  1.0272  2.0169 -0.2556
  426MOL0     H57479   8.048  11.841   7.789  1.4606  1.0613  0.7525
  426MOL0     H57480   8.306  11.724   7.898  0.0260  0.0692  0.8283
  426MOL0     H57481   8.212  11.866   7.946  0.0188  0.3445  0.3052
  426MOL0     H57482   8.247  11.975   7.744  2.1686  1.8354  0.2948
  426MOL0     H57483   8.347  11.848   7.671 -3.5754 -3.2144  0.6356
  426MOL0     H57484   8.439  11.969   7.937 -0.2044 -2.0411 -0.0207
  426MOL0     H57485   8.536  11.899   7.815  0.5144 -1.3810  2.2977
  426MOL0     H57486   8.392  12.163   7.775  0.6404 -0.7024  0.3027
  426MOL0     H57487   8.475  12.071   7.654 -1.7199 -0.9869  0.4948
  426MOL0     H57488   8.696  12.093   7.764  0.7287  1.5687 -2.3565
  426MOL0     H57489   8.623  12.247   7.757  1.6166 -1.1537 -0.1131
  426MOL0     H57490   7.800  11.601   7.510  0.6698  0.1797 -0.1102
  426MOL0     H57491   7.556  11.593   7.428 -0.1964 -0.6703 -0.2616
  426MOL0     H57492   7.197  11.259   7.431  0.1802  0.0199 -1.6812
  426MOL0     H57493   6.989  11.214   7.319 -1.7723  0.8745  0.0324
  426MOL0     H57494   5.528  10.813   7.674  2.1536  0.0748 -0.7651
  426MOL0     H57495   5.284  10.750   7.717 -1.1929 -1.0927 -0.5411
  426MOL0     H57496   4.998  10.246   7.945 -4.4176 -2.0546 -0.9131
  426MOL0     H57497   4.783  10.230   7.961  3.1454 -2.2704 -3.0405
  426MOL0     H57498   4.569  10.224   7.976 -0.6592 -1.3574 -0.2507
  426MOL0     H57499   4.438  10.343   8.017  1.3501  3.0268  3.6869
  426MOL0     H57500   4.682  10.311   8.172  0.0905  0.2870 -2.5158
  426MOL0     H57501   4.539  10.226   8.205 -1.4980  0.6911  0.8482
  426MOL0     H57502   4.518  10.398   8.363 -4.2730  0.8499  1.3686
  426MOL0     H57503   4.412  10.454   8.240  0.4813 -0.4513 -1.3140
  426MOL0     H57504   4.700  10.540   8.318  0.1735 -0.5325 -0.9010
  426MOL0     H57505   4.638  10.589   8.160  0.1394  1.3790 -0.1237
  426MOL0     H57506   4.418  10.846   8.408  0.3558 -0.2353  1.5520
  426MOL0     H57507   4.731  10.648   7.878 -0.7398 -0.3585  0.4275
  426MOL0     H57508   4.995  10.751   7.762 -3.0629  1.3171 -0.4899
  426MOL0     H57509   4.926  10.794   7.919  0.5587  0.7975  0.3078
  426MOL0     H57510   5.092  10.728   7.900  0.0993 -1.7824 -0.4607
  427MOL0     O57511   2.866   8.700   1.161  0.2910 -0.4075  0.5502
  427MOL0     C57512   2.763   8.757   1.134  0.4713 -0.5051  0.1388
  427MOL0     O57513   2.753   8.890   1.162 -0.1989  0.2063  0.8736
  427MOL0     C57514   2.845   8.945   1.239 -0.2067  0.4374 -0.2014
  427MOL0     C57515   2.977   8.973   1.191 -0.5426 -0.4338 -0.4741
  427MOL0     C57516   3.067   9.033   1.287 -0.1310  0.1700 -0.5446
  427MOL0     C57517   3.032   9.046   1.420  0.1469 -0.5390 -0.1485
  427MOL0     O57518   3.120   9.095   1.509 -1.0288 -0.4728 -0.4098
  427MOL0     C57519   3.245   9.149   1.465 -0.3801 -0.7699 -0.2596
  427MOL0     C57520   3.319   9.203   1.591 -0.8991  0.3591  0.6301
  427MOL0     C57521   3.467   9.222   1.561 -0.1364 -0.1487  0.0376
  427MOL0     C57522   3.527   9.329   1.654  0.6309 -0.8040  0.2904
  427MOL0     C57523   3.673   9.362   1.608 -0.5090  0.1577  0.5999
  427MOL0     C57524   3.775   9.264   1.672  0.0123  0.3645  0.7135
  427MOL0     C57525   3.916   9.272   1.621 -0.7677 -0.3071  1.0573
  427MOL0     C57526   4.001   9.372   1.709 -0.2945  0.8657  0.2561
  427MOL0     N57527   4.140   9.378   1.661 -1.0676 -0.6791 -0.0919
  427MOL0     C57528   4.259   9.360   1.742 -0.0092  0.4906  0.5903
  427MOL0     C57529   4.364   9.366   1.651 -0.2361  0.1708 -0.7085
  427MOL0     C57530   4.503   9.322   1.682 -0.3945 -0.5354 -0.1422
  427MOL0     C57531   4.620   9.428   1.642  0.2901 -0.6870 -0.4904
  427MOL0     C57532   4.631   9.458   1.489 -0.9844  1.0491  0.3362
  427MOL0     C57533   4.737   9.549   1.467 -0.2837 -0.4745  0.3855
  427MOL0     O57534   4.788   9.513   1.339  0.1987 -0.2725 -0.1527
  427MOL0     C57535   4.886   9.596   1.291 -0.1073 -0.5100  0.2444
  427MOL0     C57536   4.920   9.581   1.155  0.3451 -0.3791  0.1573
  427MOL0     C57537   5.027   9.655   1.092 -0.7354  0.7008  0.1508
  427MOL0     C57538   5.117   9.732   1.173  0.7434  0.9812  0.7182
  427MOL0     C57539   5.238   9.795   1.118 -0.0120  0.4858 -0.4353
  427MOL0     O57540   5.267   9.910   1.175  0.2047  0.3022  0.1856
  427MOL0     C57541   5.396   9.953   1.170 -0.7426 -0.5966 -0.6902
  427MOL0     C57542   5.513   9.873   1.164  0.1578 -0.2041  0.1705
  427MOL0     C57543   5.640   9.928   1.188  0.5370 -0.7846  0.5419
  427MOL0     C57544   5.650  10.069   1.216  0.0645  0.2524  1.1649
  427MOL0     O57545   5.768  10.114   1.263 -0.0363  0.0322 -0.7475
  427MOL0     C57546   5.778  10.243   1.339 -0.8044 -0.3165  0.0535
  427MOL0     C57547   5.933  10.261   1.389  0.0216  0.4234  0.1130
  427MOL0     C57548   6.009  10.273   1.260 -0.5338 -1.2469 -0.2866
  427MOL0     C57549   6.151  10.307   1.291 -0.7468  0.2483 -0.0516
  427MOL0     C57550   6.240  10.293   1.167 -0.3811  1.1292 -0.3370
  427MOL0     C57551   6.381  10.327   1.208 -0.8228  0.0237 -0.0222
  427MOL0     C57552   6.472  10.324   1.088  0.0639 -0.1693  0.7488
  427MOL0     C57553   6.608  10.368   1.124 -0.0063 -0.3000 -0.0311
  427MOL0    Cl57554   6.640  10.534   1.080 -0.3074  0.2328  0.3480
  427MOL0     C57555   5.534  10.143   1.220 -0.3845 -0.0725 -0.0768
  427MOL0     C57556   5.410  10.089   1.191  0.0502 -0.4697  0.4795
  427MOL0     O57557   5.290   9.744   1.015  0.0658  0.2599  0.4614
  427MOL0     C57558   5.085   9.733   1.306 -0.2098  0.0647 -0.5585
  427MOL0     C57559   4.973   9.674   1.365  0.7926 -0.3655 -0.7101
  427MOL0     N57560   4.311   9.392   1.527 -0.3107  0.3223  0.3080
  427MOL0     N57561   4.184   9.392   1.531  0.1511 -0.4588  0.3878
  427MOL0     C57562   2.905   9.011   1.463 -0.0847  0.9973 -0.4602
  427MOL0     C57563   2.813   8.972   1.372  1.0166 -0.4492  0.4991
  427MOL0     C57564   2.642   8.681   1.088 -0.5722 -0.5882  0.9942
  427MOL0     C57565   2.528   8.758   1.079  0.2293 -0.3992 -0.5580
  427MOL0     C57566   2.406   8.707   1.041 -0.8571 -0.1166  0.3741
  427MOL0     C57567   2.386   8.569   1.019  0.3950 -0.2493 -0.2001
  427MOL0     O57568   2.266   8.507   0.995  0.3140 -0.5582  0.0068
  427MOL0     C57569   2.176   8.579   0.908 -0.2629  0.1564  1.1124
  427MOL0     C57570   2.069   8.485   0.860 -0.5358  0.7689 -0.6510
  427MOL0     C57571   1.955   8.462   0.967 -0.1149  0.1986  0.3440
  427MOL0     C57572   1.829   8.420   0.891 -0.6901 -0.0767 -0.0227
  427MOL0     C57573   1.709   8.406   0.963 -0.7315 -0.2507 -0.6796
  427MOL0     C57574   1.608   8.393   1.032  0.4089 -0.3213 -0.4475
  427MOL0     C57575   2.500   8.496   1.015  0.5198 -0.1002 -0.2525
  427MOL0     C57576   2.631   8.550   1.040  0.1094  0.8089  0.5948
  427MOL0     C57577   2.738   8.455   1.017 -0.7499  1.1975 -0.6825
  427MOL0     H57578   3.017   8.962   1.091  1.3151  2.3373 -0.1547
  427MOL0     H57579   3.154   9.071   1.235 -1.9131 -0.4732 -4.3748
  427MOL0     H57580   3.310   9.078   1.413  3.7420  2.1856  0.3817
  427MOL0     H57581   3.220   9.232   1.398 -0.5031 -1.5582 -1.2208
  427MOL0     H57582   3.302   9.129   1.670  1.7762 -0.8701  0.1496
  427MOL0     H57583   3.273   9.300   1.611  1.8331  1.2941  3.0606
  427MOL0     H57584   3.469   9.261   1.459 -4.9405  3.2438  0.9002
  427MOL0     H57585   3.519   9.125   1.562  1.2342  0.5604  0.0822
  427MOL0     H57586   3.461   9.417   1.648  1.9062  0.2942  1.6187
  427MOL0     H57587   3.522   9.307   1.760  1.5389  3.6222  1.4893
  427MOL0     H57588   3.667   9.357   1.499 -2.5303 -0.0493  0.6824
  427MOL0     H57589   3.718   9.457   1.637  4.6764 -1.8140  0.1823
  427MOL0     H57590   3.778   9.289   1.778  1.1397 -0.9575  1.0183
  427MOL0     H57591   3.741   9.161   1.661 -0.4629  0.5612  0.2675
  427MOL0     H57592   3.904   9.302   1.516  0.9368 -0.6675  0.7321
  427MOL0     H57593   3.959   9.172   1.613  1.6389  0.6858  0.7490
  427MOL0     H57594   3.949   9.468   1.706 -2.1026 -0.0755  0.0950
  427MOL0     H57595   4.002   9.327   1.809  2.7263  2.1323  0.9169
  427MOL0     H57596   4.265   9.352   1.850  1.1783 -1.4698  0.4391
  427MOL0     H57597   4.510   9.292   1.787 -2.4383  0.0889  0.2226
  427MOL0     H57598   4.526   9.238   1.616 -0.0642  1.3046 -2.5116
  427MOL0     H57599   4.612   9.515   1.708  0.4142 -1.0599  0.0260
  427MOL0     H57600   4.715   9.381   1.666  1.1878  1.6587  0.9489
  427MOL0     H57601   4.537   9.495   1.447  0.0325  1.1952 -1.9500
  427MOL0     H57602   4.669   9.370   1.436  2.7048  1.9564  1.1812
  427MOL0     H57603   4.816   9.543   1.543 -0.3158  0.6147  0.5149
  427MOL0     H57604   4.687   9.645   1.475 -1.0576 -0.8533  0.1769
  427MOL0     H57605   4.873   9.507   1.091  2.4063 -2.2999  0.7313
  427MOL0     H57606   5.058   9.643   0.988  1.1968 -0.7522  0.8373
  427MOL0     H57607   5.507   9.765   1.166 -0.8034 -0.1453  1.9917
  427MOL0     H57608   5.722   9.857   1.197 -0.7660 -2.7132 -1.5973
  427MOL0     H57609   5.733  10.328   1.288  0.0200  0.6256  0.8717
  427MOL0     H57610   5.715  10.235   1.428 -0.2002 -0.5318  0.4721
  427MOL0     H57611   5.948  10.354   1.446  1.9355 -1.3034  2.6533
  427MOL0     H57612   5.970  10.177   1.448 -1.5177 -0.0247  0.4964
  427MOL0     H57613   5.996  10.188   1.192  0.6043 -1.7985  0.1715
  427MOL0     H57614   5.964  10.357   1.207 -0.9238  0.2381  2.2723
  427MOL0     H57615   6.184  10.238   1.369  0.1537  2.1960  1.3732
  427MOL0     H57616   6.163  10.405   1.337 -0.0707  0.7024 -1.1535
  427MOL0     H57617   6.207  10.359   1.086  1.4310  3.2031  0.5026
  427MOL0     H57618   6.239  10.188   1.138 -0.3340  0.7350  1.0561
  427MOL0     H57619   6.377  10.424   1.258 -0.8495  0.3169 -0.5868
  427MOL0     H57620   6.409  10.259   1.288 -1.3624 -0.1940 -0.0144
  427MOL0     H57621   6.431  10.377   1.002  1.0382  1.9111  1.5167
  427MOL0     H57622   6.466  10.218   1.058 -0.9407  0.2536 -0.6533
  427MOL0     H57623   6.633  10.368   1.231  1.0247 -0.6094 -0.2673
  427MOL0     H57624   6.676  10.294   1.083 -0.1615 -2.3976  3.1443
  427MOL0     H57625   5.548  10.247   1.249 -0.4013 -0.0171 -0.2627
  427MOL0     H57626   5.322  10.152   1.175 -2.3303 -3.0594  2.3911
  427MOL0     H57627   5.151   9.791   1.370 -0.9863  0.0281  0.3031
  427MOL0     H57628   4.968   9.698   1.471  2.1017  0.6916 -0.8576
  427MOL0     H57629   2.873   9.028   1.565  1.5083 -1.2739  0.4913
  427MOL0     H57630   2.712   8.963   1.410  1.7595  0.4159  2.8410
  427MOL0     H57631   2.535   8.866   1.089  2.0117 -0.5204 -0.2633
  427MOL0     H57632   2.321   8.773   1.027 -0.8748 -0.5003 -1.6079
  427MOL0     H57633   2.224   8.614   0.816 -1.1699  0.1094  0.6056
  427MOL0     H57634   2.129   8.668   0.952 -0.2380 -0.1426  1.7467
  427MOL0     H57635   2.106   8.386   0.834 -0.8775  0.1580  1.0945
  427MOL0     H57636   2.028   8.523   0.766  2.8941  1.1434 -2.1317
  427MOL0     H57637   1.936   8.561   1.010 -3.6489 -0.0193 -0.4217
  427MOL0     H57638   1.987   8.390   1.042 -0.2747  1.0607  1.2581
  427MOL0     H57639   1.811   8.487   0.806  0.3170  0.9866  0.5791
  427MOL0     H57640   1.851   8.318   0.857  0.5773  0.7454 -1.7907
  427MOL0     H57641   1.525   8.371   1.096 -0.1312 -1.8143 -1.5954
  427MOL0     H57642   2.472   8.397   0.981  1.6294 -0.4207 -0.2668
  427MOL0     H57643   2.756   8.445   0.910  1.1897 -3.0770 -0.1767
  427MOL0     H57644   2.836   8.472   1.061 -0.5118  0.2313 -0.8196
  427MOL0     H57645   2.704   8.355   1.047 -0.4858 -0.0553 -4.1617
  428MOL0     O57646   4.650   2.456   5.265  0.6344 -0.0410 -0.4256
  428MOL0     C57647   4.574   2.473   5.171  0.6176 -0.4534 -0.5094
  428MOL0     O57648   4.601   2.551   5.067  0.8070 -0.2909  0.7429
  428MOL0     C57649   4.717   2.628   5.060  0.0859  0.4502 -1.1658
  428MOL0     C57650   4.846   2.576   5.085 -0.0562  0.0339 -0.8043
  428MOL0     C57651   4.956   2.659   5.074  0.7976  0.8935  0.1200
  428MOL0     C57652   4.944   2.789   5.023  0.8878  0.4366 -0.7633
  428MOL0     O57653   5.060   2.852   4.980 -0.0666  0.3264 -0.4735
  428MOL0     C57654   5.064   2.985   4.926 -0.2482  0.0837 -0.7649
  428MOL0     C57655   5.205   3.022   4.886  0.6700 -0.6504  0.8823
  428MOL0     C57656   5.260   2.928   4.775 -0.2747  0.3788  0.6699
  428MOL0     C57657   5.403   2.951   4.732 -0.3527 -0.3943 -0.2335
  428MOL0     C57658   5.506   2.962   4.846  0.1178  0.0597  0.0394
  428MOL0     C57659   5.647   2.980   4.788 -0.6999 -0.1246  0.0355
  428MOL0     C57660   5.701   2.872   4.702 -0.0650 -0.2851  0.3922
  428MOL0     C57661   5.692   2.729   4.763  0.2362  0.0523  0.6000
  428MOL0     N57662   5.753   2.627   4.677 -0.5138  0.2460 -0.1407
  428MOL0     C57663   5.884   2.587   4.671 -0.8417  0.2626 -0.2213
  428MOL0     C57664   5.879   2.472   4.604  0.2394 -0.5001  0.0516
  428MOL0     C57665   5.998   2.383   4.593  0.1075  0.9459  0.3945
  428MOL0     C57666   6.015   2.284   4.717 -0.2777  1.1804 -0.6473
  428MOL0     C57667   6.128   2.186   4.691 -0.1244  1.2014 -0.1287
  428MOL0     C57668   6.147   2.102   4.824  0.8159  0.8011 -0.7083
  428MOL0     O57669   6.249   2.006   4.809  0.0780  0.5232  0.0479
  428MOL0     C57670   6.377   2.056   4.786  0.1787 -0.1774  0.4159
  428MOL0     C57671   6.419   2.184   4.841 -0.7113  0.3792  0.0236
  428MOL0     C57672   6.556   2.219   4.820  0.1278  0.0752 -0.3651
  428MOL0     C57673   6.650   2.131   4.766 -0.4034  1.1858  0.3596
  428MOL0     C57674   6.787   2.172   4.732 -0.2596 -0.7234 -0.3316
  428MOL0     O57675   6.820   2.297   4.793  0.5706  0.0031  1.0614
  428MOL0     C57676   6.955   2.342   4.802  1.1570  0.0735 -0.1127
  428MOL0     C57677   7.054   2.304   4.720  0.4507  0.2002  0.3118
  428MOL0     C57678   7.186   2.344   4.740 -0.3559 -0.3623  0.5241
  428MOL0     C57679   7.220   2.418   4.847  0.4825  0.5440 -0.0199
  428MOL0     O57680   7.353   2.447   4.876 -0.3534 -0.3561  0.7481
  428MOL0     C57681   7.396   2.460   5.019  0.0673 -0.0868 -0.6441
  428MOL0     C57682   7.542   2.424   5.036 -0.1594 -0.9570 -0.2039
  428MOL0     C57683   7.635   2.527   4.967 -0.5414 -0.2820 -0.2482
  428MOL0     C57684   7.770   2.460   4.931  0.4760 -0.3391  0.2115
  428MOL0     C57685   7.883   2.565   4.906 -0.0975  0.4358  0.0123
  428MOL0     C57686   7.913   2.663   5.029 -0.7426 -0.1270 -0.2815
  428MOL0     C57687   8.038   2.746   4.992  0.1481  0.6498 -0.1517
  428MOL0     C57688   8.113   2.771   5.122 -0.9867 -0.3076 -0.5358
  428MOL0    Cl57689   8.190   2.626   5.184  0.1054 -0.1568 -0.5844
  428MOL0     C57690   7.118   2.469   4.932  0.1551 -0.3061  1.1048
  428MOL0     C57691   6.986   2.426   4.909 -0.2144 -0.0724 -0.7404
  428MOL0     O57692   6.860   2.103   4.652  0.2041 -0.3195  0.0428
  428MOL0     C57693   6.598   2.000   4.735  0.1729  0.3570  0.2288
  428MOL0     C57694   6.467   1.966   4.737 -0.6484  0.5089  0.0434
  428MOL0     N57695   5.750   2.447   4.562 -0.8593 -0.5795  0.2431
  428MOL0     N57696   5.673   2.547   4.596  0.4112  0.4517 -0.6195
  428MOL0     C57697   4.824   2.841   4.998 -0.8656 -0.3743 -0.4575
  428MOL0     C57698   4.708   2.763   5.018  0.5054  0.0722 -0.2507
  428MOL0     C57699   4.434   2.410   5.170 -0.2952 -0.4614  0.8214
  428MOL0     C57700   4.339   2.470   5.085  0.0937 -0.4639  0.2540
  428MOL0     C57701   4.221   2.404   5.058  0.7144  0.2986  0.0273
  428MOL0     C57702   4.181   2.300   5.132  0.3677  0.5003  0.2393
  428MOL0     O57703   4.063   2.234   5.107 -0.3079  0.4160 -0.2033
  428MOL0     C57704   3.974   2.247   4.995  0.3950 -0.0017 -0.5733
  428MOL0     C57705   3.836   2.305   5.033  0.4959 -0.6259 -0.2133
  428MOL0     C57706   3.734   2.288   4.912  0.0900  0.7211 -0.0875
  428MOL0     C57707   3.663   2.150   4.900 -0.0383  0.0869  1.0671
  428MOL0     C57708   3.580   2.139   4.779  0.1800 -0.3001  0.1098
  428MOL0     C57709   3.522   2.142   4.673  0.1677  0.3745 -0.0440
  428MOL0     C57710   4.274   2.245   5.216 -0.9266  0.3226 -0.1352
  428MOL0     C57711   4.399   2.296   5.247  0.3861  0.1981  0.2529
  428MOL0     C57712   4.480   2.210   5.336  0.5509  0.1618 -0.6768
  428MOL0     H57713   4.850   2.470   5.108 -1.4147 -0.1379 -1.2585
  428MOL0     H57714   5.057   2.621   5.084  0.5774 -0.9246 -3.2455
  428MOL0     H57715   5.003   2.987   4.835 -3.2174  0.7390  1.0660
  428MOL0     H57716   5.017   3.060   4.991 -2.3089 -1.5163 -0.3117
  428MOL0     H57717   5.264   3.017   4.978  2.6615  2.1616 -0.1185
  428MOL0     H57718   5.210   3.119   4.837  2.3344 -0.7354  0.8221
  428MOL0     H57719   5.192   2.917   4.690  1.3121 -1.1468 -0.4496
  428MOL0     H57720   5.263   2.825   4.811 -0.9115  0.4442  0.9290
  428MOL0     H57721   5.433   2.868   4.667  0.0325 -3.0716  3.1008
  428MOL0     H57722   5.406   3.040   4.669 -0.3142 -0.2602 -0.0447
  428MOL0     H57723   5.491   3.047   4.913  0.6256  0.8773 -0.8545
  428MOL0     H57724   5.495   2.865   4.896 -1.1067  0.1071 -0.1181
  428MOL0     H57725   5.657   3.074   4.733 -2.2600  0.1717  0.1987
  428MOL0     H57726   5.710   2.995   4.876 -1.9412  2.7299  0.5543
  428MOL0     H57727   5.807   2.883   4.675 -0.2843 -0.5066 -0.5855
  428MOL0     H57728   5.639   2.864   4.612  0.6893 -2.0607 -0.0140
  428MOL0     H57729   5.740   2.717   4.861 -1.9148 -1.0343  1.5844
  428MOL0     H57730   5.587   2.708   4.783  0.2339 -0.0156  0.5141
  428MOL0     H57731   5.971   2.620   4.726  0.1167  1.9215 -2.6024
  428MOL0     H57732   5.975   2.314   4.511 -2.2782 -3.4158  4.2758
  428MOL0     H57733   6.091   2.440   4.586  1.0750 -0.5502  0.4411
  428MOL0     H57734   6.031   2.338   4.811 -2.5208  1.4603 -0.3599
  428MOL0     H57735   5.922   2.226   4.725 -0.3797  1.4022 -0.1557
  428MOL0     H57736   6.218   2.240   4.659  0.9910  0.4766  1.6879
  428MOL0     H57737   6.089   2.112   4.621 -1.4491  0.6384  1.1627
  428MOL0     H57738   6.053   2.057   4.858  0.2137  1.4638 -1.4397
  428MOL0     H57739   6.167   2.177   4.900 -0.2115  0.1196  0.2724
  428MOL0     H57740   6.362   2.266   4.883  0.3978  0.6643  1.0390
  428MOL0     H57741   6.595   2.315   4.851  1.1236 -0.5676  0.4334
  428MOL0     H57742   7.034   2.244   4.632  0.4283 -1.1687  1.2156
  428MOL0     H57743   7.263   2.310   4.672 -2.9239 -3.5399 -1.0606
  428MOL0     H57744   7.388   2.565   5.049 -0.4257 -0.3099  0.0370
  428MOL0     H57745   7.339   2.390   5.081 -0.6303  0.6766 -0.4093
  428MOL0     H57746   7.574   2.409   5.140  1.8331 -2.5125 -0.9800
  428MOL0     H57747   7.557   2.330   4.983  1.8840 -1.3658  0.9649
  428MOL0     H57748   7.590   2.568   4.877  1.6759 -0.8659 -1.7168
  428MOL0     H57749   7.657   2.611   5.034 -0.2000  0.6674 -1.5047
  428MOL0     H57750   7.764   2.398   4.841  0.8332 -0.4052  0.2308
  428MOL0     H57751   7.802   2.408   5.022  3.8894 -2.4334 -1.9488
  428MOL0     H57752   7.846   2.626   4.824  0.6691  0.3371 -0.4126
  428MOL0     H57753   7.973   2.511   4.877 -0.6845 -0.6843  0.1931
  428MOL0     H57754   7.824   2.726   5.033 -0.3450  0.3541  2.1171
  428MOL0     H57755   7.934   2.605   5.119  2.7936  1.7748  0.2983
  428MOL0     H57756   7.999   2.837   4.946 -0.0676 -0.5160 -2.4693
  428MOL0     H57757   8.101   2.688   4.923  0.8807  2.9821 -1.5722
  428MOL0     H57758   8.196   2.841   5.108 -0.3040 -0.8560  0.5537
  428MOL0     H57759   8.038   2.807   5.193 -2.1803 -0.3738 -1.7319
  428MOL0     H57760   7.145   2.531   5.016  2.3054  0.8098 -0.3005
  428MOL0     H57761   6.898   2.463   4.961  0.4143 -1.3764  1.4080
  428MOL0     H57762   6.675   1.925   4.723  1.1821  1.1377  1.5194
  428MOL0     H57763   6.439   1.864   4.713  1.6129 -0.1299 -0.0874
  428MOL0     H57764   4.816   2.945   4.969 -0.6402  0.1761  1.3313
  428MOL0     H57765   4.612   2.812   5.001  2.1566  3.9409  0.5793
  428MOL0     H57766   4.369   2.560   5.032  1.0895 -1.0247 -0.1481
  428MOL0     H57767   4.163   2.451   4.979  2.6942  1.6276 -0.7148
  428MOL0     H57768   3.963   2.150   4.947 -1.0085  0.8538 -2.1076
  428MOL0     H57769   4.007   2.311   4.912  1.3712 -0.3333 -0.4553
  428MOL0     H57770   3.855   2.406   5.070 -0.6663 -0.7464  0.7787
  428MOL0     H57771   3.786   2.251   5.114 -1.3958  0.7016 -0.4445
  428MOL0     H57772   3.789   2.311   4.820  0.5864  3.2987  0.7714
  428MOL0     H57773   3.658   2.366   4.913 -1.7481 -0.9920 -0.7091
  428MOL0     H57774   3.733   2.067   4.887 -0.4867  0.0945 -2.0486
  428MOL0     H57775   3.594   2.132   4.984 -0.1319  0.6224  1.1087
  428MOL0     H57776   3.476   2.135   4.576  0.8717  3.7561 -0.7422
  428MOL0     H57777   4.231   2.156   5.260  0.0312  1.1226  2.6178
  428MOL0     H57778   4.586   2.236   5.327  0.9783 -1.5966 -1.2684
  428MOL0     H57779   4.455   2.207   5.443  0.0455 -2.3454 -0.7892
  428MOL0     H57780   4.469   2.105   5.306 -1.7310 -0.7630  2.7587
  429MOL0     O57781   5.703   7.178   6.856  0.1489  0.2606 -0.5529
  429MOL0     C57782   5.658   7.226   6.961  0.3118 -0.4540 -0.4893
  429MOL0     O57783   5.725   7.312   7.039 -0.0845 -0.3646 -0.1797
  429MOL0     C57784   5.854   7.330   6.993  0.0019  0.2959  0.4911
  429MOL0     C57785   5.882   7.439   6.909  0.2079 -0.2444  1.0629
  429MOL0     C57786   6.011   7.459   6.858  0.6752  0.0699  0.0533
  429MOL0     C57787   6.116   7.392   6.917 -0.3289  0.3940 -0.1705
  429MOL0     O57788   6.238   7.414   6.861 -0.4417  0.2929 -0.4852
  429MOL0     C57789   6.344   7.429   6.960 -0.0066  0.0856 -0.0341
  429MOL0     C57790   6.452   7.519   6.898  0.4001  1.5376 -0.7534
  429MOL0     C57791   6.575   7.520   6.999  0.7442  0.4393  0.8621
  429MOL0     C57792   6.693   7.584   6.929  0.1420 -0.2863 -1.0163
  429MOL0     C57793   6.803   7.606   7.038 -0.9450 -0.8255  0.2844
  429MOL0     C57794   6.907   7.711   7.006  0.0367  0.0553  0.5060
  429MOL0     C57795   6.984   7.694   6.864 -0.0013 -0.1624 -0.5352
  429MOL0     C57796   7.103   7.779   6.866 -0.8836 -0.5888 -1.0534
  429MOL0     N57797   7.149   7.777   6.727  0.3668  0.8084 -0.1165
  429MOL0     C57798   7.155   7.895   6.651  0.2983  0.4770  0.0279
  429MOL0     C57799   7.256   7.880   6.562  0.6555  0.1234  0.0043
  429MOL0     C57800   7.317   7.989   6.475 -0.0477  0.4681 -0.3042
  429MOL0     C57801   7.455   8.016   6.525  0.1787 -0.3512  0.8852
  429MOL0     C57802   7.506   8.146   6.472 -0.9964  0.6393 -0.1584
  429MOL0     C57803   7.643   8.175   6.535 -0.3459 -0.0298 -0.6740
  429MOL0     O57804   7.729   8.056   6.537 -0.0997 -0.1946 -0.0311
  429MOL0     C57805   7.866   8.072   6.536  0.8580  0.6947 -0.3780
  429MOL0     C57806   7.927   8.195   6.563 -0.3574  0.8287  0.3424
  429MOL0     C57807   8.068   8.199   6.571  0.3585  0.3927 -0.0173
  429MOL0     C57808   8.148   8.088   6.537 -0.1422 -0.0406 -0.5046
  429MOL0     C57809   8.289   8.092   6.558 -0.8694 -0.1293  0.4970
  429MOL0     O57810   8.371   7.989   6.501 -0.2369  0.3056  0.0743
  429MOL0     C57811   8.507   8.003   6.473  0.2395 -0.2984 -0.3373
  429MOL0     C57812   8.552   8.110   6.401  0.3568  0.1033 -0.2954
  429MOL0     C57813   8.686   8.122   6.358 -0.6611 -0.4827  0.1622
  429MOL0     C57814   8.777   8.017   6.393 -0.5831 -0.6694  0.7088
  429MOL0     O57815   8.908   8.020   6.345  0.4206 -0.0248 -0.0824
  429MOL0     C57816   8.993   7.902   6.359 -0.5319  0.0655  0.0458
  429MOL0     C57817   9.125   7.906   6.271 -0.7712  0.4015 -0.2044
  429MOL0     C57818   9.221   7.792   6.298  0.6607  0.8931 -0.1387
  429MOL0     C57819   9.344   7.794   6.205 -0.9392  0.3717  0.0133
  429MOL0     C57820   9.448   7.681   6.256 -0.1816 -0.3044  0.3370
  429MOL0     C57821   9.555   7.660   6.145  0.5249 -0.4243  0.0240
  429MOL0     C57822   9.673   7.564   6.166  0.6614 -0.4359 -0.5591
  429MOL0     C57823   9.768   7.608   6.275  0.0237  0.4272 -0.5845
  429MOL0    Cl57824   9.911   7.503   6.286  0.0113  0.1515 -0.2461
  429MOL0     C57825   8.737   7.918   6.483 -0.8637  0.3719 -0.0756
  429MOL0     C57826   8.601   7.916   6.523  0.0404  1.5355 -0.3419
  429MOL0     O57827   8.331   8.197   6.609 -0.1388  0.1921 -0.7604
  429MOL0     C57828   8.086   7.972   6.496  0.1385 -0.0210 -0.1510
  429MOL0     C57829   7.949   7.959   6.507  0.8718 -0.3526 -0.0469
  429MOL0     N57830   7.295   7.749   6.579  0.0729 -0.4689 -0.0814
  429MOL0     N57831   7.243   7.687   6.680 -0.6012 -0.3779  0.5553
  429MOL0     C57832   6.086   7.294   7.014 -0.5288 -0.1077  0.3333
  429MOL0     C57833   5.960   7.258   7.049 -0.2389 -0.0134  0.0147
  429MOL0     C57834   5.525   7.187   7.023 -0.1665 -0.7796  0.5811
  429MOL0     C57835   5.474   7.264   7.130 -0.1113 -0.4386 -0.6263
  429MOL0     C57836   5.341   7.245   7.184 -0.0846  0.2831  1.2041
  429MOL0     C57837   5.257   7.141   7.128  0.1993  0.2675  0.8541
  429MOL0     O57838   5.126   7.114   7.159  0.0012  0.1779  0.3713
  429MOL0     C57839   5.052   7.200   7.252 -0.2199  0.7066  0.1096
  429MOL0     C57840   4.916   7.134   7.288  0.2871 -0.1513 -0.1516
  429MOL0     C57841   4.819   7.236   7.355  0.5199  1.0312 -0.1617
  429MOL0     C57842   4.677   7.188   7.362  0.0440  0.6758 -0.1622
  429MOL0     C57843   4.661   7.059   7.431  0.2485 -0.1366 -0.8051
  429MOL0     C57844   4.656   6.955   7.494 -0.4664 -0.7192  0.0605
  429MOL0     C57845   5.306   7.072   7.024  0.4733 -0.2892 -0.4261
  429MOL0     C57846   5.435   7.090   6.971 -0.7477 -0.0295  0.0331
  429MOL0     C57847   5.479   6.985   6.873 -0.4550  0.0994 -0.5962
  429MOL0     H57848   5.799   7.500   6.876  0.0327 -1.0728 -0.1000
  429MOL0     H57849   6.014   7.531   6.777 -1.2087  0.1878  0.0518
  429MOL0     H57850   6.308   7.469   7.055 -0.2905  2.4467 -1.0799
  429MOL0     H57851   6.391   7.332   6.979 -1.0855 -0.0728  2.2882
  429MOL0     H57852   6.412   7.619   6.882 -1.2101  1.2344  0.9886
  429MOL0     H57853   6.480   7.484   6.798  1.4733  0.4359 -0.1028
  429MOL0     H57854   6.603   7.415   7.014 -0.4070 -0.2741 -1.4688
  429MOL0     H57855   6.556   7.564   7.097  1.2828  0.8283  0.7925
  429MOL0     H57856   6.735   7.510   6.859  2.7213  2.4536 -2.6540
  429MOL0     H57857   6.682   7.681   6.881 -0.5414 -0.3773 -1.0493
  429MOL0     H57858   6.750   7.642   7.127 -0.3800  1.0518 -0.0783
  429MOL0     H57859   6.848   7.510   7.064  0.6681 -1.4408 -3.8934
  429MOL0     H57860   6.845   7.800   7.022 -2.3587 -1.5547  0.7465
  429MOL0     H57861   6.979   7.707   7.088 -0.2048 -3.8007  0.6910
  429MOL0     H57862   6.925   7.721   6.776  1.9717  1.7108 -1.3823
  429MOL0     H57863   7.021   7.592   6.856  2.1238  0.5471 -0.5221
  429MOL0     H57864   7.080   7.884   6.887  0.1842 -0.7835  1.4157
  429MOL0     H57865   7.178   7.735   6.932 -1.8695  1.1734  1.3830
  429MOL0     H57866   7.099   7.985   6.670  0.2080  0.7837 -1.5989
  429MOL0     H57867   7.327   7.959   6.370  4.2933  0.6850 -0.1479
  429MOL0     H57868   7.259   8.080   6.489  1.4396  1.6174 -1.2160
  429MOL0     H57869   7.438   8.037   6.631  0.6862 -0.2968  0.9567
  429MOL0     H57870   7.529   7.937   6.509  1.1542  1.0767 -2.4609
  429MOL0     H57871   7.436   8.228   6.489 -0.1064  1.0063  2.0220
  429MOL0     H57872   7.526   8.130   6.366  0.5544 -0.5209  0.2706
  429MOL0     H57873   7.636   8.211   6.639  1.3770 -1.0748 -0.1610
  429MOL0     H57874   7.688   8.251   6.470  1.3238  1.3197  1.8685
  429MOL0     H57875   7.868   8.276   6.604 -1.8361 -1.4655  3.0632
  429MOL0     H57876   8.114   8.287   6.616  0.7350 -1.0928  2.7136
  429MOL0     H57877   8.479   8.185   6.373  0.8012  0.6741  0.0511
  429MOL0     H57878   8.715   8.211   6.302 -1.5685 -1.1761 -1.4766
  429MOL0     H57879   9.025   7.890   6.463  1.8101 -3.0183 -0.8824
  429MOL0     H57880   8.942   7.811   6.323  0.2179 -0.3221 -0.0569
  429MOL0     H57881   9.102   7.919   6.165  1.9163  5.3720 -0.4806
  429MOL0     H57882   9.177   7.998   6.301 -1.6366  0.3832  1.4716
  429MOL0     H57883   9.258   7.792   6.401  0.2287 -1.6191  0.0768
  429MOL0     H57884   9.167   7.697   6.289  0.9764  0.2411  3.4889
  429MOL0     H57885   9.388   7.894   6.199  1.5839 -0.7398 -2.9452
  429MOL0     H57886   9.321   7.768   6.101  1.3133 -0.7907 -0.2555
  429MOL0     H57887   9.402   7.582   6.264  1.2764 -1.3059 -2.2872
  429MOL0     H57888   9.492   7.701   6.354  0.6957  1.9778 -0.4731
  429MOL0     H57889   9.506   7.632   6.051 -2.7371 -1.4265  1.8543
  429MOL0     H57890   9.600   7.758   6.123 -0.8429  0.3245  0.4309
  429MOL0     H57891   9.719   7.568   6.067  1.5680 -0.2725 -0.1443
  429MOL0     H57892   9.636   7.461   6.176 -2.2596  0.5527 -0.2635
  429MOL0     H57893   9.790   7.712   6.252 -0.7766  0.1412 -2.9725
  429MOL0     H57894   9.718   7.611   6.372  0.7851 -0.9042 -0.1176
  429MOL0     H57895   8.803   7.839   6.518 -1.5865 -0.1041  0.2262
  429MOL0     H57896   8.550   7.843   6.584  0.4354  1.7353  0.2296
  429MOL0     H57897   8.141   7.879   6.484 -0.3299 -0.1449 -1.5138
  429MOL0     H57898   7.904   7.864   6.482  1.0151 -0.5946  0.5872
  429MOL0     H57899   6.169   7.241   7.061 -0.4896 -0.6918 -0.3763
  429MOL0     H57900   5.951   7.178   7.121  0.8742  0.5646  0.8145
  429MOL0     H57901   5.528   7.335   7.192  2.1162 -1.7221 -0.9663
  429MOL0     H57902   5.304   7.318   7.255 -0.6828  1.5338 -0.3342
  429MOL0     H57903   5.039   7.299   7.206  0.2156 -0.6544 -3.1869
  429MOL0     H57904   5.104   7.217   7.347  1.3234 -1.4041 -0.3001
  429MOL0     H57905   4.919   7.049   7.358  0.8300 -0.7811 -0.9134
  429MOL0     H57906   4.868   7.105   7.194  0.8699 -1.6403 -0.0187
  429MOL0     H57907   4.819   7.335   7.310 -0.8365  0.7432 -0.8599
  429MOL0     H57908   4.847   7.248   7.460 -3.1412  3.4450  0.7135
  429MOL0     H57909   4.613   7.265   7.408  2.5046  0.3926  4.3620
  429MOL0     H57910   4.629   7.169   7.266 -4.0778  0.6551  1.6551
  429MOL0     H57911   4.645   6.860   7.542  0.9200 -0.2902  1.3168
  429MOL0     H57912   5.246   6.987   6.994 -0.1648  0.8721 -2.7413
  429MOL0     H57913   5.473   7.034   6.775 -0.1956  1.9662  0.2647
  429MOL0     H57914   5.583   6.963   6.897 -1.0357 -1.3941  0.7108
  429MOL0     H57915   5.424   6.891   6.882  0.1221 -0.1166  0.9926
  430MOL0     O57916   7.854   2.016   4.614 -0.5934  0.2749  0.9939
  430MOL0     C57917   7.893   2.114   4.556 -0.1130  0.1573 -0.5568
  430MOL0     O57918   8.012   2.134   4.493  0.1629  0.4490 -0.8928
  430MOL0     C57919   8.118   2.053   4.527  0.1842  0.0704 -0.7699
  430MOL0     C57920   8.236   2.092   4.458 -0.1289  0.4750 -0.2563
  430MOL0     C57921   8.357   2.048   4.503  0.1510 -0.8726  0.4817
  430MOL0     C57922   8.364   1.952   4.603  0.6544 -0.3145 -0.0828
  430MOL0     O57923   8.490   1.906   4.621  0.3018  1.2465  0.2678
  430MOL0     C57924   8.509   1.786   4.698  0.7508 -0.1494  0.1083
  430MOL0     C57925   8.663   1.757   4.690  0.8084 -0.7799  0.1640
  430MOL0     C57926   8.737   1.858   4.779 -0.3147  0.5658 -0.4365
  430MOL0     C57927   8.885   1.827   4.805 -0.3026  0.0755  0.3515
  430MOL0     C57928   8.960   1.953   4.850 -0.5890  0.6598  0.3712
  430MOL0     C57929   9.070   1.924   4.958 -0.6439  0.2269  0.7265
  430MOL0     C57930   9.118   2.059   5.016 -0.5793  0.2341 -0.0132
  430MOL0     C57931   9.217   2.036   5.138  0.7696 -1.0054  0.2444
  430MOL0     N57932   9.242   2.171   5.201  0.3478  0.0760  0.3729
  430MOL0     C57933   9.343   2.256   5.191  0.4716 -0.1909  0.0573
  430MOL0     C57934   9.301   2.377   5.242  0.7329  0.3383 -0.2178
  430MOL0     C57935   9.382   2.508   5.239 -0.0532 -0.5705  0.1710
  430MOL0     C57936   9.499   2.480   5.320 -0.1229 -1.3649  0.4380
  430MOL0     C57937   9.590   2.609   5.332  0.0471 -0.0802  0.5451
  430MOL0     C57938   9.714   2.576   5.417  0.4317 -1.0531  0.1050
  430MOL0     O57939   9.777   2.455   5.382 -0.0598 -0.5104 -0.1781
  430MOL0     C57940   9.898   2.434   5.444 -0.3386  0.7657  0.5167
  430MOL0     C57941   9.986   2.341   5.380 -0.1227  1.2863 -0.4025
  430MOL0     C57942  10.118   2.347   5.415  0.7648 -0.5380 -0.0364
  430MOL0     C57943  10.164   2.408   5.535  0.5313  0.4243 -0.3560
  430MOL0     C57944  10.312   2.400   5.573  0.6292  0.0358 -0.6367
  430MOL0     O57945  10.397   2.309   5.506 -0.7512 -0.0106 -0.2815
  430MOL0     C57946  10.526   2.322   5.541 -0.7741 -0.1151  0.0626
  430MOL0     C57947  10.613   2.398   5.465  1.0466  0.9741  0.0063
  430MOL0     C57948  10.744   2.416   5.496 -0.0756  0.7687  0.4011
  430MOL0     C57949  10.802   2.364   5.613 -0.3935 -0.0119  0.4549
  430MOL0     O57950  10.936   2.392   5.638  0.4724  0.8617  0.5466
  430MOL0     C57951  10.994   2.351   5.766 -0.9481  0.3524 -0.0304
  430MOL0     C57952  11.137   2.392   5.784 -0.3044 -0.3885  0.3186
  430MOL0     C57953  11.233   2.331   5.681  0.6093 -1.0058  0.2625
  430MOL0     C57954  11.375   2.376   5.723 -0.0624  0.6268  0.6783
  430MOL0     C57955  11.481   2.329   5.621  0.3642 -0.3489 -0.0254
  430MOL0     C57956  11.529   2.181   5.624 -0.0037  0.2990  0.5589
  430MOL0     C57957  11.665   2.173   5.560  0.5695 -0.2856  0.5474
  430MOL0     C57958  11.731   2.042   5.572 -0.7312 -0.6479 -0.0702
  430MOL0    Cl57959  11.907   2.048   5.506  0.1750  0.0175 -0.1168
  430MOL0     C57960  10.720   2.273   5.689  0.6410 -0.0522  0.4926
  430MOL0     C57961  10.583   2.251   5.651 -0.3085 -0.0354  0.8316
  430MOL0     O57962  10.343   2.468   5.667 -0.2151 -0.4354  0.7697
  430MOL0     C57963  10.072   2.488   5.611 -0.9776  0.2022 -0.1063
  430MOL0     C57964   9.941   2.505   5.562 -0.4196 -0.8270 -0.3018
  430MOL0     N57965   9.181   2.349   5.306  0.7926 -0.0508  0.3915
  430MOL0     N57966   9.139   2.227   5.270 -0.0279 -0.0417 -0.4429
  430MOL0     C57967   8.253   1.916   4.672 -1.2680 -0.4202 -0.4618
  430MOL0     C57968   8.132   1.967   4.638 -1.1247 -0.1490  0.7779
  430MOL0     C57969   7.811   2.233   4.564  0.5133  0.5433 -0.3857
  430MOL0     C57970   7.851   2.359   4.514 -0.1200  0.0712 -0.9547
  430MOL0     C57971   7.774   2.469   4.498 -0.0512 -1.2972  0.2608
  430MOL0     C57972   7.638   2.465   4.532 -0.2875  0.0609 -0.4715
  430MOL0     O57973   7.562   2.574   4.499  0.2252  0.1525  0.0760
  430MOL0     C57974   7.427   2.589   4.546 -0.3418  0.5290 -0.1839
  430MOL0     C57975   7.370   2.715   4.478  0.0548  0.1823 -0.0009
  430MOL0     C57976   7.313   2.692   4.340  0.6738  0.7235 -0.4130
  430MOL0     C57977   7.255   2.811   4.271  0.4671  0.2530  0.0898
  430MOL0     C57978   7.128   2.840   4.336  0.3688  0.2951 -0.0758
  430MOL0     C57979   7.022   2.822   4.388  0.6384  0.4472 -0.3415
  430MOL0     C57980   7.593   2.349   4.591 -0.6176  0.0580 -1.5390
  430MOL0     C57981   7.675   2.232   4.618  0.2832 -0.1671 -0.2232
  430MOL0     C57982   7.600   2.121   4.680 -0.5495 -0.0862  0.9567
  430MOL0     H57983   8.235   2.144   4.362  3.9311 -0.9218 -1.2290
  430MOL0     H57984   8.449   2.085   4.457  2.0000 -2.1273  2.9523
  430MOL0     H57985   8.483   1.801   4.804 -1.8256 -1.9841 -0.1812
  430MOL0     H57986   8.457   1.702   4.653  0.4406  0.3629 -0.5033
  430MOL0     H57987   8.700   1.764   4.588  2.6244 -2.9787  0.5963
  430MOL0     H57988   8.676   1.662   4.742  1.3338 -0.7043  0.1816
  430MOL0     H57989   8.685   1.872   4.874 -1.4819  0.1194 -0.9909
  430MOL0     H57990   8.736   1.953   4.725  2.6097  0.9338  0.0360
  430MOL0     H57991   8.898   1.752   4.883 -2.1613 -1.6029 -0.8414
  430MOL0     H57992   8.937   1.785   4.719 -0.3608 -1.6659  1.1330
  430MOL0     H57993   8.998   1.997   4.758  1.3749 -2.8571 -0.6820
  430MOL0     H57994   8.897   2.031   4.895  0.4509  1.4523  0.4948
  430MOL0     H57995   9.031   1.868   5.043  0.0074 -2.1489 -0.4385
  430MOL0     H57996   9.160   1.873   4.922  0.2678  2.6111 -0.6272
  430MOL0     H57997   9.038   2.126   5.048 -0.2955  0.8180 -0.5008
  430MOL0     H57998   9.178   2.102   4.935  1.1357 -1.2486  0.3838
  430MOL0     H57999   9.169   1.967   5.208 -0.9654 -0.6690 -0.5763
  430MOL0     H58000   9.314   2.000   5.102  2.6595  1.1578  2.6875
  430MOL0     H58001   9.441   2.258   5.145  0.3751 -0.3723 -0.1552
  430MOL0     H58002   9.411   2.532   5.136 -1.1836 -0.5731 -0.1600
  430MOL0     H58003   9.331   2.597   5.277 -0.9109 -1.5954  1.5017
  430MOL0     H58004   9.469   2.461   5.423 -0.2047  3.1794  1.4855
  430MOL0     H58005   9.545   2.393   5.272 -0.2954 -1.6431  0.7755
  430MOL0     H58006   9.538   2.696   5.374 -0.0738  0.1085  0.0144
  430MOL0     H58007   9.618   2.654   5.236  1.7038  0.3040  1.1626
  430MOL0     H58008   9.670   2.566   5.517 -1.9017  0.2700 -0.6928
  430MOL0     H58009   9.784   2.659   5.414  1.0358 -1.5080  1.0866
  430MOL0     H58010   9.953   2.291   5.290 -2.1787  1.9852 -0.0789
  430MOL0     H58011  10.193   2.294   5.356  0.0126 -1.3858 -0.2569
  430MOL0     H58012  10.570   2.450   5.379  0.9428 -1.4767 -1.5139
  430MOL0     H58013  10.810   2.475   5.433 -0.7341 -1.0521 -2.1275
  430MOL0     H58014  10.949   2.403   5.851  2.1900  1.1796  1.2744
  430MOL0     H58015  10.986   2.243   5.787  0.7449  0.5860  2.1514
  430MOL0     H58016  11.151   2.500   5.776 -1.0200 -0.3724 -1.4188
  430MOL0     H58017  11.167   2.350   5.880 -0.3744 -3.1517 -0.7632
  430MOL0     H58018  11.215   2.225   5.662  0.2395 -0.3509 -4.1312
  430MOL0     H58019  11.207   2.370   5.582 -2.6473 -2.5972  0.3421
  430MOL0     H58020  11.401   2.314   5.809  2.2136 -1.8665 -1.5861
  430MOL0     H58021  11.381   2.482   5.752 -0.8679  0.0545  3.1368
  430MOL0     H58022  11.564   2.393   5.651 -2.2475  2.4634  1.8552
  430MOL0     H58023  11.454   2.357   5.519  2.4514 -2.3973 -1.2437
  430MOL0     H58024  11.533   2.130   5.721  0.2027 -1.3624 -0.2832
  430MOL0     H58025  11.465   2.129   5.552  2.6369  0.0868 -1.8556
  430MOL0     H58026  11.728   2.241   5.617  3.9335 -2.2146 -0.5413
  430MOL0     H58027  11.665   2.214   5.459 -2.1930  0.8435  0.9371
  430MOL0     H58028  11.744   2.008   5.676 -0.3748 -2.1354 -0.5740
  430MOL0     H58029  11.674   1.962   5.522  0.0350 -1.1227 -0.2000
  430MOL0     H58030  10.751   2.233   5.785 -2.3522 -1.0422  1.1503
  430MOL0     H58031  10.517   2.191   5.713 -0.8742  0.5071  0.7666
  430MOL0     H58032  10.100   2.538   5.703  0.0249 -0.6590  0.0719
  430MOL0     H58033   9.881   2.586   5.602 -1.3638 -1.1697 -1.0119
  430MOL0     H58034   8.267   1.849   4.757  1.2800  0.2538 -0.2849
  430MOL0     H58035   8.049   1.921   4.691  0.6477 -2.0830  2.0047
  430MOL0     H58036   7.957   2.369   4.491  0.3467  1.1986  1.3506
  430MOL0     H58037   7.819   2.555   4.449  1.5689 -0.9259  2.2982
  430MOL0     H58038   7.423   2.609   4.654 -3.6511 -3.5570  0.7030
  430MOL0     H58039   7.367   2.499   4.533  0.1768 -0.2257  2.0941
  430MOL0     H58040   7.450   2.789   4.475 -0.2796  0.6402  1.3523
  430MOL0     H58041   7.286   2.747   4.540 -0.3317 -1.7392  0.5409
  430MOL0     H58042   7.234   2.617   4.342 -1.8310  3.1728 -1.2472
  430MOL0     H58043   7.404   2.655   4.291 -0.4004 -1.5215 -0.8333
  430MOL0     H58044   7.322   2.896   4.286  1.8765 -0.5025 -1.5342
  430MOL0     H58045   7.243   2.784   4.166  0.1784 -1.6965  0.5817
  430MOL0     H58046   6.924   2.798   4.426  0.6658 -0.8804 -1.0418
  430MOL0     H58047   7.487   2.351   4.613  0.0641 -0.1021  2.5726
  430MOL0     H58048   7.502   2.146   4.722 -0.4929 -1.2473  1.8488
  430MOL0     H58049   7.588   2.043   4.605  3.3392  0.5635 -0.5679
  430MOL0     H58050   7.648   2.082   4.770 -1.5014 -0.2463  1.4105
  431MOL0     O58051   9.005   9.391   9.928  0.2770 -0.1168 -0.4724
  431MOL0     C58052   8.913   9.343   9.865 -0.0964  0.1345  0.0250
  431MOL0     O58053   8.929   9.255   9.759 -0.1723 -0.5530 -0.2331
  431MOL0     C58054   9.041   9.219   9.683  0.1745 -0.6357  0.0166
  431MOL0     C58055   9.031   9.098   9.611  0.9090 -0.9732 -0.8224
  431MOL0     C58056   9.131   9.070   9.521 -1.0819 -0.4146 -0.4295
  431MOL0     C58057   9.243   9.152   9.507 -0.1955 -0.0601 -0.5028
  431MOL0     O58058   9.350   9.131   9.420 -0.0843  0.2623 -0.0741
  431MOL0     C58059   9.326   9.021   9.334  1.1065 -0.4032  0.0590
  431MOL0     C58060   9.451   9.003   9.253 -0.1381 -0.5972  0.9472
  431MOL0     C58061   9.583   8.994   9.325 -0.1049  0.3937  1.0416
  431MOL0     C58062   9.705   9.023   9.241 -0.0541  0.4883 -0.7591
  431MOL0     C58063   9.827   9.037   9.342  0.7821 -0.6449  0.1766
  431MOL0     C58064   9.935   9.142   9.304  0.4664 -0.5360 -0.3936
  431MOL0     C58065   9.996   9.115   9.168 -0.0448 -0.6421 -0.3106
  431MOL0     C58066  10.064   8.977   9.152 -1.5395  0.5967 -0.6365
  431MOL0     N58067  10.193   8.969   9.226  0.1579  0.8743 -0.0710
  431MOL0     C58068  10.295   9.060   9.226 -0.5098  1.0241  0.3298
  431MOL0     C58069  10.388   9.015   9.302 -0.4927  0.3227 -0.9116
  431MOL0     C58070  10.518   9.093   9.326 -0.0710  0.1242  0.1979
  431MOL0     C58071  10.625   9.044   9.238 -0.9144 -0.1399  0.7509
  431MOL0     C58072  10.738   9.149   9.251 -0.1925  0.4894 -0.4403
  431MOL0     C58073  10.844   9.110   9.155 -0.0382 -0.8196 -0.2235
  431MOL0     O58074  10.950   9.198   9.180 -0.6861  0.5252  0.0106
  431MOL0     C58075  11.067   9.184   9.105 -0.2515  0.0364  0.0213
  431MOL0     C58076  11.125   9.058   9.058  0.6637  0.2923 -0.2570
  431MOL0     C58077  11.248   9.071   8.986  0.0291 -0.3545 -0.3867
  431MOL0     C58078  11.305   9.191   8.955  0.9088 -0.1217 -0.0238
  431MOL0     C58079  11.422   9.188   8.863 -1.0501 -0.4438 -0.4708
  431MOL0     O58080  11.467   9.065   8.818  0.7339 -0.4425  0.4259
  431MOL0     C58081  11.597   9.046   8.784  0.6192  0.2452  0.4928
  431MOL0     C58082  11.621   9.017   8.652 -0.2584  0.8261  0.2794
  431MOL0     C58083  11.751   8.999   8.617 -0.7581 -0.9241 -0.4757
  431MOL0     C58084  11.861   9.005   8.709 -0.5934  0.6034 -0.4504
  431MOL0     O58085  11.984   8.989   8.648  0.8420  0.0536 -0.4219
  431MOL0     C58086  12.090   9.013   8.742 -0.3434 -0.2076  1.1021
  431MOL0     C58087  12.231   9.004   8.674 -0.9119  0.5569  0.1035
  431MOL0     C58088  12.352   9.016   8.770 -0.5791 -0.6438  0.1483
  431MOL0     C58089  12.470   8.953   8.701  0.3359 -1.1181 -0.2988
  431MOL0     C58090  12.591   8.968   8.796 -0.2743 -0.2827  0.5297
  431MOL0     C58091  12.725   8.948   8.720 -1.1424  0.2808  0.2921
  431MOL0     C58092  12.830   8.928   8.834  0.0685 -0.2808 -0.3235
  431MOL0     C58093  12.908   9.048   8.891 -0.2140 -0.3775  1.2112
  431MOL0    Cl58094  13.001   9.124   8.752  0.0073 -0.1029  0.2069
  431MOL0     C58095  11.828   9.017   8.843 -0.6047 -0.7147  0.1435
  431MOL0     C58096  11.696   9.045   8.880 -0.4274  0.2632  0.5054
  431MOL0     O58097  11.476   9.296   8.840 -0.4834 -0.2762 -0.0082
  431MOL0     C58098  11.243   9.310   8.993 -0.4554  0.8071 -0.0802
  431MOL0     C58099  11.129   9.312   9.074 -0.2632  1.0046 -0.2437
  431MOL0     N58100  10.339   8.903   9.363 -0.0869  0.7137  0.5948
  431MOL0     N58101  10.215   8.883   9.329 -0.0287 -0.6092 -0.1023
  431MOL0     C58102   9.253   9.259   9.594  0.2711  1.1851 -0.1317
  431MOL0     C58103   9.161   9.288   9.688  0.6341 -0.2638  0.4717
  431MOL0     C58104   8.774   9.383   9.902  0.3733  0.1833  0.9605
  431MOL0     C58105   8.677   9.377   9.799 -1.2385 -0.6940 -0.7591
  431MOL0     C58106   8.551   9.420   9.818  0.2816  0.7930 -0.6431
  431MOL0     C58107   8.511   9.466   9.945  0.9276  0.2394 -0.2593
  431MOL0     O58108   8.378   9.496   9.982 -0.0727  0.3410 -0.2932
  431MOL0     C58109   8.275   9.486   9.881 -0.0263 -0.0899  0.1381
  431MOL0     C58110   8.145   9.530   9.934  0.5946 -0.2360 -0.9158
  431MOL0     C58111   8.118   9.680   9.952  0.7049  0.0182  1.0677
  431MOL0     C58112   7.966   9.706   9.963  0.2907  0.6651 -0.0274
  431MOL0     C58113   7.895   9.633  10.064  1.1027  0.2656  0.2180
  431MOL0     C58114   7.836   9.581  10.152 -0.2636 -0.4850 -0.5632
  431MOL0     C58115   8.603   9.478  10.041  0.5725 -0.0938  0.8852
  431MOL0     C58116   8.737   9.438  10.031  1.2409  0.7397  0.4093
  431MOL0     C58117   8.825   9.456  10.146 -0.2526  1.0303 -0.1611
  431MOL0     H58118   8.944   9.036   9.626  0.1414  0.7277  2.7032
  431MOL0     H58119   9.114   8.979   9.465 -0.5934 -0.9674  0.2885
  431MOL0     H58120   9.315   8.931   9.396  1.2057  1.9928  3.8377
  431MOL0     H58121   9.243   9.042   9.266  1.7689 -1.1351 -1.0052
  431MOL0     H58122   9.455   9.089   9.186 -0.1473 -0.2374  1.4070
  431MOL0     H58123   9.427   8.915   9.192 -1.5661 -0.3931  1.1772
  431MOL0     H58124   9.598   8.900   9.379  0.3548 -0.6122 -0.7788
  431MOL0     H58125   9.576   9.065   9.408 -1.4095 -1.6293  2.7903
  431MOL0     H58126   9.721   8.934   9.180 -0.8254 -1.0514  1.1750
  431MOL0     H58127   9.702   9.115   9.182 -0.5271  1.0667  0.1319
  431MOL0     H58128   9.798   9.073   9.441  2.9971  1.8471  0.0385
  431MOL0     H58129   9.864   8.937   9.366 -1.1576 -1.0751  1.6661
  431MOL0     H58130   9.881   9.237   9.315 -2.2137 -1.9009 -0.8878
  431MOL0     H58131  10.015   9.145   9.377 -1.0933  0.1378  1.3728
  431MOL0     H58132  10.073   9.191   9.154  0.1265 -0.7230  0.1724
  431MOL0     H58133   9.918   9.133   9.094 -0.0740  1.6645  0.2271
  431MOL0     H58134   9.996   8.900   9.189 -1.2239 -0.5013 -2.2362
  431MOL0     H58135  10.097   8.957   9.050  2.9852 -0.8456  0.8686
  431MOL0     H58136  10.302   9.143   9.156 -0.4457 -0.1259 -1.0724
  431MOL0     H58137  10.496   9.199   9.308 -0.7887  0.0128  0.3958
  431MOL0     H58138  10.546   9.097   9.432  2.3108  0.3038 -0.3765
  431MOL0     H58139  10.667   8.949   9.274  1.1841  0.0612 -0.9587
  431MOL0     H58140  10.596   9.031   9.133  0.7838  0.6431  0.1536
  431MOL0     H58141  10.777   9.156   9.353 -0.6947 -0.8803 -0.1220
  431MOL0     H58142  10.703   9.246   9.216  2.4370  0.9372 -2.1375
  431MOL0     H58143  10.804   9.116   9.053  2.3635 -3.4492 -1.4377
  431MOL0     H58144  10.868   9.005   9.177 -3.0511 -1.3606  1.0145
  431MOL0     H58145  11.080   8.962   9.078  1.6151 -0.2056 -0.4658
  431MOL0     H58146  11.300   8.978   8.967 -0.2757 -0.7681  0.7569
  431MOL0     H58147  11.541   9.037   8.581 -1.1287  1.0657  1.2894
  431MOL0     H58148  11.776   8.980   8.513 -0.1595  0.3188 -0.5729
  431MOL0     H58149  12.082   9.117   8.774 -1.7758  0.5856 -1.5437
  431MOL0     H58150  12.090   8.946   8.829 -2.1542 -1.8034 -0.0482
  431MOL0     H58151  12.238   8.909   8.621  0.5561  0.1462  0.9837
  431MOL0     H58152  12.231   9.083   8.598  0.1267  1.9975  1.5271
  431MOL0     H58153  12.369   9.122   8.789 -0.5433 -0.1999 -2.1499
  431MOL0     H58154  12.342   8.972   8.870  1.4449  0.3820  0.8536
  431MOL0     H58155  12.474   9.006   8.606 -0.5368  3.9031  2.0844
  431MOL0     H58156  12.449   8.847   8.686  1.6346 -1.4089 -0.2231
  431MOL0     H58157  12.566   8.886   8.863 -3.0873 -1.0360 -1.2828
  431MOL0     H58158  12.594   9.062   8.851 -0.8474 -0.1865  0.3935
  431MOL0     H58159  12.716   8.853   8.666  1.6594  0.8416 -1.3656
  431MOL0     H58160  12.749   9.029   8.651 -3.0646  1.6852  1.1660
  431MOL0     H58161  12.899   8.847   8.807 -3.8318 -3.5988 -1.3430
  431MOL0     H58162  12.779   8.876   8.916  0.6525 -1.3357 -0.6149
  431MOL0     H58163  12.830   9.120   8.919 -0.1859  1.1878 -2.2008
  431MOL0     H58164  12.979   9.028   8.972  2.0536  1.3490 -0.2213
  431MOL0     H58165  11.904   9.019   8.921 -1.0258 -1.3034  0.5864
  431MOL0     H58166  11.670   9.061   8.984 -0.4710 -1.2838  0.7609
  431MOL0     H58167  11.288   9.407   8.970  1.7854 -0.2088 -0.2851
  431MOL0     H58168  11.075   9.400   9.106 -3.8683 -1.3602  0.8138
  431MOL0     H58169   9.332   9.333   9.579 -0.7254  2.0004 -1.6571
  431MOL0     H58170   9.189   9.371   9.752 -1.0219  1.7110 -1.2063
  431MOL0     H58171   8.709   9.357   9.698  0.7583  1.4279 -0.6430
  431MOL0     H58172   8.482   9.406   9.735 -2.2882 -0.3015  1.5235
  431MOL0     H58173   8.266   9.384   9.843 -0.6244 -0.1013  0.3097
  431MOL0     H58174   8.287   9.538   9.785 -1.7027 -2.3975 -1.4246
  431MOL0     H58175   8.131   9.483  10.032 -0.8492  1.1424 -0.4273
  431MOL0     H58176   8.065   9.492   9.869 -0.6929 -0.6180  0.8210
  431MOL0     H58177   8.158   9.731   9.864  0.8626 -0.7070  0.7109
  431MOL0     H58178   8.163   9.720  10.043 -2.0613 -0.0451  2.5719
  431MOL0     H58179   7.952   9.811   9.990 -0.5830  1.2787 -2.5197
  431MOL0     H58180   7.911   9.688   9.870  0.0642  0.7093  0.0988
  431MOL0     H58181   7.790   9.513  10.221 -0.1201 -2.3187 -2.1761
  431MOL0     H58182   8.571   9.519  10.136 -1.3151  3.5402 -1.0955
  431MOL0     H58183   8.871   9.358  10.159 -2.3626  0.3052  3.0041
  431MOL0     H58184   8.905   9.529  10.130  0.1982  0.9150  1.3499
  431MOL0     H58185   8.780   9.475  10.244  1.4406  0.5140  0.7603
  432MOL0     O58186   5.062   0.354   5.741 -0.8849  0.9379  0.0355
  432MOL0     C58187   5.073   0.288   5.636  0.4203  0.0211  0.0311
  432MOL0     O58188   5.192   0.260   5.578  0.2042  0.0659 -0.1677
  432MOL0     C58189   5.304   0.324   5.627 -0.1155  0.7130  0.1367
  432MOL0     C58190   5.350   0.434   5.558  0.2463  0.2645 -0.7005
  432MOL0     C58191   5.458   0.512   5.609 -0.2275  0.0440 -0.4243
  432MOL0     C58192   5.526   0.463   5.722 -0.1258  0.1718  0.2548
  432MOL0     O58193   5.636   0.538   5.760  0.3124 -0.1304  0.1456
  432MOL0     C58194   5.760   0.473   5.778  0.1694  0.1602 -0.2233
  432MOL0     C58195   5.869   0.564   5.839  0.0050 -0.6719 -0.1333
  432MOL0     C58196   6.004   0.486   5.862  0.4434  0.0110  0.9482
  432MOL0     C58197   6.121   0.580   5.872 -0.2352 -0.7162 -0.7579
  432MOL0     C58198   6.108   0.680   5.979 -0.3792  0.2968  0.6337
  432MOL0     C58199   6.233   0.773   5.997 -0.6396 -0.0899  0.1905
  432MOL0     C58200   6.182   0.885   6.092 -0.3902  0.4003 -0.2149
  432MOL0     C58201   6.292   0.983   6.130  1.0323 -0.2773 -0.1080
  432MOL0     N58202   6.376   0.925   6.241 -0.9163  0.5967  0.5198
  432MOL0     C58203   6.340   0.906   6.374  0.4882  0.0981  0.4609
  432MOL0     C58204   6.446   0.839   6.429  0.0247  0.3114 -0.2589
  432MOL0     C58205   6.444   0.777   6.564 -0.7651  0.0974  0.3228
  432MOL0     C58206   6.581   0.699   6.606  0.3993 -0.5907 -0.7826
  432MOL0     C58207   6.704   0.786   6.585 -0.4560 -0.8235 -0.5819
  432MOL0     C58208   6.796   0.766   6.703  0.1446  0.9788  0.3445
  432MOL0     O58209   6.892   0.861   6.691  0.3908 -0.7537  0.0086
  432MOL0     C58210   6.980   0.879   6.793 -0.0586  0.5342  0.5872
  432MOL0     C58211   6.966   0.836   6.919 -0.3538  1.6217 -1.0090
  432MOL0     C58212   7.050   0.883   7.022  0.0074  0.5291  0.2934
  432MOL0     C58213   7.144   0.983   6.995 -0.0788 -0.4548 -0.5392
  432MOL0     C58214   7.241   1.031   7.097  0.7841 -0.3673 -0.1411
  432MOL0     O58215   7.326   1.127   7.062  0.0719 -0.0084  0.0049
  432MOL0     C58216   7.450   1.146   7.123 -0.0709  1.3500 -0.4454
  432MOL0     C58217   7.521   1.034   7.175  0.3729 -1.0759 -0.1769
  432MOL0     C58218   7.643   1.050   7.235 -0.2795  0.2534  0.7848
  432MOL0     C58219   7.696   1.185   7.248  0.7071 -0.0438 -0.4369
  432MOL0     O58220   7.814   1.194   7.299  0.2692  0.0121 -0.9249
  432MOL0     C58221   7.853   1.310   7.360  0.4147  0.2194  0.2146
  432MOL0     C58222   7.913   1.287   7.499 -0.4435  0.2027  0.7443
  432MOL0     C58223   7.939   1.422   7.565 -0.2267 -0.1933 -0.5179
  432MOL0     C58224   7.999   1.436   7.704  0.2716  0.3484  0.0953
  432MOL0     C58225   8.050   1.577   7.746 -0.0719  0.4962 -0.1907
  432MOL0     C58226   8.101   1.584   7.890 -0.0660 -0.2569 -0.0948
  432MOL0     C58227   8.159   1.723   7.917 -0.1003  0.5970 -0.7965
  432MOL0     C58228   8.244   1.734   8.041 -0.0706  0.0495 -0.0051
  432MOL0    Cl58229   8.409   1.679   8.028  0.1276  0.3095  0.3086
  432MOL0     C58230   7.627   1.290   7.185  0.4573 -0.6555  0.1033
  432MOL0     C58231   7.511   1.269   7.115  0.4696  0.1056 -0.0490
  432MOL0     O58232   7.233   0.977   7.208 -0.1142 -0.0035 -0.3604
  432MOL0     C58233   7.166   1.014   6.858 -0.0327  0.2477 -0.6570
  432MOL0     C58234   7.086   0.958   6.761 -0.7137  0.1583  0.0632
  432MOL0     N58235   6.539   0.826   6.325 -0.1538  0.4149  0.2503
  432MOL0     N58236   6.509   0.889   6.224 -0.1175 -0.1367 -0.2996
  432MOL0     C58237   5.471   0.354   5.792 -0.9058  0.5198 -0.5750
  432MOL0     C58238   5.360   0.275   5.747 -0.4884 -0.7747  0.3274
  432MOL0     C58239   4.948   0.229   5.584  0.4232  0.1157  0.0583
  432MOL0     C58240   4.961   0.107   5.510 -0.3939 -0.0999 -0.8269
  432MOL0     C58241   4.845   0.045   5.460 -0.3427 -0.2918 -0.3266
  432MOL0     C58242   4.718   0.100   5.488  0.0231 -0.1455  0.5313
  432MOL0     O58243   4.605   0.034   5.437  0.4957  0.2401  0.6514
  432MOL0     C58244   4.615  -0.038   5.314 -0.8758 -1.2087  0.0259
  432MOL0     C58245   4.489  -0.108   5.279 -0.0243  0.0364 -1.3448
  432MOL0     C58246   4.383  -0.007   5.230 -0.0836 -0.2642 -0.1912
  432MOL0     C58247   4.278  -0.096   5.161 -0.6221  0.3594 -0.2057
  432MOL0     C58248   4.164  -0.021   5.138 -0.2607 -0.2475 -0.2534
  432MOL0     C58249   4.058   0.043   5.131  0.0627  1.2795  0.3084
  432MOL0     C58250   4.705   0.210   5.567 -0.0776  0.0726 -0.3360
  432MOL0     C58251   4.817   0.279   5.608 -0.2183 -0.0484  0.0545
  432MOL0     C58252   4.787   0.409   5.680  0.2164 -0.7817  0.0577
  432MOL0     H58253   5.291   0.468   5.474  1.9582  1.2201 -1.5732
  432MOL0     H58254   5.487   0.607   5.566 -2.9684  1.7309  1.1811
  432MOL0     H58255   5.748   0.394   5.853  0.2935 -0.3411 -0.7179
  432MOL0     H58256   5.805   0.429   5.688  1.7984  1.7960 -0.2709
  432MOL0     H58257   5.844   0.586   5.943  0.8990 -1.8755  0.3576
  432MOL0     H58258   5.876   0.657   5.781 -1.8149 -0.6777 -0.4449
  432MOL0     H58259   6.017   0.418   5.778  0.3654  0.6588  0.4015
  432MOL0     H58260   6.004   0.424   5.952 -1.1541 -0.7982  0.4349
  432MOL0     H58261   6.216   0.529   5.892  0.8148  1.1001 -0.8979
  432MOL0     H58262   6.140   0.626   5.774 -0.7683 -1.5732 -1.2746
  432MOL0     H58263   6.028   0.744   5.941 -1.1710  0.4129  2.3942
  432MOL0     H58264   6.077   0.646   6.078  1.2487  3.6173  2.4358
  432MOL0     H58265   6.308   0.711   6.047 -1.4913 -0.4484  1.0537
  432MOL0     H58266   6.270   0.806   5.900 -1.0877 -2.1602 -0.7587
  432MOL0     H58267   6.126   0.841   6.174 -0.6635  2.4977  0.7862
  432MOL0     H58268   6.107   0.940   6.034 -0.4228  1.6333  0.9475
  432MOL0     H58269   6.345   1.014   6.040 -3.0424 -1.5548 -3.3019
  432MOL0     H58270   6.236   1.069   6.168 -2.0852 -1.9307 -0.6405
  432MOL0     H58271   6.244   0.926   6.420  1.3657 -0.7100  2.8177
  432MOL0     H58272   6.429   0.859   6.635  0.6081 -0.1833  0.9601
  432MOL0     H58273   6.353   0.721   6.589  0.1440 -1.2708  0.6937
  432MOL0     H58274   6.564   0.657   6.706 -1.2461 -2.7373 -1.8774
  432MOL0     H58275   6.598   0.603   6.557  3.4335 -1.5382  1.7771
  432MOL0     H58276   6.682   0.893   6.574  2.5106 -0.0024  0.3523
  432MOL0     H58277   6.756   0.753   6.494 -1.3594 -1.5905 -0.8354
  432MOL0     H58278   6.841   0.668   6.683  1.4971  1.4466  0.9647
  432MOL0     H58279   6.744   0.761   6.799 -0.2273  0.0615  0.1022
  432MOL0     H58280   6.897   0.757   6.949  0.5534  0.6696 -1.3607
  432MOL0     H58281   7.033   0.838   7.120 -3.7682  1.4274  0.2356
  432MOL0     H58282   7.483   0.933   7.163  0.0581 -1.0270  0.3709
  432MOL0     H58283   7.711   0.977   7.278  3.6919  1.8415 -2.1584
  432MOL0     H58284   7.929   1.346   7.291 -1.2977  0.6463 -1.5296
  432MOL0     H58285   7.772   1.382   7.368  0.5889  0.6734 -1.6861
  432MOL0     H58286   7.839   1.229   7.555  1.1132 -2.7199 -0.0251
  432MOL0     H58287   8.010   1.237   7.489 -1.9887 -2.6356 -1.3261
  432MOL0     H58288   8.002   1.482   7.498 -0.1374  0.1301 -0.1483
  432MOL0     H58289   7.844   1.476   7.566  0.6954  1.6839  2.7617
  432MOL0     H58290   8.086   1.370   7.709  1.2237  1.6399  2.6902
  432MOL0     H58291   7.914   1.402   7.763 -1.6405 -1.2418 -3.3291
  432MOL0     H58292   7.964   1.642   7.730 -2.5761 -2.2997  1.0952
  432MOL0     H58293   8.132   1.595   7.676 -0.8820  0.9280 -1.0392
  432MOL0     H58294   8.025   1.562   7.966  1.8629 -1.7014  1.5382
  432MOL0     H58295   8.173   1.506   7.917  1.5875  0.9745 -0.7596
  432MOL0     H58296   8.085   1.803   7.926  0.6596  1.2734 -0.4755
  432MOL0     H58297   8.220   1.741   7.828  2.2526 -2.1821  0.0815
  432MOL0     H58298   8.259   1.838   8.073  3.1364 -0.4977  0.5991
  432MOL0     H58299   8.186   1.685   8.119 -0.2180  1.4297  0.7963
  432MOL0     H58300   7.668   1.390   7.187  0.0713 -0.4998  1.1606
  432MOL0     H58301   7.447   1.345   7.071 -1.5949 -1.1038  0.6877
  432MOL0     H58302   7.248   1.081   6.833  1.5708 -0.3075  2.5346
  432MOL0     H58303   7.115   0.978   6.659 -1.8110 -0.5311 -0.4066
  432MOL0     H58304   5.521   0.334   5.886 -1.0769  2.5785 -0.0045
  432MOL0     H58305   5.309   0.193   5.796 -2.1519 -0.6485 -1.1067
  432MOL0     H58306   5.058   0.059   5.500 -0.9047 -1.0683 -1.2218
  432MOL0     H58307   4.869  -0.042   5.400  2.2078 -0.4463  0.8313
  432MOL0     H58308   4.694  -0.113   5.331  2.5295  2.4837  2.1797
  432MOL0     H58309   4.651   0.029   5.237  0.1274 -0.8766  0.7648
  432MOL0     H58310   4.446  -0.165   5.362 -0.4724  0.0408 -1.5685
  432MOL0     H58311   4.505  -0.183   5.201 -0.9008 -0.1367 -1.3755
  432MOL0     H58312   4.430   0.073   5.173  3.0014 -1.4369  0.4767
  432MOL0     H58313   4.335   0.038   5.318 -3.9161 -1.1585 -1.6209
  432MOL0     H58314   4.311  -0.145   5.069 -0.8091  0.2617 -0.2195
  432MOL0     H58315   4.254  -0.176   5.232 -1.6685  0.1545 -0.7823
  432MOL0     H58316   3.967   0.097   5.145 -0.1704  1.4609 -1.5581
  432MOL0     H58317   4.604   0.241   5.592  0.3899  0.0801  1.7158
  432MOL0     H58318   4.690   0.444   5.644  0.4231 -1.7274 -1.4972
  432MOL0     H58319   4.788   0.403   5.790  0.8821  0.1876  0.1088
  432MOL0     H58320   4.855   0.490   5.653 -0.5906  0.3648  1.3342
  433MOL0     O58321   3.277   7.431   8.743  0.1731  0.1374  0.2888
  433MOL0     C58322   3.267   7.431   8.620  0.0236  0.5119  0.1819
  433MOL0     O58323   3.361   7.476   8.534  0.3196  0.3099 -0.0836
  433MOL0     C58324   3.471   7.540   8.595 -0.3483 -0.4069  0.5520
  433MOL0     C58325   3.599   7.486   8.588  0.2257  0.1522 -0.4375
  433MOL0     C58326   3.706   7.557   8.650  0.2279  0.6723 -0.6864
  433MOL0     C58327   3.690   7.679   8.718 -0.0303  0.0247 -0.6744
  433MOL0     O58328   3.785   7.749   8.781  0.1249 -0.8669  0.4942
  433MOL0     C58329   3.914   7.680   8.790  0.9943  0.4882  0.1321
  433MOL0     C58330   4.016   7.764   8.873 -0.1049  0.6456 -0.0572
  433MOL0     C58331   4.024   7.908   8.821  0.4758  0.5197  0.1370
  433MOL0     C58332   4.082   7.997   8.922 -0.2462  0.0248  0.4752
  433MOL0     C58333   4.208   7.950   8.990  0.0596  0.3235 -0.3098
  433MOL0     C58334   4.313   7.927   8.878  0.8205  0.1179 -0.1336
  433MOL0     C58335   4.450   7.912   8.945 -0.4972 -0.1377  0.2351
  433MOL0     C58336   4.552   7.931   8.832 -0.4908 -0.7122  0.4086
  433MOL0     N58337   4.695   7.926   8.861 -0.2263 -0.5202 -0.1524
  433MOL0     C58338   4.767   8.021   8.927 -0.2608 -1.1851  0.5541
  433MOL0     C58339   4.893   7.975   8.923  0.4317  0.1351 -0.4400
  433MOL0     C58340   5.008   8.027   9.009 -0.3892 -0.5442  0.5215
  433MOL0     C58341   5.144   8.000   8.946 -0.0184  0.9439  0.4989
  433MOL0     C58342   5.172   8.091   8.824 -0.6424 -0.6477  0.5865
  433MOL0     C58343   5.306   8.053   8.752 -0.3685 -0.7771 -0.6546
  433MOL0     O58344   5.423   8.093   8.826  0.4469 -0.4757  0.7521
  433MOL0     C58345   5.549   8.105   8.772  0.9707 -0.2739  0.6116
  433MOL0     C58346   5.581   8.073   8.641  0.3035  0.5305 -0.2469
  433MOL0     C58347   5.708   8.095   8.597 -0.0793  1.1274 -0.5367
  433MOL0     C58348   5.809   8.138   8.683 -0.3379 -0.2254 -0.4895
  433MOL0     C58349   5.948   8.156   8.643  0.3943 -1.3455  0.2485
  433MOL0     O58350   6.048   8.202   8.731 -0.0939 -0.5063  0.4527
  433MOL0     C58351   6.177   8.231   8.686  0.5222  0.3818 -0.1299
  433MOL0     C58352   6.201   8.363   8.658 -0.9738  0.0917 -0.2271
  433MOL0     C58353   6.321   8.406   8.601 -0.0576 -0.1836  0.2672
  433MOL0     C58354   6.434   8.320   8.595 -1.0318 -0.0135 -0.5203
  433MOL0     O58355   6.564   8.351   8.560 -0.4476 -0.0105  0.1869
  433MOL0     C58356   6.621   8.479   8.603  0.4879 -0.0622  0.6248
  433MOL0     C58357   6.751   8.510   8.523  0.7427 -0.0037  0.5101
  433MOL0     C58358   6.843   8.613   8.589  0.0431 -0.2570 -0.1430
  433MOL0     C58359   6.781   8.754   8.598 -0.0495 -0.7773 -0.3612
  433MOL0     C58360   6.898   8.860   8.607  0.2921  0.1647 -0.0876
  433MOL0     C58361   6.912   8.938   8.488  0.8735 -0.0969  0.6131
  433MOL0     C58362   7.030   9.041   8.491  0.2864 -0.3594 -0.5425
  433MOL0     C58363   7.101   9.048   8.359 -0.0975 -0.1657  0.3354
  433MOL0    Cl58364   7.224   9.168   8.363 -0.2422 -0.2675  0.2659
  433MOL0     C58365   6.412   8.186   8.628  0.9382 -0.4155  0.3988
  433MOL0     C58366   6.280   8.137   8.668 -1.0263  0.2919  0.1460
  433MOL0     O58367   5.973   8.137   8.523  0.3754  0.2663 -0.1326
  433MOL0     C58368   5.778   8.158   8.818 -0.5260  0.2809  0.1718
  433MOL0     C58369   5.647   8.150   8.858  0.1312 -0.7400 -0.1441
  433MOL0     N58370   4.899   7.861   8.851  0.1584  0.4094 -0.6427
  433MOL0     N58371   4.773   7.828   8.820 -0.4787  0.0771 -0.0350
  433MOL0     C58372   3.558   7.739   8.720  0.0819  0.0039  0.0093
  433MOL0     C58373   3.455   7.665   8.661  0.1958 -0.2329  0.2265
  433MOL0     C58374   3.139   7.393   8.564 -0.0254  0.1180  1.0383
  433MOL0     C58375   3.132   7.392   8.420  0.2858 -0.2090  0.4411
  433MOL0     C58376   3.017   7.346   8.353 -0.5368 -0.1206  0.2212
  433MOL0     C58377   2.906   7.299   8.429 -0.0064  0.5753  0.1933
  433MOL0     O58378   2.787   7.259   8.370 -0.1548 -0.4663  0.8690
  433MOL0     C58379   2.792   7.216   8.234 -0.4342 -0.0359 -0.1246
  433MOL0     C58380   2.675   7.142   8.176  0.0565 -0.5202  0.7366
  433MOL0     C58381   2.541   7.209   8.207 -0.7367  0.3620 -0.8862
  433MOL0     C58382   2.419   7.141   8.133  0.8498  0.0107  0.1197
  433MOL0     C58383   2.290   7.178   8.202 -0.0909 -0.1844 -0.2552
  433MOL0     C58384   2.183   7.215   8.256  0.0667  0.5087 -0.0138
  433MOL0     C58385   2.904   7.314   8.564 -0.5708  0.1878 -0.1020
  433MOL0     C58386   3.022   7.354   8.631 -0.3512 -0.0650  0.2752
  433MOL0     C58387   3.013   7.364   8.783  0.0020 -0.8578 -0.0349
  433MOL0     H58388   3.617   7.392   8.536 -1.5987  0.9820 -2.8019
  433MOL0     H58389   3.804   7.512   8.636 -0.6665 -0.9295 -2.2237
  433MOL0     H58390   3.903   7.586   8.845 -2.7067  1.4396  1.3153
  433MOL0     H58391   3.953   7.665   8.689 -1.4655 -1.1826 -0.6604
  433MOL0     H58392   4.115   7.724   8.851 -0.8961 -0.8288 -1.1319
  433MOL0     H58393   4.004   7.746   8.980 -1.4195 -1.2371 -0.4646
  433MOL0     H58394   3.920   7.938   8.802 -0.6993 -2.6140  0.9694
  433MOL0     H58395   4.078   7.914   8.726 -1.8864  1.5040 -1.2323
  433MOL0     H58396   4.102   8.092   8.872 -1.0939 -0.4897 -0.8929
  433MOL0     H58397   4.003   8.020   8.995 -0.6597 -1.9449  0.6850
  433MOL0     H58398   4.231   8.026   9.066 -1.1820 -1.0326  1.5178
  433MOL0     H58399   4.200   7.855   9.043 -2.3899 -0.3345 -1.7427
  433MOL0     H58400   4.296   7.836   8.820  1.0505  0.0298 -0.0621
  433MOL0     H58401   4.311   8.018   8.817  1.6841  0.1090 -0.1889
  433MOL0     H58402   4.453   7.811   8.987 -0.3784 -1.0502 -1.8211
  433MOL0     H58403   4.464   7.986   9.023 -1.2907  0.6879 -0.3812
  433MOL0     H58404   4.539   7.854   8.756  2.1813 -2.3823  1.5004
  433MOL0     H58405   4.534   8.026   8.782  1.3639 -0.3116  0.4493
  433MOL0     H58406   4.725   8.107   8.979 -0.9738 -0.6162 -0.9006
  433MOL0     H58407   5.000   8.135   9.023  0.4804 -0.1394 -1.6318
  433MOL0     H58408   5.005   7.974   9.105  2.9776  1.3131  1.8286
  433MOL0     H58409   5.223   7.996   9.022  1.0362  1.3847 -0.5373
  433MOL0     H58410   5.143   7.895   8.914  1.3140 -0.2869  4.0106
  433MOL0     H58411   5.179   8.197   8.851 -2.1847 -0.5615  0.7324
  433MOL0     H58412   5.090   8.087   8.752  0.4370  1.2653 -0.8474
  433MOL0     H58413   5.311   8.104   8.655 -0.2857  2.0479  0.7352
  433MOL0     H58414   5.319   7.945   8.744  0.8241 -0.6122 -1.1971
  433MOL0     H58415   5.514   8.030   8.566  0.8662 -0.6740 -0.0828
  433MOL0     H58416   5.731   8.085   8.491 -2.2813  1.5032 -1.1049
  433MOL0     H58417   6.121   8.436   8.671  0.4495  1.3852  2.0186
  433MOL0     H58418   6.308   8.508   8.566 -3.5552 -0.7066 -0.3656
  433MOL0     H58419   6.545   8.555   8.580 -0.3932 -1.4806 -1.4293
  433MOL0     H58420   6.651   8.483   8.708 -0.3489 -2.0590  0.9787
  433MOL0     H58421   6.798   8.414   8.505 -2.0211 -1.5975  1.1677
  433MOL0     H58422   6.723   8.542   8.422 -0.3626  0.7541  1.0348
  433MOL0     H58423   6.878   8.584   8.689 -0.1688  1.1399  0.3526
  433MOL0     H58424   6.931   8.610   8.525  1.9915 -0.0287  2.3562
  433MOL0     H58425   6.710   8.739   8.680 -0.9824 -3.1741 -1.5194
  433MOL0     H58426   6.718   8.781   8.512  1.3573 -2.1920 -1.9177
  433MOL0     H58427   6.993   8.811   8.628  1.7840  2.1158 -1.9143
  433MOL0     H58428   6.883   8.927   8.693  2.2615  0.2896  0.2114
  433MOL0     H58429   6.923   8.862   8.410 -1.0795 -0.6203  0.8014
  433MOL0     H58430   6.826   9.004   8.477 -0.3435 -1.8302 -0.7892
  433MOL0     H58431   7.105   9.006   8.563 -1.5419 -0.3289  1.4733
  433MOL0     H58432   7.007   9.143   8.523  2.7402  0.1374 -0.1694
  433MOL0     H58433   7.147   8.952   8.335  0.3549  0.4371 -1.2724
  433MOL0     H58434   7.029   9.073   8.281  1.9011  0.8353 -1.2822
  433MOL0     H58435   6.494   8.117   8.611  1.2630  0.1290 -0.2570
  433MOL0     H58436   6.258   8.032   8.687 -2.3029  0.4910 -0.1317
  433MOL0     H58437   5.860   8.183   8.885 -0.3153 -1.7241  0.7373
  433MOL0     H58438   5.618   8.170   8.960  0.9793  0.8232 -0.1701
  433MOL0     H58439   3.526   7.818   8.787  0.9452 -1.4381  2.2306
  433MOL0     H58440   3.353   7.702   8.668  0.3972  0.0836  1.9421
  433MOL0     H58441   3.210   7.443   8.365  0.6356 -1.5044 -0.2911
  433MOL0     H58442   3.015   7.356   8.245  1.6623  0.8185  0.2341
  433MOL0     H58443   2.872   7.142   8.229  1.6238  1.9376  1.3752
  433MOL0     H58444   2.814   7.305   8.173 -1.0031 -0.3436 -0.7943
  433MOL0     H58445   2.671   7.038   8.212  1.0063 -0.2972  1.5086
  433MOL0     H58446   2.687   7.150   8.068 -0.3471  1.0092  0.7926
  433MOL0     H58447   2.553   7.314   8.183  0.0892  0.6433  0.5902
  433MOL0     H58448   2.517   7.181   8.310  1.3317 -0.5292 -0.5881
  433MOL0     H58449   2.415   7.160   8.026 -0.9862 -4.1380 -0.7316
  433MOL0     H58450   2.436   7.033   8.139 -2.1123 -0.5180  0.3197
  433MOL0     H58451   2.098   7.256   8.306  0.5788  1.4024  0.1386
  433MOL0     H58452   2.815   7.284   8.618 -1.3828 -0.7754 -1.8844
  433MOL0     H58453   2.919   7.317   8.813  0.4844 -1.9383 -0.1494
  433MOL0     H58454   3.088   7.314   8.845  0.4279  1.0288  1.0509
  433MOL0     H58455   3.007   7.469   8.812 -2.2015 -1.0743  0.4488
  434MOL0     O58456  10.042   1.357   9.806  0.5267 -0.3475 -0.6673
  434MOL0     C58457  10.035   1.402   9.919  0.7906  0.4216 -0.2425
  434MOL0     O58458  10.119   1.494   9.975  0.1189 -0.2415  0.0458
  434MOL0     C58459  10.229   1.527   9.910 -0.8912  0.1402  0.3164
  434MOL0     C58460  10.244   1.629   9.821 -0.1990  0.0861  0.2576
  434MOL0     C58461  10.362   1.659   9.759 -0.2180  0.2177 -0.1648
  434MOL0     C58462  10.477   1.583   9.802 -0.3372 -0.3110  0.4098
  434MOL0     O58463  10.598   1.601   9.743 -0.2367  0.0876  0.6135
  434MOL0     C58464  10.621   1.709   9.645  0.6336  0.3570 -0.0528
  434MOL0     C58465  10.764   1.717   9.591  0.5395  0.1929 -0.0964
  434MOL0     C58466  10.869   1.715   9.697  0.6569 -0.3267 -1.1019
  434MOL0     C58467  11.008   1.720   9.635 -0.2349 -0.3428 -0.4138
  434MOL0     C58468  11.112   1.738   9.752 -0.1699 -0.3988  0.1310
  434MOL0     C58469  11.098   1.880   9.806 -0.7247  0.2492  0.1429
  434MOL0     C58470  11.231   1.951   9.804 -0.2368 -0.2990  0.3455
  434MOL0     C58471  11.238   2.099   9.846  0.5809 -0.1104  0.6327
  434MOL0     N58472  11.366   2.159   9.818  0.8050 -0.4999 -0.2253
  434MOL0     C58473  11.491   2.122   9.848 -0.5682  0.8119  0.4515
  434MOL0     C58474  11.573   2.208   9.782 -0.6302 -0.3000 -0.6626
  434MOL0     C58475  11.719   2.191   9.777 -0.0412 -0.0842 -0.5124
  434MOL0     C58476  11.784   2.177   9.641 -0.2462  0.6071  0.1546
  434MOL0     C58477  11.719   2.071   9.557  0.5242  0.3560  1.0508
  434MOL0     C58478  11.815   2.031   9.446 -0.1437  0.0691  0.0549
  434MOL0     O58479  11.839   2.154   9.370 -0.5141  0.0156 -0.3849
  434MOL0     C58480  11.972   2.180   9.355 -0.4416  0.1910  0.1598
  434MOL0     C58481  12.046   2.089   9.280  0.3366 -0.1723 -0.3746
  434MOL0     C58482  12.168   2.123   9.239 -0.0782  0.0457 -0.0235
  434MOL0     C58483  12.238   2.234   9.287 -0.3453 -0.1844 -1.3457
  434MOL0     C58484  12.384   2.263   9.262 -0.0555 -1.2552 -0.2654
  434MOL0     O58485  12.436   2.226   9.145 -0.3771 -0.2426  0.3386
  434MOL0     C58486  12.574   2.232   9.127 -0.1399 -0.3051  0.7789
  434MOL0     C58487  12.673   2.193   9.218 -0.3044  0.3286 -1.2819
  434MOL0     C58488  12.807   2.217   9.188 -0.1878  0.4380 -0.7046
  434MOL0     C58489  12.836   2.278   9.060  0.2015  0.2060  0.4655
  434MOL0     O58490  12.957   2.305   9.006 -0.0647  0.1969 -0.2984
  434MOL0     C58491  13.071   2.245   9.069 -0.0336 -0.6935  0.6262
  434MOL0     C58492  13.197   2.311   9.004 -0.3806 -0.0890 -0.3098
  434MOL0     C58493  13.321   2.234   9.044  0.0169 -0.0067  1.1188
  434MOL0     C58494  13.440   2.335   9.060  0.3765 -0.3568 -0.3539
  434MOL0     C58495  13.564   2.250   9.110  0.4856  0.2538 -0.7973
  434MOL0     C58496  13.689   2.323   9.136  0.0638  0.6963 -1.0806
  434MOL0     C58497  13.741   2.384   9.007  0.2172  0.9654 -0.8299
  434MOL0     C58498  13.872   2.456   9.023 -0.2746  0.9639  0.2429
  434MOL0    Cl58499  13.917   2.551   8.875  0.1411  0.2606  0.1092
  434MOL0     C58500  12.737   2.305   8.973  0.7314 -0.0508  0.3133
  434MOL0     C58501  12.607   2.284   9.004 -0.8191  0.3142 -0.4103
  434MOL0     O58502  12.441   2.330   9.351 -0.1130  0.1328 -0.3908
  434MOL0     C58503  12.171   2.322   9.377 -0.7185  0.9178  0.5830
  434MOL0     C58504  12.041   2.289   9.413  0.0603  0.3391  0.0958
  434MOL0     N58505  11.497   2.309   9.732  0.1803 -0.0408  0.9497
  434MOL0     N58506  11.372   2.277   9.748  0.1674 -0.8649 -0.1749
  434MOL0     C58507  10.468   1.478   9.882  0.3088  0.8150 -0.7132
  434MOL0     C58508  10.344   1.455   9.945  0.1953 -0.0222 -1.0064
  434MOL0     C58509   9.929   1.333  10.009 -0.3206  0.0206 -0.4753
  434MOL0     C58510   9.811   1.303   9.938 -0.0151 -0.7213 -0.1534
  434MOL0     C58511   9.695   1.256  10.013  0.0863  0.4120  0.0472
  434MOL0     C58512   9.697   1.227  10.150 -0.4053  0.5352  1.0411
  434MOL0     O58513   9.592   1.164  10.191 -0.1672  0.3073  0.3234
  434MOL0     C58514   9.562   1.151  10.329  0.1602 -0.5147 -0.4859
  434MOL0     C58515   9.442   1.050  10.355 -0.1384 -0.1244 -0.4296
  434MOL0     C58516   9.368   1.095  10.487  0.3380  0.1946  0.2000
  434MOL0     C58517   9.262   1.205  10.448 -0.2310 -0.2128  0.8043
  434MOL0     C58518   9.156   1.228  10.551  0.2523  0.2407  0.4747
  434MOL0     C58519   9.075   1.248  10.630  0.6652  0.4056 -0.3608
  434MOL0     C58520   9.818   1.258  10.221  0.2452  0.2476  0.0846
  434MOL0     C58521   9.933   1.311  10.157 -0.5095  0.1863  0.3283
  434MOL0     C58522  10.059   1.324  10.244 -0.4241 -0.4235  0.0312
  434MOL0     H58523  10.150   1.678   9.799 -0.3124 -0.6235 -0.9012
  434MOL0     H58524  10.373   1.744   9.693 -0.2931  0.1455 -0.2708
  434MOL0     H58525  10.560   1.693   9.555 -1.7249 -1.1753  1.6898
  434MOL0     H58526  10.589   1.806   9.683 -0.4320 -1.0024  2.8044
  434MOL0     H58527  10.780   1.808   9.532  0.4984 -0.2795 -0.8551
  434MOL0     H58528  10.778   1.635   9.520  1.2695 -0.0821  0.3600
  434MOL0     H58529  10.865   1.627   9.762 -0.5285  1.0451  0.7931
  434MOL0     H58530  10.848   1.800   9.762  1.4478 -0.4647 -0.6535
  434MOL0     H58531  11.032   1.637   9.568  0.2127 -0.2127 -0.4166
  434MOL0     H58532  11.012   1.808   9.571 -0.6764 -0.1526 -0.1862
  434MOL0     H58533  11.094   1.666   9.832 -0.3869 -0.1443  0.3119
  434MOL0     H58534  11.214   1.713   9.719 -0.0924  0.4130 -0.2525
  434MOL0     H58535  11.023   1.941   9.755 -1.9090 -0.6511  0.7639
  434MOL0     H58536  11.071   1.873   9.912 -0.3263  3.7872  0.5962
  434MOL0     H58537  11.264   1.938   9.700  2.0983  0.9658  0.8542
  434MOL0     H58538  11.306   1.900   9.864  1.7567 -0.2422 -1.9486
  434MOL0     H58539  11.166   2.151   9.783  0.9923  1.4496  1.3969
  434MOL0     H58540  11.218   2.116   9.952 -0.1149  1.1643  0.3152
  434MOL0     H58541  11.526   2.028   9.890 -1.4198 -0.0235 -0.6284
  434MOL0     H58542  11.752   2.280   9.831 -4.0041  0.5063  1.3320
  434MOL0     H58543  11.757   2.103   9.829  1.6115  1.0077  0.1957
  434MOL0     H58544  11.788   2.272   9.588 -0.7220 -1.2681 -3.5513
  434MOL0     H58545  11.890   2.154   9.657 -0.4605  0.3649  1.3468
  434MOL0     H58546  11.620   2.101   9.520  0.6958 -0.4910 -0.1569
  434MOL0     H58547  11.687   1.981   9.610 -0.0561  1.2936  2.3540
  434MOL0     H58548  11.769   1.952   9.385  1.7514 -0.3917 -0.8548
  434MOL0     H58549  11.902   1.983   9.491 -0.4745 -0.0112  0.6180
  434MOL0     H58550  11.996   1.999   9.245  0.1217 -1.2429  2.4215
  434MOL0     H58551  12.226   2.057   9.176  0.8976 -0.2994  1.2047
  434MOL0     H58552  12.640   2.135   9.303 -0.6226  1.0748 -0.8880
  434MOL0     H58553  12.882   2.195   9.263 -3.7924 -1.8448  2.6163
  434MOL0     H58554  13.067   2.270   9.175  1.7307  0.0190  0.5505
  434MOL0     H58555  13.076   2.136   9.060  1.6919 -0.5447 -0.5793
  434MOL0     H58556  13.198   2.321   8.895  0.1484  1.3149 -0.1960
  434MOL0     H58557  13.207   2.415   9.036 -0.0992  0.0413 -0.8094
  434MOL0     H58558  13.301   2.166   9.126 -1.5262 -0.8257  0.1232
  434MOL0     H58559  13.355   2.173   8.960 -1.2730  0.6632  0.0714
  434MOL0     H58560  13.411   2.406   9.137 -2.6980 -1.1258 -0.6434
  434MOL0     H58561  13.460   2.384   8.964  0.8281 -3.2300 -1.8597
  434MOL0     H58562  13.583   2.178   9.030 -0.0432 -0.4864 -0.2685
  434MOL0     H58563  13.538   2.196   9.201  1.0971 -1.2580 -1.4938
  434MOL0     H58564  13.672   2.399   9.213  1.6884  2.7461 -2.6193
  434MOL0     H58565  13.770   2.259   9.172 -0.6288  0.6374  0.4869
  434MOL0     H58566  13.672   2.468   8.992  0.0829  0.8190 -1.0354
  434MOL0     H58567  13.738   2.312   8.925 -0.2396 -1.0632  0.8852
  434MOL0     H58568  13.872   2.522   9.111  0.4003  0.2029  0.8301
  434MOL0     H58569  13.963   2.396   9.037  0.8038  1.8809 -2.2098
  434MOL0     H58570  12.762   2.356   8.881  3.4938 -0.9067  0.4995
  434MOL0     H58571  12.535   2.322   8.933 -3.1362 -1.7872  0.6866
  434MOL0     H58572  12.215   2.417   9.407  0.0479  1.3390 -1.6615
  434MOL0     H58573  11.992   2.366   9.473  2.0122  1.1452  0.7384
  434MOL0     H58574  10.545   1.405   9.907 -2.3358 -1.5053  1.4088
  434MOL0     H58575  10.328   1.374  10.015  0.4313  0.8312  0.0604
  434MOL0     H58576   9.803   1.316   9.831 -1.8996  1.2250  0.1339
  434MOL0     H58577   9.598   1.228   9.973 -1.3951  0.2024  3.4804
  434MOL0     H58578   9.552   1.250  10.375 -1.3331 -1.3828  1.1578
  434MOL0     H58579   9.649   1.101  10.371  0.2986 -0.3851 -0.6156
  434MOL0     H58580   9.484   0.951  10.370 -3.1364 -1.8940 -2.5937
  434MOL0     H58581   9.362   1.050  10.280 -1.5571 -0.0508  1.0354
  434MOL0     H58582   9.433   1.127  10.569  0.1401  0.9802  0.0545
  434MOL0     H58583   9.321   1.003  10.524  2.5979 -1.3160 -0.4792
  434MOL0     H58584   9.311   1.300  10.423  0.8016 -0.5687  1.4409
  434MOL0     H58585   9.201   1.176  10.361 -0.4614 -2.9676  1.7964
  434MOL0     H58586   8.999   1.252  10.706 -0.6584 -3.0204 -1.3165
  434MOL0     H58587   9.834   1.229  10.324  3.9372  1.2107 -0.0785
  434MOL0     H58588  10.077   1.221  10.276 -0.8576 -0.0411  1.5997
  434MOL0     H58589  10.148   1.361  10.193  0.1592  0.8663  1.8632
  434MOL0     H58590  10.042   1.392  10.328 -0.0554  1.9268 -1.6860
  435MOL0     O58591   8.972   8.524   8.093 -0.3273 -0.2459 -0.7349
  435MOL0     C58592   8.915   8.625   8.056 -0.5531  0.1070 -0.1010
  435MOL0     O58593   8.967   8.735   8.005 -0.7045  0.4961  0.8382
  435MOL0     C58594   9.095   8.737   7.969 -0.0520 -0.6513  0.2657
  435MOL0     C58595   9.171   8.829   8.035  0.1781 -0.5931 -0.1014
  435MOL0     C58596   9.308   8.844   8.013  0.1312  0.7549 -0.3186
  435MOL0     C58597   9.371   8.757   7.924  0.1939 -0.7497  0.3106
  435MOL0     O58598   9.506   8.771   7.892 -0.1474  0.0828  0.3143
  435MOL0     C58599   9.574   8.906   7.902 -0.6148  0.2395 -0.2444
  435MOL0     C58600   9.669   8.923   8.019 -0.0901  0.7312 -0.9260
  435MOL0     C58601   9.792   8.824   8.040  0.0856  0.9124  0.4884
  435MOL0     C58602   9.863   8.800   7.906  0.1763 -0.1426  0.4049
  435MOL0     C58603  10.000   8.745   7.905  0.2199  0.2004 -0.1379
  435MOL0     C58604  10.077   8.715   7.774  1.4773 -0.6362  0.1827
  435MOL0     C58605  10.209   8.643   7.779  0.7007  0.3914 -0.3640
  435MOL0     C58606  10.332   8.723   7.742  0.2567 -0.8065  0.1568
  435MOL0     N58607  10.458   8.651   7.738 -0.4433 -0.3471 -0.0082
  435MOL0     C58608  10.514   8.604   7.846 -0.2330  0.3156 -0.5375
  435MOL0     C58609  10.626   8.543   7.809 -0.3529  0.3478 -0.2268
  435MOL0     C58610  10.723   8.465   7.885 -0.4729  0.4394  0.7622
  435MOL0     C58611  10.847   8.554   7.902  0.1650  0.7096 -0.3290
  435MOL0     C58612  10.933   8.582   7.776 -0.2862 -0.1724 -0.1324
  435MOL0     C58613  11.058   8.663   7.806  0.0955 -0.4314  0.3061
  435MOL0     O58614  11.148   8.593   7.894 -0.7854  0.1292  0.1602
  435MOL0     C58615  11.271   8.652   7.927  0.4551  0.0682 -1.3739
  435MOL0     C58616  11.315   8.784   7.899  0.5053  0.9532  0.2775
  435MOL0     C58617  11.440   8.837   7.945 -0.5078  0.1426 -0.7609
  435MOL0     C58618  11.530   8.751   8.008 -0.3368 -0.0648 -1.5294
  435MOL0     C58619  11.665   8.798   8.053 -0.5130  0.0659 -0.7104
  435MOL0     O58620  11.760   8.715   8.110 -0.0324  0.5089 -0.6978
  435MOL0     C58621  11.881   8.773   8.126  0.0138  0.1944  0.6204
  435MOL0     C58622  11.969   8.775   8.013 -0.6328  0.0768 -0.0151
  435MOL0     C58623  12.096   8.834   8.022  0.0144 -0.3768 -0.3454
  435MOL0     C58624  12.129   8.890   8.143 -0.1939  0.1824 -1.0391
  435MOL0     O58625  12.255   8.954   8.147  0.3713  0.6528  0.1289
  435MOL0     C58626  12.270   9.059   8.236  0.0208 -0.3862  0.0512
  435MOL0     C58627  12.422   9.108   8.237  0.5022 -0.4599  0.2560
  435MOL0     C58628  12.477   9.133   8.094  0.8958 -0.3221  0.2614
  435MOL0     C58629  12.615   9.198   8.116 -0.2196 -0.1995 -0.4941
  435MOL0     C58630  12.678   9.242   7.985  0.2011  0.1108 -0.5817
  435MOL0     C58631  12.637   9.382   7.952  0.2451 -0.1211  0.4296
  435MOL0     C58632  12.696   9.426   7.815  0.2741 -1.2657 -0.5447
  435MOL0     C58633  12.654   9.562   7.778 -0.6673 -0.1167  0.6040
  435MOL0    Cl58634  12.747   9.683   7.882 -0.2591  0.3487  0.0658
  435MOL0     C58635  12.040   8.892   8.250 -0.1796 -0.5118  0.4717
  435MOL0     C58636  11.912   8.839   8.239  0.3031  0.2176 -0.3593
  435MOL0     O58637  11.689   8.918   8.028  0.3008  1.5040  0.5033
  435MOL0     C58638  11.482   8.621   8.040 -0.2524  0.6050  0.1028
  435MOL0     C58639  11.355   8.574   8.003 -0.2326 -0.6635  0.8277
  435MOL0     N58640  10.635   8.561   7.667 -0.3996  0.1688 -0.4035
  435MOL0     N58641  10.543   8.636   7.629 -0.2260  0.2801  0.2124
  435MOL0     C58642   9.297   8.658   7.868  0.8133 -0.0878  0.7284
  435MOL0     C58643   9.159   8.645   7.885  0.0676  0.6578 -1.3746
  435MOL0     C58644   8.768   8.623   8.063 -0.3402  0.0132 -0.1275
  435MOL0     C58645   8.697   8.602   7.943 -0.3075  0.0790  0.1253
  435MOL0     C58646   8.565   8.583   7.951  1.2042  0.1585  0.2536
  435MOL0     C58647   8.496   8.579   8.068  0.2848  0.2058  0.4043
  435MOL0     O58648   8.362   8.571   8.076 -0.2660  0.2211 -0.6318
  435MOL0     C58649   8.283   8.589   7.972  0.4176  0.5808 -0.2160
  435MOL0     C58650   8.131   8.589   8.002  0.5600  0.2461 -0.1368
  435MOL0     C58651   8.097   8.668   8.122 -0.2474  0.0331  0.0258
  435MOL0     C58652   7.945   8.701   8.136  1.1705 -0.6757 -0.0126
  435MOL0     C58653   7.916   8.757   8.268 -0.4652 -0.5589 -0.2648
  435MOL0     C58654   7.889   8.804   8.377  0.7465  0.6492 -0.6053
  435MOL0     C58655   8.560   8.610   8.185 -0.3467  0.6585 -0.3926
  435MOL0     C58656   8.698   8.620   8.191 -0.6741  0.0767  0.2305
  435MOL0     C58657   8.775   8.623   8.323  0.8570 -1.0189 -0.0294
  435MOL0     H58658   9.125   8.904   8.099 -1.0903 -0.8224 -0.7079
  435MOL0     H58659   9.368   8.921   8.061 -1.9891  2.5632 -0.3590
  435MOL0     H58660   9.627   8.922   7.808 -1.0966  1.0236 -0.3931
  435MOL0     H58661   9.499   8.986   7.906 -0.7204  0.1536 -0.4809
  435MOL0     H58662   9.609   8.913   8.110 -1.5065 -2.1928 -2.0345
  435MOL0     H58663   9.711   9.023   8.007  1.7837 -0.2078 -3.1742
  435MOL0     H58664   9.770   8.733   8.096  2.6248  0.0817  0.2821
  435MOL0     H58665   9.877   8.877   8.084  1.0844  0.2906 -0.6253
  435MOL0     H58666   9.796   8.734   7.849  0.5965  0.1594 -0.4500
  435MOL0     H58667   9.886   8.896   7.860  0.9925 -0.2273  0.6205
  435MOL0     H58668  10.064   8.813   7.961  2.7793 -2.1770  0.0837
  435MOL0     H58669   9.984   8.650   7.957 -1.7286  0.0957 -0.8382
  435MOL0     H58670  10.009   8.650   7.718  1.7359 -0.6298 -0.1430
  435MOL0     H58671  10.087   8.811   7.722 -0.9087 -2.4619 -4.1701
  435MOL0     H58672  10.197   8.557   7.712 -0.4738 -0.3799  0.8057
  435MOL0     H58673  10.234   8.600   7.876  1.4832  1.7637  0.0744
  435MOL0     H58674  10.320   8.780   7.649 -1.2803  1.4235  1.6104
  435MOL0     H58675  10.343   8.791   7.827 -0.9351 -2.1100  1.3801
  435MOL0     H58676  10.478   8.606   7.948  3.0553 -3.8015  0.9741
  435MOL0     H58677  10.671   8.421   7.971  0.4896 -2.2565  0.0588
  435MOL0     H58678  10.754   8.384   7.820 -0.3166  2.7218 -2.2010
  435MOL0     H58679  10.816   8.645   7.954  1.8273  1.0720  0.1115
  435MOL0     H58680  10.919   8.496   7.961  0.9853  0.6386 -1.3727
  435MOL0     H58681  10.871   8.643   7.710  0.9582  3.5171  1.8308
  435MOL0     H58682  10.965   8.490   7.725 -1.5372 -1.2050  0.8919
  435MOL0     H58683  11.035   8.764   7.841 -0.0081 -0.3487  0.0082
  435MOL0     H58684  11.114   8.679   7.713  2.5496  0.8555  1.9109
  435MOL0     H58685  11.250   8.849   7.842  2.5322  1.8115 -1.1810
  435MOL0     H58686  11.468   8.938   7.920 -0.5006  0.7595  1.5156
  435MOL0     H58687  11.941   8.727   7.919  0.2394 -2.0581  0.7453
  435MOL0     H58688  12.170   8.840   7.942 -0.3238 -0.2364 -0.6505
  435MOL0     H58689  12.198   9.140   8.216  0.8669  0.7329  1.3582
  435MOL0     H58690  12.261   9.037   8.343  2.0965  2.8706  1.0434
  435MOL0     H58691  12.418   9.202   8.293  0.9823 -0.1479 -0.2281
  435MOL0     H58692  12.477   9.036   8.300  1.1456 -1.3384 -1.2598
  435MOL0     H58693  12.482   9.036   8.042  2.4793  0.4833 -1.1697
  435MOL0     H58694  12.412   9.203   8.041 -0.5750 -4.0315 -3.4888
  435MOL0     H58695  12.670   9.117   8.166 -1.6504 -0.3336  0.9591
  435MOL0     H58696  12.608   9.278   8.190 -1.4267 -0.2665 -0.5034
  435MOL0     H58697  12.648   9.165   7.912 -1.5324 -0.1381  0.3479
  435MOL0     H58698  12.787   9.241   7.997  0.0124  1.2731  1.5290
  435MOL0     H58699  12.528   9.378   7.940 -0.0012  1.5815  1.8228
  435MOL0     H58700  12.659   9.449   8.036 -0.5480  0.8996 -0.1569
  435MOL0     H58701  12.650   9.357   7.744 -1.4162 -0.4162 -0.3456
  435MOL0     H58702  12.805   9.424   7.818  0.3148  0.1371 -0.2421
  435MOL0     H58703  12.693   9.573   7.676 -0.3841 -0.3408  0.6889
  435MOL0     H58704  12.546   9.579   7.775 -0.6202  0.1831 -1.9090
  435MOL0     H58705  12.066   8.941   8.343 -1.7664  2.1679 -0.3998
  435MOL0     H58706  11.838   8.841   8.320  0.1050 -0.9946 -0.4819
  435MOL0     H58707  11.552   8.551   8.085 -0.0681  0.7375  0.0253
  435MOL0     H58708  11.326   8.470   8.017  0.9771 -1.2406 -0.6659
  435MOL0     H58709   9.341   8.588   7.799  0.6708 -1.5598  2.0755
  435MOL0     H58710   9.110   8.553   7.856 -0.7030  0.6689 -0.1585
  435MOL0     H58711   8.763   8.609   7.857 -1.7569 -2.1013 -1.2709
  435MOL0     H58712   8.509   8.572   7.858  0.8702  1.2477  0.3059
  435MOL0     H58713   8.298   8.509   7.899  3.7623  2.5120 -1.8885
  435MOL0     H58714   8.304   8.687   7.928 -0.9188  0.9864  0.0198
  435MOL0     H58715   8.097   8.487   8.017  0.1940  0.6469  2.0043
  435MOL0     H58716   8.074   8.619   7.913 -0.0316  0.8266  0.4268
  435MOL0     H58717   8.159   8.758   8.113  0.4852 -0.2105  2.0812
  435MOL0     H58718   8.134   8.613   8.209  1.4055 -0.3787 -0.8885
  435MOL0     H58719   7.914   8.778   8.065  1.7943  0.7153  1.1650
  435MOL0     H58720   7.883   8.611   8.127 -0.3082  0.2804  0.2327
  435MOL0     H58721   7.859   8.842   8.473  1.6830  1.7880 -0.7351
  435MOL0     H58722   8.503   8.611   8.277 -1.2082  3.3163 -0.8683
  435MOL0     H58723   8.825   8.718   8.343 -1.6585  0.5102 -0.4787
  435MOL0     H58724   8.698   8.628   8.401 -1.1420 -0.4281 -1.9206
  435MOL0     H58725   8.836   8.536   8.348 -0.5387 -1.6167  1.5507
  436MOL0     O58726  11.195   9.875   6.058 -0.8391  0.0906 -0.0933
  436MOL0     C58727  11.125   9.940   6.137  0.7454  0.5851  0.6970
  436MOL0     O58728  11.168  10.020   6.233 -0.7778 -1.0452 -0.5318
  436MOL0     C58729  11.286   9.980   6.290 -0.5445 -0.6872  0.2605
  436MOL0     C58730  11.407  10.036   6.243  0.1841 -0.3321  0.1362
  436MOL0     C58731  11.538   9.984   6.283  0.4432  0.2401 -0.0049
  436MOL0     C58732  11.539   9.881   6.381  0.1348 -0.0611 -0.1704
  436MOL0     O58733  11.659   9.831   6.418 -0.0440  0.1444 -0.3625
  436MOL0     C58734  11.665   9.714   6.495  0.1981 -0.5331 -0.0755
  436MOL0     C58735  11.801   9.661   6.501 -0.5706  0.4182  0.6308
  436MOL0     C58736  11.900   9.761   6.552 -0.5458 -0.0274  0.5838
  436MOL0     C58737  12.044   9.711   6.555 -0.3883  0.5410 -0.0655
  436MOL0     C58738  12.092   9.642   6.681 -0.4465  0.2485  0.6531
  436MOL0     C58739  12.222   9.572   6.652  0.1766 -1.6746  0.4927
  436MOL0     C58740  12.299   9.529   6.774 -0.1231  0.5105  0.5389
  436MOL0     C58741  12.421   9.437   6.742  0.3661 -0.0339 -0.1503
  436MOL0     N58742  12.521   9.514   6.674 -0.2867 -0.0239 -0.1912
  436MOL0     C58743  12.595   9.621   6.731  0.3963  0.8275 -0.2294
  436MOL0     C58744  12.656   9.684   6.625 -0.0024  0.4251 -0.7015
  436MOL0     C58745  12.740   9.804   6.629 -0.4843 -0.4329 -0.4528
  436MOL0     C58746  12.863   9.786   6.547  0.2473  0.7726  0.0194
  436MOL0     C58747  12.956   9.909   6.559 -0.2361  0.1787  1.1443
  436MOL0     C58748  13.065   9.907   6.457  0.2448 -0.0441 -0.9042
  436MOL0     O58749  13.116  10.040   6.469  0.0416 -0.3103 -0.8319
  436MOL0     C58750  13.234  10.085   6.413 -0.0480  0.8672  0.2137
  436MOL0     C58751  13.268  10.224   6.423  0.1680  0.1454 -0.0602
  436MOL0     C58752  13.404  10.264   6.391  0.5676  0.7199  0.0072
  436MOL0     C58753  13.506  10.170   6.341  0.2436 -1.4409 -0.2172
  436MOL0     C58754  13.642  10.212   6.313 -0.1597  0.0644 -0.3221
  436MOL0     O58755  13.717  10.134   6.234 -0.7154 -0.0269  0.4032
  436MOL0     C58756  13.835  10.186   6.189 -0.1156 -0.0290  0.4950
  436MOL0     C58757  13.852  10.230   6.055  0.2280 -0.2460 -0.1307
  436MOL0     C58758  13.984  10.270   6.016  0.5835  0.5739 -0.3350
  436MOL0     C58759  14.098  10.259   6.087 -0.1584 -0.8168  0.3258
  436MOL0     O58760  14.217  10.273   6.016  0.5229 -0.6702  0.0509
  436MOL0     C58761  14.341  10.274   6.088 -0.3014 -0.2886 -0.5779
  436MOL0     C58762  14.441  10.340   5.997  0.5321  0.2531  0.0798
  436MOL0     C58763  14.565  10.378   6.067 -0.7718 -0.3616  0.2910
  436MOL0     C58764  14.662  10.436   5.972 -1.2374 -0.5894  0.3013
  436MOL0     C58765  14.814  10.424   6.017 -0.3713 -0.1863 -0.1816
  436MOL0     C58766  14.896  10.510   5.912  0.3657 -0.2394 -0.6424
  436MOL0     C58767  15.042  10.479   5.935 -0.6072  0.3327 -0.0633
  436MOL0     C58768  15.139  10.570   5.840 -0.2515  0.7345 -0.8217
  436MOL0    Cl58769  15.141  10.740   5.901 -0.0777  0.2396  0.2280
  436MOL0     C58770  14.081  10.218   6.219 -0.3539  0.1584 -0.7441
  436MOL0     C58771  13.952  10.181   6.277 -0.0401 -0.5617  0.5693
  436MOL0     O58772  13.682  10.318   6.362 -0.4774  0.9934 -0.0850
  436MOL0     C58773  13.446  10.041   6.316 -0.1484 -0.5807  1.0649
  436MOL0     C58774  13.322   9.995   6.348  0.3438 -0.6466 -0.2686
  436MOL0     N58775  12.619   9.609   6.515 -0.0222 -0.2040  0.3707
  436MOL0     N58776  12.540   9.505   6.534 -0.3980 -0.4880 -0.0564
  436MOL0     C58777  11.416   9.827   6.428 -0.7314  0.2562  0.0526
  436MOL0     C58778  11.294   9.871   6.378  0.3904  0.1714 -0.4578
  436MOL0     C58779  10.973   9.927   6.135 -0.3155  0.3638  0.0840
  436MOL0     C58780  10.898   9.963   6.247 -0.1922 -0.2929 -0.9741
  436MOL0     C58781  10.761   9.970   6.244 -1.0581 -0.2586  0.5166
  436MOL0     C58782  10.688   9.931   6.129  0.1991 -0.4981  1.4508
  436MOL0     O58783  10.550   9.929   6.120  0.0450  0.0020  0.6760
  436MOL0     C58784  10.478   9.950   6.246  0.7178  0.0323 -0.5726
  436MOL0     C58785  10.498   9.837   6.349 -0.1884  0.2587 -0.2095
  436MOL0     C58786  10.389   9.735   6.331  0.3439 -0.1759  0.3552
  436MOL0     C58787  10.381   9.623   6.422 -0.7118  0.3765  0.1276
  436MOL0     C58788  10.509   9.540   6.409  0.4961  0.2174 -0.2369
  436MOL0     C58789  10.610   9.474   6.392  0.2245  0.1395  0.4819
  436MOL0     C58790  10.754   9.876   6.020 -0.3428 -0.0830  0.5650
  436MOL0     C58791  10.896   9.872   6.018 -0.6089 -0.7302 -0.3017
  436MOL0     C58792  10.953   9.819   5.887 -0.7116 -0.1276 -0.2307
  436MOL0     H58793  11.411  10.114   6.168  0.7395  0.3603  0.8582
  436MOL0     H58794  11.637  10.009   6.247 -0.2858  1.7374 -1.0968
  436MOL0     H58795  11.648   9.751   6.597 -0.5986  2.1531 -1.0913
  436MOL0     H58796  11.595   9.637   6.463 -2.6500  1.0209  1.9422
  436MOL0     H58797  11.837   9.636   6.400  0.7909 -3.0879  1.8318
  436MOL0     H58798  11.794   9.565   6.553  0.7351 -1.7861 -2.8809
  436MOL0     H58799  11.875   9.772   6.658  1.8928  0.0299  1.2214
  436MOL0     H58800  11.891   9.857   6.501 -1.4691 -0.0819  0.6306
  436MOL0     H58801  12.062   9.635   6.479 -0.8269  0.2733  0.0943
  436MOL0     H58802  12.111   9.793   6.524  0.3316 -0.0693 -0.1617
  436MOL0     H58803  12.085   9.704   6.771 -3.7228  1.0130  0.0231
  436MOL0     H58804  12.022   9.561   6.703 -0.4767  0.0230 -0.2038
  436MOL0     H58805  12.208   9.490   6.581  0.2865 -0.0112 -1.5480
  436MOL0     H58806  12.288   9.637   6.592 -0.0027  1.7086  3.5866
  436MOL0     H58807  12.232   9.471   6.838 -0.6580  1.5354  0.9358
  436MOL0     H58808  12.356   9.609   6.822  0.8691 -0.7099  1.4357
  436MOL0     H58809  12.459   9.383   6.829 -1.8121  1.2338  1.6952
  436MOL0     H58810  12.388   9.356   6.677  1.5892  1.9391 -3.4743
  436MOL0     H58811  12.603   9.651   6.835 -1.2311  3.3507 -0.7537
  436MOL0     H58812  12.686   9.893   6.595  0.0937  1.0407  2.1987
  436MOL0     H58813  12.775   9.828   6.730  1.5765  2.9692 -1.8139
  436MOL0     H58814  12.912   9.692   6.574 -0.1259  0.2420 -1.0823
  436MOL0     H58815  12.832   9.778   6.442 -1.8569  3.0034  0.3906
  436MOL0     H58816  13.008   9.888   6.653 -0.8370 -5.0816  0.6120
  436MOL0     H58817  12.896  10.000   6.554 -2.1518 -1.0657 -2.1973
  436MOL0     H58818  13.025   9.891   6.357 -0.4621  2.2663 -1.0635
  436MOL0     H58819  13.133   9.825   6.483  2.5622  1.8953 -0.4649
  436MOL0     H58820  13.196  10.292   6.467  0.8436 -0.0768  1.4255
  436MOL0     H58821  13.425  10.368   6.414  0.0040  0.4736  1.8096
  436MOL0     H58822  13.772  10.249   5.984 -0.6538  0.1464  0.9437
  436MOL0     H58823  13.989  10.299   5.911 -0.0617 -0.1320 -0.5746
  436MOL0     H58824  14.318  10.342   6.171 -0.9586  1.4536 -2.1220
  436MOL0     H58825  14.371  10.171   6.109  0.1639 -0.2234 -0.9097
  436MOL0     H58826  14.465  10.264   5.922  2.7170 -1.1147  2.0127
  436MOL0     H58827  14.398  10.423   5.941  1.1317 -0.3573 -1.3527
  436MOL0     H58828  14.548  10.444   6.152  1.9333  0.1078  0.5682
  436MOL0     H58829  14.608  10.289   6.112  1.1791 -0.9645 -2.5204
  436MOL0     H58830  14.633  10.540   5.959 -1.6731 -0.9174 -1.7403
  436MOL0     H58831  14.666  10.385   5.875  1.6382 -2.2862  1.1750
  436MOL0     H58832  14.849  10.321   6.011 -1.3861 -0.4984 -0.9860
  436MOL0     H58833  14.826  10.457   6.121 -2.5307 -0.7353  0.2865
  436MOL0     H58834  14.865  10.488   5.810 -1.6781 -2.0275  0.2752
  436MOL0     H58835  14.887  10.617   5.935 -1.4095 -0.5336  0.1911
  436MOL0     H58836  15.050  10.372   5.913  0.3287  0.4588 -0.3488
  436MOL0     H58837  15.066  10.506   6.038  0.9508 -1.6246  0.1292
  436MOL0     H58838  15.240  10.528   5.839  0.8921  2.9220  2.8622
  436MOL0     H58839  15.100  10.557   5.739  1.8859 -3.9995 -1.3291
  436MOL0     H58840  14.162  10.230   6.290 -0.2067 -1.8972 -0.4977
  436MOL0     H58841  13.944  10.149   6.380  1.6487 -1.2035  0.5394
  436MOL0     H58842  13.509   9.968   6.265 -2.6296 -2.1979  0.1253
  436MOL0     H58843  13.285   9.899   6.311  1.5799 -0.7949 -1.1772
  436MOL0     H58844  11.412   9.743   6.496  1.0954 -0.9199 -1.1921
  436MOL0     H58845  11.208   9.818   6.418 -0.7940  0.8642 -1.9963
  436MOL0     H58846  10.938   9.992   6.343  1.0700  0.0610 -1.5780
  436MOL0     H58847  10.708  10.009   6.331 -0.4170  2.4840 -0.2339
  436MOL0     H58848  10.372   9.980   6.246  0.5434 -0.5573 -1.2821
  436MOL0     H58849  10.525  10.038   6.292  1.9799 -1.3030  0.8181
  436MOL0     H58850  10.494   9.877   6.451  0.5783 -0.3878  0.0838
  436MOL0     H58851  10.594   9.786   6.337  0.2461  1.2052 -0.8453
  436MOL0     H58852  10.397   9.701   6.227 -0.1943  1.0146 -0.0996
  436MOL0     H58853  10.294   9.790   6.340 -0.3850 -1.1466 -0.9496
  436MOL0     H58854  10.377   9.659   6.525 -1.4863  0.5875  0.0303
  436MOL0     H58855  10.298   9.553   6.410 -1.0072  0.6535  0.5553
  436MOL0     H58856  10.699   9.416   6.391  1.6120  1.8986  3.9220
  436MOL0     H58857  10.705   9.838   5.931 -1.5882 -0.4381  1.3833
  436MOL0     H58858  11.032   9.890   5.861  0.0240 -0.8788 -0.1209
  436MOL0     H58859  11.002   9.721   5.897  0.1640  0.1649 -1.4774
  436MOL0     H58860  10.886   9.813   5.801  0.0738 -0.1110 -0.8572
  437MOL0     O58861   7.827   6.628   6.794  0.6773  0.4865  0.2401
  437MOL0     C58862   7.805   6.671   6.908 -0.1055 -0.7413  0.7695
  437MOL0     O58863   7.899   6.711   6.998 -0.1604 -0.2484 -0.3843
  437MOL0     C58864   8.035   6.734   6.971  1.0753  0.5342  0.0206
  437MOL0     C58865   8.080   6.775   6.842  0.1592 -0.6648 -0.4423
  437MOL0     C58866   8.210   6.801   6.815 -0.6374 -0.3704  0.0769
  437MOL0     C58867   8.300   6.789   6.917 -0.2989 -0.1098  0.2740
  437MOL0     O58868   8.427   6.831   6.891  0.1610 -0.3553  0.4140
  437MOL0     C58869   8.536   6.787   6.971  0.6771 -0.7566 -0.4229
  437MOL0     C58870   8.677   6.828   6.934  0.0222 -0.0563 -0.0383
  437MOL0     C58871   8.713   6.977   6.968 -0.8158 -0.1272  0.0845
  437MOL0     C58872   8.839   7.007   6.889 -0.5992  0.3817 -0.0314
  437MOL0     C58873   8.924   7.120   6.942  0.0724  0.0166  0.5375
  437MOL0     C58874   9.027   7.173   6.842  0.5859  0.1864  0.2519
  437MOL0     C58875   9.083   7.308   6.885  0.3216 -1.0389  0.2639
  437MOL0     C58876   9.187   7.291   6.999 -0.0053 -0.3687 -0.4547
  437MOL0     N58877   9.313   7.234   6.955  0.3372 -0.3637  0.3115
  437MOL0     C58878   9.342   7.099   6.948  0.1910 -0.5828 -0.5168
  437MOL0     C58879   9.472   7.104   6.898 -0.6456 -0.3862  0.2035
  437MOL0     C58880   9.560   6.978   6.894 -0.2906 -0.2674  0.4406
  437MOL0     C58881   9.707   7.024   6.885 -0.2056 -0.1752 -0.3001
  437MOL0     C58882   9.805   6.912   6.872 -0.1338 -0.1132 -0.1266
  437MOL0     C58883   9.953   6.957   6.893 -0.0005 -0.4002  0.2818
  437MOL0     O58884   9.968   6.995   7.028  0.0245 -0.6214  0.6194
  437MOL0     C58885  10.091   7.036   7.077  0.3794 -0.1585  0.0136
  437MOL0     C58886  10.125   6.996   7.206 -0.9543  0.5830  0.2166
  437MOL0     C58887  10.258   7.018   7.249  0.7086 -0.3448  0.4625
  437MOL0     C58888  10.345   7.099   7.173 -0.2107  0.3420  0.0633
  437MOL0     C58889  10.472   7.150   7.234 -0.6206  0.1781  0.2298
  437MOL0     O58890  10.528   7.252   7.159 -0.5498 -0.0416  0.1281
  437MOL0     C58891  10.638   7.302   7.219 -0.4710  0.2166  0.4113
  437MOL0     C58892  10.628   7.418   7.295  0.9036 -0.9418 -0.1219
  437MOL0     C58893  10.744   7.479   7.344  0.0263  0.4188 -0.3453
  437MOL0     C58894  10.862   7.405   7.335  0.7544 -0.2872 -0.5947
  437MOL0     O58895  10.972   7.471   7.373 -0.1319 -0.0818  0.2812
  437MOL0     C58896  11.083   7.386   7.422  0.2661 -0.6059  0.0480
  437MOL0     C58897  11.184   7.476   7.510 -0.2532  0.6463  1.0578
  437MOL0     C58898  11.103   7.512   7.643  0.5177 -0.5675 -0.1602
  437MOL0     C58899  11.194   7.550   7.759 -0.8884  0.6261 -0.5532
  437MOL0     C58900  11.304   7.652   7.724  0.1778 -0.3906  0.6748
  437MOL0     C58901  11.392   7.680   7.847  1.3909 -1.2242 -0.5793
  437MOL0     C58902  11.476   7.804   7.823 -0.1464  0.9417 -0.1467
  437MOL0     C58903  11.583   7.832   7.930  1.2243  0.3548 -0.9201
  437MOL0    Cl58904  11.699   7.708   7.962  0.4921  0.0853 -0.1639
  437MOL0     C58905  10.864   7.280   7.277 -0.0665  0.6778 -0.6793
  437MOL0     C58906  10.759   7.234   7.208 -0.2623  0.4727 -0.1857
  437MOL0     O58907  10.517   7.110   7.339  0.5953  0.5385  0.3782
  437MOL0     C58908  10.312   7.139   7.034  0.0016  0.5397 -0.3285
  437MOL0     C58909  10.192   7.093   6.988  0.2773  0.1498  0.2292
  437MOL0     N58910   9.513   7.236   6.863 -0.0288  0.3860 -1.0284
  437MOL0     N58911   9.414   7.313   6.896 -0.1538 -0.5629 -0.1976
  437MOL0     C58912   8.262   6.742   7.043  0.8158  0.6544  0.1162
  437MOL0     C58913   8.129   6.717   7.070  0.8530 -0.1632 -0.3126
  437MOL0     C58914   7.663   6.641   6.948 -0.0198  0.0149 -0.1843
  437MOL0     C58915   7.574   6.596   6.851  0.9229  0.7382 -0.1743
  437MOL0     C58916   7.445   6.546   6.881  0.2248  0.0939 -0.0806
  437MOL0     C58917   7.398   6.548   7.011 -0.3734 -0.3911 -0.4236
  437MOL0     O58918   7.286   6.481   7.053  0.1374 -0.2631  0.2214
  437MOL0     C58919   7.189   6.441   6.961  0.5353 -0.0649  0.2711
  437MOL0     C58920   7.087   6.346   7.032 -0.4740  0.3786  0.3233
  437MOL0     C58921   7.022   6.409   7.154 -0.0234 -0.3056  0.6298
  437MOL0     C58922   6.908   6.309   7.198  0.1488 -0.3467 -1.0375
  437MOL0     C58923   6.975   6.196   7.271  0.3815  0.5298  0.4845
  437MOL0     C58924   7.010   6.101   7.335 -0.3875 -0.6698  0.4891
  437MOL0     C58925   7.480   6.603   7.106 -0.0924 -0.8271  0.1821
  437MOL0     C58926   7.613   6.655   7.081 -0.0846  0.2435 -0.2592
  437MOL0     C58927   7.684   6.722   7.197  0.0395 -0.1715 -0.0436
  437MOL0     H58928   8.008   6.780   6.762 -1.3598 -0.6404  0.8893
  437MOL0     H58929   8.254   6.831   6.720 -2.6923  0.7526 -0.5796
  437MOL0     H58930   8.531   6.844   7.064  0.2508 -0.6573 -0.5043
  437MOL0     H58931   8.530   6.678   6.981  0.0266 -1.4195 -5.2701
  437MOL0     H58932   8.702   6.800   6.831 -0.6283  1.2854 -0.5874
  437MOL0     H58933   8.744   6.767   6.995 -0.7668  0.7930  1.7501
  437MOL0     H58934   8.735   6.975   7.075 -1.8526  1.6921  0.3660
  437MOL0     H58935   8.639   7.054   6.946  0.8415  1.2780 -0.8616
  437MOL0     H58936   8.902   6.917   6.886 -0.1626  0.7068 -1.9661
  437MOL0     H58937   8.806   7.025   6.786  1.1692 -1.6098 -1.0290
  437MOL0     H58938   8.857   7.198   6.979 -0.3558 -0.4021  0.6441
  437MOL0     H58939   8.973   7.078   7.031 -0.0890  0.3126  0.7696
  437MOL0     H58940   9.108   7.099   6.838 -0.8822 -1.5652  1.4583
  437MOL0     H58941   8.976   7.182   6.746 -0.2852 -2.0126  0.4394
  437MOL0     H58942   9.000   7.374   6.912 -0.2109  0.2358 -3.8021
  437MOL0     H58943   9.123   7.354   6.795 -2.2133  2.7166  0.8416
  437MOL0     H58944   9.217   7.387   7.042 -2.5109 -0.7216  2.4191
  437MOL0     H58945   9.154   7.234   7.087  0.6410 -1.1242 -0.6854
  437MOL0     H58946   9.277   7.014   6.965  0.9571 -1.0319  0.2043
  437MOL0     H58947   9.550   6.923   6.988 -1.4889  2.1378  1.7964
  437MOL0     H58948   9.529   6.912   6.813  2.5074  0.9622 -1.8238
  437MOL0     H58949   9.708   7.091   6.799 -0.3440 -0.7978 -0.7879
  437MOL0     H58950   9.722   7.092   6.969  0.9973 -0.6168 -0.1376
  437MOL0     H58951   9.801   6.875   6.769 -0.8946  0.4023 -0.2879
  437MOL0     H58952   9.787   6.827   6.938  1.2824  1.0702  1.9101
  437MOL0     H58953   9.976   7.045   6.832  1.7720 -0.5820  0.6598
  437MOL0     H58954  10.026   6.881   6.865  0.9043  1.2957 -2.3067
  437MOL0     H58955  10.058   6.941   7.271  2.1675 -1.5545  1.9208
  437MOL0     H58956  10.272   6.978   7.349 -4.4505 -5.0973 -0.2145
  437MOL0     H58957  10.533   7.466   7.316  0.8488  0.4934 -3.0728
  437MOL0     H58958  10.744   7.576   7.393 -1.6957  1.8482 -2.9603
  437MOL0     H58959  11.050   7.307   7.491  3.5610 -2.4372 -0.2241
  437MOL0     H58960  11.125   7.327   7.340  1.5828 -1.9371  1.5946
  437MOL0     H58961  11.272   7.424   7.550  0.3848  1.9379  1.3754
  437MOL0     H58962  11.222   7.560   7.452 -1.6741 -0.8443 -2.2937
  437MOL0     H58963  11.030   7.590   7.619 -1.3794 -2.4305 -0.7846
  437MOL0     H58964  11.040   7.427   7.671 -1.5565  0.6456 -0.9369
  437MOL0     H58965  11.250   7.461   7.789 -1.9116 -0.4980 -1.8591
  437MOL0     H58966  11.131   7.576   7.845  0.4442 -0.8440  0.9484
  437MOL0     H58967  11.269   7.744   7.676  1.8940 -0.0007  0.1030
  437MOL0     H58968  11.367   7.609   7.645 -1.8690  2.3242 -2.7088
  437MOL0     H58969  11.321   7.698   7.928  3.0122  1.0791  0.4565
  437MOL0     H58970  11.448   7.588   7.865  0.7853 -1.2617  1.3288
  437MOL0     H58971  11.403   7.886   7.816 -1.3916 -0.2050 -1.1305
  437MOL0     H58972  11.516   7.805   7.721  1.0790  1.1559  0.3239
  437MOL0     H58973  11.627   7.930   7.911  1.1659  0.5767  0.0125
  437MOL0     H58974  11.527   7.839   8.024 -0.5929  1.5176 -2.0237
  437MOL0     H58975  10.947   7.212   7.291 -0.0372  0.0646 -3.2961
  437MOL0     H58976  10.754   7.145   7.146 -0.3913  2.6502 -3.5765
  437MOL0     H58977  10.374   7.191   6.962  0.3976  0.9331  0.2884
  437MOL0     H58978  10.170   7.123   6.886 -4.5281 -0.6509  0.7782
  437MOL0     H58979   8.330   6.734   7.128 -2.3919  0.7932  2.9360
  437MOL0     H58980   8.095   6.674   7.164  0.8994 -2.0021 -1.1002
  437MOL0     H58981   7.605   6.601   6.747 -2.3094  2.9989 -1.1625
  437MOL0     H58982   7.381   6.522   6.797  0.5367  1.0050 -0.5986
  437MOL0     H58983   7.225   6.396   6.868 -1.9496  0.3957 -1.0029
  437MOL0     H58984   7.140   6.531   6.922  2.0328 -0.3885 -2.6509
  437MOL0     H58985   7.127   6.246   7.051 -0.2303  0.1897 -1.1137
  437MOL0     H58986   7.010   6.332   6.956 -2.5144 -1.8682  2.6477
  437MOL0     H58987   6.967   6.498   7.121  1.9542  0.2299 -1.4892
  437MOL0     H58988   7.087   6.437   7.237 -1.6155 -2.1990  2.6456
  437MOL0     H58989   6.839   6.353   7.270 -0.1634  0.6796 -1.9262
  437MOL0     H58990   6.853   6.274   7.110  0.6127 -0.2214 -1.3844
  437MOL0     H58991   7.038   6.026   7.407 -2.0145 -0.1588  1.7023
  437MOL0     H58992   7.449   6.618   7.209 -0.7121 -2.0951  0.1908
  437MOL0     H58993   7.768   6.664   7.234  0.0828 -1.9225 -2.6436
  437MOL0     H58994   7.708   6.825   7.167  2.2740 -0.5967  0.1196
  437MOL0     H58995   7.615   6.733   7.281  1.3384  2.3168  0.8084
  438MOL0     O58996   4.236   3.727   3.405  0.6146  0.5512  0.1233
  438MOL0     C58997   4.147   3.642   3.400 -0.3778  0.0531 -0.1971
  438MOL0     O58998   4.162   3.515   3.451  0.3372  0.5011  0.3349
  438MOL0     C58999   4.270   3.468   3.526  0.0697 -0.0593  0.5476
  438MOL0     C59000   4.330   3.343   3.494 -0.6065 -0.5120 -0.1179
  438MOL0     C59001   4.425   3.281   3.581  1.0715 -0.1879 -0.0257
  438MOL0     C59002   4.469   3.348   3.694 -0.1735  0.6153  0.8798
  438MOL0     O59003   4.561   3.296   3.782  0.3599  0.1779 -0.4913
  438MOL0     C59004   4.668   3.224   3.715  0.2661 -0.4896  0.6761
  438MOL0     C59005   4.789   3.211   3.807  0.8567 -1.1819  0.2759
  438MOL0     C59006   4.885   3.111   3.749 -0.1299  0.5470 -0.6261
  438MOL0     C59007   5.000   3.092   3.855  0.3073  0.4785 -0.1918
  438MOL0     C59008   5.112   3.007   3.791  0.7944 -0.6914  0.0477
  438MOL0     C59009   5.217   2.970   3.907  0.8347  0.6552 -0.7761
  438MOL0     C59010   5.311   2.858   3.862 -0.7256 -0.5926 -0.1054
  438MOL0     C59011   5.437   2.845   3.954 -0.3855  1.0357  0.3644
  438MOL0     N59012   5.543   2.757   3.897  0.7005 -0.5969  0.1674
  438MOL0     C59013   5.567   2.629   3.927 -0.0705 -0.1137  0.1270
  438MOL0     C59014   5.680   2.606   3.870  0.6952 -0.1528  1.0397
  438MOL0     C59015   5.772   2.494   3.884 -0.0403 -0.5169 -0.0497
  438MOL0     C59016   5.805   2.438   3.743  0.7691  0.1445  0.5708
  438MOL0     C59017   5.848   2.290   3.759 -0.3770 -0.5576 -0.4357
  438MOL0     C59018   5.913   2.244   3.638 -0.4657  1.1482  0.9264
  438MOL0     O59019   6.044   2.291   3.598 -0.6061 -0.0629  0.1352
  438MOL0     C59020   6.145   2.214   3.649 -0.3786  0.1115  0.2216
  438MOL0     C59021   6.230   2.272   3.745 -0.3431 -0.1300 -0.4683
  438MOL0     C59022   6.337   2.200   3.802 -0.0941  0.0807 -0.3094
  438MOL0     C59023   6.382   2.082   3.748 -0.8451 -0.4662  0.2094
  438MOL0     C59024   6.509   2.012   3.786  0.6763 -0.3412 -0.2327
  438MOL0     O59025   6.587   1.951   3.698 -0.0553  0.2764  0.4533
  438MOL0     C59026   6.713   1.908   3.738 -0.4165  0.3585  0.4224
  438MOL0     C59027   6.822   1.958   3.670 -0.0029 -0.3539  0.8594
  438MOL0     C59028   6.953   1.927   3.709 -0.0154  0.3289 -0.0542
  438MOL0     C59029   6.977   1.841   3.819  0.0988 -0.1737 -0.0184
  438MOL0     O59030   7.103   1.809   3.854  0.6949 -0.2732  0.0960
  438MOL0     C59031   7.125   1.667   3.867  0.1719  0.3245  0.0464
  438MOL0     C59032   7.276   1.638   3.902  0.7628 -0.3913 -0.2180
  438MOL0     C59033   7.311   1.493   3.881  0.2235  0.2332 -0.5194
  438MOL0     C59034   7.463   1.473   3.901 -0.1937  0.1189 -0.0973
  438MOL0     C59035   7.539   1.503   3.776  0.2667  0.2203  0.5435
  438MOL0     C59036   7.688   1.489   3.772  0.3777 -0.5755 -0.0021
  438MOL0     C59037   7.763   1.524   3.901  0.2035 -0.3415  0.1863
  438MOL0     C59038   7.908   1.567   3.894 -0.2242 -0.3000  0.2998
  438MOL0    Cl59039   7.997   1.496   3.755  0.4303 -0.6994  0.0489
  438MOL0     C59040   6.864   1.791   3.883  0.9071  0.0447 -0.7287
  438MOL0     C59041   6.738   1.823   3.842 -0.5948  0.4533  0.4639
  438MOL0     O59042   6.536   2.029   3.908  0.1528  0.2426 -0.4196
  438MOL0     C59043   6.298   2.030   3.641 -0.3506 -0.4912 -0.4830
  438MOL0     C59044   6.186   2.090   3.600  0.2314 -0.0844  0.2808
  438MOL0     N59045   5.726   2.718   3.795  0.5536 -0.1024 -0.3667
  438MOL0     N59046   5.650   2.817   3.837  0.6087 -0.2097  0.6839
  438MOL0     C59047   4.402   3.466   3.731 -0.3678  1.0585  0.9361
  438MOL0     C59048   4.309   3.531   3.644  0.8040 -0.3385  0.6321
  438MOL0     C59049   4.017   3.669   3.327 -0.5279  0.4940 -0.5540
  438MOL0     C59050   3.912   3.580   3.349 -0.6446 -0.1130 -0.6363
  438MOL0     C59051   3.783   3.616   3.307 -0.4427 -0.2195  0.0130
  438MOL0     C59052   3.759   3.744   3.252 -0.5526  0.3001 -0.7493
  438MOL0     O59053   3.629   3.772   3.237  0.2194  0.2364 -0.2742
  438MOL0     C59054   3.607   3.880   3.149 -0.7353 -1.0591 -0.7238
  438MOL0     C59055   3.460   3.943   3.156  0.3666 -0.2060  0.2178
  438MOL0     C59056   3.357   3.842   3.081  0.1775 -0.4537 -0.1799
  438MOL0     C59057   3.216   3.886   3.128  0.6042 -0.1264  0.0765
  438MOL0     C59058   3.105   3.812   3.047  0.5298 -0.3958  0.1861
  438MOL0     C59059   3.007   3.787   2.987  0.5655  0.2408  0.4557
  438MOL0     C59060   3.870   3.826   3.217  0.6688 -0.3230 -0.0390
  438MOL0     C59061   3.998   3.786   3.243  0.2061  0.6760 -0.8968
  438MOL0     C59062   4.115   3.857   3.184 -0.1743  0.1763  0.1950
  438MOL0     H59063   4.292   3.289   3.408  0.2765 -0.4473 -0.5560
  438MOL0     H59064   4.462   3.182   3.558 -2.7126 -2.0706  1.2597
  438MOL0     H59065   4.628   3.124   3.694 -0.8910 -0.0655  0.7924
  438MOL0     H59066   4.697   3.261   3.616 -1.1017 -1.5074 -0.1568
  438MOL0     H59067   4.757   3.177   3.906 -0.8999  0.9943  0.5503
  438MOL0     H59068   4.824   3.313   3.830 -2.5421  0.0416  0.5185
  438MOL0     H59069   4.930   3.146   3.656  1.7236  1.3003  0.4756
  438MOL0     H59070   4.833   3.016   3.738  0.0152  0.5680 -1.5078
  438MOL0     H59071   5.040   3.189   3.889 -0.2417  0.5531  0.2480
  438MOL0     H59072   4.961   3.037   3.941  0.7294 -2.6578 -1.8682
  438MOL0     H59073   5.062   2.919   3.750 -2.2013 -0.0762  2.0674
  438MOL0     H59074   5.153   3.066   3.709 -0.4610  0.3304  0.1269
  438MOL0     H59075   5.284   3.052   3.932  2.5435 -0.6087 -0.9724
  438MOL0     H59076   5.169   2.938   4.000 -0.2559  2.7307 -0.5711
  438MOL0     H59077   5.348   2.880   3.762 -1.8870  0.0899 -0.3999
  438MOL0     H59078   5.253   2.766   3.870 -3.3663  1.1141  3.4291
  438MOL0     H59079   5.488   2.940   3.971 -0.2393  0.9469  0.4255
  438MOL0     H59080   5.410   2.801   4.050 -1.8886  0.3448 -0.3343
  438MOL0     H59081   5.505   2.563   3.988 -2.1524 -0.0996 -1.8282
  438MOL0     H59082   5.863   2.509   3.942  0.2627 -2.1274 -0.0512
  438MOL0     H59083   5.727   2.415   3.946  0.0394 -1.1229 -0.7534
  438MOL0     H59084   5.721   2.438   3.674 -0.0718 -2.5663  1.4651
  438MOL0     H59085   5.892   2.491   3.702  0.8803 -0.3457  0.1700
  438MOL0     H59086   5.763   2.226   3.785  0.6540 -2.1007 -0.7494
  438MOL0     H59087   5.919   2.257   3.836  0.1762 -3.0734 -1.9419
  438MOL0     H59088   5.842   2.256   3.556 -1.9816 -0.0503  2.0215
  438MOL0     H59089   5.920   2.136   3.650  0.9633  1.3053  1.7397
  438MOL0     H59090   6.218   2.373   3.781 -0.1238  0.1790 -1.2544
  438MOL0     H59091   6.403   2.241   3.878 -2.7627  0.7221  1.8753
  438MOL0     H59092   6.798   2.027   3.589  2.7825 -1.8683 -1.4498
  438MOL0     H59093   7.045   1.969   3.668  0.0679  0.0044 -0.2011
  438MOL0     H59094   7.063   1.628   3.949  1.7648 -1.3206  0.5451
  438MOL0     H59095   7.090   1.628   3.771  1.2134 -1.7128  0.4328
  438MOL0     H59096   7.329   1.703   3.832 -1.7862  1.8244 -0.2439
  438MOL0     H59097   7.303   1.669   4.003  1.6021  0.4462 -0.6858
  438MOL0     H59098   7.274   1.432   3.964 -1.1833  0.8753 -0.6507
  438MOL0     H59099   7.276   1.433   3.796 -1.4596 -1.2728  1.1370
  438MOL0     H59100   7.476   1.372   3.939  2.1730  0.3499 -0.1241
  438MOL0     H59101   7.494   1.534   3.986  0.9423  1.1091 -1.1792
  438MOL0     H59102   7.515   1.606   3.750  1.1873 -0.1821 -2.3344
  438MOL0     H59103   7.490   1.453   3.692 -1.6326  1.4110  0.9044
  438MOL0     H59104   7.705   1.389   3.733  0.1599 -0.6449  0.0798
  438MOL0     H59105   7.714   1.565   3.697 -1.5114  0.8110  0.6445
  438MOL0     H59106   7.765   1.426   3.949  0.0320 -0.2829  0.3142
  438MOL0     H59107   7.712   1.591   3.971  1.0305  1.9312 -1.2859
  438MOL0     H59108   7.911   1.675   3.876 -0.2823 -0.7706 -3.2815
  438MOL0     H59109   7.962   1.538   3.984  1.5432  3.0848  0.4826
  438MOL0     H59110   6.876   1.729   3.971 -1.4775  1.3319  0.5837
  438MOL0     H59111   6.647   1.787   3.890 -2.1748  1.2715 -1.7524
  438MOL0     H59112   6.328   1.933   3.603 -0.3713  0.0225 -1.8726
  438MOL0     H59113   6.139   2.050   3.511  0.3471  4.6454 -2.2521
  438MOL0     H59114   4.439   3.520   3.818 -2.9014  1.2490  1.9668
  438MOL0     H59115   4.270   3.629   3.670  1.1302 -0.7493  2.8546
  438MOL0     H59116   3.927   3.480   3.389  3.3896 -1.1250 -4.0244
  438MOL0     H59117   3.696   3.550   3.309 -1.2961  0.8679  2.8123
  438MOL0     H59118   3.632   3.843   3.050 -0.7230 -0.7123 -0.8528
  438MOL0     H59119   3.666   3.968   3.177  0.0431 -1.3333 -1.4742
  438MOL0     H59120   3.456   4.046   3.118  0.7430  0.4903  1.9691
  438MOL0     H59121   3.429   3.958   3.260 -1.9314 -3.5013  0.1446
  438MOL0     H59122   3.385   3.740   3.107 -0.1294 -1.0777 -2.1098
  438MOL0     H59123   3.353   3.855   2.972 -3.5148 -0.3951 -0.1641
  438MOL0     H59124   3.202   3.860   3.233 -1.3215  0.1253 -0.0845
  438MOL0     H59125   3.198   3.993   3.114 -0.1106  0.1760  2.7727
  438MOL0     H59126   2.933   3.771   2.911  0.8375 -0.9713  0.4259
  438MOL0     H59127   3.858   3.906   3.145  0.6043 -1.7531 -1.6958
  438MOL0     H59128   4.169   3.903   3.267  1.4381  0.5154 -0.9900
  438MOL0     H59129   4.177   3.775   3.147 -0.0704  0.4597 -0.2598
  438MOL0     H59130   4.092   3.934   3.109  1.5070 -1.8191 -2.5458
  439MOL0     O59131  11.052   8.813   5.462 -0.1302 -0.1970 -0.0934
  439MOL0     C59132  10.996   8.788   5.354  0.2420 -0.6470  0.4382
  439MOL0     O59133  11.063   8.772   5.233  0.2565 -0.7268  0.3096
  439MOL0     C59134  11.193   8.796   5.236 -0.1543 -1.8188  0.0822
  439MOL0     C59135  11.229   8.933   5.230  0.5867  0.7318  0.1180
  439MOL0     C59136  11.364   8.964   5.228  0.3711 -0.3529  0.5028
  439MOL0     C59137  11.469   8.869   5.240  0.7375  0.4780 -0.3850
  439MOL0     O59138  11.603   8.899   5.236 -0.1755  0.0301 -0.0568
  439MOL0     C59139  11.637   9.037   5.204 -0.2622 -0.8803 -0.4278
  439MOL0     C59140  11.788   9.037   5.211 -0.6209 -0.5031 -0.4516
  439MOL0     C59141  11.835   9.186   5.223 -0.4046  0.4803  0.1027
  439MOL0     C59142  11.975   9.192   5.292  0.1973 -0.1136 -0.6331
  439MOL0     C59143  12.028   9.338   5.295 -0.3490  0.0549  0.0631
  439MOL0     C59144  12.161   9.362   5.373 -0.3768  0.0506 -0.2837
  439MOL0     C59145  12.162   9.519   5.399 -0.0158  0.8703 -0.2844
  439MOL0     C59146  12.296   9.582   5.448  0.4654  0.3476  0.0774
  439MOL0     N59147  12.340   9.535   5.583  0.4591 -0.0648  1.1074
  439MOL0     C59148  12.368   9.411   5.624  0.3125 -0.2844 -0.5028
  439MOL0     C59149  12.416   9.429   5.753  0.2010 -0.6028  0.3162
  439MOL0     C59150  12.467   9.315   5.836 -0.3390  0.6387 -0.4848
  439MOL0     C59151  12.373   9.233   5.921 -0.1556  0.2135  0.2091
  439MOL0     C59152  12.307   9.110   5.853 -0.5242 -0.1898  0.0729
  439MOL0     C59153  12.197   9.039   5.923 -0.3982 -0.5753  0.5984
  439MOL0     O59154  12.258   8.972   6.033 -0.0680  0.3683 -0.4330
  439MOL0     C59155  12.180   8.923   6.139  0.3877  0.1921  0.6948
  439MOL0     C59156  12.245   8.883   6.254  0.3560  0.6732 -0.2157
  439MOL0     C59157  12.174   8.854   6.374  0.0331 -0.1202 -0.6035
  439MOL0     C59158  12.032   8.862   6.370 -0.3032 -1.2216  0.3300
  439MOL0     C59159  11.954   8.834   6.492 -0.0191 -0.5907 -0.3378
  439MOL0     O59160  11.830   8.789   6.462  0.4639 -0.2821 -0.0014
  439MOL0     C59161  11.745   8.711   6.537  0.6242 -0.3279 -0.2069
  439MOL0     C59162  11.614   8.702   6.494  0.6289 -0.1017  0.1810
  439MOL0     C59163  11.521   8.618   6.566  0.0957 -0.0628  0.3165
  439MOL0     C59164  11.563   8.540   6.674  0.5931  0.0740 -0.0892
  439MOL0     O59165  11.479   8.452   6.743  0.5836  0.1102 -0.1615
  439MOL0     C59166  11.341   8.488   6.765  0.3251 -0.1822  0.6181
  439MOL0     C59167  11.326   8.627   6.826  0.7038 -0.7225  0.2460
  439MOL0     C59168  11.397   8.667   6.952 -0.0171  0.0248  1.0367
  439MOL0     C59169  11.357   8.807   7.004 -0.5357  0.7805 -0.4275
  439MOL0     C59170  11.422   8.922   6.921  1.3793  0.0654  0.1814
  439MOL0     C59171  11.578   8.913   6.907 -0.1931  0.1380 -0.3948
  439MOL0     C59172  11.634   9.050   6.874 -0.2609  0.0522 -0.4223
  439MOL0     C59173  11.776   9.034   6.857  0.9193  0.1469  0.1916
  439MOL0    Cl59174  11.823   9.204   6.811  0.0340 -0.3785 -0.0117
  439MOL0     C59175  11.692   8.563   6.720  0.2943  0.3001  0.3677
  439MOL0     C59176  11.781   8.643   6.651  0.1934  0.3058 -0.9424
  439MOL0     O59177  11.988   8.861   6.605 -0.5166  0.6316 -0.1192
  439MOL0     C59178  11.975   8.916   6.252  0.1940  0.2552  0.1202
  439MOL0     C59179  12.047   8.955   6.141  0.0629 -0.2884 -0.1044
  439MOL0     N59180  12.407   9.561   5.787 -0.0356  0.5224 -0.4038
  439MOL0     N59181  12.358   9.618   5.685 -0.6333 -0.7098 -0.0681
  439MOL0     C59182  11.424   8.733   5.256 -0.7240  0.9280 -0.3638
  439MOL0     C59183  11.289   8.700   5.251 -0.7018 -0.2150 -0.5465
  439MOL0     C59184  10.846   8.765   5.356 -0.3870  1.2312  0.0018
  439MOL0     C59185  10.793   8.742   5.234  0.6442  0.1660  0.1945
  439MOL0     C59186  10.663   8.731   5.211 -0.2276  0.7494  0.3577
  439MOL0     C59187  10.571   8.746   5.320  0.2263  0.3671 -0.8092
  439MOL0     O59188  10.434   8.756   5.293 -0.6867  0.6479  0.2039
  439MOL0     C59189  10.372   8.878   5.328 -0.0017  0.7036  0.5879
  439MOL0     C59190  10.427   8.995   5.251 -0.1231  0.2659  0.0479
  439MOL0     C59191  10.366   9.134   5.275  0.5777  0.5453  0.5898
  439MOL0     C59192  10.212   9.129   5.241  0.5829 -0.6004 -0.7778
  439MOL0     C59193  10.157   9.260   5.269  1.0015 -0.5791  0.1994
  439MOL0     C59194  10.122   9.374   5.294 -0.5846 -0.0645  0.1490
  439MOL0     C59195  10.620   8.761   5.448  0.6411  0.2355  0.1048
  439MOL0     C59196  10.762   8.769   5.472  0.4187  0.6448 -0.5894
  439MOL0     C59197  10.813   8.779   5.617 -0.6189 -0.1230  0.2708
  439MOL0     H59198  11.147   9.004   5.218  1.4022  1.7685  0.5578
  439MOL0     H59199  11.371   9.072   5.221 -0.1532 -0.4279 -2.1721
  439MOL0     H59200  11.627   9.060   5.098  3.5453  1.3368 -0.5000
  439MOL0     H59201  11.578   9.099   5.272  0.3873 -0.2758 -0.4055
  439MOL0     H59202  11.830   8.982   5.126  0.6412 -1.4759  0.7653
  439MOL0     H59203  11.833   8.988   5.297  0.0307  1.8417  0.6421
  439MOL0     H59204  11.774   9.240   5.296  0.6264 -0.3230  1.6015
  439MOL0     H59205  11.836   9.238   5.127  1.6032  0.9721  0.3529
  439MOL0     H59206  11.955   9.166   5.396 -2.6801 -0.5180 -1.2172
  439MOL0     H59207  12.046   9.135   5.231 -0.7881  1.9799 -4.0423
  439MOL0     H59208  12.060   9.366   5.194  0.8257 -3.2304 -0.6231
  439MOL0     H59209  11.958   9.411   5.335  0.9792  1.6526 -0.4205
  439MOL0     H59210  12.152   9.323   5.475 -1.4342  1.4063  0.1723
  439MOL0     H59211  12.245   9.327   5.312 -1.4681 -1.9333 -0.7180
  439MOL0     H59212  12.092   9.533   5.481 -2.5319 -0.3992 -2.0656
  439MOL0     H59213  12.126   9.567   5.307 -0.0234 -2.2613 -2.0574
  439MOL0     H59214  12.378   9.565   5.377 -1.1657 -0.1041 -1.7867
  439MOL0     H59215  12.288   9.691   5.452  4.0697  0.7234  3.0257
  439MOL0     H59216  12.370   9.316   5.571  0.7035  0.7178 -2.3996
  439MOL0     H59217  12.517   9.244   5.770 -0.6763  0.0902 -0.1569
  439MOL0     H59218  12.542   9.349   5.908 -0.3973  0.0320 -0.1265
  439MOL0     H59219  12.421   9.194   6.011 -0.1965  1.0042  0.5842
  439MOL0     H59220  12.297   9.307   5.948  1.0620  2.7555 -2.8175
  439MOL0     H59221  12.386   9.034   5.847  2.3496  2.4588  1.2416
  439MOL0     H59222  12.284   9.139   5.751  1.8478 -3.5326 -1.6063
  439MOL0     H59223  12.144   8.970   5.857 -0.6623 -1.6916  1.9163
  439MOL0     H59224  12.127   9.122   5.938 -1.2945 -0.2419 -4.0548
  439MOL0     H59225  12.353   8.881   6.248  0.4309 -1.3666  0.9374
  439MOL0     H59226  12.226   8.817   6.462 -1.7900 -0.0615  0.5484
  439MOL0     H59227  11.583   8.766   6.412  0.5797 -0.9453 -0.4836
  439MOL0     H59228  11.418   8.615   6.531 -0.1272  1.4263  0.7682
  439MOL0     H59229  11.290   8.482   6.668  0.3010  0.1875  0.6070
  439MOL0     H59230  11.296   8.413   6.831  0.4386 -2.4065 -1.6878
  439MOL0     H59231  11.347   8.701   6.747 -2.5829  1.2701  1.0516
  439MOL0     H59232  11.221   8.648   6.849  0.2565  3.4243 -3.9420
  439MOL0     H59233  11.358   8.598   7.028 -3.6311  0.1365 -0.4708
  439MOL0     H59234  11.504   8.656   6.938 -0.0779 -0.6094  1.0461
  439MOL0     H59235  11.394   8.811   7.107  0.3741 -2.4316 -0.5220
  439MOL0     H59236  11.249   8.822   7.006 -0.8934 -1.2577  2.5843
  439MOL0     H59237  11.403   9.020   6.965  2.0591 -0.2277  1.1492
  439MOL0     H59238  11.368   8.929   6.826 -1.5725 -0.9877  1.6726
  439MOL0     H59239  11.625   8.872   6.997 -0.3337  0.7986 -0.0124
  439MOL0     H59240  11.604   8.850   6.822  2.9110  0.7694 -0.0198
  439MOL0     H59241  11.620   9.126   6.952 -0.8797 -2.3772  1.9831
  439MOL0     H59242  11.593   9.088   6.780  0.9032  1.0715 -0.5527
  439MOL0     H59243  11.835   8.998   6.942  1.3141 -0.0298 -0.1537
  439MOL0     H59244  11.789   8.965   6.773 -2.3711 -0.7386  0.2655
  439MOL0     H59245  11.723   8.515   6.812  0.8201  0.2360  0.1663
  439MOL0     H59246  11.886   8.646   6.680 -0.6089  1.7102  2.1585
  439MOL0     H59247  11.874   8.954   6.267  0.4754  0.5964  1.2387
  439MOL0     H59248  12.004   9.002   6.053  1.2211  1.4203  0.1961
  439MOL0     H59249  11.500   8.657   5.271  1.0733  2.4342 -1.3979
  439MOL0     H59250  11.274   8.593   5.261  4.6135 -1.0839  0.9779
  439MOL0     H59251  10.851   8.748   5.142 -0.4532  2.5275 -0.4324
  439MOL0     H59252  10.630   8.736   5.108 -0.3548 -1.6929  0.2114
  439MOL0     H59253  10.375   8.883   5.438  0.6689 -1.3791  0.7170
  439MOL0     H59254  10.266   8.857   5.307  0.3966 -1.1313  0.2295
  439MOL0     H59255  10.418   8.971   5.145 -1.9413 -0.1557  0.2605
  439MOL0     H59256  10.537   8.995   5.256  0.0055  0.9864 -1.9991
  439MOL0     H59257  10.427   9.202   5.215  0.4405  3.5909  3.6233
  439MOL0     H59258  10.383   9.175   5.375  2.5324  1.8732 -0.2239
  439MOL0     H59259  10.198   9.099   5.137 -0.2236  0.9145 -1.1345
  439MOL0     H59260  10.164   9.050   5.299 -0.2204 -0.4008 -1.1572
  439MOL0     H59261  10.089   9.472   5.324  1.9808  0.9400 -0.0709
  439MOL0     H59262  10.541   8.768   5.522  3.9095  4.0427  3.7409
  439MOL0     H59263  10.728   8.772   5.687 -1.6534  1.2535 -0.8018
  439MOL0     H59264  10.881   8.699   5.648 -2.1847 -1.9685 -0.7873
  439MOL0     H59265  10.850   8.881   5.629  0.7208 -0.1394 -2.9743
  440MOL0     O59266   5.273   9.237  10.562  0.4516  0.4704  0.1158
  440MOL0     C59267   5.185   9.153  10.585  1.2147  0.6254 -0.6542
  440MOL0     O59268   5.213   9.035  10.650  0.1754  0.3071 -0.3106
  440MOL0     C59269   5.341   8.979  10.652  1.1773 -0.9272  0.5000
  440MOL0     C59270   5.370   8.862  10.581  0.8575  0.0878  0.0536
  440MOL0     C59271   5.491   8.796  10.596  0.5652  0.0801 -0.1154
  440MOL0     C59272   5.590   8.853  10.683 -0.7501 -0.2167 -0.2742
  440MOL0     O59273   5.720   8.805  10.686 -0.2635 -0.0271 -0.1307
  440MOL0     C59274   5.730   8.672  10.737  0.1882 -0.5747  0.7354
  440MOL0     C59275   5.760   8.681  10.885 -0.1790 -0.1013  0.1177
  440MOL0     C59276   5.889   8.764  10.917 -0.3840  0.0355  0.3629
  440MOL0     C59277   5.879   8.799  11.061 -0.4930 -0.1157 -0.3004
  440MOL0     C59278   6.005   8.883  11.115 -0.5917 -1.3811 -0.3203
  440MOL0     C59279   6.120   8.788  11.167  0.3776 -0.6358 -0.2619
  440MOL0     C59280   6.260   8.853  11.154 -0.0179  0.1643 -0.1017
  440MOL0     C59281   6.265   8.996  11.207 -1.0033 -0.2205  0.2952
  440MOL0     N59282   6.405   9.042  11.188 -0.4522 -0.6040 -0.7286
  440MOL0     C59283   6.463   9.105  11.079 -0.6770 -0.0421  0.0107
  440MOL0     C59284   6.598   9.094  11.096  0.2378 -0.4486 -1.1070
  440MOL0     C59285   6.712   9.141  11.007  0.4467 -0.2960 -0.2430
  440MOL0     C59286   6.850   9.105  11.072 -0.3396 -0.1978  0.7530
  440MOL0     C59287   6.967   9.138  10.974 -0.0951 -0.1307  0.2335
  440MOL0     C59288   7.106   9.071  11.008 -0.2645 -0.8640 -0.1999
  440MOL0     O59289   7.130   9.093  11.148 -0.0484 -0.4255 -0.3818
  440MOL0     C59290   7.254   9.053  11.195 -0.2130 -0.3256  0.4462
  440MOL0     C59291   7.291   9.106  11.315 -0.4464  0.0588  0.4842
  440MOL0     C59292   7.405   9.062  11.380  0.1531  0.3210 -1.5143
  440MOL0     C59293   7.488   8.963  11.333  0.1431 -0.3775 -0.1871
  440MOL0     C59294   7.615   8.922  11.411 -0.1001 -0.3954 -0.5600
  440MOL0     O59295   7.671   9.011  11.490  0.1353 -0.0931  0.2884
  440MOL0     C59296   7.792   8.990  11.557  0.1144 -0.7164  0.7023
  440MOL0     C59297   7.832   8.872  11.615 -0.1052  0.0472  0.2310
  440MOL0     C59298   7.951   8.871  11.686 -0.3874  0.4319 -0.1413
  440MOL0     C59299   8.037   8.982  11.694  0.5118  0.1886 -1.1607
  440MOL0     O59300   8.158   8.978  11.753 -0.4147  0.4540  0.2265
  440MOL0     C59301   8.197   8.868  11.839  0.4561  0.3362 -0.1695
  440MOL0     C59302   8.339   8.888  11.881  0.1006  0.1013  0.3591
  440MOL0     C59303   8.381   8.804  12.010 -0.1592 -0.0523  0.8058
  440MOL0     C59304   8.540   8.772  12.013  0.2258 -0.0191  0.0098
  440MOL0     C59305   8.593   8.688  12.130  0.1212 -0.9865 -1.1727
  440MOL0     C59306   8.734   8.723  12.168 -0.6145 -0.1787  0.6317
  440MOL0     C59307   8.792   8.655  12.285  0.4941 -0.6656  0.3009
  440MOL0     C59308   8.914   8.716  12.354 -0.3729  0.0875 -0.1149
  440MOL0    Cl59309   9.049   8.750  12.242  0.2802 -0.3777  0.2176
  440MOL0     C59310   8.003   9.096  11.628  0.3771 -0.7224  0.5802
  440MOL0     C59311   7.878   9.098  11.554 -0.7669  0.6074 -0.4604
  440MOL0     O59312   7.668   8.810  11.393  0.7021 -0.6586  0.2386
  440MOL0     C59313   7.444   8.899  11.217  0.3594  0.5573  0.6388
  440MOL0     C59314   7.335   8.942  11.145 -0.3804 -0.6655 -0.0447
  440MOL0     N59315   6.622   9.027  11.218  0.3380 -0.1419  0.4554
  440MOL0     N59316   6.509   8.981  11.260  0.1246  0.3747  0.4728
  440MOL0     C59317   5.568   8.973  10.754 -0.3622  0.0187 -0.3296
  440MOL0     C59318   5.440   9.033  10.734 -1.2411  0.1726 -0.5487
  440MOL0     C59319   5.041   9.176  10.550 -0.1492 -0.3382 -0.6373
  440MOL0     C59320   4.941   9.097  10.605 -0.3991 -0.5740  0.4333
  440MOL0     C59321   4.808   9.113  10.594  0.1364 -0.3055  0.3466
  440MOL0     C59322   4.766   9.222  10.526 -0.4368 -0.3761  0.5513
  440MOL0     O59323   4.636   9.245  10.501 -0.0404  0.4597 -0.6908
  440MOL0     C59324   4.569   9.132  10.435  0.4732  0.4072  0.1726
  440MOL0     C59325   4.500   9.186  10.307 -0.2624  0.9977  0.1469
  440MOL0     C59326   4.375   9.264  10.355  1.0095 -0.3095 -0.4102
  440MOL0     C59327   4.321   9.358  10.245 -0.2527 -0.3280 -0.4524
  440MOL0     C59328   4.190   9.417  10.285 -0.7003  0.0975  0.5613
  440MOL0     C59329   4.076   9.450  10.309 -0.4932  0.6594  0.0090
  440MOL0     C59330   4.856   9.316  10.469 -0.1298 -0.1462 -1.4105
  440MOL0     C59331   4.992   9.288  10.482 -1.2565  0.7483 -0.3980
  440MOL0     C59332   5.082   9.387  10.406  0.7726  0.2520  0.6448
  440MOL0     H59333   5.294   8.818  10.518 -0.3958  1.9807  0.1737
  440MOL0     H59334   5.505   8.710  10.530 -0.3315 -1.0720  1.1259
  440MOL0     H59335   5.648   8.604  10.713 -1.4094  1.0549  1.3539
  440MOL0     H59336   5.808   8.614  10.688 -1.1886 -0.9604 -1.1578
  440MOL0     H59337   5.764   8.583  10.933 -0.5672 -0.5543 -0.7536
  440MOL0     H59338   5.674   8.731  10.929  0.6157  2.3139 -0.9129
  440MOL0     H59339   5.897   8.851  10.852  1.5414 -2.2326 -2.7515
  440MOL0     H59340   5.975   8.701  10.891 -2.5642 -1.7034 -3.3086
  440MOL0     H59341   5.790   8.862  11.064 -0.7705 -0.5265  1.4623
  440MOL0     H59342   5.853   8.715  11.127  2.2945 -1.6433 -1.0185
  440MOL0     H59343   6.038   8.958  11.042 -0.9805  0.4165  1.2524
  440MOL0     H59344   5.972   8.937  11.204 -0.3445 -2.7651  0.6298
  440MOL0     H59345   6.108   8.751  11.269 -2.9065  0.2296 -0.2130
  440MOL0     H59346   6.101   8.685  11.132  0.4156 -1.4451  1.9731
  440MOL0     H59347   6.296   8.856  11.051 -0.7718  0.1896 -0.3697
  440MOL0     H59348   6.327   8.785  11.207 -0.3427  2.0700  2.9543
  440MOL0     H59349   6.199   9.068  11.157  2.0207  3.2188  0.7595
  440MOL0     H59350   6.239   8.989  11.313  2.1488 -1.6386  1.0918
  440MOL0     H59351   6.428   9.160  10.992  2.7200  2.4056 -0.0018
  440MOL0     H59352   6.699   9.090  10.911  1.2917  1.9524 -1.6261
  440MOL0     H59353   6.714   9.250  11.000  1.4572 -0.2297  0.7267
  440MOL0     H59354   6.854   9.160  11.167 -1.0756  0.9543  0.1395
  440MOL0     H59355   6.860   9.000  11.098  0.5048 -0.2440  0.2846
  440MOL0     H59356   6.979   9.247  10.975  0.0162 -0.1396  1.6908
  440MOL0     H59357   6.941   9.101  10.874 -0.1608  0.4178  0.0406
  440MOL0     H59358   7.186   9.110  10.943  1.0070 -0.5778  1.4636
  440MOL0     H59359   7.105   8.962  10.994  1.4412 -1.6379  4.2186
  440MOL0     H59360   7.220   9.173  11.363  0.8360  1.6812  0.2096
  440MOL0     H59361   7.439   9.101  11.475  0.1919 -1.4647 -0.7577
  440MOL0     H59362   7.765   8.787  11.620 -1.3774  1.0599  1.2107
  440MOL0     H59363   7.981   8.778  11.733  0.8361  1.0037  0.2484
  440MOL0     H59364   8.128   8.846  11.921  0.5994  0.2523 -0.0695
  440MOL0     H59365   8.206   8.778  11.777  0.0289  2.1262 -3.0256
  440MOL0     H59366   8.406   8.855  11.801 -0.9045  0.0143 -0.4583
  440MOL0     H59367   8.352   8.994  11.904  0.6557 -0.4637  3.0281
  440MOL0     H59368   8.354   8.865  12.097  0.2766 -1.1323  1.7196
  440MOL0     H59369   8.323   8.712  12.014 -0.0002 -0.3601 -2.0956
  440MOL0     H59370   8.597   8.866  12.013  0.0054  0.1140 -0.0143
  440MOL0     H59371   8.556   8.726  11.915 -0.0850 -0.1721  0.0335
  440MOL0     H59372   8.590   8.583  12.098 -1.9664 -0.5335 -2.7390
  440MOL0     H59373   8.528   8.699  12.218  0.3238 -0.2155 -1.1077
  440MOL0     H59374   8.793   8.684  12.084 -1.0955  0.7268 -0.1452
  440MOL0     H59375   8.769   8.827  12.172  0.2080 -0.1635 -3.1021
  440MOL0     H59376   8.816   8.551  12.258  0.2317 -0.7599  0.4237
  440MOL0     H59377   8.714   8.650  12.362 -0.4753  1.1420 -0.5134
  440MOL0     H59378   8.883   8.801  12.416 -1.0261 -0.3200  0.1285
  440MOL0     H59379   8.953   8.636  12.417  1.4275 -1.5335 -3.0623
  440MOL0     H59380   8.066   9.183  11.643 -0.5707 -0.2128  1.7368
  440MOL0     H59381   7.850   9.188  11.499  0.8283  0.3356 -1.7746
  440MOL0     H59382   7.502   8.813  11.185  0.4894  0.3840  1.3267
  440MOL0     H59383   7.305   8.888  11.056 -1.5407 -1.0108  0.5394
  440MOL0     H59384   5.642   9.012  10.822 -2.0306  0.9201  1.0428
  440MOL0     H59385   5.422   9.127  10.786  2.1576  1.2275 -1.0012
  440MOL0     H59386   4.977   9.010  10.659  2.2073 -0.9051 -1.5947
  440MOL0     H59387   4.737   9.033  10.615 -1.4086  0.3088 -2.0905
  440MOL0     H59388   4.506   9.084  10.511 -1.3007  0.0726 -1.4150
  440MOL0     H59389   4.632   9.052  10.394  0.3261  0.4477 -0.1341
  440MOL0     H59390   4.477   9.114  10.228  0.8045  0.7722  0.0326
  440MOL0     H59391   4.578   9.251  10.266 -0.9544  1.7025 -0.0884
  440MOL0     H59392   4.391   9.330  10.441  2.7923 -1.8532  0.5126
  440MOL0     H59393   4.300   9.188  10.379  0.4589  0.3964  0.1371
  440MOL0     H59394   4.396   9.437  10.241 -0.3700 -0.1266  0.9047
  440MOL0     H59395   4.314   9.314  10.145  0.1723  0.8215 -1.0017
  440MOL0     H59396   3.982   9.488  10.341 -0.3746 -0.6052  2.0143
  440MOL0     H59397   4.816   9.390  10.400  3.6179  2.0865 -1.4672
  440MOL0     H59398   5.144   9.432  10.484  0.7208  1.1423  0.1865
  440MOL0     H59399   5.137   9.354  10.317 -1.3515 -0.3392 -0.5232
  440MOL0     H59400   5.019   9.467  10.365  1.8412  0.1496 -1.3399
  441MOL0     O59401   9.752   0.817   9.261 -1.2524  0.7966  0.5401
  441MOL0     C59402   9.713   0.718   9.330 -1.2592 -0.2002  0.0223
  441MOL0     O59403   9.796   0.618   9.376 -0.6967 -0.4944 -0.5395
  441MOL0     C59404   9.931   0.633   9.365  0.0578 -0.3776 -0.0563
  441MOL0     C59405  10.005   0.654   9.247 -0.5214  1.0347  0.6992
  441MOL0     C59406  10.141   0.629   9.241  0.6736  0.4726 -0.1054
  441MOL0     C59407  10.209   0.599   9.359 -0.4859  0.3958  0.4707
  441MOL0     O59408  10.338   0.570   9.338  0.7188 -0.1436  0.0442
  441MOL0     C59409  10.411   0.503   9.439  0.8402  0.7172 -0.0173
  441MOL0     C59410  10.551   0.456   9.410  0.1369 -0.0523  0.0029
  441MOL0     C59411  10.668   0.558   9.438  0.9459 -0.7563  0.1552
  441MOL0     C59412  10.804   0.495   9.429 -0.4289 -0.5373 -0.8109
  441MOL0     C59413  10.919   0.601   9.424 -1.0689  0.0524  0.2817
  441MOL0     C59414  11.055   0.545   9.374  0.9013  0.4100  0.7718
  441MOL0     C59415  11.148   0.512   9.482 -0.5890  0.1737 -0.3704
  441MOL0     C59416  11.259   0.410   9.434  0.5328  0.4299 -0.2024
  441MOL0     N59417  11.354   0.456   9.334 -0.3810 -0.7958 -0.2868
  441MOL0     C59418  11.413   0.360   9.254 -0.3627  0.5201  0.1310
  441MOL0     C59419  11.526   0.417   9.206  0.2916 -0.5482  0.5646
  441MOL0     C59420  11.610   0.367   9.096 -0.4742  1.2800  0.3585
  441MOL0     C59421  11.686   0.478   9.022  0.3962 -0.3538 -0.5233
  441MOL0     C59422  11.789   0.423   8.927  0.5027  0.3702  0.1942
  441MOL0     C59423  11.902   0.528   8.904 -0.8896  0.3024  0.5861
  441MOL0     O59424  11.970   0.544   9.034  0.2798 -0.0103 -0.6916
  441MOL0     C59425  12.096   0.592   9.051 -0.2461 -0.2905  0.3053
  441MOL0     C59426  12.158   0.658   8.935  0.2810  0.4356  0.1446
  441MOL0     C59427  12.286   0.704   8.951  0.1951 -0.6314 -0.6709
  441MOL0     C59428  12.361   0.676   9.061 -1.2241 -0.2758  0.5829
  441MOL0     C59429  12.502   0.728   9.063 -0.3644 -0.2784  0.3646
  441MOL0     O59430  12.534   0.793   8.938 -0.6058  0.1346  0.0976
  441MOL0     C59431  12.656   0.866   8.927  0.3507 -0.2103  0.1760
  441MOL0     C59432  12.704   0.879   8.796  0.1395 -0.4187 -0.1258
  441MOL0     C59433  12.825   0.944   8.759 -0.7435 -0.3226  0.4446
  441MOL0     C59434  12.904   0.997   8.861 -0.9584 -0.6226 -0.3986
  441MOL0     O59435  13.023   1.063   8.829  0.1840  0.2743  0.2993
  441MOL0     C59436  13.098   1.008   8.720 -0.8479  0.3236  0.0300
  441MOL0     C59437  13.228   1.086   8.705 -0.3730  0.6805 -1.0372
  441MOL0     C59438  13.316   1.091   8.835  0.5245  0.5102  0.1508
  441MOL0     C59439  13.460   1.109   8.802  0.2280 -0.1953 -0.3013
  441MOL0     C59440  13.550   1.104   8.922  0.4456  0.2620 -0.1872
  441MOL0     C59441  13.699   1.154   8.897  0.6003  0.2935  0.4483
  441MOL0     C59442  13.740   1.300   8.871 -0.5033 -0.5983  0.8805
  441MOL0     C59443  13.881   1.322   8.829 -0.1195 -0.1944 -0.0926
  441MOL0    Cl59444  13.984   1.382   8.970 -0.2159 -0.0994  0.3402
  441MOL0     C59445  12.863   0.981   8.997 -0.0148 -0.2896  0.0743
  441MOL0     C59446  12.743   0.920   9.028  0.2633 -0.2849 -0.8511
  441MOL0     O59447  12.574   0.708   9.159 -0.6606  0.1411  0.1644
  441MOL0     C59448  12.303   0.603   9.172 -0.4235  0.8744  0.2591
  441MOL0     C59449  12.168   0.561   9.163  0.4282  0.0655 -0.5397
  441MOL0     N59450  11.527   0.549   9.259  0.3811  0.5831  0.1735
  441MOL0     N59451  11.422   0.572   9.331  0.4536  0.0522 -0.8369
  441MOL0     C59452  10.143   0.586   9.479  0.2032 -0.6631 -0.9482
  441MOL0     C59453  10.001   0.608   9.483  0.2085 -0.1551  0.4951
  441MOL0     C59454   9.569   0.701   9.352 -0.4552  0.3477  0.0555
  441MOL0     C59455   9.477   0.713   9.246 -0.1943  0.6001 -0.5050
  441MOL0     C59456   9.340   0.702   9.265 -0.4819 -0.9090  0.0568
  441MOL0     C59457   9.291   0.676   9.390  0.2218 -0.3643 -0.5873
  441MOL0     O59458   9.151   0.655   9.417  0.6163  0.3027  0.1029
  441MOL0     C59459   9.066   0.670   9.302  0.1817 -0.5720 -0.1206
  441MOL0     C59460   8.920   0.658   9.346  0.1960 -0.0954 -1.0032
  441MOL0     C59461   8.833   0.618   9.228  0.6888  0.0622 -0.3480
  441MOL0     C59462   8.691   0.588   9.270  0.2063 -0.5446 -0.0971
  441MOL0     C59463   8.597   0.542   9.174  0.1745  1.0201  0.5303
  441MOL0     C59464   8.503   0.510   9.102  0.6590 -0.2842 -0.0671
  441MOL0     C59465   9.379   0.661   9.490  0.0626  0.1602  0.0491
  441MOL0     C59466   9.526   0.666   9.481  1.0417 -0.1234  0.0798
  441MOL0     C59467   9.606   0.657   9.609  0.0076 -0.2802  1.2343
  441MOL0     H59468   9.941   0.660   9.160 -0.5615 -0.3651  0.6176
  441MOL0     H59469  10.189   0.624   9.143  0.1037 -2.3962 -0.3207
  441MOL0     H59470  10.411   0.562   9.531  3.9730  2.0053 -0.7364
  441MOL0     H59471  10.354   0.410   9.452  2.0444  0.2542  2.6416
  441MOL0     H59472  10.557   0.431   9.304 -3.7341 -1.5611 -0.0292
  441MOL0     H59473  10.576   0.367   9.468 -0.5745  1.0564  2.1460
  441MOL0     H59474  10.644   0.603   9.535 -0.0975  2.7614 -1.5768
  441MOL0     H59475  10.662   0.634   9.360  1.1220 -1.1138 -0.2051
  441MOL0     H59476  10.812   0.431   9.518  1.4220 -0.1987 -0.7050
  441MOL0     H59477  10.808   0.420   9.350 -0.5252 -3.1059  1.4615
  441MOL0     H59478  10.883   0.674   9.351 -2.1835  0.5725  1.3274
  441MOL0     H59479  10.939   0.658   9.514 -0.3049  0.6387 -0.2373
  441MOL0     H59480  11.043   0.455   9.314 -1.8516  0.0456  1.7320
  441MOL0     H59481  11.105   0.619   9.311 -0.4850 -0.1195 -1.0363
  441MOL0     H59482  11.093   0.463   9.563  0.2912 -0.0031  0.1375
  441MOL0     H59483  11.194   0.604   9.517  0.6550 -1.3237  2.2124
  441MOL0     H59484  11.321   0.376   9.517 -0.4898  1.5874  1.0877
  441MOL0     H59485  11.208   0.318   9.404  1.3554 -0.5286  1.2378
  441MOL0     H59486  11.385   0.255   9.250  0.8336  0.1484  1.0467
  441MOL0     H59487  11.673   0.293   9.146 -1.8842  0.2274  0.6393
  441MOL0     H59488  11.544   0.305   9.035  2.5779 -1.1113 -0.7913
  441MOL0     H59489  11.613   0.536   8.965  0.8168 -1.0473 -1.8071
  441MOL0     H59490  11.732   0.547   9.094 -0.8098 -0.0603 -0.0161
  441MOL0     H59491  11.738   0.392   8.835  2.3133 -1.1714 -0.3685
  441MOL0     H59492  11.827   0.329   8.968  2.1246  0.9111 -0.0182
  441MOL0     H59493  11.848   0.618   8.873 -0.7913 -0.4413 -1.9820
  441MOL0     H59494  11.963   0.488   8.823 -0.1035  0.8709  0.8906
  441MOL0     H59495  12.095   0.677   8.850 -1.2745 -1.9722  0.6528
  441MOL0     H59496  12.330   0.762   8.870  0.6473 -0.7934 -0.5434
  441MOL0     H59497  12.657   0.825   8.714  1.8928 -0.2624 -1.3098
  441MOL0     H59498  12.851   0.950   8.654 -2.0417 -0.3471  0.1033
  441MOL0     H59499  13.129   0.903   8.724 -1.3939  0.1477 -0.2500
  441MOL0     H59500  13.044   1.022   8.626 -2.5145 -0.6894  0.7953
  441MOL0     H59501  13.279   1.026   8.629 -0.8008 -1.5175  0.3121
  441MOL0     H59502  13.197   1.183   8.665 -1.2879  0.8624  0.0220
  441MOL0     H59503  13.266   1.169   8.893 -1.3942  0.9226 -1.9072
  441MOL0     H59504  13.303   0.990   8.876 -1.6715 -0.2095 -2.0489
  441MOL0     H59505  13.466   1.206   8.753 -0.4403  0.5038  0.9476
  441MOL0     H59506  13.501   1.038   8.729  5.1049  3.5337 -1.7002
  441MOL0     H59507  13.566   1.004   8.963  0.8373  0.7913  1.0247
  441MOL0     H59508  13.511   1.161   9.007  2.0235 -1.2726  1.6954
  441MOL0     H59509  13.747   1.133   8.993 -0.2471  0.7654  0.9844
  441MOL0     H59510  13.732   1.086   8.817  0.5363 -0.3503  0.9630
  441MOL0     H59511  13.724   1.371   8.953  2.3303  0.8656  0.2870
  441MOL0     H59512  13.681   1.341   8.788  1.3316 -0.2033 -0.2787
  441MOL0     H59513  13.908   1.228   8.779 -0.8883  0.6278 -2.1080
  441MOL0     H59514  13.877   1.397   8.750  0.6507 -1.1380 -1.0628
  441MOL0     H59515  12.933   1.006   9.076 -1.0897  0.6849  0.7591
  441MOL0     H59516  12.726   0.909   9.135  1.4078  1.3934 -0.4472
  441MOL0     H59517  12.372   0.581   9.253  0.3560  0.6777 -0.4432
  441MOL0     H59518  12.120   0.512   9.248  0.4932  2.4888  1.0081
  441MOL0     H59519  10.196   0.548   9.566  1.5567 -0.1712 -1.5402
  441MOL0     H59520   9.938   0.598   9.571 -1.5895  3.2198 -0.2654
  441MOL0     H59521   9.521   0.725   9.148  3.4654  0.4587  0.9557
  441MOL0     H59522   9.272   0.716   9.181 -0.2706  0.8029  0.1315
  441MOL0     H59523   9.079   0.587   9.232 -1.2363 -2.2423  1.5003
  441MOL0     H59524   9.081   0.768   9.256  0.2899 -0.5260  0.0122
  441MOL0     H59525   8.886   0.756   9.383 -4.5174 -0.9955 -2.2944
  441MOL0     H59526   8.917   0.582   9.424  0.3893  0.1393 -0.7644
  441MOL0     H59527   8.866   0.531   9.169 -1.9250 -1.2836  0.0343
  441MOL0     H59528   8.824   0.702   9.158 -4.0041  1.3975  1.4731
  441MOL0     H59529   8.688   0.512   9.349 -1.7087  0.5561  0.9799
  441MOL0     H59530   8.657   0.682   9.313 -0.8591 -0.4501 -1.0859
  441MOL0     H59531   8.421   0.464   9.050 -1.4983  0.6874  2.2742
  441MOL0     H59532   9.334   0.632   9.584 -0.2449 -0.7457 -0.3614
  441MOL0     H59533   9.698   0.715   9.604 -0.9303  1.2578  1.1454
  441MOL0     H59534   9.555   0.709   9.691  0.5022 -1.5313  2.3722
  441MOL0     H59535   9.619   0.550   9.623  0.2395 -0.3449  0.5406
  442MOL0     O59536   8.463   1.272  10.884 -0.2697  0.0625  0.3808
  442MOL0     C59537   8.383   1.217  10.958  0.3301 -0.3443 -0.1746
  442MOL0     O59538   8.410   1.173  11.088 -0.2756 -0.2509 -0.4999
  442MOL0     C59539   8.533   1.198  11.145 -0.1170  0.6941 -0.1351
  442MOL0     C59540   8.648   1.122  11.109  0.0273  0.2277  0.4091
  442MOL0     C59541   8.768   1.140  11.179 -0.1853  0.6984  0.2600
  442MOL0     C59542   8.772   1.234  11.289 -0.2636  0.8210 -0.2792
  442MOL0     O59543   8.870   1.250  11.382  0.1043 -1.1109  1.0515
  442MOL0     C59544   9.004   1.203  11.362 -0.1757  0.4668 -0.1935
  442MOL0     C59545   9.064   1.277  11.247 -0.0681 -1.0531 -0.1396
  442MOL0     C59546   9.219   1.254  11.228 -0.0009 -0.3342 -0.2943
  442MOL0     C59547   9.269   1.353  11.116  0.3861  0.5308  0.0704
  442MOL0     C59548   9.410   1.313  11.070 -0.0310  0.3454  0.1544
  442MOL0     C59549   9.432   1.360  10.927 -0.4875  0.2651  0.0201
  442MOL0     C59550   9.589   1.350  10.899 -0.3215 -0.5032  0.2892
  442MOL0     C59551   9.612   1.361  10.749  0.5945 -0.8195  0.4571
  442MOL0     N59552   9.745   1.330  10.696 -0.0722 -0.4120 -0.4389
  442MOL0     C59553   9.842   1.425  10.715  0.3911 -0.6074  0.2161
  442MOL0     C59554   9.943   1.387  10.643 -0.0697 -0.3448  0.4790
  442MOL0     C59555  10.073   1.453  10.642 -0.2760 -0.0931  0.3741
  442MOL0     C59556  10.196   1.365  10.690 -0.3902  0.3713 -0.2077
  442MOL0     C59557  10.328   1.427  10.642  0.6602  0.4802  0.0083
  442MOL0     C59558  10.344   1.576  10.696  0.4601  0.2505 -0.1212
  442MOL0     O59559  10.461   1.635  10.656  0.3963  0.0115 -1.1400
  442MOL0     C59560  10.570   1.633  10.734 -0.2564 -0.5501 -0.7901
  442MOL0     C59561  10.677   1.716  10.692 -0.4683  0.0202 -0.7400
  442MOL0     C59562  10.791   1.732  10.779 -0.1859 -0.1125  1.0721
  442MOL0     C59563  10.804   1.643  10.891  0.7887 -0.0027 -0.3007
  442MOL0     C59564  10.919   1.651  10.978 -0.9868  0.3992 -0.5003
  442MOL0     O59565  10.978   1.770  10.974  0.1825  0.4201  0.3215
  442MOL0     C59566  11.107   1.796  11.013  0.1573  0.4103  0.1626
  442MOL0     C59567  11.154   1.933  11.014  0.2984 -0.3065 -0.0755
  442MOL0     C59568  11.284   1.961  11.041 -0.1589 -0.6224 -0.3895
  442MOL0     C59569  11.376   1.858  11.058  0.2788  0.2031  0.6260
  442MOL0     O59570  11.510   1.891  11.070 -0.4466 -0.5341 -0.3079
  442MOL0     C59571  11.582   1.931  10.954  1.2040 -0.0546  0.5386
  442MOL0     C59572  11.727   1.943  10.983  0.0079 -0.2278  0.5414
  442MOL0     C59573  11.799   2.038  10.882  0.9495  0.3521 -0.6091
  442MOL0     C59574  11.801   1.988  10.736 -0.0281  0.5436 -0.0980
  442MOL0     C59575  11.880   1.860  10.717 -0.7768 -0.2852  0.9150
  442MOL0     C59576  12.038   1.875  10.737  0.1523  0.0644 -0.1212
  442MOL0     C59577  12.105   1.998  10.669 -0.0161  0.0364  0.3827
  442MOL0     C59578  12.254   1.973  10.680  0.2329  0.7409 -0.1845
  442MOL0    Cl59579  12.296   2.034  10.845  0.2351  0.1221 -0.0986
  442MOL0     C59580  11.338   1.724  11.038  0.2915  0.5185  0.0314
  442MOL0     C59581  11.204   1.697  11.014  0.2380  0.6053  0.1681
  442MOL0     O59582  10.952   1.558  11.051  0.1182  0.1342 -0.9268
  442MOL0     C59583  10.705   1.543  10.921 -0.1707  0.1068 -0.2855
  442MOL0     C59584  10.590   1.550  10.844  1.0412  0.5182  0.5423
  442MOL0     N59585   9.901   1.275  10.571  0.8098 -0.1075 -0.2793
  442MOL0     N59586   9.783   1.236  10.605  0.1989 -0.0842 -0.2278
  442MOL0     C59587   8.654   1.306  11.325 -0.3928  0.4618  1.3883
  442MOL0     C59588   8.542   1.288  11.250  0.4024 -0.5038  0.2477
  442MOL0     C59589   8.248   1.189  10.896  0.7366  0.3044 -0.1896
  442MOL0     C59590   8.161   1.102  10.966 -0.8782 -0.1795 -0.0801
  442MOL0     C59591   8.027   1.091  10.940 -0.0862  0.2539  0.1992
  442MOL0     C59592   7.976   1.160  10.832  0.9390 -0.0448  0.7792
  442MOL0     O59593   7.847   1.142  10.790 -0.4544  0.2044 -0.1806
  442MOL0     C59594   7.821   1.005  10.764 -0.4381 -0.1517 -1.1346
  442MOL0     C59595   7.740   1.011  10.639 -0.0965  0.1422 -0.1812
  442MOL0     C59596   7.804   1.091  10.521  0.2249  0.1824 -0.1746
  442MOL0     C59597   7.726   1.084  10.384  0.3362  1.2530  0.1484
  442MOL0     C59598   7.590   1.119  10.409 -0.2568 -0.1306 -0.4104
  442MOL0     C59599   7.471   1.130  10.440 -0.7196 -0.1013  0.1148
  442MOL0     C59600   8.061   1.236  10.746  0.1129  0.3152 -0.0355
  442MOL0     C59601   8.195   1.251  10.776 -0.2349  0.2993 -1.1887
  442MOL0     C59602   8.276   1.335  10.680 -0.2541 -0.1109  0.1457
  442MOL0     H59603   8.658   1.058  11.022 -1.3302  1.3317 -0.6134
  442MOL0     H59604   8.855   1.078  11.160 -0.7016  0.2409 -0.6920
  442MOL0     H59605   9.055   1.230  11.454 -0.2278 -2.6518  0.8624
  442MOL0     H59606   9.020   1.098  11.335  1.0651  0.9653 -1.5119
  442MOL0     H59607   9.047   1.385  11.248  2.4564 -0.5614  1.9164
  442MOL0     H59608   9.014   1.235  11.159 -0.9801 -0.0355 -0.1291
  442MOL0     H59609   9.237   1.148  11.206  0.6444 -0.7724  2.0609
  442MOL0     H59610   9.284   1.264  11.315 -0.9854  3.1999  0.1712
  442MOL0     H59611   9.195   1.340  11.037  1.5260 -3.5595 -0.5566
  442MOL0     H59612   9.268   1.458  11.146 -1.5835  1.4252 -2.7705
  442MOL0     H59613   9.483   1.353  11.141 -0.4862  2.5323 -0.5414
  442MOL0     H59614   9.413   1.204  11.078  0.0271  0.4753  4.7670
  442MOL0     H59615   9.373   1.293  10.864  0.7730 -0.8199 -0.0471
  442MOL0     H59616   9.399   1.464  10.914  0.1808  0.7566  1.8551
  442MOL0     H59617   9.642   1.260  10.933  0.8785  0.1460  0.1966
  442MOL0     H59618   9.644   1.420  10.963  2.7863 -2.1669 -0.3419
  442MOL0     H59619   9.530   1.299  10.712 -0.9864  0.8730  0.9308
  442MOL0     H59620   9.589   1.463  10.715 -0.9898 -0.5103  2.2577
  442MOL0     H59621   9.833   1.505  10.788 -0.5826 -2.3602  2.1094
  442MOL0     H59622  10.093   1.483  10.539  0.9827 -3.7638 -0.5970
  442MOL0     H59623  10.065   1.540  10.708  0.9749  1.7583 -1.7530
  442MOL0     H59624  10.208   1.372  10.799  0.8981  0.4636 -0.3442
  442MOL0     H59625  10.189   1.259  10.666 -1.2056  0.1231  1.0224
  442MOL0     H59626  10.327   1.438  10.533  1.3956  2.3119  0.1588
  442MOL0     H59627  10.416   1.365  10.661  1.5852  1.7009 -0.1651
  442MOL0     H59628  10.336   1.581  10.805  0.7071  1.8011 -0.1474
  442MOL0     H59629  10.264   1.638  10.654 -0.5166 -1.1709 -0.4301
  442MOL0     H59630  10.657   1.785  10.610  0.6029  1.2612  0.0048
  442MOL0     H59631  10.858   1.815  10.757  0.2939 -1.3813 -3.0198
  442MOL0     H59632  11.085   2.016  11.009 -0.4721 -0.9470 -0.2921
  442MOL0     H59633  11.323   2.061  11.029  2.0719 -1.7601 -4.5400
  442MOL0     H59634  11.562   1.869  10.866 -0.0906 -1.0767  1.5154
  442MOL0     H59635  11.543   2.028  10.923 -0.5923 -0.5239  1.2002
  442MOL0     H59636  11.734   1.978  11.086  1.0329  1.3513 -0.0238
  442MOL0     H59637  11.772   1.844  10.980  0.1518 -0.1497 -0.9717
  442MOL0     H59638  11.752   2.135  10.900  1.4974  0.9854 -2.4342
  442MOL0     H59639  11.901   2.048  10.921  0.1818 -0.5690  1.8533
  442MOL0     H59640  11.834   2.068  10.669  0.3986  0.7364  0.3352
  442MOL0     H59641  11.700   1.956  10.708  1.0647 -2.5140 -0.9870
  442MOL0     H59642  11.867   1.825  10.614 -0.6458  0.5703  0.5957
  442MOL0     H59643  11.842   1.787  10.789  0.5926 -0.1762  1.7797
  442MOL0     H59644  12.056   1.891  10.844  1.1112 -0.6659 -0.1584
  442MOL0     H59645  12.068   1.779  10.695 -1.0573  0.0106 -0.8831
  442MOL0     H59646  12.086   2.092  10.721 -0.2974 -0.8287  1.9083
  442MOL0     H59647  12.069   2.006  10.566 -3.2522 -1.7081  1.2369
  442MOL0     H59648  12.292   1.872  10.663  0.5918  1.1065 -1.7244
  442MOL0     H59649  12.320   2.034  10.617  1.1568 -0.6987 -0.6584
  442MOL0     H59650  11.418   1.651  11.048 -0.7267 -0.4806  1.2182
  442MOL0     H59651  11.177   1.594  10.994  0.0052  0.2720  2.0311
  442MOL0     H59652  10.725   1.475  11.003  0.8920  0.0047 -0.6054
  442MOL0     H59653  10.529   1.462  10.861 -1.1057  1.7137 -0.4713
  442MOL0     H59654   8.659   1.376  11.407  0.3210  1.7311  0.2991
  442MOL0     H59655   8.452   1.339  11.283  1.0012  0.8196 -0.1055
  442MOL0     H59656   8.196   1.050  11.054  1.4022 -1.2264 -1.5226
  442MOL0     H59657   7.952   1.029  10.990 -0.7473  1.7197  1.1172
  442MOL0     H59658   7.765   0.974  10.853  0.2086  0.3013 -0.5610
  442MOL0     H59659   7.902   0.934  10.743  1.1319  1.0205  0.6058
  442MOL0     H59660   7.649   1.055  10.679  0.4271 -0.2950  1.5873
  442MOL0     H59661   7.717   0.910  10.606  0.1618 -0.4126  1.2838
  442MOL0     H59662   7.901   1.042  10.512 -0.1087 -0.9805  1.7540
  442MOL0     H59663   7.824   1.194  10.554 -1.0884 -0.1642  1.9504
  442MOL0     H59664   7.758   1.154  10.306  1.0700 -2.9593 -3.6963
  442MOL0     H59665   7.721   0.979  10.355 -1.0010 -0.6437  5.8973
  442MOL0     H59666   7.374   1.137  10.484 -0.4256  2.6474  0.4728
  442MOL0     H59667   8.025   1.281  10.655  0.0049 -2.6823 -1.5968
  442MOL0     H59668   8.377   1.296  10.663 -0.4244  0.2462 -1.9243
  442MOL0     H59669   8.224   1.345  10.584 -1.9125 -3.6500  0.5014
  442MOL0     H59670   8.288   1.433  10.726  4.0309 -0.6751  0.6982
  443MOL0     O59671   0.739   2.114   4.962 -0.2290 -0.4748 -0.1392
  443MOL0     C59672   0.708   2.031   5.046 -0.0690 -0.1617  0.1714
  443MOL0     O59673   0.779   1.914   5.060 -0.2374  0.7111 -0.2274
  443MOL0     C59674   0.912   1.906   5.018  0.1293 -0.1171  0.3026
  443MOL0     C59675   0.956   1.794   4.945 -0.2220 -0.1455 -0.6032
  443MOL0     C59676   1.081   1.797   4.887 -0.7197 -0.2148 -0.2529
  443MOL0     C59677   1.176   1.890   4.916  0.1563 -0.1055 -0.2225
  443MOL0     O59678   1.307   1.859   4.878  0.1434 -0.0878  0.0733
  443MOL0     C59679   1.402   1.964   4.901  0.7776 -0.2801  0.1406
  443MOL0     C59680   1.528   1.943   4.833  0.5799 -0.7652 -0.1566
  443MOL0     C59681   1.606   1.817   4.840  0.3696 -0.9081 -0.4346
  443MOL0     C59682   1.657   1.779   4.978  0.7760 -0.5698 -0.1157
  443MOL0     C59683   1.708   1.636   4.996 -0.5679  0.9782  0.1662
  443MOL0     C59684   1.825   1.597   4.902 -0.2037 -0.2486 -0.6842
  443MOL0     C59685   1.959   1.625   4.973  0.1375 -1.1549 -0.5239
  443MOL0     C59686   2.015   1.763   4.932 -0.6881 -0.6202 -0.4989
  443MOL0     N59687   2.142   1.795   4.987  0.0870  0.2610 -0.3574
  443MOL0     C59688   2.259   1.805   4.923  0.1398 -0.5956  0.8232
  443MOL0     C59689   2.337   1.873   5.006 -0.4299 -0.1367  0.2687
  443MOL0     C59690   2.475   1.927   4.971 -0.4151 -0.3200  0.1118
  443MOL0     C59691   2.584   1.871   5.060 -0.3939  0.1825 -0.1075
  443MOL0     C59692   2.721   1.876   4.980  0.6638 -0.0967  0.0458
  443MOL0     C59693   2.842   1.840   5.072  0.4968 -0.0695 -0.1332
  443MOL0     O59694   2.964   1.867   5.001  0.1774 -0.1392 -0.2227
  443MOL0     C59695   3.084   1.876   5.071 -0.8315 -0.3615  0.7492
  443MOL0     C59696   3.100   1.832   5.200  0.3354  0.4944 -0.3895
  443MOL0     C59697   3.223   1.840   5.262  0.2123 -0.2294  0.2913
  443MOL0     C59698   3.338   1.899   5.204 -0.3223  0.5306  0.1069
  443MOL0     C59699   3.466   1.904   5.277  0.2115 -0.2681 -0.5557
  443MOL0     O59700   3.584   1.914   5.204  0.3839 -0.1746  0.1456
  443MOL0     C59701   3.691   1.931   5.278 -0.0324 -0.0692  0.2392
  443MOL0     C59702   3.771   1.824   5.324 -0.3982  0.3014 -0.7761
  443MOL0     C59703   3.893   1.845   5.393 -0.2886 -0.3011  0.4442
  443MOL0     C59704   3.947   1.972   5.412 -0.1787 -0.4285 -0.2508
  443MOL0     O59705   4.068   1.975   5.472 -0.3430 -0.3781 -0.4250
  443MOL0     C59706   4.099   2.097   5.542 -0.1961 -0.5101 -0.1274
  443MOL0     C59707   4.230   2.085   5.630  0.0648  0.0442  0.6576
  443MOL0     C59708   4.210   2.011   5.759 -0.5796 -0.6659  0.1792
  443MOL0     C59709   4.313   2.033   5.872 -0.0563 -0.1657  0.6621
  443MOL0     C59710   4.460   2.048   5.820  0.5463 -1.2849 -0.4728
  443MOL0     C59711   4.551   2.027   5.936  0.6513  0.3370  0.5150
  443MOL0     C59712   4.563   2.127   6.053  1.0040  0.3030 -0.2165
  443MOL0     C59713   4.625   2.074   6.182 -0.5139  0.4582 -0.4258
  443MOL0    Cl59714   4.774   1.975   6.161  0.0514 -0.3943  0.3144
  443MOL0     C59715   3.870   2.078   5.369  0.3732  0.0517 -0.0256
  443MOL0     C59716   3.747   2.058   5.306  0.4902 -0.0461  0.9090
  443MOL0     O59717   3.456   1.908   5.398 -0.7651  0.3363 -0.2989
  443MOL0     C59718   3.327   1.937   5.066 -0.2871 -0.7102  0.1194
  443MOL0     C59719   3.200   1.937   5.009 -0.3170  0.8410  0.0778
  443MOL0     N59720   2.269   1.902   5.124  0.3943 -0.3700  0.0166
  443MOL0     N59721   2.155   1.848   5.115  0.2449  0.1919  0.3491
  443MOL0     C59722   1.138   1.985   5.013 -0.3313  0.0025  0.1278
  443MOL0     C59723   1.005   1.998   5.059 -1.1114  0.0237 -0.5584
  443MOL0     C59724   0.576   2.047   5.113  0.1137  0.1733  0.9712
  443MOL0     C59725   0.527   1.931   5.197 -0.2496 -0.3493  0.1181
  443MOL0     C59726   0.406   1.939   5.255 -0.0001 -0.2617  0.6520
  443MOL0     C59727   0.320   2.051   5.246  0.3206 -0.3487  0.2612
  443MOL0     O59728   0.190   2.053   5.293 -0.6015 -0.3765  0.4903
  443MOL0     C59729   0.134   1.935   5.344  0.6248 -0.2505 -1.5899
  443MOL0     C59730  -0.016   1.942   5.352 -0.7025 -0.1009  1.1207
  443MOL0     C59731  -0.070   2.016   5.472 -0.2351 -0.0815 -0.2400
  443MOL0     C59732  -0.224   1.997   5.489  0.8106 -0.7304  0.3409
  443MOL0     C59733  -0.282   2.076   5.382  0.8609  0.2717  0.6930
  443MOL0     C59734  -0.333   2.146   5.299  0.2513 -0.5318  0.0167
  443MOL0     C59735   0.359   2.161   5.179 -0.1277  0.7844 -0.5196
  443MOL0     C59736   0.484   2.161   5.111  0.0987 -0.4262  1.0415
  443MOL0     C59737   0.515   2.290   5.021  0.2245  0.1074 -0.1671
  443MOL0     H59738   0.898   1.703   4.934  0.1161 -0.2095 -2.0139
  443MOL0     H59739   1.113   1.709   4.833 -3.2790 -1.0147 -0.6217
  443MOL0     H59740   1.367   2.057   4.856  0.9392 -0.5555 -0.5770
  443MOL0     H59741   1.413   1.982   5.008 -0.3627  2.2140 -0.1182
  443MOL0     H59742   1.596   2.024   4.864 -1.6427  0.8536  0.7019
  443MOL0     H59743   1.507   1.952   4.726 -1.1192 -3.4161 -0.1341
  443MOL0     H59744   1.698   1.843   4.785  1.8286 -1.5275  1.5811
  443MOL0     H59745   1.550   1.732   4.799 -1.2221 -0.8682  1.5260
  443MOL0     H59746   1.733   1.849   5.013  2.9305 -2.7766 -0.0673
  443MOL0     H59747   1.576   1.790   5.051 -1.0581 -2.7722 -1.6784
  443MOL0     H59748   1.737   1.616   5.099  0.8394 -1.2126 -0.5743
  443MOL0     H59749   1.635   1.559   4.972  0.8354  0.1597 -1.7254
  443MOL0     H59750   1.806   1.491   4.888 -0.7669 -0.1449 -0.6958
  443MOL0     H59751   1.821   1.639   4.801 -1.2576 -2.5860 -1.6677
  443MOL0     H59752   2.028   1.549   4.936 -0.1396 -0.9994 -1.3630
  443MOL0     H59753   1.955   1.614   5.082 -2.5133  3.2009  0.0757
  443MOL0     H59754   2.029   1.759   4.824  2.8804 -6.5903 -0.2741
  443MOL0     H59755   1.951   1.844   4.968 -0.7367 -0.8716 -0.0112
  443MOL0     H59756   2.292   1.768   4.826 -1.6164 -0.1019  0.0036
  443MOL0     H59757   2.502   1.897   4.870  1.3246 -3.9739  1.4901
  443MOL0     H59758   2.477   2.036   4.976 -0.0902 -0.3708  2.8698
  443MOL0     H59759   2.595   1.917   5.159 -1.5279 -0.8336  0.5180
  443MOL0     H59760   2.555   1.767   5.073  0.5090 -0.2438 -1.2852
  443MOL0     H59761   2.735   1.980   4.951 -5.3500  0.6510 -1.6666
  443MOL0     H59762   2.721   1.804   4.897  0.0231 -1.1551  0.9360
  443MOL0     H59763   2.835   1.736   5.104  0.3591  0.1510  0.5726
  443MOL0     H59764   2.847   1.904   5.160 -0.5949  0.9119 -0.7646
  443MOL0     H59765   3.019   1.776   5.246  0.9435 -2.4777 -2.5810
  443MOL0     H59766   3.226   1.794   5.361 -1.7819 -0.8617  0.0987
  443MOL0     H59767   3.739   1.726   5.292  3.4897 -1.5410  0.3524
  443MOL0     H59768   3.958   1.762   5.420  1.2172  0.9155  0.6673
  443MOL0     H59769   4.111   2.170   5.461  1.3032  0.4918  0.9458
  443MOL0     H59770   4.021   2.106   5.617  0.5355 -1.6139  0.7930
  443MOL0     H59771   4.308   2.030   5.577  1.1004  1.6433  0.4509
  443MOL0     H59772   4.257   2.188   5.654 -0.8379  0.2996  0.6281
  443MOL0     H59773   4.112   2.015   5.806 -0.5818 -1.3482  0.2437
  443MOL0     H59774   4.224   1.908   5.724 -1.8767 -0.7125 -0.2708
  443MOL0     H59775   4.302   1.941   5.930 -1.5792  1.9161  3.9512
  443MOL0     H59776   4.275   2.119   5.927 -0.7417  1.5081 -2.2119
  443MOL0     H59777   4.479   2.146   5.774  0.3758 -0.1182  1.8223
  443MOL0     H59778   4.489   1.973   5.746  1.0741 -1.2602 -0.2928
  443MOL0     H59779   4.532   1.926   5.975  1.2837  1.0788  2.9226
  443MOL0     H59780   4.654   2.018   5.899  1.3759  4.4906  1.0502
  443MOL0     H59781   4.460   2.156   6.076  0.8711  1.1858 -1.7441
  443MOL0     H59782   4.615   2.215   6.014  1.7953 -0.2442 -0.4126
  443MOL0     H59783   4.648   2.163   6.241  1.2589  2.1829 -3.4251
  443MOL0     H59784   4.555   2.019   6.245  1.0668 -2.2624 -0.9039
  443MOL0     H59785   3.902   2.181   5.386  1.6735  0.1987 -2.8220
  443MOL0     H59786   3.683   2.138   5.269 -0.0261 -0.1808  1.4938
  443MOL0     H59787   3.413   1.981   5.017 -0.7952  1.2085  0.8727
  443MOL0     H59788   3.184   1.980   4.911  4.1867  0.6111 -0.9421
  443MOL0     H59789   1.203   2.059   5.059  2.4977 -3.6488  2.5604
  443MOL0     H59790   0.978   2.079   5.126  2.0415  1.0719 -0.3870
  443MOL0     H59791   0.585   1.842   5.219  1.6112  1.0907  1.2615
  443MOL0     H59792   0.375   1.851   5.311  3.7593 -1.4283  1.1734
  443MOL0     H59793   0.170   1.905   5.443 -1.6307 -1.0255 -0.9470
  443MOL0     H59794   0.155   1.846   5.284 -2.1407 -3.6593  1.9716
  443MOL0     H59795  -0.053   1.840   5.364 -3.1994  0.4430 -0.9114
  443MOL0     H59796  -0.051   1.997   5.264  1.5308 -0.4040 -0.0246
  443MOL0     H59797  -0.039   2.121   5.481 -1.2474  0.4210 -2.1077
  443MOL0     H59798  -0.028   1.977   5.565  0.1125  1.0907  0.1160
  443MOL0     H59799  -0.255   1.892   5.490  0.1956 -0.6235 -1.7002
  443MOL0     H59800  -0.253   2.042   5.584 -0.0506  1.3256 -0.8127
  443MOL0     H59801  -0.384   2.204   5.225 -0.1190 -1.4526 -0.4708
  443MOL0     H59802   0.298   2.248   5.160 -1.1079 -0.0045 -1.0889
  443MOL0     H59803   0.470   2.377   5.069 -1.6034 -0.0240 -1.5146
  443MOL0     H59804   0.620   2.315   5.004 -0.1501  1.2486 -0.9327
  443MOL0     H59805   0.449   2.278   4.934 -1.0004 -2.0836  1.0085
  444MOL0     O59806   3.515   0.513   5.504 -0.4938 -0.7170 -0.5831
  444MOL0     C59807   3.469   0.477   5.611  0.1093  0.2969  0.4331
  444MOL0     O59808   3.528   0.487   5.730  0.1354  0.0778  0.1131
  444MOL0     C59809   3.645   0.562   5.723  0.5480 -0.4456  0.0780
  444MOL0     C59810   3.646   0.702   5.700 -0.0414 -0.1673 -0.1766
  444MOL0     C59811   3.759   0.774   5.697 -0.9151  0.8543  0.0571
  444MOL0     C59812   3.886   0.717   5.702  0.5186  0.4867  0.1423
  444MOL0     O59813   4.006   0.794   5.703 -0.6733 -0.4156  0.5600
  444MOL0     C59814   4.108   0.757   5.804  0.0556 -0.6841  0.4791
  444MOL0     C59815   4.252   0.769   5.760  0.4075  0.5098  0.1942
  444MOL0     C59816   4.345   0.790   5.874 -0.5500 -1.7742 -0.2397
  444MOL0     C59817   4.488   0.824   5.822 -0.2118 -0.1215 -0.1489
  444MOL0     C59818   4.561   0.710   5.737  0.0442  0.3273  0.0544
  444MOL0     C59819   4.668   0.773   5.635  0.4907 -0.7002  0.3562
  444MOL0     C59820   4.800   0.825   5.699  0.0571 -0.0138  0.6383
  444MOL0     C59821   4.897   0.861   5.590  0.1276  0.3054 -0.0334
  444MOL0     N59822   5.037   0.904   5.635 -0.0922  0.7854  1.0493
  444MOL0     C59823   5.158   0.833   5.624  0.7740 -0.3194 -0.5104
  444MOL0     C59824   5.254   0.914   5.671  0.6339 -0.4258 -0.6118
  444MOL0     C59825   5.401   0.871   5.673 -0.2687  0.6846  0.6935
  444MOL0     C59826   5.495   0.982   5.712 -0.8404  0.2423 -0.5425
  444MOL0     C59827   5.639   0.937   5.688 -0.3352 -0.2298 -0.7687
  444MOL0     C59828   5.736   1.036   5.746 -0.4823  0.8144  0.6361
  444MOL0     O59829   5.871   0.980   5.741  0.8065  0.2592  0.2463
  444MOL0     C59830   5.981   1.061   5.762  0.5994  0.4438  0.0596
  444MOL0     C59831   6.110   1.023   5.715 -0.2299 -0.6903 -0.4219
  444MOL0     C59832   6.223   1.093   5.753  0.2457 -0.4729  0.1242
  444MOL0     C59833   6.218   1.190   5.854 -0.3138 -0.7514  0.7181
  444MOL0     C59834   6.346   1.242   5.908 -0.0313  0.5467  0.0462
  444MOL0     O59835   6.351   1.305   6.031  0.3971  0.3689  0.5499
  444MOL0     C59836   6.471   1.363   6.060 -0.0648  0.0309 -0.8133
  444MOL0     C59837   6.513   1.471   5.986 -0.1882  0.4188  0.2954
  444MOL0     C59838   6.632   1.537   6.022 -0.0648 -1.0038  0.2976
  444MOL0     C59839   6.714   1.492   6.122  0.5831 -0.2477 -0.4505
  444MOL0     O59840   6.826   1.565   6.149 -0.7039  0.2706  0.4225
  444MOL0     C59841   6.890   1.540   6.276  0.2434 -0.2352  0.2161
  444MOL0     C59842   7.020   1.614   6.294  0.0769  0.0901  0.0544
  444MOL0     C59843   7.126   1.540   6.208 -0.0667 -0.5280 -0.0251
  444MOL0     C59844   7.266   1.597   6.226  0.0639 -0.0215  0.6531
  444MOL0     C59845   7.333   1.545   6.352  0.1404 -0.0566 -0.5191
  444MOL0     C59846   7.488   1.574   6.357  0.7496 -0.9944  0.0551
  444MOL0     C59847   7.560   1.484   6.455  0.8406  0.4882 -0.2977
  444MOL0     C59848   7.709   1.514   6.469  0.0504 -0.3045 -0.2701
  444MOL0    Cl59849   7.739   1.670   6.543 -0.0605 -0.1848 -0.0966
  444MOL0     C59850   6.657   1.389   6.202 -0.9078  0.8684  0.7321
  444MOL0     C59851   6.539   1.314   6.167 -1.1918 -0.3888 -0.8765
  444MOL0     O59852   6.433   1.222   5.829 -0.3597  0.3093  0.1217
  444MOL0     C59853   6.097   1.224   5.906  0.0807  0.1455 -0.6984
  444MOL0     C59854   5.979   1.168   5.853 -0.3650  0.3187 -0.4573
  444MOL0     N59855   5.198   1.043   5.694  0.4410  0.8955 -0.7827
  444MOL0     N59856   5.069   1.034   5.680  0.0378  0.5396  0.5155
  444MOL0     C59857   3.889   0.577   5.709 -1.1668 -0.2308  0.3748
  444MOL0     C59858   3.771   0.503   5.731  0.0847  0.2312 -0.0486
  444MOL0     C59859   3.336   0.404   5.615 -0.1599 -0.0979 -0.1902
  444MOL0     C59860   3.279   0.373   5.739  1.2042  0.3208 -0.5011
  444MOL0     C59861   3.152   0.325   5.745 -0.6237 -0.3897 -0.4263
  444MOL0     C59862   3.066   0.313   5.641 -0.3166  0.0264  0.0001
  444MOL0     O59863   2.932   0.304   5.643 -0.1283  0.0600 -0.0926
  444MOL0     C59864   2.892   0.202   5.742 -0.4503  0.4689 -0.0769
  444MOL0     C59865   2.751   0.158   5.705  0.2162  0.5368 -0.3333
  444MOL0     C59866   2.738   0.099   5.567  0.1887 -0.1684  0.1213
  444MOL0     C59867   2.594   0.143   5.513 -0.2598  0.0634 -0.9896
  444MOL0     C59868   2.495   0.100   5.605  0.1278 -0.4192  0.6167
  444MOL0     C59869   2.414   0.079   5.687 -0.0549  0.0034 -1.0049
  444MOL0     C59870   3.124   0.321   5.515 -0.0442  0.7970  0.5343
  444MOL0     C59871   3.261   0.357   5.498  0.4044  0.8350  0.9759
  444MOL0     C59872   3.316   0.369   5.358 -0.0686 -0.0862 -0.1131
  444MOL0     H59873   3.549   0.749   5.688  0.5919  1.4181  0.6339
  444MOL0     H59874   3.760   0.882   5.704 -0.0916  0.8289  0.4339
  444MOL0     H59875   4.103   0.832   5.882 -2.6208  2.5016 -2.4134
  444MOL0     H59876   4.102   0.656   5.846  2.0011 -0.3826  1.5640
  444MOL0     H59877   4.260   0.856   5.693  0.9185 -1.0858 -1.9260
  444MOL0     H59878   4.287   0.679   5.708 -1.1544 -1.2972  2.1226
  444MOL0     H59879   4.343   0.707   5.944  1.7806 -1.5548  0.1441
  444MOL0     H59880   4.317   0.878   5.934  0.7118 -1.4441 -0.1185
  444MOL0     H59881   4.484   0.918   5.766  1.0154  1.2531  1.9143
  444MOL0     H59882   4.547   0.842   5.913 -2.3476  1.3557  1.0160
  444MOL0     H59883   4.606   0.642   5.810 -2.6154 -1.3821  0.2411
  444MOL0     H59884   4.485   0.657   5.679  0.1866 -0.0405  0.2019
  444MOL0     H59885   4.683   0.688   5.566 -1.1098 -0.1329 -0.7691
  444MOL0     H59886   4.620   0.855   5.581  0.3027 -2.2057 -1.9503
  444MOL0     H59887   4.841   0.743   5.760 -1.7653 -2.5707 -1.3540
  444MOL0     H59888   4.783   0.904   5.773 -0.5458 -0.7594  1.3237
  444MOL0     H59889   4.896   0.781   5.516 -1.0328 -0.5646  0.8752
  444MOL0     H59890   4.853   0.946   5.537 -1.8138  0.0635  1.0832
  444MOL0     H59891   5.172   0.730   5.594  2.1232 -0.8175  1.5665
  444MOL0     H59892   5.419   0.784   5.737  0.1311  1.4374  1.6310
  444MOL0     H59893   5.419   0.846   5.569 -1.0679  0.1780  0.6636
  444MOL0     H59894   5.470   1.072   5.654 -1.1956 -1.3182 -2.9648
  444MOL0     H59895   5.477   0.998   5.818  0.7706  0.5130 -0.2833
  444MOL0     H59896   5.649   0.934   5.579 -1.3341 -0.4309 -0.8641
  444MOL0     H59897   5.661   0.838   5.729  0.8950  0.6734  0.8565
  444MOL0     H59898   5.716   1.042   5.853 -0.2939  1.5232  0.6323
  444MOL0     H59899   5.724   1.134   5.700  2.3723  2.3738  2.9052
  444MOL0     H59900   6.121   0.933   5.655 -1.7993 -1.0054 -0.2942
  444MOL0     H59901   6.314   1.053   5.709  2.5919  2.3307  2.0396
  444MOL0     H59902   6.448   1.502   5.905  0.0401 -2.4098 -1.0884
  444MOL0     H59903   6.674   1.623   5.971  1.0965 -1.3123  0.7143
  444MOL0     H59904   6.814   1.577   6.346 -1.0787 -2.2132 -0.0960
  444MOL0     H59905   6.909   1.433   6.288 -1.4788 -0.6071 -0.1119
  444MOL0     H59906   7.011   1.721   6.271  0.1454 -0.0212 -0.5036
  444MOL0     H59907   7.045   1.609   6.400 -4.9643 -1.0076  1.4514
  444MOL0     H59908   7.127   1.434   6.236 -3.6827 -0.0079  2.9148
  444MOL0     H59909   7.089   1.543   6.105 -0.1752 -1.0760 -0.0072
  444MOL0     H59910   7.265   1.706   6.240  0.9357  0.0858 -0.0458
  444MOL0     H59911   7.329   1.590   6.137  0.4000  3.4962  0.4813
  444MOL0     H59912   7.309   1.439   6.337 -1.8419  0.5305 -2.0836
  444MOL0     H59913   7.281   1.584   6.440  1.5469  2.9494 -0.9195
  444MOL0     H59914   7.534   1.577   6.257  2.4053 -0.2876  0.8071
  444MOL0     H59915   7.502   1.676   6.393 -2.5794 -1.1621  2.2322
  444MOL0     H59916   7.545   1.384   6.413 -0.3786  1.8642 -3.3632
  444MOL0     H59917   7.519   1.485   6.557  2.1525 -0.9516  0.2835
  444MOL0     H59918   7.763   1.438   6.526  1.1436  0.7410  0.1276
  444MOL0     H59919   7.750   1.527   6.369  2.3252  3.1080  0.9160
  444MOL0     H59920   6.715   1.350   6.284 -0.5340 -0.8338 -0.2926
  444MOL0     H59921   6.500   1.228   6.219  0.3012 -0.4277  0.2227
  444MOL0     H59922   6.081   1.299   5.983  0.2979  1.0196 -1.4855
  444MOL0     H59923   5.886   1.191   5.905 -1.0620 -1.7006 -0.7187
  444MOL0     H59924   3.978   0.515   5.713  1.7894  3.5937 -0.3036
  444MOL0     H59925   3.765   0.399   5.759  0.8111  0.4526  0.9993
  444MOL0     H59926   3.338   0.390   5.828  0.4866 -0.9721  0.2459
  444MOL0     H59927   3.116   0.305   5.846  2.3381 -3.8657  0.1657
  444MOL0     H59928   2.897   0.241   5.844  0.3355 -2.0408  0.9250
  444MOL0     H59929   2.959   0.115   5.740 -0.5089  0.3550  1.5998
  444MOL0     H59930   2.689   0.247   5.719  1.0653  1.5074 -2.2788
  444MOL0     H59931   2.714   0.091   5.783  0.0294 -1.0163 -1.6818
  444MOL0     H59932   2.743  -0.011   5.572  1.6858 -0.3653 -2.9177
  444MOL0     H59933   2.810   0.138   5.494 -1.4395  0.8971 -0.9650
  444MOL0     H59934   2.594   0.252   5.505  0.1967  0.2067  0.5181
  444MOL0     H59935   2.574   0.095   5.417 -1.8688  0.2018 -0.7502
  444MOL0     H59936   2.324   0.065   5.743 -0.2405  1.7080 -0.8309
  444MOL0     H59937   3.056   0.303   5.433 -0.1193 -2.1435  1.1123
  444MOL0     H59938   3.298   0.474   5.333 -0.0054 -0.5702 -2.3727
  444MOL0     H59939   3.423   0.351   5.364 -0.0472  0.5075  2.4127
  444MOL0     H59940   3.267   0.307   5.282  0.8126  2.0598 -2.5851
  445MOL0     O59941   9.187  10.615   5.780  0.4730 -0.2045 -0.1262
  445MOL0     C59942   9.127  10.681   5.693 -0.3541  0.1791 -0.1249
  445MOL0     O59943   9.173  10.726   5.573 -0.8739 -0.4673  0.0334
  445MOL0     C59944   9.300  10.703   5.553 -0.3188 -1.3899 -0.0385
  445MOL0     C59945   9.335  10.636   5.428 -0.4641  1.0761  0.0341
  445MOL0     C59946   9.465  10.638   5.387 -0.2084 -0.0323  0.2849
  445MOL0     C59947   9.565  10.706   5.461  0.1012 -0.9177  0.9714
  445MOL0     O59948   9.690  10.702   5.412  0.8755  0.0464 -0.0208
  445MOL0     C59949   9.753  10.573   5.411 -0.4371  0.1908 -0.0564
  445MOL0     C59950   9.904  10.573   5.419 -0.3465 -0.3669  0.2924
  445MOL0     C59951   9.967  10.654   5.308 -0.4034  0.6274  0.4191
  445MOL0     C59952  10.121  10.623   5.305 -0.6708  0.7386  0.1943
  445MOL0     C59953  10.196  10.670   5.179  0.8602  0.0378  0.4463
  445MOL0     C59954  10.341  10.644   5.186 -0.3897 -0.1060  0.1718
  445MOL0     C59955  10.403  10.704   5.065 -0.0752  0.5820  0.6477
  445MOL0     C59956  10.544  10.746   5.073  0.4825 -0.8805  0.5332
  445MOL0     N59957  10.589  10.808   4.946  0.4366  0.2905  0.4566
  445MOL0     C59958  10.606  10.748   4.821  0.4498  0.1959  0.1715
  445MOL0     C59959  10.603  10.846   4.729 -0.0998  0.4023 -0.6105
  445MOL0     C59960  10.619  10.833   4.577  0.3531  0.4578 -0.2763
  445MOL0     C59961  10.762  10.873   4.531  0.3342  0.0331 -0.6169
  445MOL0     C59962  10.880  10.778   4.581  1.1356  0.2060 -0.4680
  445MOL0     C59963  10.930  10.682   4.474 -0.6748 -1.2792 -1.1659
  445MOL0     O59964  11.027  10.740   4.390 -0.3032  0.0792  0.0092
  445MOL0     C59965  11.093  10.660   4.296  0.1703 -0.2421 -0.0446
  445MOL0     C59966  11.215  10.612   4.328 -0.4025 -0.6307 -0.5008
  445MOL0     C59967  11.291  10.532   4.247 -0.3523  0.1214  0.2464
  445MOL0     C59968  11.242  10.503   4.118 -1.0606 -0.5081 -0.5793
  445MOL0     C59969  11.314  10.429   4.014  0.0818  0.5404 -0.1082
  445MOL0     O59970  11.448  10.385   4.038  0.7218 -0.5890 -0.3761
  445MOL0     C59971  11.501  10.319   3.934  0.0877  0.6100  0.2441
  445MOL0     C59972  11.619  10.372   3.889  0.0823  0.1306  0.0289
  445MOL0     C59973  11.691  10.313   3.787  0.1208 -0.0702 -0.1955
  445MOL0     C59974  11.641  10.197   3.724 -0.1928  0.0672  0.4785
  445MOL0     O59975  11.715  10.158   3.620  0.1086  0.7620  0.5060
  445MOL0     C59976  11.645  10.106   3.510  0.5760  0.5131  0.6007
  445MOL0     C59977  11.711  10.147   3.381 -0.3815 -0.4777  0.2414
  445MOL0     C59978  11.860  10.122   3.356  0.4283  0.4755  0.1065
  445MOL0     C59979  11.919  10.136   3.215 -0.6278  0.2233  1.6328
  445MOL0     C59980  12.073  10.103   3.212  0.0009  0.1502 -0.2946
  445MOL0     C59981  12.138  10.106   3.072 -0.1909  0.1538  0.8330
  445MOL0     C59982  12.150  10.251   3.029  0.3248 -0.8040  0.4177
  445MOL0     C59983  12.221  10.271   2.899 -0.0631  1.0484  1.1526
  445MOL0    Cl59984  12.395  10.239   2.908 -0.1238  0.1160 -0.1946
  445MOL0     C59985  11.517  10.146   3.762 -0.0220  0.4254  0.3175
  445MOL0     C59986  11.448  10.205   3.869  0.3288 -0.4228 -0.2094
  445MOL0     O59987  11.264  10.431   3.903 -0.3982 -0.2265 -0.8694
  445MOL0     C59988  11.120  10.562   4.081  0.1886  0.2018 -0.2493
  445MOL0     C59989  11.044  10.644   4.170 -1.1036 -0.3966  0.5155
  445MOL0     N59990  10.595  10.971   4.788 -0.0122  0.0705 -0.6349
  445MOL0     N59991  10.582  10.945   4.921  0.7437  0.1457 -0.0488
  445MOL0     C59992   9.530  10.782   5.571  0.4135 -0.0622  0.1797
  445MOL0     C59993   9.400  10.770   5.617 -0.0952 -0.0400  0.5352
  445MOL0     C59994   8.981  10.704   5.723 -0.2379 -0.1540 -0.8958
  445MOL0     C59995   8.904  10.754   5.619  0.9212 -0.1938  0.2063
  445MOL0     C59996   8.770  10.784   5.642  0.1569 -0.0842  0.6524
  445MOL0     C59997   8.707  10.767   5.766 -0.5091 -0.1841 -0.1892
  445MOL0     O59998   8.574  10.800   5.785 -0.1160 -0.3996 -0.8132
  445MOL0     C59999   8.500  10.877   5.691 -0.5574  0.2062  0.3526
  445MOL0     C60000   8.370  10.904   5.757 -0.3889  0.8600 -0.1588
  445MOL0     C60001   8.276  10.778   5.793  0.9377 -0.2132 -0.5685
  445MOL0     C60002   8.121  10.799   5.791 -1.0850 -0.4014  0.1693
  445MOL0     C60003   8.087  10.910   5.889  0.7645 -0.5128 -0.2578
  445MOL0     C60004   8.055  10.999   5.970  0.7165  0.5235 -1.0032
  445MOL0     C60005   8.789  10.722   5.869  0.2966 -0.3079  0.2806
  445MOL0     C60006   8.923  10.685   5.851 -0.8668 -0.6232 -0.5880
  445MOL0     C60007   8.996  10.648   5.975  0.3096  0.1071 -0.9527
  445MOL0     H60008   9.264  10.604   5.352  1.0178  2.7952 -2.2096
  445MOL0     H60009   9.490  10.580   5.299  1.3269  1.4380 -0.3015
  445MOL0     H60010   9.713  10.510   5.491 -3.1199 -0.7615 -1.9991
  445MOL0     H60011   9.722  10.531   5.315 -1.4374  3.1819 -1.1473
  445MOL0     H60012   9.931  10.468   5.405 -1.6017 -0.8068  0.9728
  445MOL0     H60013   9.935  10.599   5.521 -0.5370 -1.3465  0.6120
  445MOL0     H60014   9.941  10.758   5.331 -2.5355  0.0948  0.6436
  445MOL0     H60015   9.921  10.616   5.216  0.1719 -2.0949  1.1636
  445MOL0     H60016  10.170  10.663   5.394  1.7576 -0.6258 -0.4445
  445MOL0     H60017  10.132  10.516   5.322  1.5357  1.1911  2.0029
  445MOL0     H60018  10.151  10.607   5.102 -4.6936 -1.6888  4.5099
  445MOL0     H60019  10.169  10.775   5.173 -2.6376 -0.6975  1.3036
  445MOL0     H60020  10.385  10.691   5.275  0.4922 -0.9307  0.1995
  445MOL0     H60021  10.376  10.540   5.187 -0.2682 -0.1034 -1.6223
  445MOL0     H60022  10.334  10.778   5.023 -0.8972 -0.1159  0.7418
  445MOL0     H60023  10.405  10.625   4.989  2.7052 -0.6477  1.8546
  445MOL0     H60024  10.563  10.825   5.147 -0.1893  0.4673 -0.6632
  445MOL0     H60025  10.610  10.665   5.104 -0.3523 -2.2584 -1.1452
  445MOL0     H60026  10.619  10.641   4.805 -0.2954  0.0083  0.7470
  445MOL0     H60027  10.605  10.729   4.546 -0.1981  0.5105 -0.2166
  445MOL0     H60028  10.538  10.894   4.534 -1.7082 -2.8761 -1.4941
  445MOL0     H60029  10.767  10.878   4.422 -0.8950 -1.7040 -0.8077
  445MOL0     H60030  10.773  10.970   4.579  0.9152 -1.4156  2.4324
  445MOL0     H60031  10.843  10.719   4.665  2.4038 -0.4977 -0.3766
  445MOL0     H60032  10.962  10.844   4.611  1.4957  0.8176 -2.6216
  445MOL0     H60033  10.839  10.657   4.419 -0.8858 -2.1423 -0.4498
  445MOL0     H60034  10.970  10.591   4.520 -0.6816 -1.2483 -1.0986
  445MOL0     H60035  11.255  10.654   4.420 -1.7296 -0.4394  0.0037
  445MOL0     H60036  11.388  10.490   4.271  0.9085 -0.3836 -4.5503
  445MOL0     H60037  11.657  10.470   3.914  0.3293  0.1975 -0.6025
  445MOL0     H60038  11.781  10.364   3.757 -0.3835  1.5746  0.9793
  445MOL0     H60039  11.644   9.997   3.509  1.6049  0.4926 -1.3425
  445MOL0     H60040  11.543  10.147   3.508  0.2445 -0.2823 -1.4574
  445MOL0     H60041  11.650  10.111   3.298 -1.5333  0.4535  0.6553
  445MOL0     H60042  11.704  10.256   3.388 -0.1037 -0.1736 -2.9356
  445MOL0     H60043  11.926  10.193   3.406  2.3871 -0.2786 -1.2559
  445MOL0     H60044  11.877  10.020   3.394 -3.7163 -0.4524 -0.0438
  445MOL0     H60045  11.904  10.239   3.182  0.8629  0.2658  0.9905
  445MOL0     H60046  11.869  10.066   3.147  2.1211 -0.9763  0.7130
  445MOL0     H60047  12.077  10.007   3.265 -0.0484  1.5144  2.3082
  445MOL0     H60048  12.129  10.174   3.274  1.2959  2.3750 -3.7445
  445MOL0     H60049  12.240  10.067   3.066  0.5059  2.0977 -1.7082
  445MOL0     H60050  12.084  10.043   3.001  3.5775 -2.7599  0.2416
  445MOL0     H60051  12.206  10.300   3.109 -1.6360  1.0847  0.6848
  445MOL0     H60052  12.055  10.302   3.016  1.2948  1.5666  2.0441
  445MOL0     H60053  12.187  10.208   2.816 -0.2500  3.0797 -0.3764
  445MOL0     H60054  12.205  10.373   2.865 -0.6777  0.0495 -1.8370
  445MOL0     H60055  11.496  10.047   3.722  0.9988 -1.0608  3.2123
  445MOL0     H60056  11.355  10.153   3.891  0.8485 -2.1261 -1.7552
  445MOL0     H60057  11.087  10.547   3.979  2.3327  2.6685 -1.4245
  445MOL0     H60058  10.948  10.692   4.158 -0.3335  1.0928  0.0065
  445MOL0     H60059   9.608  10.841   5.618  2.5434 -1.4165 -1.4618
  445MOL0     H60060   9.368  10.829   5.702 -1.2739 -0.1821  0.2054
  445MOL0     H60061   8.950  10.772   5.523  0.8927  0.6698  0.3512
  445MOL0     H60062   8.731  10.839   5.558  1.9826  0.8058  0.3429
  445MOL0     H60063   8.490  10.826   5.595  3.1838 -1.0844  0.4911
  445MOL0     H60064   8.540  10.977   5.671  0.0715 -0.2971 -1.0000
  445MOL0     H60065   8.321  10.973   5.687 -1.5738 -0.9469 -1.1733
  445MOL0     H60066   8.382  10.959   5.852 -2.1325 -2.2196  2.0031
  445MOL0     H60067   8.303  10.738   5.891 -0.5332 -0.5497 -0.2768
  445MOL0     H60068   8.285  10.689   5.729 -1.3187 -3.9683  3.7077
  445MOL0     H60069   8.092  10.818   5.688 -0.7269 -0.4599  0.0559
  445MOL0     H60070   8.077  10.702   5.816 -2.4713  0.2621  0.4116
  445MOL0     H60071   8.029  11.077   6.039  0.7183  2.3679 -3.0139
  445MOL0     H60072   8.740  10.721   5.966  2.6361 -0.3467  1.5356
  445MOL0     H60073   8.928  10.666   6.059  0.3975  0.5045 -0.9638
  445MOL0     H60074   9.031  10.545   5.970 -2.0227 -0.8233  0.2262
  445MOL0     H60075   9.084  10.709   5.997  0.2258 -0.0466 -0.1323
  446MOL0     O60076   6.304   2.685   8.602 -0.5814 -0.4469 -0.0696
  446MOL0     C60077   6.350   2.748   8.509  0.0565 -0.5264  0.2437
  446MOL0     O60078   6.455   2.837   8.523 -0.7387  0.5502 -0.2085
  446MOL0     C60079   6.535   2.848   8.644  0.0349 -0.8664 -0.2689
  446MOL0     C60080   6.487   2.837   8.777  0.0068 -0.0862 -0.2261
  446MOL0     C60081   6.582   2.840   8.881  0.3671 -0.3801  0.2513
  446MOL0     C60082   6.717   2.861   8.857 -0.0633  0.1348 -0.3899
  446MOL0     O60083   6.812   2.875   8.955  0.4812  0.9820 -0.4779
  446MOL0     C60084   6.771   2.920   9.082 -0.4521  0.7032  0.8603
  446MOL0     C60085   6.888   2.904   9.178 -1.2751 -0.8452 -0.3583
  446MOL0     C60086   6.940   2.757   9.187 -0.8343 -0.0809  0.6379
  446MOL0     C60087   7.013   2.733   9.325 -0.8294 -0.4182 -0.1873
  446MOL0     C60088   7.028   2.584   9.340 -0.3262  0.3220 -0.1204
  446MOL0     C60089   7.073   2.557   9.480  0.0328 -0.4827  0.4369
  446MOL0     C60090   7.092   2.404   9.499  0.0772  0.7882 -0.5046
  446MOL0     C60091   7.117   2.365   9.642 -0.9048 -0.0560  0.3545
  446MOL0     N60092   7.216   2.249   9.641  0.1814  0.2056 -0.3059
  446MOL0     C60093   7.189   2.135   9.568  0.0964  0.2525  0.2285
  446MOL0     C60094   7.305   2.061   9.582  0.5801 -0.4358 -0.4035
  446MOL0     C60095   7.336   1.930   9.529 -0.2888  0.6385 -1.1004
  446MOL0     C60096   7.477   1.888   9.537 -0.1747  0.0259 -0.0780
  446MOL0     C60097   7.520   1.795   9.433 -0.5551 -0.3044 -0.3840
  446MOL0     C60098   7.439   1.668   9.441 -0.7539  0.2711 -0.4313
  446MOL0     O60099   7.473   1.589   9.326 -0.0446  0.0217 -0.2187
  446MOL0     C60100   7.407   1.467   9.311 -0.3881 -0.4450 -0.0665
  446MOL0     C60101   7.304   1.416   9.390  0.1491 -0.2540  0.2155
  446MOL0     C60102   7.240   1.296   9.359  0.5716 -0.7161  0.5273
  446MOL0     C60103   7.282   1.221   9.240  0.9724  0.1200 -0.6170
  446MOL0     C60104   7.222   1.103   9.195 -0.1687  0.3316  0.1003
  446MOL0     O60105   7.138   1.049   9.288  0.5228  0.4072  0.3605
  446MOL0     C60106   7.041   0.964   9.264  0.3583  0.3481 -0.5514
  446MOL0     C60107   6.989   0.919   9.144 -0.1553 -0.6976  0.2766
  446MOL0     C60108   6.885   0.827   9.139 -0.2524  0.2306 -0.2855
  446MOL0     C60109   6.816   0.801   9.256  1.0807 -0.1969 -0.2488
  446MOL0     O60110   6.716   0.708   9.260  0.2967  0.1034 -0.4254
  446MOL0     C60111   6.601   0.750   9.321  0.3195 -0.3665 -0.0181
  446MOL0     C60112   6.487   0.645   9.316  0.4014  0.3787 -0.7338
  446MOL0     C60113   6.523   0.509   9.379 -0.6069 -1.3506  0.1086
  446MOL0     C60114   6.592   0.422   9.266 -0.0361  0.0418  0.8919
  446MOL0     C60115   6.582   0.280   9.309  0.4569 -0.4577  1.0778
  446MOL0     C60116   6.692   0.244   9.416  1.1601  0.5130  0.5437
  446MOL0     C60117   6.821   0.186   9.353  0.7817 -0.3022 -0.3356
  446MOL0     C60118   6.900   0.278   9.261 -0.6737 -0.7872 -0.4008
  446MOL0    Cl60119   7.062   0.202   9.229  0.0558 -0.2100 -0.1700
  446MOL0     C60120   6.856   0.850   9.379  0.6751 -0.3756  0.3340
  446MOL0     C60121   6.971   0.930   9.390  0.1094 -0.0253 -0.0007
  446MOL0     O60122   7.231   1.074   9.077 -0.1227  0.5167  0.3730
  446MOL0     C60123   7.396   1.263   9.179 -0.1020 -0.4825  0.2295
  446MOL0     C60124   7.458   1.382   9.213  0.0449 -0.2278  0.1082
  446MOL0     N60125   7.386   2.130   9.669 -0.4232 -0.6325  0.6343
  446MOL0     N60126   7.336   2.242   9.706 -0.1221  0.5798  0.0880
  446MOL0     C60127   6.769   2.872   8.728 -0.1496  0.0353 -0.0575
  446MOL0     C60128   6.675   2.870   8.627  0.0996 -0.1112  0.4880
  446MOL0     C60129   6.276   2.755   8.379 -0.4811  0.1152 -0.9129
  446MOL0     C60130   6.322   2.851   8.285  0.0995  0.7389 -0.5677
  446MOL0     C60131   6.263   2.876   8.168 -0.7325  0.6204 -0.1862
  446MOL0     C60132   6.143   2.812   8.140 -0.3993  0.6411  0.0709
  446MOL0     O60133   6.065   2.835   8.026 -0.7114 -0.1076 -0.5560
  446MOL0     C60134   6.142   2.869   7.906  0.2660 -0.1387 -0.3481
  446MOL0     C60135   6.049   2.860   7.788 -0.0246  0.1277 -0.7906
  446MOL0     C60136   5.939   2.973   7.787 -0.9178 -1.0171  0.0845
  446MOL0     C60137   5.877   2.989   7.653  0.0460  0.5563  0.5105
  446MOL0     C60138   5.784   3.099   7.651 -0.4539 -0.4770  0.1977
  446MOL0     C60139   5.707   3.192   7.659 -0.8396 -0.1053 -0.2325
  446MOL0     C60140   6.096   2.717   8.227  0.1552  0.2681  0.8085
  446MOL0     C60141   6.160   2.681   8.346 -0.2055  0.7114  0.2633
  446MOL0     C60142   6.105   2.558   8.421 -1.5594  0.5381  0.1508
  446MOL0     H60143   6.384   2.822   8.807  0.8997 -2.1827  2.1710
  446MOL0     H60144   6.538   2.831   8.980 -0.3175 -1.8289 -0.1629
  446MOL0     H60145   6.742   3.025   9.072 -0.8409  0.7293  2.0626
  446MOL0     H60146   6.682   2.872   9.122 -0.2809 -1.4645 -1.0874
  446MOL0     H60147   6.848   2.950   9.268  2.3414  0.1721  0.9207
  446MOL0     H60148   6.981   2.955   9.152 -0.5959 -2.4475 -1.1971
  446MOL0     H60149   7.018   2.731   9.114 -0.5759 -1.5799  1.4075
  446MOL0     H60150   6.854   2.690   9.182  0.5454 -1.9207  0.0500
  446MOL0     H60151   7.107   2.789   9.331 -0.8545 -0.3821 -0.1261
  446MOL0     H60152   6.940   2.774   9.396 -1.6771 -2.4502  0.1878
  446MOL0     H60153   6.934   2.532   9.318  0.6084 -0.9221 -1.2973
  446MOL0     H60154   7.108   2.545   9.276 -0.0649  1.9150 -0.8060
  446MOL0     H60155   7.168   2.608   9.500  1.0146 -1.0828 -2.2382
  446MOL0     H60156   6.998   2.582   9.555  0.1548 -3.6417  1.8073
  446MOL0     H60157   7.181   2.381   9.440  0.6891 -0.7184  0.9159
  446MOL0     H60158   7.007   2.346   9.465 -0.6544  2.3532 -1.4702
  446MOL0     H60159   7.158   2.452   9.695  2.0948  0.4973 -2.5389
  446MOL0     H60160   7.022   2.334   9.687 -0.8242  1.0565  1.3478
  446MOL0     H60161   7.116   2.112   9.492  2.1100  0.4222 -1.8668
  446MOL0     H60162   7.275   1.856   9.580  1.1139 -3.1200 -4.2977
  446MOL0     H60163   7.305   1.933   9.424  2.8599  0.9215 -2.1375
  446MOL0     H60164   7.540   1.978   9.532  0.2318 -0.2900 -0.6870
  446MOL0     H60165   7.501   1.840   9.632  2.0267  2.6286  0.8368
  446MOL0     H60166   7.625   1.770   9.420 -0.6794 -0.1570 -1.7600
  446MOL0     H60167   7.499   1.847   9.339  2.6263  1.5621 -0.1872
  446MOL0     H60168   7.332   1.690   9.440 -0.3999  2.7418  2.3531
  446MOL0     H60169   7.471   1.619   9.533 -1.2339  1.7711  0.5727
  446MOL0     H60170   7.261   1.486   9.461 -0.5380  0.2986 -0.7179
  446MOL0     H60171   7.168   1.261   9.433  2.7759 -0.0980  3.1201
  446MOL0     H60172   7.038   0.951   9.053 -1.3401  2.9147  0.7629
  446MOL0     H60173   6.848   0.797   9.042  2.0961  0.1578 -1.2184
  446MOL0     H60174   6.607   0.759   9.430 -1.5181 -0.5993  0.1339
  446MOL0     H60175   6.570   0.845   9.277 -0.2990 -1.1362 -1.3018
  446MOL0     H60176   6.396   0.676   9.369  1.4130  1.8824  0.2054
  446MOL0     H60177   6.465   0.627   9.211  0.3338  0.4291 -0.7285
  446MOL0     H60178   6.588   0.528   9.465  2.9497 -1.0192 -2.4119
  446MOL0     H60179   6.430   0.461   9.410 -1.8469  0.0811 -1.1689
  446MOL0     H60180   6.686   0.472   9.242 -0.8640  0.9399 -0.6648
  446MOL0     H60181   6.531   0.427   9.176 -0.1540  0.5381  0.9958
  446MOL0     H60182   6.595   0.214   9.222 -0.8911 -1.4422  1.5879
  446MOL0     H60183   6.480   0.256   9.340  0.8736 -1.8715  1.4163
  446MOL0     H60184   6.716   0.337   9.468  1.4202  0.6991  0.1002
  446MOL0     H60185   6.650   0.169   9.484  0.8378  1.8386  1.8465
  446MOL0     H60186   6.819   0.086   9.307  0.3830 -0.2544 -0.4194
  446MOL0     H60187   6.886   0.174   9.441  2.3250 -0.5898 -1.4658
  446MOL0     H60188   6.847   0.288   9.166 -0.7947 -3.2205 -0.6479
  446MOL0     H60189   6.902   0.377   9.309 -0.6352 -0.4554 -1.0837
  446MOL0     H60190   6.802   0.817   9.467  0.5109  0.1869  0.4465
  446MOL0     H60191   7.033   0.955   9.476  1.9594 -0.1883 -1.2430
  446MOL0     H60192   7.445   1.211   9.098  0.5050  0.1958  0.1455
  446MOL0     H60193   7.547   1.410   9.159  0.7730 -2.7464 -0.1101
  446MOL0     H60194   6.876   2.890   8.717 -0.1872  0.2409 -0.1015
  446MOL0     H60195   6.718   2.882   8.528 -1.3837  0.5045 -0.1206
  446MOL0     H60196   6.408   2.916   8.298 -0.0394  0.7325  0.4908
  446MOL0     H60197   6.322   2.938   8.102  0.5810 -0.5392 -0.1440
  446MOL0     H60198   6.229   2.804   7.891  0.0616 -0.4899 -0.0232
  446MOL0     H60199   6.184   2.970   7.910 -1.6234  0.6865 -0.5475
  446MOL0     H60200   5.991   2.769   7.773 -1.0375  0.8376 -1.2515
  446MOL0     H60201   6.106   2.863   7.695 -0.2701 -2.4708 -1.1004
  446MOL0     H60202   6.004   3.058   7.810  0.5225 -2.2784  0.8854
  446MOL0     H60203   5.868   2.970   7.871 -1.7962  2.9359 -0.3231
  446MOL0     H60204   5.957   3.007   7.581 -1.8801  1.9091 -1.4534
  446MOL0     H60205   5.829   2.895   7.624  1.0741 -0.0948  0.8688
  446MOL0     H60206   5.636   3.272   7.652 -0.0182  0.6312 -0.3319
  446MOL0     H60207   6.007   2.662   8.198 -1.0401  2.2049  0.6321
  446MOL0     H60208   6.068   2.479   8.355  0.1218 -0.5715  0.4717
  446MOL0     H60209   6.180   2.507   8.481 -3.1789 -2.3242 -0.1086
  446MOL0     H60210   6.029   2.598   8.490  1.1907  0.8886  3.2098
  447MOL0     O60211   2.386   1.301  11.095  0.4876  0.7418 -1.0010
  447MOL0     C60212   2.359   1.350  10.988  0.6356 -0.4487  0.5585
  447MOL0     O60213   2.450   1.425  10.911  0.0759 -0.1333 -0.4847
  447MOL0     C60214   2.579   1.441  10.954 -0.3468  0.0990 -0.5821
  447MOL0     C60215   2.660   1.333  10.981 -0.3845  0.0753  0.0333
  447MOL0     C60216   2.794   1.347  11.010 -0.1662 -0.2890  0.1245
  447MOL0     C60217   2.855   1.475  11.023 -0.3064  0.0943 -0.5033
  447MOL0     O60218   2.983   1.502  11.059  0.3223  0.0242 -0.3460
  447MOL0     C60219   3.078   1.397  11.027 -0.8751 -0.3335 -0.3491
  447MOL0     C60220   3.221   1.440  11.047 -0.5167  0.7345  0.1730
  447MOL0     C60221   3.259   1.580  11.001  0.3146  0.6652  0.1614
  447MOL0     C60222   3.407   1.598  10.990 -1.0428  0.8690  1.0386
  447MOL0     C60223   3.439   1.740  10.927 -0.1854  0.2283 -0.7404
  447MOL0     C60224   3.591   1.772  10.932 -0.3633  0.0124  0.8560
  447MOL0     C60225   3.619   1.914  10.878  0.6478  0.6665 -0.4983
  447MOL0     C60226   3.766   1.948  10.894  0.2294  0.7161 -0.3072
  447MOL0     N60227   3.792   2.061  10.806 -0.5573 -0.3435  0.4816
  447MOL0     C60228   3.837   2.190  10.844  0.5399 -0.1859 -0.3702
  447MOL0     C60229   3.841   2.254  10.724  0.9984 -0.5098 -0.5901
  447MOL0     C60230   3.880   2.400  10.707  0.1191  0.5512 -0.2504
  447MOL0     C60231   4.021   2.405  10.646  0.0075 -0.5998  0.0341
  447MOL0     C60232   4.127   2.356  10.732  0.6899 -0.0521  0.5774
  447MOL0     C60233   4.258   2.426  10.705  0.1259  1.0563 -0.4321
  447MOL0     O60234   4.364   2.360  10.784 -0.4681  0.3724 -0.4883
  447MOL0     C60235   4.450   2.440  10.853  0.3995 -0.4334  0.7128
  447MOL0     C60236   4.396   2.529  10.952 -0.3359  0.2238 -0.1118
  447MOL0     C60237   4.483   2.623  11.014 -0.8596 -0.7632 -0.4888
  447MOL0     C60238   4.615   2.634  10.966 -0.4685 -0.0979  0.1535
  447MOL0     C60239   4.702   2.737  11.023 -0.2266  0.0886  0.5224
  447MOL0     O60240   4.829   2.733  10.976 -0.1137 -0.7460 -0.0433
  447MOL0     C60241   4.927   2.813  11.018 -0.5484  0.4137 -0.8767
  447MOL0     C60242   4.980   2.803  11.147 -0.1052  0.0754  0.2134
  447MOL0     C60243   5.073   2.897  11.195 -1.0046 -0.6318 -0.4654
  447MOL0     C60244   5.130   2.992  11.111 -0.3227 -1.0969 -1.4187
  447MOL0     O60245   5.223   3.091  11.141 -0.1040  0.1819 -0.8828
  447MOL0     C60246   5.277   3.091  11.278 -1.0905 -1.2845 -1.0583
  447MOL0     C60247   5.397   3.190  11.273 -0.3575 -0.2372 -0.7385
  447MOL0     C60248   5.516   3.116  11.219 -0.9237 -0.1272 -0.2020
  447MOL0     C60249   5.645   3.205  11.196 -0.7462 -0.4440 -0.3736
  447MOL0     C60250   5.757   3.112  11.159  0.1756  0.4082  0.1453
  447MOL0     C60251   5.871   3.203  11.116  0.3175  0.3292  0.6404
  447MOL0     C60252   6.006   3.125  11.100  0.1653 -0.2699 -0.9707
  447MOL0     C60253   6.118   3.227  11.107  0.3554 -0.5075  0.4205
  447MOL0    Cl60254   6.157   3.320  10.957  0.1011 -0.3933 -0.1250
  447MOL0     C60255   5.081   3.002  10.985  0.2012  0.0638  0.4851
  447MOL0     C60256   4.977   2.916  10.940  0.4485 -0.0177 -0.0023
  447MOL0     O60257   4.655   2.830  11.092 -0.2580 -0.4747  0.2951
  447MOL0     C60258   4.663   2.546  10.865  0.0726  0.1550 -0.3448
  447MOL0     C60259   4.586   2.443  10.817  1.0300 -0.2564  0.1394
  447MOL0     N60260   3.815   2.164  10.623  0.1455  0.0900 -0.0931
  447MOL0     N60261   3.778   2.048  10.674  0.2147 -0.2974  0.4218
  447MOL0     C60262   2.772   1.586  10.995  0.4922 -0.8756 -0.8243
  447MOL0     C60263   2.636   1.574  10.959  0.9629 -0.2837  0.6355
  447MOL0     C60264   2.244   1.310  10.905 -0.5642 -0.4888  0.3149
  447MOL0     C60265   2.251   1.263  10.769 -0.4445  0.3394 -0.4653
  447MOL0     C60266   2.135   1.225  10.699 -0.1072  0.1284 -0.2664
  447MOL0     C60267   2.011   1.228  10.757 -0.5868 -0.4908 -0.2220
  447MOL0     O60268   1.899   1.186  10.685 -0.4820 -0.5768 -0.1487
  447MOL0     C60269   1.904   1.126  10.556  0.0050  0.2240  1.1955
  447MOL0     C60270   1.780   1.025  10.540 -0.0197  0.1846 -0.1370
  447MOL0     C60271   1.648   1.074  10.593  1.0364  0.2989 -0.3332
  447MOL0     C60272   1.559   0.954  10.590  0.2703 -0.0725 -0.0505
  447MOL0     C60273   1.422   1.004  10.622  0.5956  0.4058 -0.5428
  447MOL0     C60274   1.304   1.036  10.644 -0.1702  0.0880  0.0075
  447MOL0     C60275   2.002   1.276  10.888  0.2972 -0.0842  0.1444
  447MOL0     C60276   2.113   1.308  10.962  0.3593  0.0148  0.4004
  447MOL0     C60277   2.088   1.348  11.104 -0.1099 -0.2352  0.1642
  447MOL0     H60278   2.615   1.236  10.961  2.9285 -1.0596 -2.7770
  447MOL0     H60279   2.856   1.258  11.019  1.9445  1.2430  1.5393
  447MOL0     H60280   3.059   1.312  11.093 -2.7884  0.9439  0.8374
  447MOL0     H60281   3.062   1.370  10.922 -0.9601  0.0370 -0.4336
  447MOL0     H60282   3.283   1.365  10.997 -0.4504  0.0838  1.1943
  447MOL0     H60283   3.241   1.435  11.155 -1.4943 -1.1194  0.3026
  447MOL0     H60284   3.223   1.654  11.072 -1.9003  2.2305 -2.4174
  447MOL0     H60285   3.213   1.603  10.904 -1.3444  0.5585  0.8908
  447MOL0     H60286   3.460   1.602  11.086  0.5381  0.9365  0.1911
  447MOL0     H60287   3.451   1.521  10.926 -2.1620  1.1414 -0.0833
  447MOL0     H60288   3.400   1.743  10.825  0.8940  0.4678 -1.1550
  447MOL0     H60289   3.380   1.811  10.988 -2.3037 -1.4923 -0.6470
  447MOL0     H60290   3.630   1.754  11.032 -1.0709  1.7673  1.4835
  447MOL0     H60291   3.648   1.703  10.868  0.0366  1.3669 -0.3137
  447MOL0     H60292   3.559   1.988  10.931  0.2223 -0.1612  0.2113
  447MOL0     H60293   3.588   1.920  10.773 -0.9099 -0.9947 -0.1859
  447MOL0     H60294   3.784   1.977  10.998  2.4668 -0.8697 -0.1984
  447MOL0     H60295   3.824   1.859  10.871 -1.3976 -1.0267  1.9502
  447MOL0     H60296   3.853   2.237  10.940  0.0249  3.3325 -1.8557
  447MOL0     H60297   3.792   2.445  10.659 -0.0572  0.3236 -0.1446
  447MOL0     H60298   3.880   2.461  10.797 -1.2868  0.8142 -0.4056
  447MOL0     H60299   4.030   2.357  10.548  1.2444  2.2147 -1.3589
  447MOL0     H60300   4.050   2.507  10.616 -1.1705  0.2214  1.6064
  447MOL0     H60301   4.143   2.250  10.708  1.7581 -0.0038  1.0336
  447MOL0     H60302   4.108   2.359  10.840  3.4456 -2.2573  1.2579
  447MOL0     H60303   4.246   2.532  10.730 -0.5865  1.3323 -1.8574
  447MOL0     H60304   4.277   2.418  10.598  1.5001 -0.9477 -0.1153
  447MOL0     H60305   4.293   2.515  10.983 -0.5513  1.2043 -0.3268
  447MOL0     H60306   4.454   2.679  11.103  2.9119  1.7219 -0.6190
  447MOL0     H60307   4.945   2.724  11.213  1.7907  0.5759  1.8879
  447MOL0     H60308   5.109   2.880  11.296 -0.5232  0.5803 -0.4156
  447MOL0     H60309   5.199   3.134  11.342 -0.5433  0.8510 -1.7458
  447MOL0     H60310   5.309   2.997  11.325 -1.3664 -0.2877  1.2149
  447MOL0     H60311   5.370   3.276  11.210  0.3081 -1.3622 -2.6325
  447MOL0     H60312   5.413   3.227  11.375 -1.2545 -0.8016 -0.3759
  447MOL0     H60313   5.543   3.040  11.293  1.7728  2.5289  1.7915
  447MOL0     H60314   5.483   3.074  11.124 -0.5446  0.1607 -0.4613
  447MOL0     H60315   5.663   3.252  11.293  0.1528 -0.3264 -0.5911
  447MOL0     H60316   5.629   3.282  11.121 -2.7741 -0.8530 -0.4288
  447MOL0     H60317   5.733   3.031  11.090 -0.7574 -0.4533  1.4481
  447MOL0     H60318   5.785   3.049  11.245 -0.5636  0.2960  0.3050
  447MOL0     H60319   5.840   3.244  11.020  0.2479  1.0311  0.9561
  447MOL0     H60320   5.886   3.280  11.192  0.3875  0.1041  0.8566
  447MOL0     H60321   6.011   3.078  11.002 -2.0992 -0.6598 -0.9674
  447MOL0     H60322   6.014   3.055  11.184 -0.7564  0.7958  0.0461
  447MOL0     H60323   6.103   3.292  11.193  2.1427 -2.6706  2.4981
  447MOL0     H60324   6.206   3.167  11.129  0.1648 -0.0152  2.6861
  447MOL0     H60325   5.110   3.091  10.930 -3.4416  1.1032 -0.0629
  447MOL0     H60326   4.937   2.937  10.841 -3.7448 -1.6509  1.0940
  447MOL0     H60327   4.764   2.559  10.830  0.4812 -1.5973  0.1170
  447MOL0     H60328   4.630   2.382  10.739  1.6783  1.0952 -0.5887
  447MOL0     H60329   2.822   1.681  11.010  0.5641 -0.7937 -1.5496
  447MOL0     H60330   2.568   1.657  10.948 -1.1661 -2.0367 -0.0108
  447MOL0     H60331   2.348   1.257  10.720  0.6743 -0.5838  1.7299
  447MOL0     H60332   2.156   1.199  10.596  1.5108 -0.1912  0.1213
  447MOL0     H60333   1.997   1.073  10.537 -0.3419  0.7703 -2.7420
  447MOL0     H60334   1.907   1.198  10.473 -2.0100 -1.5893 -0.5584
  447MOL0     H60335   1.807   0.938  10.601 -1.6301  0.2044  0.6539
  447MOL0     H60336   1.781   1.003  10.433 -0.0884  1.3304 -0.3887
  447MOL0     H60337   1.612   1.172  10.564 -0.1533  0.3866  1.2982
  447MOL0     H60338   1.650   1.087  10.702  1.5277  0.3060 -0.3398
  447MOL0     H60339   1.563   0.923  10.485 -2.0547 -0.1546 -0.1806
  447MOL0     H60340   1.595   0.878  10.659  0.1440  0.9638  1.1915
  447MOL0     H60341   1.198   1.048  10.651 -0.4502 -2.4835  1.1799
  447MOL0     H60342   1.901   1.288  10.928  0.1337 -1.8212  0.3315
  447MOL0     H60343   1.979   1.357  11.106 -0.2700 -1.6391 -0.7235
  447MOL0     H60344   2.099   1.264  11.174 -2.2825 -0.5746  0.1807
  447MOL0     H60345   2.155   1.428  11.134 -0.1736 -1.2046  3.2973
  448MOL0     O60346   0.711   5.871   4.937 -0.4373  0.5178  0.2813
  448MOL0     C60347   0.663   5.958   5.010  0.2459 -0.4044 -0.3935
  448MOL0     O60348   0.735   6.058   5.072  0.3373 -1.0576  0.2492
  448MOL0     C60349   0.873   6.047   5.069  0.6853 -0.4105 -0.1517
  448MOL0     C60350   0.952   6.117   4.978 -0.0233  0.4231 -0.0291
  448MOL0     C60351   1.093   6.110   4.989  0.0533 -0.6675  0.2568
  448MOL0     C60352   1.158   6.028   5.082  0.1329  0.1874 -0.6498
  448MOL0     O60353   1.297   6.016   5.082  0.6687 -0.1400  0.1003
  448MOL0     C60354   1.347   5.890   5.125  0.1155  0.4706  0.4815
  448MOL0     C60355   1.496   5.882   5.081  0.3084 -0.0640 -0.0141
  448MOL0     C60356   1.591   5.893   5.196 -0.5025  0.5815 -0.3103
  448MOL0     C60357   1.734   5.840   5.167  0.2911 -0.3175 -1.1844
  448MOL0     C60358   1.850   5.862   5.271  0.8721 -0.4234 -0.1383
  448MOL0     C60359   1.896   6.008   5.248 -0.1167 -0.5295  0.4726
  448MOL0     C60360   1.999   6.057   5.351  0.4720  0.4915  0.1758
  448MOL0     C60361   2.061   6.184   5.293 -0.5088 -0.0041 -0.0098
  448MOL0     N60362   1.951   6.279   5.243 -0.5548  0.0873 -0.2329
  448MOL0     C60363   1.864   6.336   5.331  0.2445 -1.0309 -0.9324
  448MOL0     C60364   1.781   6.409   5.252  0.7560  0.2258  0.4138
  448MOL0     C60365   1.665   6.501   5.282 -0.3251  0.1282 -0.9833
  448MOL0     C60366   1.532   6.441   5.339  0.6291  0.8548  0.0892
  448MOL0     C60367   1.470   6.348   5.232 -0.7561  0.0265 -0.3816
  448MOL0     C60368   1.309   6.324   5.266 -0.9705  0.7222  0.3261
  448MOL0     O60369   1.239   6.446   5.255  0.0430  0.2315 -0.1276
  448MOL0     C60370   1.104   6.453   5.252  0.5222  0.2948 -0.0653
  448MOL0     C60371   1.043   6.580   5.260 -1.0421  0.3807 -0.0625
  448MOL0     C60372   0.903   6.601   5.247 -0.7172 -0.4208 -0.0468
  448MOL0     C60373   0.820   6.499   5.252  0.5079  0.1941  0.6839
  448MOL0     C60374   0.670   6.521   5.251  0.3897 -0.1708 -0.4047
  448MOL0     O60375   0.590   6.407   5.234 -0.0451  0.0560  0.0471
  448MOL0     C60376   0.456   6.434   5.239 -0.5980 -0.6046  0.1976
  448MOL0     C60377   0.386   6.450   5.118 -0.9863 -0.4084  0.6946
  448MOL0     C60378   0.251   6.470   5.117 -0.0156  0.3608  1.2479
  448MOL0     C60379   0.192   6.482   5.244  0.7500  0.4749  0.7688
  448MOL0     O60380   0.055   6.513   5.255  0.1842  0.1356  0.0265
  448MOL0     C60381  -0.015   6.593   5.164 -0.1918 -0.3818  0.5431
  448MOL0     C60382  -0.135   6.648   5.240 -0.4553 -0.7823 -0.0101
  448MOL0     C60383  -0.249   6.669   5.134 -0.5004  0.6997 -0.5646
  448MOL0     C60384  -0.389   6.715   5.182  0.4674 -0.6110  0.1342
  448MOL0     C60385  -0.474   6.736   5.060  0.2604  0.4788  0.5788
  448MOL0     C60386  -0.615   6.771   5.110  0.0399  0.4315  0.4620
  448MOL0     C60387  -0.706   6.806   4.986  1.1149  0.1925  0.4870
  448MOL0     C60388  -0.840   6.870   5.026  0.7705  0.2442  0.1281
  448MOL0    Cl60389  -0.951   6.915   4.895 -0.0278  0.2593 -0.3112
  448MOL0     C60390   0.254   6.462   5.367 -0.6645  0.1924 -0.4325
  448MOL0     C60391   0.392   6.436   5.362 -0.4187 -0.0587 -0.3609
  448MOL0     O60392   0.627   6.634   5.265 -0.7812 -0.8977  0.1944
  448MOL0     C60393   0.880   6.368   5.257  0.1804  0.0197  1.1424
  448MOL0     C60394   1.015   6.346   5.252 -0.0668 -0.0982 -0.2855
  448MOL0     N60395   1.816   6.385   5.120 -0.5869  0.1466 -0.1686
  448MOL0     N60396   1.914   6.304   5.112 -0.3737  0.1086  0.1187
  448MOL0     C60397   1.073   5.959   5.167  0.8685  0.4455  0.4544
  448MOL0     C60398   0.934   5.963   5.163  0.2238 -0.2572 -0.3354
  448MOL0     C60399   0.513   5.966   5.041  0.2700  0.9628 -0.0686
  448MOL0     C60400   0.460   6.061   5.138  0.9878  0.4294 -0.0283
  448MOL0     C60401   0.329   6.078   5.165 -0.0022 -0.2464 -0.4615
  448MOL0     C60402   0.237   5.997   5.101 -0.1188 -0.2912 -0.0733
  448MOL0     O60403   0.103   6.003   5.122 -0.5776  0.3251  0.0572
  448MOL0     C60404   0.058   6.139   5.092  0.7290  0.2178  0.1205
  448MOL0     C60405  -0.098   6.159   5.110 -0.3226 -0.2113 -0.0745
  448MOL0     C60406  -0.152   6.050   5.200 -0.0122  0.1514  0.8159
  448MOL0     C60407  -0.296   6.075   5.246  0.0007  0.7890 -0.4089
  448MOL0     C60408  -0.316   6.202   5.318  0.2506  0.3459  0.1680
  448MOL0     C60409  -0.353   6.315   5.345 -0.2869  0.4109  0.3241
  448MOL0     C60410   0.278   5.898   5.016 -0.4653 -0.9024  0.4285
  448MOL0     C60411   0.417   5.879   4.984 -0.9066  0.1265  0.4807
  448MOL0     C60412   0.451   5.755   4.900  0.0796 -0.3955  1.0911
  448MOL0     H60413   0.899   6.176   4.903  0.5343  1.2478  0.2200
  448MOL0     H60414   1.153   6.162   4.915  2.5443 -1.5451  1.5345
  448MOL0     H60415   1.330   5.877   5.232  0.0361  1.5611  0.6140
  448MOL0     H60416   1.290   5.804   5.087  0.2952 -0.3553  2.0122
  448MOL0     H60417   1.511   5.962   5.008 -1.7821  0.2474 -0.1700
  448MOL0     H60418   1.519   5.787   5.032  3.3849  1.6310 -2.1694
  448MOL0     H60419   1.556   5.838   5.284  0.8328  1.8995  1.1121
  448MOL0     H60420   1.600   6.001   5.215 -1.9609  1.3812 -3.4578
  448MOL0     H60421   1.724   5.732   5.152 -0.1250 -0.4859  0.2149
  448MOL0     H60422   1.772   5.892   5.078  1.1317  0.1235 -0.5799
  448MOL0     H60423   1.808   5.834   5.368 -1.3318  0.3375 -0.8165
  448MOL0     H60424   1.928   5.789   5.247  0.8082 -0.1000 -1.4061
  448MOL0     H60425   1.953   6.015   5.155 -0.2755 -1.6702  0.2740
  448MOL0     H60426   1.807   6.070   5.246  1.3545  1.7457  1.1853
  448MOL0     H60427   2.078   5.983   5.367  1.4952  1.0498 -1.9264
  448MOL0     H60428   1.944   6.073   5.445  1.0441 -1.0958  0.8108
  448MOL0     H60429   2.122   6.218   5.376 -2.6600  1.9565  0.8847
  448MOL0     H60430   2.123   6.166   5.205  0.1698 -0.2009  0.5071
  448MOL0     H60431   1.872   6.361   5.436 -0.6216  3.3502 -1.6894
  448MOL0     H60432   1.704   6.565   5.362 -2.8677  0.0514  0.4284
  448MOL0     H60433   1.642   6.571   5.201 -1.1983 -0.8455 -1.6144
  448MOL0     H60434   1.558   6.383   5.428 -0.2952 -0.0204 -0.1899
  448MOL0     H60435   1.473   6.527   5.374 -2.4862 -1.7122  1.6440
  448MOL0     H60436   1.523   6.252   5.234 -0.5320  0.1553  1.5515
  448MOL0     H60437   1.473   6.383   5.128  1.2312 -0.9456 -0.7058
  448MOL0     H60438   1.296   6.277   5.363 -1.1688 -0.2641 -0.1687
  448MOL0     H60439   1.266   6.261   5.188 -2.4268  1.1728  0.7327
  448MOL0     H60440   1.104   6.665   5.284  1.1301 -1.0740 -0.1856
  448MOL0     H60441   0.868   6.703   5.236 -2.6103 -0.8891  1.2035
  448MOL0     H60442   0.446   6.448   5.028  1.0229  0.6350  1.9208
  448MOL0     H60443   0.198   6.479   5.022  1.4507 -2.2570  0.0397
  448MOL0     H60444   0.050   6.668   5.117 -1.2845 -0.3107 -0.9150
  448MOL0     H60445  -0.043   6.534   5.077  2.5660  0.0908 -0.7709
  448MOL0     H60446  -0.166   6.587   5.325  2.2883 -0.3543  1.4040
  448MOL0     H60447  -0.108   6.749   5.273  2.9290 -1.4865 -0.2591
  448MOL0     H60448  -0.217   6.749   5.066 -1.1324 -0.6265 -2.5122
  448MOL0     H60449  -0.260   6.569   5.092 -2.5004  0.1520  1.1368
  448MOL0     H60450  -0.393   6.808   5.239 -0.5711 -0.5999  0.0650
  448MOL0     H60451  -0.440   6.644   5.248 -0.6797  1.4037  1.5076
  448MOL0     H60452  -0.467   6.646   4.998 -2.3848  1.0875 -0.7550
  448MOL0     H60453  -0.434   6.818   4.999 -0.3307  0.5232  0.2419
  448MOL0     H60454  -0.657   6.678   5.148 -1.2937  0.5332 -0.6931
  448MOL0     H60455  -0.616   6.852   5.183  2.0813  1.6492 -0.7539
  448MOL0     H60456  -0.728   6.711   4.937  1.6479  1.1063 -1.6699
  448MOL0     H60457  -0.651   6.878   4.924 -0.2111  3.1770  2.5546
  448MOL0     H60458  -0.902   6.801   5.084 -0.0920  2.9103  2.5743
  448MOL0     H60459  -0.841   6.959   5.090 -2.2364 -2.6823  4.7281
  448MOL0     H60460   0.210   6.461   5.467  2.3904 -0.3904  1.0057
  448MOL0     H60461   0.441   6.416   5.456 -1.2462 -1.8408 -0.2619
  448MOL0     H60462   0.811   6.285   5.257  0.4160 -0.1906  2.4156
  448MOL0     H60463   1.043   6.242   5.244 -1.4505 -0.5550  0.4250
  448MOL0     H60464   1.111   5.897   5.247  3.9466  0.0862 -1.0959
  448MOL0     H60465   0.863   5.916   5.230 -2.7511  4.4166  0.1891
  448MOL0     H60466   0.532   6.124   5.189  5.4375 -3.1087 -1.2902
  448MOL0     H60467   0.298   6.160   5.228 -0.6082  0.8054 -2.0633
  448MOL0     H60468   0.064   6.164   4.986  0.0942  2.0455  0.4833
  448MOL0     H60469   0.115   6.198   5.164 -1.0317 -0.8649  2.5565
  448MOL0     H60470  -0.158   6.163   5.018  1.5908  0.5934 -1.3646
  448MOL0     H60471  -0.121   6.250   5.166 -0.0890 -0.1909 -0.0101
  448MOL0     H60472  -0.093   6.034   5.292 -0.1233  1.6719  1.1747
  448MOL0     H60473  -0.150   5.964   5.133 -0.7194  2.1178 -1.8763
  448MOL0     H60474  -0.364   6.069   5.160  0.5378 -0.3781 -0.7716
  448MOL0     H60475  -0.329   5.997   5.315  0.0690  1.4040  0.3273
  448MOL0     H60476  -0.411   6.405   5.354 -4.3935 -2.1489  2.5711
  448MOL0     H60477   0.200   5.833   4.977 -2.1280  0.5569  1.2111
  448MOL0     H60478   0.464   5.796   4.799 -0.8025 -0.1747  1.0623
  448MOL0     H60479   0.544   5.705   4.930  0.0651 -2.5596 -1.9338
  448MOL0     H60480   0.370   5.685   4.919 -0.1686  0.3081  2.7323
  449MOL0     O60481   2.914   7.224   4.562 -0.6903  0.0342  0.3447
  449MOL0     C60482   2.815   7.216   4.629 -0.3639 -0.6795 -0.3835
  449MOL0     O60483   2.793   7.103   4.705 -0.1011 -0.1265 -0.0708
  449MOL0     C60484   2.875   6.993   4.697 -0.3412  0.1336 -0.0833
  449MOL0     C60485   2.898   6.930   4.578  0.1338 -0.8515 -0.5755
  449MOL0     C60486   2.985   6.821   4.567  0.6018 -0.3164  0.3293
  449MOL0     C60487   3.048   6.762   4.678 -0.2791  0.4908 -0.2958
  449MOL0     O60488   3.125   6.650   4.665  0.5192  0.1606  0.0383
  449MOL0     C60489   3.224   6.633   4.766  0.1830 -0.0972 -0.6408
  449MOL0     C60490   3.335   6.546   4.709 -0.9319  0.0128 -0.2974
  449MOL0     C60491   3.414   6.623   4.607 -1.0860 -0.6692  0.2714
  449MOL0     C60492   3.517   6.531   4.553  0.2802  0.5850 -0.0960
  449MOL0     C60493   3.633   6.598   4.473 -1.0213 -0.5548 -0.5334
  449MOL0     C60494   3.567   6.648   4.345  0.3245  0.6181  0.0577
  449MOL0     C60495   3.667   6.711   4.241 -0.3279 -0.2384  0.3825
  449MOL0     C60496   3.605   6.746   4.111 -0.1481 -0.7398  0.1466
  449MOL0     N60497   3.699   6.810   4.014  0.0006 -0.3692  0.0716
  449MOL0     C60498   3.807   6.735   3.958  0.0891  0.3971 -0.0289
  449MOL0     C60499   3.866   6.826   3.875  1.2636  0.2803 -0.4178
  449MOL0     C60500   3.975   6.788   3.780 -0.1071 -0.2950 -1.3905
  449MOL0     C60501   4.107   6.813   3.854  0.1750  0.0445 -0.0245
  449MOL0     C60502   4.127   6.960   3.902 -0.0737 -0.8460 -0.3152
  449MOL0     C60503   4.281   6.991   3.898  1.6431 -0.1542  0.0942
  449MOL0     O60504   4.335   6.899   3.992 -0.1116  0.5209  0.1353
  449MOL0     C60505   4.456   6.932   4.042 -0.1816  0.3793 -0.1344
  449MOL0     C60506   4.566   6.984   3.961 -0.1633 -0.1578  0.1059
  449MOL0     C60507   4.684   7.020   4.024 -0.4298 -0.2850 -0.4034
  449MOL0     C60508   4.708   6.997   4.162  0.5162 -0.3050  1.1128
  449MOL0     C60509   4.845   7.024   4.205  0.0908  0.2095  0.0531
  449MOL0     O60510   4.928   7.105   4.132  0.0986 -0.6687  0.0461
  449MOL0     C60511   5.060   7.113   4.171 -0.5529 -0.0509  0.2338
  449MOL0     C60512   5.113   7.231   4.182 -0.3360 -1.0523 -0.2094
  449MOL0     C60513   5.244   7.255   4.237  0.2365 -0.3815 -0.6375
  449MOL0     C60514   5.318   7.143   4.274  0.0041  0.1198 -0.6263
  449MOL0     O60515   5.452   7.157   4.318 -0.0673 -0.8846 -0.0466
  449MOL0     C60516   5.487   7.083   4.436 -0.4276  0.2989  0.5174
  449MOL0     C60517   5.590   7.164   4.519  0.5260  0.1338  0.0170
  449MOL0     C60518   5.514   7.237   4.631 -0.4345  0.7264  0.6850
  449MOL0     C60519   5.394   7.324   4.582  0.1479  0.4813  0.7058
  449MOL0     C60520   5.343   7.411   4.696  0.2504  0.5339 -0.3742
  449MOL0     C60521   5.218   7.500   4.673 -1.2140 -0.4461 -0.1548
  449MOL0     C60522   5.093   7.414   4.652 -0.5999 -0.0099 -0.0078
  449MOL0     C60523   4.967   7.499   4.633  0.3647 -0.1595 -0.2372
  449MOL0    Cl60524   4.965   7.598   4.481 -0.4066  0.1178  0.0389
  449MOL0     C60525   5.265   7.014   4.257 -0.4397  0.9645 -0.2834
  449MOL0     C60526   5.132   7.002   4.213 -0.2133  0.3853  0.1205
  449MOL0     O60527   4.871   6.961   4.308  0.8305 -0.2704  0.1945
  449MOL0     C60528   4.603   6.936   4.236  0.4768 -0.3969  0.2283
  449MOL0     C60529   4.483   6.913   4.176  0.0913  0.5950 -0.0351
  449MOL0     N60530   3.797   6.943   3.878 -0.0226  0.6979  0.5465
  449MOL0     N60531   3.697   6.934   3.957 -0.1155  0.2547 -0.9392
  449MOL0     C60532   3.022   6.821   4.804  0.8356 -0.8997  0.0928
  449MOL0     C60533   2.932   6.930   4.813 -0.0506 -0.6627  0.1621
  449MOL0     C60534   2.716   7.323   4.650  0.4962  0.5347 -0.5834
  449MOL0     C60535   2.636   7.322   4.771  0.3360  0.2983 -0.4219
  449MOL0     C60536   2.544   7.419   4.790  0.6234  0.3069  0.4568
  449MOL0     C60537   2.531   7.527   4.701  1.1254  0.0443 -0.3428
  449MOL0     O60538   2.439   7.621   4.731  0.1533 -0.5501 -0.1335
  449MOL0     C60539   2.409   7.724   4.638  0.5038  0.2593  0.6312
  449MOL0     C60540   2.284   7.801   4.672  0.0020  0.0238 -0.1565
  449MOL0     C60541   2.158   7.712   4.671 -0.0288  0.0026 -0.7873
  449MOL0     C60542   2.053   7.763   4.775 -0.5345 -0.2631  1.3350
  449MOL0     C60543   1.922   7.703   4.752  1.5847  0.5267 -0.0681
  449MOL0     C60544   1.809   7.665   4.732  0.8046 -1.3218  0.8901
  449MOL0     C60545   2.604   7.531   4.588  0.2137 -0.3772 -0.2882
  449MOL0     C60546   2.703   7.436   4.557  0.2692 -0.4633 -0.2401
  449MOL0     C60547   2.807   7.469   4.441  0.7731  0.3706 -0.0674
  449MOL0     H60548   2.848   6.976   4.493 -0.8330  0.6270  0.7323
  449MOL0     H60549   3.006   6.786   4.466 -0.0682 -3.3484  1.1720
  449MOL0     H60550   3.266   6.724   4.811  1.6912 -0.0318 -2.0864
  449MOL0     H60551   3.183   6.578   4.851 -1.0845  0.4022 -0.9077
  449MOL0     H60552   3.284   6.459   4.665  0.1145 -0.4261 -0.6706
  449MOL0     H60553   3.399   6.509   4.789  1.6148 -0.1233 -2.2803
  449MOL0     H60554   3.459   6.708   4.658  2.0810 -2.2529  0.3221
  449MOL0     H60555   3.351   6.661   4.526  0.3515  0.3864 -0.3919
  449MOL0     H60556   3.560   6.479   4.639  0.2264  1.4860  0.4848
  449MOL0     H60557   3.468   6.453   4.494 -0.0382  3.2538 -3.6904
  449MOL0     H60558   3.685   6.677   4.528 -1.0196  1.1384 -2.8455
  449MOL0     H60559   3.707   6.520   4.455  0.6545  0.7040  0.5584
  449MOL0     H60560   3.515   6.565   4.298 -0.7915  2.0793 -1.4212
  449MOL0     H60561   3.490   6.721   4.375  0.0382  0.8072 -1.0868
  449MOL0     H60562   3.749   6.641   4.227 -0.0333 -0.0721  1.1884
  449MOL0     H60563   3.714   6.799   4.286 -0.5053 -0.8313  1.7807
  449MOL0     H60564   3.553   6.658   4.073  0.5311 -2.5588  3.1398
  449MOL0     H60565   3.537   6.830   4.124  3.6571  2.7799 -0.3713
  449MOL0     H60566   3.841   6.633   3.974  1.1943  1.1289  2.9387
  449MOL0     H60567   3.970   6.681   3.755  1.5050 -0.3749 -1.5174
  449MOL0     H60568   3.975   6.828   3.678 -2.0301 -4.9690 -3.5233
  449MOL0     H60569   4.115   6.750   3.943 -0.7673 -0.5699 -0.3616
  449MOL0     H60570   4.184   6.791   3.780  0.9455  2.0584  0.0935
  449MOL0     H60571   4.091   6.977   4.003  0.0184 -0.3989 -0.3531
  449MOL0     H60572   4.077   7.033   3.837  0.4675 -2.1874 -2.3499
  449MOL0     H60573   4.299   7.095   3.926  1.3893  0.3601 -1.5213
  449MOL0     H60574   4.312   6.981   3.794  0.0736  1.2755 -0.5540
  449MOL0     H60575   4.552   6.987   3.854 -0.6572  0.1346  0.1734
  449MOL0     H60576   4.766   7.052   3.959  0.0945 -0.9348 -0.0732
  449MOL0     H60577   5.044   7.310   4.154  0.8039 -0.9508 -3.0214
  449MOL0     H60578   5.283   7.355   4.224  1.6947 -0.1663  3.7835
  449MOL0     H60579   5.402   7.050   4.496 -0.6750 -0.0436 -0.0126
  449MOL0     H60580   5.541   6.990   4.413 -1.2283 -0.8002  2.7317
  449MOL0     H60581   5.660   7.092   4.561 -0.8926 -1.2143  0.1319
  449MOL0     H60582   5.655   7.230   4.460  0.8764  2.3521  2.6721
  449MOL0     H60583   5.468   7.160   4.693 -3.0942 -1.0580 -3.1382
  449MOL0     H60584   5.590   7.295   4.685  1.1453 -2.7555  2.5084
  449MOL0     H60585   5.309   7.265   4.546  2.1462 -2.1292 -0.0926
  449MOL0     H60586   5.426   7.383   4.496 -1.3855 -1.2814 -1.1718
  449MOL0     H60587   5.425   7.477   4.725 -1.0156  1.2130  1.8061
  449MOL0     H60588   5.332   7.352   4.787 -1.3574 -0.5329 -1.2048
  449MOL0     H60589   5.198   7.568   4.756 -0.8755  1.4653 -1.5819
  449MOL0     H60590   5.239   7.558   4.582 -0.4343  0.3884  0.5447
  449MOL0     H60591   5.077   7.340   4.731 -0.2679  0.1004  0.1613
  449MOL0     H60592   5.112   7.362   4.557 -0.6284  0.3173 -0.1937
  449MOL0     H60593   4.883   7.430   4.644 -1.9608  2.5633  0.2163
  449MOL0     H60594   4.962   7.565   4.720  1.1319 -2.2396  1.4783
  449MOL0     H60595   5.326   6.931   4.291  0.7049  1.8687 -0.0397
  449MOL0     H60596   5.099   6.899   4.219  2.6140 -0.6312 -0.0660
  449MOL0     H60597   4.625   6.917   4.341 -1.9195  1.1287  1.0954
  449MOL0     H60598   4.407   6.879   4.246  1.1426  1.1162  1.4066
  449MOL0     H60599   3.058   6.772   4.894 -0.3716  0.6979  1.5232
  449MOL0     H60600   2.899   6.971   4.908  1.6044  0.9639  0.1006
  449MOL0     H60601   2.643   7.243   4.846 -0.5800 -0.1287 -0.7658
  449MOL0     H60602   2.476   7.407   4.874  0.9289 -2.3181  0.3862
  449MOL0     H60603   2.392   7.686   4.537 -0.7037  2.1428  0.0617
  449MOL0     H60604   2.493   7.794   4.644  2.0283 -1.5174  0.8438
  449MOL0     H60605   2.266   7.871   4.590 -0.2413 -1.1320 -1.1119
  449MOL0     H60606   2.286   7.848   4.771 -3.3116  0.1783 -0.0553
  449MOL0     H60607   2.180   7.610   4.704 -3.3009 -0.6994 -0.4732
  449MOL0     H60608   2.118   7.703   4.570 -0.3499 -1.9250 -0.5379
  449MOL0     H60609   2.081   7.741   4.878 -2.2179  0.3351  1.9467
  449MOL0     H60610   2.048   7.872   4.772  0.6924 -0.1768 -2.0242
  449MOL0     H60611   1.713   7.637   4.694 -0.3123  2.1085  0.8928
  449MOL0     H60612   2.584   7.606   4.512  1.8045 -0.3750 -0.7261
  449MOL0     H60613   2.804   7.384   4.372 -0.7407 -1.7716  2.4149
  449MOL0     H60614   2.770   7.557   4.389  0.4254  0.1313 -0.2289
  449MOL0     H60615   2.904   7.486   4.488  0.6636  0.8195  0.0001
  450MOL0     O60616   8.244   1.613   8.721  0.1548 -0.3041 -0.2133
  450MOL0     C60617   8.281   1.538   8.629  0.3870 -0.1748 -0.4668
  450MOL0     O60618   8.364   1.570   8.525  0.3766 -0.6090  0.3478
  450MOL0     C60619   8.404   1.699   8.512 -0.5009 -0.4307  0.4360
  450MOL0     C60620   8.536   1.745   8.538  0.1274 -0.4073 -0.8538
  450MOL0     C60621   8.562   1.878   8.508 -0.3972 -0.0854  0.6927
  450MOL0     C60622   8.464   1.963   8.449 -0.5125  0.3703 -0.0487
  450MOL0     O60623   8.507   2.087   8.414  0.2163 -0.1962  0.3731
  450MOL0     C60624   8.403   2.184   8.401  0.3341 -0.1854 -0.8354
  450MOL0     C60625   8.471   2.321   8.421 -0.0121 -0.1113 -0.4344
  450MOL0     C60626   8.366   2.430   8.391 -0.2319 -0.8723 -1.6068
  450MOL0     C60627   8.449   2.566   8.392  0.2577  0.2463  0.1540
  450MOL0     C60628   8.351   2.680   8.396  0.0218  0.9965  0.1581
  450MOL0     C60629   8.416   2.820   8.379  0.3002  0.9626 -0.1464
  450MOL0     C60630   8.327   2.934   8.423 -0.7550 -0.2393  0.2653
  450MOL0     C60631   8.401   3.070   8.397  0.2600  0.9961  0.1042
  450MOL0     N60632   8.539   3.076   8.456 -0.1080 -0.6031 -0.1202
  450MOL0     C60633   8.588   3.033   8.578 -0.4952 -0.4381  0.6781
  450MOL0     C60634   8.718   3.085   8.583  0.4314 -0.1512 -0.1657
  450MOL0     C60635   8.817   3.065   8.693 -0.5911  0.7357  0.9747
  450MOL0     C60636   8.784   3.146   8.821  0.4549 -0.1088 -0.2337
  450MOL0     C60637   8.781   3.302   8.789 -0.1123  0.0695  1.0323
  450MOL0     C60638   8.749   3.376   8.913  0.6161 -0.3146 -0.0225
  450MOL0     O60639   8.794   3.511   8.908  0.2678 -0.1233  0.5635
  450MOL0     C60640   8.924   3.537   8.942  0.5593  0.1463  0.2361
  450MOL0     C60641   9.019   3.439   8.967 -0.5834  0.1796 -0.7927
  450MOL0     C60642   9.148   3.481   9.005  0.1344 -0.0014  0.0318
  450MOL0     C60643   9.184   3.615   9.004 -0.4253 -0.0419  0.6544
  450MOL0     C60644   9.318   3.655   9.033  0.2180 -0.6805 -0.3436
  450MOL0     O60645   9.362   3.780   9.005  1.2028 -0.8639  0.7541
  450MOL0     C60646   9.489   3.804   9.012 -0.6498  0.0162  0.4774
  450MOL0     C60647   9.568   3.764   8.916 -1.9289 -0.9036  0.1600
  450MOL0     C60648   9.703   3.787   8.925 -0.9275  0.6558 -0.0751
  450MOL0     C60649   9.755   3.869   9.032  0.3247 -0.2673 -0.3966
  450MOL0     O60650   9.890   3.903   9.027  0.3503 -0.4758 -0.0861
  450MOL0     C60651   9.954   3.974   9.133  0.1786 -0.3584  0.5502
  450MOL0     C60652  10.100   3.987   9.092 -0.0355  0.5800  0.2300
  450MOL0     C60653  10.152   4.097   9.180 -0.2112 -0.2772 -0.2411
  450MOL0     C60654  10.306   4.090   9.183 -0.6836 -0.3733 -0.6183
  450MOL0     C60655  10.373   4.190   9.276 -0.4913 -0.5469 -0.0731
  450MOL0     C60656  10.521   4.211   9.252 -0.4896 -0.5912  0.3709
  450MOL0     C60657  10.583   4.303   9.361  0.1149 -0.0082  0.0737
  450MOL0     C60658  10.716   4.366   9.319 -0.1390 -0.2354  0.2490
  450MOL0    Cl60659  10.834   4.248   9.268 -0.0585  0.0011 -0.2004
  450MOL0     C60660   9.664   3.919   9.131  0.0520 -1.5646 -0.7270
  450MOL0     C60661   9.530   3.883   9.115  0.9041  0.2851 -0.7610
  450MOL0     O60662   9.392   3.569   9.075  0.1224  0.1233 -0.2620
  450MOL0     C60663   9.089   3.717   8.958  0.1088  0.2014 -0.1201
  450MOL0     C60664   8.961   3.673   8.934  0.1111  0.1656  0.1573
  450MOL0     N60665   8.736   3.150   8.469 -0.8758  0.1228 -0.1438
  450MOL0     N60666   8.639   3.145   8.395  0.4914  0.5930 -0.4951
  450MOL0     C60667   8.339   1.908   8.416 -0.5015 -0.0881  0.4925
  450MOL0     C60668   8.310   1.778   8.451  0.3635  0.4184 -0.5290
  450MOL0     C60669   8.239   1.389   8.639  0.7841 -0.8586  0.3898
  450MOL0     C60670   8.317   1.298   8.572  0.6595  0.1339 -0.2307
  450MOL0     C60671   8.289   1.159   8.556 -0.4605  0.9247 -0.5606
  450MOL0     C60672   8.170   1.107   8.627 -0.6526  0.2374 -0.2068
  450MOL0     O60673   8.134   0.976   8.608  0.3044  0.5045 -0.7964
  450MOL0     C60674   8.083   0.938   8.482 -0.0378  0.2922 -0.6492
  450MOL0     C60675   7.954   1.005   8.448 -0.2482  0.7600 -0.4426
  450MOL0     C60676   7.837   0.967   8.552  0.3197 -1.1725  0.1177
  450MOL0     C60677   7.690   0.989   8.504 -0.8159 -0.1548  0.6996
  450MOL0     C60678   7.642   1.118   8.451 -0.2174  1.0561 -0.4436
  450MOL0     C60679   7.617   1.227   8.414  0.4941 -0.1355  0.8618
  450MOL0     C60680   8.095   1.192   8.696 -0.5340 -0.5881 -0.0014
  450MOL0     C60681   8.126   1.331   8.706 -0.2905 -0.5167  0.3948
  450MOL0     C60682   8.038   1.414   8.796  0.3778 -0.2694  0.3712
  450MOL0     H60683   8.611   1.679   8.580 -1.8799 -3.4279 -1.6416
  450MOL0     H60684   8.661   1.913   8.534  0.9195 -0.1271 -3.4593
  450MOL0     H60685   8.369   2.181   8.297 -1.8580 -0.1048 -0.1778
  450MOL0     H60686   8.311   2.162   8.457 -1.2523 -0.7247 -3.4558
  450MOL0     H60687   8.555   2.322   8.351 -0.1045  1.4559 -0.5668
  450MOL0     H60688   8.511   2.338   8.521  1.3762  0.1877 -1.0181
  450MOL0     H60689   8.278   2.424   8.455  2.6409 -0.7502  2.7478
  450MOL0     H60690   8.341   2.426   8.284 -1.5418  0.2004 -1.3682
  450MOL0     H60691   8.504   2.576   8.486 -0.2948  1.9425  0.3302
  450MOL0     H60692   8.520   2.559   8.309  1.9442  1.5527  1.4215
  450MOL0     H60693   8.265   2.667   8.329 -0.2773 -0.2502  0.7580
  450MOL0     H60694   8.307   2.680   8.496  3.2521 -2.6034  1.8352
  450MOL0     H60695   8.499   2.820   8.450  1.4216  1.2916 -1.3996
  450MOL0     H60696   8.455   2.831   8.277 -1.7148 -3.8324 -1.7367
  450MOL0     H60697   8.282   2.930   8.522 -0.8200  1.3994  0.3353
  450MOL0     H60698   8.246   2.934   8.350 -0.7598 -1.8220  0.2527
  450MOL0     H60699   8.421   3.080   8.289  1.7692 -0.0245  0.2595
  450MOL0     H60700   8.342   3.148   8.447 -3.9022 -2.6108  1.4149
  450MOL0     H60701   8.546   2.979   8.662 -0.1741 -0.9461  0.5160
  450MOL0     H60702   8.805   2.961   8.725 -0.5374  1.2268  2.7309
  450MOL0     H60703   8.917   3.073   8.650 -1.0315  1.4305  0.0421
  450MOL0     H60704   8.685   3.113   8.854 -0.2592  0.3253 -1.8503
  450MOL0     H60705   8.856   3.122   8.900  1.7430  0.6306 -1.1420
  450MOL0     H60706   8.725   3.338   8.702  1.8811  0.5075 -0.1257
  450MOL0     H60707   8.880   3.338   8.761 -1.1281  2.2855  0.0600
  450MOL0     H60708   8.785   3.323   9.001 -0.0617 -2.2275 -0.8449
  450MOL0     H60709   8.640   3.373   8.927  0.8497 -0.2351  2.0902
  450MOL0     H60710   8.992   3.334   8.969 -3.2618  0.6982 -2.9341
  450MOL0     H60711   9.221   3.402   9.022 -1.0103 -1.0823  0.0387
  450MOL0     H60712   9.527   3.704   8.836 -1.5723  0.1948 -0.8833
  450MOL0     H60713   9.775   3.736   8.862 -3.5063 -3.0058 -0.3649
  450MOL0     H60714   9.904   4.071   9.137 -2.0477 -1.3803 -0.6053
  450MOL0     H60715   9.946   3.924   9.230 -0.7041 -1.7391 -0.2013
  450MOL0     H60716  10.144   3.891   9.118 -0.9819 -1.0814 -3.6241
  450MOL0     H60717  10.105   4.002   8.984  0.5666  0.3138  0.2192
  450MOL0     H60718  10.127   4.200   9.155 -0.7347 -0.7110 -1.6002
  450MOL0     H60719  10.118   4.088   9.284  2.3932 -0.4169  0.6761
  450MOL0     H60720  10.331   4.102   9.077 -1.9478  0.1617 -0.8826
  450MOL0     H60721  10.343   3.994   9.218  1.2142  1.0839  1.6816
  450MOL0     H60722  10.365   4.151   9.378  2.5373  0.4202  0.6457
  450MOL0     H60723  10.324   4.288   9.279 -3.0938 -1.7478 -0.7261
  450MOL0     H60724  10.575   4.116   9.249  1.1891  0.2665  1.5406
  450MOL0     H60725  10.541   4.260   9.156  0.3762 -0.3657  0.6573
  450MOL0     H60726  10.607   4.236   9.445 -1.4672 -0.2537  0.3480
  450MOL0     H60727  10.504   4.368   9.399 -0.5087 -0.0594 -1.1089
  450MOL0     H60728  10.694   4.434   9.236 -1.1381  1.6176  1.9347
  450MOL0     H60729  10.760   4.424   9.400 -0.1435  2.0936 -1.2916
  450MOL0     H60730   9.694   3.972   9.221  2.5721 -2.0929 -1.1730
  450MOL0     H60731   9.460   3.914   9.192 -0.3553 -0.1739 -1.6906
  450MOL0     H60732   9.118   3.821   8.947  1.0999  0.0515  0.8450
  450MOL0     H60733   8.884   3.741   8.901 -0.6388 -1.8687 -2.6882
  450MOL0     H60734   8.262   1.972   8.375 -1.7326 -1.1380  1.1180
  450MOL0     H60735   8.214   1.732   8.429  0.9393 -0.3680 -1.4418
  450MOL0     H60736   8.407   1.334   8.523  0.9581 -0.3368 -0.0351
  450MOL0     H60737   8.362   1.086   8.522  0.3677  0.9502  1.0536
  450MOL0     H60738   8.077   0.829   8.474  1.6757 -0.2369  2.9810
  450MOL0     H60739   8.155   0.972   8.407  0.8949  2.0012  0.9083
  450MOL0     H60740   7.927   0.958   8.353  0.7134 -1.3795  0.2746
  450MOL0     H60741   7.960   1.110   8.418 -4.8055  0.3525 -3.9476
  450MOL0     H60742   7.854   1.015   8.649 -1.4105 -0.4251  0.0951
  450MOL0     H60743   7.844   0.860   8.571 -0.8848 -1.6040 -1.6007
  450MOL0     H60744   7.683   0.920   8.420  0.8705  1.1663 -0.6067
  450MOL0     H60745   7.630   0.951   8.587 -0.7824 -0.1352  0.7325
  450MOL0     H60746   7.587   1.327   8.390 -3.1853 -1.2759  0.1402
  450MOL0     H60747   8.005   1.157   8.746 -0.3553 -1.7450 -0.4790
  450MOL0     H60748   8.103   1.451   8.876  0.0117 -2.1556  1.5932
  450MOL0     H60749   7.990   1.500   8.750 -0.8744 -1.1298  0.0302
  450MOL0     H60750   7.961   1.352   8.843 -0.3066 -1.3393 -2.0095
  451MOL0     O60751   9.752   9.107   8.879 -0.8508 -0.2252 -0.3267
  451MOL0     C60752   9.691   9.006   8.842 -0.0371  0.4264 -0.4198
  451MOL0     O60753   9.751   8.897   8.793 -0.1393 -0.3137  0.2137
  451MOL0     C60754   9.889   8.893   8.790  0.2513 -0.1530 -0.7646
  451MOL0     C60755   9.954   8.794   8.854 -0.7245 -0.8197  1.4117
  451MOL0     C60756  10.091   8.771   8.827  0.1215  0.1157 -0.7798
  451MOL0     C60757  10.163   8.858   8.748  0.3981 -0.8391  0.6069
  451MOL0     O60758  10.303   8.847   8.727  0.6359  1.2058  0.8063
  451MOL0     C60759  10.377   8.793   8.843  0.7192 -0.1167 -1.0647
  451MOL0     C60760  10.531   8.796   8.808 -0.1578 -0.0433  0.3699
  451MOL0     C60761  10.571   8.942   8.781 -0.2392  0.0095  1.0291
  451MOL0     C60762  10.721   8.946   8.768 -0.5057 -0.4162 -0.0699
  451MOL0     C60763  10.772   9.098   8.748  0.4617 -0.2797  0.0671
  451MOL0     C60764  10.929   9.093   8.736  0.5265 -0.1540  0.9888
  451MOL0     C60765  10.965   9.239   8.712 -0.4678 -0.4102 -0.2109
  451MOL0     C60766  11.097   9.245   8.641  0.0695 -1.0314 -0.0922
  451MOL0     N60767  11.151   9.378   8.609  0.4971  0.0557 -0.3440
  451MOL0     C60768  11.250   9.451   8.672  0.3270  0.4661 -1.2866
  451MOL0     C60769  11.274   9.553   8.592 -0.4395 -0.0300 -0.0474
  451MOL0     C60770  11.372   9.666   8.629  0.1231 -0.3653  0.0652
  451MOL0     C60771  11.425   9.742   8.518  0.2716 -0.1002 -0.3611
  451MOL0     C60772  11.542   9.662   8.439  0.0700 -0.5536 -0.7434
  451MOL0     C60773  11.583   9.732   8.299 -0.3645  0.5805 -1.5208
  451MOL0     O60774  11.669   9.634   8.225 -0.2245 -0.4341  0.6631
  451MOL0     C60775  11.806   9.664   8.213  0.5506  0.4412 -0.4276
  451MOL0     C60776  11.874   9.784   8.233 -0.8325 -0.9849 -0.4044
  451MOL0     C60777  12.014   9.786   8.220  0.4110 -0.1456  0.0646
  451MOL0     C60778  12.082   9.663   8.201 -0.7396  0.0413 -0.0309
  451MOL0     C60779  12.239   9.664   8.219  0.0401  0.3297 -0.1761
  451MOL0     O60780  12.303   9.779   8.274  0.4789 -0.1305  0.2888
  451MOL0     C60781  12.428   9.770   8.326  0.3463  0.0930 -0.0775
  451MOL0     C60782  12.445   9.707   8.457 -0.7325  1.1532  0.4688
  451MOL0     C60783  12.570   9.694   8.507 -0.7908 -0.6743 -0.6584
  451MOL0     C60784  12.683   9.734   8.438  0.2085 -0.4709 -0.6584
  451MOL0     O60785  12.800   9.698   8.494 -0.4246 -0.1634 -0.5866
  451MOL0     C60786  12.916   9.772   8.457  0.4309 -0.0904 -1.0957
  451MOL0     C60787  13.026   9.731   8.561 -0.0500  0.1841  0.0852
  451MOL0     C60788  13.073   9.583   8.554 -0.3405 -0.9759  0.7425
  451MOL0     C60789  13.123   9.526   8.426 -0.0068  0.8583 -0.6315
  451MOL0     C60790  13.014   9.460   8.335  0.2167  1.1971 -0.1681
  451MOL0     C60791  12.958   9.337   8.403  0.7264  0.5133 -0.5958
  451MOL0     C60792  12.802   9.359   8.433  0.0678  0.0070  0.3662
  451MOL0     C60793  12.731   9.238   8.494  0.3480 -0.1804 -0.4626
  451MOL0    Cl60794  12.766   9.090   8.397  0.0262  0.4604  0.1624
  451MOL0     C60795  12.676   9.788   8.309  0.0224 -0.6837 -0.5337
  451MOL0     C60796  12.547   9.810   8.256  0.2136 -0.2604  0.2208
  451MOL0     O60797  12.293   9.557   8.192  0.7061 -1.1679  0.1200
  451MOL0     C60798  12.010   9.549   8.169  0.0057 -0.1260 -0.3138
  451MOL0     C60799  11.871   9.552   8.178  0.1894 -0.4410  0.9938
  451MOL0     N60800  11.182   9.544   8.481  0.4010 -0.7327 -0.1951
  451MOL0     N60801  11.103   9.447   8.501 -0.0064 -0.6604  0.7182
  451MOL0     C60802  10.102   8.971   8.697 -0.2317 -0.3560 -0.4731
  451MOL0     C60803   9.966   8.991   8.726  0.4292 -0.6267  0.5035
  451MOL0     C60804   9.540   9.013   8.871  0.3192 -0.6669  0.3486
  451MOL0     C60805   9.481   9.144   8.873  0.1952 -0.5105 -0.0483
  451MOL0     C60806   9.350   9.162   8.916 -0.7435 -0.0336 -0.0362
  451MOL0     C60807   9.264   9.051   8.945 -0.1636  0.2755 -0.1058
  451MOL0     O60808   9.144   9.080   8.985  0.3914 -0.3178 -0.7957
  451MOL0     C60809   9.057   8.977   9.043 -0.3711 -0.1060  0.6154
  451MOL0     C60810   8.957   9.026   9.149  0.5791  0.5442  0.0401
  451MOL0     C60811   8.830   9.068   9.073 -0.3811 -0.5709  0.1802
  451MOL0     C60812   8.723   9.118   9.167  0.0007 -0.2923  0.2633
  451MOL0     C60813   8.609   9.169   9.096  0.5137 -0.2539 -0.3904
  451MOL0     C60814   8.524   9.217   9.028 -0.3824 -0.5037 -0.0009
  451MOL0     C60815   9.321   8.920   8.930  0.2850 -0.0608  0.0131
  451MOL0     C60816   9.456   8.903   8.890  0.1406  0.6569  0.1435
  451MOL0     C60817   9.503   8.758   8.898 -0.3634 -0.4286 -0.3566
  451MOL0     H60818   9.893   8.720   8.905 -0.3724 -0.1290  2.8793
  451MOL0     H60819  10.127   8.672   8.855 -1.8334  0.1730  2.5070
  451MOL0     H60820  10.364   8.847   8.938  0.6926  0.8654 -1.6091
  451MOL0     H60821  10.355   8.687   8.855 -0.6617 -0.2524 -3.9813
  451MOL0     H60822  10.553   8.736   8.719  0.5997 -0.2249  0.6777
  451MOL0     H60823  10.592   8.761   8.891  1.9959  1.4289 -0.5025
  451MOL0     H60824  10.539   9.003   8.866 -0.8907  1.4173 -0.1625
  451MOL0     H60825  10.520   8.991   8.697 -0.6229 -0.3920  1.0266
  451MOL0     H60826  10.771   8.904   8.856  1.1866 -0.0684 -0.8297
  451MOL0     H60827  10.759   8.882   8.688  0.8910  0.2638  0.0161
  451MOL0     H60828  10.727   9.126   8.652  0.2515 -1.2583 -0.1308
  451MOL0     H60829  10.743   9.165   8.829 -0.8283 -1.0647  0.2726
  451MOL0     H60830  10.983   9.049   8.820  1.0377 -2.7149 -0.5946
  451MOL0     H60831  10.941   9.029   8.649 -1.7389  0.6397  0.0041
  451MOL0     H60832  10.984   9.290   8.807 -0.1121  0.7145 -0.8640
  451MOL0     H60833  10.884   9.291   8.659  0.0651  2.4909  1.6076
  451MOL0     H60834  11.170   9.190   8.701  0.0120  0.4374  1.3943
  451MOL0     H60835  11.073   9.202   8.544 -3.6914  0.9722 -0.2342
  451MOL0     H60836  11.307   9.427   8.762  2.1030 -0.4435 -2.5793
  451MOL0     H60837  11.324   9.723   8.709 -1.6598 -0.2959 -0.9871
  451MOL0     H60838  11.463   9.620   8.668  2.4306  3.1901 -0.6616
  451MOL0     H60839  11.350   9.769   8.444  0.0966  1.4168  0.3301
  451MOL0     H60840  11.472   9.832   8.560  0.6590  0.1063 -1.2178
  451MOL0     H60841  11.504   9.564   8.411  0.5553 -0.7604 -0.6973
  451MOL0     H60842  11.628   9.648   8.506 -0.5869 -2.4606 -0.2433
  451MOL0     H60843  11.639   9.820   8.331 -0.1975 -0.5798  1.7384
  451MOL0     H60844  11.487   9.756   8.251 -2.1414 -2.2945  0.2878
  451MOL0     H60845  11.824   9.879   8.245  2.2572  0.7649 -0.3632
  451MOL0     H60846  12.057   9.886   8.226  1.6432 -0.6765  0.3241
  451MOL0     H60847  12.358   9.679   8.515 -0.9258  0.1970 -0.2599
  451MOL0     H60848  12.571   9.670   8.613 -3.8127  0.7176 -0.1862
  451MOL0     H60849  12.949   9.745   8.356 -0.9499 -1.0373 -1.3227
  451MOL0     H60850  12.894   9.879   8.465  1.6170  0.2563 -2.1543
  451MOL0     H60851  13.111   9.795   8.536  3.0755 -3.2176  1.1072
  451MOL0     H60852  12.995   9.752   8.664 -0.2712 -0.3694  0.1312
  451MOL0     H60853  13.160   9.577   8.619  0.7208 -0.8502 -0.6158
  451MOL0     H60854  12.995   9.522   8.601 -1.1552 -0.1770  0.4763
  451MOL0     H60855  13.200   9.452   8.449 -0.4556  0.4804 -0.3225
  451MOL0     H60856  13.168   9.602   8.362 -0.5489  1.7082 -0.0198
  451MOL0     H60857  13.061   9.422   8.244  0.3677  0.1100  0.3560
  451MOL0     H60858  12.935   9.528   8.301  0.1149 -0.0638 -2.6504
  451MOL0     H60859  12.962   9.258   8.328 -2.9033 -1.1761  0.7451
  451MOL0     H60860  13.018   9.308   8.490  0.0391  1.5761  0.2636
  451MOL0     H60861  12.754   9.387   8.339  2.2522 -0.4828 -0.9680
  451MOL0     H60862  12.793   9.447   8.497 -0.4386  0.0133  0.2924
  451MOL0     H60863  12.760   9.235   8.599  1.1108 -0.6265 -0.6784
  451MOL0     H60864  12.622   9.240   8.490  0.3361 -1.3677 -3.5010
  451MOL0     H60865  12.760   9.826   8.252  0.0595  1.0031  0.5868
  451MOL0     H60866  12.538   9.853   8.157  0.7216  0.3658  0.4422
  451MOL0     H60867  12.044   9.450   8.141 -2.0669 -0.9806 -0.0341
  451MOL0     H60868  11.819   9.458   8.160  1.0536 -0.3620 -2.5324
  451MOL0     H60869  10.169   9.038   8.645  1.4538 -1.9440 -0.4559
  451MOL0     H60870   9.923   9.085   8.693 -0.0221 -1.3213 -0.9905
  451MOL0     H60871   9.540   9.231   8.848 -4.0497  2.4607 -0.9021
  451MOL0     H60872   9.311   9.263   8.909  0.8959  0.5914 -0.7521
  451MOL0     H60873   9.121   8.899   9.085 -0.3305 -1.1873 -1.3276
  451MOL0     H60874   9.007   8.922   8.963  0.2284  2.5318 -1.7089
  451MOL0     H60875   9.002   9.107   9.207 -0.4222  0.5507  0.8413
  451MOL0     H60876   8.931   8.957   9.230  0.1435 -0.3105 -0.8053
  451MOL0     H60877   8.798   8.990   9.003 -2.0472  0.6375 -0.4711
  451MOL0     H60878   8.859   9.152   9.009 -2.8834  0.6249  0.4943
  451MOL0     H60879   8.680   9.038   9.230 -0.6720  0.1281  0.3521
  451MOL0     H60880   8.767   9.187   9.239  0.7545  0.0187 -0.4863
  451MOL0     H60881   8.456   9.269   8.963  0.3427  1.1593  0.5149
  451MOL0     H60882   9.251   8.837   8.941 -0.6218  0.5127 -1.0999
  451MOL0     H60883   9.565   8.732   8.811 -1.8201  0.3023 -1.6782
  451MOL0     H60884   9.569   8.748   8.985 -0.1517 -3.4341 -0.7661
  451MOL0     H60885   9.415   8.694   8.907 -1.2656  0.8060 -0.0954
  452MOL0     O60886   8.729   7.311   6.770 -0.5430 -0.2070 -0.2293
  452MOL0     C60887   8.659   7.383   6.701  0.3272 -0.1039  0.1317
  452MOL0     O60888   8.707   7.480   6.613 -0.1142  0.1827 -0.2300
  452MOL0     C60889   8.800   7.565   6.659  0.5464 -0.4334  0.5522
  452MOL0     C60890   8.792   7.619   6.786 -0.1646  0.2122  0.5732
  452MOL0     C60891   8.889   7.711   6.838 -0.8087  0.0261 -0.6200
  452MOL0     C60892   9.006   7.736   6.763 -0.2730 -0.6284 -0.5158
  452MOL0     O60893   9.114   7.797   6.818 -0.8253  0.0554 -0.1242
  452MOL0     C60894   9.137   7.765   6.956  0.5261  0.4161  0.2312
  452MOL0     C60895   9.280   7.785   6.984 -0.5505  0.2313  0.2081
  452MOL0     C60896   9.384   7.691   6.918  0.3517 -0.7582 -0.0657
  452MOL0     C60897   9.522   7.709   6.979 -0.5030  0.4017 -0.1846
  452MOL0     C60898   9.626   7.599   6.953  0.3695  0.3542 -0.4497
  452MOL0     C60899   9.644   7.592   6.804  0.7650  0.2318  0.2664
  452MOL0     C60900   9.762   7.505   6.770 -0.4717 -0.7001  0.0978
  452MOL0     C60901   9.892   7.585   6.788  0.8497  0.3400 -1.3383
  452MOL0     N60902  10.010   7.511   6.741  0.2427  0.6634  0.6147
  452MOL0     C60903  10.048   7.514   6.611 -0.5408  0.5376  0.3946
  452MOL0     C60904  10.136   7.402   6.601  0.4515 -1.5590 -0.2327
  452MOL0     C60905  10.200   7.349   6.478 -0.0467 -0.3788  0.3029
  452MOL0     C60906  10.356   7.337   6.497  0.2471 -0.1993  0.3065
  452MOL0     C60907  10.405   7.223   6.583 -0.8222 -0.6757 -0.0483
  452MOL0     C60908  10.558   7.245   6.611 -0.6958  1.1573  0.1836
  452MOL0     O60909  10.602   7.158   6.719  0.3626 -0.9112 -0.2490
  452MOL0     C60910  10.737   7.135   6.746 -0.2013  0.4042  0.4726
  452MOL0     C60911  10.759   7.060   6.859 -0.3672  0.7409 -0.8330
  452MOL0     C60912  10.886   7.034   6.912  0.3355 -0.0714 -0.3660
  452MOL0     C60913  10.998   7.094   6.856 -0.4116 -0.1252 -0.9014
  452MOL0     C60914  11.131   7.069   6.911  0.0884  0.2090 -1.5223
  452MOL0     O60915  11.230   7.112   6.838  0.4659  0.5524  1.2817
  452MOL0     C60916  11.362   7.095   6.872 -0.1599  0.5257  0.3791
  452MOL0     C60917  11.416   7.133   6.992 -0.3502 -0.1370  0.2991
  452MOL0     C60918  11.548   7.108   7.029  0.4099  0.2330 -0.8280
  452MOL0     C60919  11.641   7.051   6.939 -0.4607  0.5570  1.3546
  452MOL0     O60920  11.775   7.045   6.976  0.1558 -0.1046 -0.3214
  452MOL0     C60921  11.862   6.970   6.895 -0.0996  0.5760  0.1118
  452MOL0     C60922  12.012   6.995   6.928  0.2865  0.9660  0.0038
  452MOL0     C60923  12.079   6.926   7.053  0.4590  0.6946  0.4852
  452MOL0     C60924  12.214   6.979   7.073 -0.2329 -1.1082  0.7268
  452MOL0     C60925  12.262   6.940   7.212  0.7529  0.5613 -0.5438
  452MOL0     C60926  12.376   7.022   7.275  0.0289 -0.8948  0.5898
  452MOL0     C60927  12.415   6.971   7.409 -0.4220 -0.0515 -0.0983
  452MOL0     C60928  12.515   6.851   7.408 -0.9840 -0.5009 -0.9433
  452MOL0    Cl60929  12.678   6.901   7.338  0.1225 -0.3041 -0.1473
  452MOL0     C60930  11.584   7.016   6.815 -0.5126 -0.2334 -0.6101
  452MOL0     C60931  11.450   7.029   6.782  0.8433 -0.8204  0.2453
  452MOL0     O60932  11.143   7.009   7.021 -0.3202  0.2199  0.4224
  452MOL0     C60933  10.974   7.177   6.750 -1.0440 -0.7279 -0.1059
  452MOL0     C60934  10.852   7.203   6.691 -0.0558 -0.2334  0.2450
  452MOL0     N60935  10.138   7.332   6.720 -0.0316 -0.0388 -0.4971
  452MOL0     N60936  10.060   7.400   6.804 -0.1511  0.7574 -0.1577
  452MOL0     C60937   9.006   7.681   6.636  0.0002 -0.0164  1.2947
  452MOL0     C60938   8.910   7.593   6.579 -0.7095 -0.7950 -0.3224
  452MOL0     C60939   8.512   7.348   6.702 -0.5532 -0.3375  0.4152
  452MOL0     C60940   8.469   7.222   6.754 -0.2892 -0.5735 -1.4714
  452MOL0     C60941   8.334   7.181   6.756 -0.4035  0.0865 -0.6341
  452MOL0     C60942   8.232   7.263   6.711  0.1778  0.5994  0.0748
  452MOL0     O60943   8.096   7.249   6.710  0.4796  0.3347  0.2656
  452MOL0     C60944   8.040   7.141   6.780 -0.7704 -0.1632 -0.0315
  452MOL0     C60945   7.884   7.160   6.796 -0.7344  0.3845  0.3802
  452MOL0     C60946   7.823   7.037   6.870  0.5810  0.2253  0.3904
  452MOL0     C60947   7.664   7.034   6.885  0.0613 -0.5059 -0.4262
  452MOL0     C60948   7.604   7.023   6.750 -0.0375  0.3620 -0.1032
  452MOL0     C60949   7.563   7.021   6.637 -0.3947 -0.2983  0.2187
  452MOL0     C60950   8.271   7.390   6.661 -0.4117  0.1332 -0.3017
  452MOL0     C60951   8.406   7.437   6.659  0.5666  0.4113  0.3546
  452MOL0     C60952   8.424   7.578   6.602 -0.6429  0.8586 -0.6108
  452MOL0     H60953   8.698   7.612   6.840 -0.4562  3.5468  0.7122
  452MOL0     H60954   8.864   7.757   6.933 -3.7531  0.7791 -1.6494
  452MOL0     H60955   9.077   7.822   7.027  2.5417  0.5032  1.9887
  452MOL0     H60956   9.120   7.660   6.983 -0.0521  1.1122  2.8527
  452MOL0     H60957   9.289   7.763   7.091 -0.4873 -2.5013 -0.2975
  452MOL0     H60958   9.298   7.888   6.952  0.4522 -0.2105 -0.7094
  452MOL0     H60959   9.389   7.694   6.808  0.6009  0.7915 -0.0295
  452MOL0     H60960   9.355   7.591   6.952 -0.7766  0.7151  3.7450
  452MOL0     H60961   9.569   7.802   6.945  1.3882  0.0635  1.3167
  452MOL0     H60962   9.527   7.712   7.088 -1.2895 -1.4277 -0.0761
  452MOL0     H60963   9.725   7.629   6.989  2.0169 -1.5108 -3.1135
  452MOL0     H60964   9.593   7.506   7.000  2.0389 -1.2902 -2.3466
  452MOL0     H60965   9.555   7.552   6.754  0.7636  0.1180  0.3610
  452MOL0     H60966   9.645   7.691   6.756 -0.3681  0.2209  0.1948
  452MOL0     H60967   9.744   7.468   6.668 -0.3918  0.2317 -0.2672
  452MOL0     H60968   9.763   7.415   6.832  1.4233 -0.6758  0.1550
  452MOL0     H60969   9.875   7.686   6.750 -1.4898  0.1311 -1.0094
  452MOL0     H60970   9.914   7.592   6.895 -1.3384 -1.8476 -0.6606
  452MOL0     H60971  10.024   7.587   6.534 -0.7339 -0.4238 -0.4839
  452MOL0     H60972  10.168   7.250   6.443  1.1141 -0.5088 -0.4622
  452MOL0     H60973  10.172   7.420   6.400  1.6874 -0.7500 -0.7307
  452MOL0     H60974  10.401   7.322   6.398  0.2447 -4.1744  0.7760
  452MOL0     H60975  10.389   7.430   6.545 -0.0348 -0.2208  0.5398
  452MOL0     H60976  10.387   7.125   6.538  0.5836 -0.2660 -1.6109
  452MOL0     H60977  10.349   7.225   6.677  0.2006  1.5746  0.5821
  452MOL0     H60978  10.596   7.346   6.630  1.3970  1.1558 -3.1067
  452MOL0     H60979  10.607   7.204   6.522  0.3340 -0.6027  1.5028
  452MOL0     H60980  10.670   7.015   6.900 -1.1053  0.9723 -2.1202
  452MOL0     H60981  10.894   6.985   7.008  0.2606 -0.3759 -0.5127
  452MOL0     H60982  11.345   7.179   7.059 -1.6651 -2.5753  0.6844
  452MOL0     H60983  11.588   7.148   7.122  0.4856  1.6796 -1.4470
  452MOL0     H60984  11.844   6.862   6.906  1.8414  0.3318  1.5479
  452MOL0     H60985  11.861   6.996   6.789  0.5486 -2.5434 -0.7729
  452MOL0     H60986  12.063   6.955   6.840  0.5073  1.8862 -0.3018
  452MOL0     H60987  12.048   7.098   6.925  1.4951  0.5235 -1.5007
  452MOL0     H60988  12.019   6.946   7.142  0.1823  0.8643  0.2592
  452MOL0     H60989  12.077   6.817   7.042 -1.2331  0.5701  1.7441
  452MOL0     H60990  12.214   7.088   7.066 -1.6091 -1.0186  1.6421
  452MOL0     H60991  12.282   6.936   6.999  1.2322  0.0215  1.3703
  452MOL0     H60992  12.281   6.834   7.232 -0.8862  0.4258  0.4793
  452MOL0     H60993  12.172   6.950   7.272 -0.1598 -2.9203 -1.1324
  452MOL0     H60994  12.469   7.011   7.218  0.3721 -1.1079  1.1784
  452MOL0     H60995  12.331   7.121   7.284 -0.1483 -0.9752  0.5861
  452MOL0     H60996  12.323   6.936   7.457 -1.2373  1.1468 -0.7322
  452MOL0     H60997  12.450   7.050   7.476 -2.3359 -0.7219  1.8204
  452MOL0     H60998  12.531   6.811   7.508  1.1409 -1.9001 -1.7697
  452MOL0     H60999  12.475   6.766   7.353 -0.2890  0.6220 -3.3601
  452MOL0     H61000  11.649   6.976   6.738  1.3370  0.6266  0.4385
  452MOL0     H61001  11.405   6.990   6.691 -2.4304  1.6272  0.6595
  452MOL0     H61002  11.049   7.230   6.693 -2.2490 -0.8435 -1.9057
  452MOL0     H61003  10.851   7.272   6.607 -0.4885 -0.7944 -0.2242
  452MOL0     H61004   9.097   7.706   6.583 -0.7307 -0.2288 -0.1147
  452MOL0     H61005   8.934   7.552   6.481 -1.5183 -3.2440  0.4585
  452MOL0     H61006   8.540   7.149   6.790 -3.1342 -2.6731  0.3559
  452MOL0     H61007   8.321   7.078   6.788  0.8308  0.2161  0.3712
  452MOL0     H61008   8.099   7.128   6.871 -0.9985  0.7404  0.2526
  452MOL0     H61009   8.055   7.044   6.733 -2.7990 -1.2658  1.4142
  452MOL0     H61010   7.837   7.179   6.699 -0.5190 -0.0177  0.1983
  452MOL0     H61011   7.865   7.255   6.848 -2.3327 -0.5901  1.6602
  452MOL0     H61012   7.872   7.028   6.967 -0.5038  2.3267  1.2062
  452MOL0     H61013   7.859   6.950   6.814  0.9168  0.7616 -0.2538
  452MOL0     H61014   7.640   6.959   6.960 -0.6411  1.3882  1.3336
  452MOL0     H61015   7.629   7.124   6.936 -1.0165 -0.4014 -1.3095
  452MOL0     H61016   7.556   7.027   6.530  1.4865  0.4629  0.0911
  452MOL0     H61017   8.187   7.446   6.623 -0.8242 -0.3557 -0.1268
  452MOL0     H61018   8.501   7.570   6.525  0.1534  0.2273  0.2274
  452MOL0     H61019   8.339   7.628   6.555 -1.8971  1.4864  2.1399
  452MOL0     H61020   8.463   7.641   6.682  0.8807 -1.1771  0.3214
  453MOL0     O61021   1.123   0.917   7.532 -0.6776 -0.1209  0.2922
  453MOL0     C61022   1.103   0.976   7.635  0.5273 -0.9876 -0.5368
  453MOL0     O61023   1.200   1.006   7.724 -0.3495  0.0725 -0.0608
  453MOL0     C61024   1.323   0.944   7.721  0.8341 -0.6335 -0.7728
  453MOL0     C61025   1.342   0.829   7.797  0.0251 -0.0394 -0.6423
  453MOL0     C61026   1.468   0.771   7.801 -0.4256 -0.5966 -0.1768
  453MOL0     C61027   1.569   0.815   7.721 -0.6729 -0.2614 -0.1151
  453MOL0     O61028   1.689   0.752   7.728  0.1198 -1.0584 -0.3448
  453MOL0     C61029   1.799   0.839   7.685  0.0836  0.0544  0.0652
  453MOL0     C61030   1.931   0.777   7.720 -0.9159 -0.7015 -0.4456
  453MOL0     C61031   2.048   0.837   7.635 -0.4261 -0.4446 -1.1302
  453MOL0     C61032   2.191   0.812   7.703  0.0188  0.9895  0.2863
  453MOL0     C61033   2.306   0.836   7.605 -0.2168 -0.8136  0.6727
  453MOL0     C61034   2.420   0.737   7.638 -0.5784 -0.4651  0.9086
  453MOL0     C61035   2.546   0.769   7.562 -0.9153  0.0181 -0.9617
  453MOL0     C61036   2.656   0.666   7.586 -0.4372  0.4528  0.2580
  453MOL0     N61037   2.756   0.683   7.489  0.2605 -0.5573  1.1342
  453MOL0     C61038   2.800   0.808   7.445  0.0065  0.4826 -0.4002
  453MOL0     C61039   2.906   0.785   7.364 -0.4451 -0.0016  0.5923
  453MOL0     C61040   2.977   0.884   7.280 -0.7954  0.2166 -0.3563
  453MOL0     C61041   3.111   0.921   7.335  0.6075 -0.2029  0.4575
  453MOL0     C61042   3.194   1.010   7.242  0.1616  0.6699 -0.3713
  453MOL0     C61043   3.331   1.034   7.293  0.4878 -0.0845 -0.9249
  453MOL0     O61044   3.336   1.141   7.393 -0.0000  0.0360  0.1658
  453MOL0     C61045   3.458   1.170   7.446 -0.2460 -0.1460  0.5021
  453MOL0     C61046   3.577   1.115   7.405 -1.0223  0.3837  0.0486
  453MOL0     C61047   3.700   1.140   7.463  0.0078  0.0916 -0.4688
  453MOL0     C61048   3.704   1.227   7.570  0.9202 -0.4376 -0.4633
  453MOL0     C61049   3.829   1.267   7.632 -0.1742 -0.5795  0.1257
  453MOL0     O61050   3.825   1.386   7.706  0.0391  0.2170 -0.6302
  453MOL0     C61051   3.942   1.438   7.749 -0.2710  0.1773  0.1275
  453MOL0     C61052   4.031   1.377   7.838 -0.3792 -0.9158 -0.2672
  453MOL0     C61053   4.149   1.446   7.865 -0.5232 -0.2680  0.0158
  453MOL0     C61054   4.192   1.563   7.801  0.1999  0.5965 -0.5305
  453MOL0     O61055   4.314   1.630   7.826  0.5248 -0.2052 -0.4365
  453MOL0     C61056   4.394   1.596   7.936  0.2910  0.3224 -0.2463
  453MOL0     C61057   4.483   1.713   7.967 -1.0175 -0.3844  0.3470
  453MOL0     C61058   4.577   1.742   7.857  0.6210 -0.7972 -0.2956
  453MOL0     C61059   4.652   1.872   7.870  0.0702 -0.3206  1.3667
  453MOL0     C61060   4.753   1.881   7.991  0.9897  0.6164  0.3602
  453MOL0     C61061   4.862   1.990   7.982  0.8620  0.2887 -0.2757
  453MOL0     C61062   4.920   2.031   8.117 -0.2823 -0.2751 -0.1708
  453MOL0     C61063   4.998   1.919   8.183  0.0331  0.1819  0.5982
  453MOL0    Cl61064   5.129   1.871   8.082  0.2294 -0.4620  0.1134
  453MOL0     C61065   4.100   1.617   7.721  1.0406 -0.2143  0.5294
  453MOL0     C61066   3.976   1.563   7.690 -0.7553 -0.3530 -0.3350
  453MOL0     O61067   3.927   1.197   7.628 -0.2473 -0.1212 -0.2448
  453MOL0     C61068   3.580   1.289   7.613 -0.3616 -0.3134  0.7382
  453MOL0     C61069   3.457   1.257   7.550 -0.1874  0.3571 -0.2796
  453MOL0     N61070   2.913   0.647   7.352 -0.3172  0.3825  0.2020
  453MOL0     N61071   2.816   0.590   7.410  0.2754  0.0083 -0.2179
  453MOL0     C61072   1.548   0.939   7.652  0.7855 -0.1647  0.3755
  453MOL0     C61073   1.422   0.998   7.647 -0.2699 -0.2748  1.2344
  453MOL0     C61074   0.982   1.058   7.649  0.2812 -0.6330  0.1525
  453MOL0     C61075   0.997   1.195   7.678  0.1882 -0.3384 -0.0899
  453MOL0     C61076   0.884   1.280   7.691 -1.0795 -0.0818 -0.4753
  453MOL0     C61077   0.762   1.224   7.662 -1.1958  0.6400  0.4267
  453MOL0     O61078   0.661   1.320   7.657 -0.5225 -0.2432 -0.8102
  453MOL0     C61079   0.527   1.281   7.632 -0.7387 -0.0234  0.0372
  453MOL0     C61080   0.431   1.392   7.643  0.2812 -0.9711 -0.2929
  453MOL0     C61081   0.410   1.436   7.790  0.0537  0.7863  0.4090
  453MOL0     C61082   0.318   1.566   7.801 -0.4302  0.7649  0.4730
  453MOL0     C61083   0.326   1.641   7.927 -0.7065  0.4672 -0.0009
  453MOL0     C61084   0.326   1.703   8.031 -0.0212 -0.3176 -0.5717
  453MOL0     C61085   0.743   1.092   7.638  0.1875  0.4702  0.0649
  453MOL0     C61086   0.855   1.004   7.631  0.1337  0.0167 -0.2649
  453MOL0     C61087   0.827   0.858   7.608  0.0482  0.3338 -0.4625
  453MOL0     H61088   1.256   0.792   7.851  0.3735 -0.3813 -0.3174
  453MOL0     H61089   1.480   0.674   7.847  1.7931 -0.9847 -1.4269
  453MOL0     H61090   1.787   0.842   7.577 -2.9987 -1.8610  0.2415
  453MOL0     H61091   1.786   0.935   7.735 -1.0656 -1.8921  3.9074
  453MOL0     H61092   1.919   0.670   7.701  0.8691 -0.7144 -1.7913
  453MOL0     H61093   1.953   0.797   7.825 -4.8829  1.2156  0.2278
  453MOL0     H61094   2.032   0.945   7.633  0.0183 -0.3169  0.7226
  453MOL0     H61095   2.054   0.794   7.535  0.6806 -0.2911 -1.1368
  453MOL0     H61096   2.219   0.885   7.779  1.8789  1.6762 -0.9748
  453MOL0     H61097   2.203   0.714   7.750 -1.2041 -0.2063 -1.7328
  453MOL0     H61098   2.284   0.820   7.499  1.7437 -0.9019  0.2490
  453MOL0     H61099   2.349   0.935   7.621  1.9898 -1.3144 -1.5620
  453MOL0     H61100   2.453   0.752   7.742  1.6474  1.7213 -0.0102
  453MOL0     H61101   2.396   0.633   7.615 -0.1689 -0.5657  0.9187
  453MOL0     H61102   2.580   0.873   7.573  0.8019 -0.5994  0.0278
  453MOL0     H61103   2.519   0.746   7.458  0.8509 -2.8334 -0.8924
  453MOL0     H61104   2.704   0.662   7.684 -0.1774 -2.3432  0.0960
  453MOL0     H61105   2.619   0.564   7.571 -0.1099  0.3089  0.4102
  453MOL0     H61106   2.757   0.902   7.478  1.3746  1.4032 -1.1449
  453MOL0     H61107   2.984   0.850   7.177 -4.1703 -0.1538 -0.5702
  453MOL0     H61108   2.914   0.972   7.294 -0.0401  0.6393  0.5337
  453MOL0     H61109   3.107   0.985   7.423 -1.3607  0.3886 -0.0099
  453MOL0     H61110   3.150   0.822   7.362 -2.5991 -1.0393  2.5031
  453MOL0     H61111   3.138   1.103   7.229 -0.3220  0.2036 -1.8071
  453MOL0     H61112   3.205   0.962   7.144  2.1334  0.2924  0.0071
  453MOL0     H61113   3.408   1.045   7.216  0.4459  0.2874 -0.9174
  453MOL0     H61114   3.361   0.936   7.330  0.0279 -0.9279 -2.6632
  453MOL0     H61115   3.586   1.042   7.325  2.1772 -0.8366  1.3452
  453MOL0     H61116   3.793   1.110   7.416 -0.3491  0.1157 -1.1946
  453MOL0     H61117   4.003   1.283   7.884 -1.7264 -1.8534 -2.8036
  453MOL0     H61118   4.221   1.407   7.936  0.5462  0.9205 -0.3891
  453MOL0     H61119   4.338   1.570   8.026  0.3752  3.1048  0.7029
  453MOL0     H61120   4.455   1.508   7.914  0.6959  0.3988  0.5349
  453MOL0     H61121   4.422   1.801   7.990  0.0300  0.1402  1.2300
  453MOL0     H61122   4.548   1.699   8.054  0.0417  3.1803  0.2957
  453MOL0     H61123   4.645   1.659   7.837  1.8937  0.2527 -0.4722
  453MOL0     H61124   4.521   1.759   7.765  1.0421 -0.0683 -0.4294
  453MOL0     H61125   4.582   1.956   7.878  1.7457  1.1460  1.3739
  453MOL0     H61126   4.710   1.887   7.779  0.0275 -0.4241  1.3236
  453MOL0     H61127   4.808   1.787   8.002 -0.0776 -0.0076  0.4757
  453MOL0     H61128   4.700   1.897   8.086 -0.6313 -2.6593  0.1447
  453MOL0     H61129   4.939   1.959   7.911  1.2552 -0.9152  0.6345
  453MOL0     H61130   4.808   2.075   7.939 -0.8004  0.0307  1.2016
  453MOL0     H61131   4.849   2.060   8.195  2.1051  0.6211  1.8254
  453MOL0     H61132   4.983   2.119   8.100  0.4863 -0.8808 -0.5568
  453MOL0     H61133   5.045   1.960   8.273  0.0456 -0.2661  0.7952
  453MOL0     H61134   4.929   1.837   8.206  1.9615 -1.2863  1.4129
  453MOL0     H61135   4.142   1.699   7.664  1.7017 -1.6998 -1.1826
  453MOL0     H61136   3.924   1.605   7.604  1.2716 -0.8973 -1.9039
  453MOL0     H61137   3.586   1.367   7.689 -0.3386 -0.3164  0.7398
  453MOL0     H61138   3.365   1.302   7.585 -0.8596 -1.7400  0.7843
  453MOL0     H61139   1.626   0.983   7.591  0.4586  1.1713  0.8705
  453MOL0     H61140   1.400   1.090   7.594 -2.1514 -0.8581  0.9060
  453MOL0     H61141   1.092   1.245   7.690 -0.8678  1.7957 -0.1951
  453MOL0     H61142   0.894   1.388   7.694 -0.1295 -0.1732  1.5622
  453MOL0     H61143   0.504   1.207   7.709 -1.3392  2.0195  1.9439
  453MOL0     H61144   0.506   1.233   7.536 -2.3857  0.5288  0.0867
  453MOL0     H61145   0.335   1.345   7.621  0.0520 -1.6891  1.9586
  453MOL0     H61146   0.458   1.474   7.575 -0.1734 -1.1450 -0.6827
  453MOL0     H61147   0.505   1.455   7.841 -1.1236  1.2326  2.5783
  453MOL0     H61148   0.350   1.359   7.839 -4.8519  1.6808 -3.3943
  453MOL0     H61149   0.340   1.626   7.713  0.3785  1.8763  1.3922
  453MOL0     H61150   0.210   1.549   7.801 -0.9030  2.9645  3.1189
  453MOL0     H61151   0.336   1.769   8.115 -1.2767  2.2768 -2.3371
  453MOL0     H61152   0.644   1.056   7.614 -0.0761  2.6016 -2.4836
  453MOL0     H61153   0.908   0.800   7.653 -0.0732  1.7363  1.7183
  453MOL0     H61154   0.732   0.833   7.657 -0.7674  0.4229 -1.9334
  453MOL0     H61155   0.825   0.823   7.505 -0.2655 -0.1861 -0.2851
  454MOL0     O61156   9.077  10.429   7.763  0.8350 -0.2322 -0.5876
  454MOL0     C61157   9.026  10.405   7.653  0.3679  0.0625  0.7430
  454MOL0     O61158   9.089  10.402   7.528 -0.1909  0.3833 -0.3321
  454MOL0     C61159   9.213  10.466   7.529 -0.3371  0.6675  0.6708
  454MOL0     C61160   9.333  10.397   7.494 -0.6176  0.5412 -0.5751
  454MOL0     C61161   9.456  10.466   7.493  0.1391  0.0616 -0.5538
  454MOL0     C61162   9.461  10.601   7.528  0.1171  0.6030 -0.1728
  454MOL0     O61163   9.580  10.669   7.533 -0.3027  0.1677  0.5975
  454MOL0     C61164   9.662  10.660   7.414 -1.0035 -0.2691  0.3627
  454MOL0     C61165   9.807  10.684   7.442  0.2702 -0.5789  0.3620
  454MOL0     C61166   9.879  10.550   7.467  0.5519  0.1286 -0.3902
  454MOL0     C61167  10.025  10.585   7.501  0.2507  0.1440 -0.2288
  454MOL0     C61168  10.104  10.454   7.533 -0.0053  0.0875  0.9003
  454MOL0     C61169  10.260  10.461   7.502  0.6422 -0.8223  0.9699
  454MOL0     C61170  10.310  10.318   7.501 -0.5742  0.0187 -0.6275
  454MOL0     C61171  10.469  10.301   7.500  0.6888 -0.3959  0.4438
  454MOL0     N61172  10.528  10.395   7.604 -0.6124 -0.1513  0.5773
  454MOL0     C61173  10.524  10.374   7.740  0.2063 -0.7321  0.1018
  454MOL0     C61174  10.597  10.471   7.803 -0.5089 -0.1190  0.0180
  454MOL0     C61175  10.613  10.499   7.947  0.3642  0.4483 -0.2887
  454MOL0     C61176  10.743  10.434   8.000  0.0365 -0.7337  0.4425
  454MOL0     C61177  10.872  10.477   7.931 -0.1187  0.4451  0.2620
  454MOL0     C61178  10.889  10.632   7.969 -0.2434  0.4085  0.0339
  454MOL0     O61179  11.023  10.675   7.944 -0.1653  0.0961  0.3229
  454MOL0     C61180  11.063  10.707   7.815  0.1270  0.5688  0.7339
  454MOL0     C61181  11.198  10.733   7.796  0.2595  0.7091  0.2929
  454MOL0     C61182  11.243  10.784   7.681  1.0898 -0.3021  0.3992
  454MOL0     C61183  11.153  10.809   7.564 -0.1907  0.5095  0.1064
  454MOL0     C61184  11.208  10.872   7.437 -0.2335  0.9794  0.3869
  454MOL0     O61185  11.120  10.892   7.337  0.3682 -0.4412  0.0765
  454MOL0     C61186  11.162  10.967   7.231 -0.7341  0.0305  0.4356
  454MOL0     C61187  11.235  10.916   7.124 -0.6422 -0.3067 -0.0594
  454MOL0     C61188  11.257  10.982   7.003  0.0144  0.5508 -0.3288
  454MOL0     C61189  11.187  11.106   6.981 -0.6317 -0.4435 -0.2763
  454MOL0     O61190  11.192  11.162   6.859  0.1806 -0.6064 -0.0682
  454MOL0     C61191  11.169  11.305   6.856 -0.1957  0.5126  0.2865
  454MOL0     C61192  11.177  11.367   6.718 -0.3238  0.7901  0.3387
  454MOL0     C61193  11.061  11.326   6.624  0.3533 -0.4841  0.0998
  454MOL0     C61194  11.102  11.355   6.473  0.5204 -0.1083  0.4884
  454MOL0     C61195  10.981  11.363   6.379  0.3555 -0.4509  0.4147
  454MOL0     C61196  11.025  11.433   6.249 -0.3744  0.7773 -0.7382
  454MOL0     C61197  10.912  11.461   6.156 -0.6719 -0.0293 -0.6070
  454MOL0     C61198  10.957  11.512   6.028  0.0186 -0.0829  1.0683
  454MOL0    Cl61199  11.061  11.659   6.041 -0.0989  0.2966 -0.1977
  454MOL0     C61200  11.132  11.171   7.099 -0.1008 -0.2983 -0.7447
  454MOL0     C61201  11.121  11.094   7.218 -0.0308 -0.4250 -0.3693
  454MOL0     O61202  11.324  10.906   7.438  0.2437 -0.1326 -0.1159
  454MOL0     C61203  11.020  10.763   7.582 -0.7403  0.1176  0.6659
  454MOL0     C61204  10.976  10.720   7.702  0.2133 -0.1811 -0.1220
  454MOL0     N61205  10.659  10.534   7.694  0.3655 -0.4393 -0.3794
  454MOL0     N61206  10.614  10.495   7.580  0.4579 -0.6513 -0.0447
  454MOL0     C61207   9.354  10.673   7.554 -0.3408  0.3366  1.4664
  454MOL0     C61208   9.224  10.604   7.552 -0.0245  0.2425  0.2465
  454MOL0     C61209   8.896  10.324   7.656 -0.1234  0.0182  0.0268
  454MOL0     C61210   8.853  10.279   7.782  0.2958 -0.4785 -0.6033
  454MOL0     C61211   8.728  10.217   7.801  0.1576 -0.4456 -0.2074
  454MOL0     C61212   8.641  10.217   7.689  0.5325 -0.7098  0.2206
  454MOL0     O61213   8.522  10.151   7.712  0.3241  0.3687  0.6832
  454MOL0     C61214   8.416  10.157   7.620  0.2806  0.0968  0.3628
  454MOL0     C61215   8.287  10.168   7.693 -0.1414 -0.0178  0.2656
  454MOL0     C61216   8.257  10.314   7.748 -0.1104 -0.1267  0.5080
  454MOL0     C61217   8.110  10.319   7.782  0.5742 -0.1657  0.2115
  454MOL0     C61218   8.050  10.233   7.886 -0.6940  0.8628  0.3207
  454MOL0     C61219   8.020  10.144   7.966  0.5013  0.9123 -0.6578
  454MOL0     C61220   8.682  10.252   7.564 -0.3714 -0.2141  0.5700
  454MOL0     C61221   8.807  10.317   7.545 -0.2753 -0.2695  0.0119
  454MOL0     C61222   8.823  10.390   7.413 -0.0552  0.2602  0.7131
  454MOL0     H61223   9.321  10.298   7.453 -1.2939 -0.6196  2.2048
  454MOL0     H61224   9.547  10.418   7.458  1.1090  1.1364  0.3856
  454MOL0     H61225   9.643  10.573   7.351 -2.8487  0.8637 -0.7336
  454MOL0     H61226   9.635  10.748   7.356  2.2569  0.2580 -0.5792
  454MOL0     H61227   9.818  10.753   7.527 -0.2888  0.5457 -0.4588
  454MOL0     H61228   9.843  10.735   7.353 -2.4067 -0.0003 -0.4924
  454MOL0     H61229   9.873  10.487   7.378  0.5374  1.2405 -1.1930
  454MOL0     H61230   9.826  10.505   7.552  0.8417  0.3549 -0.0875
  454MOL0     H61231  10.063  10.640   7.414 -2.0368 -0.2244 -1.5613
  454MOL0     H61232  10.039  10.652   7.586  3.0907 -0.0945 -0.4245
  454MOL0     H61233  10.089  10.412   7.633 -1.3019 -0.4509  0.4969
  454MOL0     H61234  10.076  10.375   7.463 -0.9450 -0.6364  2.0559
  454MOL0     H61235  10.284  10.500   7.403 -1.0562 -1.0804  0.4209
  454MOL0     H61236  10.301  10.539   7.567  1.4484  2.5621 -3.1026
  454MOL0     H61237  10.269  10.265   7.415 -1.3242 -0.1097 -0.1995
  454MOL0     H61238  10.269  10.266   7.588  1.0543  2.9159  2.0768
  454MOL0     H61239  10.504  10.199   7.516  0.8850 -0.0934  2.0729
  454MOL0     H61240  10.507  10.337   7.404  1.1389  0.3256  0.8844
  454MOL0     H61241  10.471  10.300   7.798  0.2425 -0.1994  0.8253
  454MOL0     H61242  10.617  10.607   7.965 -1.0817  0.3419  0.8663
  454MOL0     H61243  10.530  10.448   7.997  0.1654  0.9986 -0.0511
  454MOL0     H61244  10.762  10.458   8.105  0.3484  2.1415 -0.1572
  454MOL0     H61245  10.735  10.326   7.995  1.7672 -0.8444 -1.6566
  454MOL0     H61246  10.861  10.465   7.823  1.2128 -1.8737  0.3238
  454MOL0     H61247  10.952  10.415   7.972 -1.1954 -0.4079  1.1562
  454MOL0     H61248  10.880  10.645   8.077 -0.2436 -2.7003  0.5051
  454MOL0     H61249  10.813  10.692   7.918  0.9045 -0.3380 -2.7465
  454MOL0     H61250  11.268  10.711   7.876  0.2337  1.3157  0.4866
  454MOL0     H61251  11.348  10.808   7.672  1.1768 -0.2262  1.5388
  454MOL0     H61252  11.264  10.811   7.121  0.3629 -0.0589  0.5926
  454MOL0     H61253  11.312  10.929   6.926 -0.2908 -2.1240  1.1826
  454MOL0     H61254  11.066  11.328   6.885  0.0805  3.0011 -0.3902
  454MOL0     H61255  11.238  11.359   6.920 -0.7233  0.2858  1.0636
  454MOL0     H61256  11.193  11.475   6.727 -0.1827  0.6507  2.2716
  454MOL0     H61257  11.271  11.330   6.676  0.4560  2.6183  0.3511
  454MOL0     H61258  11.044  11.219   6.640  0.1593 -0.7712 -1.7559
  454MOL0     H61259  10.974  11.381   6.660  0.2952 -1.0242  0.7983
  454MOL0     H61260  11.180  11.285   6.440  1.5430  1.6536 -1.0738
  454MOL0     H61261  11.152  11.452   6.465 -2.4674  1.4381 -0.9010
  454MOL0     H61262  10.892  11.417   6.412 -1.2438 -0.6630 -3.0903
  454MOL0     H61263  10.944  11.263   6.357 -3.0451  0.8948 -0.6491
  454MOL0     H61264  11.068  11.528   6.283  0.4830 -0.2239  1.1073
  454MOL0     H61265  11.103  11.368   6.208 -2.0049 -0.6396 -1.7675
  454MOL0     H61266  10.849  11.545   6.188  0.7279  0.5209  0.8568
  454MOL0     H61267  10.847  11.373   6.153 -0.5121 -0.1237 -1.6204
  454MOL0     H61268  11.019  11.439   5.974 -0.6806 -1.5730  2.1970
  454MOL0     H61269  10.871  11.537   5.965  2.1434  0.5813 -1.7919
  454MOL0     H61270  11.090  11.271   7.101  2.1444  0.7059 -0.6507
  454MOL0     H61271  11.053  11.143   7.287  1.4769  0.8331  0.3051
  454MOL0     H61272  10.944  10.775   7.505  0.8303  0.4280 -0.9034
  454MOL0     H61273  10.869  10.702   7.705  0.1722 -0.0136 -0.4868
  454MOL0     H61274   9.361  10.781   7.569 -0.7351  0.3826  1.3343
  454MOL0     H61275   9.139  10.669   7.571 -1.1845 -0.4244 -2.2804
  454MOL0     H61276   8.923  10.287   7.865  1.8142  0.0127 -1.8705
  454MOL0     H61277   8.694  10.174   7.894  0.0158  2.1529  1.0302
  454MOL0     H61278   8.414  10.060   7.568 -4.8123  1.4123 -2.5508
  454MOL0     H61279   8.421  10.233   7.541 -0.7004 -0.0061  0.1973
  454MOL0     H61280   8.272  10.090   7.768  0.4751  1.6271  2.1897
  454MOL0     H61281   8.209  10.154   7.618 -0.4369  1.5871  0.2449
  454MOL0     H61282   8.293  10.382   7.671 -1.2240  2.3455  2.0690
  454MOL0     H61283   8.311  10.337   7.841  1.5741 -0.3359 -0.3740
  454MOL0     H61284   8.077  10.419   7.812  0.7604 -0.3390  0.9901
  454MOL0     H61285   8.061  10.293   7.687 -1.7960  0.5098  1.1707
  454MOL0     H61286   7.981  10.061   8.022  2.9372 -0.4158 -0.7802
  454MOL0     H61287   8.610  10.251   7.482  4.1520 -0.1178 -3.8399
  454MOL0     H61288   8.860  10.493   7.422 -1.8645  1.0034  0.0979
  454MOL0     H61289   8.898  10.327   7.364 -1.5102  1.2579 -3.1242
  454MOL0     H61290   8.737  10.402   7.347  1.1861  2.2966 -0.6765
  455MOL0     O61291   7.020   9.439   3.824  0.5268  0.2872 -0.5058
  455MOL0     C61292   6.987   9.553   3.855  0.7342 -0.3738  0.1475
  455MOL0     O61293   7.019   9.616   3.967  0.4878 -0.2759 -0.0887
  455MOL0     C61294   7.124   9.564   4.042 -0.4659 -0.6243  1.1492
  455MOL0     C61295   7.112   9.488   4.158  0.0232 -0.4230  0.3754
  455MOL0     C61296   7.222   9.430   4.215 -0.8835 -0.9744  0.7581
  455MOL0     C61297   7.355   9.459   4.167  0.3405  1.0008 -0.7194
  455MOL0     O61298   7.465   9.402   4.247  0.7975  0.1454  0.3916
  455MOL0     C61299   7.592   9.384   4.184  0.5959 -0.4938 -0.3729
  455MOL0     C61300   7.657   9.270   4.262 -0.5304 -0.4485  0.9155
  455MOL0     C61301   7.807   9.246   4.236 -0.5198  0.9034  0.7221
  455MOL0     C61302   7.885   9.360   4.297 -0.5879  0.9667  0.7309
  455MOL0     C61303   8.016   9.318   4.361 -0.9108  0.2133  0.1544
  455MOL0     C61304   8.117   9.275   4.257 -0.8306  0.2243 -0.1144
  455MOL0     C61305   8.247   9.217   4.317  0.2379  0.2672  0.1844
  455MOL0     C61306   8.316   9.323   4.399 -0.2278  0.0193  0.0518
  455MOL0     N61307   8.451   9.266   4.438  0.0551 -0.5795  0.3944
  455MOL0     C61308   8.555   9.265   4.352 -0.4969  0.1338  0.2907
  455MOL0     C61309   8.661   9.208   4.413 -0.6549 -0.2850  0.1901
  455MOL0     C61310   8.803   9.187   4.348 -0.0391  0.6764 -0.2571
  455MOL0     C61311   8.912   9.263   4.416 -0.5501 -1.3496 -0.3272
  455MOL0     C61312   9.038   9.243   4.332 -0.2195  0.6111 -0.9715
  455MOL0     C61313   9.147   9.334   4.375 -0.9381 -0.9816 -0.3780
  455MOL0     O61314   9.271   9.332   4.290  0.5152 -0.2687  0.0848
  455MOL0     C61315   9.366   9.229   4.301 -0.2630 -0.4478 -0.2522
  455MOL0     C61316   9.477   9.250   4.223 -0.0320 -0.6455 -0.8385
  455MOL0     C61317   9.586   9.156   4.226 -0.0508  0.4600  0.3676
  455MOL0     C61318   9.582   9.041   4.309 -0.9113 -0.9578  0.1435
  455MOL0     C61319   9.699   8.953   4.312 -0.2979  0.2299  0.0793
  455MOL0     O61320   9.813   8.968   4.223  0.8324  0.0823 -0.2056
  455MOL0     C61321   9.909   8.865   4.218  0.9545 -0.1934 -0.3013
  455MOL0     C61322  10.032   8.908   4.196  0.7141 -0.3099 -0.3606
  455MOL0     C61323  10.139   8.821   4.207 -0.2078  0.3270  0.3494
  455MOL0     C61324  10.127   8.686   4.228  0.8436 -0.1878 -0.2966
  455MOL0     O61325  10.234   8.603   4.245  0.8915  0.3874 -0.2892
  455MOL0     C61326  10.339   8.638   4.339  0.3391 -0.1029 -0.4627
  455MOL0     C61327  10.418   8.508   4.379 -0.3346  0.7982  0.3367
  455MOL0     C61328  10.473   8.430   4.263  0.2440 -0.0511  0.4155
  455MOL0     C61329  10.597   8.500   4.203 -0.3800 -0.4725 -0.6891
  455MOL0     C61330  10.654   8.430   4.078  0.5749  0.4660  0.2167
  455MOL0     C61331  10.793   8.482   4.035 -0.8557 -0.1542 -0.2276
  455MOL0     C61332  10.892   8.504   4.154  0.6612  0.1950 -0.1474
  455MOL0     C61333  11.032   8.524   4.097  0.2288  0.7837  0.5255
  455MOL0    Cl61334  11.045   8.639   3.962 -0.0956  0.0735 -0.2417
  455MOL0     C61335  10.002   8.643   4.248  0.7579  0.6966  0.8376
  455MOL0     C61336   9.890   8.729   4.240  1.0533  0.0047  0.1244
  455MOL0     O61337   9.698   8.874   4.412 -0.0322  0.0626 -0.1736
  455MOL0     C61338   9.471   9.029   4.390  0.5677 -0.4561 -0.3487
  455MOL0     C61339   9.366   9.123   4.391 -0.4738 -0.5790 -0.5537
  455MOL0     N61340   8.622   9.191   4.546  0.3490 -0.2678  0.0665
  455MOL0     N61341   8.493   9.234   4.560 -0.7498 -0.6591  0.4663
  455MOL0     C61342   7.373   9.546   4.061 -0.2398  0.3684  0.3455
  455MOL0     C61343   7.257   9.601   4.001 -0.6078 -0.0914 -0.4137
  455MOL0     C61344   6.892   9.620   3.753 -0.9181 -0.8818  0.0542
  455MOL0     C61345   6.846   9.547   3.638 -0.5685  0.6821  0.5266
  455MOL0     C61346   6.763   9.595   3.539  0.3972 -0.7055  0.6664
  455MOL0     C61347   6.711   9.723   3.565  0.8016  0.2009 -0.1622
  455MOL0     O61348   6.641   9.767   3.457 -0.6212  0.8938  0.9953
  455MOL0     C61349   6.561   9.896   3.447 -0.3800 -0.1404  0.0981
  455MOL0     C61350   6.671  10.009   3.421  0.2626  0.1950 -0.0930
  455MOL0     C61351   6.622  10.146   3.384 -0.7662  0.3097  0.1352
  455MOL0     C61352   6.575  10.142   3.231  0.3891  0.4294 -0.9272
  455MOL0     C61353   6.492  10.252   3.195  0.3128  0.1749 -0.9725
  455MOL0     C61354   6.421  10.345   3.164 -0.7866  0.1624 -0.1900
  455MOL0     C61355   6.736   9.796   3.680 -0.7788  0.1182 -0.6793
  455MOL0     C61356   6.840   9.745   3.770 -0.5834  0.1206  0.8587
  455MOL0     C61357   6.875   9.846   3.872  0.3727 -0.0537  0.0351
  455MOL0     H61358   7.011   9.469   4.193  0.4754 -1.6672  1.0577
  455MOL0     H61359   7.211   9.363   4.300 -1.2401 -0.8536  0.8094
  455MOL0     H61360   7.587   9.356   4.079 -2.5453 -1.6650 -0.0124
  455MOL0     H61361   7.648   9.477   4.200  4.1111 -2.4146 -0.4815
  455MOL0     H61362   7.608   9.175   4.239  2.0879 -1.4936 -0.9336
  455MOL0     H61363   7.649   9.276   4.371  2.8965 -1.8738  1.3701
  455MOL0     H61364   7.836   9.232   4.132 -0.2300  1.6852  0.6886
  455MOL0     H61365   7.840   9.153   4.283 -3.8941 -0.5333  0.4903
  455MOL0     H61366   7.913   9.438   4.226 -2.3909  0.1541 -0.9682
  455MOL0     H61367   7.820   9.404   4.374 -1.2330 -2.7230  2.4991
  455MOL0     H61368   8.053   9.409   4.409 -0.0104  1.6382 -2.9766
  455MOL0     H61369   7.995   9.248   4.443 -1.8345  1.3991  0.9721
  455MOL0     H61370   8.073   9.194   4.198  0.0452  1.4249 -2.5757
  455MOL0     H61371   8.133   9.367   4.199 -0.1348  0.5037  0.5051
  455MOL0     H61372   8.313   9.191   4.234 -0.6476  0.5742 -0.6427
  455MOL0     H61373   8.238   9.130   4.382  0.3924 -0.7947 -1.1732
  455MOL0     H61374   8.321   9.414   4.339  0.9922 -0.6251 -0.8535
  455MOL0     H61375   8.257   9.351   4.487 -1.0311 -0.5103 -0.3128
  455MOL0     H61376   8.543   9.297   4.249  1.7072 -2.5778 -0.9417
  455MOL0     H61377   8.828   9.081   4.348  2.2749  1.0743  2.9125
  455MOL0     H61378   8.800   9.222   4.244 -0.7952  2.1289  0.2191
  455MOL0     H61379   8.884   9.367   4.433 -1.0095 -1.4952 -0.1932
  455MOL0     H61380   8.939   9.217   4.511  1.0316  0.9806  0.4374
  455MOL0     H61381   9.018   9.252   4.225  0.2954 -0.9542 -1.2333
  455MOL0     H61382   9.075   9.142   4.353 -0.4228  0.6272 -0.5242
  455MOL0     H61383   9.173   9.308   4.478 -2.3803  1.7798  0.7888
  455MOL0     H61384   9.108   9.436   4.374 -2.3252 -1.3290 -4.8921
  455MOL0     H61385   9.483   9.338   4.161  1.4955 -0.2513 -0.1824
  455MOL0     H61386   9.683   9.172   4.180  2.0123 -1.0643  3.8061
  455MOL0     H61387  10.043   9.016   4.193 -3.2688  0.3821  2.4292
  455MOL0     H61388  10.238   8.864   4.192 -0.0387 -0.8062 -2.4118
  455MOL0     H61389  10.412   8.701   4.286  2.3942 -1.8999  0.0776
  455MOL0     H61390  10.300   8.694   4.424 -1.6007  0.6592 -1.7875
  455MOL0     H61391  10.501   8.542   4.441  1.3135 -1.5766 -0.4324
  455MOL0     H61392  10.358   8.437   4.435 -1.4907  1.9781  0.6535
  455MOL0     H61393  10.507   8.333   4.299  3.2963 -0.4024 -2.8648
  455MOL0     H61394  10.392   8.410   4.193 -1.4763  0.4919  2.1671
  455MOL0     H61395  10.676   8.495   4.279 -1.9372  1.3515  1.1804
  455MOL0     H61396  10.580   8.607   4.189  0.7071 -0.0765  0.7655
  455MOL0     H61397  10.585   8.443   3.993 -0.2925 -0.1581  0.8110
  455MOL0     H61398  10.669   8.324   4.098 -0.0854  0.0569 -1.2594
  455MOL0     H61399  10.833   8.406   3.967 -1.5909 -0.9051  0.1548
  455MOL0     H61400  10.791   8.576   3.979  0.5176  0.1887  0.2698
  455MOL0     H61401  10.899   8.414   4.216  2.5375 -0.7702 -1.6707
  455MOL0     H61402  10.866   8.593   4.212  1.0899 -1.6770  3.1845
  455MOL0     H61403  11.091   8.562   4.180  2.2215  0.7081 -0.7963
  455MOL0     H61404  11.066   8.424   4.066  0.5903  0.9058  0.5245
  455MOL0     H61405   9.998   8.540   4.280 -1.3411  0.3451 -0.3392
  455MOL0     H61406   9.799   8.689   4.283  1.8206  2.6287  4.7928
  455MOL0     H61407   9.473   8.952   4.467  2.3513 -1.1405 -1.0073
  455MOL0     H61408   9.290   9.105   4.466  0.8085 -1.6887  0.5127
  455MOL0     H61409   7.472   9.551   4.016  0.9394 -4.4936  1.7475
  455MOL0     H61410   7.276   9.658   3.910  0.9802 -0.0401 -0.0686
  455MOL0     H61411   6.866   9.441   3.623 -2.5994  0.2544  0.5230
  455MOL0     H61412   6.726   9.548   3.449 -1.3256  0.7153  0.5848
  455MOL0     H61413   6.505   9.911   3.540  1.5032 -1.5406  1.5345
  455MOL0     H61414   6.480   9.887   3.374  0.2518  0.3355 -0.6699
  455MOL0     H61415   6.719   9.977   3.328  0.2080  1.7828 -0.6906
  455MOL0     H61416   6.742  10.010   3.505  1.5706 -0.8339 -1.1508
  455MOL0     H61417   6.708  10.209   3.409  1.1419 -1.5824 -1.2679
  455MOL0     H61418   6.532  10.180   3.437  0.9344  2.5234  1.7818
  455MOL0     H61419   6.662  10.140   3.165  1.6138 -1.1383  0.6144
  455MOL0     H61420   6.515  10.051   3.217  0.4418  0.1786  0.3053
  455MOL0     H61421   6.371  10.438   3.145 -5.2305 -2.0432 -0.6807
  455MOL0     H61422   6.696   9.895   3.698 -2.8606 -0.3704 -2.1499
  455MOL0     H61423   6.982   9.862   3.860 -0.0018  0.4418 -4.2730
  455MOL0     H61424   6.824   9.939   3.847  0.4631  0.3466  1.2609
  455MOL0     H61425   6.846   9.809   3.971  1.9783 -0.6564  0.3167
  456MOL0     O61426   0.883   4.791   3.837  0.5742 -0.5189 -0.0665
  456MOL0     C61427   0.811   4.862   3.766 -0.5063  0.3433 -0.1946
  456MOL0     O61428   0.852   4.966   3.684  0.0098 -0.3073  0.2370
  456MOL0     C61429   0.991   4.997   3.671 -0.1344 -0.2185 -0.2750
  456MOL0     C61430   1.096   4.984   3.762 -0.2508 -0.5593 -0.3745
  456MOL0     C61431   1.222   5.040   3.729 -0.4006 -0.1467  0.4036
  456MOL0     C61432   1.245   5.113   3.610 -0.0747 -0.3329  0.3831
  456MOL0     O61433   1.362   5.166   3.570 -0.4662  0.1085  0.3600
  456MOL0     C61434   1.481   5.136   3.645 -0.8380 -0.0812 -0.2335
  456MOL0     C61435   1.594   5.219   3.579  0.2151 -0.1527 -0.4941
  456MOL0     C61436   1.729   5.235   3.655 -1.0585  0.2159 -0.3115
  456MOL0     C61437   1.849   5.249   3.564  0.5486  0.2387  0.3409
  456MOL0     C61438   1.976   5.280   3.636  0.0099 -0.2716  0.3081
  456MOL0     C61439   2.092   5.304   3.536  1.0418 -0.0863 -0.3316
  456MOL0     C61440   2.217   5.349   3.608  0.5313  0.1647 -0.0460
  456MOL0     C61441   2.349   5.317   3.549 -0.0064  0.3974  0.8526
  456MOL0     N61442   2.454   5.386   3.625  0.0240  0.4289 -0.3112
  456MOL0     C61443   2.502   5.348   3.749 -0.1405 -0.8150 -0.6552
  456MOL0     C61444   2.577   5.458   3.794  0.5698 -0.1233 -0.4137
  456MOL0     C61445   2.648   5.477   3.927  0.0750  0.0076  0.8395
  456MOL0     C61446   2.796   5.443   3.920  0.1338 -0.5665 -0.4016
  456MOL0     C61447   2.858   5.501   4.059 -0.4383 -0.1077 -0.6521
  456MOL0     C61448   3.008   5.480   4.062  0.0446 -0.0839  0.4662
  456MOL0     O61449   3.068   5.538   3.944 -0.5263  0.7031 -0.4750
  456MOL0     C61450   3.209   5.525   3.938  0.5646  0.1100  0.0300
  456MOL0     C61451   3.277   5.602   3.842  1.3662  0.0688 -0.7612
  456MOL0     C61452   3.416   5.600   3.816 -0.1819  0.0114 -0.8354
  456MOL0     C61453   3.487   5.511   3.897  0.5176  0.2118 -0.1816
  456MOL0     C61454   3.628   5.502   3.897  0.0510 -0.1261  0.1208
  456MOL0     O61455   3.684   5.415   3.980  0.0650 -0.0984  0.2095
  456MOL0     C61456   3.817   5.418   4.006 -0.3059  0.0352 -0.1888
  456MOL0     C61457   3.889   5.305   3.952  0.5674  0.2979 -0.0987
  456MOL0     C61458   4.029   5.315   3.937 -0.1501  0.1405  0.9137
  456MOL0     C61459   4.100   5.425   3.991  0.3887  0.3090  0.1929
  456MOL0     O61460   4.232   5.414   3.977  0.2453  0.4975 -0.5056
  456MOL0     C61461   4.316   5.521   4.014 -0.3704 -0.0417  0.6351
  456MOL0     C61462   4.459   5.458   3.996  0.2796 -0.7117 -0.6707
  456MOL0     C61463   4.559   5.571   4.001  0.0775  0.6060  0.4890
  456MOL0     C61464   4.699   5.528   3.978  0.3128  0.6943  0.4933
  456MOL0     C61465   4.796   5.651   3.960  0.6205  0.6974  0.7172
  456MOL0     C61466   4.934   5.620   3.912 -0.6057  0.8176  0.5042
  456MOL0     C61467   5.033   5.572   4.017  0.8676 -0.3914 -0.2528
  456MOL0     C61468   5.169   5.541   3.951 -0.0502  0.8524 -0.2917
  456MOL0    Cl61469   5.242   5.685   3.892 -0.1742  0.4566 -0.2534
  456MOL0     C61470   4.032   5.533   4.049 -0.1042  0.0636  0.5002
  456MOL0     C61471   3.891   5.529   4.057 -0.5367  0.0915 -0.2136
  456MOL0     O61472   3.688   5.584   3.826 -0.0702  0.2319 -0.4745
  456MOL0     C61473   3.428   5.441   4.005 -0.0859 -0.6933 -0.3680
  456MOL0     C61474   3.289   5.458   4.035 -0.5246  0.7380  0.5033
  456MOL0     N61475   2.555   5.563   3.697  0.0241  0.5790 -1.0056
  456MOL0     N61476   2.485   5.515   3.598 -0.2294  0.8003  0.3402
  456MOL0     C61477   1.134   5.137   3.533  0.0509 -0.6097  0.9753
  456MOL0     C61478   1.008   5.083   3.561 -0.2478  0.5580  0.1286
  456MOL0     C61479   0.666   4.824   3.749  0.3060 -0.5944 -0.0582
  456MOL0     C61480   0.610   4.837   3.621 -0.0861  0.3633 -0.5235
  456MOL0     C61481   0.478   4.816   3.598  0.3212 -0.0399  0.3374
  456MOL0     C61482   0.400   4.776   3.706  0.7012  0.2383  0.4715
  456MOL0     O61483   0.265   4.750   3.686 -0.1512  0.1033 -0.3058
  456MOL0     C61484   0.228   4.706   3.559  0.0375 -0.6774 -0.6648
  456MOL0     C61485   0.083   4.680   3.559  0.5803  0.4689 -0.0884
  456MOL0     C61486  -0.015   4.798   3.602  0.2924 -0.1626  0.4765
  456MOL0     C61487   0.005   4.920   3.514  1.4915  0.1415  0.4618
  456MOL0     C61488  -0.031   4.907   3.370 -0.3699  0.4627 -1.0053
  456MOL0     C61489  -0.057   4.936   3.255 -0.6192  0.2787 -0.0209
  456MOL0     C61490   0.459   4.766   3.836 -0.2825  0.4710  0.2881
  456MOL0     C61491   0.595   4.782   3.861  0.1393  0.3874  0.0979
  456MOL0     C61492   0.651   4.750   3.995 -0.1550 -0.6445  0.3306
  456MOL0     H61493   1.087   4.934   3.858 -2.2365 -1.1716 -0.8378
  456MOL0     H61494   1.307   5.008   3.787 -1.6546 -1.9638  1.3529
  456MOL0     H61495   1.479   5.167   3.750  0.7844  1.0190 -0.4878
  456MOL0     H61496   1.518   5.034   3.638 -0.8138 -0.1264  0.4344
  456MOL0     H61497   1.558   5.320   3.555  0.0113 -0.2773 -0.7235
  456MOL0     H61498   1.615   5.176   3.481 -0.2478  1.8427 -1.5350
  456MOL0     H61499   1.742   5.146   3.717  0.2374  1.2973  1.0411
  456MOL0     H61500   1.739   5.319   3.724  3.0704 -0.7264  0.5398
  456MOL0     H61501   1.870   5.151   3.519 -1.4829 -0.8177  1.5200
  456MOL0     H61502   1.831   5.325   3.488 -0.3467 -0.4728 -0.1878
  456MOL0     H61503   1.959   5.371   3.694  1.2241 -0.0825  0.3826
  456MOL0     H61504   2.014   5.200   3.699  0.6088 -0.6069 -0.4647
  456MOL0     H61505   2.113   5.209   3.487  0.5437 -1.5921  2.2014
  456MOL0     H61506   2.072   5.383   3.463  0.9442  1.7003  1.5328
  456MOL0     H61507   2.219   5.295   3.703 -0.3295 -1.1313 -0.7351
  456MOL0     H61508   2.206   5.455   3.633  0.0680  0.4104 -1.2182
  456MOL0     H61509   2.359   5.208   3.555  0.7861  0.4859  1.3617
  456MOL0     H61510   2.351   5.354   3.446  2.5108  1.0905  1.0848
  456MOL0     H61511   2.476   5.251   3.791 -1.5107 -0.3523 -0.3735
  456MOL0     H61512   2.646   5.583   3.953  1.4604 -0.4439  3.0455
  456MOL0     H61513   2.591   5.420   4.000 -0.4818 -1.6053 -0.7825
  456MOL0     H61514   2.818   5.337   3.906 -0.5445 -0.7732  0.0394
  456MOL0     H61515   2.843   5.493   3.834  3.0513 -2.4138 -0.0063
  456MOL0     H61516   2.809   5.450   4.142  2.8023 -0.1638  1.3795
  456MOL0     H61517   2.841   5.607   4.079  0.1950 -0.4972  2.3516
  456MOL0     H61518   3.035   5.374   4.068  0.6852  0.1230  1.3476
  456MOL0     H61519   3.053   5.530   4.148  0.5935  3.6284 -1.7660
  456MOL0     H61520   3.205   5.656   3.781  1.0803 -0.3848 -0.8315
  456MOL0     H61521   3.461   5.660   3.738 -0.4943 -0.7219 -1.5943
  456MOL0     H61522   3.822   5.224   3.922 -0.7636  0.8181  1.3269
  456MOL0     H61523   4.083   5.233   3.892  0.8281  0.6765  1.0889
  456MOL0     H61524   4.300   5.604   3.945 -0.2220 -0.9888 -0.5670
  456MOL0     H61525   4.316   5.552   4.119  3.8904 -1.1108  1.1306
  456MOL0     H61526   4.491   5.396   4.080 -1.7044  3.0428  3.1896
  456MOL0     H61527   4.453   5.409   3.898 -0.6989 -0.1430 -0.9026
  456MOL0     H61528   4.535   5.651   3.930 -0.1882  1.6179  1.6830
  456MOL0     H61529   4.553   5.624   4.096  1.6016  0.9945  0.3858
  456MOL0     H61530   4.712   5.461   3.893  2.1503  2.1457 -0.4574
  456MOL0     H61531   4.717   5.462   4.063 -3.2244 -3.3864 -1.5997
  456MOL0     H61532   4.793   5.715   4.049 -4.7484 -0.6560  1.8557
  456MOL0     H61533   4.751   5.705   3.877  3.0487 -0.2542 -1.3331
  456MOL0     H61534   4.926   5.537   3.842  2.0447  0.5375  0.4156
  456MOL0     H61535   4.978   5.700   3.851  1.2639  0.8626  1.8136
  456MOL0     H61536   4.998   5.491   4.082 -1.0176  1.7824  1.6508
  456MOL0     H61537   5.032   5.658   4.086 -2.0441 -0.5840  0.0292
  456MOL0     H61538   5.231   5.519   4.038  0.2733  2.0329 -0.2058
  456MOL0     H61539   5.168   5.459   3.878 -0.5909  0.6051 -0.0132
  456MOL0     H61540   4.084   5.620   4.088  1.1163 -0.0891 -0.7111
  456MOL0     H61541   3.836   5.611   4.103  1.0449  1.4206 -0.5910
  456MOL0     H61542   3.487   5.376   4.068  1.7204  1.2169  0.0098
  456MOL0     H61543   3.248   5.407   4.121 -2.3256  1.7413  0.2756
  456MOL0     H61544   1.153   5.209   3.454  2.5721 -3.1661 -0.9398
  456MOL0     H61545   0.922   5.109   3.500 -0.5038  1.6758  0.9273
  456MOL0     H61546   0.682   4.862   3.544 -0.9735 -0.1840 -1.5637
  456MOL0     H61547   0.444   4.828   3.496  1.4793  0.9723  0.0478
  456MOL0     H61548   0.283   4.614   3.539 -1.2252 -2.0481  1.8005
  456MOL0     H61549   0.242   4.784   3.482  1.3106  0.4123  0.6111
  456MOL0     H61550   0.062   4.597   3.628  0.4868 -0.4082 -1.1366
  456MOL0     H61551   0.052   4.639   3.463  0.0322 -1.9421  1.0220
  456MOL0     H61552   0.010   4.835   3.702 -1.3407  0.5255  0.6559
  456MOL0     H61553  -0.116   4.757   3.596  1.0777 -2.0334 -0.6853
  456MOL0     H61554  -0.054   5.004   3.554 -0.4411 -0.8341 -0.2321
  456MOL0     H61555   0.110   4.949   3.512  1.3393  0.6948  0.1160
  456MOL0     H61556  -0.083   4.962   3.154 -1.9585 -0.0409  0.2197
  456MOL0     H61557   0.392   4.747   3.920 -3.5191 -0.1690 -2.2507
  456MOL0     H61558   0.732   4.820   4.018 -0.3263  0.0419 -1.0692
  456MOL0     H61559   0.576   4.761   4.074  1.3927  0.5744  1.6901
  456MOL0     H61560   0.696   4.651   3.986  2.9716  0.6657  0.3275
  457MOL0     O61561   9.106   5.939   0.426 -0.0848 -0.3272  0.2242
  457MOL0     C61562   9.050   6.009   0.340  0.9447  0.1625 -0.0376
  457MOL0     O61563   9.106   6.039   0.221  0.1100 -0.6835  0.2598
  457MOL0     C61564   9.150   5.925   0.159 -0.4013 -0.6781 -0.6405
  457MOL0     C61565   9.289   5.915   0.127 -0.1404 -0.3468  1.0435
  457MOL0     C61566   9.341   5.799   0.071  0.8302  0.0560 -0.9382
  457MOL0     C61567   9.256   5.694   0.042  0.6172  1.5604 -0.1190
  457MOL0     O61568   9.318   5.586  -0.007 -0.3870  0.2648  0.2886
  457MOL0     C61569   9.280   5.459   0.036  0.8114 -1.0570 -0.0257
  457MOL0     C61570   9.175   5.385  -0.057 -0.5858 -0.3558 -0.4917
  457MOL0     C61571   9.225   5.341  -0.193 -0.3582  0.0338 -0.7081
  457MOL0     C61572   9.209   5.447  -0.298  0.2927 -0.5735 -0.4275
  457MOL0     C61573   9.273   5.421  -0.435 -0.1456  0.0274 -0.2693
  457MOL0     C61574   9.421   5.444  -0.423 -0.3143  0.2693  0.3919
  457MOL0     C61575   9.501   5.411  -0.546 -0.0858 -0.1041  1.0541
  457MOL0     C61576   9.646   5.409  -0.502  0.7104  0.5844 -0.4398
  457MOL0     N61577   9.734   5.413  -0.621 -0.1695 -0.1068  0.3974
  457MOL0     C61578   9.805   5.526  -0.656 -0.0617 -0.1673  0.0243
  457MOL0     C61579   9.883   5.476  -0.748 -0.8348 -0.7205  0.8571
  457MOL0     C61580   9.973   5.549  -0.837 -0.0013 -0.4857  0.0459
  457MOL0     C61581  10.114   5.512  -0.811 -0.8390 -0.0681 -0.0566
  457MOL0     C61582  10.210   5.593  -0.904  0.4714  0.1788  0.4093
  457MOL0     C61583  10.356   5.546  -0.895  0.2166 -0.2353  0.2715
  457MOL0     O61584  10.446   5.624  -0.979  0.2928  0.2083 -0.5405
  457MOL0     C61585  10.587   5.623  -0.960  0.1754 -0.0068 -0.1355
  457MOL0     C61586  10.659   5.702  -1.053 -0.3038  0.0996 -0.4071
  457MOL0     C61587  10.792   5.738  -1.033 -0.4320 -0.4048  0.2261
  457MOL0     C61588  10.864   5.696  -0.916 -0.1464 -0.3741  0.1962
  457MOL0     C61589  11.006   5.740  -0.886  0.0040  0.5172 -0.1052
  457MOL0     O61590  11.062   5.704  -0.766 -0.2969 -0.2561 -0.7571
  457MOL0     C61591  11.193   5.741  -0.748  1.1131 -0.2701  0.1882
  457MOL0     C61592  11.279   5.639  -0.722 -0.6986  0.3600  0.1989
  457MOL0     C61593  11.416   5.664  -0.703 -0.4954  0.1335 -0.6279
  457MOL0     C61594  11.464   5.793  -0.697 -0.3443 -0.3086  0.4999
  457MOL0     O61595  11.594   5.835  -0.687  0.1567  0.1356  0.8079
  457MOL0     C61596  11.691   5.730  -0.691 -0.1514 -0.0825 -0.0108
  457MOL0     C61597  11.827   5.813  -0.693  0.3397 -0.2495  0.0771
  457MOL0     C61598  11.949   5.721  -0.678  0.2184  0.1921  1.6047
  457MOL0     C61599  12.066   5.820  -0.671  0.3384 -0.3522 -0.2423
  457MOL0     C61600  12.193   5.737  -0.641 -0.4476 -0.4411  0.7428
  457MOL0     C61601  12.306   5.848  -0.621  0.1125  0.5513  0.8838
  457MOL0     C61602  12.439   5.778  -0.608 -0.1748  0.1852  0.2525
  457MOL0     C61603  12.546   5.879  -0.600 -0.7057 -0.4177 -0.5388
  457MOL0    Cl61604  12.703   5.807  -0.554  0.1235 -0.0701  0.0861
  457MOL0     C61605  11.374   5.894  -0.711 -0.1421  0.1856 -0.8305
  457MOL0     C61606  11.239   5.876  -0.734 -0.2488  0.7350  0.5094
  457MOL0     O61607  11.059   5.805  -0.978  0.3240  0.7264 -0.5315
  457MOL0     C61608  10.791   5.615  -0.828 -0.1311 -0.1301 -0.2526
  457MOL0     C61609  10.654   5.581  -0.850  0.1599 -0.2071  0.4263
  457MOL0     N61610   9.882   5.338  -0.757  0.1838 -0.1203  0.0120
  457MOL0     N61611   9.780   5.298  -0.681  0.2789  0.2748 -0.0844
  457MOL0     C61612   9.112   5.707   0.058 -0.0735  0.3913  0.5714
  457MOL0     C61613   9.061   5.818   0.129 -0.4068  0.3493  0.2402
  457MOL0     C61614   8.911   6.049   0.365 -0.5428 -0.4120 -0.0377
  457MOL0     C61615   8.845   6.111   0.255  0.6096 -0.8433  0.3085
  457MOL0     C61616   8.706   6.147   0.269 -0.3638 -0.2576 -0.0888
  457MOL0     C61617   8.634   6.121   0.390  0.5044  0.7668  0.4552
  457MOL0     O61618   8.496   6.133   0.407 -0.0061 -0.6020  0.0269
  457MOL0     C61619   8.416   6.136   0.287 -0.1412  0.6181 -0.4835
  457MOL0     C61620   8.271   6.149   0.309  0.1829 -0.5571 -0.5085
  457MOL0     C61621   8.224   6.289   0.360 -0.5932  0.3763 -0.0398
  457MOL0     C61622   8.074   6.317   0.324  0.2930 -0.6187  0.4550
  457MOL0     C61623   8.075   6.350   0.181 -1.1109 -0.1858 -0.4565
  457MOL0     C61624   8.055   6.384   0.068 -0.1761  0.4527  0.0465
  457MOL0     C61625   8.706   6.070   0.499 -0.1451 -0.1848 -1.1341
  457MOL0     C61626   8.840   6.042   0.488  0.2027 -0.0547 -0.1438
  457MOL0     C61627   8.895   5.973   0.614  0.6166  0.2015  1.0054
  457MOL0     H61628   9.357   5.993   0.162  1.9352 -2.5352  2.2387
  457MOL0     H61629   9.448   5.786   0.062  0.8774 -0.2413 -0.0651
  457MOL0     H61630   9.379   5.412   0.041  1.8573  0.8574 -1.2204
  457MOL0     H61631   9.239   5.457   0.137 -2.6881  1.1397 -1.2226
  457MOL0     H61632   9.084   5.443  -0.075  0.6779  1.4287 -1.4355
  457MOL0     H61633   9.156   5.295   0.002  4.2440 -1.8534 -0.7372
  457MOL0     H61634   9.178   5.253  -0.237  0.7517  0.0540 -2.0117
  457MOL0     H61635   9.330   5.320  -0.169 -0.1546 -0.6180 -2.0667
  457MOL0     H61636   9.100   5.455  -0.309  0.2834 -0.5012 -0.2721
  457MOL0     H61637   9.234   5.545  -0.258 -0.1260 -1.5762  2.5003
  457MOL0     H61638   9.258   5.320  -0.474 -0.0742 -0.9205  2.0083
  457MOL0     H61639   9.233   5.495  -0.505 -0.4406  2.1039  1.9706
  457MOL0     H61640   9.446   5.548  -0.399 -1.2069  0.6000 -0.0680
  457MOL0     H61641   9.445   5.371  -0.345  0.5682 -0.2078 -0.3073
  457MOL0     H61642   9.480   5.484  -0.624  2.0691 -0.2288  0.3190
  457MOL0     H61643   9.477   5.318  -0.599 -0.6788  0.6717 -0.0750
  457MOL0     H61644   9.679   5.491  -0.438 -0.2082 -0.6051  1.6430
  457MOL0     H61645   9.665   5.317  -0.446 -3.0103 -0.6039 -0.8153
  457MOL0     H61646   9.793   5.631  -0.631  1.2582  1.0882 -3.9477
  457MOL0     H61647   9.939   5.518  -0.937 -2.6386  0.9410  0.4039
  457MOL0     H61648   9.954   5.656  -0.831 -0.9145 -0.4977 -1.8239
  457MOL0     H61649  10.143   5.551  -0.712  0.9285 -1.3018 -0.0556
  457MOL0     H61650  10.137   5.406  -0.822  0.6347  0.3958 -1.8184
  457MOL0     H61651  10.206   5.697  -0.871 -0.5334  0.0680  0.6979
  457MOL0     H61652  10.172   5.591  -1.007 -0.8497  0.9465  0.8590
  457MOL0     H61653  10.372   5.441  -0.923  2.4506  0.5095 -1.6021
  457MOL0     H61654  10.397   5.570  -0.797 -2.2723  0.2169  1.2761
  457MOL0     H61655  10.606   5.743  -1.139  0.8579  2.6102 -0.0221
  457MOL0     H61656  10.839   5.801  -1.108 -3.1000 -0.2207 -1.4241
  457MOL0     H61657  11.248   5.535  -0.726 -1.2304  0.0821  5.0765
  457MOL0     H61658  11.485   5.580  -0.695  1.6942  1.9686  1.1950
  457MOL0     H61659  11.690   5.670  -0.599  3.6020 -0.6597 -0.1801
  457MOL0     H61660  11.665   5.666  -0.775 -1.9513 -2.9057  2.4805
  457MOL0     H61661  11.827   5.858  -0.793 -1.2041  1.3711  0.7576
  457MOL0     H61662  11.827   5.891  -0.617 -0.1821 -0.0923 -0.0800
  457MOL0     H61663  11.957   5.665  -0.584 -0.3312 -0.4700  1.2668
  457MOL0     H61664  11.961   5.659  -0.767  1.1134  1.2247  0.9872
  457MOL0     H61665  12.054   5.895  -0.592  3.4305  0.9637 -0.8653
  457MOL0     H61666  12.079   5.870  -0.768 -2.5251  0.2720 -0.3950
  457MOL0     H61667  12.213   5.667  -0.722 -1.7288 -0.3892  0.3469
  457MOL0     H61668  12.183   5.686  -0.545 -0.7568 -0.5458  0.6562
  457MOL0     H61669  12.312   5.911  -0.710 -0.0610 -0.3546  0.2165
  457MOL0     H61670  12.285   5.914  -0.536  1.6135 -1.6257  3.0585
  457MOL0     H61671  12.453   5.716  -0.697  1.7720 -0.2608  0.8164
  457MOL0     H61672  12.423   5.709  -0.524 -1.5823 -0.2798 -0.3714
  457MOL0     H61673  12.554   5.939  -0.691  0.7247  1.0809  0.5137
  457MOL0     H61674  12.519   5.956  -0.527  1.7079  2.8244 -2.7532
  457MOL0     H61675  11.414   5.993  -0.694 -1.4624  0.4218  1.2735
  457MOL0     H61676  11.171   5.960  -0.734 -2.1243 -0.7228  0.2743
  457MOL0     H61677  10.841   5.573  -0.741 -1.3007  0.2525  0.6203
  457MOL0     H61678  10.601   5.537  -0.766  0.8855  2.4772  2.4219
  457MOL0     H61679   9.040   5.635   0.022  2.8746 -1.7895 -1.4783
  457MOL0     H61680   8.955   5.825   0.151 -0.0653 -0.4016  2.3657
  457MOL0     H61681   8.896   6.121   0.160 -1.0803 -0.5470 -0.6078
  457MOL0     H61682   8.663   6.189   0.179 -0.3431 -1.3056 -0.5942
  457MOL0     H61683   8.427   6.041   0.235 -0.4408 -1.0515  2.2707
  457MOL0     H61684   8.451   6.227   0.237  2.3603  1.3239  2.2430
  457MOL0     H61685   8.242   6.071   0.379  1.8384 -0.5003  0.2812
  457MOL0     H61686   8.227   6.126   0.212 -0.6111  0.7730 -0.4981
  457MOL0     H61687   8.286   6.365   0.312  0.1641 -0.4791 -0.4456
  457MOL0     H61688   8.252   6.292   0.466  0.7018  2.4471 -0.3835
  457MOL0     H61689   8.025   6.221   0.344  1.4603 -1.9098 -2.3650
  457MOL0     H61690   8.035   6.397   0.387  0.3790 -0.0390 -0.2255
  457MOL0     H61691   8.043   6.414  -0.034 -3.2849  0.3265  0.2683
  457MOL0     H61692   8.648   6.082   0.591 -0.8409 -0.4357 -1.5313
  457MOL0     H61693   8.997   6.004   0.637  0.7384 -0.1043  0.8802
  457MOL0     H61694   8.835   6.003   0.700 -1.5015  0.2306 -0.4054
  457MOL0     H61695   8.895   5.865   0.601 -2.0679  0.0427  1.7422
  458MOL0     O61696   7.965  11.147   9.773 -0.3764  0.5452 -0.1297
  458MOL0     C61697   8.003  11.133   9.887  0.8570  0.4034 -1.0697
  458MOL0     O61698   8.118  11.183   9.943 -0.1833  0.0604  0.1866
  458MOL0     C61699   8.197  11.239   9.857  0.6952 -0.4536  0.6351
  458MOL0     C61700   8.199  11.384   9.846 -0.1521  0.2012 -0.4748
  458MOL0     C61701   8.289  11.439   9.752 -0.0753  0.1052  0.6075
  458MOL0     C61702   8.382  11.359   9.686  0.2489 -0.2299 -0.4367
  458MOL0     O61703   8.471  11.428   9.608 -0.0139 -0.0656 -0.0495
  458MOL0     C61704   8.606  11.376   9.604 -0.3027  0.2791 -0.2004
  458MOL0     C61705   8.700  11.482   9.545 -0.3443 -0.4415  0.4465
  458MOL0     C61706   8.833  11.420   9.524 -0.1111 -1.0711 -1.0628
  458MOL0     C61707   8.918  11.530   9.461  0.6705 -0.0147 -0.2706
  458MOL0     C61708   9.060  11.493   9.463 -0.7521 -0.5650  0.0795
  458MOL0     C61709   9.135  11.616   9.400 -0.1133  0.1072  0.1184
  458MOL0     C61710   9.275  11.577   9.331  0.7301 -0.4793 -0.2198
  458MOL0     C61711   9.371  11.501   9.426  0.3053  0.4018 -0.2129
  458MOL0     N61712   9.497  11.469   9.361  0.4852 -0.4621  0.5762
  458MOL0     C61713   9.617  11.533   9.359 -0.3580  0.4715 -0.1884
  458MOL0     C61714   9.679  11.479   9.254  0.1209 -0.2091 -0.2834
  458MOL0     C61715   9.813  11.520   9.197 -0.7245 -0.2522  0.1112
  458MOL0     C61716   9.912  11.529   9.311 -1.2026 -0.2927  0.3960
  458MOL0     C61717  10.061  11.532   9.271  0.5786 -0.4587 -0.4194
  458MOL0     C61718  10.107  11.386   9.247  0.2430 -0.3134  0.3505
  458MOL0     O61719  10.221  11.417   9.162 -0.3824  0.4714 -0.1359
  458MOL0     C61720  10.351  11.413   9.206 -0.5559  0.2964 -0.3390
  458MOL0     C61721  10.453  11.439   9.120  0.8879  0.8097  0.0724
  458MOL0     C61722  10.589  11.435   9.151 -0.3823 -0.8206 -0.1204
  458MOL0     C61723  10.624  11.406   9.285  0.1481  0.3696  0.0483
  458MOL0     C61724  10.771  11.398   9.326 -0.9186  0.3273  0.6664
  458MOL0     O61725  10.860  11.410   9.226  0.0448 -0.3878 -0.0093
  458MOL0     C61726  10.995  11.382   9.239  0.5509 -0.2934 -0.3373
  458MOL0     C61727  11.073  11.407   9.129 -0.0180  0.5134 -0.0672
  458MOL0     C61728  11.205  11.382   9.124 -0.3651 -0.5624 -0.1572
  458MOL0     C61729  11.268  11.318   9.240  0.7728 -0.3950  0.6144
  458MOL0     O61730  11.400  11.296   9.226 -0.3954  0.2869 -0.0689
  458MOL0     C61731  11.464  11.189   9.294  0.0465  0.5067  0.3292
  458MOL0     C61732  11.547  11.247   9.405 -1.2336 -0.5786  0.0347
  458MOL0     C61733  11.642  11.347   9.341  0.4155  0.3577  0.5764
  458MOL0     C61734  11.731  11.401   9.459  1.1787 -0.2389 -0.0514
  458MOL0     C61735  11.813  11.521   9.405  0.1904  0.1042  0.3080
  458MOL0     C61736  11.923  11.543   9.507 -0.6507 -0.4610 -0.4386
  458MOL0     C61737  12.024  11.649   9.454  1.9861 -0.0278 -0.0185
  458MOL0     C61738  12.118  11.671   9.572  0.0630 -0.8252  0.3760
  458MOL0    Cl61739  12.250  11.782   9.510 -0.0080  0.6403  0.1150
  458MOL0     C61740  11.189  11.284   9.348  0.3005  0.2703  0.3415
  458MOL0     C61741  11.058  11.319   9.349 -0.2408 -0.2434 -0.1064
  458MOL0     O61742  10.798  11.387   9.444  0.2445 -0.4115 -0.1038
  458MOL0     C61743  10.519  11.382   9.383 -0.0094  0.3846 -0.7893
  458MOL0     C61744  10.390  11.384   9.341 -0.3136  0.6991 -0.2473
  458MOL0     N61745   9.602  11.379   9.191 -0.1815 -0.4048 -0.1274
  458MOL0     N61746   9.499  11.373   9.256 -0.5696 -0.5709  0.6577
  458MOL0     C61747   8.378  11.223   9.698  1.2291  0.6682  0.5573
  458MOL0     C61748   8.287  11.158   9.784 -0.1609 -0.5956  0.3535
  458MOL0     C61749   7.902  11.073   9.976 -0.5968 -0.6109  0.6891
  458MOL0     C61750   7.938  10.960  10.044 -0.2282 -0.7139 -0.1907
  458MOL0     C61751   7.857  10.887  10.122 -0.3496 -0.6153 -0.1921
  458MOL0     C61752   7.723  10.918  10.124  0.6245 -0.4827 -0.0006
  458MOL0     O61753   7.647  10.821  10.184  0.3256  0.0776  0.0688
  458MOL0     C61754   7.500  10.827  10.177 -0.3419 -0.8570 -0.7501
  458MOL0     C61755   7.429  10.932  10.268  0.5976 -0.2772  0.3856
  458MOL0     C61756   7.477  10.933  10.416 -0.5964 -0.0388  0.1998
  458MOL0     C61757   7.392  11.028  10.498 -0.2193  0.5344  0.2187
  458MOL0     C61758   7.452  11.064  10.629  0.3907  0.1856 -0.1048
  458MOL0     C61759   7.496  11.105  10.733 -0.2278 -0.1598  0.1143
  458MOL0     C61760   7.677  11.032  10.056 -0.1826 -0.3799 -0.0614
  458MOL0     C61761   7.766  11.112   9.979 -0.0790  0.1048  0.6952
  458MOL0     C61762   7.702  11.240   9.935  0.1624 -0.5775  0.1031
  458MOL0     H61763   8.130  11.447   9.900  2.1076  1.4500  1.1316
  458MOL0     H61764   8.297  11.546   9.736 -0.9149  0.4338  2.1373
  458MOL0     H61765   8.631  11.338   9.704 -2.7577  0.0530  0.4158
  458MOL0     H61766   8.613  11.297   9.529 -1.4890  1.7261 -1.9264
  458MOL0     H61767   8.719  11.560   9.619  3.9150  0.5360 -1.4027
  458MOL0     H61768   8.660  11.531   9.456  0.3182  0.0865  0.4360
  458MOL0     H61769   8.816  11.328   9.466 -1.4825 -0.8072 -1.1068
  458MOL0     H61770   8.872  11.388   9.621 -1.9485  0.0622  0.1057
  458MOL0     H61771   8.886  11.554   9.359  3.0824  0.4029 -1.0053
  458MOL0     H61772   8.901  11.621   9.520 -0.4577 -0.6586  0.4246
  458MOL0     H61773   9.087  11.474   9.567  0.6601  1.4273  0.1433
  458MOL0     H61774   9.065  11.402   9.402 -1.6893  0.6168 -1.8654
  458MOL0     H61775   9.073  11.660   9.321  2.7437  0.5312 -2.0513
  458MOL0     H61776   9.155  11.693   9.476 -2.2209 -0.1864  1.0337
  458MOL0     H61777   9.320  11.669   9.294 -1.7762  0.1487 -1.9489
  458MOL0     H61778   9.256  11.512   9.245 -0.8912  0.6854 -0.7806
  458MOL0     H61779   9.384  11.576   9.505 -3.1180  1.0435 -0.0697
  458MOL0     H61780   9.332  11.407   9.467 -1.4527 -0.0463 -2.6680
  458MOL0     H61781   9.650  11.615   9.422  0.8298  0.3646 -0.6362
  458MOL0     H61782   9.834  11.448   9.117  5.5979  0.4719  0.6453
  458MOL0     H61783   9.802  11.615   9.144 -0.8446 -1.4658 -2.1858
  458MOL0     H61784   9.893  11.621   9.368  0.6555 -0.4530  1.3357
  458MOL0     H61785   9.884  11.455   9.387 -0.9478  0.8251  1.6061
  458MOL0     H61786  10.116  11.574   9.357  3.5325 -2.4053 -1.2135
  458MOL0     H61787  10.077  11.593   9.181 -0.7951 -1.1193 -1.1370
  458MOL0     H61788  10.041  11.325   9.185  0.1560  1.6868 -1.6730
  458MOL0     H61789  10.140  11.332   9.336  0.6466 -1.3738 -0.4202
  458MOL0     H61790  10.427  11.456   9.016  0.7171 -4.3066 -0.9946
  458MOL0     H61791  10.660  11.456   9.072  2.0715  1.1159  2.3985
  458MOL0     H61792  11.025  11.436   9.036  2.7244 -0.2929 -1.8539
  458MOL0     H61793  11.260  11.404   9.033  1.4587  0.3234  1.0923
  458MOL0     H61794  11.393  11.113   9.327  1.8302 -0.5292  1.9988
  458MOL0     H61795  11.529  11.135   9.224 -0.2631  0.6645 -0.0812
  458MOL0     H61796  11.485  11.305   9.474 -2.3090 -0.8190 -0.7197
  458MOL0     H61797  11.599  11.169   9.462  0.2722  0.7459  0.5441
  458MOL0     H61798  11.698  11.305   9.257 -1.2670 -0.9704  0.0553
  458MOL0     H61799  11.579  11.426   9.300  0.3395  0.5413  1.0336
  458MOL0     H61800  11.797  11.321   9.493 -0.0102 -1.3740 -0.3498
  458MOL0     H61801  11.682  11.441   9.548  2.9919 -2.5482  2.1253
  458MOL0     H61802  11.757  11.610   9.374 -0.5071 -0.6229 -0.6092
  458MOL0     H61803  11.853  11.493   9.307 -2.3063  1.6156 -1.2423
  458MOL0     H61804  11.876  11.578   9.600 -1.2808 -0.8830 -0.5954
  458MOL0     H61805  11.968  11.446   9.531  1.0837  0.8480  2.2068
  458MOL0     H61806  11.971  11.741   9.429  2.0627 -0.0658 -0.3256
  458MOL0     H61807  12.073  11.604   9.367  0.6649 -1.4609 -0.0667
  458MOL0     H61808  12.060  11.714   9.654 -3.8463 -0.5826 -2.2483
  458MOL0     H61809  12.160  11.576   9.607  1.5779 -0.7240 -1.0353
  458MOL0     H61810  11.240  11.233   9.429 -0.2869 -0.9794 -0.0488
  458MOL0     H61811  11.008  11.303   9.444  0.2682  0.8204  0.3560
  458MOL0     H61812  10.544  11.353   9.485  0.6100  1.8275 -0.5000
  458MOL0     H61813  10.313  11.362   9.414  0.5436 -0.0255  0.4468
  458MOL0     H61814   8.443  11.165   9.633 -0.9614  0.0336 -1.2307
  458MOL0     H61815   8.283  11.049   9.791  0.0991 -0.7636 -1.4678
  458MOL0     H61816   8.041  10.928  10.030 -0.0843 -0.5679  0.4934
  458MOL0     H61817   7.898  10.797  10.166  0.0839 -0.2260  0.2047
  458MOL0     H61818   7.458  10.732  10.212  0.8780 -1.4194 -0.7503
  458MOL0     H61819   7.472  10.833  10.072 -2.2202 -2.0852 -0.3735
  458MOL0     H61820   7.323  10.908  10.258  1.4197 -4.8711  0.3596
  458MOL0     H61821   7.439  11.030  10.221 -1.0525 -0.6338 -0.8085
  458MOL0     H61822   7.585  10.947  10.416 -0.2102 -2.5949  0.5082
  458MOL0     H61823   7.464  10.835  10.463  1.9075 -0.9516 -0.8861
  458MOL0     H61824   7.377  11.114  10.432  3.4326 -0.6305 -2.4145
  458MOL0     H61825   7.300  10.976  10.526  1.0371 -1.1097  1.4872
  458MOL0     H61826   7.521  11.138  10.832  1.4165 -1.7237  0.2750
  458MOL0     H61827   7.571  11.054  10.058 -0.3325 -1.0090 -0.7008
  458MOL0     H61828   7.714  11.260   9.828  0.8066 -0.8252  0.1261
  458MOL0     H61829   7.594  11.245   9.951 -0.1434  5.5684 -1.1865
  458MOL0     H61830   7.730  11.326   9.996  1.3144  0.1352 -1.3588
  459MOL0     O61831   6.565   6.797  11.237  0.0537  0.0669  0.7607
  459MOL0     C61832   6.486   6.804  11.140  0.1929  0.0953 -0.3580
  459MOL0     O61833   6.516   6.848  11.012 -0.0303  0.2245 -1.1436
  459MOL0     C61834   6.643   6.892  10.991  0.6980  0.6055  0.3340
  459MOL0     C61835   6.666   7.024  10.989  0.1387  0.4258  0.1825
  459MOL0     C61836   6.792   7.078  10.964 -0.4571  0.4362 -0.2579
  459MOL0     C61837   6.905   6.997  10.943  0.8433 -0.0927  0.5594
  459MOL0     O61838   7.023   7.055  10.904  0.2305  0.2024  0.0094
  459MOL0     C61839   7.138   6.967  10.903 -0.5813 -0.1166  0.3365
  459MOL0     C61840   7.269   7.038  10.867 -0.6221 -0.0015  0.1681
  459MOL0     C61841   7.401   6.961  10.875  0.4822  0.5757 -0.3254
  459MOL0     C61842   7.473   6.975  11.008 -0.1436 -0.1385 -0.0929
  459MOL0     C61843   7.556   6.859  11.037  0.7063  0.4595 -0.4880
  459MOL0     C61844   7.640   6.874  11.163 -0.7138  0.5894  0.5279
  459MOL0     C61845   7.693   6.731  11.191  0.0226  0.1673  0.3529
  459MOL0     C61846   7.806   6.716  11.298 -0.7804 -0.0068  0.1970
  459MOL0     N61847   7.929   6.782  11.267  0.0599 -0.0861 -0.2441
  459MOL0     C61848   8.032   6.722  11.201 -0.3711 -0.2560  0.1900
  459MOL0     C61849   8.136   6.799  11.199  0.0721 -0.3003  0.0885
  459MOL0     C61850   8.262   6.764  11.125  0.2478 -0.2538  0.3180
  459MOL0     C61851   8.365   6.715  11.227 -0.1278  0.3488 -0.4596
  459MOL0     C61852   8.423   6.827  11.309 -0.6943 -0.3710  0.5063
  459MOL0     C61853   8.500   6.762  11.426 -0.1211 -0.1537  0.0028
  459MOL0     O61854   8.607   6.679  11.370 -0.4787 -0.2947  0.2054
  459MOL0     C61855   8.691   6.612  11.454  0.3431  0.4261  0.7894
  459MOL0     C61856   8.662   6.583  11.588  0.2643  0.0843  0.6345
  459MOL0     C61857   8.762   6.530  11.668  0.2102 -0.2489  0.7921
  459MOL0     C61858   8.881   6.499  11.615  0.4236 -0.6292 -0.2321
  459MOL0     C61859   8.988   6.441  11.699 -0.4556 -0.1500  0.6392
  459MOL0     O61860   9.105   6.400  11.630  0.1633 -0.0870  0.5583
  459MOL0     C61861   9.218   6.378  11.696  0.4871  0.4595 -0.5785
  459MOL0     C61862   9.303   6.279  11.647 -0.9516  1.1119 -0.4111
  459MOL0     C61863   9.435   6.262  11.703 -0.0249  0.0366 -0.1991
  459MOL0     C61864   9.476   6.339  11.813  0.4757 -0.4121  0.5092
  459MOL0     O61865   9.598   6.296  11.858  0.0711  0.2615 -0.0230
  459MOL0     C61866   9.620   6.326  11.996 -0.2941 -0.0582 -0.7925
  459MOL0     C61867   9.756   6.261  12.034 -0.5847  0.5276 -0.2106
  459MOL0     C61868   9.796   6.290  12.179 -0.4127 -1.0533 -0.3532
  459MOL0     C61869   9.933   6.228  12.205 -0.7865  0.2516 -0.0185
  459MOL0     C61870   9.973   6.238  12.349 -0.8510 -0.2937  0.6669
  459MOL0     C61871   9.967   6.379  12.409 -0.3349 -0.2503 -0.1005
  459MOL0     C61872  10.085   6.465  12.370  0.3216  0.7490 -0.8090
  459MOL0     C61873  10.105   6.583  12.466 -0.5318  0.4339  0.2349
  459MOL0    Cl61874   9.963   6.699  12.482 -0.1334 -0.3565 -0.1012
  459MOL0     C61875   9.382   6.436  11.871 -0.4782 -0.2532 -0.2636
  459MOL0     C61876   9.252   6.454  11.817 -0.0736  0.0315  0.1755
  459MOL0     O61877   8.968   6.434  11.816 -0.1293  1.1802 -0.4379
  459MOL0     C61878   8.908   6.526  11.479 -0.7374 -0.3185 -0.8506
  459MOL0     C61879   8.808   6.585  11.403 -0.5390  0.2944  0.0981
  459MOL0     N61880   8.098   6.920  11.263 -0.2875 -1.0349 -0.6350
  459MOL0     N61881   7.975   6.904  11.304 -0.0316 -0.8497 -0.2903
  459MOL0     C61882   6.884   6.862  10.948  0.8252  0.4611 -0.2908
  459MOL0     C61883   6.755   6.810  10.969 -0.2743 -0.4998  0.1426
  459MOL0     C61884   6.344   6.776  11.164  0.0183  0.4996  0.4588
  459MOL0     C61885   6.278   6.737  11.048  0.4553  1.2500 -0.3095
  459MOL0     C61886   6.145   6.697  11.046  0.5512 -0.6306  0.1850
  459MOL0     C61887   6.076   6.698  11.166  0.2680  0.8392 -0.3756
  459MOL0     O61888   5.939   6.669  11.149  0.7780 -0.2194  0.6659
  459MOL0     C61889   5.872   6.637  11.271  0.4638 -0.5351 -0.1016
  459MOL0     C61890   5.726   6.612  11.244 -0.0053 -0.9411  0.1050
  459MOL0     C61891   5.644   6.597  11.374  0.7824 -0.8050 -0.2706
  459MOL0     C61892   5.695   6.478  11.455 -0.5736  0.6694  0.6777
  459MOL0     C61893   5.633   6.458  11.589 -0.3264  0.2208  0.3004
  459MOL0     C61894   5.593   6.450  11.703 -0.4513  0.1889  0.1525
  459MOL0     C61895   6.138   6.734  11.293  0.4285 -0.1681  0.4139
  459MOL0     C61896   6.275   6.775  11.290  0.8070 -0.3591  0.4145
  459MOL0     C61897   6.345   6.805  11.425  0.4520 -0.0321  0.1818
  459MOL0     H61898   6.579   7.088  11.002 -0.0172  0.4309 -0.7899
  459MOL0     H61899   6.806   7.186  10.963 -4.8452  1.2230  1.4154
  459MOL0     H61900   7.152   6.933  11.006  0.3016  0.1827  0.3277
  459MOL0     H61901   7.129   6.888  10.828 -0.0202 -1.4798  1.6478
  459MOL0     H61902   7.271   7.130  10.927 -1.7964  1.1602 -1.4871
  459MOL0     H61903   7.256   7.070  10.763 -0.2783  1.6815  0.6178
  459MOL0     H61904   7.455   6.993  10.785  0.8297 -2.7901 -1.4731
  459MOL0     H61905   7.378   6.858  10.847  2.2253 -0.6560  2.3365
  459MOL0     H61906   7.541   7.060  10.999 -1.7290  1.4275  1.8895
  459MOL0     H61907   7.405   7.005  11.088  2.1532 -1.4748  2.5670
  459MOL0     H61908   7.485   6.777  11.052 -1.9824  2.6300 -0.4738
  459MOL0     H61909   7.620   6.836  10.951  0.0693 -0.7240 -0.6653
  459MOL0     H61910   7.731   6.934  11.160 -0.0142 -0.4317  0.7991
  459MOL0     H61911   7.584   6.924  11.242  0.1569  2.6706 -0.1052
  459MOL0     H61912   7.735   6.693  11.097 -0.5548  0.6724 -0.1152
  459MOL0     H61913   7.612   6.663  11.220  0.0170  0.0388  0.0471
  459MOL0     H61914   7.772   6.759  11.393  2.0643  1.1978  0.7859
  459MOL0     H61915   7.829   6.609  11.309  1.1622  0.1674 -1.5667
  459MOL0     H61916   8.039   6.621  11.162  1.7370  0.4105 -1.3786
  459MOL0     H61917   8.237   6.697  11.041 -0.6555  1.3525 -0.7503
  459MOL0     H61918   8.299   6.853  11.073 -2.4935 -0.2472 -1.8467
  459MOL0     H61919   8.324   6.636  11.289  1.5372  1.8228  2.7675
  459MOL0     H61920   8.450   6.686  11.165  0.0712  1.6861 -0.8526
  459MOL0     H61921   8.346   6.896  11.343 -0.7140  0.3490 -0.9174
  459MOL0     H61922   8.490   6.892  11.251 -0.5089  1.7134  2.9068
  459MOL0     H61923   8.430   6.699  11.481 -1.2497  1.5548  0.5931
  459MOL0     H61924   8.533   6.846  11.488 -0.6493  1.0400 -1.2638
  459MOL0     H61925   8.564   6.592  11.635  0.6069  2.8510  0.9316
  459MOL0     H61926   8.742   6.498  11.769  0.3440 -2.3530  0.2025
  459MOL0     H61927   9.269   6.224  11.560  0.0437 -1.0792  0.5194
  459MOL0     H61928   9.493   6.178  11.666  0.5349  0.3719 -0.0824
  459MOL0     H61929   9.621   6.433  12.016  0.5161 -0.5335  2.1665
  459MOL0     H61930   9.543   6.281  12.059  0.3979  0.9497  0.8375
  459MOL0     H61931   9.747   6.154  12.015 -1.4156  0.9646 -2.5722
  459MOL0     H61932   9.832   6.291  11.962  0.2033 -1.6308 -0.3511
  459MOL0     H61933   9.785   6.398  12.194 -0.3063 -1.2121  0.9849
  459MOL0     H61934   9.721   6.249  12.247 -0.6322  1.7026  1.2242
  459MOL0     H61935  10.010   6.271  12.140 -1.3973 -0.1329 -1.0273
  459MOL0     H61936   9.924   6.123  12.173  3.4392  0.4407 -2.5538
  459MOL0     H61937  10.071   6.191  12.355 -0.2196  0.5515 -1.8852
  459MOL0     H61938   9.906   6.175  12.408 -0.6093 -1.3046 -0.1044
  459MOL0     H61939   9.873   6.432  12.389  0.5983  2.5113  2.0927
  459MOL0     H61940   9.971   6.364  12.517 -1.2230  0.7637  0.0935
  459MOL0     H61941  10.059   6.507  12.272 -1.9117  2.4834  0.4380
  459MOL0     H61942  10.174   6.402  12.369 -1.4381 -1.9572 -0.1065
  459MOL0     H61943  10.125   6.546  12.567  0.8110 -0.9144 -0.4858
  459MOL0     H61944  10.192   6.644  12.438 -1.9259  2.0038 -0.8646
  459MOL0     H61945   9.411   6.499  11.954 -1.8975 -0.0178  0.0895
  459MOL0     H61946   9.182   6.525  11.859 -1.1011 -0.0083 -1.3726
  459MOL0     H61947   9.009   6.511  11.442  0.6521 -0.0493  2.4472
  459MOL0     H61948   8.840   6.607  11.302 -0.6651  2.2377  0.4359
  459MOL0     H61949   6.968   6.794  10.946 -0.1785 -0.8439 -2.7176
  459MOL0     H61950   6.749   6.703  10.982  0.0402 -0.1693  4.0970
  459MOL0     H61951   6.322   6.735  10.949 -3.0360 -0.1589 -2.0120
  459MOL0     H61952   6.101   6.668  10.952 -2.5824 -0.5618  1.5005
  459MOL0     H61953   5.874   6.732  11.325  1.9517  0.2722 -1.4898
  459MOL0     H61954   5.914   6.552  11.326  0.8606  0.3937  1.0639
  459MOL0     H61955   5.724   6.526  11.176  1.9753 -2.3755  1.7531
  459MOL0     H61956   5.680   6.693  11.185 -0.3042 -1.3723 -0.2597
  459MOL0     H61957   5.540   6.577  11.348  0.2936 -0.8905  1.6200
  459MOL0     H61958   5.642   6.690  11.432 -0.9161 -0.9612 -0.0337
  459MOL0     H61959   5.684   6.382  11.404  0.3116  1.4539 -1.0787
  459MOL0     H61960   5.802   6.488  11.473  0.0305 -1.5065 -1.2913
  459MOL0     H61961   5.550   6.441  11.801 -1.6300 -1.8563 -0.4873
  459MOL0     H61962   6.089   6.729  11.391 -0.2077 -3.6125  0.0710
  459MOL0     H61963   6.275   6.800  11.510  0.7421 -0.8994  0.3873
  459MOL0     H61964   6.426   6.734  11.445  0.1953 -1.3728 -2.9732
  459MOL0     H61965   6.395   6.902  11.422  0.4499 -0.0592 -0.9451
  460MOL0     O61966   4.437   5.803   8.943  0.4430  0.4380 -0.1511
  460MOL0     C61967   4.423   5.904   8.877 -0.4159 -0.1117  0.1327
  460MOL0     O61968   4.519   5.978   8.809 -0.5514  0.5102  0.3452
  460MOL0     C61969   4.640   5.964   8.873  0.2485 -0.9720  1.1258
  460MOL0     C61970   4.740   5.893   8.810  0.0961 -0.1236  1.4210
  460MOL0     C61971   4.870   5.880   8.863  0.3665 -0.0495 -0.2687
  460MOL0     C61972   4.906   5.955   8.979 -0.9584 -0.4674 -0.7980
  460MOL0     O61973   5.038   5.934   9.019 -0.5826 -0.2738  0.3049
  460MOL0     C61974   5.070   5.994   9.146  0.5337 -0.6946 -0.6485
  460MOL0     C61975   5.211   5.965   9.181  0.6751 -0.2002 -0.6415
  460MOL0     C61976   5.308   6.013   9.075  0.2241 -0.1550  0.3631
  460MOL0     C61977   5.455   5.986   9.111  0.3698 -0.7049 -0.3459
  460MOL0     C61978   5.535   6.020   8.984 -1.0822 -0.4083  0.7787
  460MOL0     C61979   5.689   5.976   8.996  0.1671 -0.3378 -0.3295
  460MOL0     C61980   5.769   6.009   8.870 -0.1289  0.5233 -0.3614
  460MOL0     C61981   5.911   5.937   8.888 -0.7723  0.0073  0.2387
  460MOL0     N61982   6.003   5.972   8.776  0.3978  0.1013  0.3167
  460MOL0     C61983   6.092   6.081   8.785 -0.0705 -0.4935  0.6147
  460MOL0     C61984   6.169   6.080   8.671 -0.0044 -0.0631 -0.3334
  460MOL0     C61985   6.270   6.177   8.631  0.3228 -1.0021 -0.0002
  460MOL0     C61986   6.402   6.109   8.606  0.5678  0.2540 -0.5486
  460MOL0     C61987   6.517   6.197   8.589 -0.2608 -1.0020  0.9538
  460MOL0     C61988   6.645   6.120   8.557 -1.5526  0.3999  0.4666
  460MOL0     O61989   6.757   6.212   8.574 -0.0869 -0.0749  0.5993
  460MOL0     C61990   6.881   6.176   8.528 -0.5372  0.7288  0.0829
  460MOL0     C61991   6.926   6.047   8.495 -0.8214 -0.0295 -0.0863
  460MOL0     C61992   7.063   6.040   8.443  0.5961  0.4719  0.1377
  460MOL0     C61993   7.139   6.158   8.428  0.2017  0.5726 -0.6391
  460MOL0     C61994   7.267   6.149   8.358  0.5685  0.0110 -0.7773
  460MOL0     O61995   7.331   6.025   8.352  0.6039  0.2743  1.0300
  460MOL0     C61996   7.464   6.028   8.311 -0.5944  0.1882  0.4746
  460MOL0     C61997   7.570   6.088   8.376 -0.2179 -0.0186 -0.3874
  460MOL0     C61998   7.699   6.084   8.319  0.7818  0.4099 -0.2407
  460MOL0     C61999   7.720   6.022   8.191 -0.5403  0.2496 -1.6628
  460MOL0     O62000   7.850   6.022   8.146 -0.6485  0.1769  0.6291
  460MOL0     C62001   7.918   5.905   8.204  0.3777 -0.0118 -0.8676
  460MOL0     C62002   8.067   5.924   8.214 -0.8496  0.2115  0.2920
  460MOL0     C62003   8.146   5.881   8.084  0.5127 -0.7623 -0.1996
  460MOL0     C62004   8.299   5.882   8.113  0.4292 -0.0007  0.0562
  460MOL0     C62005   8.364   5.833   7.983  0.6467 -0.4524  0.4509
  460MOL0     C62006   8.516   5.801   8.004 -0.1038 -0.0232  0.5774
  460MOL0     C62007   8.584   5.924   8.042  0.5120  0.2998 -0.1900
  460MOL0     C62008   8.737   5.903   8.045 -0.6922  0.8012  0.0041
  460MOL0    Cl62009   8.780   5.793   8.192  0.1654  0.2079  0.1256
  460MOL0     C62010   7.622   5.947   8.135 -0.3664  0.5603 -0.6425
  460MOL0     C62011   7.494   5.948   8.191 -0.8807 -0.0959 -0.8712
  460MOL0     O62012   7.315   6.254   8.314  0.3912  0.8297  0.2967
  460MOL0     C62013   7.084   6.283   8.470 -0.6847  0.9094 -0.0419
  460MOL0     C62014   6.956   6.290   8.524  0.3933 -0.1041  0.1778
  460MOL0     N62015   6.123   5.976   8.598 -0.2399  0.0551 -0.2254
  460MOL0     N62016   6.026   5.908   8.653  0.3033  0.1897  0.3719
  460MOL0     C62017   4.802   6.031   9.045  0.3811  0.3594  0.0050
  460MOL0     C62018   4.676   6.041   8.985  0.3279 -0.3095 -0.1513
  460MOL0     C62019   4.272   5.936   8.852 -0.3177 -0.2063  0.2988
  460MOL0     C62020   4.238   6.049   8.784  0.6612 -0.2745  0.9158
  460MOL0     C62021   4.110   6.091   8.759  1.3984 -0.4843  0.1809
  460MOL0     C62022   4.002   6.016   8.808 -0.1097 -0.2628  0.5947
  460MOL0     O62023   3.868   6.031   8.780 -0.2858  0.2767 -0.3701
  460MOL0     C62024   3.816   6.161   8.778  0.1813  0.5336  0.1051
  460MOL0     C62025   3.790   6.223   8.652  0.1430 -0.0279 -0.4667
  460MOL0     C62026   3.655   6.183   8.602  0.8823 -0.5291  0.5058
  460MOL0     C62027   3.545   6.241   8.682  0.2710 -0.1545  0.1281
  460MOL0     C62028   3.410   6.189   8.647  0.9463  0.1407 -0.4346
  460MOL0     C62029   3.296   6.156   8.610 -0.0182 -0.5714 -0.2704
  460MOL0     C62030   4.036   5.891   8.859 -0.5715 -0.2646 -0.4338
  460MOL0     C62031   4.166   5.849   8.884 -0.0603 -0.2131  0.9026
  460MOL0     C62032   4.183   5.712   8.946  0.0947  0.9909  0.4658
  460MOL0     H62033   4.689   5.850   8.724 -0.9852  1.0851  1.4304
  460MOL0     H62034   4.947   5.811   8.829 -0.7985 -2.3671  1.5754
  460MOL0     H62035   5.051   6.102   9.138 -1.2292 -0.9093  0.3137
  460MOL0     H62036   5.010   5.952   9.226  1.9697  0.4476  1.1177
  460MOL0     H62037   5.230   5.859   9.199 -0.3307 -0.2770  0.0884
  460MOL0     H62038   5.238   6.027   9.267  1.7525  0.9791 -1.7919
  460MOL0     H62039   5.298   6.121   9.064  2.2662  0.4929  3.5937
  460MOL0     H62040   5.288   5.966   8.978 -0.5476 -1.3635  1.0825
  460MOL0     H62041   5.488   6.053   9.191  2.9067 -0.4964 -1.4622
  460MOL0     H62042   5.468   5.886   9.153 -0.3265  0.5068  3.0608
  460MOL0     H62043   5.497   5.965   8.897  1.9266 -1.4290 -0.0173
  460MOL0     H62044   5.533   6.126   8.960  2.7709  0.1038  2.0180
  460MOL0     H62045   5.734   6.030   9.079 -2.2451 -0.4185  1.1119
  460MOL0     H62046   5.690   5.867   9.008  0.6056 -0.5251 -1.8407
  460MOL0     H62047   5.772   6.116   8.848 -0.9336  0.7012  0.3386
  460MOL0     H62048   5.703   5.963   8.797 -3.1371  1.3176  1.6820
  460MOL0     H62049   5.962   5.966   8.981  2.5586  0.7533 -1.6286
  460MOL0     H62050   5.909   5.829   8.870  3.4337 -0.2733  0.3937
  460MOL0     H62051   6.098   6.159   8.861  1.8136  1.4190 -1.3439
  460MOL0     H62052   6.241   6.242   8.548  0.2404 -0.7386  0.2373
  460MOL0     H62053   6.289   6.249   8.711  1.9420  1.5489 -2.4719
  460MOL0     H62054   6.413   6.036   8.687  1.2135  2.3361  1.3133
  460MOL0     H62055   6.390   6.054   8.512  1.5974  0.2347 -0.6760
  460MOL0     H62056   6.539   6.252   8.681 -0.6904  1.0614 -0.1167
  460MOL0     H62057   6.501   6.273   8.513  3.3112  0.1819  1.2290
  460MOL0     H62058   6.648   6.078   8.456 -0.3370 -1.0583  1.0645
  460MOL0     H62059   6.651   6.036   8.627 -0.7303 -0.3761 -0.4874
  460MOL0     H62060   6.866   5.958   8.510 -0.7539 -0.1461 -0.5236
  460MOL0     H62061   7.098   5.947   8.399 -0.7374  0.6717 -1.4296
  460MOL0     H62062   7.546   6.138   8.470  2.3035 -1.0406  0.8918
  460MOL0     H62063   7.784   6.129   8.369 -0.3952 -0.2712  2.5665
  460MOL0     H62064   7.891   5.872   8.305  4.1700 -0.0597  0.3029
  460MOL0     H62065   7.899   5.821   8.137 -0.2476  1.2891 -2.3799
  460MOL0     H62066   8.094   6.027   8.237 -0.7204  0.4914 -1.0708
  460MOL0     H62067   8.117   5.859   8.287 -1.6477 -3.1324 -1.9304
  460MOL0     H62068   8.107   5.783   8.057 -0.5552 -1.0853  2.2709
  460MOL0     H62069   8.118   5.950   8.005 -0.1789 -2.6855 -1.7044
  460MOL0     H62070   8.334   5.823   8.198  2.1891 -0.4409 -0.9392
  460MOL0     H62071   8.337   5.983   8.128  0.3449  0.3167 -1.6235
  460MOL0     H62072   8.350   5.898   7.896  0.0002 -1.1220  0.0474
  460MOL0     H62073   8.323   5.736   7.953 -1.9274  1.2073 -1.9267
  460MOL0     H62074   8.534   5.724   8.080  2.6079 -1.4391 -1.3322
  460MOL0     H62075   8.564   5.756   7.917 -0.5540 -2.2263  1.3717
  460MOL0     H62076   8.559   5.956   8.143  0.3354  0.4333 -0.2753
  460MOL0     H62077   8.558   6.007   7.976  1.1462  0.3566 -0.3808
  460MOL0     H62078   8.780   5.851   7.959 -0.7987  1.2564 -0.3254
  460MOL0     H62079   8.782   6.002   8.055  0.1251  0.6066 -1.5135
  460MOL0     H62080   7.651   5.877   8.059  0.7884 -1.5897  1.6359
  460MOL0     H62081   7.419   5.883   8.145 -0.0471  0.0327 -2.4794
  460MOL0     H62082   7.148   6.369   8.452 -2.1496  1.8982 -0.7157
  460MOL0     H62083   6.904   6.379   8.558 -1.1037 -0.8506 -0.0772
  460MOL0     H62084   4.823   6.079   9.140 -3.6299  0.3072  1.1257
  460MOL0     H62085   4.599   6.102   9.032  1.8064  0.7832  0.9466
  460MOL0     H62086   4.321   6.104   8.739 -0.1400  0.0119 -0.2615
  460MOL0     H62087   4.097   6.178   8.696 -0.3615 -1.6592 -1.1967
  460MOL0     H62088   3.878   6.238   8.825 -1.5136  2.4657 -0.7155
  460MOL0     H62089   3.732   6.151   8.847  1.7996 -0.0982  2.0786
  460MOL0     H62090   3.877   6.208   8.587  1.6115 -0.4737  1.4756
  460MOL0     H62091   3.804   6.330   8.672  2.1355 -0.4256  0.5917
  460MOL0     H62092   3.649   6.075   8.614  0.6082 -0.6179 -0.3585
  460MOL0     H62093   3.638   6.198   8.495 -1.2711  0.5114  0.9310
  460MOL0     H62094   3.548   6.219   8.790  4.4215  0.8420  0.3585
  460MOL0     H62095   3.539   6.349   8.666 -0.1444 -0.3640 -1.2384
  460MOL0     H62096   3.196   6.125   8.588 -0.3396  0.8385 -0.8467
  460MOL0     H62097   3.954   5.828   8.893 -0.1084 -0.0704  1.1307
  460MOL0     H62098   4.255   5.647   8.895 -0.4758 -0.1843  1.0945
  460MOL0     H62099   4.224   5.719   9.047 -2.1903 -0.6361  1.6037
  460MOL0     H62100   4.089   5.658   8.964  1.2512 -0.5098  2.4575
  461MOL0     O62101  11.115   6.747   7.309  0.6059  0.0631  0.2039
  461MOL0     C62102  11.039   6.843   7.300  0.4162 -0.0348 -0.1054
  461MOL0     O62103  11.064   6.969   7.351  0.0195  0.0816 -0.1060
  461MOL0     C62104  11.161   6.990   7.449  0.1228 -0.3527  0.3956
  461MOL0     C62105  11.296   6.969   7.410  0.3260 -0.5371  0.6522
  461MOL0     C62106  11.398   7.015   7.496 -0.0206  0.2689 -0.6934
  461MOL0     C62107  11.363   7.079   7.615 -0.6577 -0.1086 -0.7494
  461MOL0     O62108  11.460   7.143   7.694 -0.1842 -0.4254  0.4267
  461MOL0     C62109  11.602   7.148   7.676  0.4734 -0.0676  0.0194
  461MOL0     C62110  11.670   7.253   7.763  0.6560  0.0542  0.4620
  461MOL0     C62111  11.633   7.397   7.726 -0.7969 -0.4828  0.1341
  461MOL0     C62112  11.732   7.441   7.626  0.5679 -0.0782 -0.0417
  461MOL0     C62113  11.703   7.594   7.607  0.1445 -0.5848 -0.4221
  461MOL0     C62114  11.823   7.649   7.521 -0.2081 -0.4221 -0.3131
  461MOL0     C62115  11.807   7.801   7.503  0.0326 -0.3580 -0.5920
  461MOL0     C62116  11.934   7.860   7.444 -0.8780 -0.0134 -0.2291
  461MOL0     N62117  12.057   7.858   7.527 -0.1568  0.1031  0.5469
  461MOL0     C62118  12.076   7.947   7.627 -0.4524 -0.0532 -0.4457
  461MOL0     C62119  12.205   7.913   7.667 -0.0526 -0.8105  0.2598
  461MOL0     C62120  12.281   7.980   7.773 -0.4678  0.1240  0.5899
  461MOL0     C62121  12.354   8.098   7.706 -0.3802 -0.3283  0.6478
  461MOL0     C62122  12.399   8.202   7.814  0.1824 -0.0877  0.9203
  461MOL0     C62123  12.498   8.155   7.913  0.5530  0.5950  0.1192
  461MOL0     O62124  12.569   8.265   7.977 -0.3494  0.5857 -0.2305
  461MOL0     C62125  12.674   8.225   8.052 -0.1405 -0.5187 -0.3011
  461MOL0     C62126  12.716   8.090   8.062 -0.0690  0.4930 -0.1528
  461MOL0     C62127  12.846   8.061   8.114  0.1039  0.3215  0.7022
  461MOL0     C62128  12.917   8.162   8.183  0.2474 -0.2821  0.6987
  461MOL0     C62129  13.050   8.131   8.246 -0.7744  0.4304  0.4419
  461MOL0     O62130  13.115   8.231   8.314 -0.2204 -0.5153 -0.1022
  461MOL0     C62131  13.239   8.216   8.374 -1.1425  0.1078 -0.4717
  461MOL0     C62132  13.333   8.310   8.341 -0.9562 -0.0137 -0.3665
  461MOL0     C62133  13.459   8.308   8.411 -0.3443 -0.2642 -0.5044
  461MOL0     C62134  13.491   8.200   8.499 -0.1568  0.7540 -0.1662
  461MOL0     O62135  13.613   8.173   8.555  0.0082  0.0922  0.2017
  461MOL0     C62136  13.726   8.235   8.494  0.1864  0.4996  0.0643
  461MOL0     C62137  13.854   8.180   8.549 -0.2298 -0.4109  0.8373
  461MOL0     C62138  13.982   8.251   8.505 -0.8479  0.3344 -0.7166
  461MOL0     C62139  14.105   8.186   8.575  0.6526  0.5935 -0.1281
  461MOL0     C62140  14.232   8.268   8.559  1.3272 -0.3293  0.3447
  461MOL0     C62141  14.280   8.279   8.414 -0.7198  0.5456 -0.2678
  461MOL0     C62142  14.417   8.358   8.397  0.0724  0.2979  0.3143
  461MOL0     C62143  14.526   8.247   8.399  0.4953 -0.7581  0.0713
  461MOL0    Cl62144  14.698   8.309   8.384 -0.3084 -0.6649  0.3758
  461MOL0     C62145  13.390   8.118   8.541 -0.1884  0.4921 -0.0421
  461MOL0     C62146  13.264   8.127   8.480 -0.7842 -0.6245  0.0634
  461MOL0     O62147  13.101   8.023   8.226 -0.2570 -0.2912 -0.4241
  461MOL0     C62148  12.869   8.294   8.180  0.5273  0.0649 -0.5912
  461MOL0     C62149  12.760   8.321   8.103  0.6677  0.5585  0.0984
  461MOL0     N62150  12.250   7.805   7.595 -0.3455 -0.3826 -0.1765
  461MOL0     N62151  12.160   7.771   7.505 -0.0717  0.3856  0.4872
  461MOL0     C62152  11.227   7.093   7.653  0.3071  0.4171  0.0061
  461MOL0     C62153  11.129   7.053   7.563  1.0586 -0.6141  0.4570
  461MOL0     C62154  10.913   6.819   7.224 -0.0155  0.8824  0.4408
  461MOL0     C62155  10.914   6.735   7.114 -0.1031  0.0342  0.6001
  461MOL0     C62156  10.806   6.726   7.023 -0.1812 -0.4083  0.0855
  461MOL0     C62157  10.687   6.789   7.057 -0.7916  0.5840 -0.3195
  461MOL0     O62158  10.586   6.767   6.973  0.6547  0.0357  0.0210
  461MOL0     C62159  10.448   6.802   7.007 -0.0483  0.2284  0.3221
  461MOL0     C62160  10.349   6.782   6.898 -0.0647  0.5441 -0.2817
  461MOL0     C62161  10.391   6.862   6.770  0.1270  0.3499 -0.1461
  461MOL0     C62162  10.281   6.846   6.670 -0.4820 -0.3665  0.6837
  461MOL0     C62163  10.240   6.711   6.638  0.1835  0.2499 -0.3910
  461MOL0     C62164  10.208   6.591   6.637  0.5344  0.2240  0.9473
  461MOL0     C62165  10.678   6.862   7.173  0.0258  0.6633  0.0861
  461MOL0     C62166  10.784   6.875   7.259  0.4127  1.1060 -0.7219
  461MOL0     C62167  10.768   6.941   7.392 -0.0583 -0.0807 -0.5417
  461MOL0     H62168  11.314   6.916   7.317  0.6226  0.9924 -0.1859
  461MOL0     H62169  11.495   7.011   7.447 -1.6893 -0.4929 -4.2936
  461MOL0     H62170  11.640   7.047   7.694 -4.3725 -2.0151  0.7550
  461MOL0     H62171  11.631   7.148   7.570  0.0383 -2.1063 -0.1315
  461MOL0     H62172  11.778   7.240   7.769  0.6374  0.4922  2.9939
  461MOL0     H62173  11.642   7.238   7.868 -2.0940  1.3552  0.0142
  461MOL0     H62174  11.632   7.465   7.812 -1.8999 -1.6564  1.0770
  461MOL0     H62175  11.531   7.405   7.688 -0.5666 -2.8520 -1.1281
  461MOL0     H62176  11.836   7.435   7.659  1.1719 -1.8010 -2.0653
  461MOL0     H62177  11.720   7.379   7.537  0.6343 -0.2117  0.0428
  461MOL0     H62178  11.599   7.619   7.583 -0.2232 -1.9553 -0.2950
  461MOL0     H62179  11.726   7.641   7.703  1.7887  0.1905 -1.1452
  461MOL0     H62180  11.912   7.631   7.582 -1.0555 -1.5010  0.6541
  461MOL0     H62181  11.830   7.586   7.432 -0.8463 -2.6091  1.1033
  461MOL0     H62182  11.775   7.849   7.596  2.5382 -1.1280  0.7628
  461MOL0     H62183  11.724   7.817   7.433  0.9892  1.9819 -1.2856
  461MOL0     H62184  11.950   7.824   7.342 -2.7888  1.1738 -1.0176
  461MOL0     H62185  11.927   7.968   7.429  0.8770  0.1135 -0.2755
  461MOL0     H62186  12.008   8.025   7.659  0.3102  1.2551 -1.8833
  461MOL0     H62187  12.220   8.027   7.851 -0.8273  2.0721 -0.7693
  461MOL0     H62188  12.361   7.915   7.808  2.1165  2.4704 -0.5918
  461MOL0     H62189  12.432   8.062   7.638 -1.9879 -3.9089  0.4528
  461MOL0     H62190  12.287   8.155   7.641 -0.1340  0.3341  0.9640
  461MOL0     H62191  12.308   8.230   7.867 -0.6168  1.2557 -1.0413
  461MOL0     H62192  12.439   8.291   7.764  2.8291 -1.0204  1.2213
  461MOL0     H62193  12.573   8.097   7.858 -0.2643  0.1719 -0.5851
  461MOL0     H62194  12.450   8.090   7.986 -2.1882  1.8821 -0.4282
  461MOL0     H62195  12.662   8.005   8.021  1.4578 -0.0568 -1.0984
  461MOL0     H62196  12.888   7.962   8.096 -0.3236  0.3755 -0.6985
  461MOL0     H62197  13.318   8.386   8.265  1.2211  0.7547 -0.0970
  461MOL0     H62198  13.539   8.379   8.390 -1.0321 -0.0602 -2.6449
  461MOL0     H62199  13.718   8.216   8.387 -2.0623 -0.1530  0.2918
  461MOL0     H62200  13.725   8.344   8.507 -3.0142  0.5194  0.5420
  461MOL0     H62201  13.844   8.183   8.658  1.2702 -1.6979  1.0435
  461MOL0     H62202  13.857   8.073   8.529 -0.9020 -0.4545  0.9483
  461MOL0     H62203  13.983   8.244   8.396  0.2854  1.7928 -0.8297
  461MOL0     H62204  13.979   8.357   8.531  0.0302  0.2325 -0.1609
  461MOL0     H62205  14.125   8.085   8.537 -1.4908  0.3347 -0.6790
  461MOL0     H62206  14.084   8.168   8.680  0.0973  0.0988 -0.3194
  461MOL0     H62207  14.305   8.220   8.624  0.0797 -1.3289  1.0373
  461MOL0     H62208  14.211   8.367   8.600 -0.5858 -0.0984 -1.0037
  461MOL0     H62209  14.276   8.183   8.361 -2.1708  0.2073  0.3971
  461MOL0     H62210  14.206   8.345   8.366 -0.5069  0.0446 -1.3140
  461MOL0     H62211  14.446   8.433   8.471 -0.1068  0.5698  0.1125
  461MOL0     H62212  14.422   8.407   8.299 -2.4812  2.2156  1.0377
  461MOL0     H62213  14.521   8.192   8.494 -0.3235  2.0963  1.8369
  461MOL0     H62214  14.505   8.176   8.319 -0.6477 -0.5668  0.1804
  461MOL0     H62215  13.410   8.048   8.622  2.6461  2.8855  1.5136
  461MOL0     H62216  13.190   8.056   8.514  0.6999 -2.7297 -0.7962
  461MOL0     H62217  12.924   8.377   8.223 -1.5860  1.8545 -1.1458
  461MOL0     H62218  12.729   8.424   8.092  1.5825  0.7247 -1.0958
  461MOL0     H62219  11.197   7.137   7.748 -0.4848  1.6252 -0.7599
  461MOL0     H62220  11.026   7.089   7.571  1.1152  0.1978 -1.6763
  461MOL0     H62221  10.994   6.667   7.085 -1.2968 -0.0306 -2.9723
  461MOL0     H62222  10.820   6.687   6.923  0.8546 -1.4087  0.5923
  461MOL0     H62223  10.442   6.907   7.035  4.1416  0.6859  0.1257
  461MOL0     H62224  10.404   6.741   7.086  0.8843 -0.1270  0.5837
  461MOL0     H62225  10.251   6.815   6.933  0.4011  0.0624  1.6283
  461MOL0     H62226  10.349   6.676   6.874 -0.0888  0.1240  1.4194
  461MOL0     H62227  10.484   6.819   6.731 -0.5156  0.0273 -1.3653
  461MOL0     H62228  10.396   6.967   6.799  0.5849 -0.2378  2.1278
  461MOL0     H62229  10.198   6.913   6.695  0.0944  0.4412  0.4682
  461MOL0     H62230  10.320   6.895   6.580 -0.5150  0.5074  1.1405
  461MOL0     H62231  10.190   6.486   6.649  0.2940  0.1016 -0.3297
  461MOL0     H62232  10.586   6.893   7.221 -2.0128 -3.1058 -0.9860
  461MOL0     H62233  10.787   7.048   7.383 -0.6076 -0.1555 -3.6324
  461MOL0     H62234  10.666   6.938   7.431 -0.6012  1.9882 -1.6348
  461MOL0     H62235  10.818   6.891   7.475  1.3333  0.7310 -0.8747
  462MOL0     O62236   0.324  10.774  10.429  0.2865  0.0178 -0.0273
  462MOL0     C62237   0.299  10.710  10.523  0.0167 -0.2246 -0.5186
  462MOL0     O62238   0.383  10.703  10.630  0.3455  0.0502 -0.6459
  462MOL0     C62239   0.512  10.734  10.607 -0.9087 -0.4527 -0.3372
  462MOL0     C62240   0.573  10.853  10.651  0.4969 -0.4895  0.0813
  462MOL0     C62241   0.703  10.890  10.615 -1.2025  0.2255 -0.0463
  462MOL0     C62242   0.768  10.802  10.532  0.0342 -0.0495  0.1716
  462MOL0     O62243   0.902  10.811  10.499 -0.1116 -0.7873  0.7595
  462MOL0     C62244   0.964  10.939  10.489 -0.1792  0.2847 -0.3749
  462MOL0     C62245   1.106  10.895  10.424  0.0660  0.4371 -0.5319
  462MOL0     C62246   1.197  10.820  10.525  0.6725  0.5206  0.6550
  462MOL0     C62247   1.330  10.780  10.461  0.1135 -0.6280 -0.5952
  462MOL0     C62248   1.432  10.732  10.566 -0.3942 -0.5721 -0.4381
  462MOL0     C62249   1.502  10.840  10.649  0.1244  0.3390 -0.5274
  462MOL0     C62250   1.541  10.968  10.576  0.7937 -0.3515 -0.7187
  462MOL0     C62251   1.582  11.097  10.655  0.0638 -0.1993  0.2032
  462MOL0     N62252   1.718  11.095  10.710  0.3112 -0.4852  0.2420
  462MOL0     C62253   1.769  11.006  10.796  0.1008  0.5955 -0.6983
  462MOL0     C62254   1.883  11.054  10.844 -0.0708  0.1650 -0.5802
  462MOL0     C62255   1.984  10.998  10.939  0.2148 -0.3201  0.3407
  462MOL0     C62256   2.133  11.034  10.911  0.0545 -0.0525 -0.0147
  462MOL0     C62257   2.216  10.920  10.981  0.8489  0.0904  0.4587
  462MOL0     C62258   2.361  10.961  10.999  0.6275  0.2162  0.0763
  462MOL0     O62259   2.403  10.884  11.110 -1.0576 -0.6643  0.1426
  462MOL0     C62260   2.504  10.936  11.191 -0.2142  0.3375 -0.9176
  462MOL0     C62261   2.541  10.868  11.308 -0.2143 -0.0182 -0.1696
  462MOL0     C62262   2.646  10.902  11.394 -0.3596 -0.0805  0.4521
  462MOL0     C62263   2.726  11.010  11.361  0.0053  0.5293  0.1662
  462MOL0     C62264   2.837  11.050  11.453  0.9481 -0.6936  0.7433
  462MOL0     O62265   2.940  11.110  11.392 -0.1547  0.0477  0.1062
  462MOL0     C62266   3.066  11.133  11.459  1.0247 -0.6164 -0.5437
  462MOL0     C62267   3.114  11.035  11.554 -0.2390 -0.2290 -0.5933
  462MOL0     C62268   3.231  11.058  11.624 -0.2234  0.5568 -0.0531
  462MOL0     C62269   3.317  11.164  11.589 -0.9452  0.3392 -0.4185
  462MOL0     O62270   3.447  11.189  11.634 -0.0835  0.6654 -0.0176
  462MOL0     C62271   3.534  11.089  11.688 -0.2457  0.2795 -0.0991
  462MOL0     C62272   3.546  11.093  11.839  0.3276 -0.2163 -0.3717
  462MOL0     C62273   3.637  11.212  11.881 -0.6718 -0.1199 -0.3786
  462MOL0     C62274   3.658  11.244  12.026 -0.0313  0.2448  0.0123
  462MOL0     C62275   3.737  11.377  12.050  1.0628  0.3888 -0.0955
  462MOL0     C62276   3.783  11.375  12.201  0.0150 -0.1198  0.4574
  462MOL0     C62277   3.891  11.485  12.227 -0.4630 -0.7912  0.0313
  462MOL0     C62278   3.916  11.501  12.376 -0.7675 -0.1916  0.9635
  462MOL0    Cl62279   3.963  11.343  12.455  0.5419 -0.4491 -0.1966
  462MOL0     C62280   3.261  11.263  11.509 -0.1222 -0.2537 -0.5198
  462MOL0     C62281   3.134  11.254  11.449  0.0736 -0.3519 -0.4890
  462MOL0     O62282   2.817  11.039  11.575 -0.3211 -0.2501  0.2100
  462MOL0     C62283   2.696  11.080  11.243 -0.3079 -0.3962  0.2212
  462MOL0     C62284   2.582  11.046  11.161 -0.7843 -0.0396 -0.0051
  462MOL0     N62285   1.907  11.169  10.769 -0.3654  0.0274  0.6730
  462MOL0     N62286   1.816  11.186  10.686 -0.6159  0.2467  0.5013
  462MOL0     C62287   0.714  10.677  10.496  0.5471  0.1330 -0.0524
  462MOL0     C62288   0.582  10.648  10.519 -0.0448 -0.3079 -0.5210
  462MOL0     C62289   0.157  10.654  10.525  0.2370 -0.9800 -0.8334
  462MOL0     C62290   0.079  10.670  10.411  0.5829 -0.6833  0.5548
  462MOL0     C62291  -0.057  10.661  10.423  0.3833  0.3357  0.6058
  462MOL0     C62292  -0.120  10.622  10.533  0.4251 -0.0233  0.3945
  462MOL0     O62293  -0.259  10.587  10.552 -0.5878 -0.2980 -0.7018
  462MOL0     C62294  -0.348  10.584  10.438  0.5311 -0.4228  1.5892
  462MOL0     C62295  -0.483  10.558  10.498  0.4762 -0.7114 -0.6855
  462MOL0     C62296  -0.563  10.476  10.403 -0.2171  0.2072  0.3719
  462MOL0     C62297  -0.708  10.443  10.442  0.1105  1.0768 -0.4567
  462MOL0     C62298  -0.806  10.549  10.418 -0.0305 -0.0694 -0.1187
  462MOL0     C62299  -0.867  10.647  10.415  1.4029  0.2681  0.1708
  462MOL0     C62300  -0.042  10.581  10.647  0.4376 -0.3954  0.7837
  462MOL0     C62301   0.094  10.606  10.649 -0.2478  0.2677  1.0055
  462MOL0     C62302   0.169  10.598  10.782  0.0990 -0.0970  0.7379
  462MOL0     H62303   0.512  10.910  10.721  1.2731  0.5214 -0.0391
  462MOL0     H62304   0.750  10.976  10.661  0.5280 -2.2642  3.2859
  462MOL0     H62305   0.910  11.008  10.424 -0.9289  0.5118  0.4639
  462MOL0     H62306   0.981  10.986  10.587  0.7233 -0.0193 -0.3801
  462MOL0     H62307   1.153  10.986  10.388 -0.9270  0.7706 -1.0330
  462MOL0     H62308   1.088  10.836  10.333 -1.0182  1.3998 -0.9703
  462MOL0     H62309   1.157  10.723  10.556  1.1159 -1.0501 -3.1141
  462MOL0     H62310   1.212  10.882  10.613  2.8863 -1.0657  1.4730
  462MOL0     H62311   1.297  10.706  10.388  1.5193 -0.8771 -1.0019
  462MOL0     H62312   1.365  10.860  10.395  1.1001 -2.7976 -2.8714
  462MOL0     H62313   1.374  10.663  10.628  0.1304  0.6281  1.4575
  462MOL0     H62314   1.513  10.677  10.518 -0.9010 -1.8251  0.0954
  462MOL0     H62315   1.436  10.858  10.734 -0.0523 -1.7146 -0.1648
  462MOL0     H62316   1.595  10.795  10.687 -0.8040 -2.0463 -0.9137
  462MOL0     H62317   1.448  10.997  10.526  0.8947 -0.0531 -0.7357
  462MOL0     H62318   1.617  10.942  10.502 -0.4472  0.2125 -2.2498
  462MOL0     H62319   1.580  11.184  10.589  0.9202  0.1415  0.6214
  462MOL0     H62320   1.512  11.119  10.737  0.3343  1.2730  0.0582
  462MOL0     H62321   1.739  10.912  10.840  1.2614  0.8965  0.8458
  462MOL0     H62322   1.956  11.018  11.043 -4.5585 -1.6102 -0.4672
  462MOL0     H62323   1.979  10.890  10.920 -0.1959  0.0214 -1.7429
  462MOL0     H62324   2.146  11.035  10.803 -1.1217  1.2141 -0.1707
  462MOL0     H62325   2.163  11.132  10.949  2.7476 -0.8386  0.0353
  462MOL0     H62326   2.208  10.823  10.930  0.8420 -0.3494  1.2729
  462MOL0     H62327   2.170  10.917  11.080  0.3488  2.4184  0.3474
  462MOL0     H62328   2.359  11.069  11.020 -3.1381 -0.1958  2.9670
  462MOL0     H62329   2.426  10.945  10.913 -0.8058 -2.5929 -0.5923
  462MOL0     H62330   2.482  10.779  11.329  1.3320 -1.3016 -1.0140
  462MOL0     H62331   2.654  10.835  11.479  0.3854  0.0627  0.4966
  462MOL0     H62332   3.044  10.957  11.582 -0.9822  0.4252 -0.6290
  462MOL0     H62333   3.256  10.994  11.709 -3.4278 -3.3742 -1.7328
  462MOL0     H62334   3.513  10.986  11.656  0.5791 -0.2473  0.9789
  462MOL0     H62335   3.629  11.098  11.635 -0.4534  0.4043 -0.4530
  462MOL0     H62336   3.443  11.110  11.869  0.2669 -1.4574  0.2269
  462MOL0     H62337   3.575  10.996  11.883 -1.7272 -0.1280  1.3187
  462MOL0     H62338   3.733  11.209  11.827 -1.4757  0.5587 -1.9071
  462MOL0     H62339   3.587  11.299  11.839  2.4083  2.1012  0.2368
  462MOL0     H62340   3.713  11.165  12.078 -0.7496 -0.0529  0.3370
  462MOL0     H62341   3.560  11.258  12.071 -0.8181 -1.9719 -0.8442
  462MOL0     H62342   3.679  11.467  12.032 -0.7258  0.2855  4.0904
  462MOL0     H62343   3.818  11.373  11.976  0.6647 -1.0429 -0.4902
  462MOL0     H62344   3.692  11.395  12.259  0.7431  1.0099  1.2591
  462MOL0     H62345   3.835  11.282  12.229 -0.1223 -0.2610  0.2488
  462MOL0     H62346   3.865  11.587  12.195  1.0572 -0.5335 -0.4531
  462MOL0     H62347   3.984  11.453  12.180  0.2300  0.5159  0.4369
  462MOL0     H62348   3.998  11.573  12.378 -2.4107  1.8010 -0.1696
  462MOL0     H62349   3.824  11.541  12.420 -0.9263  1.9831 -1.1407
  462MOL0     H62350   3.318  11.354  11.493 -0.7717  0.7133  2.0588
  462MOL0     H62351   3.093  11.340  11.398  2.2820  0.5795 -0.8353
  462MOL0     H62352   2.768  11.156  11.212 -0.5973 -1.4174 -3.4111
  462MOL0     H62353   2.578  11.102  11.068 -1.4663 -2.5331 -1.5600
  462MOL0     H62354   0.771  10.605  10.437 -0.3348 -0.2218 -0.4784
  462MOL0     H62355   0.537  10.554  10.489  1.1253 -0.7418 -0.9666
  462MOL0     H62356   0.112  10.697  10.311 -1.1205  0.3700  0.2386
  462MOL0     H62357  -0.122  10.690  10.340 -0.4388 -0.7022  0.8741
  462MOL0     H62358  -0.306  10.512  10.367  0.4886  0.0484  1.0809
  462MOL0     H62359  -0.347  10.681  10.387 -1.5799 -1.4538 -0.5923
  462MOL0     H62360  -0.530  10.651  10.531  0.7752 -0.1487 -1.7974
  462MOL0     H62361  -0.478  10.506  10.594  2.2489  1.3098  0.4059
  462MOL0     H62362  -0.519  10.376  10.394  0.6880  0.6343 -0.1220
  462MOL0     H62363  -0.565  10.519  10.302 -1.3010  0.7973  0.6294
  462MOL0     H62364  -0.736  10.358  10.379  2.0781  1.2477 -1.6091
  462MOL0     H62365  -0.715  10.400  10.542  0.4954 -0.8158 -1.2027
  462MOL0     H62366  -0.924  10.738  10.409  0.4141 -0.3915 -1.4121
  462MOL0     H62367  -0.096  10.546  10.734 -3.6269  1.2784 -0.8022
  462MOL0     H62368   0.192  10.699  10.818 -0.2435 -0.1279  1.0460
  462MOL0     H62369   0.110  10.541  10.855 -0.9811  0.5405  0.3885
  462MOL0     H62370   0.258  10.535  10.770 -0.7132 -1.3163  0.9125
  463MOL0     O62371   2.021   2.060   2.959  0.0060 -0.1578  0.1760
  463MOL0     C62372   1.994   2.177   2.939 -0.7951 -0.3994 -0.2276
  463MOL0     O62373   2.080   2.283   2.977 -0.2086 -0.4480  0.0190
  463MOL0     C62374   2.208   2.252   3.006 -0.2175 -0.2572  0.5363
  463MOL0     C62375   2.299   2.212   2.900 -0.4525 -0.2800  0.0684
  463MOL0     C62376   2.429   2.191   2.944  0.3471  0.1044 -0.1687
  463MOL0     C62377   2.473   2.198   3.078  0.0411 -0.1184  0.0739
  463MOL0     O62378   2.601   2.181   3.111 -0.4527  0.1024 -0.0744
  463MOL0     C62379   2.686   2.091   3.034  0.5435  0.6162 -0.6689
  463MOL0     C62380   2.784   2.001   3.112 -0.0922  0.5583  0.1457
  463MOL0     C62381   2.898   2.093   3.165  0.0879  0.2831 -0.2737
  463MOL0     C62382   3.011   1.991   3.195 -0.5481  0.2199 -0.7542
  463MOL0     C62383   3.110   2.054   3.293 -0.5423  0.2821  0.9324
  463MOL0     C62384   3.190   2.168   3.230 -0.2959 -0.3330 -0.3546
  463MOL0     C62385   3.293   2.216   3.318  0.0266 -0.5750 -0.2228
  463MOL0     C62386   3.256   2.321   3.425 -0.5812  0.3789  0.6086
  463MOL0     N62387   3.374   2.355   3.511  0.4386 -0.7838 -0.0797
  463MOL0     C62388   3.496   2.297   3.520 -0.8745 -0.1209 -0.6448
  463MOL0     C62389   3.563   2.363   3.619 -0.8442 -0.0936  0.8783
  463MOL0     C62390   3.704   2.334   3.654  0.6009 -0.2777 -0.9343
  463MOL0     C62391   3.711   2.230   3.775 -0.4266  0.3535  0.4411
  463MOL0     C62392   3.692   2.303   3.906  0.5814  0.0534 -0.5015
  463MOL0     C62393   3.813   2.389   3.936  0.9224  0.7211 -0.3189
  463MOL0     O62394   3.855   2.353   4.070  0.1092  0.0774 -0.5133
  463MOL0     C62395   3.979   2.396   4.113 -0.0516  0.1255 -0.4813
  463MOL0     C62396   4.046   2.300   4.198 -0.6555 -0.8707 -0.6608
  463MOL0     C62397   4.168   2.339   4.262 -0.3669  0.5602 -0.2994
  463MOL0     C62398   4.230   2.460   4.214  0.2159 -0.1866 -0.4987
  463MOL0     C62399   4.358   2.512   4.268  0.3316  0.1771  0.5264
  463MOL0     O62400   4.418   2.433   4.363 -0.8486  0.1020  0.2505
  463MOL0     C62401   4.539   2.476   4.413  0.5442 -0.0378  0.1456
  463MOL0     C62402   4.664   2.465   4.345 -0.7440 -0.7369  0.0832
  463MOL0     C62403   4.787   2.485   4.408 -0.0729  0.5322  0.0025
  463MOL0     C62404   4.789   2.519   4.546  0.6967 -0.0615  0.8242
  463MOL0     O62405   4.912   2.547   4.593  0.3240  0.1276 -0.7334
  463MOL0     C62406   4.918   2.582   4.729 -0.4033 -0.7334  0.1465
  463MOL0     C62407   5.076   2.604   4.736 -0.1386 -0.4363  0.3927
  463MOL0     C62408   5.165   2.477   4.749  0.2478  0.5111 -0.2033
  463MOL0     C62409   5.287   2.495   4.839  1.0469  0.7673  0.5253
  463MOL0     C62410   5.387   2.382   4.810  0.0701 -0.5758  0.4349
  463MOL0     C62411   5.519   2.391   4.898  0.0108  0.7716 -0.7713
  463MOL0     C62412   5.595   2.256   4.889 -0.5616 -0.8630  0.7050
  463MOL0     C62413   5.702   2.266   4.999 -0.0320  0.0264 -0.0086
  463MOL0    Cl62414   5.814   2.132   4.993 -0.1692  0.1441  0.5243
  463MOL0     C62415   4.663   2.522   4.612 -0.2697  0.1011 -0.7466
  463MOL0     C62416   4.547   2.505   4.552  0.3645  0.5583 -0.2409
  463MOL0     O62417   4.400   2.619   4.230 -0.9628  0.0476  0.1763
  463MOL0     C62418   4.163   2.548   4.121 -0.2189  1.0175  0.2285
  463MOL0     C62419   4.049   2.506   4.058 -0.4325  0.2117 -1.1805
  463MOL0     N62420   3.485   2.464   3.656  0.4068 -0.0799 -0.5302
  463MOL0     N62421   3.368   2.458   3.596 -0.1397  0.4946  0.1368
  463MOL0     C62422   2.380   2.233   3.175 -0.1500 -0.0619 -0.4481
  463MOL0     C62423   2.247   2.257   3.137 -0.5573  0.1105 -1.0098
  463MOL0     C62424   1.859   2.198   2.878 -0.8591 -0.2669 -0.3103
  463MOL0     C62425   1.783   2.085   2.828 -0.3289 -0.2295  1.1474
  463MOL0     C62426   1.652   2.101   2.771 -0.8978 -0.5021  1.1814
  463MOL0     C62427   1.596   2.227   2.763 -0.0564 -0.1400  0.9229
  463MOL0     O62428   1.470   2.258   2.719 -0.1984 -0.3887  0.7543
  463MOL0     C62429   1.385   2.159   2.648  0.5926  0.6797 -0.9247
  463MOL0     C62430   1.244   2.215   2.632  0.4144 -0.0787  0.4925
  463MOL0     C62431   1.239   2.365   2.579 -0.4807 -0.1355  0.0732
  463MOL0     C62432   1.129   2.404   2.479  0.2714  0.0415  0.9836
  463MOL0     C62433   1.142   2.538   2.423 -0.5272 -1.2579 -0.8964
  463MOL0     C62434   1.137   2.649   2.370 -0.0332  0.2135  0.2620
  463MOL0     C62435   1.665   2.333   2.802  0.5172 -0.4995  0.3562
  463MOL0     C62436   1.796   2.321   2.851  0.6471 -0.0316 -0.2786
  463MOL0     C62437   1.862   2.446   2.888 -0.4056 -0.5818  0.7006
  463MOL0     H62438   2.278   2.201   2.794  3.8734  0.4414 -1.0582
  463MOL0     H62439   2.501   2.160   2.869  0.3946  1.8935 -0.8963
  463MOL0     H62440   2.616   2.027   2.980  0.7685 -0.1382 -0.0864
  463MOL0     H62441   2.749   2.151   2.968 -0.0610 -0.5990 -2.4253
  463MOL0     H62442   2.833   1.923   3.051  1.1855  0.2585  1.5034
  463MOL0     H62443   2.731   1.951   3.193  0.7369 -1.7381 -0.6481
  463MOL0     H62444   2.859   2.149   3.251 -1.6237 -0.5333 -0.4829
  463MOL0     H62445   2.938   2.156   3.084  0.2654 -0.8729 -1.1105
  463MOL0     H62446   2.974   1.903   3.249  1.4618  0.4589  1.1132
  463MOL0     H62447   3.064   1.957   3.106  2.3438  0.9821  0.5614
  463MOL0     H62448   3.046   2.080   3.378 -3.2418 -3.7592  0.3946
  463MOL0     H62449   3.188   1.980   3.309  0.8985  1.5420  0.0160
  463MOL0     H62450   3.237   2.126   3.141  2.1181 -0.7057  1.0074
  463MOL0     H62451   3.135   2.255   3.193  1.2007 -0.5362 -3.3808
  463MOL0     H62452   3.366   2.273   3.261  0.3654  1.2318  1.9036
  463MOL0     H62453   3.352   2.131   3.356  1.3323 -0.5116 -1.9978
  463MOL0     H62454   3.220   2.414   3.381 -0.3766 -0.1433 -0.7213
  463MOL0     H62455   3.172   2.276   3.478 -2.2282 -1.0260 -2.8389
  463MOL0     H62456   3.536   2.210   3.470  1.3292  1.0424 -1.0138
  463MOL0     H62457   3.754   2.282   3.571 -1.6347 -1.2338 -1.7497
  463MOL0     H62458   3.751   2.429   3.682 -1.6082  0.6872 -0.2339
  463MOL0     H62459   3.644   2.145   3.758 -0.4141  0.9048 -3.1109
  463MOL0     H62460   3.802   2.168   3.773 -3.1252 -3.9912 -0.3488
  463MOL0     H62461   3.684   2.227   3.985  0.6632 -0.3878 -0.9157
  463MOL0     H62462   3.596   2.356   3.909 -0.8581 -2.4240  1.8558
  463MOL0     H62463   3.776   2.491   3.921 -2.7768 -0.3324  0.6232
  463MOL0     H62464   3.891   2.369   3.862 -1.4966  0.8325 -3.0559
  463MOL0     H62465   3.996   2.204   4.204  1.2427 -2.2727 -3.9674
  463MOL0     H62466   4.215   2.271   4.333 -0.1514  1.3955  0.3758
  463MOL0     H62467   4.649   2.425   4.245  0.8463 -2.5092  0.5046
  463MOL0     H62468   4.875   2.464   4.348 -1.6909 -1.3429 -1.8571
  463MOL0     H62469   4.855   2.667   4.756 -2.5070 -1.0162 -3.3346
  463MOL0     H62470   4.890   2.495   4.789 -0.4077 -0.7829  0.0718
  463MOL0     H62471   5.112   2.661   4.650 -0.3247 -0.1380  0.5118
  463MOL0     H62472   5.104   2.673   4.816 -1.4890  2.3437 -1.3721
  463MOL0     H62473   5.097   2.401   4.787  0.2859  0.6465  0.1402
  463MOL0     H62474   5.199   2.436   4.653 -0.9148 -2.9183  0.7093
  463MOL0     H62475   5.249   2.485   4.941 -1.1956 -0.3585 -0.3496
  463MOL0     H62476   5.338   2.590   4.819 -0.3732  0.8479 -3.4130
  463MOL0     H62477   5.425   2.389   4.708  0.3414 -1.1025  0.5006
  463MOL0     H62478   5.334   2.290   4.833 -2.2479 -0.0508 -2.2415
  463MOL0     H62479   5.590   2.470   4.870  0.6103  0.0768 -1.2734
  463MOL0     H62480   5.502   2.408   5.004  0.5673 -1.0555 -0.3496
  463MOL0     H62481   5.641   2.255   4.790 -0.4754 -0.1491  0.7349
  463MOL0     H62482   5.535   2.167   4.910  0.1788 -1.5208  0.1108
  463MOL0     H62483   5.758   2.359   4.986  2.1857 -1.2077  0.3824
  463MOL0     H62484   5.648   2.264   5.095 -1.4288 -1.1930 -0.7741
  463MOL0     H62485   4.657   2.516   4.720 -3.0434 -0.9953 -0.8895
  463MOL0     H62486   4.455   2.501   4.609  0.2535  0.8862 -0.3972
  463MOL0     H62487   4.218   2.637   4.093  0.6211  0.1070 -1.1843
  463MOL0     H62488   4.005   2.585   3.998  0.2270  0.3671 -1.4691
  463MOL0     H62489   2.412   2.236   3.279 -1.6099 -2.6402  0.1538
  463MOL0     H62490   2.193   2.297   3.222  2.0744  0.1465  0.7766
  463MOL0     H62491   1.815   1.986   2.859 -1.0818 -0.5130  1.0349
  463MOL0     H62492   1.586   2.018   2.750 -0.9773 -0.0852 -0.3038
  463MOL0     H62493   1.383   2.065   2.704  1.0592  1.0565 -0.2578
  463MOL0     H62494   1.429   2.117   2.557  0.3856  0.1620 -0.7936
  463MOL0     H62495   1.189   2.194   2.724 -1.0683  0.1563 -0.3117
  463MOL0     H62496   1.207   2.160   2.545  0.5580  1.1901 -0.3999
  463MOL0     H62497   1.336   2.392   2.535 -0.2389  0.6063  1.0213
  463MOL0     H62498   1.235   2.431   2.667 -2.2457  0.6768 -0.5651
  463MOL0     H62499   1.138   2.343   2.389  2.1120 -0.6224  1.5689
  463MOL0     H62500   1.024   2.381   2.499 -0.4735  2.3449 -0.0545
  463MOL0     H62501   1.128   2.745   2.323  4.3831  1.1680  0.9135
  463MOL0     H62502   1.612   2.428   2.796 -1.3153 -1.5403 -0.8924
  463MOL0     H62503   1.815   2.538   2.855  0.6205 -0.0088  0.7973
  463MOL0     H62504   1.883   2.445   2.995 -0.6729  1.0780  0.7823
  463MOL0     H62505   1.965   2.464   2.856  0.0435  1.3945  2.9924
  464MOL0     O62506  10.970   1.862   7.143  0.1329  0.1538  0.4027
  464MOL0     C62507  10.954   1.850   7.264  0.4770 -1.1459 -0.5986
  464MOL0     O62508  11.057   1.845   7.355  0.3967 -0.1121  0.3942
  464MOL0     C62509  11.175   1.897   7.312  0.2169 -0.0860 -0.5955
  464MOL0     C62510  11.281   1.803   7.301 -0.5176 -0.3446  0.3612
  464MOL0     C62511  11.407   1.854   7.268 -0.5554 -0.0587  0.2612
  464MOL0     C62512  11.428   1.990   7.230  0.0833  0.5767 -0.2029
  464MOL0     O62513  11.549   2.021   7.178 -0.0624 -0.2134 -0.3350
  464MOL0     C62514  11.592   2.160   7.177 -0.5302  0.0794  0.6552
  464MOL0     C62515  11.747   2.174   7.151  0.7225  1.0296  0.5074
  464MOL0     C62516  11.788   2.105   7.025 -0.2263  0.0472 -0.0408
  464MOL0     C62517  11.935   2.089   7.018 -0.3878 -0.0935  0.3768
  464MOL0     C62518  11.982   2.055   6.873  0.1035  0.3773 -0.5944
  464MOL0     C62519  12.128   2.037   6.889 -0.5985 -0.0032 -0.7972
  464MOL0     C62520  12.218   2.039   6.771  0.1948 -0.0210  0.5007
  464MOL0     C62521  12.363   2.065   6.801 -0.8271 -0.4273  0.9109
  464MOL0     N62522  12.441   1.948   6.848 -0.3037  0.4423  0.3388
  464MOL0     C62523  12.460   1.893   6.973 -0.2627  0.0908  0.0772
  464MOL0     C62524  12.530   1.778   6.957  0.3806 -0.1823  0.0233
  464MOL0     C62525  12.572   1.684   7.064 -0.4466 -0.3996  0.6088
  464MOL0     C62526  12.656   1.748   7.182  1.4346 -0.2740  0.9207
  464MOL0     C62527  12.786   1.799   7.127  0.5333  0.6442  0.3379
  464MOL0     C62528  12.895   1.693   7.120 -0.5842  0.8277 -0.2732
  464MOL0     O62529  12.939   1.641   7.243  0.2709 -0.2407  0.3931
  464MOL0     C62530  13.062   1.569   7.241  0.1774 -0.4510  0.6325
  464MOL0     C62531  13.124   1.528   7.125 -0.1913 -0.0832  0.5140
  464MOL0     C62532  13.252   1.474   7.129  0.0529  0.9133 -0.8908
  464MOL0     C62533  13.317   1.452   7.248 -0.1259  0.2788 -0.9832
  464MOL0     C62534  13.451   1.393   7.259  0.3923  0.9605 -0.1075
  464MOL0     O62535  13.495   1.356   7.127  0.2394 -0.1926  0.3019
  464MOL0     C62536  13.626   1.325   7.104  1.1603  0.4795 -0.3497
  464MOL0     C62537  13.737   1.387   7.161  0.2016  0.0497  0.3748
  464MOL0     C62538  13.866   1.347   7.139  0.2979 -0.0857 -0.1117
  464MOL0     C62539  13.893   1.245   7.057  1.3660  0.2087  0.6618
  464MOL0     O62540  14.022   1.205   7.043 -0.0528  0.6789 -0.1722
  464MOL0     C62541  14.056   1.127   6.933 -1.0643  0.3278 -0.1678
  464MOL0     C62542  14.177   1.182   6.863  0.3216 -0.3873  0.3216
  464MOL0     C62543  14.247   1.087   6.757  0.2888 -0.5800 -0.4503
  464MOL0     C62544  14.318   0.959   6.814  0.4089 -0.0359 -0.2410
  464MOL0     C62545  14.412   0.903   6.700 -0.6084 -0.3739  0.2268
  464MOL0     C62546  14.349   0.838   6.582 -0.8284  0.3036  0.3446
  464MOL0     C62547  14.444   0.760   6.489 -0.4210  0.3209 -0.3069
  464MOL0     C62548  14.533   0.845   6.402  0.7360  0.4193 -0.8371
  464MOL0    Cl62549  14.436   0.920   6.268  0.0661  0.3015  0.5487
  464MOL0     C62550  13.785   1.174   7.000 -0.5320  0.1395 -0.5000
  464MOL0     C62551  13.654   1.222   7.017  0.2486  0.1639  0.1423
  464MOL0     O62552  13.508   1.373   7.364 -0.5609 -0.1849  0.7889
  464MOL0     C62553  13.252   1.483   7.367 -1.1504  1.1984  0.3180
  464MOL0     C62554  13.130   1.544   7.366  0.2010 -0.3127  0.1734
  464MOL0     N62555  12.556   1.770   6.819 -0.1151  0.1366  0.2255
  464MOL0     N62556  12.515   1.873   6.760 -0.1483 -0.7915  0.5557
  464MOL0     C62557  11.318   2.077   7.235  0.0269  0.4900 -0.8095
  464MOL0     C62558  11.191   2.026   7.270  0.3334  0.6911 -0.3092
  464MOL0     C62559  10.817   1.827   7.313 -0.7335 -0.5072 -0.2612
  464MOL0     C62560  10.707   1.858   7.221 -0.2238 -0.0197 -0.0878
  464MOL0     C62561  10.581   1.815   7.245  0.7366 -0.2515  0.0696
  464MOL0     C62562  10.550   1.762   7.364 -0.3364 -0.0367 -0.4706
  464MOL0     O62563  10.430   1.711   7.405 -0.2344 -0.2068  0.3516
  464MOL0     C62564  10.302   1.774   7.361  0.8632  1.1211  0.6275
  464MOL0     C62565  10.179   1.691   7.379  0.1553 -0.2157 -1.1823
  464MOL0     C62566  10.070   1.754   7.294  0.1160  0.0199  0.3488
  464MOL0     C62567   9.927   1.737   7.341  0.6873  0.6136  0.6024
  464MOL0     C62568   9.882   1.600   7.378 -0.3604 -0.1675 -0.7251
  464MOL0     C62569   9.849   1.492   7.424  0.1327 -0.8779 -0.2583
  464MOL0     C62570  10.652   1.746   7.459  1.0416  0.0697  0.0005
  464MOL0     C62571  10.778   1.777   7.438 -0.1386 -0.1608 -0.1513
  464MOL0     C62572  10.872   1.768   7.551  0.0247  0.4502 -1.5055
  464MOL0     H62573  11.275   1.700   7.333  1.6101  0.2049  2.8792
  464MOL0     H62574  11.493   1.786   7.270 -0.1863  0.3899 -0.1019
  464MOL0     H62575  11.531   2.209   7.100 -0.2756 -2.1371 -1.0762
  464MOL0     H62576  11.571   2.202   7.275 -0.6899  0.0474  0.6360
  464MOL0     H62577  11.800   2.123   7.232  1.8176  1.5405  0.1375
  464MOL0     H62578  11.773   2.281   7.145  1.4540  0.8531  0.4299
  464MOL0     H62579  11.767   2.159   6.932  3.1039 -1.4806 -1.8350
  464MOL0     H62580  11.742   2.007   7.013 -1.6893  0.7620 -0.5428
  464MOL0     H62581  11.983   2.182   7.050  0.0060  0.5087 -1.8069
  464MOL0     H62582  11.956   2.010   7.090 -1.9660  1.2856  2.4473
  464MOL0     H62583  11.930   1.971   6.827 -0.2150  2.2450 -3.9183
  464MOL0     H62584  11.969   2.144   6.812  1.1694 -0.1014 -1.5614
  464MOL0     H62585  12.167   2.128   6.935  0.5326  0.7478 -3.0885
  464MOL0     H62586  12.145   1.948   6.950 -0.4647 -0.9087 -2.1043
  464MOL0     H62587  12.186   2.130   6.719 -4.0427 -1.3941  0.3502
  464MOL0     H62588  12.202   1.953   6.705 -0.7332 -0.9765  1.9423
  464MOL0     H62589  12.410   2.100   6.708 -2.0346  1.7780  1.0403
  464MOL0     H62590  12.367   2.147   6.873 -0.6889 -1.3091  1.9343
  464MOL0     H62591  12.417   1.918   7.069 -0.0478  0.5331  0.0609
  464MOL0     H62592  12.475   1.658   7.108 -0.4825 -0.7289  0.3331
  464MOL0     H62593  12.619   1.598   7.016  1.6435  0.4655  1.0169
  464MOL0     H62594  12.596   1.831   7.220 -1.4112 -2.0813  0.7223
  464MOL0     H62595  12.678   1.677   7.263 -1.3333 -1.3727  0.8260
  464MOL0     H62596  12.825   1.872   7.199 -1.0243  1.5045  0.3589
  464MOL0     H62597  12.774   1.841   7.027  3.2531  1.2744  0.1786
  464MOL0     H62598  12.983   1.728   7.065  1.7020 -3.7628  0.0016
  464MOL0     H62599  12.848   1.614   7.061 -0.3502  1.2020 -0.9742
  464MOL0     H62600  13.067   1.520   7.034  0.0981 -0.5903  0.3703
  464MOL0     H62601  13.299   1.452   7.034  1.0929 -1.0107 -0.0084
  464MOL0     H62602  13.720   1.473   7.224 -4.6826  0.1070 -0.6562
  464MOL0     H62603  13.947   1.401   7.188 -1.8691  2.3300  1.0698
  464MOL0     H62604  14.077   1.021   6.952 -1.5138  0.2763  0.0401
  464MOL0     H62605  13.981   1.122   6.853 -0.6919 -1.0823 -0.4734
  464MOL0     H62606  14.158   1.275   6.808  0.4704  0.3485  1.4752
  464MOL0     H62607  14.248   1.207   6.942 -1.8527  1.3439  1.8663
  464MOL0     H62608  14.181   1.052   6.678 -0.3078 -1.4283  0.3956
  464MOL0     H62609  14.332   1.148   6.726  1.9288 -3.8983 -3.1021
  464MOL0     H62610  14.249   0.878   6.839 -1.2071  1.0800 -0.8604
  464MOL0     H62611  14.390   0.977   6.894  2.3731  2.5100 -2.3691
  464MOL0     H62612  14.475   0.832   6.755  2.1263  1.1829 -0.7333
  464MOL0     H62613  14.479   0.976   6.656  1.1379 -3.8742 -3.6076
  464MOL0     H62614  14.280   0.771   6.633  1.0664 -1.2116  1.0447
  464MOL0     H62615  14.300   0.915   6.521  3.7220  2.2592 -1.2813
  464MOL0     H62616  14.397   0.679   6.431  0.6124 -1.0424  0.6997
  464MOL0     H62617  14.517   0.712   6.554  0.1854  0.2567 -1.0216
  464MOL0     H62618  14.578   0.925   6.462 -2.5817  1.3268  0.6674
  464MOL0     H62619  14.611   0.779   6.362  3.2270  2.5475  0.2104
  464MOL0     H62620  13.790   1.087   6.935  0.0651  0.2475 -0.6073
  464MOL0     H62621  13.573   1.183   6.957  2.6497  3.6430 -6.3358
  464MOL0     H62622  13.294   1.469   7.466 -1.4277  1.1279  0.4251
  464MOL0     H62623  13.082   1.553   7.463 -3.0679  0.7545 -1.3911
  464MOL0     H62624  11.319   2.182   7.211  1.5105  0.3875 -1.2982
  464MOL0     H62625  11.103   2.091   7.268 -0.0759  0.2399 -3.5069
  464MOL0     H62626  10.738   1.909   7.131  2.0471  0.5295  0.9441
  464MOL0     H62627  10.511   1.818   7.163 -0.5337  2.0556  1.1131
  464MOL0     H62628  10.312   1.803   7.256  0.5798  1.9638  0.8257
  464MOL0     H62629  10.281   1.863   7.421 -0.6915  1.9471 -1.0574
  464MOL0     H62630  10.160   1.698   7.486  3.7239  0.9933 -0.4812
  464MOL0     H62631  10.188   1.584   7.355 -1.8123 -0.9815  1.1148
  464MOL0     H62632  10.100   1.736   7.190  5.6087 -0.2133  1.6633
  464MOL0     H62633  10.077   1.862   7.311 -1.9144  0.5819 -1.7955
  464MOL0     H62634   9.904   1.795   7.430  3.5103  0.5182  1.5012
  464MOL0     H62635   9.869   1.776   7.257  2.0850  0.0385 -0.6877
  464MOL0     H62636   9.828   1.397   7.469  2.1598 -1.8443 -1.2190
  464MOL0     H62637  10.618   1.711   7.556 -0.4475 -0.3222 -0.6255
  464MOL0     H62638  10.936   1.679   7.544 -1.2879 -1.0160  2.5260
  464MOL0     H62639  10.936   1.856   7.560  0.3160  0.0374  1.4252
  464MOL0     H62640  10.827   1.768   7.650  0.2441 -0.9197 -1.3813
  465MOL0     O62641   9.550  11.234   5.091  0.7598 -0.0199 -0.7407
  465MOL0     C62642   9.483  11.294   5.167 -0.3070 -0.4138 -0.2516
  465MOL0     O62643   9.493  11.430   5.189  0.0212 -0.1121  0.3967
  465MOL0     C62644   9.585  11.515   5.128  0.2677  0.1989  0.5730
  465MOL0     C62645   9.553  11.654   5.136  0.0140  0.3860  0.2320
  465MOL0     C62646   9.637  11.749   5.082  0.5916 -0.2842  0.4482
  465MOL0     C62647   9.765  11.721   5.042  0.5600 -0.0951  0.1101
  465MOL0     O62648   9.841  11.831   5.003  0.5214  0.1385 -0.1361
  465MOL0     C62649   9.961  11.798   4.928  0.1188  0.0845  0.8164
  465MOL0     C62650  10.041  11.925   4.907 -0.2695  0.1936  0.2300
  465MOL0     C62651  10.189  11.908   4.866 -0.4043 -0.2708  0.8855
  465MOL0     C62652  10.303  11.859   4.953 -0.0072  0.1129  0.2268
  465MOL0     C62653  10.434  11.908   4.891  0.7054  0.0859  0.0055
  465MOL0     C62654  10.468  11.858   4.756 -0.1732  0.2124  0.0464
  465MOL0     C62655  10.592  11.927   4.687  0.0732  0.0688 -0.5933
  465MOL0     C62656  10.723  11.904   4.745 -0.6800  0.1285 -0.6805
  465MOL0     N62657  10.840  11.955   4.665 -0.4850  0.6455 -0.1156
  465MOL0     C62658  10.908  11.884   4.570  0.2652  0.6085 -0.0907
  465MOL0     C62659  10.990  11.975   4.505  0.2420  0.1204  0.8165
  465MOL0     C62660  11.083  11.975   4.386 -0.0247  0.5591 -0.8917
  465MOL0     C62661  11.172  11.852   4.380  0.4033 -0.6316 -0.5344
  465MOL0     C62662  11.287  11.847   4.480 -0.2790  0.1834  0.0493
  465MOL0     C62663  11.404  11.773   4.408  0.0500 -0.4930  0.3815
  465MOL0     O62664  11.514  11.782   4.496  0.0576 -0.1468 -0.3160
  465MOL0     C62665  11.641  11.753   4.445 -0.3731 -0.7466 -0.1028
  465MOL0     C62666  11.751  11.783   4.526  0.1659 -0.1905 -0.2685
  465MOL0     C62667  11.882  11.781   4.467 -0.7341  0.2510 -0.6111
  465MOL0     C62668  11.895  11.753   4.332 -0.6755  0.0692 -0.3427
  465MOL0     C62669  12.026  11.756   4.274  0.3298 -0.2980  0.1138
  465MOL0     O62670  12.132  11.751   4.358 -0.6953  0.6691 -0.1628
  465MOL0     C62671  12.260  11.743   4.305 -0.4778  0.1572 -0.1129
  465MOL0     C62672  12.302  11.843   4.219  0.0990 -0.5085 -0.1561
  465MOL0     C62673  12.429  11.846   4.172 -0.1771 -0.4966  0.3261
  465MOL0     C62674  12.533  11.769   4.221 -0.0103 -0.1350 -0.5683
  465MOL0     O62675  12.661  11.785   4.172  0.0585  0.2224 -0.4193
  465MOL0     C62676  12.780  11.738   4.241 -0.1898 -0.4410 -0.7828
  465MOL0     C62677  12.901  11.781   4.169 -0.1022  0.2589  0.1920
  465MOL0     C62678  13.028  11.737   4.241 -0.3109  0.8035  0.0604
  465MOL0     C62679  13.149  11.830   4.213 -0.1566 -0.1361  0.3151
  465MOL0     C62680  13.215  11.810   4.080 -0.1845  0.6737  0.1527
  465MOL0     C62681  13.147  11.893   3.972  0.5018 -0.4087 -0.2940
  465MOL0     C62682  13.212  11.896   3.832 -0.2790 -0.4638 -0.4403
  465MOL0     C62683  13.130  11.980   3.744  0.5606 -0.5327  1.1770
  465MOL0    Cl62684  13.188  11.956   3.581 -0.6298 -0.1299 -0.4873
  465MOL0     C62685  12.491  11.664   4.315 -0.2583 -0.1854  0.2140
  465MOL0     C62686  12.358  11.652   4.349  0.9211  0.6156  0.0669
  465MOL0     O62687  12.032  11.751   4.153 -0.3500 -0.1163  0.4309
  465MOL0     C62688  11.786  11.711   4.259  0.7512 -0.1420  0.2704
  465MOL0     C62689  11.663  11.717   4.308 -0.3988  0.6485 -0.4103
  465MOL0     N62690  10.976  12.091   4.569  0.4384  0.2929  0.0463
  465MOL0     N62691  10.902  12.078   4.673 -0.5025  0.0036  0.3039
  465MOL0     C62692   9.806  11.580   5.037 -0.2102 -0.6120 -0.3759
  465MOL0     C62693   9.712  11.480   5.085 -0.0873  0.9364  0.3247
  465MOL0     C62694   9.375  11.224   5.252  0.3928  0.2374  0.0207
  465MOL0     C62695   9.274  11.308   5.311 -1.1559 -0.2545 -0.4184
  465MOL0     C62696   9.168  11.266   5.396 -0.1232  0.6456  0.3355
  465MOL0     C62697   9.160  11.126   5.423 -0.2917 -0.6224 -0.5440
  465MOL0     O62698   9.065  11.071   5.511  0.3858 -0.7241  0.4136
  465MOL0     C62699   8.932  11.090   5.465  0.6227 -0.5925  0.4559
  465MOL0     C62700   8.837  11.132   5.574  0.6998  0.6235 -0.8011
  465MOL0     C62701   8.878  11.270   5.644  0.4292 -0.6664 -0.2613
  465MOL0     C62702   8.751  11.337   5.712 -0.5961  0.3927 -0.0724
  465MOL0     C62703   8.770  11.455   5.789 -0.2169 -0.3748  0.5814
  465MOL0     C62704   8.792  11.559   5.842 -0.4455  0.3589  0.3421
  465MOL0     C62705   9.254  11.036   5.362  0.2441  0.4137 -0.0369
  465MOL0     C62706   9.366  11.086   5.290  0.4106  0.0078 -0.0404
  465MOL0     C62707   9.459  10.982   5.221  0.7223 -0.1363 -0.1304
  465MOL0     H62708   9.453  11.681   5.169 -0.3439 -1.5069  0.7833
  465MOL0     H62709   9.586  11.844   5.080 -1.8091 -1.4416  1.9287
  465MOL0     H62710  10.022  11.717   4.968 -0.1576 -0.6470 -0.2098
  465MOL0     H62711   9.924  11.762   4.831  2.6315  0.9067 -0.5224
  465MOL0     H62712  10.040  11.994   4.992 -2.8584  0.0232  0.4035
  465MOL0     H62713  10.002  11.983   4.823  0.0779 -0.0906 -0.1313
  465MOL0     H62714  10.227  11.997   4.814  0.3310 -1.0072  0.1251
  465MOL0     H62715  10.186  11.840   4.780 -1.1771  3.2590 -2.1193
  465MOL0     H62716  10.291  11.895   5.056 -0.2582  0.9764 -0.0903
  465MOL0     H62717  10.306  11.750   4.956 -0.7660 -0.0398 -2.2841
  465MOL0     H62718  10.441  12.017   4.893 -0.4742  0.1661  0.3372
  465MOL0     H62719  10.506  11.861   4.959 -1.3267 -0.9596  1.5459
  465MOL0     H62720  10.480  11.750   4.762  2.7747  0.4964  1.4851
  465MOL0     H62721  10.385  11.880   4.689 -0.1275 -0.2700 -0.1720
  465MOL0     H62722  10.586  12.036   4.678  0.3018 -0.0265 -2.3692
  465MOL0     H62723  10.598  11.887   4.585  0.5963  0.3345 -0.6750
  465MOL0     H62724  10.725  11.955   4.842 -1.1006 -1.5375  0.2416
  465MOL0     H62725  10.747  11.799   4.766  1.5056  0.8719  1.0527
  465MOL0     H62726  10.881  11.781   4.552 -0.9321  0.7464  0.8128
  465MOL0     H62727  11.035  11.984   4.287 -2.1498  0.3823  0.0605
  465MOL0     H62728  11.141  12.067   4.393 -1.9648  1.9795 -2.4083
  465MOL0     H62729  11.112  11.769   4.418  1.0556 -1.4030 -1.1381
  465MOL0     H62730  11.203  11.832   4.277 -1.5553 -3.7352 -0.6483
  465MOL0     H62731  11.272  11.794   4.574 -0.7441 -1.8658 -1.1161
  465MOL0     H62732  11.317  11.949   4.506 -0.0458  0.3050 -0.6781
  465MOL0     H62733  11.420  11.818   4.309  1.2061 -3.7356 -1.0627
  465MOL0     H62734  11.366  11.671   4.399  1.2011 -1.3089  3.5082
  465MOL0     H62735  11.723  11.833   4.617 -0.1762  1.4787 -1.2594
  465MOL0     H62736  11.956  11.837   4.522 -3.7540  3.3940  0.6354
  465MOL0     H62737  12.224  11.917   4.204 -0.0428 -0.8511 -1.1588
  465MOL0     H62738  12.465  11.920   4.101  0.4139  1.3257  2.3932
  465MOL0     H62739  12.777  11.777   4.343  3.1228 -2.6584  0.3181
  465MOL0     H62740  12.778  11.629   4.246 -1.1488 -0.3799  3.0079
  465MOL0     H62741  12.899  11.738   4.069 -0.9010 -2.3807  1.2626
  465MOL0     H62742  12.900  11.889   4.152  2.0569  0.1918 -0.7860
  465MOL0     H62743  13.010  11.751   4.347 -0.2512  2.5273 -0.1339
  465MOL0     H62744  13.047  11.631   4.218  0.4987  1.4079 -2.3784
  465MOL0     H62745  13.218  11.803   4.294 -0.5283 -2.0868  0.0273
  465MOL0     H62746  13.120  11.936   4.214 -0.2487 -0.0966 -1.8620
  465MOL0     H62747  13.209  11.702   4.060  1.3994 -0.3518  4.2748
  465MOL0     H62748  13.322  11.836   4.086  0.0124 -0.3395  1.3106
  465MOL0     H62749  13.050  11.844   3.963  0.4539 -0.5035  0.6161
  465MOL0     H62750  13.136  11.997   4.003 -0.5953 -0.3173 -0.9454
  465MOL0     H62751  13.215  11.792   3.796  2.1988 -0.8607  0.7144
  465MOL0     H62752  13.317  11.927   3.836  0.0019 -1.4466  0.2172
  465MOL0     H62753  13.025  11.949   3.745 -0.1141  0.7231 -4.0768
  465MOL0     H62754  13.136  12.088   3.763  2.1311  0.6193 -4.2350
  465MOL0     H62755  12.558  11.590   4.358 -1.2672 -1.7353 -0.7750
  465MOL0     H62756  12.318  11.579   4.418 -0.8452  0.3603 -1.1590
  465MOL0     H62757  11.791  11.677   4.156 -1.8925 -0.7989  0.2671
  465MOL0     H62758  11.579  11.696   4.244  0.1910 -1.1642 -0.6338
  465MOL0     H62759   9.907  11.562   5.001 -0.4141 -1.1724 -0.6910
  465MOL0     H62760   9.748  11.377   5.091 -0.4298  0.5579 -2.6355
  465MOL0     H62761   9.268  11.414   5.292 -1.4889  0.1708  1.7742
  465MOL0     H62762   9.101  11.342   5.434 -0.8616  0.4782 -0.5852
  465MOL0     H62763   8.891  10.999   5.421 -1.9380  0.6758  0.0300
  465MOL0     H62764   8.927  11.161   5.381 -2.7761 -0.5556  0.5654
  465MOL0     H62765   8.821  11.049   5.643 -1.8008 -1.1387 -3.2689
  465MOL0     H62766   8.738  11.150   5.532  0.9983  0.7232 -1.4755
  465MOL0     H62767   8.911  11.338   5.566 -1.4274  4.5122  2.9507
  465MOL0     H62768   8.955  11.263   5.721  0.5201  0.6690 -0.2206
  465MOL0     H62769   8.672  11.357   5.640  0.8634 -1.1857 -2.2485
  465MOL0     H62770   8.712  11.269   5.788 -0.6570 -1.8169 -1.9939
  465MOL0     H62771   8.810  11.653   5.890 -0.5773 -0.1944  1.5118
  465MOL0     H62772   9.243  10.930   5.381  1.2858  0.1965 -0.5949
  465MOL0     H62773   9.555  11.012   5.264  0.9370  0.6455 -1.1162
  465MOL0     H62774   9.441  10.877   5.245 -2.4937  0.2829 -0.3328
  465MOL0     H62775   9.459  10.993   5.112 -1.5712  0.9731 -0.0599
  466MOL0     O62776   8.265   5.774  10.683  0.1118  0.0733 -0.1164
  466MOL0     C62777   8.236   5.793  10.801  0.4038  0.0878 -0.1943
  466MOL0     O62778   8.287   5.892  10.879  0.0111  0.1255 -0.5737
  466MOL0     C62779   8.397   5.968  10.826  1.0173  1.9648  0.1905
  466MOL0     C62780   8.379   6.062  10.726 -0.7849 -0.0239 -0.9283
  466MOL0     C62781   8.494   6.127  10.677 -0.6238 -0.1392  0.3246
  466MOL0     C62782   8.630   6.105  10.726 -0.2984  0.2345  0.3005
  466MOL0     O62783   8.743   6.160  10.663 -0.0434  0.7769 -0.2497
  466MOL0     C62784   8.859   6.165  10.744  0.3048  0.0241  0.5777
  466MOL0     C62785   8.954   6.283  10.693 -0.3008 -0.0747  0.3991
  466MOL0     C62786   9.061   6.217  10.605 -0.2130  0.0591  0.4143
  466MOL0     C62787   9.173   6.321  10.587  0.5262 -0.4413  0.7172
  466MOL0     C62788   9.297   6.248  10.541 -0.5387  0.5080 -0.7851
  466MOL0     C62789   9.393   6.355  10.502  0.4411  1.1230  1.0576
  466MOL0     C62790   9.468   6.423  10.618  0.8069 -0.8522 -0.4298
  466MOL0     C62791   9.544   6.328  10.696 -0.0404 -0.2781  0.5449
  466MOL0     N62792   9.663   6.392  10.751 -0.7620  0.2182 -0.2840
  466MOL0     C62793   9.666   6.462  10.866  0.3200 -0.4902 -0.0905
  466MOL0     C62794   9.792   6.508  10.877  0.4169 -0.5710 -0.3157
  466MOL0     C62795   9.841   6.605  10.975  1.6168 -0.3892 -0.1977
  466MOL0     C62796   9.985   6.574  11.007  0.5781 -0.4309 -0.8463
  466MOL0     C62797  10.041   6.646  11.134 -0.1016 -0.4767  0.3983
  466MOL0     C62798  10.081   6.786  11.116  0.1524 -0.1546  0.6840
  466MOL0     O62799   9.954   6.860  11.108 -0.6329  0.0504 -0.0781
  466MOL0     C62800   9.887   6.864  11.231  0.0346 -0.4991  0.3518
  466MOL0     C62801   9.952   6.878  11.356 -0.0915  0.1802 -0.7478
  466MOL0     C62802   9.880   6.906  11.471 -0.0447 -0.1165 -0.3523
  466MOL0     C62803   9.736   6.907  11.466 -0.2981 -0.1178 -0.5177
  466MOL0     C62804   9.666   6.945  11.583  0.0737  0.0752 -0.2519
  466MOL0     O62805   9.735   7.028  11.663  0.4626 -0.1003  0.0308
  466MOL0     C62806   9.662   7.083  11.775 -0.6772  0.1021  0.3223
  466MOL0     C62807   9.576   7.011  11.862 -0.1611 -0.0353 -0.9110
  466MOL0     C62808   9.539   7.078  11.987 -0.1329  0.4858 -0.0296
  466MOL0     C62809   9.556   7.216  12.012 -0.2758 -0.2822  0.3192
  466MOL0     O62810   9.517   7.282  12.128 -0.1789  0.4371 -0.5328
  466MOL0     C62811   9.488   7.199  12.251 -0.0845 -0.1913  0.6547
  466MOL0     C62812   9.477   7.280  12.381  0.2546  0.6419  0.5613
  466MOL0     C62813   9.450   7.187  12.501  0.2724 -0.1319 -0.3466
  466MOL0     C62814   9.529   7.061  12.504  1.0049 -0.4773 -0.4194
  466MOL0     C62815   9.503   7.002  12.643  0.0880  0.4068 -0.1384
  466MOL0     C62816   9.379   6.910  12.657  0.7579 -0.5847 -0.7194
  466MOL0     C62817   9.379   6.799  12.769  0.8749  0.4929 -0.0724
  466MOL0     C62818   9.254   6.710  12.750  0.2131 -0.7254 -0.5490
  466MOL0    Cl62819   9.197   6.650  12.916 -0.0684  0.2595  0.9675
  466MOL0     C62820   9.633   7.287  11.919 -0.3358 -0.1412  0.3276
  466MOL0     C62821   9.696   7.216  11.809  0.0056 -0.3671  0.6042
  466MOL0     O62822   9.546   6.910  11.600 -0.2176 -0.6126  0.1719
  466MOL0     C62823   9.671   6.888  11.347  0.4112  0.0475  1.1641
  466MOL0     C62824   9.743   6.874  11.227 -0.0561 -0.7002  0.9281
  466MOL0     N62825   9.859   6.457  10.771 -0.4728  0.1338 -0.1229
  466MOL0     N62826   9.786   6.379  10.706  0.2644  0.3568 -0.7022
  466MOL0     C62827   8.639   6.014  10.833  0.0184 -0.1634  0.2536
  466MOL0     C62828   8.522   5.956  10.884 -0.4595 -0.5327 -0.1771
  466MOL0     C62829   8.142   5.693  10.854 -0.3190  0.0017 -0.5614
  466MOL0     C62830   8.072   5.736  10.977  0.1263  0.3306 -0.1827
  466MOL0     C62831   7.970   5.657  11.020  0.1624  0.3096 -0.5639
  466MOL0     C62832   7.924   5.544  10.955 -0.6337  0.4738 -0.4122
  466MOL0     O62833   7.828   5.449  10.999 -0.4565  0.2267 -0.1851
  466MOL0     C62834   7.726   5.477  11.093 -0.7495 -0.8682  0.1420
  466MOL0     C62835   7.627   5.573  11.025 -0.4785  0.7652  0.1160
  466MOL0     C62836   7.502   5.604  11.118 -0.4567  0.2954 -0.0446
  466MOL0     C62837   7.546   5.680  11.243  0.0213  0.4909  0.5357
  466MOL0     C62838   7.461   5.666  11.359 -0.8025  0.1473 -0.1065
  466MOL0     C62839   7.382   5.652  11.455  0.4758 -0.1090  0.2997
  466MOL0     C62840   7.996   5.495  10.842  0.1134  0.5120 -0.6774
  466MOL0     C62841   8.109   5.563  10.798 -0.6799  0.2600  0.0076
  466MOL0     C62842   8.180   5.505  10.683 -0.0350 -0.3373 -0.2896
  466MOL0     H62843   8.277   6.091  10.703 -1.6648 -1.7654  0.5109
  466MOL0     H62844   8.473   6.186  10.588  0.4879 -0.0253  0.1305
  466MOL0     H62845   8.832   6.190  10.846 -0.7340 -5.9035  2.1393
  466MOL0     H62846   8.909   6.067  10.743  0.5385  0.1347 -0.4270
  466MOL0     H62847   9.004   6.326  10.780 -0.3548 -1.6962  1.2743
  466MOL0     H62848   8.906   6.355  10.626  1.0409 -0.0448 -0.5704
  466MOL0     H62849   9.020   6.189  10.508  0.4271 -0.5778  0.3197
  466MOL0     H62850   9.114   6.130  10.645  2.5968  0.7785 -1.4155
  466MOL0     H62851   9.146   6.399  10.515  1.3127 -0.2965  0.5765
  466MOL0     H62852   9.191   6.375  10.680 -0.5541 -0.4568  0.9511
  466MOL0     H62853   9.323   6.175  10.619 -2.2849 -0.4554 -1.0537
  466MOL0     H62854   9.261   6.195  10.452 -2.0635  1.6948 -0.9187
  466MOL0     H62855   9.464   6.308  10.433 -0.4014  0.5969  0.5229
  466MOL0     H62856   9.343   6.425  10.434  1.6823  0.4958 -0.5863
  466MOL0     H62857   9.392   6.471  10.679  1.2014 -1.7105  0.7850
  466MOL0     H62858   9.523   6.509  10.579 -1.7633  0.0641 -2.3005
  466MOL0     H62859   9.481   6.286  10.776 -1.0867  0.6171  0.2200
  466MOL0     H62860   9.573   6.241  10.636 -1.8426 -0.2064 -0.5223
  466MOL0     H62861   9.584   6.488  10.933  0.2876 -0.7440 -0.0292
  466MOL0     H62862   9.821   6.706  10.936  1.4332 -0.8685 -1.3615
  466MOL0     H62863   9.781   6.597  11.066  0.7671 -0.4867 -0.7541
  466MOL0     H62864   9.982   6.464  11.016  0.6778 -0.5290 -1.9727
  466MOL0     H62865  10.059   6.580  10.928  0.2945 -4.5199 -1.6569
  466MOL0     H62866  10.133   6.593  11.159 -1.4240 -3.0428  0.1614
  466MOL0     H62867   9.970   6.632  11.216 -0.3220 -1.6040  0.0229
  466MOL0     H62868  10.126   6.795  11.017 -0.1661  0.4324  0.5907
  466MOL0     H62869  10.149   6.829  11.190 -0.6918  1.5857  0.4923
  466MOL0     H62870  10.058   6.876  11.375 -0.6093 -0.5354  2.6054
  466MOL0     H62871   9.932   6.906  11.566  2.6900  0.7844 -1.7304
  466MOL0     H62872   9.565   6.903  11.852  1.4215 -0.4508  1.0403
  466MOL0     H62873   9.483   7.028  12.065 -0.8984  1.3285 -0.0264
  466MOL0     H62874   9.389   7.155  12.238  0.3531 -1.8418  2.4770
  466MOL0     H62875   9.572   7.130  12.254 -1.2394 -1.6550  0.2219
  466MOL0     H62876   9.582   7.303  12.398  0.5849 -2.1020  2.9405
  466MOL0     H62877   9.401   7.359  12.380 -3.0392 -2.2890 -0.8165
  466MOL0     H62878   9.462   7.258  12.584  4.3624  1.0568 -1.7031
  466MOL0     H62879   9.343   7.165  12.508 -0.0390  1.6532  1.6062
  466MOL0     H62880   9.632   7.078  12.474  0.7987 -2.4310 -2.4618
  466MOL0     H62881   9.486   6.989  12.434  0.1062  0.4976 -0.9021
  466MOL0     H62882   9.500   7.064  12.733  1.9378  1.8278 -0.9753
  466MOL0     H62883   9.586   6.934  12.663 -0.5669  0.0996  1.7187
  466MOL0     H62884   9.292   6.972  12.681  1.0162 -1.0213  1.5781
  466MOL0     H62885   9.357   6.857  12.564  0.6279 -1.4646 -0.1974
  466MOL0     H62886   9.397   6.841  12.869 -3.7578  1.2307  0.7050
  466MOL0     H62887   9.458   6.725  12.760  0.7310  0.5178 -1.8076
  466MOL0     H62888   9.169   6.758  12.701  0.6024 -0.4524 -0.9594
  466MOL0     H62889   9.279   6.628  12.684 -0.7097 -1.4988  0.0265
  466MOL0     H62890   9.648   7.394  11.926 -0.0020 -0.1782  0.2286
  466MOL0     H62891   9.758   7.284  11.752 -0.6829  0.1302  0.4282
  466MOL0     H62892   9.564   6.890  11.331  0.9474  1.2208 -3.8440
  466MOL0     H62893   9.685   6.864  11.136  1.2107 -0.0687  0.0219
  466MOL0     H62894   8.737   5.992  10.874 -0.1864  0.4292  1.0858
  466MOL0     H62895   8.529   5.880  10.962 -2.6151 -0.3700  0.2278
  466MOL0     H62896   8.090   5.834  11.021 -0.0526 -0.4962  1.8253
  466MOL0     H62897   7.921   5.678  11.114  0.4369 -4.3771  0.8748
  466MOL0     H62898   7.772   5.513  11.186 -1.0590 -1.3309  0.4760
  466MOL0     H62899   7.682   5.379  11.110  0.9272 -1.4428  1.4856
  466MOL0     H62900   7.595   5.536  10.927  0.0096 -0.0288  0.2471
  466MOL0     H62901   7.675   5.669  11.005 -0.5830  0.9679  0.7956
  466MOL0     H62902   7.455   5.511  11.151  0.5925 -0.8902 -1.6690
  466MOL0     H62903   7.435   5.654  11.047 -1.1299 -1.9728 -1.1304
  466MOL0     H62904   7.648   5.657  11.272  0.0919  0.6889  0.4431
  466MOL0     H62905   7.537   5.784  11.212 -3.3130 -0.3990 -2.2419
  466MOL0     H62906   7.323   5.644  11.544 -1.0977 -0.0695 -0.6933
  466MOL0     H62907   7.969   5.398  10.801  0.0849  0.1958  0.0681
  466MOL0     H62908   8.124   5.532  10.593 -2.1485  0.3639  1.1457
  466MOL0     H62909   8.287   5.526  10.680  0.0756 -0.3920  1.7468
  466MOL0     H62910   8.175   5.396  10.682 -1.1369 -0.3018 -0.5337
  467MOL0     O62911   6.626   8.446   1.652 -0.2998 -0.5779  0.3579
  467MOL0     C62912   6.568   8.467   1.549  0.9474  0.8489  0.5966
  467MOL0     O62913   6.625   8.464   1.422 -0.0533 -0.0741  0.3353
  467MOL0     C62914   6.756   8.439   1.414 -0.6960 -0.4844  0.3147
  467MOL0     C62915   6.815   8.324   1.479  0.7960 -0.5595 -0.4468
  467MOL0     C62916   6.944   8.288   1.443 -0.4029 -0.1021  0.3527
  467MOL0     C62917   7.027   8.375   1.362  0.6343  0.3492 -0.2545
  467MOL0     O62918   7.158   8.351   1.338 -0.7024 -0.4189 -0.1932
  467MOL0     C62919   7.223   8.235   1.394 -0.6791 -0.6799 -0.3651
  467MOL0     C62920   7.380   8.251   1.379  0.8024  0.6112  0.0383
  467MOL0     C62921   7.444   8.370   1.458  0.4288  0.4718 -0.2172
  467MOL0     C62922   7.463   8.491   1.374 -1.4309 -0.0327  0.2078
  467MOL0     C62923   7.481   8.623   1.442 -0.6786  0.2206 -0.9751
  467MOL0     C62924   7.342   8.680   1.467  0.5291 -0.4461  0.5364
  467MOL0     C62925   7.344   8.790   1.578 -0.1304 -0.2603  0.9607
  467MOL0     C62926   7.420   8.914   1.530  0.2770 -0.2969  0.1568
  467MOL0     N62927   7.537   8.956   1.607  0.2478  0.4533 -0.0301
  467MOL0     C62928   7.638   8.876   1.645  0.2222  0.3956 -0.6866
  467MOL0     C62929   7.723   8.954   1.716  0.1177 -1.0240 -0.1365
  467MOL0     C62930   7.836   8.903   1.801 -0.0085 -0.3350 -0.1314
  467MOL0     C62931   7.972   8.881   1.728 -0.1366  0.2135  0.3254
  467MOL0     C62932   8.049   9.014   1.689  0.2959  0.4456  0.1775
  467MOL0     C62933   8.101   9.090   1.815  0.0242  0.2147  0.5161
  467MOL0     O62934   8.163   9.216   1.788  0.4396 -0.0967 -0.8075
  467MOL0     C62935   8.301   9.198   1.773  0.4747 -0.5962 -0.1481
  467MOL0     C62936   8.381   9.154   1.880 -0.3651  0.8979 -0.0822
  467MOL0     C62937   8.516   9.131   1.870 -0.3117 -0.4197  0.4155
  467MOL0     C62938   8.580   9.150   1.746  0.3413 -0.2437  0.4298
  467MOL0     C62939   8.722   9.130   1.745 -0.3695  0.5260  0.4893
  467MOL0     O62940   8.797   9.199   1.651  0.8407  0.9365  0.3556
  467MOL0     C62941   8.933   9.207   1.650 -0.2011 -0.2820 -0.0894
  467MOL0     C62942   9.017   9.170   1.752 -0.1175 -0.3151 -0.3572
  467MOL0     C62943   9.152   9.162   1.730 -0.5948  1.0472  0.3037
  467MOL0     C62944   9.205   9.218   1.616 -0.2041  0.2555 -0.2906
  467MOL0     O62945   9.341   9.236   1.610  0.5844  0.4097 -0.3188
  467MOL0     C62946   9.378   9.364   1.566  0.3726 -0.0328  0.2792
  467MOL0     C62947   9.523   9.363   1.524  0.1446  0.0300 -0.3053
  467MOL0     C62948   9.620   9.354   1.644 -0.5204 -0.9354  0.4043
  467MOL0     C62949   9.764   9.369   1.580 -0.4089 -0.5397  0.0533
  467MOL0     C62950   9.884   9.378   1.675 -0.8273  0.1323  0.2040
  467MOL0     C62951  10.022   9.402   1.612 -0.2740 -0.2970  0.7043
  467MOL0     C62952  10.037   9.310   1.491 -0.0172 -0.4009  1.1005
  467MOL0     C62953  10.183   9.271   1.465  0.2280 -0.0180 -0.0966
  467MOL0    Cl62954  10.185   9.191   1.301 -0.3821 -0.0165 -0.0480
  467MOL0     C62955   9.119   9.259   1.517 -0.8773  0.5723  0.7641
  467MOL0     C62956   8.982   9.254   1.533 -0.7690 -0.2748 -0.1633
  467MOL0     O62957   8.765   9.033   1.807 -0.1129 -0.0696  0.3304
  467MOL0     C62958   8.509   9.207   1.636  1.1995 -0.3388 -0.4739
  467MOL0     C62959   8.367   9.222   1.647  0.5698  0.1302 -0.1221
  467MOL0     N62960   7.692   9.080   1.696  0.0080 -0.1281  0.1444
  467MOL0     N62961   7.583   9.083   1.623 -1.1392 -0.0824  0.0272
  467MOL0     C62962   6.968   8.483   1.300  0.5856 -0.1718 -0.6714
  467MOL0     C62963   6.835   8.518   1.330 -0.2847 -0.5107 -0.7034
  467MOL0     C62964   6.418   8.465   1.558 -0.7313  0.4374 -0.5633
  467MOL0     C62965   6.351   8.410   1.667 -1.1730  0.1263 -0.1818
  467MOL0     C62966   6.218   8.379   1.668 -0.3407  0.4013  0.3253
  467MOL0     C62967   6.133   8.420   1.568 -0.2514 -0.1993  0.0741
  467MOL0     O62968   6.005   8.391   1.571  0.0291  0.2202  0.1426
  467MOL0     C62969   5.928   8.420   1.694 -0.8026  0.2545  0.0804
  467MOL0     C62970   5.788   8.367   1.677 -0.3865 -0.2390 -0.0805
  467MOL0     C62971   5.696   8.383   1.801 -0.5379  0.0600  0.1786
  467MOL0     C62972   5.550   8.338   1.761 -0.1028  0.0360 -0.4784
  467MOL0     C62973   5.468   8.381   1.875 -0.1958  0.0906  0.0494
  467MOL0     C62974   5.393   8.414   1.968 -0.1682  0.2918  0.0920
  467MOL0     C62975   6.195   8.472   1.454 -0.1630  0.3725 -0.2152
  467MOL0     C62976   6.335   8.498   1.446  0.4527  0.2038  0.0235
  467MOL0     C62977   6.385   8.569   1.327  0.1959 -0.3500  0.0086
  467MOL0     H62978   6.763   8.257   1.548 -0.1655  1.5420  0.9668
  467MOL0     H62979   6.981   8.197   1.491  2.6015  1.7338  1.7965
  467MOL0     H62980   7.192   8.229   1.499 -2.7710  2.2310 -0.7017
  467MOL0     H62981   7.198   8.138   1.349  1.4593 -1.3819 -0.1933
  467MOL0     H62982   7.400   8.254   1.272  2.6596 -1.3421  0.2659
  467MOL0     H62983   7.422   8.158   1.418  0.2705  1.3937  2.7326
  467MOL0     H62984   7.538   8.330   1.498  1.2418 -0.1204 -2.5653
  467MOL0     H62985   7.374   8.389   1.540  1.1193 -1.5865  0.9365
  467MOL0     H62986   7.556   8.471   1.320 -1.2840 -0.9031  0.7578
  467MOL0     H62987   7.384   8.490   1.297 -0.4907 -1.4380 -0.7961
  467MOL0     H62988   7.525   8.605   1.541 -0.8577 -1.7642 -1.2109
  467MOL0     H62989   7.541   8.684   1.374  1.3806  1.4605  1.7556
  467MOL0     H62990   7.304   8.719   1.372  0.0980 -0.4387  0.7115
  467MOL0     H62991   7.278   8.599   1.501  0.3373 -0.8881 -0.8011
  467MOL0     H62992   7.382   8.744   1.669  0.7719 -2.7618 -0.5831
  467MOL0     H62993   7.237   8.812   1.580  0.1746  1.6562 -0.3371
  467MOL0     H62994   7.441   8.907   1.423 -1.5387  0.5402 -0.3043
  467MOL0     H62995   7.351   8.999   1.541  2.2160  1.3896 -0.1740
  467MOL0     H62996   7.637   8.768   1.644 -2.4570  0.3386  0.0457
  467MOL0     H62997   7.845   8.989   1.869 -0.8693  0.1272 -0.5947
  467MOL0     H62998   7.808   8.811   1.854  2.6426 -3.0753 -3.0608
  467MOL0     H62999   8.048   8.823   1.782  1.9401  0.8756 -1.7439
  467MOL0     H63000   7.947   8.820   1.641 -1.4654 -1.8618  2.0598
  467MOL0     H63001   7.980   9.064   1.621  2.2792  0.8325 -1.6285
  467MOL0     H63002   8.131   8.988   1.622 -0.1636 -0.7003  0.0255
  467MOL0     H63003   8.170   9.027   1.873  0.6783  1.5365  1.2121
  467MOL0     H63004   8.014   9.110   1.879  0.0810  1.8663  0.1176
  467MOL0     H63005   8.339   9.142   1.979  1.0493  0.6729  0.4997
  467MOL0     H63006   8.583   9.089   1.944 -0.2069 -2.3176 -0.6852
  467MOL0     H63007   8.982   9.126   1.845  0.4955 -0.0757 -0.0091
  467MOL0     H63008   9.228   9.126   1.799  0.3242 -0.9827 -1.6400
  467MOL0     H63009   9.324   9.391   1.474  0.1139  0.2915  0.5252
  467MOL0     H63010   9.353   9.440   1.640  2.3173  0.4255  0.5234
  467MOL0     H63011   9.535   9.278   1.456 -3.9734  0.2347 -1.5554
  467MOL0     H63012   9.539   9.455   1.467 -1.2931  1.6133  1.7223
  467MOL0     H63013   9.603   9.435   1.715 -0.1825  2.8775 -3.4202
  467MOL0     H63014   9.618   9.262   1.704  0.6994 -0.2002  1.6448
  467MOL0     H63015   9.758   9.453   1.510 -0.1323 -1.5979 -1.2851
  467MOL0     H63016   9.770   9.276   1.523  1.7087 -0.4590  0.0691
  467MOL0     H63017   9.887   9.286   1.735 -1.2777 -1.3396 -1.8987
  467MOL0     H63018   9.853   9.457   1.743 -2.0429  1.3417 -1.6703
  467MOL0     H63019  10.028   9.504   1.573 -3.1005 -0.7685 -1.3458
  467MOL0     H63020  10.099   9.384   1.687  0.5536  0.8499  0.1580
  467MOL0     H63021  10.002   9.368   1.405  4.9179  0.0292 -0.9903
  467MOL0     H63022   9.979   9.219   1.507  0.0747 -1.3361 -2.7911
  467MOL0     H63023  10.249   9.359   1.464 -0.4867  0.5590  1.5670
  467MOL0     H63024  10.212   9.198   1.540 -1.5483 -0.7562 -0.0973
  467MOL0     H63025   9.156   9.284   1.418 -2.2346 -1.9832 -0.4723
  467MOL0     H63026   8.911   9.284   1.456 -0.9556 -1.9368 -0.6620
  467MOL0     H63027   8.557   9.247   1.547 -0.3099 -1.3596 -1.8122
  467MOL0     H63028   8.308   9.269   1.569 -0.9085 -0.4272  0.6093
  467MOL0     H63029   7.037   8.544   1.241  1.1035  1.2765  1.3304
  467MOL0     H63030   6.789   8.605   1.286  1.2085  2.1173  2.5336
  467MOL0     H63031   6.410   8.392   1.756  0.4313 -1.6002 -1.4928
  467MOL0     H63032   6.172   8.330   1.753  0.3962 -0.2853  0.3433
  467MOL0     H63033   5.935   8.529   1.703  1.2632  0.0689  1.3722
  467MOL0     H63034   5.970   8.379   1.786  2.5588  0.4831 -1.2028
  467MOL0     H63035   5.788   8.260   1.654 -2.0619 -0.3449  0.2585
  467MOL0     H63036   5.742   8.427   1.598  2.9398  2.1074 -0.4523
  467MOL0     H63037   5.708   8.482   1.846  0.7837 -0.0629  0.1505
  467MOL0     H63038   5.726   8.313   1.880 -0.1905  0.8051  0.7230
  467MOL0     H63039   5.530   8.389   1.666  1.8774 -1.0966 -1.5862
  467MOL0     H63040   5.533   8.232   1.745 -1.3309 -0.0990  1.4879
  467MOL0     H63041   5.325   8.429   2.050  0.3961  3.5679  0.1194
  467MOL0     H63042   6.122   8.504   1.380 -1.4379  0.5666  1.0607
  467MOL0     H63043   6.422   8.485   1.267  0.3860 -1.1432  1.1901
  467MOL0     H63044   6.302   8.622   1.280  2.1569  2.5268 -0.4663
  467MOL0     H63045   6.462   8.644   1.347 -1.1556  1.0066  0.2564
  468MOL0     O63046   5.198   2.088   3.939  0.1518  0.8940 -0.1277
  468MOL0     C63047   5.101   2.056   4.008 -0.7503 -0.4136 -0.5253
  468MOL0     O63048   5.109   1.958   4.101  0.0596  0.8132 -0.1652
  468MOL0     C63049   5.211   1.873   4.093 -0.1720 -0.8938 -0.3797
  468MOL0     C63050   5.339   1.910   4.145 -0.6489  0.5280 -0.1851
  468MOL0     C63051   5.436   1.814   4.131 -0.3577  0.1416  0.3228
  468MOL0     C63052   5.413   1.687   4.073 -0.3702  1.0508 -1.0505
  468MOL0     O63053   5.521   1.597   4.052  0.1538  0.6177  0.0105
  468MOL0     C63054   5.523   1.508   3.938  0.2860  0.7612  0.0557
  468MOL0     C63055   5.665   1.457   3.922 -0.7676  0.2890 -0.0500
  468MOL0     C63056   5.698   1.382   3.791  0.9497  0.4492  0.2720
  468MOL0     C63057   5.720   1.470   3.670  0.1009 -0.6038 -0.4716
  468MOL0     C63058   5.740   1.385   3.544 -0.6262 -0.1645 -0.1281
  468MOL0     C63059   5.853   1.290   3.555 -0.7648  0.1852  0.9677
  468MOL0     C63060   5.888   1.221   3.419  0.2420  0.6120 -0.2767
  468MOL0     C63061   5.977   1.095   3.425 -1.0962 -0.0563 -0.2110
  468MOL0     N63062   6.118   1.112   3.466  0.1821 -0.8732 -0.8109
  468MOL0     C63063   6.162   1.066   3.588  0.2246 -0.5642  1.1110
  468MOL0     C63064   6.284   1.121   3.613  0.7181 -0.1524  0.1085
  468MOL0     C63065   6.369   1.094   3.736 -0.5011 -1.0253 -0.5300
  468MOL0     C63066   6.458   0.964   3.712 -0.2663  0.3175 -0.3094
  468MOL0     C63067   6.571   0.980   3.617 -0.3247 -0.2205  0.0908
  468MOL0     C63068   6.696   0.890   3.655  0.4116  0.1320 -0.0318
  468MOL0     O63069   6.762   0.846   3.535  0.2475  0.5194  0.4446
  468MOL0     C63070   6.887   0.792   3.532 -0.7892  0.3427  0.6051
  468MOL0     C63071   6.969   0.772   3.647  0.6273 -0.3872  0.2250
  468MOL0     C63072   7.094   0.715   3.626 -0.3099  0.9051  0.4975
  468MOL0     C63073   7.150   0.692   3.499 -0.2100 -0.2880 -0.1778
  468MOL0     C63074   7.293   0.645   3.486 -1.0078 -0.3589  0.6074
  468MOL0     O63075   7.362   0.589   3.593 -0.1204 -0.6756  0.2834
  468MOL0     C63076   7.498   0.597   3.576 -0.7313  0.1398 -0.4950
  468MOL0     C63077   7.565   0.685   3.657 -0.4622  0.1748 -0.3084
  468MOL0     C63078   7.708   0.697   3.659  0.0179  0.0547  1.0704
  468MOL0     C63079   7.780   0.621   3.562  0.9396 -0.0104 -0.7732
  468MOL0     O63080   7.916   0.617   3.540  0.8983  0.4932  0.3133
  468MOL0     C63081   8.005   0.705   3.612  0.0221  0.2958 -0.9273
  468MOL0     C63082   8.142   0.645   3.599 -0.3434 -0.9213  0.3086
  468MOL0     C63083   8.239   0.707   3.698 -0.3125 -1.2117 -0.2585
  468MOL0     C63084   8.382   0.684   3.664 -0.3996  0.1703 -1.0447
  468MOL0     C63085   8.481   0.721   3.782  0.3842 -0.1201  0.0915
  468MOL0     C63086   8.631   0.710   3.747 -0.5858  0.9963  0.7370
  468MOL0     C63087   8.714   0.672   3.869  0.2400  0.1118 -0.4923
  468MOL0     C63088   8.705   0.528   3.904 -0.2533 -0.3881  0.0313
  468MOL0    Cl63089   8.844   0.495   4.006  0.3954  0.0083  0.2574
  468MOL0     C63090   7.701   0.537   3.474 -0.3232  0.8225 -0.1256
  468MOL0     C63091   7.566   0.521   3.481 -0.4025  0.8122  0.6497
  468MOL0     O63092   7.339   0.660   3.374  0.0494  0.1656  0.2176
  468MOL0     C63093   7.061   0.699   3.390 -0.7268  0.8471  0.1842
  468MOL0     C63094   6.935   0.746   3.408 -0.0060  0.3268  0.6231
  468MOL0     N63095   6.315   1.197   3.502 -0.6157  0.8007 -0.3403
  468MOL0     N63096   6.219   1.185   3.408 -0.6108  0.0789 -0.5525
  468MOL0     C63097   5.288   1.656   4.023  0.0965 -0.2572 -0.1327
  468MOL0     C63098   5.186   1.749   4.036  0.1606  0.3719 -0.1737
  468MOL0     C63099   4.973   2.143   4.005 -0.3335  0.5665 -0.1673
  468MOL0     C63100   4.884   2.134   4.114  0.4205  0.2182  0.0752
  468MOL0     C63101   4.761   2.202   4.122  0.1904 -0.6844 -0.2513
  468MOL0     C63102   4.723   2.290   4.010  0.0090  0.8327  0.1689
  468MOL0     O63103   4.615   2.371   4.011 -0.5471 -0.2905 -0.6533
  468MOL0     C63104   4.539   2.369   3.888  0.6169  0.2573 -0.4900
  468MOL0     C63105   4.392   2.355   3.918  0.4866  0.8387  0.3699
  468MOL0     C63106   4.309   2.359   3.794  0.4813 -0.1761  0.4303
  468MOL0     C63107   4.181   2.273   3.798 -0.7675  0.1161 -0.0461
  468MOL0     C63108   4.088   2.275   3.676 -0.3728 -0.1103  0.1739
  468MOL0     C63109   4.012   2.280   3.579 -0.1015 -0.0299 -0.1850
  468MOL0     C63110   4.808   2.292   3.901  0.2693 -0.8359  0.7168
  468MOL0     C63111   4.937   2.229   3.896  0.1483 -0.5326 -0.5521
  468MOL0     C63112   5.026   2.233   3.770  0.4776 -0.4070  0.5315
  468MOL0     H63113   5.354   2.006   4.193  1.5514  1.1815 -1.9681
  468MOL0     H63114   5.535   1.842   4.163 -0.3376  0.1079  0.2897
  468MOL0     H63115   5.458   1.423   3.963  0.9989  0.7778  2.1324
  468MOL0     H63116   5.492   1.547   3.840  0.1601 -3.3614 -1.7785
  468MOL0     H63117   5.687   1.390   4.006  0.7394 -0.6764 -1.1641
  468MOL0     H63118   5.739   1.537   3.924  0.4061 -0.6934 -1.6576
  468MOL0     H63119   5.616   1.313   3.772  2.6822 -2.3154  2.0474
  468MOL0     H63120   5.780   1.314   3.815  0.1275 -0.3140  1.0046
  468MOL0     H63121   5.630   1.529   3.646 -1.0748 -1.6180  1.1906
  468MOL0     H63122   5.805   1.538   3.680 -0.5964  0.5629 -1.8884
  468MOL0     H63123   5.654   1.318   3.537 -0.8498  0.2319 -1.7910
  468MOL0     H63124   5.730   1.449   3.456  0.4305 -1.4548 -1.2462
  468MOL0     H63125   5.947   1.330   3.594  0.3795 -1.8449  0.4618
  468MOL0     H63126   5.812   1.218   3.626 -2.3945  0.6977  0.5792
  468MOL0     H63127   5.938   1.297   3.359  1.6703 -0.1070 -0.0501
  468MOL0     H63128   5.799   1.186   3.366  0.2080  2.2946 -1.4012
  468MOL0     H63129   5.937   1.016   3.489  0.4587 -0.3047  0.4944
  468MOL0     H63130   5.981   1.056   3.323 -1.4200 -2.2895  0.5633
  468MOL0     H63131   6.104   1.002   3.654  0.8571 -0.9874  1.2579
  468MOL0     H63132   6.434   1.180   3.753  1.4616 -2.5097 -0.1818
  468MOL0     H63133   6.298   1.084   3.818  0.5297 -0.7211  0.4155
  468MOL0     H63134   6.504   0.942   3.808  0.4511  1.0702 -0.4802
  468MOL0     H63135   6.391   0.884   3.677  0.2327 -1.6060  2.7563
  468MOL0     H63136   6.609   1.083   3.614  0.0600 -0.3812 -1.0147
  468MOL0     H63137   6.536   0.951   3.517  1.4858  0.2393 -0.7269
  468MOL0     H63138   6.647   0.803   3.700 -2.2308  0.1695 -2.4933
  468MOL0     H63139   6.758   0.948   3.724  2.3847 -0.3215 -1.3370
  468MOL0     H63140   6.921   0.796   3.742 -0.7136 -0.2705 -0.4547
  468MOL0     H63141   7.153   0.696   3.716 -0.0774 -2.1409 -0.2162
  468MOL0     H63142   7.511   0.730   3.739 -2.4599  2.1518 -2.5161
  468MOL0     H63143   7.755   0.756   3.737 -0.8764 -0.0450  1.7122
  468MOL0     H63144   8.002   0.809   3.581  0.4331  0.6777  0.2314
  468MOL0     H63145   7.994   0.701   3.721 -0.6085  1.7586 -0.9225
  468MOL0     H63146   8.146   0.536   3.598 -0.0627 -0.9472 -1.8541
  468MOL0     H63147   8.178   0.664   3.497  0.1272 -0.3940  0.5695
  468MOL0     H63148   8.233   0.817   3.693  1.5456 -1.1358 -2.2797
  468MOL0     H63149   8.225   0.668   3.799 -0.4567 -0.5042  0.0039
  468MOL0     H63150   8.408   0.724   3.565 -0.0963 -0.6952 -1.3259
  468MOL0     H63151   8.392   0.575   3.655 -0.7268  0.0778 -0.3329
  468MOL0     H63152   8.464   0.655   3.868  1.3210 -1.4051 -0.6721
  468MOL0     H63153   8.469   0.820   3.826  2.6009 -0.0389  0.6482
  468MOL0     H63154   8.640   0.628   3.676 -0.3837 -0.7833  2.7061
  468MOL0     H63155   8.660   0.805   3.700 -2.8454  1.5500  0.3593
  468MOL0     H63156   8.695   0.735   3.956  1.6103 -0.2527  0.0949
  468MOL0     H63157   8.816   0.700   3.843  0.3914  2.1165  1.8772
  468MOL0     H63158   8.610   0.497   3.948 -0.1226 -2.1081 -0.8332
  468MOL0     H63159   8.711   0.475   3.809 -0.7988  1.3441 -1.0037
  468MOL0     H63160   7.752   0.481   3.396 -1.3234  0.4058 -0.5030
  468MOL0     H63161   7.527   0.455   3.404  0.8923  1.2473 -0.3980
  468MOL0     H63162   7.106   0.665   3.298  0.8519 -0.8169  1.4828
  468MOL0     H63163   6.871   0.740   3.321 -2.1054  0.6227  2.0711
  468MOL0     H63164   5.266   1.562   3.972 -0.3210  0.4335 -1.2603
  468MOL0     H63165   5.093   1.716   3.992  0.9035  0.1065 -1.6273
  468MOL0     H63166   4.906   2.068   4.197 -1.2161 -2.3100 -1.3572
  468MOL0     H63167   4.700   2.187   4.210 -1.0151 -1.8365 -1.2331
  468MOL0     H63168   4.572   2.293   3.817 -0.4954 -0.5688 -0.1597
  468MOL0     H63169   4.548   2.468   3.842 -5.0662  0.8602 -1.0307
  468MOL0     H63170   4.364   2.445   3.974  0.9570  1.7127 -0.7676
  468MOL0     H63171   4.360   2.265   3.971 -1.4735  1.3682  0.1619
  468MOL0     H63172   4.371   2.326   3.710 -0.6510  0.1070 -0.5478
  468MOL0     H63173   4.282   2.462   3.770 -1.4132 -0.6847  0.2193
  468MOL0     H63174   4.200   2.167   3.818 -2.7114 -0.0323  1.2630
  468MOL0     H63175   4.129   2.306   3.888  1.1779 -0.1003  1.2365
  468MOL0     H63176   3.951   2.300   3.494 -0.6295  1.2729  0.4761
  468MOL0     H63177   4.788   2.355   3.814 -0.6652 -1.1826  0.6667
  468MOL0     H63178   5.084   2.143   3.751  0.2026 -0.6745  0.9231
  468MOL0     H63179   4.965   2.253   3.682  2.2422 -0.8597 -0.8472
  468MOL0     H63180   5.103   2.311   3.767 -2.5034  2.7777 -0.2199
  469MOL0     O63181   4.901   6.247   5.277 -0.0974 -0.1456  0.0947
  469MOL0     C63182   4.883   6.359   5.218  0.6256  0.1875 -0.4386
  469MOL0     O63183   4.975   6.443   5.161  0.3399  0.8397 -0.4055
  469MOL0     C63184   5.107   6.404   5.171  0.3114 -0.5291 -1.0110
  469MOL0     C63185   5.167   6.321   5.073  0.5440 -0.2148  0.9394
  469MOL0     C63186   5.304   6.293   5.075  0.5935  0.3923  0.2351
  469MOL0     C63187   5.384   6.325   5.193 -0.1356 -0.0955  0.3955
  469MOL0     O63188   5.508   6.293   5.212  0.1771  0.1565 -0.1908
  469MOL0     C63189   5.574   6.230   5.106  0.1556  0.2412  0.3067
  469MOL0     C63190   5.719   6.198   5.147 -0.3288  0.7042  0.3779
  469MOL0     C63191   5.817   6.303   5.166 -0.5916 -0.5966 -0.4565
  469MOL0     C63192   5.957   6.253   5.131 -0.3856  0.1704  0.3250
  469MOL0     C63193   6.060   6.352   5.170 -0.2106 -0.3757 -0.2116
  469MOL0     C63194   6.198   6.287   5.145 -0.3444 -0.1587  0.4265
  469MOL0     C63195   6.303   6.390   5.180  0.2931 -0.8662  0.3378
  469MOL0     C63196   6.443   6.343   5.109 -0.0422 -0.3354  0.0179
  469MOL0     N63197   6.554   6.430   5.118 -0.7128 -0.2047 -0.5561
  469MOL0     C63198   6.679   6.413   5.184  0.2933  0.0244 -0.4182
  469MOL0     C63199   6.733   6.536   5.168  0.4942 -0.7189 -0.4292
  469MOL0     C63200   6.860   6.580   5.230 -0.1310  0.1792  0.4104
  469MOL0     C63201   6.973   6.538   5.146  0.6465  0.6764 -0.1335
  469MOL0     C63202   7.099   6.611   5.184  0.9083 -0.3566 -0.5068
  469MOL0     C63203   7.215   6.579   5.085 -0.3346  0.1094 -0.0472
  469MOL0     O63204   7.315   6.676   5.120 -0.3304 -0.2452 -0.5385
  469MOL0     C63205   7.443   6.660   5.073 -0.4520 -0.2583 -0.0352
  469MOL0     C63206   7.471   6.572   4.963 -0.2140 -0.0386  0.3218
  469MOL0     C63207   7.598   6.563   4.912  0.1676  0.5387  0.2094
  469MOL0     C63208   7.699   6.648   4.957  0.4363  0.6362 -0.7632
  469MOL0     C63209   7.837   6.640   4.902  0.1475  0.2524  0.4572
  469MOL0     O63210   7.938   6.698   4.980 -0.2186  0.9496  0.4538
  469MOL0     C63211   8.078   6.677   4.959  0.3983 -0.1799  1.0339
  469MOL0     C63212   8.136   6.546   4.935 -0.8680 -0.4720 -0.1387
  469MOL0     C63213   8.278   6.537   4.914  0.2701  0.6039 -0.7945
  469MOL0     C63214   8.368   6.641   4.914  0.2402 -0.4095  0.3651
  469MOL0     O63215   8.499   6.613   4.890  0.3444  0.4894 -0.2488
  469MOL0     C63216   8.592   6.717   4.848  0.6289 -0.3320 -0.8654
  469MOL0     C63217   8.708   6.660   4.775  0.1805  0.1183  0.1376
  469MOL0     C63218   8.801   6.766   4.724 -0.9408  0.3522  0.1137
  469MOL0     C63219   8.929   6.705   4.676 -0.1538 -0.6788 -0.9528
  469MOL0     C63220   9.034   6.824   4.663 -0.4490  0.1811  0.5096
  469MOL0     C63221   9.157   6.759   4.593  0.4123 -0.3459  0.1355
  469MOL0     C63222   9.272   6.858   4.578  0.0838 -0.2247 -0.1486
  469MOL0     C63223   9.380   6.785   4.495 -0.4526 -0.4786 -0.2260
  469MOL0    Cl63224   9.484   6.668   4.577  0.0942 -0.2497  0.2486
  469MOL0     C63225   8.310   6.761   4.950  0.5885 -0.9337  0.4846
  469MOL0     C63226   8.169   6.786   4.974  0.4072  0.5592 -0.3601
  469MOL0     O63227   7.849   6.586   4.790 -0.0389 -0.0385  0.6682
  469MOL0     C63228   7.669   6.743   5.065  0.0723  0.6049  0.5675
  469MOL0     C63229   7.546   6.738   5.122 -0.4052  0.5750 -0.5738
  469MOL0     N63230   6.646   6.627   5.113 -0.0127  0.2701  0.5787
  469MOL0     N63231   6.550   6.558   5.069  0.1347 -0.7609 -0.2453
  469MOL0     C63232   5.320   6.397   5.297  0.0586  0.6535 -0.6660
  469MOL0     C63233   5.183   6.444   5.280 -0.1654  0.6590 -0.2112
  469MOL0     C63234   4.744   6.409   5.220 -0.4205  0.0713 -0.4585
  469MOL0     C63235   4.738   6.546   5.250  0.4735  0.1173  0.3793
  469MOL0     C63236   4.612   6.600   5.280 -0.6748 -0.5996 -0.4103
  469MOL0     C63237   4.495   6.520   5.268  0.2250 -0.2066  0.9072
  469MOL0     O63238   4.374   6.578   5.281  0.2972  0.5744  0.2008
  469MOL0     C63239   4.357   6.691   5.373  0.0462 -0.8331  0.2429
  469MOL0     C63240   4.201   6.711   5.382 -0.5410  0.8797 -0.2517
  469MOL0     C63241   4.135   6.744   5.240 -0.6304  0.3294  0.4308
  469MOL0     C63242   3.982   6.765   5.240  0.5152 -0.5433  0.2360
  469MOL0     C63243   3.941   6.891   5.315 -0.3319 -0.4801 -0.0661
  469MOL0     C63244   3.920   7.009   5.340 -0.1517 -0.3829  0.3566
  469MOL0     C63245   4.503   6.392   5.225  0.1729 -0.6185  0.1200
  469MOL0     C63246   4.628   6.328   5.198 -0.2226  0.0250  0.0410
  469MOL0     C63247   4.629   6.186   5.151  0.3435  0.0491  0.6904
  469MOL0     H63248   5.104   6.290   4.991 -2.7008  2.0779  2.3648
  469MOL0     H63249   5.343   6.245   4.985 -0.8598  1.6308 -1.1146
  469MOL0     H63250   5.519   6.139   5.078  1.3862 -0.4838  0.1983
  469MOL0     H63251   5.583   6.298   5.022  1.6844 -1.3195 -0.8626
  469MOL0     H63252   5.759   6.114   5.089  0.8118  0.8263  0.9474
  469MOL0     H63253   5.706   6.150   5.245 -0.3683 -0.1499 -0.0374
  469MOL0     H63254   5.804   6.345   5.266  0.0916  1.1947 -1.0647
  469MOL0     H63255   5.796   6.386   5.098  2.4178  1.3621  0.7940
  469MOL0     H63256   5.975   6.156   5.179  0.1775 -0.4018 -0.9720
  469MOL0     H63257   5.963   6.233   5.023 -0.8978 -1.7166  0.6120
  469MOL0     H63258   6.055   6.438   5.101  2.1502 -1.2688 -1.6164
  469MOL0     H63259   6.051   6.387   5.273 -1.3435 -1.3770  0.0562
  469MOL0     H63260   6.215   6.197   5.206 -2.6096 -0.0390  1.3311
  469MOL0     H63261   6.198   6.258   5.040 -2.1949 -0.0739  0.3693
  469MOL0     H63262   6.326   6.394   5.287 -0.4418 -0.0897  0.4762
  469MOL0     H63263   6.279   6.489   5.139 -0.4219 -1.8149 -1.6378
  469MOL0     H63264   6.468   6.247   5.155  2.8425  1.0526  1.5459
  469MOL0     H63265   6.415   6.325   5.004 -2.4524  0.5295  0.4389
  469MOL0     H63266   6.723   6.325   5.229  1.1638  0.9834  0.6990
  469MOL0     H63267   6.865   6.686   5.256  2.4088 -0.1625  1.5929
  469MOL0     H63268   6.873   6.525   5.324  1.5085  0.1086  0.1612
  469MOL0     H63269   7.001   6.432   5.155 -1.1452  0.3056  1.7448
  469MOL0     H63270   6.956   6.567   5.042 -0.3510 -0.9167 -0.4556
  469MOL0     H63271   7.127   6.589   5.287  2.6190  0.6517 -0.7172
  469MOL0     H63272   7.077   6.717   5.166  0.2138 -0.2447  0.8667
  469MOL0     H63273   7.183   6.574   4.980  1.0710  0.0060 -0.4829
  469MOL0     H63274   7.259   6.482   5.107  0.7854  0.5476 -0.2992
  469MOL0     H63275   7.396   6.498   4.935  0.9218 -1.3957  0.7938
  469MOL0     H63276   7.620   6.492   4.832 -1.2462  0.4042 -0.0880
  469MOL0     H63277   8.080   6.454   4.948 -0.0758 -1.1565 -1.4554
  469MOL0     H63278   8.313   6.435   4.912 -0.0317  0.4581  0.6838
  469MOL0     H63279   8.540   6.788   4.782  2.0452  0.0656 -1.5817
  469MOL0     H63280   8.624   6.769   4.939 -1.8814  0.2505 -0.2364
  469MOL0     H63281   8.753   6.583   4.839  0.7220 -0.8155 -1.3040
  469MOL0     H63282   8.662   6.608   4.690 -3.6201  0.2194  1.9322
  469MOL0     H63283   8.759   6.817   4.637  0.7443  1.6779  0.0332
  469MOL0     H63284   8.822   6.836   4.805 -0.6537 -0.9757  1.2106
  469MOL0     H63285   8.914   6.651   4.581  1.0501 -0.8151 -1.0808
  469MOL0     H63286   8.967   6.635   4.751 -1.4370 -1.0644 -0.6386
  469MOL0     H63287   9.058   6.867   4.760 -4.3508 -0.8361  2.1409
  469MOL0     H63288   8.995   6.900   4.596  0.1136  1.0674  1.1730
  469MOL0     H63289   9.190   6.671   4.651  0.2097 -0.5846 -0.1121
  469MOL0     H63290   9.127   6.728   4.493 -2.0627 -1.2159  1.0731
  469MOL0     H63291   9.315   6.893   4.672 -3.0176  0.4231  1.1775
  469MOL0     H63292   9.237   6.946   4.524 -2.6809 -1.1836 -0.1079
  469MOL0     H63293   9.325   6.732   4.417  2.9337  0.0829 -3.2780
  469MOL0     H63294   9.447   6.859   4.450 -0.6474  0.0078  0.2807
  469MOL0     H63295   8.381   6.843   4.956  2.3879 -2.3954 -0.1040
  469MOL0     H63296   8.136   6.883   5.010 -0.1045  0.2155  0.1335
  469MOL0     H63297   7.749   6.805   5.103  0.1338  0.7834  0.1544
  469MOL0     H63298   7.519   6.798   5.209  0.0306 -1.3486  0.9566
  469MOL0     H63299   5.370   6.415   5.392  1.3184 -0.8090 -1.0127
  469MOL0     H63300   5.129   6.484   5.365  1.4169  1.9138  0.2527
  469MOL0     H63301   4.816   6.619   5.270 -3.3822  4.7097  0.5107
  469MOL0     H63302   4.611   6.703   5.314  1.6304 -0.7631  0.3040
  469MOL0     H63303   4.405   6.783   5.338  0.2255 -0.1946  2.0649
  469MOL0     H63304   4.397   6.662   5.470  1.3873  1.3760  0.4166
  469MOL0     H63305   4.192   6.794   5.452  2.8863  1.5219 -0.4300
  469MOL0     H63306   4.168   6.616   5.426  1.3401  0.2241 -0.1690
  469MOL0     H63307   4.153   6.656   5.178 -2.6501 -0.0802  0.3635
  469MOL0     H63308   4.191   6.827   5.195  1.0059 -1.3882 -0.8718
  469MOL0     H63309   3.953   6.775   5.135 -2.0923  1.5029  1.0245
  469MOL0     H63310   3.937   6.671   5.272  1.2802 -1.7477 -1.9794
  469MOL0     H63311   3.913   7.114   5.360 -1.0142  0.1275 -2.2909
  469MOL0     H63312   4.409   6.338   5.213 -1.4244  1.6157  1.6514
  469MOL0     H63313   4.724   6.152   5.108 -1.1529  1.1483 -4.1286
  469MOL0     H63314   4.601   6.120   5.234  1.0872  0.6881  1.4640
  469MOL0     H63315   4.555   6.188   5.070 -0.0854  1.3222  1.0998
  470MOL0     O63316   0.427  10.541   5.861 -0.1458 -0.6050 -1.1004
  470MOL0     C63317   0.502  10.524   5.956  0.2181  0.0999 -0.4313
  470MOL0     O63318   0.636  10.531   5.953 -0.4860  0.6919 -0.1661
  470MOL0     C63319   0.702  10.549   5.834 -0.4716 -0.7687 -0.5876
  470MOL0     C63320   0.773  10.441   5.790 -0.0922 -0.5591 -0.5603
  470MOL0     C63321   0.844  10.460   5.676  0.6019  0.2373  0.0535
  470MOL0     C63322   0.844  10.581   5.602 -0.0503 -0.0544  0.1478
  470MOL0     O63323   0.912  10.607   5.487  0.4269 -0.9855  0.0923
  470MOL0     C63324   1.004  10.519   5.426 -0.2231  0.5870  0.0084
  470MOL0     C63325   1.127  10.501   5.521  0.9139  0.2650 -0.0041
  470MOL0     C63326   1.234  10.405   5.474 -0.6664  0.1423 -0.2158
  470MOL0     C63327   1.366  10.413   5.555  0.5382  0.1149 -0.2048
  470MOL0     C63328   1.457  10.289   5.555  0.1371 -0.4628 -0.2275
  470MOL0     C63329   1.549  10.290   5.429 -0.5619  0.5461 -0.5808
  470MOL0     C63330   1.677  10.213   5.447 -0.0203  0.4360 -0.2671
  470MOL0     C63331   1.758  10.258   5.328  0.5266  0.2144 -0.0368
  470MOL0     N63332   1.879  10.170   5.317 -0.8225 -0.2589 -0.3774
  470MOL0     C63333   1.889  10.051   5.242  0.2688  0.1401 -0.6444
  470MOL0     C63334   2.024  10.036   5.224 -0.6158  0.1261  1.3823
  470MOL0     C63335   2.091   9.919   5.151  0.3119 -0.6718  0.0694
  470MOL0     C63336   2.075   9.915   4.996  0.2104 -0.0137  0.3349
  470MOL0     C63337   2.165  10.008   4.912  0.7912 -0.3084  0.0950
  470MOL0     C63338   2.315   9.982   4.937  0.0609 -0.6084  0.6783
  470MOL0     O63339   2.369  10.052   5.046 -0.5028 -0.8289  0.1212
  470MOL0     C63340   2.498  10.044   5.088 -0.2312 -0.1133 -0.4991
  470MOL0     C63341   2.621  10.020   5.019 -0.0717 -0.4169  0.5016
  470MOL0     C63342   2.744  10.022   5.078 -0.2805 -1.0091 -0.2746
  470MOL0     C63343   2.755  10.058   5.216  0.0549  0.2492 -0.3540
  470MOL0     C63344   2.892  10.046   5.275  0.5008 -0.3939 -0.3277
  470MOL0     O63345   2.912  10.086   5.399 -0.2124 -0.3335  0.5260
  470MOL0     C63346   3.034  10.076   5.459 -0.4158  0.0478 -0.4715
  470MOL0     C63347   3.046  10.048   5.594 -0.8530 -0.7657  0.3983
  470MOL0     C63348   3.165  10.058   5.665 -0.3369 -0.5369  0.0374
  470MOL0     C63349   3.274  10.108   5.599  0.1465 -0.1402 -0.0092
  470MOL0     O63350   3.388  10.105   5.673  0.3736 -0.3103  0.2048
  470MOL0     C63351   3.515  10.169   5.620 -0.2644  0.3251  0.2408
  470MOL0     C63352   3.625  10.124   5.712  1.0732 -0.3338  0.6845
  470MOL0     C63353   3.747  10.198   5.663 -0.4486 -0.5082  0.4438
  470MOL0     C63354   3.794  10.151   5.522 -0.1863 -0.0274 -0.4933
  470MOL0     C63355   3.944  10.170   5.487 -0.5031 -0.4277 -0.0137
  470MOL0     C63356   3.973  10.319   5.492  0.3620 -0.5126 -0.3328
  470MOL0     C63357   4.102  10.362   5.424  1.2193 -0.3266 -0.3301
  470MOL0     C63358   4.216  10.325   5.503 -0.4953  0.3025  0.6313
  470MOL0    Cl63359   4.372  10.381   5.440  0.1898 -0.2711 -0.4373
  470MOL0     C63360   3.269  10.148   5.469  0.0914 -0.7983 -0.0449
  470MOL0     C63361   3.144  10.138   5.405  0.2975 -0.4404  0.4071
  470MOL0     O63362   2.977   9.988   5.211 -0.3275  0.7087 -0.6002
  470MOL0     C63363   2.635  10.090   5.284 -0.3433 -0.0274  0.0311
  470MOL0     C63364   2.511  10.081   5.224 -0.0599 -0.6076 -0.5799
  470MOL0     N63365   2.094  10.138   5.289 -0.3706 -0.3645 -0.1423
  470MOL0     N63366   2.005  10.224   5.332 -0.1804 -0.1969 -0.0335
  470MOL0     C63367   0.771  10.690   5.651 -0.4979  0.2773  0.4498
  470MOL0     C63368   0.699  10.670   5.763 -0.2363 -0.2387 -0.2812
  470MOL0     C63369   0.445  10.518   6.091  0.8633  0.0640 -0.1501
  470MOL0     C63370   0.489  10.608   6.180 -0.3756 -0.3023 -0.5471
  470MOL0     C63371   0.432  10.617   6.307 -0.3328 -0.2224  0.6819
  470MOL0     C63372   0.327  10.530   6.345 -0.2612 -0.9310  0.1401
  470MOL0     O63373   0.283  10.536   6.475  0.0430 -0.6191  0.7200
  470MOL0     C63374   0.157  10.470   6.496 -0.4649 -0.7491  0.2308
  470MOL0     C63375   0.119  10.506   6.640  0.7595 -0.2429  0.5419
  470MOL0     C63376   0.224  10.456   6.742 -0.1345  0.1661  0.6540
  470MOL0     C63377   0.188  10.495   6.885  0.1814 -0.3180 -0.0034
  470MOL0     C63378   0.070  10.435   6.935  0.5058 -0.4856  0.1628
  470MOL0     C63379  -0.036  10.399   6.974 -0.2314  0.6636  0.6112
  470MOL0     C63380   0.289  10.433   6.251  0.0511  0.4605 -0.4637
  470MOL0     C63381   0.337  10.433   6.123 -0.7963 -0.5443 -0.0270
  470MOL0     C63382   0.281  10.343   6.017 -0.0611  0.0908 -0.6220
  470MOL0     H63383   0.761  10.344   5.838 -0.7954 -0.2647 -0.1217
  470MOL0     H63384   0.895  10.369   5.646  0.3760 -0.4622  1.6641
  470MOL0     H63385   0.956  10.420   5.421  0.0079  0.3875  1.3383
  470MOL0     H63386   1.037  10.545   5.325 -0.9012 -1.1277 -0.6988
  470MOL0     H63387   1.098  10.461   5.618  0.3581 -0.8594 -0.6027
  470MOL0     H63388   1.163  10.603   5.533 -2.8841  2.0648 -1.9665
  470MOL0     H63389   1.248  10.431   5.369 -0.0787  0.4039 -0.0765
  470MOL0     H63390   1.196  10.303   5.480  2.0530 -0.8881  1.9129
  470MOL0     H63391   1.415  10.506   5.523  0.7086  0.2138  0.3294
  470MOL0     H63392   1.342  10.414   5.661 -0.5748 -0.7191 -0.4356
  470MOL0     H63393   1.516  10.284   5.647 -1.6217 -3.0830  0.8513
  470MOL0     H63394   1.397  10.198   5.564  0.3525 -0.5253  0.6007
  470MOL0     H63395   1.497  10.244   5.344 -1.3629  1.9888 -0.8939
  470MOL0     H63396   1.569  10.395   5.405  1.0327  1.1552  2.8111
  470MOL0     H63397   1.666  10.104   5.446  1.3114  0.2794 -1.3228
  470MOL0     H63398   1.727  10.246   5.539  1.0769  0.4184 -0.8351
  470MOL0     H63399   1.690  10.258   5.242 -2.4391 -0.9634  2.1091
  470MOL0     H63400   1.778  10.365   5.338 -2.2800  1.0090 -1.5336
  470MOL0     H63401   1.813   9.978   5.217  0.1948  0.5098 -1.5195
  470MOL0     H63402   2.199   9.913   5.164  0.3413 -2.6143 -0.7092
  470MOL0     H63403   2.044   9.838   5.208  0.9170 -0.4332  0.9326
  470MOL0     H63404   2.088   9.811   4.965  1.3027  0.5855 -1.3061
  470MOL0     H63405   1.971   9.948   4.984  0.9590  1.8881 -1.7129
  470MOL0     H63406   2.149  10.110   4.949 -0.9288  0.1096 -1.6734
  470MOL0     H63407   2.134  10.006   4.808 -0.5781  2.4703  0.3509
  470MOL0     H63408   2.353  10.030   4.846  0.0337  0.7475  1.3663
  470MOL0     H63409   2.339   9.875   4.938 -1.0605 -0.8765  1.5846
  470MOL0     H63410   2.617   9.991   4.914  0.3246 -1.9920  0.8956
  470MOL0     H63411   2.832   9.991   5.022 -1.5912  0.4631 -3.4328
  470MOL0     H63412   2.960  10.012   5.651 -2.0966 -1.7355 -1.9524
  470MOL0     H63413   3.181  10.025   5.767  0.1533 -1.2974 -0.2747
  470MOL0     H63414   3.534  10.135   5.518  0.4449  0.2744  0.3893
  470MOL0     H63415   3.500  10.277   5.622 -1.2515  0.2043  2.4747
  470MOL0     H63416   3.604  10.150   5.816  0.0213 -1.3238  0.7463
  470MOL0     H63417   3.635  10.015   5.704  4.4036 -0.0437 -0.6560
  470MOL0     H63418   3.735  10.307   5.671  0.8436 -0.5178  4.2510
  470MOL0     H63419   3.825  10.190   5.738  3.1106  1.6300 -2.7013
  470MOL0     H63420   3.726  10.195   5.449 -0.1999  2.1715  0.7570
  470MOL0     H63421   3.777  10.043   5.522  1.3842 -0.3058  0.1730
  470MOL0     H63422   3.959  10.144   5.382 -0.7828  1.5515 -0.5801
  470MOL0     H63423   4.015  10.117   5.552  0.4899 -0.9411 -1.4780
  470MOL0     H63424   3.894  10.375   5.442 -0.3577 -2.0815 -1.0358
  470MOL0     H63425   3.986  10.354   5.594 -3.8975  1.7283 -0.3578
  470MOL0     H63426   4.086  10.470   5.437  1.3693 -0.3853  0.3557
  470MOL0     H63427   4.101  10.342   5.316 -1.5336 -0.5230 -0.3411
  470MOL0     H63428   4.203  10.362   5.605  1.2263  0.4649  0.8283
  470MOL0     H63429   4.229  10.216   5.505 -1.8419  0.0869 -0.6023
  470MOL0     H63430   3.355  10.198   5.424 -0.1984  1.7363  1.9616
  470MOL0     H63431   3.122  10.161   5.301 -0.4723 -2.4005  0.1045
  470MOL0     H63432   2.634  10.119   5.389  0.4351  1.3169 -0.3106
  470MOL0     H63433   2.425  10.090   5.290 -1.2208  0.7470 -2.1773
  470MOL0     H63434   0.755  10.782   5.596  0.1114  0.6705  0.9102
  470MOL0     H63435   0.640  10.756   5.791  1.4192  1.1597 -0.8972
  470MOL0     H63436   0.558  10.684   6.144 -0.1494  0.4739  1.4056
  470MOL0     H63437   0.475  10.679   6.386 -0.4872 -1.6135  1.8876
  470MOL0     H63438   0.170  10.362   6.486  1.1368 -0.5207 -0.4889
  470MOL0     H63439   0.083  10.509   6.426  0.5834  0.1541 -0.4048
  470MOL0     H63440   0.023  10.457   6.662  1.7777 -1.6032  2.1964
  470MOL0     H63441   0.112  10.614   6.652  1.2301 -0.2821  1.2070
  470MOL0     H63442   0.324  10.494   6.719  0.5436 -1.4683  0.7666
  470MOL0     H63443   0.239  10.348   6.735 -1.6599 -0.0053 -0.3156
  470MOL0     H63444   0.266  10.457   6.952  0.7228  1.6464  0.5460
  470MOL0     H63445   0.187  10.603   6.897 -1.0732 -0.2796 -0.3345
  470MOL0     H63446  -0.130  10.373   7.018  0.2484 -0.9283  0.7327
  470MOL0     H63447   0.210  10.362   6.276 -1.3173  1.9609 -0.3999
  470MOL0     H63448   0.358  10.280   5.972  0.7345  1.8971 -1.9028
  470MOL0     H63449   0.204  10.278   6.059 -0.2125 -0.0707 -1.1435
  470MOL0     H63450   0.240  10.402   5.934 -1.9415  0.9694  0.8432
  471MOL0     O63451   4.894   9.086   0.126 -0.0717  0.4294 -0.0200
  471MOL0     C63452   4.843   8.977   0.100 -0.1785 -0.1231  0.7009
  471MOL0     O63453   4.900   8.852   0.123 -0.0329 -0.4168  0.1650
  471MOL0     C63454   5.012   8.832   0.202 -0.5643  0.6445 -0.3171
  471MOL0     C63455   5.011   8.731   0.298  0.4338 -0.3359  0.3154
  471MOL0     C63456   5.124   8.695   0.367  0.0158 -0.6333 -0.1191
  471MOL0     C63457   5.244   8.760   0.338 -0.1799  0.5034 -0.2394
  471MOL0     O63458   5.359   8.724   0.407  0.1452  0.0001  0.2094
  471MOL0     C63459   5.400   8.583   0.408 -0.4976  0.5425 -0.8737
  471MOL0     C63460   5.540   8.577   0.473 -0.6521  0.4882 -0.6075
  471MOL0     C63461   5.651   8.586   0.366  0.1772  0.4987  0.1455
  471MOL0     C63462   5.794   8.563   0.426  0.1863  0.6620 -0.0029
  471MOL0     C63463   5.888   8.631   0.325 -0.4610 -0.5677 -0.1677
  471MOL0     C63464   6.039   8.621   0.369  1.2308  0.5182 -1.5048
  471MOL0     C63465   6.120   8.710   0.279  0.2253 -0.2560 -0.5183
  471MOL0     C63466   6.266   8.715   0.312 -0.0384 -0.2525  0.1251
  471MOL0     N63467   6.337   8.598   0.269  0.3006 -0.5742  0.4282
  471MOL0     C63468   6.419   8.595   0.152  0.2558 -0.9319  0.2659
  471MOL0     C63469   6.461   8.472   0.146  0.1353 -0.5976  0.2050
  471MOL0     C63470   6.560   8.421   0.048  0.0843 -0.2010  0.7133
  471MOL0     C63471   6.692   8.403   0.116  0.3904  0.1976  0.4395
  471MOL0     C63472   6.801   8.379   0.003 -0.5924 -0.0432 -0.2440
  471MOL0     C63473   6.941   8.366   0.070 -0.0533 -0.2794  0.6452
  471MOL0     O63474   7.041   8.304  -0.015  0.3014 -0.1616 -0.4379
  471MOL0     C63475   7.170   8.319   0.032 -0.9466  0.1622  0.2152
  471MOL0     C63476   7.226   8.411   0.126 -0.2849 -0.8637  0.4991
  471MOL0     C63477   7.360   8.410   0.156  0.0388  0.5757  0.0787
  471MOL0     C63478   7.447   8.298   0.123  0.2977  0.6036 -0.0412
  471MOL0     C63479   7.582   8.294   0.166 -0.1511 -0.2573  0.4478
  471MOL0     O63480   7.633   8.405   0.230  0.3904 -0.0568 -0.1766
  471MOL0     C63481   7.757   8.387   0.285 -0.2581  0.0436 -0.0648
  471MOL0     C63482   7.766   8.317   0.404 -0.0887 -0.7559 -0.9217
  471MOL0     C63483   7.896   8.298   0.460 -0.2557  0.2439  0.1219
  471MOL0     C63484   8.012   8.356   0.406  0.4402 -0.0068 -0.5143
  471MOL0     O63485   8.138   8.329   0.463 -0.2471  0.1052 -0.0105
  471MOL0     C63486   8.239   8.417   0.425 -0.2430 -0.0756  0.0721
  471MOL0     C63487   8.344   8.452   0.533  0.5617  0.0231 -0.5377
  471MOL0     C63488   8.420   8.327   0.573 -0.4218  0.5560  0.3015
  471MOL0     C63489   8.551   8.368   0.647  0.4215 -0.5068  0.6490
  471MOL0     C63490   8.660   8.267   0.652 -0.1991 -0.6976 -0.1723
  471MOL0     C63491   8.757   8.314   0.762  0.3191  0.0484 -0.4041
  471MOL0     C63492   8.878   8.224   0.763  0.1554 -0.1039  0.0984
  471MOL0     C63493   8.876   8.108   0.863 -0.0276 -0.6498 -0.0082
  471MOL0    Cl63494   9.024   8.127   0.960  0.0527  0.3963 -0.2003
  471MOL0     C63495   7.992   8.433   0.294 -0.3383  0.7371  0.7464
  471MOL0     C63496   7.870   8.447   0.227 -0.6245 -0.2317  0.9424
  471MOL0     O63497   7.641   8.189   0.146  0.1497 -0.2979  0.1585
  471MOL0     C63498   7.393   8.210   0.027  0.5780 -0.5409 -0.5938
  471MOL0     C63499   7.258   8.225  -0.011 -0.8066 -1.0244 -1.0467
  471MOL0     N63500   6.410   8.398   0.251 -0.1098 -0.0313 -0.9041
  471MOL0     N63501   6.338   8.476   0.325 -0.3038 -0.5064 -0.0349
  471MOL0     C63502   5.246   8.861   0.247 -0.0327  0.5427 -0.0477
  471MOL0     C63503   5.137   8.891   0.173 -1.1462  0.1318  0.5308
  471MOL0     C63504   4.714   8.977   0.026  0.4260  0.1922  0.0290
  471MOL0     C63505   4.644   8.851   0.013 -0.2221 -0.1065 -0.3035
  471MOL0     C63506   4.515   8.844  -0.041  0.4352 -0.2288 -0.5156
  471MOL0     C63507   4.453   8.957  -0.089 -0.4291 -0.9449 -0.5005
  471MOL0     O63508   4.336   8.970  -0.159  0.3387 -0.0227  0.1508
  471MOL0     C63509   4.256   8.850  -0.173 -0.1564 -0.5548  0.6437
  471MOL0     C63510   4.130   8.908  -0.231 -0.2899  0.6794  0.5016
  471MOL0     C63511   4.009   8.805  -0.243  0.8139  0.8452 -0.7879
  471MOL0     C63512   3.874   8.865  -0.301 -0.1621  0.0057 -0.4216
  471MOL0     C63513   3.764   8.766  -0.287 -0.7106  0.0794  0.0963
  471MOL0     C63514   3.673   8.693  -0.263 -0.5419 -0.5698  0.5550
  471MOL0     C63515   4.522   9.078  -0.077 -0.2303 -0.2216  0.0211
  471MOL0     C63516   4.649   9.096  -0.017  0.3079  0.5102  0.3381
  471MOL0     C63517   4.702   9.242  -0.008 -0.6505  0.1132  0.3733
  471MOL0     H63518   4.922   8.672   0.321  0.3262 -0.5646 -0.6376
  471MOL0     H63519   5.131   8.630   0.454  1.6069  3.1995  2.9023
  471MOL0     H63520   5.324   8.527   0.463 -0.2092  3.3802  2.7499
  471MOL0     H63521   5.408   8.551   0.303  0.8542  1.6844 -1.1554
  471MOL0     H63522   5.551   8.478   0.518 -0.3163  1.0350  0.5566
  471MOL0     H63523   5.550   8.650   0.553  3.2126 -0.1251 -0.3377
  471MOL0     H63524   5.639   8.683   0.317  1.2255  0.5608 -0.0212
  471MOL0     H63525   5.628   8.514   0.287 -0.0508 -0.2133  0.8439
  471MOL0     H63526   5.803   8.602   0.527  0.2898  0.0524  0.2296
  471MOL0     H63527   5.822   8.458   0.437  1.3531  0.9202 -0.3454
  471MOL0     H63528   5.869   8.593   0.224  0.3435  0.9730 -0.9319
  471MOL0     H63529   5.865   8.737   0.324 -1.0720 -0.6781  0.7192
  471MOL0     H63530   6.035   8.670   0.467 -1.0429  0.9760 -1.7708
  471MOL0     H63531   6.078   8.519   0.375  1.0060  0.4386 -1.3744
  471MOL0     H63532   6.075   8.809   0.281 -0.0040 -0.3670  0.4514
  471MOL0     H63533   6.111   8.672   0.177  1.8627  1.8998 -1.5422
  471MOL0     H63534   6.319   8.804   0.277  2.4295 -1.3557  0.8415
  471MOL0     H63535   6.274   8.728   0.420 -3.4590  2.2474  0.2291
  471MOL0     H63536   6.436   8.679   0.084 -1.5707  0.6406  1.6316
  471MOL0     H63537   6.523   8.331   0.000  1.6011  1.1852 -3.5963
  471MOL0     H63538   6.565   8.496  -0.032 -2.4667  0.7714  1.3692
  471MOL0     H63539   6.710   8.486   0.184 -0.1472  0.2133  0.5707
  471MOL0     H63540   6.689   8.309   0.173 -0.8345 -1.1281 -1.6860
  471MOL0     H63541   6.793   8.464  -0.065 -0.1163  0.3954  0.2315
  471MOL0     H63542   6.775   8.293  -0.059  0.5829 -1.5327  1.2490
  471MOL0     H63543   6.932   8.311   0.164  1.2499 -1.1329  0.2926
  471MOL0     H63544   6.974   8.467   0.095 -0.9329  0.2551 -0.2707
  471MOL0     H63545   7.163   8.489   0.166 -0.9424 -1.4094  0.5472
  471MOL0     H63546   7.401   8.502   0.197  0.1294  0.8823 -0.6876
  471MOL0     H63547   7.677   8.263   0.436 -0.4382  0.0376 -0.5161
  471MOL0     H63548   7.919   8.234   0.544  2.3428 -0.5703 -1.1193
  471MOL0     H63549   8.282   8.387   0.329  0.5846  0.0601  0.3915
  471MOL0     H63550   8.193   8.514   0.405 -1.3699 -1.0820 -2.8188
  471MOL0     H63551   8.410   8.532   0.496  0.8931 -0.4150 -0.9030
  471MOL0     H63552   8.278   8.490   0.612 -0.2817 -0.5614 -0.9486
  471MOL0     H63553   8.364   8.259   0.638  3.1113 -0.7052  2.2943
  471MOL0     H63554   8.443   8.261   0.489  0.0846  0.8443  0.2051
  471MOL0     H63555   8.520   8.391   0.750 -1.0155  1.0092 -0.0611
  471MOL0     H63556   8.581   8.463   0.602 -0.1132 -0.2409  0.8384
  471MOL0     H63557   8.716   8.271   0.558 -0.8686 -3.0925 -0.7464
  471MOL0     H63558   8.618   8.167   0.666  1.0143 -1.0630  1.0024
  471MOL0     H63559   8.792   8.415   0.739  0.2152  0.6848  1.9914
  471MOL0     H63560   8.703   8.311   0.858  2.3032 -0.5194  0.7510
  471MOL0     H63561   8.964   8.289   0.783 -1.9697  2.3526  1.9836
  471MOL0     H63562   8.902   8.185   0.664  3.1944  1.3703  0.1443
  471MOL0     H63563   8.788   8.100   0.927 -1.3861 -1.7541 -1.8783
  471MOL0     H63564   8.875   8.013   0.809  2.2058  0.0352 -1.3796
  471MOL0     H63565   8.076   8.480   0.245 -0.5193 -0.0496 -0.3547
  471MOL0     H63566   7.863   8.521   0.149  2.0921  0.2038  1.0223
  471MOL0     H63567   7.442   8.130  -0.027 -0.2357 -0.3575 -1.6473
  471MOL0     H63568   7.225   8.142  -0.072  0.1393 -2.0404 -0.2201
  471MOL0     H63569   5.340   8.915   0.243  0.5052 -0.2749  1.0002
  471MOL0     H63570   5.142   8.959   0.088  0.1764 -1.8626 -1.0992
  471MOL0     H63571   4.689   8.758   0.044 -1.6642 -0.7046  0.0935
  471MOL0     H63572   4.471   8.745  -0.043  2.3733 -1.1431 -0.9654
  471MOL0     H63573   4.235   8.801  -0.078 -2.2434 -0.7488  0.1349
  471MOL0     H63574   4.309   8.787  -0.245  0.6704 -0.0477  0.7955
  471MOL0     H63575   4.151   8.948  -0.330  0.9721  0.4110  0.6357
  471MOL0     H63576   4.086   8.982  -0.164 -1.2081 -1.1455  2.0304
  471MOL0     H63577   3.985   8.760  -0.147 -1.6252  2.1334 -0.7068
  471MOL0     H63578   4.040   8.727  -0.313 -0.7845 -0.8481  0.3119
  471MOL0     H63579   3.867   8.956  -0.241 -0.7227 -1.7200  2.3202
  471MOL0     H63580   3.885   8.889  -0.407  0.4487  0.6911 -0.2063
  471MOL0     H63581   3.597   8.639  -0.210 -0.5260 -1.5006 -0.3337
  471MOL0     H63582   4.483   9.164  -0.130 -0.1469 -0.5005 -0.5044
  471MOL0     H63583   4.806   9.251  -0.041 -0.3235  0.4538  1.4574
  471MOL0     H63584   4.639   9.308  -0.069 -1.2314  1.2670  2.1773
  471MOL0     H63585   4.690   9.272   0.096 -0.4953 -3.3528  1.5401
  472MOL0     O63586   0.292   5.529  10.341  0.1384 -0.4099  0.2986
  472MOL0     C63587   0.273   5.416  10.290  0.0644 -1.2568 -0.0539
  472MOL0     O63588   0.368   5.324  10.286 -0.4028 -0.1470 -0.3742
  472MOL0     C63589   0.483   5.348  10.351  0.1439 -0.2251 -0.0884
  472MOL0     C63590   0.604   5.363  10.276  0.4532 -0.3126 -0.1104
  472MOL0     C63591   0.732   5.363  10.338 -0.1173  0.3095  0.7451
  472MOL0     C63592   0.742   5.379  10.477 -0.2514 -0.2019  0.2595
  472MOL0     O63593   0.858   5.410  10.538 -0.1731 -0.2904 -0.8591
  472MOL0     C63594   0.982   5.352  10.502 -0.8830  0.7900  0.2270
  472MOL0     C63595   1.097   5.401  10.589  0.3360  0.5019 -0.0252
  472MOL0     C63596   1.124   5.336  10.731 -0.2871 -0.2948  0.0663
  472MOL0     C63597   1.246   5.405  10.797  0.2148 -0.1118 -0.0615
  472MOL0     C63598   1.323   5.315  10.897  0.0746 -0.6721  0.0925
  472MOL0     C63599   1.233   5.242  11.001 -0.2275 -1.1021 -0.2713
  472MOL0     C63600   1.317   5.159  11.101  0.0387 -0.7993  0.6591
  472MOL0     C63601   1.222   5.095  11.202 -0.0727  0.4220 -0.3781
  472MOL0     N63602   1.304   5.006  11.287 -0.7891  0.2269  0.3117
  472MOL0     C63603   1.399   5.049  11.371  0.7780  0.7413 -0.2442
  472MOL0     C63604   1.470   4.938  11.389 -0.0923  0.2930  1.1770
  472MOL0     C63605   1.607   4.911  11.447  0.7956  0.9238 -0.1184
  472MOL0     C63606   1.699   5.026  11.480  1.3385  0.1409  0.9991
  472MOL0     C63607   1.758   5.084  11.354 -0.0170 -0.2629 -0.1736
  472MOL0     C63608   1.874   5.012  11.293 -0.1189  0.2057  0.0538
  472MOL0     O63609   1.946   5.099  11.202  0.3452  0.2203  0.3247
  472MOL0     C63610   2.046   5.035  11.123 -0.0178  0.2363 -0.2835
  472MOL0     C63611   2.090   4.903  11.135 -0.0969 -0.6453  0.7085
  472MOL0     C63612   2.199   4.864  11.054 -0.6589  0.5696  0.6844
  472MOL0     C63613   2.261   4.947  10.964  0.1184 -0.4046 -0.0610
  472MOL0     C63614   2.390   4.906  10.904 -0.1520  0.5627  0.8363
  472MOL0     O63615   2.423   4.769  10.904  0.1098 -0.0447  0.1024
  472MOL0     C63616   2.516   4.739  10.814  0.3111 -0.0285 -0.0446
  472MOL0     C63617   2.650   4.744  10.843 -0.2775  0.6504  0.4398
  472MOL0     C63618   2.747   4.702  10.748  0.2053  0.5980  0.0534
  472MOL0     C63619   2.713   4.665  10.623  0.1645 -0.0885  1.1940
  472MOL0     O63620   2.802   4.644  10.517  0.5627 -0.3502 -0.0068
  472MOL0     C63621   2.927   4.718  10.511  0.3361  0.2610 -0.3083
  472MOL0     C63622   2.902   4.868  10.486  0.6489  0.5936 -0.4589
  472MOL0     C63623   3.029   4.953  10.470 -0.7183  0.0497 -0.6469
  472MOL0     C63624   3.095   4.986  10.609  0.0964 -1.1974 -0.9220
  472MOL0     C63625   3.202   5.097  10.586 -0.2752 -0.3733  0.1661
  472MOL0     C63626   3.271   5.128  10.713  0.0481 -0.4723 -0.1201
  472MOL0     C63627   3.393   5.223  10.696 -0.5620  0.5415  0.2765
  472MOL0     C63628   3.356   5.363  10.654 -0.5012 -0.5730 -0.1351
  472MOL0    Cl63629   3.496   5.478  10.625  0.4152  0.0291  0.1123
  472MOL0     C63630   2.579   4.656  10.593  1.0267 -0.1935  0.8217
  472MOL0     C63631   2.480   4.691  10.687 -0.1522 -1.0335 -0.2665
  472MOL0     O63632   2.463   4.993  10.848 -0.2911 -0.2797 -0.5808
  472MOL0     C63633   2.209   5.075  10.952 -0.3964 -0.0230  0.2342
  472MOL0     C63634   2.101   5.113  11.026  0.2003  0.4765 -0.2233
  472MOL0     N63635   1.408   4.832  11.330  0.5271  0.3140  0.3817
  472MOL0     N63636   1.302   4.872  11.273 -0.1138 -0.0898 -0.7151
  472MOL0     C63637   0.620   5.378  10.546  0.5046 -0.2163  0.0010
  472MOL0     C63638   0.494   5.365  10.490 -0.3237  0.0556  0.8567
  472MOL0     C63639   0.135   5.396  10.218 -0.1501 -0.3101  0.4781
  472MOL0     C63640   0.043   5.510  10.210 -0.4114  0.1134 -0.5006
  472MOL0     C63641  -0.075   5.503  10.149  0.0190 -0.2035  0.2917
  472MOL0     C63642  -0.111   5.388  10.078 -0.4207 -0.5685  0.0397
  472MOL0     O63643  -0.221   5.377  10.000 -0.3360 -0.5572  0.9597
  472MOL0     C63644  -0.334   5.441  10.042  0.7849 -0.3197  0.8757
  472MOL0     C63645  -0.451   5.414   9.942 -0.8288 -0.8508  0.7656
  472MOL0     C63646  -0.454   5.266   9.907  0.8936  0.6877  0.3049
  472MOL0     C63647  -0.526   5.246   9.771 -0.7447 -0.3364 -0.9383
  472MOL0     C63648  -0.662   5.296   9.777 -1.3804  0.0486 -0.2515
  472MOL0     C63649  -0.775   5.338   9.779  0.4377 -0.0671  0.0891
  472MOL0     C63650  -0.021   5.283  10.069 -0.6506  0.2462 -0.2589
  472MOL0     C63651   0.098   5.286  10.143  0.2897 -0.1160  0.8159
  472MOL0     C63652   0.189   5.169  10.146  0.0492  0.4657  0.3627
  472MOL0     H63653   0.601   5.333  10.172 -3.8114 -2.0061  0.3087
  472MOL0     H63654   0.822   5.374  10.280  0.6213  1.7044  2.0923
  472MOL0     H63655   0.974   5.243  10.514  1.0547  0.3088 -2.0214
  472MOL0     H63656   1.014   5.370  10.399  0.9105 -1.5346  0.2786
  472MOL0     H63657   1.075   5.507  10.599 -1.9476  0.0571  0.3157
  472MOL0     H63658   1.189   5.386  10.532  1.0413 -2.0526  1.6177
  472MOL0     H63659   1.127   5.228  10.712 -2.6537 -0.4421  0.2792
  472MOL0     H63660   1.032   5.357  10.786 -0.7329 -3.1128  0.5507
  472MOL0     H63661   1.296   5.439  10.706 -0.0600 -0.5889 -0.3933
  472MOL0     H63662   1.215   5.500  10.841  0.4402  1.7014 -3.5064
  472MOL0     H63663   1.375   5.238  10.840 -0.0332 -1.1760  0.6620
  472MOL0     H63664   1.402   5.376  10.941  1.4299 -2.8068  0.7928
  472MOL0     H63665   1.187   5.322  11.059  1.5992  0.6013 -1.0629
  472MOL0     H63666   1.150   5.189  10.955 -1.8678  0.3325  0.9007
  472MOL0     H63667   1.389   5.218  11.158  0.2700  0.3459 -0.7570
  472MOL0     H63668   1.378   5.080  11.056  1.8740  0.7881  0.2154
  472MOL0     H63669   1.169   5.174  11.257  1.3561  0.9058  0.3414
  472MOL0     H63670   1.150   5.041  11.140  0.6613 -0.5378 -0.4119
  472MOL0     H63671   1.429   5.146  11.409 -2.3382  1.3975  0.8470
  472MOL0     H63672   1.583   4.861  11.541 -0.5958 -0.9525 -1.4091
  472MOL0     H63673   1.663   4.848  11.378  1.3607  1.6354 -0.3315
  472MOL0     H63674   1.632   5.098  11.528 -3.0522 -1.8594 -1.5681
  472MOL0     H63675   1.775   5.003  11.555  2.8920  4.1583  0.9518
  472MOL0     H63676   1.788   5.188  11.374  1.9755 -0.5740 -1.2154
  472MOL0     H63677   1.682   5.096  11.276 -1.2733  0.1014  1.0760
  472MOL0     H63678   1.844   4.919  11.243  3.1835 -1.8628  1.5855
  472MOL0     H63679   1.948   4.985  11.368 -1.5059 -1.3902  0.9005
  472MOL0     H63680   2.062   4.830  11.210  0.1218 -0.7672  0.6693
  472MOL0     H63681   2.246   4.770  11.080 -1.1247  0.5395  1.4456
  472MOL0     H63682   2.676   4.776  10.943 -1.0218  0.1810  0.7848
  472MOL0     H63683   2.849   4.724  10.777  0.7763 -0.1973 -1.2351
  472MOL0     H63684   2.975   4.712  10.609 -0.2453  1.6933  0.0943
  472MOL0     H63685   2.997   4.677  10.437 -0.2047 -0.0014 -0.6878
  472MOL0     H63686   2.829   4.876  10.404  1.2776 -0.5421 -1.1481
  472MOL0     H63687   2.845   4.901  10.573  0.9853 -0.2368  0.0780
  472MOL0     H63688   3.100   4.895  10.411  1.1559 -1.3659  2.7447
  472MOL0     H63689   3.006   5.042  10.411 -0.4452  1.1351  0.8245
  472MOL0     H63690   3.136   4.897  10.658 -0.4978 -0.0160  1.9350
  472MOL0     H63691   3.023   5.031  10.678  0.6554 -1.4147 -0.1823
  472MOL0     H63692   3.149   5.187  10.554  2.5427  1.9831  1.6318
  472MOL0     H63693   3.274   5.057  10.514  0.2878 -0.5196  0.8036
  472MOL0     H63694   3.203   5.168  10.788 -0.4027 -1.5168  0.0497
  472MOL0     H63695   3.316   5.036  10.754  3.4950  0.6860 -0.9645
  472MOL0     H63696   3.462   5.175  10.627 -0.1417 -0.1513  1.1555
  472MOL0     H63697   3.436   5.226  10.797  0.3460 -1.6614  0.0194
  472MOL0     H63698   3.301   5.356  10.560  0.0960 -1.8559 -0.4167
  472MOL0     H63699   3.303   5.413  10.735  0.0064  1.5839 -1.0654
  472MOL0     H63700   2.537   4.627  10.497 -1.3726 -2.6220  2.4475
  472MOL0     H63701   2.376   4.686  10.657 -0.1999  1.1931 -0.6494
  472MOL0     H63702   2.247   5.148  10.881  0.7130  0.9118  1.7213
  472MOL0     H63703   2.068   5.216  11.021 -0.6495  0.1819 -0.7698
  472MOL0     H63704   0.629   5.410  10.650 -0.0240  2.1903 -0.6297
  472MOL0     H63705   0.414   5.351  10.562  0.6042  2.4443  2.5056
  472MOL0     H63706   0.075   5.602  10.256 -1.1106 -0.9658  2.3161
  472MOL0     H63707  -0.123   5.599  10.134  1.8008  0.6779 -0.0117
  472MOL0     H63708  -0.315   5.548  10.051  2.3157 -0.4822  0.0107
  472MOL0     H63709  -0.346   5.404  10.144  1.3576 -1.8118  0.4401
  472MOL0     H63710  -0.443   5.467   9.847  2.8550 -2.0123  0.2788
  472MOL0     H63711  -0.545   5.444   9.988 -1.7910 -1.0024 -1.0052
  472MOL0     H63712  -0.503   5.222   9.994  0.6709 -0.3958 -0.3555
  472MOL0     H63713  -0.356   5.218   9.897  0.3027 -0.4274 -0.2639
  472MOL0     H63714  -0.476   5.295   9.687  0.8385 -1.3432 -0.6435
  472MOL0     H63715  -0.530   5.137   9.756  0.2599 -1.2671  3.9122
  472MOL0     H63716  -0.881   5.351   9.777 -0.0918 -2.6636  3.3358
  472MOL0     H63717  -0.047   5.193  10.014 -0.6352  0.7624 -1.1371
  472MOL0     H63718   0.277   5.192  10.085 -1.0963  1.7697 -0.8884
  472MOL0     H63719   0.220   5.150  10.249  3.8874  1.9212 -0.3400
  472MOL0     H63720   0.147   5.084  10.090  1.0962  1.5497 -2.2557
  473MOL0     O63721  11.023   3.159   5.820  0.3173  0.3419  1.0880
  473MOL0     C63722  11.000   3.180   5.700  0.4200  0.6053  0.2811
  473MOL0     O63723  11.100   3.228   5.615  0.3529 -0.4362 -0.3953
  473MOL0     C63724  11.231   3.253   5.657  0.9261  0.5233  0.3091
  473MOL0     C63725  11.308   3.169   5.736 -0.0647  0.4571  0.4695
  473MOL0     C63726  11.443   3.206   5.758  0.9793  0.0361  0.1487
  473MOL0     C63727  11.500   3.319   5.693  0.6574 -0.8006 -1.0922
  473MOL0     O63728  11.639   3.333   5.716  0.1703  0.3140  0.0974
  473MOL0     C63729  11.701   3.445   5.660 -0.3304 -0.1561  0.1395
  473MOL0     C63730  11.834   3.471   5.735 -0.2520 -0.2023  0.6603
  473MOL0     C63731  11.867   3.621   5.740  0.4143 -0.4323 -0.5760
  473MOL0     C63732  11.914   3.681   5.607  0.6778 -0.2996  0.5148
  473MOL0     C63733  11.995   3.810   5.624 -0.1387  1.2321  0.8349
  473MOL0     C63734  12.128   3.781   5.700  0.5993 -0.3259  0.3670
  473MOL0     C63735  12.204   3.916   5.744  0.3723  0.5726  0.2801
  473MOL0     C63736  12.254   3.995   5.625 -0.4076  0.3753  0.3131
  473MOL0     N63737  12.366   4.078   5.664 -0.6688  0.2191 -0.8833
  473MOL0     C63738  12.503   4.058   5.631 -0.2466  0.5054  0.6406
  473MOL0     C63739  12.555   4.175   5.671  0.4281 -0.6153  0.4428
  473MOL0     C63740  12.700   4.219   5.641 -0.1933 -0.0977 -0.3965
  473MOL0     C63741  12.803   4.156   5.736 -0.8859  0.7417  0.1054
  473MOL0     C63742  12.941   4.231   5.713  0.9992 -0.3811  0.1792
  473MOL0     C63743  13.058   4.171   5.774 -0.3756 -0.3636 -0.0936
  473MOL0     O63744  13.052   4.182   5.916  0.0706  0.2471 -0.9514
  473MOL0     C63745  13.152   4.113   5.986  0.9814  0.2823  0.5209
  473MOL0     C63746  13.128   4.088   6.116 -0.6222  0.9650 -0.9159
  473MOL0     C63747  13.224   4.016   6.197  0.2276 -0.2889 -0.0992
  473MOL0     C63748  13.356   3.998   6.149  0.5779 -0.2270 -0.2308
  473MOL0     C63749  13.457   3.923   6.225 -0.3893 -0.0294 -0.0309
  473MOL0     O63750  13.581   3.899   6.170  0.6648 -0.0159  1.2656
  473MOL0     C63751  13.674   3.826   6.240  0.1381  0.8212  1.2305
  473MOL0     C63752  13.758   3.741   6.161 -0.2181  0.2061  0.4620
  473MOL0     C63753  13.870   3.687   6.223 -0.2967 -0.3499  0.1765
  473MOL0     C63754  13.898   3.709   6.359  0.3683 -0.1437 -0.4568
  473MOL0     O63755  14.008   3.641   6.410 -0.6516 -0.1398  0.2610
  473MOL0     C63756  14.100   3.730   6.467  0.2307 -0.4906 -0.4986
  473MOL0     C63757  14.122   3.694   6.615 -0.8115 -0.3302 -0.2738
  473MOL0     C63758  14.191   3.562   6.618  0.1983  1.1150  0.2280
  473MOL0     C63759  14.234   3.532   6.768  0.0162 -0.0130 -0.4121
  473MOL0     C63760  14.269   3.380   6.790  0.1065  0.1247  0.4705
  473MOL0     C63761  14.392   3.327   6.714  0.1332  0.4364  0.0611
  473MOL0     C63762  14.515   3.379   6.789 -0.1641 -0.5582  0.5223
  473MOL0     C63763  14.636   3.317   6.724  0.1930  0.0008  0.5387
  473MOL0    Cl63764  14.783   3.366   6.815 -0.1995  0.4766 -0.0366
  473MOL0     C63765  13.808   3.784   6.439  1.1569  0.1584 -0.2270
  473MOL0     C63766  13.706   3.851   6.375 -0.8994 -0.4768  0.1457
  473MOL0     O63767  13.413   3.890   6.333 -0.0430  0.5308 -0.2328
  473MOL0     C63768  13.376   4.021   6.017 -0.2352  0.0685  0.1320
  473MOL0     C63769  13.276   4.081   5.932 -0.6708  0.4905  0.1274
  473MOL0     N63770  12.464   4.264   5.725  0.0129  0.1318 -0.0078
  473MOL0     N63771  12.356   4.193   5.730  0.1550 -0.6273  0.1281
  473MOL0     C63772  11.414   3.398   5.611  0.6612 -0.3336 -0.0292
  473MOL0     C63773  11.281   3.363   5.591 -0.6310 -0.2651  0.2758
  473MOL0     C63774  10.862   3.183   5.651 -0.1392 -0.1976 -0.2929
  473MOL0     C63775  10.822   3.241   5.531  0.3685 -0.4671  0.0835
  473MOL0     C63776  10.697   3.221   5.471  0.0279  0.4170  0.0834
  473MOL0     C63777  10.599   3.156   5.537  0.1762  1.1299  0.1178
  473MOL0     O63778  10.480   3.152   5.470  0.0345  0.3771  0.1232
  473MOL0     C63779  10.368   3.097   5.547 -1.0541  0.0244 -0.0137
  473MOL0     C63780  10.232   3.163   5.511  0.2326 -0.2008  0.3992
  473MOL0     C63781  10.209   3.151   5.362  0.0123 -0.5220  0.9435
  473MOL0     C63782  10.090   3.231   5.325  0.3213  0.6663  0.3303
  473MOL0     C63783  10.023   3.170   5.206 -0.7150  0.0833 -0.4453
  473MOL0     C63784   9.988   3.113   5.117  0.5311  1.0837  0.7931
  473MOL0     C63785  10.633   3.093   5.659 -0.2403 -0.4689 -0.2335
  473MOL0     C63786  10.761   3.106   5.717  1.6541  0.1267  0.1812
  473MOL0     C63787  10.770   3.014   5.837  0.0998 -0.2660 -0.7325
  473MOL0     H63788  11.272   3.080   5.785  1.5896 -0.7722 -0.4317
  473MOL0     H63789  11.503   3.142   5.821 -0.1255 -0.5589  0.6258
  473MOL0     H63790  11.726   3.428   5.555  3.4486  1.8937  0.5377
  473MOL0     H63791  11.642   3.535   5.679  1.0339  0.7235  0.3297
  473MOL0     H63792  11.914   3.416   5.684 -0.2778  0.3394  0.0162
  473MOL0     H63793  11.829   3.425   5.834 -0.9057  2.6527  2.0579
  473MOL0     H63794  11.949   3.635   5.811  0.9015 -0.4240 -1.1351
  473MOL0     H63795  11.783   3.682   5.772  2.5508  1.1633  2.5605
  473MOL0     H63796  11.984   3.621   5.548  1.1598  0.7292  0.0108
  473MOL0     H63797  11.818   3.696   5.558 -0.1056 -1.0628  1.7481
  473MOL0     H63798  12.014   3.852   5.524 -0.3800  1.0500  0.7113
  473MOL0     H63799  11.941   3.884   5.684 -0.2424  0.9545  1.0873
  473MOL0     H63800  12.106   3.737   5.798 -1.1689  0.2235  0.2542
  473MOL0     H63801  12.192   3.717   5.640 -1.9720 -3.3013  0.5646
  473MOL0     H63802  12.293   3.880   5.796 -0.6517 -0.3358  1.4663
  473MOL0     H63803  12.149   3.983   5.811 -0.3412 -0.6936  0.9968
  473MOL0     H63804  12.279   3.936   5.536 -1.8791 -0.1829  0.2508
  473MOL0     H63805  12.171   4.063   5.603 -0.4985  0.2604  0.3068
  473MOL0     H63806  12.547   3.977   5.573 -2.1286 -0.7803  0.8944
  473MOL0     H63807  12.733   4.202   5.538  1.5585 -1.8704  0.3980
  473MOL0     H63808  12.699   4.327   5.661 -1.2864 -0.7218  3.8840
  473MOL0     H63809  12.775   4.159   5.842 -1.2549 -1.8507  0.1444
  473MOL0     H63810  12.816   4.055   5.698 -0.8845  0.2465  1.3743
  473MOL0     H63811  12.936   4.324   5.770  1.4278 -0.1467 -0.1572
  473MOL0     H63812  12.953   4.253   5.606  2.3688 -0.0203  0.3882
  473MOL0     H63813  13.148   4.218   5.735  0.2756 -0.4694  1.2214
  473MOL0     H63814  13.066   4.066   5.745  1.4943  0.3026 -2.1633
  473MOL0     H63815  13.026   4.111   6.147 -1.4730  0.9189 -3.4618
  473MOL0     H63816  13.200   3.992   6.300 -1.2534  0.6821 -0.1992
  473MOL0     H63817  13.741   3.720   6.056  1.8207  0.8456 -0.0588
  473MOL0     H63818  13.940   3.632   6.160 -0.5296 -0.4077 -0.0319
  473MOL0     H63819  14.201   3.732   6.425  1.5425 -0.4616  2.3882
  473MOL0     H63820  14.058   3.831   6.459 -0.6800 -0.9381 -1.5538
  473MOL0     H63821  14.183   3.771   6.662  2.1104 -2.8166  0.2737
  473MOL0     H63822  14.024   3.690   6.665 -0.7032  1.5731  0.1353
  473MOL0     H63823  14.108   3.501   6.582 -0.0805  1.8896 -0.4731
  473MOL0     H63824  14.273   3.566   6.546 -0.3015  0.0727 -0.4349
  473MOL0     H63825  14.159   3.561   6.842 -0.6064 -0.4858 -0.8505
  473MOL0     H63826  14.323   3.592   6.794  0.1090 -0.2317 -0.2282
  473MOL0     H63827  14.180   3.328   6.755 -0.3137  1.3738 -0.3801
  473MOL0     H63828  14.276   3.347   6.894 -2.3720  1.9326  1.2920
  473MOL0     H63829  14.390   3.218   6.709  1.8224  0.3872 -0.1810
  473MOL0     H63830  14.391   3.369   6.612 -0.6872  0.1173 -0.0670
  473MOL0     H63831  14.506   3.338   6.890 -1.7999  2.1297  1.5669
  473MOL0     H63832  14.528   3.487   6.784  1.7213 -0.6708  1.8825
  473MOL0     H63833  14.630   3.208   6.727 -1.6746  0.0912  2.1669
  473MOL0     H63834  14.632   3.359   6.623  1.1742  1.2773  1.0012
  473MOL0     H63835  13.814   3.787   6.547 -0.6289  0.4622 -0.1001
  473MOL0     H63836  13.642   3.906   6.443 -1.2507  0.1015 -0.6369
  473MOL0     H63837  13.477   4.018   5.978 -0.2933  4.4459 -0.8927
  473MOL0     H63838  13.302   4.094   5.828  0.4452  3.6435  0.6934
  473MOL0     H63839  11.451   3.483   5.555 -2.0680  0.5307 -0.7152
  473MOL0     H63840  11.222   3.430   5.529  0.4687 -1.6064 -2.3716
  473MOL0     H63841  10.889   3.308   5.476 -2.4652  0.6321 -2.2880
  473MOL0     H63842  10.684   3.258   5.370  3.7951 -0.4597 -0.8783
  473MOL0     H63843  10.376   3.100   5.656 -2.4025 -1.2971  0.1455
  473MOL0     H63844  10.358   2.993   5.515  2.2247  0.0601 -1.5193
  473MOL0     H63845  10.232   3.267   5.543  2.3341  0.3029 -1.0064
  473MOL0     H63846  10.153   3.112   5.566 -0.5716 -0.5885 -1.0632
  473MOL0     H63847  10.191   3.045   5.339 -0.1303 -0.4343  0.6502
  473MOL0     H63848  10.289   3.197   5.303  0.1407  3.0530  3.5882
  473MOL0     H63849  10.026   3.239   5.413 -0.4319  0.6756 -0.2006
  473MOL0     H63850  10.122   3.331   5.293  1.2157  0.3464  0.1903
  473MOL0     H63851   9.941   3.053   5.043  0.1544  2.3561 -0.0410
  473MOL0     H63852  10.563   3.024   5.705 -0.8179 -0.0036 -0.3967
  473MOL0     H63853  10.841   2.934   5.811  0.6917 -0.5341  1.4508
  473MOL0     H63854  10.825   3.073   5.912 -0.1114 -0.0221 -0.7685
  473MOL0     H63855  10.673   2.982   5.876 -0.7294  0.6009 -2.0062
  474MOL0     O63856  10.549   1.361   1.203 -0.5906  0.5035  0.4981
  474MOL0     C63857  10.537   1.429   1.099  0.1672 -0.3629 -0.2929
  474MOL0     O63858  10.632   1.503   1.037 -0.7962  0.5488 -0.4832
  474MOL0     C63859  10.762   1.487   1.066 -0.3167  0.5149 -0.3736
  474MOL0     C63860  10.820   1.573   1.166 -0.4210  0.4286 -0.2066
  474MOL0     C63861  10.960   1.575   1.173  0.0540 -0.0649  0.3730
  474MOL0     C63862  11.042   1.493   1.092 -0.1232 -0.3035  0.6159
  474MOL0     O63863  11.184   1.500   1.128  0.4787 -0.1532  0.4695
  474MOL0     C63864  11.269   1.452   1.019 -0.1809  0.2031  0.7813
  474MOL0     C63865  11.400   1.507   1.072  0.7843  0.1991  0.6509
  474MOL0     C63866  11.517   1.444   0.987  0.5854 -1.4838 -0.6911
  474MOL0     C63867  11.496   1.451   0.835 -0.2393  0.0964 -0.3773
  474MOL0     C63868  11.625   1.410   0.755  0.2373 -1.2954 -0.6746
  474MOL0     C63869  11.598   1.320   0.625  0.5996  0.0400 -0.6290
  474MOL0     C63870  11.728   1.272   0.557  0.0965 -0.0948 -0.2301
  474MOL0     C63871  11.811   1.386   0.500 -0.9319  0.1349 -0.1035
  474MOL0     N63872  11.923   1.325   0.426  0.5688  0.7921  0.5041
  474MOL0     C63873  12.049   1.312   0.478 -0.3730  0.4428  0.2276
  474MOL0     C63874  12.127   1.276   0.366  0.7971  0.2851 -0.7322
  474MOL0     C63875  12.279   1.249   0.356 -0.2736 -0.5595 -0.4081
  474MOL0     C63876  12.355   1.293   0.229 -0.1228 -0.6532 -0.2361
  474MOL0     C63877  12.503   1.298   0.265  0.2785 -0.3723  0.4169
  474MOL0     C63878  12.586   1.308   0.135  0.3121 -0.1306 -0.3230
  474MOL0     O63879  12.729   1.297   0.164 -0.2042  0.0516  0.3570
  474MOL0     C63880  12.817   1.244   0.066 -0.7515 -1.4015 -0.0064
  474MOL0     C63881  12.953   1.258   0.092  0.4925  0.5658  0.4596
  474MOL0     C63882  13.051   1.197   0.016 -0.0717  0.2799  0.5349
  474MOL0     C63883  13.011   1.121  -0.097 -0.1574  0.6323  0.1969
  474MOL0     C63884  13.105   1.052  -0.184 -0.1103  0.1495  0.0519
  474MOL0     O63885  13.053   0.996  -0.296  0.0186 -0.4466  0.5838
  474MOL0     C63886  13.118   0.906  -0.374  0.5792  0.5102 -0.3918
  474MOL0     C63887  13.048   0.801  -0.438  0.5650  0.3966  0.1765
  474MOL0     C63888  13.114   0.702  -0.513 -0.4291  0.1321  0.6819
  474MOL0     C63889  13.246   0.708  -0.540 -0.6744 -0.9991 -0.1638
  474MOL0     O63890  13.300   0.615  -0.616  0.1822 -0.1262  0.5429
  474MOL0     C63891  13.410   0.657  -0.698  0.2630  0.0261  0.1169
  474MOL0     C63892  13.443   0.559  -0.820  0.1299 -0.2788  0.1943
  474MOL0     C63893  13.511   0.642  -0.933 -1.0772  0.1667  0.0683
  474MOL0     C63894  13.513   0.570  -1.066  0.2807  0.0129  0.1813
  474MOL0     C63895  13.570   0.658  -1.170 -0.1522 -0.6881 -0.0251
  474MOL0     C63896  13.720   0.684  -1.149  0.0281  0.2384 -0.1245
  474MOL0     C63897  13.776   0.790  -1.241 -0.3701  0.3033  0.8324
  474MOL0     C63898  13.922   0.813  -1.231 -0.0119 -1.0162 -0.1287
  474MOL0    Cl63899  14.018   0.671  -1.256  0.7579  0.0525 -0.1088
  474MOL0     C63900  13.322   0.812  -0.479  0.4852 -1.1740  0.0596
  474MOL0     C63901  13.253   0.916  -0.403 -0.8403  0.2687  0.2158
  474MOL0     O63902  13.219   1.034  -0.144  0.6154  1.0784  0.0709
  474MOL0     C63903  12.874   1.109  -0.128 -0.9116 -0.8441 -0.3995
  474MOL0     C63904  12.777   1.170  -0.046 -0.8539 -0.1974  0.7031
  474MOL0     N63905  12.036   1.251   0.265  0.0034 -0.1968  0.3395
  474MOL0     N63906  11.918   1.279   0.299 -0.7173 -0.6393 -0.3585
  474MOL0     C63907  10.983   1.405   0.999  0.5294  0.5343 -0.1883
  474MOL0     C63908  10.845   1.405   0.984  0.2941 -0.5285 -0.3274
  474MOL0     C63909  10.395   1.432   1.045  0.6166 -0.0757 -1.3043
  474MOL0     C63910  10.374   1.476   0.913 -0.1000  0.3408 -0.2654
  474MOL0     C63911  10.238   1.508   0.875 -0.5790  0.2038  0.2956
  474MOL0     C63912  10.127   1.495   0.958  0.6147  0.6394 -0.4293
  474MOL0     O63913   9.994   1.514   0.919 -0.2875 -0.2332 -0.4197
  474MOL0     C63914   9.973   1.528   0.779 -0.3544  0.4172 -0.1303
  474MOL0     C63915   9.819   1.499   0.752 -0.5712 -0.8130  0.7564
  474MOL0     C63916   9.732   1.609   0.810  1.0911 -0.6718 -0.7605
  474MOL0     C63917   9.634   1.664   0.703  0.0852  0.6363  0.0832
  474MOL0     C63918   9.524   1.574   0.673  0.1578 -0.1502  0.3142
  474MOL0     C63919   9.427   1.502   0.636  0.3256  0.9696 -0.1052
  474MOL0     C63920  10.146   1.449   1.089  0.5243 -0.3456 -1.4308
  474MOL0     C63921  10.281   1.424   1.133 -0.1328 -0.4453  0.2981
  474MOL0     C63922  10.281   1.396   1.278  0.3615  0.1784 -0.2575
  474MOL0     H63923  10.757   1.646   1.216  1.7368  1.3024  1.4162
  474MOL0     H63924  11.006   1.651   1.235 -0.4544 -0.0356  0.7168
  474MOL0     H63925  11.265   1.342   1.015  1.1164  0.1226  1.2643
  474MOL0     H63926  11.240   1.487   0.920 -3.4073 -4.8299 -0.4516
  474MOL0     H63927  11.410   1.474   1.176 -0.5537 -0.1081  0.7025
  474MOL0     H63928  11.394   1.617   1.073  1.1285  0.2175  1.6257
  474MOL0     H63929  11.550   1.346   1.020  2.3271 -1.1074 -1.2434
  474MOL0     H63930  11.605   1.505   1.010  0.4694 -2.0281  1.3700
  474MOL0     H63931  11.418   1.382   0.803  0.7850 -1.1410 -0.2565
  474MOL0     H63932  11.465   1.553   0.808  0.3277 -0.2806 -2.6729
  474MOL0     H63933  11.679   1.500   0.722 -0.0431 -0.9037 -0.0759
  474MOL0     H63934  11.693   1.356   0.821  0.1375 -1.3624 -0.6262
  474MOL0     H63935  11.539   1.229   0.642  1.7806 -0.3449  1.6402
  474MOL0     H63936  11.546   1.387   0.554 -0.0969  1.4488  1.1399
  474MOL0     H63937  11.704   1.195   0.483  0.7767  0.1063 -0.6703
  474MOL0     H63938  11.784   1.216   0.632 -0.6129  0.4193  0.7127
  474MOL0     H63939  11.758   1.448   0.427  1.1670  1.2027 -0.8161
  474MOL0     H63940  11.852   1.449   0.580  0.3204  0.3680 -0.9035
  474MOL0     H63941  12.081   1.338   0.579 -0.6026  1.0342  0.1511
  474MOL0     H63942  12.326   1.293   0.445  1.1127 -2.7515  0.0047
  474MOL0     H63943  12.284   1.141   0.373 -2.8063 -0.3657  2.4743
  474MOL0     H63944  12.336   1.219   0.151  0.9017  2.2882 -3.4857
  474MOL0     H63945  12.322   1.388   0.188  0.5985 -0.7813 -1.1334
  474MOL0     H63946  12.534   1.212   0.326  2.4645  0.7091  0.9639
  474MOL0     H63947  12.520   1.383   0.333  2.8544 -0.5297  0.0684
  474MOL0     H63948  12.568   1.401   0.081  2.3781  1.3733  1.4190
  474MOL0     H63949  12.549   1.232   0.065  0.9247 -1.8545  1.1474
  474MOL0     H63950  12.984   1.316   0.179 -2.8825  1.3913  1.2752
  474MOL0     H63951  13.156   1.191   0.045 -0.4543 -0.8888  1.7980
  474MOL0     H63952  12.940   0.800  -0.438  0.3239  1.4457 -4.6322
  474MOL0     H63953  13.054   0.630  -0.567  1.5348  0.5923 -2.3639
  474MOL0     H63954  13.413   0.763  -0.722  0.9419 -0.3911 -1.7446
  474MOL0     H63955  13.498   0.642  -0.634 -1.4523  0.7793  2.8450
  474MOL0     H63956  13.501   0.474  -0.785  0.7474  0.5621  1.2479
  474MOL0     H63957  13.342   0.534  -0.855 -0.5226  2.7018 -0.3625
  474MOL0     H63958  13.454   0.735  -0.944  1.4715  1.7428 -0.5015
  474MOL0     H63959  13.609   0.675  -0.899 -1.9106  2.7944  0.1410
  474MOL0     H63960  13.408   0.551  -1.090 -0.8352  0.2428  4.2094
  474MOL0     H63961  13.561   0.473  -1.050  1.2598  0.6163  0.9985
  474MOL0     H63962  13.518   0.753  -1.159  0.8508 -0.0388 -0.7718
  474MOL0     H63963  13.538   0.623  -1.269  0.0899  2.8068 -1.4570
  474MOL0     H63964  13.731   0.725  -1.048 -0.6992 -0.7038  0.3416
  474MOL0     H63965  13.781   0.594  -1.157 -1.7754 -0.9499 -1.2345
  474MOL0     H63966  13.718   0.881  -1.227 -0.9497  0.1138 -0.1884
  474MOL0     H63967  13.764   0.758  -1.345  0.8502 -1.5525  1.2058
  474MOL0     H63968  13.942   0.889  -1.307 -0.2268 -0.9689 -0.1387
  474MOL0     H63969  13.934   0.845  -1.128 -0.3835  0.0731 -0.4159
  474MOL0     H63970  13.429   0.826  -0.477  0.2815  0.7421  2.4175
  474MOL0     H63971  13.325   0.980  -0.354 -0.5232 -1.0941  1.5743
  474MOL0     H63972  12.846   1.049  -0.214  2.3172 -0.8165 -1.5980
  474MOL0     H63973  12.671   1.157  -0.067 -0.9426  2.5219 -1.0331
  474MOL0     H63974  11.040   1.335   0.939  1.1859 -0.3737  1.4388
  474MOL0     H63975  10.804   1.343   0.904  1.2465 -0.0264 -1.2246
  474MOL0     H63976  10.453   1.501   0.844 -1.7722 -0.9478 -2.8249
  474MOL0     H63977  10.237   1.542   0.772 -1.1907  0.3436  0.3454
  474MOL0     H63978  10.033   1.452   0.728  0.6788  1.5432 -0.6516
  474MOL0     H63979   9.998   1.631   0.753 -1.1368  1.2309  2.1527
  474MOL0     H63980   9.784   1.401   0.785  0.3636 -1.3038  0.3273
  474MOL0     H63981   9.808   1.507   0.644 -1.2385  1.5530  0.9427
  474MOL0     H63982   9.797   1.690   0.842 -0.0244 -0.6524  1.6921
  474MOL0     H63983   9.677   1.584   0.901 -0.3594  1.5312 -0.9458
  474MOL0     H63984   9.596   1.762   0.734 -0.9535  0.1991  0.2118
  474MOL0     H63985   9.690   1.682   0.611 -0.9280 -1.2863 -0.9724
  474MOL0     H63986   9.336   1.456   0.605  0.4619 -0.8465  1.9278
  474MOL0     H63987  10.058   1.443   1.152  0.9850 -0.9711 -0.8215
  474MOL0     H63988  10.369   1.440   1.326 -0.9988  2.6114  0.2120
  474MOL0     H63989  10.192   1.437   1.326 -0.9733 -2.1365 -0.6553
  474MOL0     H63990  10.282   1.291   1.307  1.1169 -0.3901 -2.1701
  475MOL0     O63991   3.757   1.834   4.542  0.7699 -0.4739 -0.1973
  475MOL0     C63992   3.708   1.825   4.653  0.5726 -0.6746 -0.7662
  475MOL0     O63993   3.774   1.821   4.774  0.2917 -0.2302  0.1144
  475MOL0     C63994   3.907   1.812   4.798  0.1924  0.5923  0.1263
  475MOL0     C63995   3.958   1.820   4.936 -1.4069 -0.8663 -0.0287
  475MOL0     C63996   4.098   1.809   4.951  0.6066  0.7488  0.6134
  475MOL0     C63997   4.188   1.776   4.853 -0.3899  0.6227  0.1404
  475MOL0     O63998   4.323   1.781   4.881 -0.6920  0.0650  0.3705
  475MOL0     C63999   4.403   1.673   4.828  0.1719 -0.2068 -0.5103
  475MOL0     C64000   4.493   1.613   4.937 -0.6925  0.2077 -0.4757
  475MOL0     C64001   4.595   1.706   5.014 -0.2495 -0.0482  0.6736
  475MOL0     C64002   4.712   1.619   5.066 -0.2548 -0.6327  1.1342
  475MOL0     C64003   4.825   1.703   5.132  0.3601  0.2682  0.5968
  475MOL0     C64004   4.938   1.623   5.187 -0.2384 -0.2873  0.3753
  475MOL0     C64005   5.060   1.695   5.223  0.2009 -0.5809 -0.6055
  475MOL0     C64006   5.175   1.605   5.251 -0.3758  0.1588 -0.0709
  475MOL0     N64007   5.289   1.698   5.283  0.0427  0.2098 -0.3432
  475MOL0     C64008   5.419   1.707   5.228 -0.1700  0.7602 -0.9696
  475MOL0     C64009   5.492   1.777   5.319  0.9516  0.8277 -0.3010
  475MOL0     C64010   5.638   1.785   5.315 -0.0304  0.1036  0.3305
  475MOL0     C64011   5.698   1.786   5.461 -0.2666 -0.6733 -0.6560
  475MOL0     C64012   5.738   1.938   5.501  0.6816  0.4788 -0.0510
  475MOL0     C64013   5.737   1.968   5.648  0.2590 -0.4028 -0.3779
  475MOL0     O64014   5.804   1.876   5.734 -0.1211 -0.1229  0.5088
  475MOL0     C64015   5.943   1.896   5.752 -0.0206  0.2808 -0.0353
  475MOL0     C64016   6.007   1.797   5.832  0.0662  0.5167  0.1971
  475MOL0     C64017   6.151   1.779   5.826  0.2273  0.1713 -0.0326
  475MOL0     C64018   6.226   1.876   5.766 -0.5497 -0.4805 -0.6023
  475MOL0     C64019   6.373   1.872   5.772 -0.0759  1.3680 -0.3845
  475MOL0     O64020   6.449   1.929   5.672  0.3893 -0.1602 -0.7066
  475MOL0     C64021   6.578   1.893   5.666  0.0503  0.2988  0.3403
  475MOL0     C64022   6.677   1.962   5.743  0.2074  0.5201  0.4494
  475MOL0     C64023   6.812   1.931   5.719  0.4787 -0.5219 -0.1041
  475MOL0     C64024   6.852   1.831   5.638  0.5538 -0.5391  0.4753
  475MOL0     O64025   6.983   1.789   5.616  0.5025 -0.2121  0.3375
  475MOL0     C64026   7.083   1.836   5.705  0.0609  0.0752  0.7281
  475MOL0     C64027   7.210   1.783   5.657  0.7043 -0.2114 -0.2965
  475MOL0     C64028   7.319   1.794   5.765  0.3773  0.6035  0.1059
  475MOL0     C64029   7.460   1.746   5.711  0.6561 -0.7781 -0.7768
  475MOL0     C64030   7.576   1.777   5.820 -0.1931  0.8097  0.4729
  475MOL0     C64031   7.712   1.754   5.747 -0.1030  0.0087  0.2839
  475MOL0     C64032   7.766   1.886   5.705  0.1731  0.7711  0.3933
  475MOL0     C64033   7.873   1.864   5.594  0.1295 -0.1425 -0.4202
  475MOL0    Cl64034   8.023   1.776   5.657  0.6399  0.1940  0.2126
  475MOL0     C64035   6.753   1.763   5.564 -0.6680 -0.3203 -0.1783
  475MOL0     C64036   6.617   1.792   5.575  0.7363 -0.0255 -0.0171
  475MOL0     O64037   6.417   1.810   5.869 -0.5334  0.5762 -0.4829
  475MOL0     C64038   6.166   1.986   5.695  0.4485 -0.2828 -0.1932
  475MOL0     C64039   6.025   1.991   5.686  0.1108 -0.4133  0.2919
  475MOL0     N64040   5.404   1.823   5.411  0.9633  0.0652  0.4709
  475MOL0     N64041   5.288   1.779   5.397  0.6421  0.5100 -0.5893
  475MOL0     C64042   4.136   1.766   4.721  0.4288  0.0800 -0.8072
  475MOL0     C64043   3.996   1.785   4.696  0.7296 -0.3983  0.2750
  475MOL0     C64044   3.561   1.795   4.650  0.0405  1.2069 -0.3886
  475MOL0     C64045   3.489   1.794   4.527  0.4512  0.0846  0.2927
  475MOL0     C64046   3.357   1.765   4.512 -0.6039 -0.2794  0.0810
  475MOL0     C64047   3.288   1.737   4.625 -0.6927 -0.0926  0.3690
  475MOL0     O64048   3.152   1.724   4.629 -0.8339  0.1661  0.5839
  475MOL0     C64049   3.074   1.743   4.511 -0.4472  0.1104  0.2740
  475MOL0     C64050   2.918   1.711   4.527 -0.3585  0.3209  0.4865
  475MOL0     C64051   2.862   1.832   4.606 -0.2312 -0.4334  0.5877
  475MOL0     C64052   2.710   1.842   4.604  0.8454 -0.2050 -0.0789
  475MOL0     C64053   2.655   1.853   4.469 -0.2772 -0.1817 -0.6161
  475MOL0     C64054   2.633   1.858   4.350  0.0322  0.2307  0.0053
  475MOL0     C64055   3.352   1.751   4.751 -0.1936 -0.1024  0.1081
  475MOL0     C64056   3.487   1.763   4.763  0.3227 -0.3353 -0.1123
  475MOL0     C64057   3.538   1.748   4.906  0.2902 -0.1616 -0.1929
  475MOL0     H64058   3.909   1.840   5.031 -2.8043  0.7225 -1.0185
  475MOL0     H64059   4.141   1.827   5.049  0.6454  2.4112  0.3159
  475MOL0     H64060   4.346   1.591   4.783  2.0100 -1.1575 -1.2259
  475MOL0     H64061   4.468   1.704   4.746 -1.9161  1.9426 -1.4665
  475MOL0     H64062   4.543   1.521   4.904 -1.4504 -1.1191  1.7957
  475MOL0     H64063   4.422   1.582   5.015  1.1359 -1.7591  0.5421
  475MOL0     H64064   4.532   1.747   5.094 -2.0242 -0.9700 -0.1917
  475MOL0     H64065   4.642   1.781   4.950  3.2542 -3.0388 -0.6194
  475MOL0     H64066   4.662   1.545   5.129 -1.7559 -1.0589 -0.4886
  475MOL0     H64067   4.762   1.570   4.982  1.4453  1.6147  0.7579
  475MOL0     H64068   4.862   1.784   5.067  2.0291  0.1374  1.3195
  475MOL0     H64069   4.769   1.752   5.211  0.8322  1.2435  0.3458
  475MOL0     H64070   4.902   1.570   5.276 -0.2103  1.0826  1.2296
  475MOL0     H64071   4.971   1.543   5.119  1.2394  3.0933 -3.2425
  475MOL0     H64072   5.030   1.753   5.310 -0.5740  0.2518 -1.4068
  475MOL0     H64073   5.079   1.765   5.141  0.4523  1.1018  0.8432
  475MOL0     H64074   5.169   1.552   5.346  2.9061 -0.7527 -0.2295
  475MOL0     H64075   5.204   1.535   5.172  0.6736 -1.5364  1.7322
  475MOL0     H64076   5.458   1.652   5.143  1.7126 -4.1356  2.5853
  475MOL0     H64077   5.665   1.691   5.266  0.5040  0.3613  0.1292
  475MOL0     H64078   5.661   1.879   5.264  1.1010 -0.5779 -0.4603
  475MOL0     H64079   5.626   1.743   5.530 -0.9824  1.5792  0.0586
  475MOL0     H64080   5.793   1.731   5.453  0.7562  0.7290  1.2835
  475MOL0     H64081   5.673   2.001   5.440  1.0185 -1.8245 -2.9932
  475MOL0     H64082   5.840   1.944   5.464  1.4767 -2.1325  1.4871
  475MOL0     H64083   5.635   1.958   5.684  0.0591  1.4435 -0.3769
  475MOL0     H64084   5.767   2.071   5.667  1.5164 -0.8766  0.3583
  475MOL0     H64085   5.949   1.723   5.884  0.2383 -0.4322 -0.9114
  475MOL0     H64086   6.211   1.706   5.879  0.6469  0.0113 -0.7172
  475MOL0     H64087   6.637   2.046   5.799 -0.0416  0.1811  0.7924
  475MOL0     H64088   6.887   1.996   5.763  0.6187 -0.7045 -0.0715
  475MOL0     H64089   7.098   1.944   5.712  0.3481  0.1068 -0.2120
  475MOL0     H64090   7.067   1.794   5.805  2.9721  0.6111  1.4954
  475MOL0     H64091   7.199   1.677   5.632  0.1151 -0.0960 -0.5454
  475MOL0     H64092   7.245   1.838   5.569 -2.1376 -0.1955 -1.5096
  475MOL0     H64093   7.318   1.896   5.803 -0.6671  0.6026  0.1320
  475MOL0     H64094   7.301   1.723   5.846  2.6974 -0.2406 -0.0630
  475MOL0     H64095   7.470   1.803   5.618 -2.0706 -1.0549 -1.3122
  475MOL0     H64096   7.462   1.641   5.682 -0.2150 -0.9480 -0.2517
  475MOL0     H64097   7.571   1.704   5.902  0.1034  1.7073  1.3133
  475MOL0     H64098   7.572   1.879   5.861  1.0941  0.6069  1.1554
  475MOL0     H64099   7.785   1.710   5.815  0.8636  0.7355 -0.2471
  475MOL0     H64100   7.692   1.689   5.662 -2.3813  1.7480 -0.6297
  475MOL0     H64101   7.811   1.942   5.788 -0.7715  1.3315  0.5374
  475MOL0     H64102   7.687   1.949   5.665  2.3354  1.7715 -2.6917
  475MOL0     H64103   7.838   1.823   5.499  0.8386 -0.0337 -0.7367
  475MOL0     H64104   7.909   1.961   5.557 -0.4636  0.2905  0.1075
  475MOL0     H64105   6.799   1.690   5.497  1.8226  3.0210 -2.4531
  475MOL0     H64106   6.549   1.735   5.513  2.7146  0.1262 -2.4652
  475MOL0     H64107   6.226   2.047   5.629  0.6020 -2.7977 -2.5267
  475MOL0     H64108   5.978   2.066   5.624  4.1050  1.7797 -0.4081
  475MOL0     H64109   4.190   1.749   4.628  1.3480 -1.3598 -0.0506
  475MOL0     H64110   3.958   1.802   4.596  0.3244  2.6775  0.8548
  475MOL0     H64111   3.549   1.819   4.440  1.5020  0.9127  1.2229
  475MOL0     H64112   3.321   1.767   4.410  0.6039 -0.1637 -0.3579
  475MOL0     H64113   3.114   1.676   4.435  0.1835 -0.5503  1.1669
  475MOL0     H64114   3.082   1.843   4.469 -0.9604 -0.4317 -1.1570
  475MOL0     H64115   2.894   1.623   4.587 -2.3503  1.2671  1.1624
  475MOL0     H64116   2.879   1.704   4.425  3.4289 -1.5858 -1.0250
  475MOL0     H64117   2.898   1.920   4.552  2.2942 -1.9301 -0.3427
  475MOL0     H64118   2.906   1.839   4.705  0.6018 -2.2366  0.3824
  475MOL0     H64119   2.672   1.756   4.662  0.1540  0.3557  0.3142
  475MOL0     H64120   2.678   1.930   4.660  1.5403  0.4326 -0.6673
  475MOL0     H64121   2.616   1.871   4.245  1.0303 -0.9822 -0.3215
  475MOL0     H64122   3.290   1.742   4.840  0.2028  1.5443  0.5826
  475MOL0     H64123   3.461   1.715   4.976 -1.6380  2.2491 -1.0278
  475MOL0     H64124   3.620   1.676   4.906  0.7747  0.3796 -0.4449
  475MOL0     H64125   3.578   1.846   4.933  0.7668  0.4165 -2.7557
  476MOL0     O64126   9.084   2.007   6.775 -0.3980 -0.1532 -0.4235
  476MOL0     C64127   9.175   1.928   6.804  0.0124  0.4395 -0.3687
  476MOL0     O64128   9.301   1.925   6.753 -0.1322  0.2307  0.0278
  476MOL0     C64129   9.370   2.025   6.690  1.0599  0.6310  0.5913
  476MOL0     C64130   9.505   2.008   6.673  0.2933  0.4502 -0.0254
  476MOL0     C64131   9.589   2.092   6.601 -0.2690 -0.3768  0.2935
  476MOL0     C64132   9.522   2.199   6.536 -0.1407  0.4004 -0.4621
  476MOL0     O64133   9.578   2.286   6.453  0.1314 -0.1563 -0.3479
  476MOL0     C64134   9.712   2.276   6.421  0.2486 -0.0598 -0.0256
  476MOL0     C64135   9.766   2.394   6.348  0.1153  0.0932  0.5212
  476MOL0     C64136   9.924   2.391   6.349 -0.3935  0.1166 -0.0672
  476MOL0     C64137   9.969   2.532   6.316 -0.1790 -0.5201 -0.2338
  476MOL0     C64138  10.125   2.549   6.323  0.9675 -0.5939  0.7097
  476MOL0     C64139  10.183   2.555   6.464 -0.7427 -0.0597  0.5099
  476MOL0     C64140  10.339   2.566   6.448 -0.0799 -0.1937 -0.2199
  476MOL0     C64141  10.412   2.560   6.577 -0.4750 -0.1205 -0.4569
  476MOL0     N64142  10.557   2.582   6.573 -0.0353  0.4940 -0.9296
  476MOL0     C64143  10.641   2.488   6.611  0.9212  0.7723 -1.2221
  476MOL0     C64144  10.759   2.535   6.580 -0.2926  0.4892  0.4273
  476MOL0     C64145  10.877   2.448   6.601 -0.4262  0.1728 -0.0817
  476MOL0     C64146  10.994   2.494   6.510 -0.8144 -0.3528 -0.3862
  476MOL0     C64147  11.124   2.414   6.552 -0.5038  0.0395  0.0898
  476MOL0     C64148  11.197   2.470   6.680  0.6933  0.0855 -0.2587
  476MOL0     O64149  11.325   2.417   6.663  0.8689 -0.2432 -0.0092
  476MOL0     C64150  11.430   2.496   6.630 -0.4683  0.4150  0.2317
  476MOL0     C64151  11.426   2.612   6.550 -0.6610  0.5111  0.6138
  476MOL0     C64152  11.550   2.652   6.487  0.7479 -0.4834  0.4189
  476MOL0     C64153  11.673   2.598   6.524  0.1016  0.3491  0.3603
  476MOL0     C64154  11.806   2.648   6.475  0.4920  0.1894 -0.1672
  476MOL0     O64155  11.802   2.768   6.415  0.2359 -0.6621  0.4236
  476MOL0     C64156  11.917   2.827   6.362 -0.6333  0.3223  0.3203
  476MOL0     C64157  11.952   2.946   6.420 -0.0630  0.7197 -0.0077
  476MOL0     C64158  12.062   3.019   6.366 -0.4869  0.4565 -1.1450
  476MOL0     C64159  12.131   2.972   6.258 -0.3730  0.1480  0.5502
  476MOL0     O64160  12.246   3.036   6.224  0.2125 -0.5479 -0.2341
  476MOL0     C64161  12.297   3.007   6.090 -0.6799 -0.3713 -0.4581
  476MOL0     C64162  12.414   3.100   6.070 -0.4994  1.2625 -0.8168
  476MOL0     C64163  12.527   3.058   6.156  0.0927  0.1761  0.4255
  476MOL0     C64164  12.658   3.122   6.094 -0.4324  0.5277  0.0479
  476MOL0     C64165  12.774   3.058   6.168  0.0563 -0.2807 -0.1778
  476MOL0     C64166  12.894   3.167   6.153  0.5177 -0.4878  0.1448
  476MOL0     C64167  13.024   3.092   6.172  0.7319  0.2136  0.3197
  476MOL0     C64168  13.143   3.191   6.170 -0.1731 -0.3425 -0.0622
  476MOL0    Cl64169  13.307   3.114   6.166  0.2261  0.4353 -0.2199
  476MOL0     C64170  12.089   2.855   6.200 -0.8841  0.0808  0.7181
  476MOL0     C64171  11.982   2.781   6.254 -0.6979 -1.1168  0.1358
  476MOL0     O64172  11.903   2.576   6.492  0.4808  0.2148  0.3152
  476MOL0     C64173  11.673   2.498   6.627  1.6416 -0.0495  0.6650
  476MOL0     C64174  11.551   2.437   6.663 -0.3366  0.0337  0.1478
  476MOL0     N64175  10.753   2.660   6.526 -0.1677  0.1530 -0.3175
  476MOL0     N64176  10.627   2.678   6.510  0.5850 -0.1452 -0.1272
  476MOL0     C64177   9.390   2.219   6.545 -0.0196 -0.0524 -0.4915
  476MOL0     C64178   9.312   2.134   6.629  0.0218 -0.0014 -0.3492
  476MOL0     C64179   9.152   1.832   6.921  0.2805 -0.8043  0.6249
  476MOL0     C64180   9.262   1.757   6.965 -0.3563 -0.2396  0.2618
  476MOL0     C64181   9.247   1.647   7.058  0.0401  0.5921 -0.3327
  476MOL0     C64182   9.124   1.630   7.116  0.5422  0.5567 -0.1974
  476MOL0     O64183   9.093   1.534   7.203 -0.2780  0.2719 -0.1320
  476MOL0     C64184   9.187   1.439   7.245 -0.9395  0.2486  0.0762
  476MOL0     C64185   9.182   1.328   7.134 -0.0529 -0.7506 -0.1909
  476MOL0     C64186   9.051   1.254   7.152 -0.3167 -0.1770 -0.4041
  476MOL0     C64187   9.043   1.151   7.037 -0.5295 -0.2455  0.1857
  476MOL0     C64188   8.914   1.085   7.040 -0.6912  0.0332  0.3834
  476MOL0     C64189   8.806   1.041   7.030 -0.1272 -0.0571 -0.3138
  476MOL0     C64190   9.014   1.703   7.079 -0.3260 -0.0483 -0.5454
  476MOL0     C64191   9.027   1.808   6.983  0.0548  0.7180  0.4568
  476MOL0     C64192   8.902   1.878   6.935  1.0745  0.3814  0.4772
  476MOL0     H64193   9.534   1.918   6.726  1.0219 -1.1430 -2.9308
  476MOL0     H64194   9.693   2.063   6.588  0.0016  0.3129  0.8652
  476MOL0     H64195   9.768   2.274   6.515  1.5615  0.3647 -0.7693
  476MOL0     H64196   9.738   2.183   6.370 -2.0499  0.2582 -1.9536
  476MOL0     H64197   9.721   2.479   6.400 -1.7426 -1.8157  2.2577
  476MOL0     H64198   9.735   2.383   6.244  0.5673 -2.2875  0.5933
  476MOL0     H64199   9.966   2.318   6.279  0.5109  0.6269 -0.0789
  476MOL0     H64200   9.960   2.365   6.449 -1.3911 -1.8900 -0.1741
  476MOL0     H64201   9.927   2.573   6.224  0.5993 -2.2869 -1.4230
  476MOL0     H64202   9.927   2.595   6.395 -2.7138 -0.6294 -1.4074
  476MOL0     H64203  10.173   2.464   6.275  0.0415 -0.3689 -0.6812
  476MOL0     H64204  10.150   2.640   6.268 -0.2934 -1.6789 -1.8008
  476MOL0     H64205  10.151   2.643   6.521  0.7763  1.8951 -1.4771
  476MOL0     H64206  10.158   2.463   6.517 -0.1689 -0.6119 -0.1661
  476MOL0     H64207  10.363   2.658   6.394 -0.5766  0.1225  0.0942
  476MOL0     H64208  10.371   2.479   6.391  2.2922  1.4199 -1.5236
  476MOL0     H64209  10.378   2.638   6.646  2.8695 -1.6431  3.3014
  476MOL0     H64210  10.401   2.462   6.624  0.1161 -0.0841 -0.2440
  476MOL0     H64211  10.616   2.396   6.662  0.7775  2.1155  1.2726
  476MOL0     H64212  10.919   2.456   6.702 -1.0385 -1.9113  0.3836
  476MOL0     H64213  10.854   2.344   6.576 -2.3044  1.0607 -2.3725
  476MOL0     H64214  10.976   2.475   6.404  0.9756 -2.8490 -0.3292
  476MOL0     H64215  11.015   2.598   6.537 -2.1938 -0.6214  2.0364
  476MOL0     H64216  11.194   2.431   6.470 -2.4613 -0.7484 -1.8430
  476MOL0     H64217  11.106   2.306   6.553  2.0727 -0.4921 -1.6009
  476MOL0     H64218  11.154   2.428   6.772  2.9991 -1.0103  0.4027
  476MOL0     H64219  11.195   2.579   6.675 -1.3638  0.1035 -0.2233
  476MOL0     H64220  11.340   2.675   6.532  1.2840  3.5255  1.1970
  476MOL0     H64221  11.546   2.738   6.422 -0.6177 -2.4640 -2.3311
  476MOL0     H64222  11.889   2.974   6.504  3.3973  1.4193  2.5710
  476MOL0     H64223  12.099   3.115   6.399  2.1269 -0.8244 -0.0433
  476MOL0     H64224  12.335   2.906   6.077  0.9829  0.1374  0.2110
  476MOL0     H64225  12.216   3.039   6.024  1.1434  0.8888 -2.2108
  476MOL0     H64226  12.447   3.093   5.966  0.2052 -0.1487 -0.5333
  476MOL0     H64227  12.381   3.202   6.090 -1.3571  1.2139 -1.8680
  476MOL0     H64228  12.506   3.089   6.258 -0.3956 -0.9000  0.6645
  476MOL0     H64229  12.539   2.949   6.154  2.3597  0.2306  3.8698
  476MOL0     H64230  12.652   3.230   6.113 -0.9644  0.0814  2.8015
  476MOL0     H64231  12.667   3.095   5.988  0.1249 -3.7438  1.0293
  476MOL0     H64232  12.798   2.963   6.121 -1.1431 -0.8312  0.2742
  476MOL0     H64233  12.758   3.050   6.276 -1.5360  3.8457  0.0603
  476MOL0     H64234  12.897   3.203   6.050  1.2520 -1.9370 -0.3669
  476MOL0     H64235  12.880   3.252   6.220  0.3096  1.9276 -2.7606
  476MOL0     H64236  13.039   3.019   6.091 -2.6201  0.1733 -0.4311
  476MOL0     H64237  13.029   3.043   6.270  0.3247 -0.6470 -0.0787
  476MOL0     H64238  13.133   3.248   6.077  1.1721 -1.2727 -0.8040
  476MOL0     H64239  13.146   3.272   6.245 -1.2471 -0.4483  0.1014
  476MOL0     H64240  12.142   2.806   6.118 -0.8434  0.1619  0.6961
  476MOL0     H64241  11.962   2.681   6.217 -0.8126 -0.9763 -0.1782
  476MOL0     H64242  11.760   2.453   6.673  0.8582  0.0860  2.3381
  476MOL0     H64243  11.543   2.359   6.739  0.9644 -0.9822 -0.7183
  476MOL0     H64244   9.342   2.301   6.491  2.5712  0.7398 -1.7696
  476MOL0     H64245   9.209   2.162   6.649  0.8022  3.3804 -0.5120
  476MOL0     H64246   9.360   1.771   6.919  1.5941 -1.6567  3.6093
  476MOL0     H64247   9.322   1.572   7.081 -0.7670  0.0558  0.6343
  476MOL0     H64248   9.165   1.394   7.342  1.0863 -2.5732 -0.6362
  476MOL0     H64249   9.281   1.491   7.265  0.3172 -1.5051 -0.9979
  476MOL0     H64250   9.263   1.262   7.166 -1.1506 -1.2217  1.7902
  476MOL0     H64251   9.192   1.373   7.035  1.5546  3.1008  1.5288
  476MOL0     H64252   8.967   1.325   7.149  0.6102  1.0247  0.8334
  476MOL0     H64253   9.052   1.200   7.247  2.7336 -1.5932 -1.1211
  476MOL0     H64254   9.059   1.203   6.943  0.8059  0.7224  0.9254
  476MOL0     H64255   9.121   1.074   7.045 -0.8366 -0.8561 -2.1242
  476MOL0     H64256   8.706   1.002   7.031 -0.1323 -0.0425  0.1289
  476MOL0     H64257   8.922   1.696   7.136  0.7748  1.7096  1.6267
  476MOL0     H64258   8.919   1.985   6.948  2.1208  0.0852  1.6714
  476MOL0     H64259   8.872   1.850   6.833 -2.0354  1.9002  0.8432
  476MOL0     H64260   8.817   1.846   6.995  1.5781 -1.2734  0.3686
  477MOL0     O64261   9.590   7.751   7.550 -0.0246  0.1613 -0.3919
  477MOL0     C64262   9.592   7.841   7.465 -0.5971  0.2926  0.3068
  477MOL0     O64263   9.703   7.887   7.388 -0.5430 -0.3217 -0.6283
  477MOL0     C64264   9.834   7.842   7.408  0.1188 -0.6401 -0.3356
  477MOL0     C64265   9.861   7.716   7.442 -0.1502  0.2465 -0.5361
  477MOL0     C64266   9.991   7.667   7.466 -0.1888 -0.3525  0.8424
  477MOL0     C64267  10.097   7.761   7.446 -0.7555  0.2430 -0.3822
  477MOL0     O64268  10.223   7.710   7.460  0.6147  0.3602  0.1170
  477MOL0     C64269  10.333   7.757   7.375  0.5733 -0.7261 -0.8446
  477MOL0     C64270  10.429   7.839   7.471  0.1954  0.3358  0.0472
  477MOL0     C64271  10.514   7.754   7.563  0.4405 -0.0639  0.7918
  477MOL0     C64272  10.623   7.815   7.658 -0.3724  0.2229 -0.4540
  477MOL0     C64273  10.732   7.713   7.688  0.4869  0.0772 -1.0570
  477MOL0     C64274  10.840   7.771   7.773 -0.6075  0.3754 -0.2625
  477MOL0     C64275  10.797   7.801   7.914  0.0527 -0.4747 -0.2680
  477MOL0     C64276  10.909   7.798   8.007  0.3822 -0.3883 -0.2207
  477MOL0     N64277  11.008   7.902   7.988  0.1337 -0.2277  1.1661
  477MOL0     C64278  10.992   8.024   7.929  0.0885  0.2731  0.1562
  477MOL0     C64279  11.107   8.081   7.901 -0.5234 -0.3254  0.1054
  477MOL0     C64280  11.135   8.201   7.813  0.2679 -0.4518  0.0946
  477MOL0     C64281  11.151   8.164   7.663  0.8686 -0.1566 -0.5413
  477MOL0     C64282  11.193   8.290   7.575 -0.7671 -0.1949 -0.0658
  477MOL0     C64283  11.333   8.349   7.618  0.4035 -0.2950  0.3732
  477MOL0     O64284  11.446   8.255   7.605  0.1562 -0.4786 -0.2977
  477MOL0     C64285  11.572   8.292   7.657  0.1367 -0.1075  0.5902
  477MOL0     C64286  11.605   8.404   7.732  0.0084 -0.6065 -0.2218
  477MOL0     C64287  11.732   8.432   7.769 -0.3104 -0.7771 -0.0579
  477MOL0     C64288  11.841   8.348   7.725 -0.0761  0.1111 -1.0115
  477MOL0     C64289  11.987   8.375   7.767  0.6764  0.9991 -0.3840
  477MOL0     O64290  12.022   8.509   7.760  0.4480  0.1963  0.0544
  477MOL0     C64291  12.150   8.547   7.775 -0.3228  0.4764  0.3150
  477MOL0     C64292  12.202   8.640   7.683 -0.3232  0.3275 -0.2296
  477MOL0     C64293  12.335   8.689   7.708 -0.7244 -0.3895  0.9077
  477MOL0     C64294  12.409   8.649   7.819 -0.3055  0.1657  0.4135
  477MOL0     O64295  12.532   8.701   7.859  0.3912 -0.0467 -0.3637
  477MOL0     C64296  12.581   8.828   7.812  0.2493 -1.1959 -0.0861
  477MOL0     C64297  12.673   8.800   7.693 -0.2775  0.0281 -1.2697
  477MOL0     C64298  12.712   8.928   7.616  0.0832 -0.2371  0.2317
  477MOL0     C64299  12.849   8.902   7.553  0.6169  0.9953 -0.3316
  477MOL0     C64300  12.833   8.805   7.441  0.9203  0.6451  0.1437
  477MOL0     C64301  12.760   8.865   7.308  0.5040 -0.0148  0.1380
  477MOL0     C64302  12.730   8.745   7.215  0.7118 -0.8018  0.5763
  477MOL0     C64303  12.693   8.790   7.072  0.7672 -0.4878 -0.0727
  477MOL0    Cl64304  12.825   8.884   6.987  0.7492  0.3807  0.1804
  477MOL0     C64305  12.357   8.551   7.900 -0.7835  0.6436  0.2933
  477MOL0     C64306  12.231   8.500   7.886  0.3512 -0.1771 -0.0022
  477MOL0     O64307  12.063   8.283   7.779  0.0283  0.4702 -0.0702
  477MOL0     C64308  11.805   8.239   7.652  0.3867  0.9418  0.0226
  477MOL0     C64309  11.675   8.205   7.619 -0.3364  0.2415  0.2518
  477MOL0     N64310  11.211   8.000   7.940  0.8033  1.0591  0.2029
  477MOL0     N64311  11.145   7.888   7.992  0.7155 -0.2567 -0.1955
  477MOL0     C64312  10.072   7.898   7.425  0.2700  0.0637  0.1229
  477MOL0     C64313   9.943   7.935   7.405  0.9165  0.7514  0.3436
  477MOL0     C64314   9.466   7.893   7.430 -0.0672  0.2576  0.9679
  477MOL0     C64315   9.443   7.962   7.303 -0.0117 -0.0759  0.1184
  477MOL0     C64316   9.323   8.022   7.273 -0.0439 -0.9582 -0.3297
  477MOL0     C64317   9.215   8.020   7.355 -0.5085 -0.4808  0.3136
  477MOL0     O64318   9.105   8.089   7.314 -0.2623 -0.4008 -0.0693
  477MOL0     C64319   8.981   8.072   7.380  0.6165  0.1529 -0.4007
  477MOL0     C64320   8.882   8.155   7.304  0.4888  0.4091  0.5105
  477MOL0     C64321   8.748   8.159   7.372  1.3643  0.5772 -0.6760
  477MOL0     C64322   8.653   8.263   7.319  0.4057 -0.0610 -0.4172
  477MOL0     C64323   8.529   8.251   7.393  0.4531 -0.2135  0.3186
  477MOL0     C64324   8.425   8.217   7.451  0.6458 -0.2598  0.2232
  477MOL0     C64325   9.225   7.947   7.471 -1.0634  0.1793 -0.1200
  477MOL0     C64326   9.347   7.883   7.512  0.5599 -0.1587  0.2610
  477MOL0     C64327   9.340   7.825   7.656 -0.0968 -0.3071  0.2209
  477MOL0     H64328   9.783   7.641   7.445  1.4495 -1.6622 -2.9415
  477MOL0     H64329  10.021   7.570   7.504  2.3684  0.5542  1.2588
  477MOL0     H64330  10.386   7.669   7.336 -0.2945 -1.5597 -0.1745
  477MOL0     H64331  10.299   7.820   7.293  1.7257 -0.3148 -1.0231
  477MOL0     H64332  10.360   7.903   7.526  0.9887 -0.2810  1.8218
  477MOL0     H64333  10.499   7.894   7.406  3.0638 -1.6646  1.2112
  477MOL0     H64334  10.570   7.699   7.488 -3.7354  1.0838 -3.6567
  477MOL0     H64335  10.447   7.693   7.625 -0.1474  0.3284  0.5505
  477MOL0     H64336  10.657   7.907   7.608 -1.2892 -0.6113 -2.7249
  477MOL0     H64337  10.568   7.853   7.745 -1.7013 -0.7287 -0.8428
  477MOL0     H64338  10.673   7.629   7.728 -0.8258  0.9040 -1.1816
  477MOL0     H64339  10.779   7.674   7.598 -0.5248  1.2768 -2.1344
  477MOL0     H64340  10.915   7.693   7.765 -1.3599 -0.4705  0.6665
  477MOL0     H64341  10.867   7.864   7.723  0.0787 -0.5946 -1.7587
  477MOL0     H64342  10.726   7.726   7.949 -0.4573 -0.5340 -1.3931
  477MOL0     H64343  10.746   7.898   7.917  0.9842  0.0518 -0.8964
  477MOL0     H64344  10.864   7.803   8.107 -1.3130 -0.8103 -0.9302
  477MOL0     H64345  10.957   7.700   7.995 -1.2342 -1.1855 -0.5636
  477MOL0     H64346  10.895   8.059   7.894 -1.1631 -1.9410  1.1730
  477MOL0     H64347  11.056   8.276   7.820 -0.8386 -1.6316  0.9659
  477MOL0     H64348  11.233   8.243   7.835  0.4309 -0.3881 -0.7180
  477MOL0     H64349  11.233   8.092   7.658  0.1250 -1.0335 -0.2794
  477MOL0     H64350  11.061   8.116   7.626  0.0450  2.0910 -1.5982
  477MOL0     H64351  11.119   8.370   7.583 -0.0439  0.4886 -0.0380
  477MOL0     H64352  11.193   8.247   7.475  3.2999 -0.2899 -0.1803
  477MOL0     H64353  11.333   8.383   7.722  1.9653 -0.9803  0.6214
  477MOL0     H64354  11.358   8.432   7.552 -1.5505  0.2023  0.1936
  477MOL0     H64355  11.519   8.465   7.758 -0.5384 -2.0745  1.6518
  477MOL0     H64356  11.743   8.521   7.830 -2.0355 -1.3701  1.2143
  477MOL0     H64357  12.152   8.682   7.597  0.1538  1.6238  0.0967
  477MOL0     H64358  12.387   8.771   7.659  0.1726 -0.0509  2.3546
  477MOL0     H64359  12.503   8.896   7.778  1.8552  0.7483 -0.0712
  477MOL0     H64360  12.621   8.882   7.899 -0.0820 -0.5590 -0.3272
  477MOL0     H64361  12.756   8.750   7.744 -3.3681 -1.3684  2.8868
  477MOL0     H64362  12.625   8.730   7.623  0.3229  0.4344 -2.1150
  477MOL0     H64363  12.640   8.957   7.540 -2.8411 -1.5218  2.3159
  477MOL0     H64364  12.716   9.017   7.680 -2.1409  0.4050 -0.4199
  477MOL0     H64365  12.916   8.850   7.622  1.7397  1.1318 -1.2822
  477MOL0     H64366  12.891   8.998   7.521  1.1350  0.9411  0.1642
  477MOL0     H64367  12.780   8.712   7.460 -0.0589  1.2406  0.3853
  477MOL0     H64368  12.938   8.782   7.418 -0.1990 -2.0588 -2.9076
  477MOL0     H64369  12.667   8.913   7.341  1.7515  1.7470  1.3101
  477MOL0     H64370  12.833   8.927   7.256 -2.0108 -0.4058 -4.3058
  477MOL0     H64371  12.642   8.695   7.258  0.0863  0.2095  0.5202
  477MOL0     H64372  12.814   8.676   7.213  1.0818 -0.5992  4.0560
  477MOL0     H64373  12.671   8.699   7.016 -0.2522  0.3854 -1.1711
  477MOL0     H64374  12.606   8.855   7.086  0.1605 -1.4211  0.6035
  477MOL0     H64375  12.410   8.520   7.990 -1.4209  0.5888  0.6629
  477MOL0     H64376  12.203   8.418   7.951 -2.7594  0.7572 -0.0036
  477MOL0     H64377  11.884   8.180   7.607 -1.1091 -1.3765  0.2540
  477MOL0     H64378  11.664   8.126   7.545 -1.3176  0.7098 -0.1304
  477MOL0     H64379  10.147   7.976   7.430 -1.2555  1.5824  0.0366
  477MOL0     H64380   9.920   8.041   7.398 -1.3166  0.3371  0.6826
  477MOL0     H64381   9.521   7.962   7.228 -2.7876 -0.8318 -2.9789
  477MOL0     H64382   9.319   8.062   7.172 -0.3419 -1.2620 -0.4382
  477MOL0     H64383   8.982   8.110   7.483  0.9701  0.5627 -0.5499
  477MOL0     H64384   8.943   7.970   7.382 -0.2110  0.4531 -0.0262
  477MOL0     H64385   8.863   8.109   7.207 -2.6436 -1.3063  1.7723
  477MOL0     H64386   8.918   8.257   7.293 -0.3572  0.5648 -1.1537
  477MOL0     H64387   8.758   8.179   7.479 -0.2057 -2.3699  0.1238
  477MOL0     H64388   8.699   8.062   7.368 -0.3097  1.3005  0.9548
  477MOL0     H64389   8.707   8.354   7.347  1.7915 -1.2810  1.0739
  477MOL0     H64390   8.623   8.254   7.215 -3.3704 -1.6616  0.6357
  477MOL0     H64391   8.335   8.191   7.503  0.3402  0.1132 -0.1113
  477MOL0     H64392   9.143   7.950   7.541 -3.1274 -0.2289 -2.3839
  477MOL0     H64393   9.267   7.886   7.709  0.6048  1.0117 -0.2955
  477MOL0     H64394   9.308   7.720   7.648 -0.4116 -0.3596  1.8065
  477MOL0     H64395   9.427   7.826   7.721  0.8372  1.8204 -0.9722
  478MOL0     O64396   5.662   7.899   4.676 -0.0908 -0.4743  0.9464
  478MOL0     C64397   5.633   7.932   4.791  1.1385 -0.1753  0.1672
  478MOL0     O64398   5.709   7.958   4.894  0.0653  0.4504  0.5039
  478MOL0     C64399   5.842   7.920   4.874 -0.3654  0.6791 -0.0966
  478MOL0     C64400   5.927   7.980   4.779 -1.4804 -0.0859 -0.8831
  478MOL0     C64401   6.055   7.933   4.763 -0.3403  0.2733 -0.0269
  478MOL0     C64402   6.113   7.831   4.834  0.5802  0.1988  0.4539
  478MOL0     O64403   6.250   7.800   4.831 -0.2862 -0.1997  0.1173
  478MOL0     C64404   6.334   7.858   4.721  0.4329 -0.3139  0.1461
  478MOL0     C64405   6.461   7.772   4.725  0.7143  0.5556  0.2120
  478MOL0     C64406   6.555   7.813   4.841 -0.6422 -0.0968 -0.0677
  478MOL0     C64407   6.680   7.723   4.847  0.2527  0.1279  0.4985
  478MOL0     C64408   6.778   7.759   4.966 -0.2226 -0.0107  0.2035
  478MOL0     C64409   6.816   7.910   4.987  0.7085  0.8353  0.3389
  478MOL0     C64410   6.892   7.932   5.126  0.2953 -0.2835  0.6424
  478MOL0     C64411   6.977   8.066   5.118 -0.1367 -0.9547 -0.4145
  478MOL0     N64412   7.094   8.056   5.044 -0.6366  0.1930  0.4775
  478MOL0     C64413   7.176   7.951   5.031 -0.3743 -0.1091  0.0086
  478MOL0     C64414   7.274   7.991   4.945 -0.2458 -0.5860 -1.2029
  478MOL0     C64415   7.395   7.911   4.919  0.3429 -0.2318  0.0279
  478MOL0     C64416   7.485   7.906   5.041 -0.2282  0.1281  0.7373
  478MOL0     C64417   7.560   8.039   5.073  0.2090 -0.3215  0.1022
  478MOL0     C64418   7.616   8.117   4.953 -0.5485 -0.2022 -0.6573
  478MOL0     O64419   7.697   8.016   4.894 -0.0433 -0.3379  0.3632
  478MOL0     C64420   7.834   8.009   4.923 -0.6629  0.1808  0.3693
  478MOL0     C64421   7.904   7.922   4.845 -0.2314 -0.0171 -0.3477
  478MOL0     C64422   8.042   7.900   4.876  0.5257 -0.6711  0.6942
  478MOL0     C64423   8.114   7.978   4.981  1.0016 -0.3995 -0.4170
  478MOL0     C64424   8.257   7.957   5.012  0.4220  0.4038  0.7478
  478MOL0     O64425   8.320   7.880   4.916 -0.0341  0.6386 -0.3391
  478MOL0     C64426   8.457   7.856   4.933  0.0799 -0.1247  0.5126
  478MOL0     C64427   8.515   7.807   5.046  0.1222 -0.0877 -0.6396
  478MOL0     C64428   8.650   7.763   5.048  0.1129  0.3705 -0.0868
  478MOL0     C64429   8.738   7.775   4.941  0.3246 -0.5227  0.2577
  478MOL0     O64430   8.865   7.743   4.960 -0.5594 -0.3512  0.2724
  478MOL0     C64431   8.964   7.784   4.862 -0.8335 -0.7239 -0.6933
  478MOL0     C64432   9.107   7.749   4.894 -0.0211  0.5107 -0.1709
  478MOL0     C64433   9.167   7.829   5.010 -0.1088 -0.2883 -0.7789
  478MOL0     C64434   9.260   7.733   5.079  0.2557 -0.2451 -0.8783
  478MOL0     C64435   9.381   7.711   4.989 -0.3502  0.2331 -0.0970
  478MOL0     C64436   9.502   7.676   5.072 -1.1928  0.1273  0.1775
  478MOL0     C64437   9.618   7.637   4.984 -1.1070  0.3962 -0.0154
  478MOL0     C64438   9.696   7.511   5.030  0.1132  0.1418 -0.7944
  478MOL0    Cl64439   9.787   7.547   5.184 -0.1168 -0.1285  0.5454
  478MOL0     C64440   8.682   7.834   4.828  0.8136  0.7334 -0.0694
  478MOL0     C64441   8.545   7.866   4.822  0.7220 -0.1424  0.7074
  478MOL0     O64442   8.320   8.018   5.095 -0.3960  0.0749 -0.5775
  478MOL0     C64443   8.026   8.060   5.064  0.8777  0.2904 -0.5108
  478MOL0     C64444   7.892   8.078   5.030  0.6111 -0.4337 -0.7276
  478MOL0     N64445   7.250   8.120   4.909  0.3811 -0.7154 -0.1985
  478MOL0     N64446   7.142   8.162   4.970  0.0249 -0.1981  0.6949
  478MOL0     C64447   6.031   7.767   4.924 -0.2767 -1.0294 -0.1895
  478MOL0     C64448   5.905   7.810   4.946  0.4717  0.3429 -0.1263
  478MOL0     C64449   5.485   7.927   4.818 -0.0166 -0.8132 -0.1950
  478MOL0     C64450   5.440   7.922   4.950 -0.2067 -0.1111 -0.6120
  478MOL0     C64451   5.301   7.919   4.981  0.0423 -0.2669 -0.3865
  478MOL0     C64452   5.198   7.908   4.890  0.1967  0.0373 -0.5001
  478MOL0     O64453   5.068   7.901   4.906  0.0501  0.1807 -0.4029
  478MOL0     C64454   5.008   7.931   5.035 -0.1537  0.9938 -0.2674
  478MOL0     C64455   4.870   7.887   5.013  0.4452 -0.4682 -0.1820
  478MOL0     C64456   4.775   7.933   5.124 -0.6741 -0.3249 -0.2330
  478MOL0     C64457   4.762   7.834   5.242 -0.6243  0.0393 -0.0469
  478MOL0     C64458   4.884   7.808   5.322  0.3005 -0.3436  0.3248
  478MOL0     C64459   4.980   7.795   5.396  0.0214 -0.9770  1.0675
  478MOL0     C64460   5.235   7.909   4.755  0.7260 -0.2923 -1.3302
  478MOL0     C64461   5.374   7.918   4.718 -0.3084 -0.4973 -0.1526
  478MOL0     C64462   5.394   7.951   4.572  0.5015 -0.0992  0.3079
  478MOL0     H64463   5.889   8.070   4.733  0.5061  0.8432 -0.8049
  478MOL0     H64464   6.116   8.002   4.705  0.6372 -0.4804  0.0754
  478MOL0     H64465   6.281   7.858   4.626 -1.0414 -0.7248  0.9337
  478MOL0     H64466   6.366   7.961   4.744  1.5304 -0.6067 -0.0050
  478MOL0     H64467   6.520   7.781   4.634  1.1291 -0.8838  0.3052
  478MOL0     H64468   6.438   7.665   4.718 -2.1647  1.1967 -1.9177
  478MOL0     H64469   6.513   7.820   4.942  1.4359  1.8426  0.7690
  478MOL0     H64470   6.584   7.913   4.808  2.0465 -0.7895 -0.0772
  478MOL0     H64471   6.639   7.622   4.839 -0.4741  0.4914 -0.5347
  478MOL0     H64472   6.734   7.738   4.752 -1.0678 -1.2724 -0.5132
  478MOL0     H64473   6.730   7.731   5.060 -0.9183  1.0161  0.1722
  478MOL0     H64474   6.874   7.707   4.959 -1.1783 -2.0712  1.5359
  478MOL0     H64475   6.884   7.936   4.905  1.3440  0.2688  0.6732
  478MOL0     H64476   6.729   7.976   4.983 -0.9398 -1.3314 -1.6192
  478MOL0     H64477   6.958   7.850   5.156 -0.0203 -0.2877  1.3312
  478MOL0     H64478   6.820   7.943   5.207  0.6797  1.2224  0.8062
  478MOL0     H64479   6.928   8.155   5.079 -1.3602 -1.5825 -0.3527
  478MOL0     H64480   6.995   8.095   5.222 -0.3475  1.9618 -1.1087
  478MOL0     H64481   7.178   7.860   5.090  0.7891 -0.0404  0.1021
  478MOL0     H64482   7.366   7.810   4.889  2.7402 -1.0084  0.0880
  478MOL0     H64483   7.448   7.953   4.834 -3.7863  3.9133 -0.8966
  478MOL0     H64484   7.438   7.877   5.135  2.9348 -1.9884  1.8574
  478MOL0     H64485   7.566   7.838   5.011  0.4892  0.5012  1.7578
  478MOL0     H64486   7.644   8.037   5.144 -0.6927  2.0226  1.3791
  478MOL0     H64487   7.482   8.098   5.121 -2.4322 -1.0394 -3.0246
  478MOL0     H64488   7.677   8.207   4.965 -0.7300  0.2623 -2.9039
  478MOL0     H64489   7.528   8.138   4.892  0.0522 -0.3271 -1.5702
  478MOL0     H64490   7.845   7.867   4.772 -0.8120  0.4408 -0.2349
  478MOL0     H64491   8.096   7.828   4.815  0.2049 -1.4084  1.2727
  478MOL0     H64492   8.454   7.788   5.133  3.6806 -1.2385  1.8157
  478MOL0     H64493   8.694   7.706   5.130 -2.0148  0.8087  1.4363
  478MOL0     H64494   8.944   7.747   4.761 -1.0175 -0.2528 -0.8327
  478MOL0     H64495   8.950   7.891   4.845  1.7797 -0.2212 -0.1166
  478MOL0     H64496   9.123   7.641   4.897  1.1008  0.5071 -2.9782
  478MOL0     H64497   9.159   7.788   4.805 -0.8827 -0.1551 -0.9856
  478MOL0     H64498   9.231   7.913   4.980 -0.9896  1.7170  2.4930
  478MOL0     H64499   9.085   7.858   5.076  0.6777  1.0357 -0.3426
  478MOL0     H64500   9.210   7.640   5.109 -0.5001 -0.0648 -1.5480
  478MOL0     H64501   9.305   7.779   5.168  1.8437 -1.7605 -0.8483
  478MOL0     H64502   9.409   7.795   4.925  0.5235 -0.2623 -0.3807
  478MOL0     H64503   9.369   7.626   4.922 -1.8135 -0.3621  0.8625
  478MOL0     H64504   9.529   7.756   5.141 -0.3158  1.0637 -1.2056
  478MOL0     H64505   9.479   7.592   5.139 -0.3508 -0.7337 -0.5851
  478MOL0     H64506   9.688   7.721   4.977  1.5918 -1.8368 -5.3619
  478MOL0     H64507   9.572   7.624   4.886 -1.7076 -0.3175  0.3488
  478MOL0     H64508   9.620   7.436   5.052 -0.8143  1.5249  0.9417
  478MOL0     H64509   9.763   7.468   4.955  0.7022 -0.0687 -0.1583
  478MOL0     H64510   8.746   7.859   4.743  0.1977  0.1964 -0.7033
  478MOL0     H64511   8.510   7.898   4.725 -2.4016 -1.5411  1.2451
  478MOL0     H64512   8.063   8.097   5.159  0.3854  3.1736 -1.3463
  478MOL0     H64513   7.833   8.143   5.094 -1.2703 -2.3615 -0.3931
  478MOL0     H64514   6.080   7.690   4.982 -0.9404 -1.5143 -0.2713
  478MOL0     H64515   5.836   7.761   5.013 -1.4964  1.4817 -1.2299
  478MOL0     H64516   5.508   7.919   5.035 -0.5292 -2.6227 -0.3721
  478MOL0     H64517   5.279   7.926   5.087 -3.1810  1.8940 -1.0478
  478MOL0     H64518   5.009   8.037   5.062  2.3110  0.5513  1.8186
  478MOL0     H64519   5.051   7.870   5.115 -1.2151  0.4930 -0.0709
  478MOL0     H64520   4.872   7.778   4.998  1.9063 -0.1217 -3.1652
  478MOL0     H64521   4.830   7.928   4.921 -1.0956 -1.4331  0.0202
  478MOL0     H64522   4.677   7.958   5.082 -1.4631  0.2565  1.8313
  478MOL0     H64523   4.820   8.024   5.167  0.0821  0.0208 -1.6696
  478MOL0     H64524   4.685   7.873   5.309  1.4421 -0.6965  2.9201
  478MOL0     H64525   4.734   7.738   5.196 -1.5677  0.4492 -0.3575
  478MOL0     H64526   5.061   7.788   5.466  0.4305 -0.4676  0.6574
  478MOL0     H64527   5.154   7.908   4.682 -0.5236  2.6739 -0.1174
  478MOL0     H64528   5.466   7.889   4.518  4.0160  2.4573  1.7300
  478MOL0     H64529   5.299   7.950   4.516  1.1946 -0.3840 -0.9047
  478MOL0     H64530   5.421   8.056   4.584 -2.5965  0.7747  0.6732
  479MOL0     O64531   1.422   7.185   1.495 -0.0795  0.6843 -0.2899
  479MOL0     C64532   1.420   7.060   1.481 -0.8157 -0.1923 -0.8125
  479MOL0     O64533   1.526   6.979   1.517  0.4760 -0.3439  0.4598
  479MOL0     C64534   1.629   7.033   1.588  0.1857 -0.0640 -0.3173
  479MOL0     C64535   1.706   7.142   1.537  0.1739  0.0045 -0.6593
  479MOL0     C64536   1.824   7.178   1.604  0.3933 -0.3167 -1.0476
  479MOL0     C64537   1.857   7.123   1.732 -0.4332  0.0094  0.4493
  479MOL0     O64538   1.959   7.177   1.798  0.0396  0.3667 -0.0145
  479MOL0     C64539   1.927   7.267   1.913 -0.3788 -0.4200  0.3470
  479MOL0     C64540   2.025   7.377   1.918  1.0251 -0.5237 -0.7887
  479MOL0     C64541   2.015   7.472   1.791  0.1976  0.6374  0.5649
  479MOL0     C64542   2.100   7.595   1.807  0.5341 -0.2249 -0.7725
  479MOL0     C64543   2.248   7.565   1.780  0.2093 -0.2442 -0.0529
  479MOL0     C64544   2.329   7.695   1.807  0.1003  0.2422  0.1205
  479MOL0     C64545   2.472   7.686   1.757  0.2573  0.2860 -0.9563
  479MOL0     C64546   2.556   7.801   1.824 -0.2530  0.5094 -0.0454
  479MOL0     N64547   2.699   7.781   1.774 -0.1418 -0.8655 -0.8216
  479MOL0     C64548   2.734   7.783   1.640  0.6732  0.5874  0.5672
  479MOL0     C64549   2.861   7.760   1.636  0.2496 -0.5591 -0.2349
  479MOL0     C64550   2.946   7.761   1.514 -0.2162  0.6615  0.2871
  479MOL0     C64551   3.056   7.865   1.527 -0.0351 -0.4706 -0.0122
  479MOL0     C64552   3.154   7.851   1.410  0.0471 -0.8788  0.0826
  479MOL0     C64553   3.264   7.749   1.441 -0.2483  1.0346 -0.0913
  479MOL0     O64554   3.319   7.778   1.573  0.3986  0.1547 -1.1103
  479MOL0     C64555   3.429   7.852   1.565  0.7498 -0.2240  0.4457
  479MOL0     C64556   3.483   7.863   1.688  0.1937  0.5059  0.0395
  479MOL0     C64557   3.599   7.931   1.704  0.2153 -0.1774 -0.4653
  479MOL0     C64558   3.652   8.013   1.600  1.0136  0.2322 -0.2558
  479MOL0     C64559   3.788   8.078   1.607  0.1141  0.1890 -0.8711
  479MOL0     O64560   3.832   8.161   1.502  0.3127 -0.5432 -0.1912
  479MOL0     C64561   3.968   8.187   1.491 -0.6634  0.3294 -0.8414
  479MOL0     C64562   4.069   8.085   1.487  0.1209 -0.3726  0.6376
  479MOL0     C64563   4.204   8.119   1.477  0.4065  0.8123 -0.2563
  479MOL0     C64564   4.235   8.253   1.472  0.2246  0.3982 -0.2323
  479MOL0     O64565   4.368   8.275   1.474  0.5989  0.1009 -0.3265
  479MOL0     C64566   4.424   8.396   1.529  0.7755 -0.2243  0.3175
  479MOL0     C64567   4.544   8.349   1.608  0.3608 -0.3147  0.7654
  479MOL0     C64568   4.508   8.321   1.751  0.0807 -0.2039  0.1776
  479MOL0     C64569   4.645   8.276   1.820 -0.6993 -0.1366 -0.3730
  479MOL0     C64570   4.745   8.394   1.849 -0.2438  0.5923  0.2878
  479MOL0     C64571   4.873   8.342   1.923  0.2558 -0.4740  0.5266
  479MOL0     C64572   4.974   8.257   1.841 -0.3954 -0.0705 -0.1560
  479MOL0     C64573   5.120   8.250   1.887 -0.2702  0.8533  0.0666
  479MOL0    Cl64574   5.189   8.110   1.790 -0.0932  0.0755 -0.2874
  479MOL0     C64575   4.133   8.352   1.472 -0.0219 -0.8822  0.3759
  479MOL0     C64576   4.000   8.315   1.483  0.4467  0.4336  0.3607
  479MOL0     O64577   3.860   8.044   1.704  0.4531 -0.2741  0.1512
  479MOL0     C64578   3.587   8.011   1.474 -0.2280  0.2763 -0.4277
  479MOL0     C64579   3.481   7.924   1.457 -0.7012  1.0997 -0.5673
  479MOL0     N64580   2.906   7.749   1.767  0.0393  0.1017  1.2371
  479MOL0     N64581   2.807   7.760   1.851  0.4578  0.3820 -0.1919
  479MOL0     C64582   1.777   7.016   1.782 -0.1032  0.7632  0.0512
  479MOL0     C64583   1.663   6.974   1.715  0.3582  0.6602  0.1500
  479MOL0     C64584   1.288   7.003   1.429 -0.7711 -0.7726  0.9735
  479MOL0     C64585   1.246   6.895   1.501  0.2530 -0.6558  0.0598
  479MOL0     C64586   1.120   6.832   1.467 -0.8384 -1.1189  0.5741
  479MOL0     C64587   1.042   6.890   1.370 -0.0900  0.4095  0.4497
  479MOL0     O64588   0.918   6.831   1.347 -0.0033  0.1864  0.1978
  479MOL0     C64589   0.832   6.868   1.244 -0.1755 -0.2069 -0.4311
  479MOL0     C64590   0.880   6.812   1.107  0.1074  0.7662 -0.2032
  479MOL0     C64591   0.781   6.869   1.003 -0.1449 -0.7569  0.2409
  479MOL0     C64592   0.839   6.885   0.866  0.8369 -0.6049  0.5900
  479MOL0     C64593   0.967   6.950   0.854 -0.4629  0.3273  0.1179
  479MOL0     C64594   1.074   7.009   0.852 -0.5890 -1.4119 -0.6938
  479MOL0     C64595   1.092   6.994   1.294  0.2702 -0.1824 -0.3169
  479MOL0     C64596   1.211   7.057   1.321 -0.3399  1.0432  0.4641
  479MOL0     C64597   1.260   7.172   1.241 -0.5389  0.6963  0.5371
  479MOL0     H64598   1.680   7.193   1.445  0.4346 -2.0636 -1.9420
  479MOL0     H64599   1.880   7.258   1.557  1.2254 -0.4620 -0.3193
  479MOL0     H64600   1.823   7.299   1.908 -0.8200 -1.6595  1.2365
  479MOL0     H64601   1.931   7.211   2.007  2.9482 -1.6499 -0.3852
  479MOL0     H64602   2.123   7.329   1.926  0.9426 -0.8149 -1.4644
  479MOL0     H64603   2.003   7.445   2.001  2.8342  1.1464 -1.5925
  479MOL0     H64604   1.912   7.507   1.783  0.7720  2.1133 -1.0337
  479MOL0     H64605   2.031   7.418   1.697  2.1415 -1.3858  1.9463
  479MOL0     H64606   2.054   7.681   1.758 -3.6740 -0.5969  2.0127
  479MOL0     H64607   2.093   7.618   1.914 -0.1002  3.7255 -1.5059
  479MOL0     H64608   2.288   7.479   1.836  0.9320  0.4969  0.6023
  479MOL0     H64609   2.267   7.541   1.675 -0.7658  0.4069 -0.3816
  479MOL0     H64610   2.276   7.776   1.756  0.4969 -0.6852 -1.8614
  479MOL0     H64611   2.329   7.710   1.915 -2.9863  0.3925  0.2083
  479MOL0     H64612   2.472   7.697   1.648  0.0516 -0.0829 -0.9931
  479MOL0     H64613   2.519   7.589   1.776  0.2551  0.5519  0.5022
  479MOL0     H64614   2.503   7.895   1.806 -4.6801 -1.3481  1.8123
  479MOL0     H64615   2.563   7.798   1.934  0.7304  1.3676 -0.0667
  479MOL0     H64616   2.666   7.809   1.559  2.2657  0.4003 -0.8764
  479MOL0     H64617   2.990   7.661   1.503  2.2770  1.5384  1.4720
  479MOL0     H64618   2.879   7.783   1.431  0.0540 -1.2696 -0.5057
  479MOL0     H64619   3.009   7.963   1.515  1.3385 -0.0060 -2.3298
  479MOL0     H64620   3.105   7.853   1.625  1.2293 -0.3760 -0.6082
  479MOL0     H64621   3.207   7.945   1.389  3.9599 -2.8331  0.3572
  479MOL0     H64622   3.105   7.822   1.317  0.9742  2.2028 -1.5301
  479MOL0     H64623   3.340   7.726   1.366 -1.0478  1.0036 -0.9168
  479MOL0     H64624   3.219   7.650   1.458  3.2072 -1.0637 -1.9390
  479MOL0     H64625   3.429   7.808   1.765  2.5873 -0.5853  1.0538
  479MOL0     H64626   3.650   7.929   1.799  0.4858 -0.3969 -0.6152
  479MOL0     H64627   4.034   7.983   1.478  0.3509 -0.3754 -0.3342
  479MOL0     H64628   4.268   8.035   1.452 -1.1294  0.0517 -1.9009
  479MOL0     H64629   4.446   8.466   1.449 -0.7825  0.3767  0.3848
  479MOL0     H64630   4.357   8.453   1.594 -0.7256 -0.2217 -1.1752
  479MOL0     H64631   4.588   8.259   1.564  2.0250 -0.4939  2.6560
  479MOL0     H64632   4.622   8.426   1.605  2.4084 -2.0507  3.9369
  479MOL0     H64633   4.473   8.409   1.805 -0.5093 -0.2368 -0.1408
  479MOL0     H64634   4.432   8.243   1.750  0.8990 -1.0729 -1.7484
  479MOL0     H64635   4.696   8.203   1.757 -1.9552 -0.6976 -0.7697
  479MOL0     H64636   4.618   8.235   1.918  0.5293 -0.7091 -0.2579
  479MOL0     H64637   4.692   8.471   1.907 -1.4391  0.3516 -0.4475
  479MOL0     H64638   4.775   8.434   1.752  1.9591 -0.2016  0.5837
  479MOL0     H64639   4.928   8.430   1.957 -1.5637  1.1214 -0.4647
  479MOL0     H64640   4.845   8.295   2.018 -1.5216  1.7281  1.1639
  479MOL0     H64641   4.970   8.291   1.737  0.9084  0.5222 -0.0284
  479MOL0     H64642   4.941   8.153   1.853 -0.7640  0.1935  1.2178
  479MOL0     H64643   5.157   8.349   1.861  0.0028  0.7301 -0.0162
  479MOL0     H64644   5.117   8.222   1.993  0.9734  0.8250  0.1044
  479MOL0     H64645   4.151   8.457   1.456  0.5441 -1.1312 -0.7450
  479MOL0     H64646   3.929   8.397   1.479  1.5834  1.4566  0.5047
  479MOL0     H64647   3.626   8.061   1.386  0.8297  1.6706  0.7791
  479MOL0     H64648   3.445   7.913   1.354  0.9277 -2.9848 -0.8598
  479MOL0     H64649   1.791   6.975   1.882  1.2665  1.1855  0.0435
  479MOL0     H64650   1.617   6.886   1.758  1.8595  0.8850  2.3666
  479MOL0     H64651   1.312   6.855   1.578  2.3820 -1.1276 -1.8920
  479MOL0     H64652   1.090   6.747   1.526 -1.2266 -0.7795  0.8713
  479MOL0     H64653   0.826   6.977   1.245  0.8732 -0.0872 -2.4115
  479MOL0     H64654   0.737   6.823   1.272 -1.0740  1.4872 -0.6702
  479MOL0     H64655   0.890   6.703   1.117  1.8138  0.6304 -2.5202
  479MOL0     H64656   0.986   6.838   1.091  0.7719 -1.8399 -0.5759
  479MOL0     H64657   0.749   6.969   1.033  1.7148 -0.2467  0.6066
  479MOL0     H64658   0.696   6.799   1.004 -0.9375  0.1832 -0.1934
  479MOL0     H64659   0.837   6.786   0.818 -0.4899 -0.2928 -0.0572
  479MOL0     H64660   0.766   6.941   0.806  0.6462  0.0916  1.4552
  479MOL0     H64661   1.164   7.066   0.845  0.5230 -2.0192  4.3166
  479MOL0     H64662   1.025   7.041   1.222 -0.8587 -1.3441 -0.0641
  479MOL0     H64663   1.255   7.254   1.314 -1.6077 -0.1987  1.4935
  479MOL0     H64664   1.361   7.162   1.199 -0.3161  0.2683  1.1728
  479MOL0     H64665   1.196   7.201   1.157  0.6518 -0.0926 -0.7020
  480MOL0     O64666   0.286   5.792   1.150  0.7764 -0.5183 -0.5277
  480MOL0     C64667   0.316   5.766   1.269  0.4718  0.3300  0.2317
  480MOL0     O64668   0.310   5.641   1.326  0.1019 -0.1337  0.2828
  480MOL0     C64669   0.262   5.533   1.261  0.2914 -0.0509  0.8798
  480MOL0     C64670   0.172   5.448   1.323  0.0955 -0.1524 -0.7389
  480MOL0     C64671   0.130   5.326   1.267  0.3652  0.3850  0.6827
  480MOL0     C64672   0.178   5.292   1.137  0.0125  0.1079 -0.1279
  480MOL0     O64673   0.136   5.171   1.084  0.3229 -0.0312  0.1887
  480MOL0     C64674   0.110   5.165   0.942  0.1225 -0.0293  0.1945
  480MOL0     C64675  -0.015   5.237   0.902  0.0146  0.2564 -0.2193
  480MOL0     C64676  -0.130   5.230   1.000  1.1233 -0.2656 -0.1111
  480MOL0     C64677  -0.247   5.313   0.946 -0.3457 -0.7131  0.3840
  480MOL0     C64678  -0.346   5.355   1.059 -0.0361  0.4603 -1.3807
  480MOL0     C64679  -0.430   5.484   1.035 -0.2855  0.4034 -0.3474
  480MOL0     C64680  -0.530   5.468   0.923 -0.6019  0.7125  0.0429
  480MOL0     C64681  -0.628   5.579   0.911  0.8408 -0.3331  1.1602
  480MOL0     N64682  -0.757   5.545   0.842 -0.1691 -0.3726  0.4044
  480MOL0     C64683  -0.827   5.431   0.855 -0.6134 -0.0610 -0.5451
  480MOL0     C64684  -0.935   5.447   0.782  0.9870  0.5128  0.0066
  480MOL0     C64685  -1.046   5.344   0.776  0.2007 -0.0370 -0.5203
  480MOL0     C64686  -1.189   5.403   0.800 -0.1202 -0.4363  0.3648
  480MOL0     C64687  -1.225   5.448   0.940 -0.3542  0.3216  0.8030
  480MOL0     C64688  -1.119   5.490   1.042  0.2950  0.7389 -0.3073
  480MOL0     O64689  -1.046   5.378   1.097  0.8002 -0.4702  0.4239
  480MOL0     C64690  -0.933   5.412   1.168 -0.4443  0.6420  0.7533
  480MOL0     C64691  -0.859   5.304   1.217 -0.4527 -0.0176 -0.8778
  480MOL0     C64692  -0.743   5.329   1.291  0.1270  0.1823 -0.2493
  480MOL0     C64693  -0.697   5.459   1.311  0.1398  0.8398  0.1618
  480MOL0     C64694  -0.572   5.493   1.366 -0.2421 -0.5192  0.1963
  480MOL0     O64695  -0.507   5.387   1.419 -0.2345  0.5321  0.0962
  480MOL0     C64696  -0.388   5.403   1.471 -0.0624  0.2462  0.7755
  480MOL0     C64697  -0.368   5.331   1.591 -0.5022 -0.3978 -0.4283
  480MOL0     C64698  -0.246   5.334   1.664 -0.7997 -0.0214  0.0492
  480MOL0     C64699  -0.139   5.398   1.603 -0.3284  0.1708  0.8028
  480MOL0     O64700  -0.008   5.380   1.647 -0.2112  0.2702  0.2739
  480MOL0     C64701   0.058   5.499   1.708 -0.1745  0.6840  0.1667
  480MOL0     C64702   0.034   5.517   1.855  0.1547 -0.7353  0.1516
  480MOL0     C64703   0.113   5.409   1.932 -0.3101  0.2079  0.4035
  480MOL0     C64704   0.118   5.429   2.083 -0.1860 -0.1398 -1.0474
  480MOL0     C64705   0.259   5.403   2.137  0.2997 -0.2116  1.2098
  480MOL0     C64706   0.270   5.399   2.292 -0.7156  0.5991 -0.1592
  480MOL0     C64707   0.172   5.315   2.373 -1.0806  1.0467  0.2240
  480MOL0     C64708   0.242   5.239   2.484  0.7679 -0.2380 -0.6058
  480MOL0    Cl64709   0.301   5.351   2.610  0.4904  0.2055  0.3502
  480MOL0     C64710  -0.158   5.465   1.480  1.1169 -0.8047 -0.8740
  480MOL0     C64711  -0.284   5.473   1.412 -1.2908 -0.5995 -0.1739
  480MOL0     O64712  -0.536   5.613   1.384  0.4444  0.4340  0.2209
  480MOL0     C64713  -0.771   5.565   1.259  0.5143  0.4814  0.3075
  480MOL0     C64714  -0.888   5.542   1.188  0.4024  0.3597  0.2134
  480MOL0     N64715  -0.920   5.558   0.708 -0.0605  0.3596 -0.0081
  480MOL0     N64716  -0.811   5.613   0.738  0.0083  0.2480  0.1773
  480MOL0     C64717   0.244   5.391   1.064  0.2579  0.0717 -0.1435
  480MOL0     C64718   0.297   5.498   1.130 -0.0774  0.4240  1.2197
  480MOL0     C64719   0.350   5.874   1.363  0.1532 -0.5940  0.4009
  480MOL0     C64720   0.303   5.865   1.498  0.3208  0.3828  0.7561
  480MOL0     C64721   0.324   5.970   1.594 -0.1859  0.7690  0.4738
  480MOL0     C64722   0.385   6.084   1.552 -0.0392 -1.2900 -0.4524
  480MOL0     O64723   0.395   6.185   1.645  0.8813  0.4269  0.0646
  480MOL0     C64724   0.377   6.319   1.614  0.0027 -0.1078  0.0869
  480MOL0     C64725   0.516   6.397   1.594  0.4961 -0.0982  0.9329
  480MOL0     C64726   0.474   6.545   1.546 -0.3328 -0.0447  0.4948
  480MOL0     C64727   0.522   6.648   1.655 -0.4013 -0.2454  0.2641
  480MOL0     C64728   0.669   6.668   1.645 -0.2644 -0.5537 -0.1921
  480MOL0     C64729   0.786   6.701   1.642  0.6620  0.3948  0.0538
  480MOL0     C64730   0.429   6.101   1.424  1.0242  0.1995 -0.2196
  480MOL0     C64731   0.418   5.993   1.331 -0.2212 -0.5424  1.4648
  480MOL0     C64732   0.489   6.007   1.191  0.1108 -0.7649 -1.4911
  480MOL0     H64733   0.123   5.476   1.416 -1.7516 -2.3942 -0.9677
  480MOL0     H64734   0.059   5.261   1.318 -2.0520  0.9765 -1.7079
  480MOL0     H64735   0.190   5.204   0.879 -1.9029 -0.9748 -3.2112
  480MOL0     H64736   0.104   5.059   0.916  3.5524 -0.1119 -0.7462
  480MOL0     H64737  -0.048   5.198   0.805 -1.5035  0.2208  0.2815
  480MOL0     H64738   0.009   5.342   0.883  0.1345 -0.3156 -3.8539
  480MOL0     H64739  -0.107   5.267   1.100 -2.6353 -0.8366  1.1266
  480MOL0     H64740  -0.159   5.127   1.018 -0.5625  0.4508  1.5211
  480MOL0     H64741  -0.217   5.411   0.908  2.5597 -1.3901  0.7194
  480MOL0     H64742  -0.300   5.273   0.859  0.1379  1.4298 -0.9772
  480MOL0     H64743  -0.403   5.265   1.084  1.7352 -0.7462 -1.4809
  480MOL0     H64744  -0.285   5.366   1.149  0.0095  0.0263 -1.3601
  480MOL0     H64745  -0.491   5.505   1.123 -0.6060  1.5863 -0.8242
  480MOL0     H64746  -0.367   5.571   1.013 -0.8906  0.4538 -2.0280
  480MOL0     H64747  -0.584   5.385   0.968 -0.1637  1.3512  1.8614
  480MOL0     H64748  -0.483   5.442   0.828 -2.9946 -1.3483 -0.6625
  480MOL0     H64749  -0.658   5.621   1.007  1.6160  1.2854  0.7364
  480MOL0     H64750  -0.593   5.669   0.858 -0.0081 -1.7554 -2.0389
  480MOL0     H64751  -0.809   5.359   0.935  0.1289  2.7679  2.0151
  480MOL0     H64752  -1.040   5.296   0.678  0.4945  0.0002 -0.5213
  480MOL0     H64753  -1.031   5.269   0.855 -5.1954 -0.8391  0.1333
  480MOL0     H64754  -1.221   5.478   0.727  0.4950 -0.1490  0.3797
  480MOL0     H64755  -1.256   5.323   0.766  0.6086 -1.2240  0.7419
  480MOL0     H64756  -1.265   5.356   0.982 -1.3772  1.0634  1.4992
  480MOL0     H64757  -1.305   5.521   0.930  0.0640  0.4731 -2.5179
  480MOL0     H64758  -1.182   5.531   1.122  1.8802 -0.1692  1.4944
  480MOL0     H64759  -1.051   5.561   0.995  0.3871 -0.1120 -1.4952
  480MOL0     H64760  -0.891   5.205   1.185  0.9790 -0.4634 -1.0140
  480MOL0     H64761  -0.683   5.248   1.332  1.1677  0.0125 -2.0145
  480MOL0     H64762  -0.453   5.275   1.627 -1.5538  0.9646 -0.7268
  480MOL0     H64763  -0.235   5.284   1.760 -2.2465 -0.8211 -0.1672
  480MOL0     H64764   0.166   5.492   1.694 -0.1844  1.0161 -0.0853
  480MOL0     H64765   0.031   5.590   1.653  0.4754  0.1923 -0.9764
  480MOL0     H64766   0.079   5.614   1.877  1.4007 -1.3394  0.3533
  480MOL0     H64767  -0.072   5.511   1.881 -0.0470 -1.7997 -0.8382
  480MOL0     H64768   0.084   5.306   1.906  4.1820 -1.4210  0.9421
  480MOL0     H64769   0.218   5.426   1.904 -0.7554  1.6562 -0.4963
  480MOL0     H64770   0.041   5.375   2.138 -0.2506  2.9255  2.1951
  480MOL0     H64771   0.097   5.534   2.105  0.9489 -0.5591  2.6307
  480MOL0     H64772   0.328   5.476   2.095  1.0255 -2.7133 -2.4353
  480MOL0     H64773   0.302   5.310   2.097  0.4285  0.3104  0.1132
  480MOL0     H64774   0.374   5.367   2.306 -0.1345  0.7817 -3.2735
  480MOL0     H64775   0.268   5.498   2.338  1.8648  0.4761  0.3841
  480MOL0     H64776   0.126   5.240   2.310  0.0361  1.3583 -0.9985
  480MOL0     H64777   0.097   5.387   2.410 -1.9551 -0.1082  0.7589
  480MOL0     H64778   0.165   5.174   2.528 -0.2310  2.0792  1.3052
  480MOL0     H64779   0.321   5.177   2.441  2.4491  1.3838  0.0450
  480MOL0     H64780  -0.077   5.510   1.424  0.2437  0.8006 -0.9158
  480MOL0     H64781  -0.285   5.524   1.316  0.4131  1.1736  0.6935
  480MOL0     H64782  -0.731   5.664   1.278 -2.7722  1.4502  3.1704
  480MOL0     H64783  -0.932   5.636   1.157 -1.3171  0.6721  3.2095
  480MOL0     H64784   0.278   5.379   0.961  1.6763  1.8487  0.0714
  480MOL0     H64785   0.366   5.550   1.064  0.4596 -2.7611 -0.9783
  480MOL0     H64786   0.246   5.775   1.520  2.0682 -1.1376 -0.6252
  480MOL0     H64787   0.265   5.960   1.685 -2.7658 -0.8221 -1.2367
  480MOL0     H64788   0.312   6.371   1.685 -0.0812 -1.1539  0.7998
  480MOL0     H64789   0.328   6.321   1.516 -0.2771  0.6068  0.2369
  480MOL0     H64790   0.579   6.359   1.513 -1.3588  1.1681 -1.2291
  480MOL0     H64791   0.570   6.407   1.688 -0.1333 -1.6718  1.4991
  480MOL0     H64792   0.366   6.553   1.526  0.2436  0.1659 -3.3292
  480MOL0     H64793   0.512   6.577   1.448  1.5592  1.1286  1.5608
  480MOL0     H64794   0.471   6.742   1.634 -2.2024 -1.2800 -0.2587
  480MOL0     H64795   0.488   6.609   1.751  0.4338  0.9144  1.0462
  480MOL0     H64796   0.885   6.741   1.645  0.8626 -0.1333  2.7962
  480MOL0     H64797   0.456   6.205   1.409 -0.6127  0.9749  1.7693
  480MOL0     H64798   0.524   5.907   1.165 -0.4432 -2.0774  2.2003
  480MOL0     H64799   0.423   6.055   1.118 -2.7742  0.6900  1.7784
  480MOL0     H64800   0.566   6.083   1.210 -1.4552  0.6074 -0.2608
  481MOL0     O64801   3.903   3.565  10.447 -0.3739 -0.2057  0.6035
  481MOL0     C64802   3.893   3.620  10.338 -1.0141  0.5233  1.0470
  481MOL0     O64803   3.975   3.714  10.291 -0.0105  0.1484  0.0757
  481MOL0     C64804   4.079   3.766  10.362 -0.3594 -0.1420  0.4420
  481MOL0     C64805   4.193   3.803  10.293 -0.2129  0.3941 -0.4828
  481MOL0     C64806   4.296   3.878  10.352 -0.3617 -1.4030  0.0194
  481MOL0     C64807   4.290   3.920  10.488 -0.3886 -0.0920 -0.3113
  481MOL0     O64808   4.393   3.988  10.552 -0.0296  0.0680  0.3801
  481MOL0     C64809   4.501   4.042  10.470  0.3025 -0.4679 -0.1909
  481MOL0     C64810   4.586   4.138  10.540 -0.8007  0.4123 -0.5652
  481MOL0     C64811   4.668   4.077  10.655  0.2557  0.1099  0.5508
  481MOL0     C64812   4.788   4.165  10.701 -0.3982  0.3654  0.0876
  481MOL0     C64813   4.864   4.083  10.810  0.3735 -0.0989  0.6301
  481MOL0     C64814   4.967   4.168  10.879  0.4230 -0.7648 -0.8234
  481MOL0     C64815   5.110   4.160  10.813  0.0131  0.5622  0.4550
  481MOL0     C64816   5.202   4.263  10.878  0.7172 -0.3481  0.0615
  481MOL0     N64817   5.344   4.251  10.831  0.5332  0.9745 -1.0033
  481MOL0     C64818   5.407   4.133  10.787 -0.1371  0.3003 -0.0457
  481MOL0     C64819   5.533   4.172  10.759 -0.0905 -0.0196  0.4982
  481MOL0     C64820   5.649   4.081  10.710  0.6490  0.3098  0.0177
  481MOL0     C64821   5.703   3.992  10.829  0.6758 -0.0541  0.4013
  481MOL0     C64822   5.777   4.071  10.952  0.5761 -0.0027  0.0326
  481MOL0     C64823   5.897   4.153  10.904 -0.5752 -0.7767 -0.4090
  481MOL0     O64824   5.995   4.061  10.847 -0.4175  0.1573 -0.0827
  481MOL0     C64825   6.106   4.108  10.775  0.2599  0.1081  0.2338
  481MOL0     C64826   6.166   4.033  10.674 -0.2033 -0.1254 -0.4101
  481MOL0     C64827   6.293   4.068  10.626 -0.3705 -0.9114  0.0640
  481MOL0     C64828   6.349   4.201  10.658  0.5308  0.1439 -0.2150
  481MOL0     C64829   6.478   4.251  10.605 -0.3578 -0.1723  0.4868
  481MOL0     O64830   6.544   4.159  10.530  0.7302  0.0410 -0.9183
  481MOL0     C64831   6.660   4.185  10.464  0.0478 -0.5964  0.4540
  481MOL0     C64832   6.675   4.306  10.384 -1.0104  0.4012  0.1029
  481MOL0     C64833   6.804   4.336  10.341 -0.3114  0.4804  0.2438
  481MOL0     C64834   6.911   4.250  10.342 -0.9622 -0.3560 -0.5192
  481MOL0     O64835   7.035   4.274  10.287 -0.3849  0.1836 -0.9381
  481MOL0     C64836   7.036   4.368  10.183 -0.1154  0.2057 -0.0898
  481MOL0     C64837   7.166   4.366  10.121  0.2611 -0.7861  0.5317
  481MOL0     C64838   7.196   4.236  10.039 -0.1928 -0.4264  0.5772
  481MOL0     C64839   7.313   4.249   9.935  0.2599 -0.2984  1.3606
  481MOL0     C64840   7.453   4.229   9.986 -0.4959  0.0800  0.0464
  481MOL0     C64841   7.559   4.245   9.869 -0.1795 -0.1635  0.2429
  481MOL0     C64842   7.711   4.248   9.901 -0.3834 -1.0550 -0.1520
  481MOL0     C64843   7.786   4.263   9.757  0.1472 -0.9507 -0.7686
  481MOL0    Cl64844   7.959   4.281   9.790  0.1934  0.1096 -0.0080
  481MOL0     C64845   6.893   4.140  10.421  0.2505 -0.8823 -0.3016
  481MOL0     C64846   6.765   4.097  10.473 -0.3902 -0.7040 -0.3552
  481MOL0     O64847   6.525   4.360  10.628 -0.0804 -0.0822  0.0221
  481MOL0     C64848   6.284   4.281  10.754  0.1277  0.1167  0.1179
  481MOL0     C64849   6.167   4.231  10.812 -0.4803  0.1097  0.0113
  481MOL0     N64850   5.543   4.309  10.783  0.2001  0.0580  0.8791
  481MOL0     N64851   5.430   4.356  10.830 -0.6364  0.5886  0.7597
  481MOL0     C64852   4.175   3.877  10.565  0.2995 -0.3934 -0.4427
  481MOL0     C64853   4.069   3.813  10.491 -0.0028  0.8579 -1.2808
  481MOL0     C64854   3.778   3.580  10.250  0.0518  0.0249 -0.1101
  481MOL0     C64855   3.747   3.668  10.145 -0.4086 -0.3170 -1.4220
  481MOL0     C64856   3.645   3.649  10.054  0.4718 -0.0071 -0.0353
  481MOL0     C64857   3.561   3.539  10.077 -0.6999  0.2708 -0.3676
  481MOL0     O64858   3.450   3.516   9.999 -1.1567 -0.1676  0.6955
  481MOL0     C64859   3.409   3.608   9.901 -0.0804 -0.1730  0.1229
  481MOL0     C64860   3.262   3.579   9.886 -0.4147  0.6777  0.6251
  481MOL0     C64861   3.258   3.462   9.783  0.7832  0.5454 -0.0111
  481MOL0     C64862   3.118   3.395   9.801 -0.0888  0.0783 -0.5807
  481MOL0     C64863   3.092   3.309   9.682 -0.0376 -0.2116 -0.2101
  481MOL0     C64864   3.055   3.236   9.590 -0.3204  0.0757 -0.6532
  481MOL0     C64865   3.584   3.449  10.183 -0.5742 -0.6046  0.2093
  481MOL0     C64866   3.689   3.465  10.268 -1.0733 -0.1210  0.5278
  481MOL0     C64867   3.701   3.376  10.389  0.5428 -0.0976 -0.8127
  481MOL0     H64868   4.205   3.780  10.188  1.2410 -0.1088 -0.2232
  481MOL0     H64869   4.375   3.919  10.290 -0.2751 -1.5384  0.0393
  481MOL0     H64870   4.568   3.960  10.444  1.4850  0.7668 -1.2417
  481MOL0     H64871   4.467   4.088  10.376 -1.4364 -1.3838 -0.0583
  481MOL0     H64872   4.524   4.220  10.580  0.6932  1.4186 -0.2222
  481MOL0     H64873   4.655   4.179  10.467 -0.5783 -1.3332 -1.3805
  481MOL0     H64874   4.711   3.985  10.615 -0.0014  1.4647 -3.2454
  481MOL0     H64875   4.602   4.053  10.740 -0.9234  1.2723 -0.0017
  481MOL0     H64876   4.847   4.186  10.612 -0.3762  0.8209  0.2068
  481MOL0     H64877   4.763   4.265  10.738  2.2519  0.8932  0.6644
  481MOL0     H64878   4.787   4.062  10.884  1.9668  0.4194  2.5121
  481MOL0     H64879   4.903   3.986  10.776  1.7989 -0.7715  3.7739
  481MOL0     H64880   4.931   4.271  10.886 -0.8549 -1.2758  0.5602
  481MOL0     H64881   4.971   4.125  10.979  1.0059  2.1531  0.5148
  481MOL0     H64882   5.110   4.177  10.705  0.5691 -3.2860 -0.2783
  481MOL0     H64883   5.155   4.063  10.835  1.1150  0.7809 -0.6950
  481MOL0     H64884   5.162   4.364  10.863  3.6009  1.2487  1.9526
  481MOL0     H64885   5.203   4.242  10.986 -0.6648  1.3360  0.4451
  481MOL0     H64886   5.366   4.033  10.786 -2.6305  1.2309 -2.1591
  481MOL0     H64887   5.616   4.014  10.630  1.2479  1.4986 -1.2910
  481MOL0     H64888   5.722   4.148  10.663  0.9678  0.3771  0.6086
  481MOL0     H64889   5.618   3.929  10.858 -1.6244  2.8503  0.4021
  481MOL0     H64890   5.785   3.930  10.789  2.9546  0.5481  3.7659
  481MOL0     H64891   5.821   4.010  11.032  0.1150 -1.2177 -0.6195
  481MOL0     H64892   5.702   4.136  10.998  0.9024  0.2100  0.2727
  481MOL0     H64893   5.931   4.218  10.985 -0.5681 -0.3997 -0.7179
  481MOL0     H64894   5.875   4.220  10.821 -0.5863  0.3174  0.4497
  481MOL0     H64895   6.113   3.946  10.637  1.6227 -0.8271 -1.5253
  481MOL0     H64896   6.340   4.008  10.548  0.4610 -3.7168  2.5425
  481MOL0     H64897   6.585   4.365  10.368 -1.0296  1.1552  2.5371
  481MOL0     H64898   6.811   4.435  10.297 -0.7221  2.7049  4.6132
  481MOL0     H64899   6.968   4.352  10.099  2.1816  0.7100 -2.1541
  481MOL0     H64900   7.020   4.466  10.230  2.3391  0.9095 -0.5955
  481MOL0     H64901   7.163   4.454  10.056 -1.3399 -1.2238 -0.0074
  481MOL0     H64902   7.257   4.394  10.176  1.5112  1.4534 -2.3827
  481MOL0     H64903   7.217   4.150  10.103  3.0746  0.3129  0.6518
  481MOL0     H64904   7.107   4.214   9.978 -0.0814  0.7317 -0.0274
  481MOL0     H64905   7.308   4.343   9.879  1.8518 -0.4912  0.8341
  481MOL0     H64906   7.292   4.171   9.861  1.4402  1.3843 -0.8862
  481MOL0     H64907   7.460   4.126  10.023  0.4339  0.5797  1.3578
  481MOL0     H64908   7.479   4.294  10.069  1.8273 -2.7370  1.7254
  481MOL0     H64909   7.541   4.168   9.794 -1.4988  2.0202 -1.8167
  481MOL0     H64910   7.546   4.340   9.816  1.9963 -0.6723 -1.3878
  481MOL0     H64911   7.740   4.152   9.946 -1.1700 -0.7208  1.1084
  481MOL0     H64912   7.723   4.334   9.966 -1.1301 -1.3484  0.3910
  481MOL0     H64913   7.779   4.167   9.705  0.6604 -1.6436  0.3770
  481MOL0     H64914   7.740   4.345   9.702 -0.6828 -0.5212  0.5113
  481MOL0     H64915   6.985   4.088  10.444  0.7054  0.1985  0.3382
  481MOL0     H64916   6.756   4.000  10.521 -1.5094 -0.5129 -0.1514
  481MOL0     H64917   6.325   4.374  10.792  0.4645 -0.1623  0.4464
  481MOL0     H64918   6.109   4.290  10.882 -1.3126 -2.1320  1.3003
  481MOL0     H64919   4.156   3.900  10.669 -0.0030 -1.6724 -0.1924
  481MOL0     H64920   3.989   3.772  10.551  1.5971 -2.3649 -1.1656
  481MOL0     H64921   3.811   3.754  10.127  0.4285 -0.4015  0.8198
  481MOL0     H64922   3.625   3.729   9.984 -2.3292  0.8774  1.6381
  481MOL0     H64923   3.460   3.585   9.807  0.0649 -1.3570  0.4817
  481MOL0     H64924   3.416   3.712   9.935 -1.0024  0.6020 -1.8617
  481MOL0     H64925   3.220   3.665   9.832  3.3160  2.0857 -0.3650
  481MOL0     H64926   3.212   3.554   9.980 -1.6213  2.7291  0.6040
  481MOL0     H64927   3.337   3.390   9.803 -0.8754 -1.4265 -0.1981
  481MOL0     H64928   3.276   3.499   9.682  0.7590 -1.4647 -0.7974
  481MOL0     H64929   3.106   3.331   9.889 -1.6099  2.0994  0.8115
  481MOL0     H64930   3.036   3.465   9.823 -0.7016 -1.2788  1.8936
  481MOL0     H64931   3.020   3.171   9.512  2.8009  1.0550 -3.0668
  481MOL0     H64932   3.534   3.354  10.200  0.8245 -0.9869  2.6117
  481MOL0     H64933   3.618   3.306  10.398  1.4207 -1.1814 -0.8595
  481MOL0     H64934   3.792   3.315  10.385 -0.5489 -1.7873 -0.9103
  481MOL0     H64935   3.693   3.432  10.483 -0.4811 -2.0663  0.3518
  482MOL0     O64936   2.606   2.396  10.251 -0.5592 -0.2089  0.0576
  482MOL0     C64937   2.582   2.519  10.264 -0.4469 -0.2857 -0.5246
  482MOL0     O64938   2.677   2.624  10.263  0.5030 -0.3606 -0.6318
  482MOL0     C64939   2.799   2.606  10.210  0.7376  0.4536 -0.0851
  482MOL0     C64940   2.896   2.677  10.270  0.1365 -0.5986 -0.7952
  482MOL0     C64941   3.036   2.678  10.227  0.1217  1.1259  0.2938
  482MOL0     C64942   3.083   2.592  10.129  0.0200  1.3576 -0.3704
  482MOL0     O64943   3.216   2.578  10.082 -0.0472 -0.8632  0.3446
  482MOL0     C64944   3.321   2.650  10.161  0.3330  0.6480 -0.3405
  482MOL0     C64945   3.465   2.618  10.102  0.3068 -0.3219  0.6285
  482MOL0     C64946   3.511   2.473  10.135 -0.5908 -0.4677  0.1988
  482MOL0     C64947   3.475   2.367  10.031 -0.0690 -0.5650 -0.8696
  482MOL0     C64948   3.519   2.226  10.057  0.5480 -0.0651  0.4051
  482MOL0     C64949   3.667   2.201  10.043 -0.5529 -0.5068  0.3787
  482MOL0     C64950   3.711   2.062  10.089  0.6195  0.2532 -0.2106
  482MOL0     C64951   3.720   2.044  10.236 -0.1579  0.2110 -0.0941
  482MOL0     N64952   3.783   1.921  10.284  0.3794  0.2288 -0.0301
  482MOL0     C64953   3.767   1.878  10.411 -0.5956 -0.7242 -0.0077
  482MOL0     C64954   3.840   1.763  10.422 -0.0118  0.1460 -0.3306
  482MOL0     C64955   3.867   1.680  10.545  0.6179  0.0302 -0.1530
  482MOL0     C64956   3.988   1.744  10.631  0.1597  0.5228 -0.1782
  482MOL0     C64957   3.997   1.664  10.760 -0.0789  0.0421 -0.0429
  482MOL0     C64958   4.126   1.692  10.839  0.4580 -0.2847  0.0574
  482MOL0     O64959   4.133   1.831  10.865  0.6909 -0.0935  0.0973
  482MOL0     C64960   4.238   1.883  10.927 -0.4555  0.7942 -0.1109
  482MOL0     C64961   4.313   1.815  11.029  0.6420 -0.3657 -0.2480
  482MOL0     C64962   4.431   1.864  11.084 -0.4471 -0.1687 -0.0000
  482MOL0     C64963   4.477   1.989  11.050  0.4105  0.2739 -0.1023
  482MOL0     C64964   4.605   2.033  11.105 -0.0145  0.7658 -0.6976
  482MOL0     O64965   4.617   2.164  11.108  0.3230  0.1207 -0.2820
  482MOL0     C64966   4.733   2.229  11.128 -0.8951  0.1630  0.6977
  482MOL0     C64967   4.857   2.170  11.141 -0.0351  0.5198  0.0960
  482MOL0     C64968   4.968   2.241  11.174  0.1932  0.3583  0.0869
  482MOL0     C64969   4.960   2.378  11.183  0.4801 -0.2488  0.6370
  482MOL0     O64970   5.066   2.456  11.212 -0.8467 -0.2258  0.5772
  482MOL0     C64971   5.166   2.406  11.307  0.5434 -0.2623 -0.1263
  482MOL0     C64972   5.115   2.363  11.444 -0.0923 -0.3894  0.0523
  482MOL0     C64973   5.189   2.251  11.512 -0.1550 -0.5809 -0.9005
  482MOL0     C64974   5.337   2.282  11.553 -0.6387 -0.0165 -0.1879
  482MOL0     C64975   5.418   2.165  11.606 -0.2482  0.3095 -1.0347
  482MOL0     C64976   5.357   2.114  11.744  0.2950  0.3584 -0.5740
  482MOL0     C64977   5.382   2.209  11.860  0.4663  0.9388 -0.6114
  482MOL0     C64978   5.309   2.167  11.989  0.4402 -0.3426 -0.0882
  482MOL0    Cl64979   5.414   2.071  12.094  0.3071 -0.2456  0.1526
  482MOL0     C64980   4.836   2.442  11.165 -0.2551  0.6008  0.2857
  482MOL0     C64981   4.724   2.369  11.131  0.0411 -0.0288 -0.4436
  482MOL0     O64982   4.682   1.942  11.146  0.0430  0.3186 -0.2014
  482MOL0     C64983   4.395   2.062  10.961  0.0362 -1.0017 -0.9365
  482MOL0     C64984   4.278   2.012  10.908 -0.1495  0.9404  0.1370
  482MOL0     N64985   3.883   1.732  10.287  0.5192  0.1618 -0.1962
  482MOL0     N64986   3.846   1.829  10.209  0.7207 -0.6807 -0.1538
  482MOL0     C64987   2.985   2.510  10.074 -0.4853 -0.2402 -0.0390
  482MOL0     C64988   2.853   2.516  10.113 -0.1700 -0.0294 -0.2359
  482MOL0     C64989   2.445   2.559  10.278  0.5217  0.0851  0.2115
  482MOL0     C64990   2.388   2.650  10.194 -0.4698  0.0015  0.0308
  482MOL0     C64991   2.258   2.694  10.199  0.1433 -0.1808  0.5964
  482MOL0     C64992   2.172   2.647  10.302 -0.5040  0.0796  0.5665
  482MOL0     O64993   2.042   2.694  10.323  0.4157  1.4421 -0.4795
  482MOL0     C64994   2.003   2.816  10.263  0.9865  0.4611  0.5423
  482MOL0     C64995   1.881   2.885  10.325 -0.0745  0.0004 -0.3955
  482MOL0     C64996   1.843   3.007  10.247 -0.1410 -0.0247  0.7549
  482MOL0     C64997   1.767   3.117  10.331 -0.1525  0.8721  0.3926
  482MOL0     C64998   1.633   3.062  10.351  0.3829  0.3053 -0.0695
  482MOL0     C64999   1.528   3.008  10.382  0.3196 -0.4243  0.1050
  482MOL0     C65000   2.230   2.558  10.395 -0.0555 -0.1859  0.4081
  482MOL0     C65001   2.366   2.518  10.388  0.2075  0.8150 -0.0625
  482MOL0     C65002   2.409   2.413  10.492 -0.4855  0.5481 -0.2693
  482MOL0     H65003   2.863   2.742  10.351 -0.4406  0.7051 -2.0356
  482MOL0     H65004   3.103   2.746  10.279  2.4391 -0.8358  0.0129
  482MOL0     H65005   3.303   2.758  10.159  0.8932  0.7351 -0.7934
  482MOL0     H65006   3.313   2.639  10.270 -2.6130  1.3009 -0.4061
  482MOL0     H65007   3.524   2.699  10.145 -1.0292  2.2223 -1.9638
  482MOL0     H65008   3.458   2.631   9.993 -2.7516  1.5323  0.9388
  482MOL0     H65009   3.464   2.445  10.229 -0.8905  0.2876  0.2725
  482MOL0     H65010   3.619   2.472  10.155 -0.6557 -0.2971  0.5622
  482MOL0     H65011   3.366   2.372  10.022 -0.0646  0.5365 -0.4619
  482MOL0     H65012   3.514   2.389   9.931 -0.0958  0.8271 -0.5924
  482MOL0     H65013   3.501   2.199  10.161  0.1854 -3.5268 -0.4439
  482MOL0     H65014   3.463   2.161   9.988  0.9068 -1.4859  1.4147
  482MOL0     H65015   3.681   2.204   9.935 -1.4734 -0.9958  0.2289
  482MOL0     H65016   3.717   2.289  10.084  3.1881 -1.5958 -1.3902
  482MOL0     H65017   3.804   2.038  10.037 -0.8795 -1.7802 -2.1565
  482MOL0     H65018   3.638   1.984  10.064 -0.7331  0.7976  1.8349
  482MOL0     H65019   3.787   2.126  10.263 -0.7834  0.5611  0.4443
  482MOL0     H65020   3.625   2.051  10.292  1.1064  0.6673  2.1326
  482MOL0     H65021   3.717   1.923  10.496 -2.1794  0.2575 -1.4097
  482MOL0     H65022   3.771   1.669  10.597  1.3202 -2.6999  0.7571
  482MOL0     H65023   3.887   1.573  10.532  0.4202 -0.4321  2.6044
  482MOL0     H65024   4.080   1.727  10.574  0.2782  2.8584 -0.8012
  482MOL0     H65025   3.983   1.852  10.646 -0.3163  0.8535 -2.3304
  482MOL0     H65026   4.003   1.555  10.748  2.7402  0.2177 -1.0327
  482MOL0     H65027   3.913   1.681  10.828 -1.2598  2.3750 -1.9718
  482MOL0     H65028   4.212   1.659  10.779  0.4240  0.6878 -0.5539
  482MOL0     H65029   4.128   1.630  10.929 -0.7692 -2.8804 -1.5869
  482MOL0     H65030   4.269   1.725  11.070 -1.4137  0.9611  0.6386
  482MOL0     H65031   4.483   1.798  11.153  2.6286  1.1251 -0.9011
  482MOL0     H65032   4.867   2.064  11.117 -1.3006  0.3412  0.2827
  482MOL0     H65033   5.057   2.183  11.199  1.0371  1.8071  0.6200
  482MOL0     H65034   5.211   2.317  11.262 -1.0252 -1.1820  0.0444
  482MOL0     H65035   5.249   2.475  11.326  0.7181 -0.6883  0.7576
  482MOL0     H65036   5.114   2.451  11.509  2.9816 -1.6601  2.0830
  482MOL0     H65037   5.010   2.335  11.430 -0.6552  0.4580  2.2242
  482MOL0     H65038   5.130   2.232  11.603  0.1697  1.2368 -0.2721
  482MOL0     H65039   5.179   2.156  11.458 -0.6558 -0.4943 -0.9671
  482MOL0     H65040   5.343   2.363  11.626 -0.5232  2.0099 -2.3136
  482MOL0     H65041   5.398   2.312  11.467  0.9792  0.0726  0.9505
  482MOL0     H65042   5.524   2.184  11.627 -0.6926  0.0695  1.8051
  482MOL0     H65043   5.421   2.081  11.535 -1.5134  1.0819 -2.0426
  482MOL0     H65044   5.251   2.094  11.728  0.5075 -1.7849  0.2645
  482MOL0     H65045   5.401   2.019  11.777 -1.6210  0.0040  1.1864
  482MOL0     H65046   5.346   2.308  11.831  0.1586  1.0147  0.0238
  482MOL0     H65047   5.488   2.215  11.886  0.1165  1.4895  0.7892
  482MOL0     H65048   5.281   2.262  12.037 -1.9107 -0.2893 -1.4269
  482MOL0     H65049   5.217   2.111  11.973 -0.0075 -0.0673  1.3059
  482MOL0     H65050   4.823   2.549  11.180 -1.1955  0.5476 -0.0669
  482MOL0     H65051   4.624   2.412  11.130 -0.4899 -1.2026  0.0809
  482MOL0     H65052   4.415   2.165  10.933 -2.0222 -0.4796 -0.6562
  482MOL0     H65053   4.231   2.065  10.826 -2.2553 -0.2437  0.5169
  482MOL0     H65054   3.001   2.440   9.993  0.7128  0.9792 -0.9013
  482MOL0     H65055   2.782   2.446  10.070  0.3094 -1.5123  1.2826
  482MOL0     H65056   2.454   2.670  10.109 -1.3252 -2.0495 -1.1782
  482MOL0     H65057   2.231   2.774  10.131  0.6791  0.3060  0.9454
  482MOL0     H65058   1.991   2.795  10.156 -0.1344 -0.4606  0.8315
  482MOL0     H65059   2.082   2.891  10.270 -0.0983  2.2703 -3.3585
  482MOL0     H65060   1.905   2.914  10.427  1.6920 -0.5197 -0.6184
  482MOL0     H65061   1.795   2.819  10.312  0.2671 -0.4141 -0.6157
  482MOL0     H65062   1.782   2.984  10.159  1.5555  1.8265 -0.9926
  482MOL0     H65063   1.929   3.055  10.200 -1.3836  0.5606 -1.0396
  482MOL0     H65064   1.821   3.135  10.425 -1.9510 -1.5095  2.0308
  482MOL0     H65065   1.765   3.215  10.283 -0.5079  0.0205 -1.4177
  482MOL0     H65066   1.433   2.967  10.411  0.9053 -1.3026  0.8370
  482MOL0     H65067   2.160   2.508  10.461 -1.5421  1.1295 -0.0793
  482MOL0     H65068   2.412   2.310  10.453 -1.3841 -0.3166  1.7912
  482MOL0     H65069   2.505   2.441  10.537 -0.3368  1.2478 -0.9968
  482MOL0     H65070   2.338   2.406  10.575  0.3952  1.5227  0.5891
  483MOL0     O65071   8.990   7.775   1.272  0.2713 -0.2690  0.5319
  483MOL0     C65072   8.915   7.855   1.322 -0.2958 -0.1896 -0.3868
  483MOL0     O65073   8.944   7.944   1.424 -0.0922  0.8439  0.2247
  483MOL0     C65074   9.068   7.932   1.478  0.1745 -0.1689 -0.4200
  483MOL0     C65075   9.081   7.945   1.618  0.1811  1.2632  0.1649
  483MOL0     C65076   9.208   7.934   1.683 -0.8220 -0.4136 -0.6641
  483MOL0     C65077   9.324   7.911   1.609  0.0253  0.3328  0.2345
  483MOL0     O65078   9.452   7.883   1.667  0.0575  0.6127 -0.5167
  483MOL0     C65079   9.458   7.768   1.758  0.7721 -0.7404 -0.5806
  483MOL0     C65080   9.509   7.814   1.899 -0.1218 -0.5937  0.0369
  483MOL0     C65081   9.649   7.869   1.884 -1.2736  0.0042 -0.1994
  483MOL0     C65082   9.716   7.923   2.018 -0.0699 -0.0354 -0.6159
  483MOL0     C65083   9.856   7.970   1.994  0.5740 -0.5139  0.4387
  483MOL0     C65084   9.920   8.038   2.126 -0.0357  0.7537 -0.2549
  483MOL0     C65085  10.065   8.075   2.083 -0.1243 -0.2404 -0.0341
  483MOL0     C65086  10.145   8.126   2.208 -0.1130  0.3340  0.8184
  483MOL0     N65087  10.278   8.188   2.177 -0.2693  0.0294 -0.1724
  483MOL0     C65088  10.304   8.326   2.178 -0.1061 -0.3712  0.5504
  483MOL0     C65089  10.436   8.339   2.148 -0.1159  0.1798 -0.1436
  483MOL0     C65090  10.500   8.473   2.153  0.2785  0.0834 -0.5004
  483MOL0     C65091  10.651   8.466   2.167 -0.0439 -0.2814 -0.5769
  483MOL0     C65092  10.698   8.612   2.172  0.4761  0.0473  0.4703
  483MOL0     C65093  10.852   8.615   2.163 -0.0347 -0.3197  0.3648
  483MOL0     O65094  10.903   8.736   2.116 -0.7573 -0.3626  0.7163
  483MOL0     C65095  11.041   8.757   2.104  0.4658  0.0074 -0.6549
  483MOL0     C65096  11.067   8.872   2.029 -0.0904  0.5903  0.2914
  483MOL0     C65097  11.202   8.903   2.003 -0.7524 -1.7654 -0.5271
  483MOL0     C65098  11.309   8.828   2.056 -0.0408  0.2171 -0.5400
  483MOL0     C65099  11.445   8.844   2.018 -0.1306  0.5396 -0.4475
  483MOL0     O65100  11.473   8.951   1.931 -0.2552 -0.3186 -0.1517
  483MOL0     C65101  11.609   8.951   1.895 -0.6603  0.0349  0.1124
  483MOL0     C65102  11.651   8.923   1.765  0.2505  0.0544 -0.1941
  483MOL0     C65103  11.791   8.935   1.741  0.0802 -0.3963 -1.0781
  483MOL0     C65104  11.885   8.989   1.827 -0.4010  0.3230 -1.2701
  483MOL0     O65105  12.017   8.987   1.791 -0.2787  0.5328 -0.6241
  483MOL0     C65106  12.104   9.081   1.853 -0.4298  0.0828  0.2777
  483MOL0     C65107  12.215   8.999   1.934  0.1059 -0.0901 -0.4364
  483MOL0     C65108  12.320   9.087   1.988 -1.0567 -0.5523  0.6774
  483MOL0     C65109  12.410   9.016   2.086  0.4021  0.6462 -0.6924
  483MOL0     C65110  12.514   9.106   2.148  0.2227 -0.5405  0.5134
  483MOL0     C65111  12.595   9.027   2.248  0.8035 -0.0218 -0.0926
  483MOL0     C65112  12.695   9.119   2.310  0.3925  0.5391  0.4879
  483MOL0     C65113  12.636   9.183   2.429 -0.1789  1.0481  0.6581
  483MOL0    Cl65114  12.757   9.270   2.511 -0.4402  0.1864  0.4842
  483MOL0     C65115  11.833   9.025   1.956  0.2215 -0.4064  1.0493
  483MOL0     C65116  11.697   9.003   1.984 -0.5129  0.4495  0.0220
  483MOL0     O65117  11.525   8.761   2.058  0.1170 -0.0521  0.0093
  483MOL0     C65118  11.273   8.717   2.126  0.5885  1.0477 -0.5186
  483MOL0     C65119  11.141   8.683   2.160 -0.4777 -0.7311 -0.5230
  483MOL0     N65120  10.487   8.208   2.127 -0.0266 -0.5679 -0.5858
  483MOL0     N65121  10.394   8.123   2.153 -0.0019 -0.2947  0.2305
  483MOL0     C65122   9.319   7.906   1.475  0.0970  0.1016  0.5527
  483MOL0     C65123   9.192   7.929   1.404 -0.5155  0.1749  0.0587
  483MOL0     C65124   8.775   7.878   1.278  0.2669  0.5165  0.1032
  483MOL0     C65125   8.691   7.953   1.358  0.6607 -0.4897 -0.4839
  483MOL0     C65126   8.551   7.975   1.326 -0.0241  0.0135 -0.3441
  483MOL0     C65127   8.508   7.923   1.206  0.0538  0.1374 -0.2571
  483MOL0     O65128   8.377   7.941   1.171  0.6556  0.2756 -0.0160
  483MOL0     C65129   8.278   7.988   1.267 -0.6275  0.0939  0.3049
  483MOL0     C65130   8.137   7.942   1.238  0.4552 -0.2396  0.3503
  483MOL0     C65131   8.089   8.012   1.103 -0.2183 -0.1727  0.3248
  483MOL0     C65132   7.959   7.959   1.048 -0.1602 -0.4873 -0.8260
  483MOL0     C65133   7.980   7.824   0.990  0.1011 -0.2086 -0.0608
  483MOL0     C65134   8.026   7.714   0.968  0.2318 -0.2748 -0.0137
  483MOL0     C65135   8.586   7.860   1.120  0.8008  0.0389 -0.5816
  483MOL0     C65136   8.723   7.830   1.150  0.8414 -0.4011 -1.0987
  483MOL0     C65137   8.809   7.754   1.055  0.1815 -0.3411  0.4027
  483MOL0     H65138   8.983   7.941   1.665 -1.1093 -1.5281 -2.4027
  483MOL0     H65139   9.212   7.940   1.791 -1.9560 -1.2330 -0.5484
  483MOL0     H65140   9.361   7.725   1.786  1.0245  0.0236  1.7692
  483MOL0     H65141   9.516   7.687   1.714 -0.2038 -1.2433 -0.9737
  483MOL0     H65142   9.511   7.724   1.960 -0.3103  0.4350  1.6187
  483MOL0     H65143   9.443   7.892   1.939  1.5982  1.0113 -0.1610
  483MOL0     H65144   9.639   7.958   1.821 -0.8769 -0.0408 -0.3299
  483MOL0     H65145   9.716   7.793   1.843 -0.4691  0.0937  0.8763
  483MOL0     H65146   9.669   8.015   2.055  1.2385 -0.7644  3.3759
  483MOL0     H65147   9.713   7.859   2.107 -0.4451  1.6960  0.6715
  483MOL0     H65148   9.909   7.882   1.957  1.0880  1.0126 -2.8399
  483MOL0     H65149   9.848   8.040   1.910 -1.8981 -2.0587 -0.7200
  483MOL0     H65150   9.861   8.125   2.156 -1.7521 -0.4048 -0.1470
  483MOL0     H65151   9.922   7.975   2.215  0.7351  2.6772  1.1586
  483MOL0     H65152  10.062   8.147   2.001  2.6040  0.3976  0.3258
  483MOL0     H65153  10.108   7.978   2.053  0.2811 -0.4965  1.3123
  483MOL0     H65154  10.090   8.204   2.262  1.1113  0.9173  1.2641
  483MOL0     H65155  10.165   8.043   2.277  0.6519  0.2257  0.4765
  483MOL0     H65156  10.234   8.404   2.208  0.0665  0.1278 -0.2909
  483MOL0     H65157  10.473   8.518   2.057 -3.4268 -0.2448  0.2185
  483MOL0     H65158  10.460   8.530   2.237  2.5264 -1.0433  1.4541
  483MOL0     H65159  10.695   8.423   2.258  0.2254  1.8428  0.3647
  483MOL0     H65160  10.699   8.435   2.074 -0.7628  1.2312 -1.4768
  483MOL0     H65161  10.659   8.674   2.254 -1.3688  1.5361 -1.4303
  483MOL0     H65162  10.655   8.666   2.088  2.1751  3.1011  1.3897
  483MOL0     H65163  10.879   8.546   2.083 -3.0167  1.2265 -2.1475
  483MOL0     H65164  10.892   8.594   2.263 -0.8063 -0.3551  0.6679
  483MOL0     H65165  10.984   8.921   1.979  0.6209  0.9278 -0.5785
  483MOL0     H65166  11.221   8.994   1.947  3.1158 -1.5120  0.8945
  483MOL0     H65167  11.584   8.889   1.687  0.5189 -0.7922 -0.0656
  483MOL0     H65168  11.832   8.886   1.653  0.6796 -1.1459 -0.3982
  483MOL0     H65169  12.164   9.137   1.781 -0.1820  0.9822  1.1615
  483MOL0     H65170  12.063   9.161   1.915  0.6968  2.8002 -2.2433
  483MOL0     H65171  12.161   8.951   2.016 -2.8302  3.2323 -0.1558
  483MOL0     H65172  12.266   8.922   1.876  0.4251  1.6185 -2.5682
  483MOL0     H65173  12.371   9.124   1.899  1.0715 -0.3976  1.8957
  483MOL0     H65174  12.279   9.176   2.036  0.4132 -0.0274  1.0149
  483MOL0     H65175  12.468   8.937   2.038 -2.7896 -2.6002  0.3365
  483MOL0     H65176  12.343   8.977   2.164 -0.7912 -0.0158 -1.9970
  483MOL0     H65177  12.476   9.194   2.201 -0.2220  0.3505 -1.2191
  483MOL0     H65178  12.580   9.143   2.069 -0.7957  0.8407  0.2658
  483MOL0     H65179  12.528   8.982   2.322 -0.3547 -0.2130 -1.2138
  483MOL0     H65180  12.650   8.952   2.191  3.0171  1.4427 -0.0168
  483MOL0     H65181  12.731   9.192   2.237  1.1619 -1.1735 -0.9321
  483MOL0     H65182  12.776   9.052   2.342  0.3122 -0.2126 -0.8149
  483MOL0     H65183  12.553   9.250   2.402  0.1969  2.4065  2.6644
  483MOL0     H65184  12.602   9.103   2.496  0.5432  1.2453  1.2657
  483MOL0     H65185  11.905   9.062   2.027  2.5543 -0.3624 -1.1773
  483MOL0     H65186  11.647   9.041   2.072  0.3396  2.7803 -0.4255
  483MOL0     H65187  11.346   8.645   2.164  1.1253  0.8633 -1.8232
  483MOL0     H65188  11.121   8.588   2.208  1.1811 -1.9547 -2.0908
  483MOL0     H65189   9.410   7.882   1.421 -0.3646  0.8068 -0.5698
  483MOL0     H65190   9.197   7.939   1.296 -0.5059 -2.1522 -0.2278
  483MOL0     H65191   8.726   7.992   1.453  0.8370 -0.0851 -0.7117
  483MOL0     H65192   8.502   8.037   1.401  2.6887  1.3306  0.4790
  483MOL0     H65193   8.288   8.097   1.275  2.5029  0.0964 -1.9993
  483MOL0     H65194   8.291   7.947   1.367  0.1547  2.1358  1.0929
  483MOL0     H65195   8.071   7.959   1.324 -1.1676  2.6830 -1.3023
  483MOL0     H65196   8.131   7.834   1.224 -3.3949  0.0398 -1.2384
  483MOL0     H65197   8.159   8.017   1.019 -1.8993  3.5899 -1.1097
  483MOL0     H65198   8.075   8.117   1.132 -0.9960 -0.0305 -0.5248
  483MOL0     H65199   7.890   7.953   1.133  1.0605 -0.8243  0.1858
  483MOL0     H65200   7.919   8.037   0.984  2.5580  0.9221 -0.9722
  483MOL0     H65201   8.048   7.612   0.946 -0.8183 -0.8294  1.3113
  483MOL0     H65202   8.551   7.814   1.028  0.5965  0.0480 -0.5088
  483MOL0     H65203   8.842   7.659   1.097 -0.6127 -1.8215 -2.1227
  483MOL0     H65204   8.763   7.725   0.961  1.3653  0.5210 -0.4711
  483MOL0     H65205   8.904   7.807   1.040  1.8900 -2.7034  2.0307
  484MOL0     O65206   6.128   1.773   1.565 -0.3337 -0.2863  0.5545
  484MOL0     C65207   6.089   1.775   1.443  0.2162  0.0700 -0.3655
  484MOL0     O65208   6.168   1.795   1.334 -0.5225 -0.5366  0.2691
  484MOL0     C65209   6.284   1.865   1.348  0.1041 -0.0167  0.0710
  484MOL0     C65210   6.280   2.001   1.361  0.4252  0.9112  1.2736
  484MOL0     C65211   6.391   2.078   1.373  0.3437 -0.2803  0.0954
  484MOL0     C65212   6.520   2.025   1.363  0.7190  0.1311  0.3374
  484MOL0     O65213   6.636   2.098   1.366 -0.5150  0.0127  0.5638
  484MOL0     C65214   6.628   2.244   1.387 -0.1124 -0.9322  0.6179
  484MOL0     C65215   6.752   2.318   1.345 -0.2100  0.7183  0.5258
  484MOL0     C65216   6.885   2.258   1.396 -0.5752 -0.3563  0.1289
  484MOL0     C65217   6.997   2.359   1.363 -0.2247  0.3188 -0.5573
  484MOL0     C65218   7.134   2.289   1.418  0.3337 -0.7401 -0.0212
  484MOL0     C65219   7.249   2.362   1.358 -0.2010 -0.7185 -0.3792
  484MOL0     C65220   7.388   2.287   1.372 -0.4157  0.1764  0.1010
  484MOL0     C65221   7.496   2.366   1.296 -0.0551 -0.0998  0.8091
  484MOL0     N65222   7.619   2.286   1.280  0.6922 -0.3910 -0.0106
  484MOL0     C65223   7.677   2.196   1.366 -0.3592 -0.0841 -0.4402
  484MOL0     C65224   7.804   2.178   1.321  0.5522  0.0589 -0.5882
  484MOL0     C65225   7.911   2.106   1.392 -0.3896  0.1152 -0.7666
  484MOL0     C65226   8.005   2.025   1.304  0.6295 -0.8911  0.7752
  484MOL0     C65227   8.083   1.926   1.394  0.1158 -0.5667  0.0412
  484MOL0     C65228   8.209   1.863   1.320 -0.1680 -0.4978 -0.4491
  484MOL0     O65229   8.279   1.783   1.422  0.2282 -0.7843  0.2432
  484MOL0     C65230   8.416   1.758   1.401 -0.6008  0.4151  0.8629
  484MOL0     C65231   8.487   1.684   1.496  0.2843  0.1463 -0.6536
  484MOL0     C65232   8.618   1.657   1.483 -0.2426 -1.1660  0.2617
  484MOL0     C65233   8.680   1.691   1.363  0.2901  0.1770  1.3694
  484MOL0     C65234   8.825   1.661   1.353 -0.1193 -0.0703 -0.4536
  484MOL0     O65235   8.877   1.573   1.446  0.1239 -0.1101 -0.4104
  484MOL0     C65236   9.001   1.532   1.425 -0.7647  0.1837  1.2122
  484MOL0     C65237   9.024   1.398   1.389 -0.1140 -0.0219 -0.7355
  484MOL0     C65238   9.150   1.352   1.354  0.6346  0.3462  0.6898
  484MOL0     C65239   9.261   1.435   1.357  0.5521 -0.2941 -0.3159
  484MOL0     O65240   9.384   1.393   1.306  0.4604 -0.1265  0.2596
  484MOL0     C65241   9.425   1.256   1.319  0.9625 -0.4048 -0.2831
  484MOL0     C65242   9.574   1.245   1.301  1.2422 -0.1884  0.2768
  484MOL0     C65243   9.624   1.326   1.183 -0.5516  0.7352 -1.0814
  484MOL0     C65244   9.765   1.280   1.138 -0.6158 -0.6792  0.6055
  484MOL0     C65245   9.764   1.139   1.059 -0.4184  1.0391 -0.2691
  484MOL0     C65246   9.898   1.090   1.015 -0.2685  0.0353  0.5385
  484MOL0     C65247   9.961   1.174   0.894  0.1117 -0.7199 -0.7684
  484MOL0     C65248  10.073   1.089   0.834  0.5135 -0.0407 -0.3866
  484MOL0    Cl65249  10.185   1.174   0.716 -0.0599  0.2912  0.2569
  484MOL0     C65250   9.248   1.559   1.408 -0.5278 -0.5882  0.3257
  484MOL0     C65251   9.119   1.610   1.437 -0.0937  0.1647  0.0056
  484MOL0     O65252   8.885   1.694   1.255  0.0052  0.5027 -0.4943
  484MOL0     C65253   8.605   1.760   1.258 -0.3576  0.3610  0.1386
  484MOL0     C65254   8.479   1.792   1.280 -0.7114  0.2871 -0.2089
  484MOL0     N65255   7.817   2.255   1.210 -0.7540 -0.6829 -0.0820
  484MOL0     N65256   7.706   2.314   1.186 -0.2571  0.0282 -0.1972
  484MOL0     C65257   6.523   1.885   1.347  0.0188 -0.1405  0.6706
  484MOL0     C65258   6.412   1.801   1.343 -0.1083  0.2119 -0.1922
  484MOL0     C65259   5.945   1.756   1.409  0.1468  0.2172  0.5096
  484MOL0     C65260   5.903   1.757   1.272  0.0433 -0.4923  0.3062
  484MOL0     C65261   5.763   1.754   1.231  0.4841 -0.5872  0.4851
  484MOL0     C65262   5.665   1.745   1.330  0.0752 -0.4529 -0.6862
  484MOL0     O65263   5.533   1.742   1.298  0.1715 -0.6771  0.0758
  484MOL0     C65264   5.488   1.693   1.170 -0.2011  0.0797  0.0593
  484MOL0     C65265   5.334   1.685   1.176 -0.2717  0.0067 -0.0681
  484MOL0     C65266   5.252   1.810   1.192  0.0922 -0.3658 -0.2633
  484MOL0     C65267   5.267   1.897   1.068  0.4282  0.2167  0.4641
  484MOL0     C65268   5.220   2.039   1.089  0.1495  0.1811 -0.0630
  484MOL0     C65269   5.201   2.153   1.110  0.1100 -0.0961  0.4607
  484MOL0     C65270   5.702   1.742   1.462 -0.3921  0.8363  0.2768
  484MOL0     C65271   5.836   1.750   1.501 -0.3053 -0.1421  0.5167
  484MOL0     C65272   5.854   1.758   1.654  0.2146 -0.3780  0.7148
  484MOL0     H65273   6.182   2.045   1.371  0.0670  0.3860  0.2778
  484MOL0     H65274   6.364   2.181   1.394  0.8873 -0.4479  1.7549
  484MOL0     H65275   6.545   2.278   1.325 -0.6616  0.1454  1.8890
  484MOL0     H65276   6.617   2.269   1.493 -1.1890 -1.4463  0.6417
  484MOL0     H65277   6.735   2.421   1.375 -0.0177  1.2307 -1.0300
  484MOL0     H65278   6.747   2.312   1.235  0.6681  3.7587  0.2357
  484MOL0     H65279   6.900   2.166   1.338 -1.3855 -0.2669 -0.2281
  484MOL0     H65280   6.867   2.250   1.504 -0.4310  3.0676  0.4886
  484MOL0     H65281   7.013   2.369   1.255 -1.0071 -0.0376 -0.7187
  484MOL0     H65282   6.986   2.459   1.404  0.8380  0.7318 -1.2424
  484MOL0     H65283   7.133   2.294   1.527  2.6033  0.5774 -0.0102
  484MOL0     H65284   7.146   2.182   1.398  2.8435 -0.7091  0.9648
  484MOL0     H65285   7.240   2.383   1.251  4.1956 -0.8001 -0.9392
  484MOL0     H65286   7.267   2.459   1.405  1.7518 -0.7621 -0.9363
  484MOL0     H65287   7.376   2.188   1.328 -0.5435  0.5220 -0.6661
  484MOL0     H65288   7.414   2.288   1.478 -0.8411  2.0844  0.2213
  484MOL0     H65289   7.459   2.384   1.194 -3.4315 -1.2573  1.6873
  484MOL0     H65290   7.519   2.461   1.345  0.1058 -0.0238  0.5871
  484MOL0     H65291   7.631   2.159   1.457  0.3507  1.9008  0.7942
  484MOL0     H65292   7.976   2.178   1.444  0.9720 -2.4776  1.3537
  484MOL0     H65293   7.867   2.040   1.466  0.5135 -0.3885 -0.6606
  484MOL0     H65294   7.944   1.963   1.238  1.6456  0.8678 -2.0160
  484MOL0     H65295   8.070   2.091   1.245 -1.2050  1.4530  1.2319
  484MOL0     H65296   8.012   1.850   1.429 -0.2013 -0.2103  0.1766
  484MOL0     H65297   8.120   1.989   1.476 -0.2211  1.8954 -1.5861
  484MOL0     H65298   8.276   1.944   1.288 -0.1405 -1.0944 -1.9632
  484MOL0     H65299   8.183   1.794   1.240 -0.9978 -1.8132  0.8982
  484MOL0     H65300   8.444   1.656   1.591  0.3535  0.8630 -0.4043
  484MOL0     H65301   8.668   1.600   1.560  0.9374 -3.1297 -1.8132
  484MOL0     H65302   8.941   1.329   1.386  0.6561 -1.1563  1.5817
  484MOL0     H65303   9.160   1.251   1.314 -2.4146  0.4622 -0.6028
  484MOL0     H65304   9.396   1.213   1.416 -1.5934 -0.7057 -1.1076
  484MOL0     H65305   9.394   1.187   1.239  1.7398 -0.1061 -0.8538
  484MOL0     H65306   9.621   1.275   1.396 -0.1565 -2.3794  1.7647
  484MOL0     H65307   9.615   1.144   1.285  1.6645  0.1081 -0.5540
  484MOL0     H65308   9.565   1.319   1.091 -1.3492 -1.2426 -0.4824
  484MOL0     H65309   9.634   1.432   1.210  1.4635 -0.1011  1.9079
  484MOL0     H65310   9.844   1.271   1.213 -1.2430 -3.0336  1.0798
  484MOL0     H65311   9.810   1.350   1.068  1.5538 -1.9693  0.6285
  484MOL0     H65312   9.697   1.145   0.973  2.2637  1.4716 -2.4742
  484MOL0     H65313   9.728   1.060   1.126  1.6812 -1.5525 -1.9902
  484MOL0     H65314   9.968   1.083   1.099  0.9229  0.3660 -0.3973
  484MOL0     H65315   9.888   0.983   0.994 -1.7176  0.2352  0.1238
  484MOL0     H65316   9.996   1.275   0.919 -2.8329  0.4990 -1.1562
  484MOL0     H65317   9.886   1.192   0.815 -1.0566 -1.8214  0.0534
  484MOL0     H65318  10.132   1.046   0.915  1.7477  1.9130 -0.1875
  484MOL0     H65319  10.034   1.012   0.766  3.1611 -2.0613  0.2593
  484MOL0     H65320   9.332   1.626   1.417 -0.2797 -0.9185  0.5070
  484MOL0     H65321   9.106   1.714   1.466 -0.9580  0.5419 -1.6073
  484MOL0     H65322   8.646   1.781   1.160 -3.2802 -4.1665 -2.4185
  484MOL0     H65323   8.431   1.837   1.193 -2.0685 -0.8362 -0.0795
  484MOL0     H65324   6.620   1.837   1.344 -0.2727 -0.7059 -1.3413
  484MOL0     H65325   6.418   1.692   1.343  0.3832  0.2127  1.1196
  484MOL0     H65326   5.973   1.776   1.191  0.5199 -2.0184  0.3291
  484MOL0     H65327   5.739   1.763   1.125 -0.7473  0.8611  0.8579
  484MOL0     H65328   5.539   1.599   1.147  1.2050  1.0892 -1.0929
  484MOL0     H65329   5.504   1.769   1.093 -2.2954 -0.5929 -1.1154
  484MOL0     H65330   5.319   1.620   1.263  2.8606 -1.9043 -0.7786
  484MOL0     H65331   5.303   1.627   1.089  0.1593  0.1261 -0.3068
  484MOL0     H65332   5.291   1.857   1.282 -0.4493  3.4026 -1.8136
  484MOL0     H65333   5.152   1.779   1.224  1.1164 -0.7940  2.8017
  484MOL0     H65334   5.372   1.907   1.039 -0.4339  1.8358 -2.5710
  484MOL0     H65335   5.202   1.850   0.993 -2.4880  0.6572  2.5676
  484MOL0     H65336   5.201   2.255   1.141  0.2827 -0.5442  2.0187
  484MOL0     H65337   5.632   1.722   1.542  0.6257  5.5391  2.6930
  484MOL0     H65338   5.919   1.674   1.681  0.5604 -0.5097 -0.4288
  484MOL0     H65339   5.902   1.853   1.680  0.7678 -0.1877 -0.8321
  484MOL0     H65340   5.762   1.747   1.712 -1.2083 -3.4929 -1.8186
  485MOL0     O65341  10.899   6.201   2.154 -0.6319  0.1927  0.5019
  485MOL0     C65342  10.914   6.144   2.048 -0.1528  0.0987  0.0054
  485MOL0     O65343  11.023   6.162   1.969  0.1076  0.2713  0.4953
  485MOL0     C65344  11.125   6.249   2.017  0.2207  0.2171  1.0810
  485MOL0     C65345  11.109   6.386   2.044  0.0288 -0.8264 -0.4789
  485MOL0     C65346  11.216   6.467   2.082 -0.6317  0.0076 -0.9140
  485MOL0     C65347  11.337   6.406   2.117  0.9871  0.0532 -0.6327
  485MOL0     O65348  11.428   6.487   2.170 -1.1088 -0.3381  0.2535
  485MOL0     C65349  11.521   6.430   2.267  0.6420 -0.4272  0.6744
  485MOL0     C65350  11.640   6.376   2.197  0.3537  0.3598  0.3141
  485MOL0     C65351  11.744   6.493   2.190 -0.0087  0.0119  0.1079
  485MOL0     C65352  11.861   6.467   2.091 -0.3044  0.6723  0.9233
  485MOL0     C65353  11.970   6.572   2.113 -0.8318  0.5891  0.9095
  485MOL0     C65354  12.095   6.559   2.026  0.2916 -0.1449 -0.4264
  485MOL0     C65355  12.187   6.691   2.045 -0.0269  0.0791 -0.6929
  485MOL0     C65356  12.322   6.667   1.976  0.4962  0.9593 -0.0123
  485MOL0     N65357  12.389   6.784   1.924  0.7592  0.2534 -0.1780
  485MOL0     C65358  12.481   6.854   2.000  0.5946  0.2654  0.0960
  485MOL0     C65359  12.515   6.949   1.914 -0.2273 -1.4452 -0.1517
  485MOL0     C65360  12.595   7.069   1.934 -0.0613 -0.6947  0.3741
  485MOL0     C65361  12.691   7.054   2.053 -0.1209 -0.0921  0.2320
  485MOL0     C65362  12.776   7.186   2.078 -1.1759  0.0035 -0.7064
  485MOL0     C65363  12.745   7.253   2.209  0.0894  0.4313  0.3340
  485MOL0     O65364  12.795   7.180   2.325 -0.2054 -0.6225  0.2663
  485MOL0     C65365  12.935   7.175   2.341 -0.2779  0.1270  0.2025
  485MOL0     C65366  13.037   7.243   2.269 -0.6016  0.2078  0.8840
  485MOL0     C65367  13.174   7.215   2.299  0.3674  0.1130  0.1133
  485MOL0     C65368  13.201   7.154   2.427  0.3163 -0.6063 -0.1876
  485MOL0     C65369  13.337   7.174   2.476  0.5140  0.2002 -0.2592
  485MOL0     O65370  13.431   7.239   2.396 -0.5736  0.0822 -0.0035
  485MOL0     C65371  13.560   7.242   2.446  0.3157  0.7044 -0.3594
  485MOL0     C65372  13.619   7.188   2.563 -0.4096 -0.8706 -1.1403
  485MOL0     C65373  13.757   7.209   2.578 -0.5438 -0.1865 -0.7049
  485MOL0     C65374  13.839   7.265   2.476 -0.8359  0.3420  0.4844
  485MOL0     O65375  13.979   7.275   2.494  0.0277 -0.1457  0.0954
  485MOL0     C65376  14.060   7.260   2.371 -0.0566  0.2886  0.0900
  485MOL0     C65377  14.202   7.210   2.406 -0.0641 -0.3774 -0.0633
  485MOL0     C65378  14.287   7.308   2.503 -0.2335  0.2166  1.1216
  485MOL0     C65379  14.225   7.387   2.618  0.1457  0.5259  0.5172
  485MOL0     C65380  14.326   7.476   2.689  0.1279  0.2914  0.2174
  485MOL0     C65381  14.256   7.601   2.747 -0.0412 -0.7221 -0.7437
  485MOL0     C65382  14.189   7.578   2.887  0.4907  0.5068  0.0640
  485MOL0     C65383  14.039   7.596   2.890 -0.1331 -0.2345 -0.4658
  485MOL0    Cl65384  13.989   7.772   2.877 -0.1336 -0.1524  0.6037
  485MOL0     C65385  13.781   7.327   2.369 -0.4244  0.7705  0.0658
  485MOL0     C65386  13.640   7.311   2.353  0.0594  0.0724  0.7599
  485MOL0     O65387  13.354   7.127   2.588 -0.3403 -0.1155  0.3358
  485MOL0     C65388  13.096   7.112   2.517 -0.2320 -0.0132  0.2491
  485MOL0     C65389  12.968   7.111   2.460  0.0576 -0.4037  0.0311
  485MOL0     N65390  12.435   6.946   1.800 -0.4804 -0.6574 -0.1179
  485MOL0     N65391  12.363   6.847   1.805  0.3480 -0.3341 -0.0158
  485MOL0     C65392  11.351   6.267   2.105  1.3721 -0.1541  0.4813
  485MOL0     C65393  11.251   6.192   2.039  0.3754 -0.4287 -0.5930
  485MOL0     C65394  10.815   6.053   2.001  0.3244 -0.2551  0.1805
  485MOL0     C65395  10.817   6.014   1.867 -0.7491 -0.6527  0.4571
  485MOL0     C65396  10.731   5.923   1.812 -0.9882 -0.0490 -1.0233
  485MOL0     C65397  10.628   5.874   1.880  0.1092  0.4298 -0.1528
  485MOL0     O65398  10.539   5.782   1.832 -0.3557  0.4273  0.4396
  485MOL0     C65399  10.514   5.779   1.691 -0.0215  0.2845 -0.5458
  485MOL0     C65400  10.360   5.761   1.684  0.4365 -1.0063  0.8972
  485MOL0     C65401  10.344   5.718   1.533 -0.2709  0.1384  0.1937
  485MOL0     C65402  10.301   5.570   1.525  0.2932 -0.5439 -0.7681
  485MOL0     C65403  10.172   5.550   1.601  0.6958  0.5164 -0.7159
  485MOL0     C65404  10.056   5.528   1.644  0.0589  0.0134  0.3377
  485MOL0     C65405  10.606   5.913   2.015  0.1119 -0.9415 -0.9461
  485MOL0     C65406  10.705   5.996   2.077 -0.2467  0.7386 -0.2422
  485MOL0     C65407  10.685   6.045   2.222  0.6128  0.4409 -0.3672
  485MOL0     H65408  11.011   6.432   2.043  0.8490  1.1884  2.0190
  485MOL0     H65409  11.206   6.574   2.103 -0.9365 -0.2377  0.3110
  485MOL0     H65410  11.549   6.506   2.341  0.9360  1.1082 -0.9338
  485MOL0     H65411  11.461   6.352   2.315  0.4961 -0.1106  1.0073
  485MOL0     H65412  11.602   6.335   2.103 -0.7233  0.0986  0.8487
  485MOL0     H65413  11.680   6.295   2.259 -0.1524  0.0140  0.1960
  485MOL0     H65414  11.791   6.509   2.288 -0.6898  1.8511  0.1771
  485MOL0     H65415  11.703   6.590   2.162 -0.0476  0.1230  0.5478
  485MOL0     H65416  11.906   6.368   2.098  3.8389  1.8388 -3.8489
  485MOL0     H65417  11.819   6.485   1.992 -1.2126  0.9426  1.3429
  485MOL0     H65418  11.923   6.669   2.095  0.2319  1.2917  1.8770
  485MOL0     H65419  12.002   6.573   2.217  4.1743  1.2316 -0.3709
  485MOL0     H65420  12.148   6.467   2.051  1.7268  0.1201 -2.2489
  485MOL0     H65421  12.069   6.562   1.920  0.1569  1.0981 -0.3746
  485MOL0     H65422  12.216   6.716   2.148 -0.5445  1.6664 -0.9069
  485MOL0     H65423  12.128   6.765   1.991  0.8648 -1.0002 -3.2947
  485MOL0     H65424  12.394   6.618   2.042  2.8846 -0.8990 -3.6727
  485MOL0     H65425  12.317   6.594   1.895  0.7282 -2.7809  3.0852
  485MOL0     H65426  12.507   6.854   2.105 -1.3674  0.0118  0.6200
  485MOL0     H65427  12.648   7.087   1.840  1.8400  0.7135  1.6695
  485MOL0     H65428  12.529   7.156   1.943  0.5356 -0.2976  0.9358
  485MOL0     H65429  12.639   7.015   2.141 -1.0575 -1.7816 -1.0173
  485MOL0     H65430  12.757   6.974   2.022  1.8605  1.1148  1.1397
  485MOL0     H65431  12.761   7.268   2.007 -1.6111  0.3587 -0.2088
  485MOL0     H65432  12.885   7.178   2.070 -0.9170  2.8597 -1.4595
  485MOL0     H65433  12.636   7.253   2.220 -0.0434  0.7177 -0.9183
  485MOL0     H65434  12.788   7.353   2.212 -0.4233  0.7952 -2.1783
  485MOL0     H65435  13.021   7.306   2.182 -0.6983  1.2851  1.6716
  485MOL0     H65436  13.250   7.248   2.229 -1.1111  0.5208 -1.3743
  485MOL0     H65437  13.580   7.143   2.654  3.8288  0.3896  1.5732
  485MOL0     H65438  13.796   7.189   2.677  1.2751  1.7213 -0.9612
  485MOL0     H65439  14.012   7.190   2.302  0.7479 -1.0908  0.8767
  485MOL0     H65440  14.067   7.361   2.331  0.5526  1.0905  2.0882
  485MOL0     H65441  14.208   7.110   2.450 -0.2173 -1.0581 -1.5187
  485MOL0     H65442  14.257   7.180   2.316 -2.4256 -2.1240 -1.0364
  485MOL0     H65443  14.372   7.246   2.536  0.8640  0.4163 -1.0898
  485MOL0     H65444  14.328   7.382   2.434 -1.9326  2.3681  2.2991
  485MOL0     H65445  14.162   7.321   2.679  0.5093  0.9430  1.3479
  485MOL0     H65446  14.150   7.453   2.572  0.6678  1.7300  1.3355
  485MOL0     H65447  14.400   7.509   2.616  1.8471 -0.0731  1.7213
  485MOL0     H65448  14.387   7.413   2.754  1.0377  0.9868  0.0538
  485MOL0     H65449  14.341   7.666   2.767  0.2647 -1.0512 -0.9673
  485MOL0     H65450  14.190   7.644   2.671 -0.6178 -1.6879 -0.8063
  485MOL0     H65451  14.236   7.628   2.972  0.5312 -1.0808  1.0172
  485MOL0     H65452  14.204   7.475   2.920  0.9431  0.8013  0.7881
  485MOL0     H65453  13.997   7.540   2.806 -1.4537  1.6855 -1.1701
  485MOL0     H65454  14.000   7.557   2.985 -0.2707 -0.0883 -0.4612
  485MOL0     H65455  13.844   7.385   2.302  1.0254  1.1312  1.6670
  485MOL0     H65456  13.603   7.360   2.264  1.3352  0.2382  0.2984
  485MOL0     H65457  13.114   7.085   2.620 -0.8744 -2.0720 -0.1230
  485MOL0     H65458  12.886   7.066   2.515  2.3727 -3.2612  1.3948
  485MOL0     H65459  11.437   6.219   2.149  2.9339  2.5658  0.6122
  485MOL0     H65460  11.246   6.084   2.043 -0.0185 -0.3994 -0.1327
  485MOL0     H65461  10.899   6.049   1.805  0.0749  0.2247  1.9768
  485MOL0     H65462  10.734   5.915   1.704  0.7341  2.1133 -1.2194
  485MOL0     H65463  10.573   5.698   1.649  1.6705  1.9453 -1.5501
  485MOL0     H65464  10.542   5.872   1.640 -0.1475  1.2749  1.0948
  485MOL0     H65465  10.314   5.859   1.700  0.8302 -0.8464  1.0515
  485MOL0     H65466  10.327   5.690   1.760 -0.7202 -0.8823  0.5355
  485MOL0     H65467  10.435   5.736   1.475  0.6063  1.3429  1.8685
  485MOL0     H65468  10.262   5.765   1.478 -1.7487 -1.1773  1.1915
  485MOL0     H65469  10.284   5.540   1.421  3.7221 -0.6301 -1.4398
  485MOL0     H65470  10.382   5.512   1.570  0.3219  0.7898  1.0145
  485MOL0     H65471   9.961   5.522   1.691  0.5016  0.7048  1.3723
  485MOL0     H65472  10.513   5.884   2.064  0.4843 -0.8999 -0.2197
  485MOL0     H65473  10.594   5.993   2.252  1.1994 -2.1008 -2.6629
  485MOL0     H65474  10.766   6.026   2.294  0.9560 -1.5417 -1.2141
  485MOL0     H65475  10.669   6.153   2.217 -3.1022  0.0165 -0.4696
  486MOL0     O65476   5.918   8.148  10.158 -0.6692  0.0462  1.0477
  486MOL0     C65477   5.808   8.136  10.102 -0.9474 -0.2817 -0.9851
  486MOL0     O65478   5.779   8.206   9.986 -0.0882 -0.1950 -0.4103
  486MOL0     C65479   5.866   8.309   9.956 -0.5929  0.3353  0.1999
  486MOL0     C65480   5.943   8.300   9.839  0.5925 -0.3252  0.4517
  486MOL0     C65481   6.034   8.400   9.804 -0.0557 -0.3284 -0.3868
  486MOL0     C65482   6.042   8.512   9.891  0.6695  0.2284 -0.7779
  486MOL0     O65483   6.125   8.612   9.860  0.1695  0.2768 -0.5230
  486MOL0     C65484   6.218   8.669   9.955 -0.4119 -0.4398  0.8713
  486MOL0     C65485   6.363   8.635   9.907 -0.2677 -0.1024 -1.1370
  486MOL0     C65486   6.455   8.695  10.015 -0.4940  0.0457  0.3790
  486MOL0     C65487   6.596   8.694   9.948  0.0811  0.0357 -0.6065
  486MOL0     C65488   6.718   8.694  10.040 -0.2570 -0.3529  0.6001
  486MOL0     C65489   6.713   8.799  10.143  0.4661 -0.4913  0.2723
  486MOL0     C65490   6.835   8.804  10.233 -0.3776  1.5378 -0.2116
  486MOL0     C65491   6.803   8.898  10.351  0.4282  0.1747 -0.5194
  486MOL0     N65492   6.906   8.909  10.452  0.8224  0.8499 -0.6043
  486MOL0     C65493   7.031   8.966  10.435  0.0567  0.1894 -0.0735
  486MOL0     C65494   7.092   8.942  10.560 -0.2909  0.1809  0.1535
  486MOL0     C65495   7.234   8.973  10.599  0.2227 -0.0506  0.5630
  486MOL0     C65496   7.284   9.110  10.555  0.2743 -0.4216  0.2041
  486MOL0     C65497   7.384   9.161  10.644 -0.8662 -1.0366  0.2072
  486MOL0     C65498   7.507   9.069  10.655 -1.4802 -0.6618 -0.5896
  486MOL0     O65499   7.613   9.120  10.738  0.5611  0.4131  0.1864
  486MOL0     C65500   7.695   9.223  10.708  0.0240  0.6972 -0.0751
  486MOL0     C65501   7.754   9.292  10.817  0.6714  0.4184 -0.0985
  486MOL0     C65502   7.837   9.401  10.790 -0.3491 -0.6928  0.2040
  486MOL0     C65503   7.854   9.445  10.657  0.1604 -0.4787 -0.1242
  486MOL0     C65504   7.936   9.564  10.629  0.0445 -0.9029 -0.0040
  486MOL0     O65505   8.005   9.615  10.740  0.5068 -0.0843 -0.5766
  486MOL0     C65506   8.066   9.739  10.720  0.3837 -0.5665  0.7730
  486MOL0     C65507   8.182   9.755  10.646 -0.4403 -0.0639 -0.1768
  486MOL0     C65508   8.235   9.883  10.623 -0.0509  0.0777  0.3886
  486MOL0     C65509   8.177   9.996  10.679 -0.4638 -0.0615  0.2780
  486MOL0     O65510   8.235  10.124  10.668 -0.3534 -0.2457 -0.0739
  486MOL0     C65511   8.369  10.151  10.616 -0.2807 -0.4915 -0.3650
  486MOL0     C65512   8.456  10.211  10.719  0.5143 -0.4032 -0.2022
  486MOL0     C65513   8.592  10.271  10.671 -1.4964  0.8515  0.1464
  486MOL0     C65514   8.650  10.341  10.802  0.3766  0.7414  0.6562
  486MOL0     C65515   8.794  10.396  10.765 -0.3811  0.2493 -0.5779
  486MOL0     C65516   8.905  10.302  10.801 -1.0491 -0.8498  1.2370
  486MOL0     C65517   9.035  10.359  10.740  0.3924 -0.4189  0.3226
  486MOL0     C65518   9.159  10.283  10.799  0.3137  0.1989  0.3585
  486MOL0    Cl65519   9.135  10.114  10.785  0.0150 -0.1405 -0.5008
  486MOL0     C65520   8.060   9.982  10.750 -0.4396 -0.3063 -0.1501
  486MOL0     C65521   8.011   9.854  10.771 -0.4274 -0.2901  0.1302
  486MOL0     O65522   7.947   9.602  10.512 -0.1016 -0.1026  0.3835
  486MOL0     C65523   7.777   9.390  10.553 -0.9989 -0.4278 -0.0153
  486MOL0     C65524   7.701   9.278  10.576 -0.2781  0.5955 -1.1065
  486MOL0     N65525   6.996   8.892  10.645  0.0518  0.1515 -0.2870
  486MOL0     N65526   6.892   8.870  10.578 -0.2511 -0.2890  0.2682
  486MOL0     C65527   5.956   8.532   9.995  0.7364 -0.3791 -0.4044
  486MOL0     C65528   5.875   8.426  10.033 -0.6435  0.1821 -0.2907
  486MOL0     C65529   5.724   8.018  10.138 -0.3335  0.5495 -0.3320
  486MOL0     C65530   5.604   7.996  10.071 -0.9427  0.0015 -0.2322
  486MOL0     C65531   5.518   7.892  10.098 -0.2054  0.5749  0.4210
  486MOL0     C65532   5.544   7.802  10.202 -0.5668  0.0011  0.1388
  486MOL0     O65533   5.474   7.690  10.245 -0.0029 -0.4294  0.4861
  486MOL0     C65534   5.348   7.674  10.185 -1.0051  0.2603 -0.7762
  486MOL0     C65535   5.293   7.535  10.206 -0.0926  0.4144 -0.9503
  486MOL0     C65536   5.365   7.429  10.124 -0.5310  0.1384  0.9391
  486MOL0     C65537   5.387   7.308  10.206  0.7962  0.7801  0.2216
  486MOL0     C65538   5.268   7.262  10.282  0.1537 -0.4439 -0.3832
  486MOL0     C65539   5.170   7.222  10.344 -1.5799  0.3019 -0.3104
  486MOL0     C65540   5.665   7.824  10.269  0.8933  0.0646 -0.2028
  486MOL0     C65541   5.752   7.928  10.243  0.0964  0.1660  0.5482
  486MOL0     C65542   5.880   7.925  10.327  0.0151  0.2582 -0.4680
  486MOL0     H65543   5.929   8.209   9.782  0.5399  1.0436 -1.8458
  486MOL0     H65544   6.093   8.398   9.713  2.4990  2.3790  1.0285
  486MOL0     H65545   6.212   8.778   9.955  4.0169 -0.0053 -1.0632
  486MOL0     H65546   6.192   8.635  10.055 -3.3844 -4.0470 -0.8579
  486MOL0     H65547   6.379   8.673   9.806  1.0208  0.1381 -0.8615
  486MOL0     H65548   6.368   8.526   9.910 -4.1913 -0.3922  0.6802
  486MOL0     H65549   6.443   8.645  10.111 -0.3661  1.7703  1.3203
  486MOL0     H65550   6.431   8.799  10.040  0.6676  0.4260 -0.0074
  486MOL0     H65551   6.595   8.604   9.887 -0.8519  0.6767 -1.5690
  486MOL0     H65552   6.613   8.785   9.890  2.5793  1.7468  2.4509
  486MOL0     H65553   6.705   8.595  10.085  2.9652 -0.7556  0.8626
  486MOL0     H65554   6.817   8.693   9.994  0.0011 -2.0853  1.1112
  486MOL0     H65555   6.709   8.895  10.090  2.1075 -0.8920 -0.6192
  486MOL0     H65556   6.624   8.798  10.207  0.7613  0.0967  0.7027
  486MOL0     H65557   6.933   8.822  10.190  2.8589 -1.0438  5.0984
  486MOL0     H65558   6.847   8.702  10.272 -1.4065  0.9624 -1.3419
  486MOL0     H65559   6.773   8.996  10.312 -0.5299 -0.0303 -0.3076
  486MOL0     H65560   6.715   8.854  10.399 -0.6117  0.4736 -2.0882
  486MOL0     H65561   7.074   9.016  10.349  2.6186  1.4724  1.7922
  486MOL0     H65562   7.244   8.962  10.707 -0.3063 -2.9727  0.4124
  486MOL0     H65563   7.306   8.899  10.561  2.3159  0.7939  2.6491
  486MOL0     H65564   7.327   9.096  10.455  2.2691 -0.3999  1.0021
  486MOL0     H65565   7.200   9.180  10.556  1.5827  1.3643  4.0113
  486MOL0     H65566   7.343   9.179  10.744 -1.9705  0.9002 -0.5363
  486MOL0     H65567   7.413   9.256  10.598 -0.0430 -2.0415 -1.4075
  486MOL0     H65568   7.549   9.062  10.554  1.0832 -0.7407  0.4178
  486MOL0     H65569   7.478   8.971  10.694  3.1679 -2.2926 -0.6365
  486MOL0     H65570   7.724   9.253  10.913 -2.0577  2.5843  0.0535
  486MOL0     H65571   7.893   9.452  10.868  1.9078  0.5433 -2.0800
  486MOL0     H65572   8.231   9.667  10.605  1.7969  1.1434 -0.2554
  486MOL0     H65573   8.321   9.900  10.559 -1.5241  1.0936 -1.4170
  486MOL0     H65574   8.420  10.063  10.576  2.5900  0.4007  1.1087
  486MOL0     H65575   8.357  10.222  10.534 -3.6605 -1.3415 -0.7466
  486MOL0     H65576   8.404  10.294  10.769  0.7334 -0.6921  0.5282
  486MOL0     H65577   8.480  10.126  10.784 -1.1310 -1.6279 -1.1444
  486MOL0     H65578   8.654  10.191  10.631 -2.3769  0.7013 -0.9763
  486MOL0     H65579   8.586  10.345  10.591  0.6041 -1.0763 -1.9450
  486MOL0     H65580   8.649  10.266  10.881 -0.2937 -0.1333 -0.1673
  486MOL0     H65581   8.581  10.422  10.829  0.9094  1.3228  0.3039
  486MOL0     H65582   8.813  10.494  10.810  0.9907 -0.7784  1.2151
  486MOL0     H65583   8.794  10.412  10.657 -0.9963  1.3255 -0.4349
  486MOL0     H65584   8.915  10.314  10.909 -0.0665  1.8449  0.9046
  486MOL0     H65585   8.884  10.198  10.773  1.0970 -1.1815  0.6772
  486MOL0     H65586   9.051  10.463  10.768 -0.0310 -0.7840  2.0643
  486MOL0     H65587   9.036  10.353  10.631 -0.0751  0.0773  0.2891
  486MOL0     H65588   9.254  10.296  10.746 -0.6939  0.8910 -1.3288
  486MOL0     H65589   9.173  10.291  10.908 -0.4132 -1.7896  0.6443
  486MOL0     H65590   8.025  10.074  10.796  1.3991  1.4074 -2.0137
  486MOL0     H65591   7.925   9.847  10.838  0.5923 -1.8534  1.3512
  486MOL0     H65592   7.764   9.432  10.454 -1.3050 -0.5661 -0.0347
  486MOL0     H65593   7.635   9.241  10.499 -2.6714 -2.3112  2.0235
  486MOL0     H65594   5.964   8.623  10.054 -3.7309 -0.5679  0.8575
  486MOL0     H65595   5.803   8.433  10.115  0.2402 -0.1789  0.5385
  486MOL0     H65596   5.577   8.067   9.993  2.2642  0.0946 -1.4297
  486MOL0     H65597   5.426   7.887  10.042  0.1668 -1.1046 -0.1088
  486MOL0     H65598   5.358   7.681  10.076  2.5202 -4.8399 -1.1438
  486MOL0     H65599   5.282   7.745  10.236  0.6740  1.5188 -0.2739
  486MOL0     H65600   5.186   7.555  10.193  0.2753  1.9182 -2.0265
  486MOL0     H65601   5.304   7.516  10.313 -3.8293 -2.7232 -0.8735
  486MOL0     H65602   5.464   7.464  10.095 -0.9786  0.2644 -0.5246
  486MOL0     H65603   5.309   7.407  10.032  0.6658 -3.2141  0.8541
  486MOL0     H65604   5.414   7.227  10.138 -1.3645  2.1699 -2.4620
  486MOL0     H65605   5.464   7.329  10.281 -0.9563 -1.1047  2.6973
  486MOL0     H65606   5.079   7.198  10.395 -1.5920  0.0184 -0.4610
  486MOL0     H65607   5.683   7.743  10.339  2.1283 -0.6951 -1.3371
  486MOL0     H65608   5.972   7.936  10.269  0.5757 -1.1357  0.1156
  486MOL0     H65609   5.882   8.011  10.394 -1.2211 -1.4568  1.9508
  486MOL0     H65610   5.892   7.834  10.387  2.2360 -0.5679 -2.0322
  487MOL0     O65611   3.782   1.149   9.659  0.0740  0.0556 -0.1885
  487MOL0     C65612   3.714   1.049   9.635  0.1121 -0.2328 -0.1977
  487MOL0     O65613   3.739   0.938   9.695  0.3714  0.5624  0.4782
  487MOL0     C65614   3.863   0.904   9.747 -0.1617 -0.1470 -0.0077
  487MOL0     C65615   3.901   0.962   9.873  0.3215 -0.0871  0.0234
  487MOL0     C65616   4.018   0.926   9.937  1.7357 -0.2929 -0.3845
  487MOL0     C65617   4.093   0.827   9.876 -0.4286  0.1290 -0.4095
  487MOL0     O65618   4.222   0.804   9.917  0.7037 -0.2338 -0.2262
  487MOL0     C65619   4.313   0.907   9.951  0.4063  0.2564 -0.2435
  487MOL0     C65620   4.455   0.872   9.921  0.0126  0.1111  0.1717
  487MOL0     C65621   4.505   0.748   9.999 -0.5160 -0.0149  0.5741
  487MOL0     C65622   4.641   0.740  10.062 -0.1121  0.0368  0.4413
  487MOL0     C65623   4.637   0.610  10.148  0.9139 -0.4579  0.3467
  487MOL0     C65624   4.774   0.586  10.211  0.1967  0.5497  0.1260
  487MOL0     C65625   4.768   0.464  10.307  0.4095  0.3290  0.9284
  487MOL0     C65626   4.910   0.431  10.363 -0.1426 -0.4768  0.3783
  487MOL0     N65627   4.964   0.518  10.461 -0.7224  0.3177 -0.0516
  487MOL0     C65628   5.011   0.482  10.583 -0.2990  0.2074 -0.5129
  487MOL0     C65629   5.052   0.605  10.630 -0.3861 -0.2449 -0.1316
  487MOL0     C65630   5.118   0.639  10.763  0.3047  0.1491 -0.5106
  487MOL0     C65631   5.260   0.625  10.776 -0.0636  0.9744  0.1716
  487MOL0     C65632   5.342   0.712  10.666 -0.6370  0.4175 -0.6258
  487MOL0     C65633   5.482   0.672  10.668 -0.4901  0.5233  0.5691
  487MOL0     O65634   5.513   0.551  10.594  0.6605  0.3801 -0.3641
  487MOL0     C65635   5.645   0.509  10.589 -0.2256  0.7381 -0.3146
  487MOL0     C65636   5.746   0.575  10.661 -0.0809  0.4350  0.2379
  487MOL0     C65637   5.877   0.532  10.650 -0.2052  0.3080 -0.4363
  487MOL0     C65638   5.910   0.420  10.585 -0.0366 -0.1841 -0.8982
  487MOL0     C65639   6.052   0.371  10.579  0.5265 -0.7998 -0.9714
  487MOL0     O65640   6.153   0.458  10.606 -0.6504 -0.4720 -0.7259
  487MOL0     C65641   6.272   0.425  10.548 -1.7192 -0.3163  0.4473
  487MOL0     C65642   6.369   0.385  10.636 -0.5017  0.5952 -0.2028
  487MOL0     C65643   6.500   0.355  10.590 -0.4598  0.5067  0.7471
  487MOL0     C65644   6.531   0.358  10.450  0.0823  0.1723 -1.4600
  487MOL0     O65645   6.647   0.309  10.396 -0.1838 -0.4596 -0.4792
  487MOL0     C65646   6.708   0.383  10.282  0.0354  0.7592  0.0764
  487MOL0     C65647   6.858   0.344  10.263 -0.4098  0.0339 -0.0158
  487MOL0     C65648   6.928   0.408  10.147 -0.7186  0.0515 -0.3985
  487MOL0     C65649   7.075   0.363  10.142 -0.3675 -0.1942  0.0122
  487MOL0     C65650   7.156   0.433  10.036  0.0520  0.3335  0.0070
  487MOL0     C65651   7.287   0.361   9.995  0.2834 -0.0166  0.7877
  487MOL0     C65652   7.347   0.427   9.867  0.3307 -0.4406  0.2953
  487MOL0     C65653   7.490   0.378   9.850 -0.3882  0.3255  0.2806
  487MOL0    Cl65654   7.516   0.215   9.788  0.1695 -0.4204  0.3147
  487MOL0     C65655   6.428   0.410  10.368 -0.1653 -0.6344 -0.4947
  487MOL0     C65656   6.300   0.434  10.412 -0.5187  0.5598 -0.3269
  487MOL0     O65657   6.062   0.257  10.528 -0.6435 -0.3065  0.0020
  487MOL0     C65658   5.815   0.357  10.512  0.4630  0.1529 -1.1443
  487MOL0     C65659   5.676   0.393  10.513 -0.0686 -0.3776 -0.4373
  487MOL0     N65660   5.031   0.706  10.536  0.4721  0.8283  0.5668
  487MOL0     N65661   4.985   0.655  10.433 -0.0178 -0.0093 -0.3759
  487MOL0     C65662   4.049   0.758   9.764 -0.4796  0.3278  0.2048
  487MOL0     C65663   3.934   0.801   9.696  0.5424  0.2979 -0.5255
  487MOL0     C65664   3.591   1.074   9.557 -0.0469  0.1536  0.3789
  487MOL0     C65665   3.591   1.176   9.458  0.4140  0.3953  0.2400
  487MOL0     C65666   3.472   1.209   9.393  0.6420  0.2665  0.0010
  487MOL0     C65667   3.354   1.146   9.413  0.1460 -0.2280 -0.3581
  487MOL0     O65668   3.243   1.173   9.343 -0.1768 -0.6115  0.4722
  487MOL0     C65669   3.180   1.298   9.372  0.7361 -0.4092 -0.0786
  487MOL0     C65670   3.219   1.413   9.281 -0.0612 -1.1071  0.3901
  487MOL0     C65671   3.217   1.379   9.130 -0.2914 -0.1779  1.0140
  487MOL0     C65672   3.318   1.462   9.052  0.1472  0.2164 -0.7967
  487MOL0     C65673   3.460   1.418   9.060  0.0617 -0.1264  0.4084
  487MOL0     C65674   3.579   1.408   9.053  0.6453  0.1009  0.1596
  487MOL0     C65675   3.359   1.043   9.508 -0.2771  0.2279  0.3056
  487MOL0     C65676   3.472   1.001   9.584 -0.4904 -0.8032 -0.0334
  487MOL0     C65677   3.455   0.883   9.672  0.7745  0.9562  0.6600
  487MOL0     H65678   3.832   1.037   9.912 -1.6616 -2.4348  1.2956
  487MOL0     H65679   4.039   0.980  10.029 -1.4130  1.9476 -0.8113
  487MOL0     H65680   4.281   0.992   9.890 -1.0769  1.0548  1.5761
  487MOL0     H65681   4.302   0.925  10.058  0.8194 -0.8117 -0.0057
  487MOL0     H65682   4.516   0.961   9.935  0.0878  0.2394 -0.9169
  487MOL0     H65683   4.461   0.861   9.813  3.3364  1.8091  0.0793
  487MOL0     H65684   4.494   0.664   9.931 -1.7647  0.2159  0.4620
  487MOL0     H65685   4.435   0.717  10.078  2.1879 -0.1480  3.1077
  487MOL0     H65686   4.731   0.731  10.002 -0.9962 -0.5589 -0.8382
  487MOL0     H65687   4.661   0.823  10.130  0.6727 -0.6070  1.0166
  487MOL0     H65688   4.558   0.618  10.223  0.2593 -1.1192 -0.2588
  487MOL0     H65689   4.610   0.524  10.086  0.3614 -1.0607  1.3919
  487MOL0     H65690   4.848   0.569  10.133 -2.8379  3.2326 -3.7239
  487MOL0     H65691   4.806   0.672  10.270 -2.6116  1.7066  0.1239
  487MOL0     H65692   4.730   0.369  10.269 -0.6605  0.5183  1.4666
  487MOL0     H65693   4.697   0.492  10.385  0.1564 -0.3353  0.9388
  487MOL0     H65694   4.904   0.335  10.415  1.1607 -1.2836 -0.8901
  487MOL0     H65695   4.984   0.418  10.283 -1.7740  0.4915 -1.3747
  487MOL0     H65696   5.027   0.386  10.631 -1.1292  0.5497  0.5005
  487MOL0     H65697   5.094   0.739  10.801 -2.2312 -1.0418  1.3558
  487MOL0     H65698   5.075   0.564  10.830 -1.9033  1.5481 -0.2565
  487MOL0     H65699   5.292   0.658  10.876  1.5493  1.8585 -0.5919
  487MOL0     H65700   5.286   0.519  10.768 -0.2212  0.9489 -0.0020
  487MOL0     H65701   5.324   0.816  10.692 -0.0083  0.3871 -0.0599
  487MOL0     H65702   5.305   0.699  10.564 -1.8074  1.4589 -0.3559
  487MOL0     H65703   5.517   0.660  10.771  2.5207  2.6292 -0.0901
  487MOL0     H65704   5.540   0.756  10.630  0.3148  0.7032  2.1046
  487MOL0     H65705   5.726   0.675  10.699 -0.8381  0.7617 -0.9578
  487MOL0     H65706   5.946   0.582  10.717 -1.0985  1.1823 -0.1329
  487MOL0     H65707   6.336   0.382  10.740  2.7612 -2.3361  0.9444
  487MOL0     H65708   6.572   0.326  10.666 -0.0522 -0.9570 -0.1661
  487MOL0     H65709   6.644   0.353  10.199 -1.7862 -2.8204  2.5189
  487MOL0     H65710   6.702   0.491  10.301  0.8721  0.7189  0.6634
  487MOL0     H65711   6.905   0.370  10.359 -0.8258 -0.1839  0.2498
  487MOL0     H65712   6.866   0.237  10.242 -0.1866 -0.3938  2.0536
  487MOL0     H65713   6.865   0.378  10.062 -1.0365 -0.9114  0.1519
  487MOL0     H65714   6.919   0.516  10.157 -2.9822 -0.1997  0.9458
  487MOL0     H65715   7.080   0.258  10.112 -1.9242 -1.1327  2.6321
  487MOL0     H65716   7.119   0.376  10.242 -0.3930 -2.3025  0.3297
  487MOL0     H65717   7.178   0.531  10.079 -0.4258  0.2501  0.4620
  487MOL0     H65718   7.091   0.441   9.948 -0.4084  2.0522  0.4768
  487MOL0     H65719   7.356   0.347  10.078  0.3257 -2.9838  0.3610
  487MOL0     H65720   7.242   0.262   9.984 -1.4903  0.3940  3.4293
  487MOL0     H65721   7.361   0.534   9.882  1.6879 -0.4672 -0.5597
  487MOL0     H65722   7.286   0.411   9.777  1.5318  0.1904 -0.6574
  487MOL0     H65723   7.543   0.431   9.771  2.1591 -5.7183 -2.7393
  487MOL0     H65724   7.540   0.382   9.947  2.2112  2.8652 -1.0015
  487MOL0     H65725   6.445   0.433  10.263 -2.4598  1.7221 -0.4525
  487MOL0     H65726   6.223   0.462  10.342 -1.3980 -0.9737 -0.0290
  487MOL0     H65727   5.838   0.266  10.458 -0.1441  1.2246 -3.3547
  487MOL0     H65728   5.607   0.335  10.452  0.4004  0.9005 -2.2743
  487MOL0     H65729   4.115   0.680   9.729  0.0509  0.7412  0.2778
  487MOL0     H65730   3.914   0.746   9.604 -4.0593  1.0193 -0.1569
  487MOL0     H65731   3.688   1.212   9.425  0.2028 -0.0165 -0.8626
  487MOL0     H65732   3.461   1.270   9.304 -2.1251  2.9815  1.9570
  487MOL0     H65733   3.195   1.324   9.478 -2.7076  0.8406  0.2030
  487MOL0     H65734   3.072   1.286   9.360  1.0898 -1.5352 -2.6732
  487MOL0     H65735   3.319   1.454   9.301  0.0293 -1.7745  1.3725
  487MOL0     H65736   3.143   1.488   9.305  1.7510  0.5191  1.4159
  487MOL0     H65737   3.117   1.394   9.088 -0.5142 -1.6871  0.9461
  487MOL0     H65738   3.233   1.272   9.118 -0.1729 -0.4328  3.0468
  487MOL0     H65739   3.291   1.480   8.948 -2.1863  1.2257 -0.0889
  487MOL0     H65740   3.314   1.566   9.084  3.2982  0.5548 -1.2285
  487MOL0     H65741   3.682   1.404   9.026  0.0488  1.4155 -2.7136
  487MOL0     H65742   3.262   0.993   9.506  0.5711 -1.4599 -0.2763
  487MOL0     H65743   3.361   0.836   9.641  1.8489 -0.8992  0.1043
  487MOL0     H65744   3.537   0.814   9.652  0.5977  0.6094  1.1323
  487MOL0     H65745   3.460   0.903   9.779  1.5007  1.8687  0.4759
  488MOL0     O65746   9.772   3.485   7.706 -0.0784 -0.0682 -0.0221
  488MOL0     C65747   9.712   3.411   7.777  0.3353  0.5290 -0.0956
  488MOL0     O65748   9.578   3.423   7.792 -0.2466  0.1421 -0.2819
  488MOL0     C65749   9.517   3.535   7.752  0.0660 -0.5991 -0.3653
  488MOL0     C65750   9.536   3.652   7.830  0.7707 -0.2215 -0.2871
  488MOL0     C65751   9.475   3.772   7.775 -0.8189  1.1745  0.0726
  488MOL0     C65752   9.434   3.771   7.641 -0.0615 -0.3345  0.5260
  488MOL0     O65753   9.412   3.894   7.577  0.2386 -0.1570  0.4095
  488MOL0     C65754   9.464   3.906   7.441  0.2956 -0.1443  0.6957
  488MOL0     C65755   9.402   4.025   7.376 -1.0728 -0.1671 -0.9176
  488MOL0     C65756   9.252   4.012   7.345  1.1618 -0.6122 -0.1613
  488MOL0     C65757   9.186   4.148   7.328 -0.2875 -0.1381  0.2889
  488MOL0     C65758   9.041   4.130   7.317 -0.2342 -0.7745 -0.0804
  488MOL0     C65759   8.971   4.260   7.289 -0.0743  0.1447 -0.5772
  488MOL0     C65760   9.000   4.324   7.157  0.3524 -0.1369  0.3363
  488MOL0     C65761   8.972   4.234   7.041  0.7585 -0.0600  0.1834
  488MOL0     N65762   9.084   4.149   7.012  0.4029  0.7021  0.0105
  488MOL0     C65763   9.209   4.188   6.981  0.3793 -0.7151  0.2336
  488MOL0     C65764   9.272   4.082   6.927 -0.8500 -0.6369  0.3485
  488MOL0     C65765   9.411   4.075   6.875  0.0844 -0.7269  0.0992
  488MOL0     C65766   9.492   3.988   6.964 -0.5909 -0.4186  0.3907
  488MOL0     C65767   9.627   3.946   6.895  0.3594 -0.1377 -0.8005
  488MOL0     C65768   9.700   3.852   6.988  0.1318  0.0962  0.1049
  488MOL0     O65769   9.736   3.918   7.114 -0.5305  0.0960  0.2359
  488MOL0     C65770   9.838   4.019   7.107  0.1045  0.1085  0.4128
  488MOL0     C65771   9.851   4.099   7.212  0.8035  0.2280 -0.2257
  488MOL0     C65772   9.950   4.199   7.215 -0.8427 -0.3180  0.0684
  488MOL0     C65773  10.047   4.215   7.112 -0.5813  0.5373 -0.0739
  488MOL0     C65774  10.159   4.300   7.124 -0.0678 -0.0683 -0.6145
  488MOL0     O65775  10.207   4.345   7.005  0.0436 -0.1246  0.4260
  488MOL0     C65776  10.297   4.448   7.016  0.1947  0.1754 -0.9521
  488MOL0     C65777  10.429   4.422   7.061  0.5727 -0.1347  0.0743
  488MOL0     C65778  10.526   4.517   7.072  0.1129  0.5356 -0.7846
  488MOL0     C65779  10.503   4.643   7.029 -0.3268 -0.9688  0.5920
  488MOL0     O65780  10.599   4.740   7.031 -0.1755  0.8521  0.2160
  488MOL0     C65781  10.675   4.758   6.909  0.3066 -0.3414  0.4824
  488MOL0     C65782  10.796   4.859   6.923  0.6184  0.8886 -0.8016
  488MOL0     C65783  10.765   5.002   6.958 -0.8567  0.2041  0.1415
  488MOL0     C65784  10.904   5.072   6.976  0.0989  0.4566 -0.5095
  488MOL0     C65785  10.872   5.220   7.028  0.0706  0.1694  0.4752
  488MOL0     C65786  10.989   5.283   7.101  0.3142  0.4308  0.6651
  488MOL0     C65787  11.108   5.309   7.007 -0.8040  0.0783 -0.7997
  488MOL0     C65788  11.221   5.375   7.079 -0.4805  0.1856 -0.3337
  488MOL0    Cl65789  11.241   5.322   7.257  0.3515 -0.1349 -0.1074
  488MOL0     C65790  10.386   4.661   6.952  0.8050 -0.4804 -0.1166
  488MOL0     C65791  10.282   4.574   6.958 -0.3518  1.1921 -0.8449
  488MOL0     O65792  10.204   4.331   7.235  0.1859  0.2566  0.3691
  488MOL0     C65793  10.035   4.129   7.005  0.3489 -0.1293 -0.4684
  488MOL0     C65794   9.933   4.044   6.998  0.9107  0.7427 -0.5924
  488MOL0     N65795   9.187   3.981   6.923 -0.0869 -0.3405 -0.2522
  488MOL0     N65796   9.069   4.016   6.985  0.0773  0.0615  1.1415
  488MOL0     C65797   9.419   3.651   7.572  0.3431  0.7796 -0.6062
  488MOL0     C65798   9.460   3.536   7.630  0.0951 -0.0547 -0.3848
  488MOL0     C65799   9.791   3.290   7.832  0.2626 -0.0204  0.4632
  488MOL0     C65800   9.929   3.286   7.827  0.5998 -0.1742 -0.4704
  488MOL0     C65801  10.001   3.175   7.873 -0.2610 -0.5072  0.1060
  488MOL0     C65802   9.948   3.069   7.942 -0.2826 -0.0838 -0.6676
  488MOL0     O65803  10.028   2.962   7.991  0.0144  0.1663  0.4295
  488MOL0     C65804  10.162   2.985   8.033 -0.5014 -0.3090 -0.9505
  488MOL0     C65805  10.230   2.856   8.089 -0.0810  0.1918  0.7283
  488MOL0     C65806  10.381   2.873   8.123 -0.7759 -1.3419 -0.0411
  488MOL0     C65807  10.426   2.771   8.220  0.5149  0.2117  0.4506
  488MOL0     C65808  10.563   2.740   8.221 -0.1293 -0.9397 -0.1143
  488MOL0     C65809  10.685   2.736   8.221 -0.3838  0.5906 -0.4420
  488MOL0     C65810   9.812   3.065   7.947  0.0934 -0.4728  1.0862
  488MOL0     C65811   9.728   3.174   7.895  0.4105 -0.0047 -0.5017
  488MOL0     C65812   9.579   3.172   7.916 -0.2148 -0.5397  0.1240
  488MOL0     H65813   9.580   3.664   7.928 -2.1730 -0.5772  1.2022
  488MOL0     H65814   9.479   3.872   7.817 -2.2737  1.5687 -0.6300
  488MOL0     H65815   9.574   3.910   7.441  0.3117 -0.4791  0.2600
  488MOL0     H65816   9.437   3.822   7.376  2.2644  0.3469 -0.8755
  488MOL0     H65817   9.457   4.036   7.283  4.4584 -2.0139  1.7291
  488MOL0     H65818   9.421   4.117   7.432  0.2394 -1.5202  0.9949
  488MOL0     H65819   9.196   3.959   7.423  0.7131  0.0735 -0.0088
  488MOL0     H65820   9.247   3.955   7.252  0.0112  1.8997 -1.7341
  488MOL0     H65821   9.213   4.216   7.410 -0.5627  1.9661 -1.2831
  488MOL0     H65822   9.231   4.198   7.242 -1.2362  2.3306  1.1348
  488MOL0     H65823   9.022   4.054   7.241 -0.5843  1.1453 -2.0314
  488MOL0     H65824   9.003   4.097   7.414  0.3772 -1.7549 -0.1709
  488MOL0     H65825   8.865   4.240   7.306  0.5351 -0.8666  2.6501
  488MOL0     H65826   9.006   4.327   7.368  2.9023 -0.5561 -1.1696
  488MOL0     H65827   9.106   4.349   7.149  0.6387 -1.8587 -2.4759
  488MOL0     H65828   8.949   4.420   7.146  0.7370  0.0618  0.2594
  488MOL0     H65829   8.878   4.180   7.057  1.6460 -1.2229  1.6581
  488MOL0     H65830   8.972   4.307   6.960  3.5693 -0.0340  0.1054
  488MOL0     H65831   9.252   4.287   6.979 -1.1979 -0.0054 -1.7961
  488MOL0     H65832   9.400   4.027   6.777  1.0732  1.3368 -1.0677
  488MOL0     H65833   9.450   4.177   6.870  2.6672 -1.5030  2.1574
  488MOL0     H65834   9.512   4.037   7.060 -3.1762 -1.7458  1.6927
  488MOL0     H65835   9.441   3.895   6.990  1.2428 -1.6496 -0.1957
  488MOL0     H65836   9.690   4.032   6.871  0.4971  0.6321  2.0085
  488MOL0     H65837   9.609   3.885   6.806  3.4556 -1.3832 -0.7104
  488MOL0     H65838   9.789   3.799   6.951  0.2536 -1.0306  1.9114
  488MOL0     H65839   9.624   3.778   7.014 -1.3067  1.6028  0.3414
  488MOL0     H65840   9.792   4.079   7.301  1.3110 -1.1196 -0.1597
  488MOL0     H65841   9.948   4.264   7.302  0.1816 -2.4606  1.8332
  488MOL0     H65842  10.454   4.323   7.097  1.4246  0.4852  1.2263
  488MOL0     H65843  10.613   4.482   7.129 -0.9915  0.9741  1.2860
  488MOL0     H65844  10.717   4.660   6.885 -1.4581 -1.0489  0.1438
  488MOL0     H65845  10.599   4.791   6.838 -0.1314 -1.6275  0.3305
  488MOL0     H65846  10.865   4.823   7.000  0.3124 -0.6337 -1.2185
  488MOL0     H65847  10.848   4.859   6.827  0.3538 -2.7069 -1.0661
  488MOL0     H65848  10.701   5.037   6.876 -0.5085  1.5225  0.4039
  488MOL0     H65849  10.706   4.991   7.050 -0.1065 -0.5746  0.5397
  488MOL0     H65850  10.957   5.073   6.880 -0.2502  0.2823 -0.7040
  488MOL0     H65851  10.975   5.025   7.045  0.2354  0.0472 -0.9254
  488MOL0     H65852  10.787   5.225   7.096 -2.1484 -0.4041 -2.0856
  488MOL0     H65853  10.837   5.286   6.949 -2.8762 -1.7891 -0.0238
  488MOL0     H65854  10.958   5.374   7.153 -0.7478  0.2987  0.2833
  488MOL0     H65855  11.014   5.218   7.185  2.4165 -0.5506 -0.6513
  488MOL0     H65856  11.064   5.373   6.930  0.5900  3.2490  0.8572
  488MOL0     H65857  11.143   5.210   6.976 -1.5979  0.0643 -1.7045
  488MOL0     H65858  11.314   5.365   7.023 -1.5661  0.1800 -2.2285
  488MOL0     H65859  11.206   5.483   7.078 -0.1846  0.2863 -3.6405
  488MOL0     H65860  10.372   4.758   6.906  0.1179 -0.4448  0.1616
  488MOL0     H65861  10.187   4.597   6.911 -1.4882 -0.9426  0.2724
  488MOL0     H65862  10.113   4.138   6.930 -0.0171  0.2746 -0.8120
  488MOL0     H65863   9.926   3.979   6.912 -2.6029  0.6777 -0.4082
  488MOL0     H65864   9.370   3.653   7.475 -2.6479 -2.7812  0.6011
  488MOL0     H65865   9.446   3.438   7.586  5.0131 -1.4819  0.6156
  488MOL0     H65866   9.984   3.371   7.790  0.0354  0.6190  0.4660
  488MOL0     H65867  10.108   3.188   7.865 -0.2541  0.2679  1.2896
  488MOL0     H65868  10.155   3.071   8.101 -1.5218 -1.4241  0.4155
  488MOL0     H65869  10.224   3.022   7.951  0.0105  2.5986  0.6161
  488MOL0     H65870  10.218   2.768   8.024 -3.5389 -0.7645  2.3923
  488MOL0     H65871  10.175   2.836   8.181  0.2476 -1.5188  0.5804
  488MOL0     H65872  10.389   2.975   8.162 -2.8690 -1.6699  1.4025
  488MOL0     H65873  10.440   2.860   8.032  2.0031  0.1437  1.4060
  488MOL0     H65874  10.400   2.803   8.322  0.0347  1.4521 -0.0330
  488MOL0     H65875  10.375   2.676   8.202  3.2495 -0.8633 -2.4456
  488MOL0     H65876  10.791   2.727   8.214 -0.4935 -1.0613 -0.5133
  488MOL0     H65877   9.767   2.983   8.001  1.2606 -1.4120  0.6875
  488MOL0     H65878   9.555   3.254   7.984 -0.4428 -0.3918 -0.1306
  488MOL0     H65879   9.533   3.186   7.817  1.3935  0.9955 -0.4845
  488MOL0     H65880   9.550   3.082   7.969 -0.7279 -0.5759 -0.2055
  489MOL0     O65881   0.776   4.852   5.468  0.0671 -0.4784  0.4407
  489MOL0     C65882   0.752   4.733   5.453 -0.2991 -0.2603  0.0003
  489MOL0     O65883   0.844   4.642   5.452 -1.1002  0.8255  0.3844
  489MOL0     C65884   0.967   4.677   5.517  0.1494  0.1689 -0.0558
  489MOL0     C65885   0.992   4.633   5.649 -1.1740  0.1065  0.5972
  489MOL0     C65886   1.113   4.676   5.713  0.4554  0.5763  1.0824
  489MOL0     C65887   1.211   4.742   5.632 -0.3251 -0.4168 -0.1683
  489MOL0     O65888   1.329   4.793   5.679  0.2764  0.2262  0.1504
  489MOL0     C65889   1.393   4.696   5.767  0.1689  0.1688  0.4173
  489MOL0     C65890   1.538   4.741   5.768 -0.3762  0.0288 -0.7047
  489MOL0     C65891   1.621   4.649   5.863 -0.0305  0.0562  0.2108
  489MOL0     C65892   1.756   4.726   5.890 -0.3851  1.0577  0.6270
  489MOL0     C65893   1.881   4.635   5.870 -0.1405  0.1678 -0.4210
  489MOL0     C65894   1.886   4.511   5.958  0.3155  0.4505  0.3274
  489MOL0     C65895   1.886   4.541   6.115 -0.6258  0.2655 -0.7223
  489MOL0     C65896   2.001   4.624   6.159 -0.2017  0.1016  0.1508
  489MOL0     N65897   2.128   4.547   6.146  0.0289  0.4105 -0.2254
  489MOL0     C65898   2.158   4.446   6.226  0.7561  0.2156 -0.4153
  489MOL0     C65899   2.287   4.412   6.201  0.3038  0.1463 -0.4409
  489MOL0     C65900   2.368   4.301   6.255 -0.0580 -0.3299  0.2262
  489MOL0     C65901   2.418   4.349   6.397  0.3331 -0.4835  0.5947
  489MOL0     C65902   2.512   4.470   6.382 -0.2002 -0.8422  0.5117
  489MOL0     C65903   2.643   4.419   6.313  0.1731 -0.3652 -0.2563
  489MOL0     O65904   2.672   4.283   6.306  0.1371  0.5770 -0.7589
  489MOL0     C65905   2.777   4.249   6.381 -1.1033 -0.1977 -0.2333
  489MOL0     C65906   2.906   4.297   6.348 -0.4943 -0.2616  0.0926
  489MOL0     C65907   3.019   4.269   6.424 -0.1279 -0.1595 -0.2334
  489MOL0     C65908   2.999   4.195   6.538 -1.2580 -0.7515 -0.6676
  489MOL0     C65909   3.115   4.166   6.627 -0.4291 -1.0074 -0.6014
  489MOL0     O65910   3.216   4.259   6.627 -0.2098  0.1355 -0.1039
  489MOL0     C65911   3.330   4.242   6.710  0.0970 -0.6265  0.4220
  489MOL0     C65912   3.368   4.342   6.797  0.1938 -0.2913 -0.8029
  489MOL0     C65913   3.496   4.332   6.864 -0.2269 -0.2340 -0.7079
  489MOL0     C65914   3.574   4.216   6.860  0.0026  0.0556  0.3114
  489MOL0     O65915   3.698   4.211   6.921 -0.1648  0.0611  0.1061
  489MOL0     C65916   3.749   4.083   6.979  0.2741 -0.1653 -0.5323
  489MOL0     C65917   3.811   4.109   7.117  0.9520  0.1565  0.0814
  489MOL0     C65918   3.731   4.201   7.210  0.0592 -0.1218 -0.3541
  489MOL0     C65919   3.580   4.164   7.217  0.2958  0.2022  0.6169
  489MOL0     C65920   3.514   4.224   7.341  0.4264  0.2360 -0.2326
  489MOL0     C65921   3.561   4.154   7.469  0.3455 -0.0237 -0.9424
  489MOL0     C65922   3.459   4.181   7.575 -0.9976  0.0546 -0.5173
  489MOL0     C65923   3.486   4.085   7.699 -0.4001  0.4354 -0.4797
  489MOL0    Cl65924   3.340   4.087   7.808  0.0069  0.0716  0.1098
  489MOL0     C65925   3.536   4.115   6.768  0.4464  0.1117  0.3601
  489MOL0     C65926   3.424   4.128   6.692  0.8883 -0.3749  1.0192
  489MOL0     O65927   3.121   4.061   6.695  0.4325  0.2362  0.1365
  489MOL0     C65928   2.872   4.153   6.573 -0.2132  0.1465  0.0248
  489MOL0     C65929   2.763   4.173   6.494  0.0709 -0.0371  0.4729
  489MOL0     N65930   2.325   4.495   6.093 -0.0298  0.1155 -0.6357
  489MOL0     N65931   2.228   4.574   6.065  0.0092  0.3601 -0.4131
  489MOL0     C65932   1.181   4.779   5.501 -0.5510  0.3511 -0.2005
  489MOL0     C65933   1.059   4.751   5.443  0.2403  0.3709  0.2079
  489MOL0     C65934   0.605   4.696   5.436 -0.1080 -0.5092  0.2751
  489MOL0     C65935   0.505   4.796   5.454 -0.0277  0.0855 -0.0755
  489MOL0     C65936   0.372   4.764   5.437 -1.3780  0.5038 -0.4645
  489MOL0     C65937   0.327   4.637   5.411  0.2618 -0.2658  0.7795
  489MOL0     O65938   0.191   4.622   5.380 -0.5316 -0.3035  0.0199
  489MOL0     C65939   0.151   4.481   5.352  0.2197 -0.0905  0.1783
  489MOL0     C65940  -0.002   4.477   5.319 -0.0058 -0.2036 -0.5731
  489MOL0     C65941  -0.030   4.568   5.199 -0.1772  0.0202 -0.0504
  489MOL0     C65942  -0.177   4.561   5.148 -0.2735  0.1032  0.9276
  489MOL0     C65943  -0.272   4.620   5.241 -0.1330 -0.5895  1.0953
  489MOL0     C65944  -0.372   4.663   5.304  0.2212  0.0029  0.1579
  489MOL0     C65945   0.426   4.537   5.408 -1.1165 -0.5565 -0.0754
  489MOL0     C65946   0.561   4.559   5.431 -0.5420 -0.6895  0.1981
  489MOL0     C65947   0.651   4.433   5.440  0.7293 -0.9076  0.0029
  489MOL0     H65948   0.915   4.580   5.705 -0.8913  0.1821  1.0627
  489MOL0     H65949   1.135   4.646   5.815 -0.5964 -0.5575  0.9910
  489MOL0     H65950   1.354   4.682   5.869  0.0462 -0.0983  0.3316
  489MOL0     H65951   1.401   4.597   5.723 -1.7710  0.9458 -1.8610
  489MOL0     H65952   1.537   4.839   5.817 -2.3634 -1.3687  2.3533
  489MOL0     H65953   1.586   4.747   5.670  0.9676 -2.9999 -0.3640
  489MOL0     H65954   1.645   4.557   5.808  0.2989 -1.3019  2.5209
  489MOL0     H65955   1.560   4.625   5.950  1.4840 -0.9310  1.0534
  489MOL0     H65956   1.774   4.808   5.819  1.0827  1.0899  0.9949
  489MOL0     H65957   1.753   4.757   5.994 -2.1970 -1.4741  1.4232
  489MOL0     H65958   1.882   4.595   5.768  3.0561  0.9478 -0.8005
  489MOL0     H65959   1.973   4.695   5.876  0.7005 -1.1536  0.4359
  489MOL0     H65960   1.794   4.456   5.937 -0.5608  1.2394  1.9314
  489MOL0     H65961   1.967   4.444   5.926 -2.1911 -1.3226 -2.9169
  489MOL0     H65962   1.905   4.441   6.156  0.0895  0.0602 -1.5207
  489MOL0     H65963   1.793   4.587   6.149 -1.0989 -0.3981 -1.0873
  489MOL0     H65964   2.001   4.719   6.106  0.5933  0.2020  0.3191
  489MOL0     H65965   1.996   4.645   6.266 -0.7063  1.6552 -0.1535
  489MOL0     H65966   2.090   4.392   6.292 -0.6216  1.3444 -0.8628
  489MOL0     H65967   2.315   4.206   6.270 -0.9311 -0.4732 -3.1215
  489MOL0     H65968   2.457   4.287   6.193 -0.0200  0.2070  0.1613
  489MOL0     H65969   2.337   4.367   6.469  0.6959 -0.2804  0.9549
  489MOL0     H65970   2.475   4.269   6.445  0.1219 -1.8468 -1.2931
  489MOL0     H65971   2.548   4.490   6.483  3.1827 -4.1772  0.1818
  489MOL0     H65972   2.457   4.551   6.332 -1.2961 -0.8135  1.7015
  489MOL0     H65973   2.712   4.479   6.373 -0.7539  0.0138  0.4635
  489MOL0     H65974   2.664   4.455   6.212  0.8702  1.5701  0.5352
  489MOL0     H65975   2.923   4.357   6.260  0.3246  1.0682  1.1170
  489MOL0     H65976   3.117   4.296   6.385 -0.7165 -0.4417 -2.0249
  489MOL0     H65977   3.304   4.430   6.800 -1.0399 -1.1713  0.8124
  489MOL0     H65978   3.527   4.417   6.924  3.5684 -3.0708  1.8450
  489MOL0     H65979   3.672   4.006   6.988  0.4196 -0.1345  1.4509
  489MOL0     H65980   3.821   4.041   6.909  0.4843 -1.4838  0.4376
  489MOL0     H65981   3.822   4.017   7.175 -0.7855 -0.6172 -0.7625
  489MOL0     H65982   3.913   4.135   7.088  1.0132 -3.1027 -3.4627
  489MOL0     H65983   3.775   4.183   7.309  4.1011 -0.6643 -2.0349
  489MOL0     H65984   3.741   4.305   7.180 -1.0281  0.4472  1.1310
  489MOL0     H65985   3.585   4.057   7.236  1.2254  0.0969 -0.1487
  489MOL0     H65986   3.515   4.177   7.130 -2.6270 -3.5891  1.9735
  489MOL0     H65987   3.407   4.222   7.319  0.2724 -3.7187  0.2984
  489MOL0     H65988   3.535   4.331   7.358 -0.0105  0.2107  0.5313
  489MOL0     H65989   3.560   4.046   7.451  1.0599 -0.1837 -0.0925
  489MOL0     H65990   3.660   4.186   7.502 -0.8331  2.4971  0.4388
  489MOL0     H65991   3.358   4.169   7.535 -1.7055  0.9605  0.9068
  489MOL0     H65992   3.478   4.285   7.604  0.9821  0.4055 -2.7604
  489MOL0     H65993   3.502   3.982   7.665  2.4473  0.4419  0.5589
  489MOL0     H65994   3.580   4.108   7.750 -0.3911  0.9638 -0.7245
  489MOL0     H65995   3.585   4.018   6.764 -1.4417 -0.9091  0.7195
  489MOL0     H65996   3.396   4.059   6.613 -1.5473  0.4972  1.0493
  489MOL0     H65997   2.849   4.088   6.657 -0.1101 -1.2041 -0.9664
  489MOL0     H65998   2.666   4.129   6.514 -1.2066  1.6061 -1.5664
  489MOL0     H65999   1.249   4.837   5.440  1.5336  1.1187  2.6349
  489MOL0     H66000   1.021   4.776   5.345  2.0392 -2.2982 -1.2894
  489MOL0     H66001   0.530   4.901   5.463  2.4816 -0.5544  1.6631
  489MOL0     H66002   0.296   4.840   5.452 -0.1170  1.5563  0.9537
  489MOL0     H66003   0.168   4.414   5.437 -1.1531  1.2278  1.5880
  489MOL0     H66004   0.208   4.448   5.265 -0.1843 -0.6658  0.1314
  489MOL0     H66005  -0.053   4.525   5.403 -1.2156 -0.8712 -0.9078
  489MOL0     H66006  -0.036   4.375   5.299  1.6630 -1.4652  2.3514
  489MOL0     H66007   0.036   4.527   5.123  1.0684 -0.5789  1.2925
  489MOL0     H66008  -0.001   4.673   5.212 -0.1672 -0.1407  1.4269
  489MOL0     H66009  -0.179   4.611   5.051  2.3274 -2.5332 -0.6244
  489MOL0     H66010  -0.198   4.456   5.124  2.4694 -0.5353  1.0437
  489MOL0     H66011  -0.452   4.704   5.362 -0.9427 -1.4530 -0.3563
  489MOL0     H66012   0.400   4.431   5.398 -4.6614  0.2097 -0.3922
  489MOL0     H66013   0.731   4.453   5.368  0.5757 -0.5107 -0.0604
  489MOL0     H66014   0.684   4.422   5.543  1.3171 -1.5948 -0.2497
  489MOL0     H66015   0.600   4.348   5.393 -2.3899  1.0256 -0.4258
  490MOL0     O66016   9.746   0.406   2.495  0.3372  0.1436  0.5960
  490MOL0     C66017   9.658   0.333   2.456 -0.0193  0.6726 -1.2792
  490MOL0     O66018   9.679   0.198   2.418 -0.3911 -0.0025  0.0211
  490MOL0     C66019   9.805   0.139   2.403 -0.7695 -0.3816 -0.0925
  490MOL0     C66020   9.922   0.208   2.364 -0.0331 -0.1465  0.4956
  490MOL0     C66021  10.039   0.137   2.330 -0.5659  0.2143  0.1779
  490MOL0     C66022  10.050   0.004   2.368  0.0269  1.2782 -0.0820
  490MOL0     O66023  10.159  -0.069   2.346 -0.2282  0.7987 -0.0650
  490MOL0     C66024  10.207  -0.076   2.209 -0.5703 -0.3451 -0.2072
  490MOL0     C66025  10.269  -0.211   2.178 -0.4266 -0.4022 -0.6713
  490MOL0     C66026  10.362  -0.210   2.054 -0.0439  0.5366 -0.2306
  490MOL0     C66027  10.491  -0.287   2.077 -0.7038  0.5147  0.3622
  490MOL0     C66028  10.593  -0.230   2.172  0.1924  0.4214 -0.1492
  490MOL0     C66029  10.713  -0.320   2.187 -0.7856  0.2142  0.0726
  490MOL0     C66030  10.810  -0.301   2.069  0.5852  0.0611 -0.1978
  490MOL0     C66031  10.890  -0.174   2.066 -0.4293 -0.1458  0.7714
  490MOL0     N66032  10.928  -0.137   2.196  0.1170 -0.0704 -0.3543
  490MOL0     C66033  11.052  -0.164   2.253 -0.5857 -0.7126 -0.4104
  490MOL0     C66034  11.048  -0.101   2.375  0.0394  0.0584  0.2261
  490MOL0     C66035  11.159  -0.106   2.479  1.0132  0.0241 -0.7493
  490MOL0     C66036  11.271   0.004   2.469  0.4319  0.4288  0.0409
  490MOL0     C66037  11.375  -0.023   2.579  0.0899  0.2740  0.3746
  490MOL0     C66038  11.473   0.091   2.576  0.0746  0.1998 -0.4572
  490MOL0     O66039  11.574   0.072   2.479 -0.0231 -0.3294  0.6336
  490MOL0     C66040  11.698   0.121   2.490  0.5617 -0.2957 -1.3820
  490MOL0     C66041  11.744   0.238   2.558  0.6609 -0.1486  0.6545
  490MOL0     C66042  11.876   0.271   2.562 -0.4285  0.2236  0.1098
  490MOL0     C66043  11.977   0.199   2.496  0.7200  1.3486 -0.1384
  490MOL0     C66044  12.107   0.254   2.474  0.0810 -0.1907  0.6114
  490MOL0     O66045  12.187   0.212   2.367 -0.0482 -0.1926 -0.0299
  490MOL0     C66046  12.312   0.250   2.367  0.1013  0.2592  0.2649
  490MOL0     C66047  12.353   0.361   2.289 -0.2797 -0.9048 -1.1675
  490MOL0     C66048  12.485   0.395   2.288  0.9009  0.2832  1.3408
  490MOL0     C66049  12.581   0.326   2.356 -1.0397  0.0071  0.6121
  490MOL0     O66050  12.710   0.389   2.345 -0.4316  0.2410 -0.4979
  490MOL0     C66051  12.788   0.351   2.469 -0.6726  1.0350  0.5243
  490MOL0     C66052  12.912   0.440   2.467 -0.1624  0.0669  0.4047
  490MOL0     C66053  13.021   0.391   2.375 -0.4276 -0.2874  0.0305
  490MOL0     C66054  13.148   0.484   2.381  0.1903 -0.1361  0.3848
  490MOL0     C66055  13.212   0.486   2.245 -0.1506 -0.2295  0.0377
  490MOL0     C66056  13.315   0.601   2.211  0.2357 -0.0786  0.2873
  490MOL0     C66057  13.354   0.620   2.067 -0.6391  0.4787  0.0941
  490MOL0     C66058  13.466   0.717   2.050  0.0218 -0.0974  0.1927
  490MOL0    Cl66059  13.530   0.715   1.879 -0.0180 -0.4083 -0.3039
  490MOL0     C66060  12.548   0.206   2.423 -0.1849 -0.1721  0.3341
  490MOL0     C66061  12.410   0.168   2.432 -0.6056 -0.3904 -0.1976
  490MOL0     O66062  12.140   0.335   2.561  0.5368 -0.0966  0.3069
  490MOL0     C66063  11.928   0.091   2.416  0.1154  0.2456  0.1969
  490MOL0     C66064  11.795   0.051   2.419 -0.2212  0.4034  0.1896
  490MOL0     N66065  10.922  -0.058   2.397  0.1526 -1.7243 -0.3959
  490MOL0     N66066  10.853  -0.060   2.286 -0.2890  0.0692  0.5387
  490MOL0     C66067   9.939  -0.060   2.420  0.6478 -0.3208  0.6535
  490MOL0     C66068   9.819   0.009   2.432 -0.8220  0.0975 -0.2874
  490MOL0     C66069   9.520   0.376   2.477 -0.3728  0.6740 -0.2512
  490MOL0     C66070   9.417   0.307   2.418  1.0524  0.5469  0.1095
  490MOL0     C66071   9.276   0.337   2.429 -0.1425 -1.4560  0.0930
  490MOL0     C66072   9.244   0.455   2.495  0.9856  0.5408 -0.1493
  490MOL0     O66073   9.107   0.479   2.507  0.4713 -0.2223  0.7730
  490MOL0     C66074   9.060   0.596   2.579  0.1040 -1.0024  0.0444
  490MOL0     C66075   8.915   0.644   2.542 -0.5269 -0.2274  0.7991
  490MOL0     C66076   8.805   0.549   2.589  0.9038 -0.7163 -0.8424
  490MOL0     C66077   8.680   0.632   2.627  0.1666  0.8002  0.6851
  490MOL0     C66078   8.625   0.703   2.505 -0.1346  0.0485 -1.0140
  490MOL0     C66079   8.594   0.755   2.399 -0.6585  0.8047 -0.8906
  490MOL0     C66080   9.343   0.518   2.563  0.6080 -0.8508  0.4730
  490MOL0     C66081   9.479   0.487   2.560 -0.7221  0.1103 -0.6730
  490MOL0     C66082   9.577   0.568   2.647  0.7588 -0.0565 -0.3029
  490MOL0     H66083   9.917   0.314   2.342 -0.5688 -0.8547 -3.4510
  490MOL0     H66084  10.128   0.186   2.290  0.4708  1.0214  3.2277
  490MOL0     H66085  10.141  -0.060   2.122  1.4047  2.0902 -1.3756
  490MOL0     H66086  10.280   0.004   2.201 -1.8243  1.1437  2.1487
  490MOL0     H66087  10.186  -0.279   2.156 -0.0956 -0.6639 -1.1451
  490MOL0     H66088  10.332  -0.235   2.264 -0.7540 -0.6370 -0.4949
  490MOL0     H66089  10.388  -0.108   2.025  0.0887  0.7733  0.7184
  490MOL0     H66090  10.313  -0.257   1.968 -0.6336 -2.4840  1.6084
  490MOL0     H66091  10.460  -0.385   2.112 -0.1371 -0.8649 -2.6629
  490MOL0     H66092  10.539  -0.317   1.983 -0.6703  1.2045  0.1508
  490MOL0     H66093  10.620  -0.132   2.129 -1.8023  1.7719  1.4726
  490MOL0     H66094  10.546  -0.215   2.270 -2.4304 -2.8323 -0.7309
  490MOL0     H66095  10.769  -0.302   2.279 -1.3309  2.1983  0.0589
  490MOL0     H66096  10.679  -0.425   2.184 -1.0393  0.3014 -0.2771
  490MOL0     H66097  10.761  -0.330   1.975  1.8815 -0.6985 -0.6606
  490MOL0     H66098  10.886  -0.378   2.082  2.4534  1.7870 -0.4664
  490MOL0     H66099  10.980  -0.185   2.003  1.5681 -0.2614  3.4764
  490MOL0     H66100  10.829  -0.095   2.022  1.7658  1.6115  0.6865
  490MOL0     H66101  11.138  -0.215   2.212  0.4091 -0.6179  1.4473
  490MOL0     H66102  11.104  -0.106   2.574  0.2210 -0.1731 -1.2042
  490MOL0     H66103  11.203  -0.205   2.466 -1.2491 -1.5017  1.9120
  490MOL0     H66104  11.306   0.001   2.366 -1.8571 -2.0756 -0.7671
  490MOL0     H66105  11.213   0.095   2.487 -1.1693 -0.3359 -1.0662
  490MOL0     H66106  11.418  -0.122   2.562  0.5407  0.7179 -1.2071
  490MOL0     H66107  11.342  -0.032   2.683 -0.4642 -0.2443  0.1605
  490MOL0     H66108  11.519   0.100   2.675  0.1761  0.7611 -0.5537
  490MOL0     H66109  11.418   0.181   2.547  0.1089  0.7478  1.1161
  490MOL0     H66110  11.666   0.303   2.598  1.5218  0.1980  1.8273
  490MOL0     H66111  11.893   0.366   2.611  0.9058  0.4432 -0.7328
  490MOL0     H66112  12.273   0.416   2.240 -1.2089 -1.5071 -0.3551
  490MOL0     H66113  12.520   0.486   2.238 -1.3341  2.3866  3.3454
  490MOL0     H66114  12.738   0.360   2.566 -1.7353  0.1767  0.0719
  490MOL0     H66115  12.830   0.251   2.459  1.7150  2.1016 -1.2161
  490MOL0     H66116  12.879   0.541   2.443  1.1110  0.8510  1.8177
  490MOL0     H66117  12.949   0.441   2.570 -0.6387  2.2040  0.5922
  490MOL0     H66118  13.057   0.291   2.399 -0.4667 -0.4486 -0.5563
  490MOL0     H66119  12.980   0.397   2.274  0.1310  0.5040 -0.1627
  490MOL0     H66120  13.226   0.464   2.455 -1.1479 -2.5290  1.2626
  490MOL0     H66121  13.119   0.588   2.398  0.0139 -0.2225  0.6118
  490MOL0     H66122  13.137   0.495   2.166  0.3084  0.8957 -0.2965
  490MOL0     H66123  13.251   0.386   2.221  1.5099 -0.3805  2.9079
  490MOL0     H66124  13.271   0.698   2.239 -2.3335 -0.2638 -2.5384
  490MOL0     H66125  13.404   0.581   2.271 -0.8052 -3.2519  0.9670
  490MOL0     H66126  13.270   0.661   2.011 -0.5576  0.6412  0.0916
  490MOL0     H66127  13.389   0.529   2.016 -2.3641 -0.1512 -0.0387
  490MOL0     H66128  13.436   0.819   2.074  2.7175  0.3339  2.2398
  490MOL0     H66129  13.553   0.697   2.115  0.1510 -2.0857 -0.5010
  490MOL0     H66130  12.620   0.145   2.476 -0.6900 -0.6352  0.4941
  490MOL0     H66131  12.388   0.070   2.473  0.7024 -0.8014 -0.4486
  490MOL0     H66132  12.004   0.048   2.351 -2.0089 -0.5844 -1.9012
  490MOL0     H66133  11.759  -0.038   2.367  0.1804  0.1355  0.3680
  490MOL0     H66134   9.946  -0.164   2.452  0.2695 -0.1975  1.1410
  490MOL0     H66135   9.731  -0.043   2.467 -0.8773  0.3390 -0.0593
  490MOL0     H66136   9.440   0.216   2.363 -0.2444 -1.4845  2.6569
  490MOL0     H66137   9.201   0.276   2.380  0.0751 -1.0690 -0.7488
  490MOL0     H66138   9.122   0.681   2.548 -1.0887 -0.1045  0.0233
  490MOL0     H66139   9.064   0.591   2.688  1.3600  1.0284  0.1503
  490MOL0     H66140   8.904   0.647   2.433  2.7065  0.4625  0.3823
  490MOL0     H66141   8.901   0.740   2.592  1.5971 -0.8062  2.6583
  490MOL0     H66142   8.843   0.489   2.673 -2.0410  0.0437  1.2099
  490MOL0     H66143   8.789   0.483   2.504  2.4179  1.0119 -2.5586
  490MOL0     H66144   8.600   0.566   2.662  0.4719 -0.6679 -1.2071
  490MOL0     H66145   8.706   0.708   2.701  3.5167 -0.2971  0.8433
  490MOL0     H66146   8.561   0.785   2.301 -1.0651  2.6116 -0.2498
  490MOL0     H66147   9.320   0.596   2.635  2.0052 -1.2695  1.4156
  490MOL0     H66148   9.611   0.500   2.726 -2.3812  0.0076  1.2270
  490MOL0     H66149   9.663   0.616   2.599  1.8836  0.5151  2.1379
  490MOL0     H66150   9.521   0.646   2.698 -2.4520 -1.3012 -1.6638
  491MOL0     O66151   1.676   9.033   4.455 -0.7735 -0.2168  0.0395
  491MOL0     C66152   1.712   9.128   4.386  0.0070 -0.3150  0.0645
  491MOL0     O66153   1.823   9.121   4.303 -0.3495 -0.3340 -0.3595
  491MOL0     C66154   1.930   9.056   4.362  0.3056 -0.7488 -0.5772
  491MOL0     C66155   2.028   9.122   4.439 -0.8486 -0.3126  0.1919
  491MOL0     C66156   2.137   9.048   4.501 -0.4860 -0.0940 -0.6393
  491MOL0     C66157   2.151   8.916   4.477 -0.5795 -0.7044  0.9732
  491MOL0     O66158   2.259   8.847   4.512  0.1545 -0.3044 -0.0665
  491MOL0     C66159   2.363   8.840   4.416  1.2019 -0.0603  0.2598
  491MOL0     C66160   2.488   8.932   4.451 -0.7720 -0.5558 -0.1927
  491MOL0     C66161   2.550   8.883   4.585  0.2292  0.0974 -0.1278
  491MOL0     C66162   2.659   8.986   4.615 -0.0417  0.3599  0.2979
  491MOL0     C66163   2.748   8.939   4.724  0.2905  0.1837  0.1090
  491MOL0     C66164   2.881   9.013   4.734  0.0086 -0.2354  0.4209
  491MOL0     C66165   2.865   9.158   4.775 -0.4039  0.5787 -0.0141
  491MOL0     C66166   3.000   9.229   4.772 -0.0961 -0.3191 -0.2391
  491MOL0     N66167   3.079   9.207   4.899  0.1521 -0.0811 -0.2685
  491MOL0     C66168   3.110   9.301   4.995  0.1416  0.1857  0.0193
  491MOL0     C66169   3.173   9.237   5.090  0.3702  0.0001  0.6098
  491MOL0     C66170   3.222   9.298   5.212  0.5071  0.3199 -0.1184
  491MOL0     C66171   3.139   9.261   5.337  0.4388 -0.2739  0.4487
  491MOL0     C66172   3.117   9.108   5.349  0.4469 -0.5688 -0.5285
  491MOL0     C66173   3.031   9.082   5.467 -0.6571  0.4412 -0.1550
  491MOL0     O66174   2.984   8.941   5.471 -0.2304 -1.0672 -0.3060
  491MOL0     C66175   3.049   8.829   5.504  0.3375 -0.2192  0.5192
  491MOL0     C66176   2.977   8.709   5.501  0.3692  0.2222  0.2605
  491MOL0     C66177   3.042   8.587   5.537  0.1514 -0.2089  0.1003
  491MOL0     C66178   3.181   8.599   5.567 -0.4191  0.4335 -0.0963
  491MOL0     C66179   3.254   8.476   5.584 -0.0107  0.2158  0.7231
  491MOL0     O66180   3.378   8.491   5.641  0.3281 -0.2121 -0.1805
  491MOL0     C66181   3.462   8.384   5.648 -0.8696 -0.4837  0.3641
  491MOL0     C66182   3.509   8.333   5.772  0.4643  0.4622  0.5763
  491MOL0     C66183   3.590   8.218   5.781  0.6538  0.0470  0.5510
  491MOL0     C66184   3.635   8.153   5.662  0.1320 -0.0971  0.5810
  491MOL0     O66185   3.710   8.040   5.657  0.3977  0.5333  0.2095
  491MOL0     C66186   3.816   8.055   5.750 -0.4574  0.7003 -0.4153
  491MOL0     C66187   3.930   7.961   5.715 -0.6757  0.0292 -0.3741
  491MOL0     C66188   4.021   8.027   5.618  0.0063 -0.4865 -0.6520
  491MOL0     C66189   4.083   7.936   5.523 -0.3862 -0.3886 -0.1055
  491MOL0     C66190   4.209   8.009   5.476  0.1451 -0.6545 -0.2384
  491MOL0     C66191   4.291   7.907   5.396  0.8154  0.7043  0.0946
  491MOL0     C66192   4.231   7.884   5.262 -0.1253  0.3172  0.7853
  491MOL0     C66193   4.304   7.762   5.189  0.8043 -0.2340 -0.3428
  491MOL0    Cl66194   4.449   7.814   5.123  0.0724 -0.5072 -0.0969
  491MOL0     C66195   3.603   8.216   5.535  0.0032  0.6548 -0.3743
  491MOL0     C66196   3.513   8.322   5.534 -0.0874  0.1678 -0.0853
  491MOL0     O66197   3.201   8.370   5.566 -0.3132 -0.3721  0.5087
  491MOL0     C66198   3.254   8.723   5.566  0.5180  0.3017  0.3213
  491MOL0     C66199   3.188   8.842   5.534 -0.0514  0.8190 -0.1408
  491MOL0     N66200   3.203   9.111   5.043 -0.1128 -0.1906  0.0189
  491MOL0     N66201   3.131   9.085   4.945  0.5566  0.7847  0.3509
  491MOL0     C66202   2.047   8.849   4.408  0.2312 -0.3795  0.0862
  491MOL0     C66203   1.941   8.916   4.345 -0.0173  0.2924  0.1561
  491MOL0     C66204   1.612   9.235   4.369 -0.1391  0.1365 -1.3024
  491MOL0     C66205   1.482   9.209   4.421  0.5082 -0.4559  0.2674
  491MOL0     C66206   1.379   9.300   4.411 -0.5776 -0.9215  0.7029
  491MOL0     C66207   1.394   9.422   4.344  0.3077  1.5704 -0.5531
  491MOL0     O66208   1.279   9.496   4.329  0.2430 -0.6690  0.0876
  491MOL0     C66209   1.298   9.633   4.336 -0.1106  0.3458  0.1521
  491MOL0     C66210   1.159   9.678   4.285  0.0190  0.1413  0.0185
  491MOL0     C66211   1.143   9.650   4.132  0.4310 -0.3318 -0.4883
  491MOL0     C66212   1.005   9.680   4.074 -0.2077  0.1491  0.7814
  491MOL0     C66213   0.965   9.822   4.079  0.4820  0.1268  0.1340
  491MOL0     C66214   0.924   9.932   4.097 -0.1380 -0.2668 -0.0747
  491MOL0     C66215   1.519   9.448   4.295  0.2753  0.3962  0.0042
  491MOL0     C66216   1.629   9.358   4.310  0.1022  0.0969  0.9608
  491MOL0     C66217   1.757   9.401   4.253 -0.1017  0.4481  0.5970
  491MOL0     H66218   2.027   9.231   4.443  2.9374 -0.0886 -1.2673
  491MOL0     H66219   2.216   9.089   4.563 -0.2139  1.2247 -1.8013
  491MOL0     H66220   2.393   8.734   4.415  2.8350  0.3557  1.5677
  491MOL0     H66221   2.337   8.858   4.311  1.0333 -1.1238  0.1012
  491MOL0     H66222   2.445   9.032   4.464  0.7306  0.0779  0.0409
  491MOL0     H66223   2.555   8.939   4.365 -0.5638  0.9057  0.0590
  491MOL0     H66224   2.590   8.782   4.582 -0.9097 -0.3429 -2.3179
  491MOL0     H66225   2.475   8.877   4.665  0.7060  1.7252  0.4849
  491MOL0     H66226   2.724   8.988   4.527 -0.1227  1.1463  0.2418
  491MOL0     H66227   2.613   9.082   4.641 -0.2751  0.1509  0.6548
  491MOL0     H66228   2.691   8.944   4.817 -2.0206  0.7133 -1.2608
  491MOL0     H66229   2.781   8.839   4.696  1.6101  0.9059 -1.0587
  491MOL0     H66230   2.938   8.951   4.804 -2.3850 -2.8442  0.2114
  491MOL0     H66231   2.931   9.017   4.637  2.8529 -0.9942  1.7318
  491MOL0     H66232   2.819   9.150   4.874  1.0686 -2.2849  0.5656
  491MOL0     H66233   2.796   9.216   4.713 -0.1246 -0.9773 -1.8644
  491MOL0     H66234   3.052   9.190   4.684 -1.4054 -0.0405 -1.1858
  491MOL0     H66235   2.989   9.338   4.769 -1.3355 -0.4157  0.1313
  491MOL0     H66236   3.090   9.407   5.007 -0.8369 -0.1703  1.8453
  491MOL0     H66237   3.323   9.255   5.211  0.4109  0.0524  0.8317
  491MOL0     H66238   3.222   9.407   5.200  0.7154  0.1071 -2.6021
  491MOL0     H66239   3.185   9.302   5.427 -1.9542 -1.4218  2.3316
  491MOL0     H66240   3.038   9.302   5.324  1.4127  1.4849 -2.3188
  491MOL0     H66241   3.208   9.046   5.345 -0.0366 -1.2950 -0.4699
  491MOL0     H66242   3.058   9.086   5.259  1.8483  1.1600 -1.9639
  491MOL0     H66243   2.950   9.155   5.461  1.5393  3.1690  1.2773
  491MOL0     H66244   3.083   9.114   5.558 -1.3174  1.3206 -0.0759
  491MOL0     H66245   2.872   8.720   5.473  0.7096  0.9993 -0.7479
  491MOL0     H66246   2.982   8.496   5.532  0.2360 -0.2705  0.2373
  491MOL0     H66247   3.483   8.383   5.864 -0.8435  1.3069 -0.2202
  491MOL0     H66248   3.621   8.176   5.876  1.9120  4.6284  2.4582
  491MOL0     H66249   3.850   8.159   5.755  0.2011  0.4517  0.6101
  491MOL0     H66250   3.791   8.031   5.854  2.7509  0.8023  0.4929
  491MOL0     H66251   3.982   7.945   5.811 -2.3175  3.1550  1.1822
  491MOL0     H66252   3.891   7.864   5.684  0.9491 -1.2328  1.2739
  491MOL0     H66253   3.962   8.098   5.559 -1.7794 -0.2739  1.2912
  491MOL0     H66254   4.089   8.081   5.684 -1.4148 -0.2679  0.6946
  491MOL0     H66255   4.008   7.912   5.446  1.2031  2.1291 -2.6156
  491MOL0     H66256   4.102   7.847   5.584  2.1070 -0.0399 -0.3035
  491MOL0     H66257   4.267   8.035   5.565 -1.9539  2.8138  0.2678
  491MOL0     H66258   4.177   8.093   5.415 -1.4736 -2.5942 -2.2511
  491MOL0     H66259   4.398   7.929   5.390  0.8474  0.3052 -1.0812
  491MOL0     H66260   4.282   7.811   5.447  1.2379  0.2349 -0.6946
  491MOL0     H66261   4.222   7.974   5.200  2.6326  1.4743  1.9207
  491MOL0     H66262   4.129   7.851   5.283 -0.3304  1.7507  2.1637
  491MOL0     H66263   4.320   7.688   5.267 -1.9522 -2.1377 -1.4345
  491MOL0     H66264   4.236   7.718   5.115  0.9594  0.3273 -0.8302
  491MOL0     H66265   3.634   8.191   5.434 -0.8315  4.1700 -1.6398
  491MOL0     H66266   3.482   8.360   5.437  1.6630 -1.4784 -1.3805
  491MOL0     H66267   3.362   8.722   5.581  0.2310  0.0321  2.8909
  491MOL0     H66268   3.242   8.936   5.537  2.9069 -0.7947  1.0303
  491MOL0     H66269   2.056   8.741   4.400  0.4858 -0.3012 -0.8111
  491MOL0     H66270   1.871   8.851   4.293 -0.6564  0.2646  1.0314
  491MOL0     H66271   1.448   9.115   4.463  2.4113 -1.2491  0.1169
  491MOL0     H66272   1.279   9.269   4.441 -1.9452  0.8093 -1.6855
  491MOL0     H66273   1.362   9.675   4.258 -2.8581 -1.8479 -3.6312
  491MOL0     H66274   1.318   9.666   4.438 -0.5576 -1.5457  0.9063
  491MOL0     H66275   1.136   9.784   4.300 -0.4316 -0.2674  2.6503
  491MOL0     H66276   1.083   9.629   4.346 -0.3971 -0.8412 -1.2432
  491MOL0     H66277   1.159   9.545   4.106 -0.9135 -0.4869 -0.7499
  491MOL0     H66278   1.214   9.712   4.077  1.0748  1.0579  1.7722
  491MOL0     H66279   0.992   9.635   3.975 -0.6319 -0.4715  1.1159
  491MOL0     H66280   0.947   9.623   4.147 -0.1000 -1.9095 -0.6730
  491MOL0     H66281   0.879  10.027   4.121  0.2901 -0.5320  1.9733
  491MOL0     H66282   1.538   9.540   4.241  0.7069  0.1739 -0.2225
  491MOL0     H66283   1.838   9.358   4.312 -0.2495 -2.4388 -1.0704
  491MOL0     H66284   1.761   9.354   4.154  1.7625  3.2443 -0.7935
  491MOL0     H66285   1.768   9.509   4.244 -0.6357  0.7017  2.5677
  492MOL0     O66286   8.715   9.817   0.733 -0.4200 -0.1646 -0.5107
  492MOL0     C66287   8.694   9.749   0.835 -0.7199  0.0818 -0.1466
  492MOL0     O66288   8.786   9.717   0.934 -0.1297 -0.2844 -0.1857
  492MOL0     C66289   8.906   9.779   0.908  0.2396 -0.9267  0.9751
  492MOL0     C66290   8.957   9.897   0.971  0.3711 -0.4600  0.3297
  492MOL0     C66291   9.081   9.938   0.951 -0.7443  0.5345 -0.9283
  492MOL0     C66292   9.175   9.867   0.879 -0.0756  0.0896 -0.0687
  492MOL0     O66293   9.305   9.914   0.886 -0.1724 -0.0386  0.2033
  492MOL0     C66294   9.396   9.856   0.794 -0.3539  0.5452  0.6296
  492MOL0     C66295   9.528   9.888   0.847  0.3091  0.0497  0.2276
  492MOL0     C66296   9.657   9.820   0.782  1.1746 -0.9798  0.8474
  492MOL0     C66297   9.774   9.848   0.875 -0.0950  0.1658  0.1911
  492MOL0     C66298   9.916   9.839   0.810  0.0066  0.4610  0.0150
  492MOL0     C66299  10.044   9.861   0.894 -0.0942  0.7108  0.3806
  492MOL0     C66300  10.172   9.823   0.808  0.2404 -0.0430 -0.0087
  492MOL0     C66301  10.308   9.820   0.883  0.5222 -0.2018  0.0488
  492MOL0     N66302  10.421   9.796   0.800 -0.1162  0.1722 -0.6326
  492MOL0     C66303  10.497   9.884   0.731  0.1908  0.2586  0.8761
  492MOL0     C66304  10.595   9.810   0.661 -0.5523 -0.6303  0.5212
  492MOL0     C66305  10.714   9.852   0.573 -0.4891  0.2953  0.3466
  492MOL0     C66306  10.850   9.864   0.655  0.2797 -0.0826  0.0554
  492MOL0     C66307  10.836   9.900   0.803  0.0259  0.2370 -0.0891
  492MOL0     C66308  10.840   9.765   0.882  0.9389 -0.2070 -1.4418
  492MOL0     O66309  10.846   9.795   1.027  0.4727 -0.1052  0.4268
  492MOL0     C66310  10.972   9.791   1.072  0.1041 -0.0101 -0.9848
  492MOL0     C66311  11.045   9.673   1.079 -0.3682 -0.4968 -0.2889
  492MOL0     C66312  11.181   9.677   1.121  0.1177  0.1550 -0.2760
  492MOL0     C66313  11.246   9.801   1.136 -0.0833 -1.0802 -0.3488
  492MOL0     C66314  11.395   9.812   1.161 -0.3842 -0.8876  0.3864
  492MOL0     O66315  11.446   9.696   1.193 -1.1535  0.1030 -0.0080
  492MOL0     C66316  11.575   9.668   1.201 -0.8288  0.1664  0.1016
  492MOL0     C66317  11.644   9.720   1.307 -0.5860 -0.4334 -0.1485
  492MOL0     C66318  11.786   9.700   1.313 -0.0022  0.4795  0.2676
  492MOL0     C66319  11.845   9.613   1.211  0.5728 -0.0442 -0.0381
  492MOL0     O66320  11.969   9.564   1.200 -0.0057  0.3285  0.0843
  492MOL0     C66321  12.072   9.613   1.277 -0.0133 -0.6240  0.0079
  492MOL0     C66322  12.205   9.547   1.240 -0.2220 -0.1356  0.1762
  492MOL0     C66323  12.329   9.577   1.331  0.4833  0.1712 -0.0340
  492MOL0     C66324  12.449   9.494   1.290  0.6791  0.0970  0.5850
  492MOL0     C66325  12.573   9.510   1.384  0.5478  0.3669 -0.5088
  492MOL0     C66326  12.650   9.635   1.351 -0.4929  0.2207  0.6110
  492MOL0     C66327  12.792   9.640   1.411 -0.2768  0.2017 -0.4914
  492MOL0     C66328  12.891   9.522   1.377  0.0300  1.1856 -0.7236
  492MOL0    Cl66329  13.066   9.572   1.359  0.0438  0.0021  0.1291
  492MOL0     C66330  11.768   9.549   1.111 -0.1383 -0.3692  0.8156
  492MOL0     C66331  11.632   9.581   1.104 -0.1636 -0.4452  0.3944
  492MOL0     O66332  11.460   9.914   1.149 -0.1250 -0.0143  0.0467
  492MOL0     C66333  11.179   9.916   1.113  0.9997 -1.1586  0.0102
  492MOL0     C66334  11.042   9.915   1.085  0.4858  0.1306  0.2875
  492MOL0     N66335  10.565   9.673   0.687  0.4459 -0.5517  0.6833
  492MOL0     N66336  10.458   9.675   0.762 -0.3738  0.9834 -0.3694
  492MOL0     C66337   9.125   9.752   0.811 -0.9740 -0.1251 -0.6672
  492MOL0     C66338   8.995   9.701   0.832  0.4320 -0.0254 -0.1207
  492MOL0     C66339   8.560   9.699   0.859 -0.5424  0.7300  0.1198
  492MOL0     C66340   8.534   9.623   0.977 -0.2597 -0.1118  0.0757
  492MOL0     C66341   8.407   9.564   1.003  0.1031 -0.1362 -0.2679
  492MOL0     C66342   8.302   9.584   0.922  1.1975 -0.0950  1.2277
  492MOL0     O66343   8.181   9.529   0.959  0.3835  0.0528  0.0545
  492MOL0     C66344   8.061   9.556   0.886 -1.1479 -0.0821 -0.1286
  492MOL0     C66345   7.940   9.482   0.948 -0.7290 -0.5114 -0.0599
  492MOL0     C66346   7.803   9.509   0.888  0.7660  0.0755 -0.2242
  492MOL0     C66347   7.748   9.645   0.947  0.0778  0.2332  0.1944
  492MOL0     C66348   7.737   9.638   1.094 -0.4311 -0.3849  0.0231
  492MOL0     C66349   7.723   9.640   1.215 -0.7480 -0.5308 -1.0285
  492MOL0     C66350   8.328   9.655   0.798  0.4252  0.2035 -0.5553
  492MOL0     C66351   8.459   9.702   0.765  0.2297 -0.3720  0.8139
  492MOL0     C66352   8.472   9.745   0.619 -0.8483 -0.1257  0.3467
  492MOL0     H66353   8.883   9.957   1.023  0.6705  0.4709 -0.2955
  492MOL0     H66354   9.109  10.028   1.004 -1.1196 -0.3013  0.7741
  492MOL0     H66355   9.391   9.747   0.804 -1.9808  0.3612 -1.3908
  492MOL0     H66356   9.383   9.892   0.691  0.5857  1.9702  0.9914
  492MOL0     H66357   9.538   9.873   0.955  1.4956  4.4108  0.9129
  492MOL0     H66358   9.542   9.997   0.843 -0.8736  0.4960  3.9964
  492MOL0     H66359   9.666   9.846   0.676 -1.5821  0.5851  0.9133
  492MOL0     H66360   9.645   9.711   0.791 -1.8439 -0.7681  0.3956
  492MOL0     H66361   9.771   9.955   0.901  0.8346  0.8729 -2.2780
  492MOL0     H66362   9.755   9.794   0.968 -1.0938  1.2675  0.6591
  492MOL0     H66363   9.927   9.732   0.790  1.8553  0.7082 -0.5083
  492MOL0     H66364   9.930   9.899   0.720  0.3072  2.1712  1.1607
  492MOL0     H66365  10.044   9.969   0.914 -1.6252  1.0674 -1.2951
  492MOL0     H66366  10.041   9.799   0.984 -1.1284 -2.2956 -1.5864
  492MOL0     H66367  10.186   9.896   0.727 -0.7134  0.3401  0.1619
  492MOL0     H66368  10.158   9.725   0.762  0.6563  0.0173 -0.2719
  492MOL0     H66369  10.318   9.922   0.923 -0.8099 -0.0540  0.0495
  492MOL0     H66370  10.306   9.744   0.962 -3.3136  2.0041  2.4012
  492MOL0     H66371  10.485   9.992   0.731  1.0707  0.3823 -0.4774
  492MOL0     H66372  10.733   9.781   0.492 -3.0854 -0.3032  0.1732
  492MOL0     H66373  10.685   9.946   0.524 -0.1481 -0.0924 -0.6282
  492MOL0     H66374  10.888   9.762   0.651 -4.1607 -1.9949  1.0500
  492MOL0     H66375  10.908   9.940   0.601  2.8298 -0.3069  2.2545
  492MOL0     H66376  10.747   9.962   0.818  0.6504  1.8319 -2.3739
  492MOL0     H66377  10.919   9.965   0.833  1.1098 -0.8274 -0.6800
  492MOL0     H66378  10.924   9.706   0.844  2.0674 -0.4808  1.2512
  492MOL0     H66379  10.747   9.709   0.868 -0.8279  1.5867  1.7976
  492MOL0     H66380  10.992   9.582   1.054 -0.1197 -1.1092  1.3274
  492MOL0     H66381  11.231   9.581   1.133 -0.5239 -0.0492  0.8974
  492MOL0     H66382  11.589   9.777   1.381  1.0824  0.9828  0.0672
  492MOL0     H66383  11.843   9.735   1.397  2.3350 -4.4989  1.1346
  492MOL0     H66384  12.084   9.719   1.254  4.2542 -1.3250 -2.0326
  492MOL0     H66385  12.048   9.605   1.383 -0.8593  1.5878  0.0278
  492MOL0     H66386  12.189   9.439   1.232  0.1766 -0.3736  2.0743
  492MOL0     H66387  12.238   9.581   1.142 -0.5566 -0.9791 -0.2390
  492MOL0     H66388  12.351   9.684   1.320 -0.2270  0.1627 -1.9288
  492MOL0     H66389  12.302   9.561   1.436  1.5828  0.9530  0.3867
  492MOL0     H66390  12.475   9.525   1.188  0.2820  1.6071  0.9060
  492MOL0     H66391  12.433   9.387   1.278  0.9215  0.3709 -3.6713
  492MOL0     H66392  12.640   9.424   1.377 -0.3389 -0.6716  2.2323
  492MOL0     H66393  12.547   9.509   1.490  1.2761 -1.2425 -0.3147
  492MOL0     H66394  12.671   9.635   1.244  2.3900  2.0065  1.0586
  492MOL0     H66395  12.589   9.722   1.379  0.0386 -0.1439  3.1049
  492MOL0     H66396  12.793   9.638   1.521  2.6850 -1.9723 -0.4235
  492MOL0     H66397  12.834   9.739   1.392 -1.5364  0.4887 -1.9664
  492MOL0     H66398  12.896   9.446   1.456  0.5473  0.9800 -0.9460
  492MOL0     H66399  12.864   9.479   1.280  0.8753  2.5071 -1.5688
  492MOL0     H66400  11.820   9.475   1.051  0.3785  0.0320  0.7662
  492MOL0     H66401  11.572   9.544   1.022 -1.3254  2.1948 -0.0230
  492MOL0     H66402  11.212  10.019   1.120 -2.2283  0.0262 -0.2926
  492MOL0     H66403  10.989  10.005   1.056 -2.2494 -0.5106  2.8550
  492MOL0     H66404   9.190   9.697   0.744  1.5128  0.3456  1.1990
  492MOL0     H66405   8.963   9.609   0.784  0.1879  0.0135 -0.0371
  492MOL0     H66406   8.603   9.612   1.060 -0.0980 -1.9798 -0.2645
  492MOL0     H66407   8.393   9.500   1.090 -0.2843  0.8968  0.4425
  492MOL0     H66408   8.064   9.516   0.784 -1.3488  1.0172 -0.5867
  492MOL0     H66409   8.036   9.663   0.883  0.7807  0.3834 -2.3169
  492MOL0     H66410   7.939   9.518   1.052 -1.3841 -0.8649  0.0632
  492MOL0     H66411   7.952   9.374   0.952 -1.5520 -0.6218 -0.4686
  492MOL0     H66412   7.734   9.428   0.915 -0.3889  1.0509 -0.1799
  492MOL0     H66413   7.799   9.507   0.779  0.7024  1.3049 -0.2624
  492MOL0     H66414   7.816   9.728   0.928 -1.0168  0.8855 -1.0167
  492MOL0     H66415   7.649   9.663   0.905 -0.1585 -0.9325  0.2133
  492MOL0     H66416   7.705   9.645   1.320  2.1412 -1.3836 -0.4002
  492MOL0     H66417   8.240   9.668   0.735 -0.3725  0.0466  0.4987
  492MOL0     H66418   8.563   9.700   0.579 -0.1371 -0.2619  2.0517
  492MOL0     H66419   8.393   9.711   0.550  0.4143 -0.0537 -1.1950
  492MOL0     H66420   8.477   9.854   0.615  1.4762 -0.1960  0.3090
  493MOL0     O66421   1.580   9.021   4.959 -0.8493 -0.0709  0.5560
  493MOL0     C66422   1.543   8.907   4.987  0.4915 -1.0943 -0.6204
  493MOL0     O66423   1.587   8.838   5.092 -1.1169 -0.2954  0.1830
  493MOL0     C66424   1.692   8.886   5.168 -0.6972 -0.4209 -0.5476
  493MOL0     C66425   1.829   8.855   5.162 -0.6133 -0.7664 -0.0889
  493MOL0     C66426   1.918   8.940   5.235 -0.4336 -0.5063  0.6653
  493MOL0     C66427   1.879   9.047   5.312 -0.4921  0.0178 -0.6027
  493MOL0     O66428   1.967   9.130   5.379  0.5784 -0.4739  0.2991
  493MOL0     C66429   2.107   9.088   5.387  0.0904  0.0436  0.4244
  493MOL0     C66430   2.185   9.200   5.448 -0.5815  0.5026  0.2706
  493MOL0     C66431   2.173   9.206   5.596 -0.5186 -0.1949  0.3754
  493MOL0     C66432   2.254   9.317   5.653 -0.0951  0.3443 -1.1035
  493MOL0     C66433   2.185   9.370   5.787  0.5783  0.8025  0.3835
  493MOL0     C66434   2.215   9.269   5.900  0.2017 -0.2220 -0.6177
  493MOL0     C66435   2.163   9.322   6.040 -0.4220 -0.4193  0.5425
  493MOL0     C66436   2.193   9.235   6.157 -0.1763 -0.7279 -0.3356
  493MOL0     N66437   2.306   9.279   6.236 -0.4944  0.2126 -0.1456
  493MOL0     C66438   2.294   9.359   6.350  0.3165  0.1602  0.6466
  493MOL0     C66439   2.420   9.344   6.405  0.0539  0.2436  0.3016
  493MOL0     C66440   2.458   9.396   6.544  0.7779  0.5659 -0.0361
  493MOL0     C66441   2.573   9.496   6.542 -0.4076 -0.3939  0.7868
  493MOL0     C66442   2.711   9.419   6.512  0.6518 -0.5312 -0.2736
  493MOL0     C66443   2.759   9.444   6.375  0.4354 -0.4702  0.4951
  493MOL0     O66444   2.858   9.351   6.323 -0.3819 -0.0843 -0.1754
  493MOL0     C66445   2.988   9.386   6.306  0.2678  0.0505 -0.7213
  493MOL0     C66446   3.056   9.327   6.201 -0.8509 -0.4627  0.5424
  493MOL0     C66447   3.191   9.372   6.176  0.2805  0.1442  0.0554
  493MOL0     C66448   3.261   9.449   6.276 -0.1436  0.6069  0.6966
  493MOL0     C66449   3.409   9.476   6.258  0.5078 -0.8427  0.3476
  493MOL0     O66450   3.461   9.428   6.145  0.1493  0.4168  0.5674
  493MOL0     C66451   3.588   9.456   6.106 -0.7535  1.0565 -0.5879
  493MOL0     C66452   3.697   9.482   6.191  0.7033  0.5305 -1.1835
  493MOL0     C66453   3.814   9.524   6.140  0.1623 -0.0333  0.3660
  493MOL0     C66454   3.839   9.529   6.002  0.1568  0.1150 -0.2909
  493MOL0     O66455   3.965   9.560   5.963 -0.2395  0.0061 -0.0053
  493MOL0     C66456   3.986   9.614   5.836  0.3532  0.1468  0.4932
  493MOL0     C66457   4.125   9.661   5.813 -0.6061 -0.2696  0.1410
  493MOL0     C66458   4.224   9.549   5.851  0.5224 -0.6503  0.2794
  493MOL0     C66459   4.364   9.604   5.827  0.4212 -0.3257  0.1001
  493MOL0     C66460   4.422   9.698   5.939 -1.4286  0.0972 -0.1705
  493MOL0     C66461   4.572   9.742   5.903  0.1705 -0.0142 -0.5524
  493MOL0     C66462   4.618   9.814   6.034  0.0617 -0.2571 -0.3533
  493MOL0     C66463   4.763   9.859   6.014  1.1457  0.3262 -0.8164
  493MOL0    Cl66464   4.883   9.753   5.936 -0.4072  0.2899 -0.0263
  493MOL0     C66465   3.730   9.498   5.912 -0.4125  0.1396 -0.7897
  493MOL0     C66466   3.603   9.467   5.966 -0.5738  0.9425 -1.1565
  493MOL0     O66467   3.463   9.552   6.341  0.3512  1.0514 -0.1368
  493MOL0     C66468   3.194   9.499   6.384  0.4035  0.6873  0.1934
  493MOL0     C66469   3.057   9.467   6.401  0.5175  0.4808 -1.0460
  493MOL0     N66470   2.501   9.268   6.322 -0.2997  0.7656  0.4322
  493MOL0     N66471   2.428   9.225   6.218  0.0326 -0.2875 -0.3862
  493MOL0     C66472   1.745   9.068   5.329  0.0687  0.5038  0.0863
  493MOL0     C66473   1.652   8.988   5.261  0.1103 -0.0396 -0.8815
  493MOL0     C66474   1.417   8.857   4.916  0.1713  0.1106 -0.2528
  493MOL0     C66475   1.370   8.727   4.961  0.1134 -0.0214  0.0397
  493MOL0     C66476   1.245   8.682   4.933 -0.1435  0.3805  0.0173
  493MOL0     C66477   1.168   8.748   4.845 -0.2345 -0.2913  0.5602
  493MOL0     O66478   1.048   8.719   4.804  0.6687 -0.2641 -0.1201
  493MOL0     C66479   1.005   8.584   4.811 -0.4341 -0.4994 -0.3620
  493MOL0     C66480   0.871   8.561   4.746  0.3076  0.1594  0.3712
  493MOL0     C66481   0.857   8.411   4.708 -0.5476 -0.3099  0.7261
  493MOL0     C66482   0.716   8.386   4.652 -0.1394 -0.1710  0.5399
  493MOL0     C66483   0.616   8.351   4.749  1.3140 -0.1427  0.0455
  493MOL0     C66484   0.520   8.334   4.829 -1.4882 -0.0715  0.4772
  493MOL0     C66485   1.213   8.871   4.788  0.8527 -0.5367  0.0259
  493MOL0     C66486   1.339   8.919   4.815 -1.1076 -0.3028  0.1941
  493MOL0     C66487   1.380   9.053   4.758 -0.0187  0.2345  0.3108
  493MOL0     H66488   1.858   8.770   5.100 -0.9374 -1.2174  0.3634
  493MOL0     H66489   2.023   8.918   5.222 -0.8104 -2.4415  0.6077
  493MOL0     H66490   2.122   8.995   5.441 -0.3036 -0.3927 -0.2010
  493MOL0     H66491   2.148   9.061   5.290  1.9314  0.5237  1.0353
  493MOL0     H66492   2.147   9.292   5.402 -2.4037 -1.8733 -3.5108
  493MOL0     H66493   2.289   9.180   5.418 -0.3577  1.1541  0.6001
  493MOL0     H66494   2.194   9.108   5.641 -0.4919 -0.7832 -0.8761
  493MOL0     H66495   2.066   9.212   5.621 -0.6985 -3.0520  0.5797
  493MOL0     H66496   2.355   9.285   5.679  0.2290  0.8415 -1.7018
  493MOL0     H66497   2.258   9.404   5.586 -0.0929  1.0848 -0.1581
  493MOL0     H66498   2.216   9.472   5.808 -0.3904  1.4490 -1.1827
  493MOL0     H66499   2.077   9.375   5.775  0.3796 -2.7733 -0.6440
  493MOL0     H66500   2.167   9.175   5.869 -1.0173 -0.3454  1.4663
  493MOL0     H66501   2.322   9.250   5.899  0.4878  1.0895  1.4119
  493MOL0     H66502   2.056   9.344   6.042 -0.0821  1.3147  2.7126
  493MOL0     H66503   2.215   9.418   6.049 -2.4615  0.9774 -1.3074
  493MOL0     H66504   2.108   9.224   6.225  0.8260 -0.0151  1.0815
  493MOL0     H66505   2.222   9.135   6.124  1.1327 -1.4899  2.8209
  493MOL0     H66506   2.203   9.395   6.397 -0.2619 -1.1040  0.5394
  493MOL0     H66507   2.373   9.449   6.589 -0.4387 -1.1486 -0.2303
  493MOL0     H66508   2.469   9.305   6.602 -3.8074  0.4002  0.9650
  493MOL0     H66509   2.555   9.577   6.470  0.7044 -2.0150 -1.4259
  493MOL0     H66510   2.585   9.551   6.635 -0.6063  1.6078 -0.3020
  493MOL0     H66511   2.686   9.313   6.522  0.5021 -0.5291 -0.6177
  493MOL0     H66512   2.778   9.443   6.594 -1.7668 -1.2531  2.0778
  493MOL0     H66513   2.806   9.542   6.365  0.2509 -0.5290 -1.4394
  493MOL0     H66514   2.681   9.466   6.301 -0.1420  0.0892  1.2575
  493MOL0     H66515   2.999   9.271   6.127  0.8179 -2.1455  0.4737
  493MOL0     H66516   3.246   9.353   6.084  2.3746  1.2327  1.0041
  493MOL0     H66517   3.692   9.479   6.299 -1.6422  1.0402 -1.2240
  493MOL0     H66518   3.887   9.568   6.207 -2.2294  2.5385  1.4843
  493MOL0     H66519   3.972   9.529   5.769  0.4253  0.1501  0.4736
  493MOL0     H66520   3.918   9.696   5.810  1.1583  2.6392  5.1632
  493MOL0     H66521   4.137   9.696   5.711 -0.1102 -0.7843  0.0191
  493MOL0     H66522   4.146   9.747   5.877  1.4393 -2.3279  2.4561
  493MOL0     H66523   4.220   9.516   5.955  2.0391 -0.6297  0.3661
  493MOL0     H66524   4.207   9.453   5.801 -1.1728  0.2402 -0.9229
  493MOL0     H66525   4.374   9.657   5.731  2.9415  0.2035  0.5679
  493MOL0     H66526   4.424   9.515   5.806 -0.8035 -0.4883 -3.2590
  493MOL0     H66527   4.425   9.642   6.033 -0.1193  0.3266 -0.0615
  493MOL0     H66528   4.351   9.781   5.953 -2.9048 -1.1591  0.0163
  493MOL0     H66529   4.623   9.647   5.887 -1.4867 -0.5734 -2.9661
  493MOL0     H66530   4.566   9.809   5.817 -2.3963 -0.6650 -0.9711
  493MOL0     H66531   4.623   9.735   6.109  0.2015  1.5011  1.5565
  493MOL0     H66532   4.551   9.896   6.059  1.2675  1.0822 -1.3364
  493MOL0     H66533   4.757   9.949   5.952  1.3147  1.3005  0.5343
  493MOL0     H66534   4.806   9.894   6.108  0.9487 -0.3636 -0.4689
  493MOL0     H66535   3.751   9.500   5.806 -2.5985 -0.6229 -1.2819
  493MOL0     H66536   3.515   9.457   5.904 -0.3074  1.1422 -1.5731
  493MOL0     H66537   3.246   9.564   6.454 -1.4599  0.2329  2.1247
  493MOL0     H66538   3.007   9.491   6.494 -2.4966 -0.5466 -2.2901
  493MOL0     H66539   1.717   9.131   5.414 -0.5672 -0.4673  0.6148
  493MOL0     H66540   1.546   9.007   5.273  0.2328 -1.3744  5.4815
  493MOL0     H66541   1.430   8.674   5.035  1.6134 -0.8906 -1.7196
  493MOL0     H66542   1.212   8.587   4.974  3.7982 -2.1398 -1.9850
  493MOL0     H66543   0.989   8.556   4.916 -2.3731  0.8793 -0.2436
  493MOL0     H66544   1.085   8.522   4.769  1.9609  0.9988  1.6216
  493MOL0     H66545   0.868   8.629   4.661  1.8550  0.9886  0.9483
  493MOL0     H66546   0.788   8.592   4.810  0.0285  1.5570 -0.6133
  493MOL0     H66547   0.881   8.340   4.788  0.7577  0.4716  1.0462
  493MOL0     H66548   0.926   8.392   4.625  1.3572  2.7672  1.4766
  493MOL0     H66549   0.679   8.470   4.593 -0.7076 -1.0712 -0.4063
  493MOL0     H66550   0.728   8.306   4.579 -1.2789  1.0265 -1.0329
  493MOL0     H66551   0.443   8.319   4.901  0.7002 -1.7980  2.6162
  493MOL0     H66552   1.153   8.934   4.724 -2.6681  0.4001  3.8254
  493MOL0     H66553   1.326   9.091   4.672  1.1573  1.6102  0.1301
  493MOL0     H66554   1.393   9.129   4.836 -1.4830 -1.1384  1.9606
  493MOL0     H66555   1.480   9.032   4.717 -0.2863 -0.1384 -0.1547
  494MOL0     O66556   5.143   2.909   4.328  0.0223  0.0993  0.5417
  494MOL0     C66557   5.173   2.996   4.409 -0.3580  0.2653 -0.4664
  494MOL0     O66558   5.302   3.035   4.437  0.2284 -0.1139 -0.1942
  494MOL0     C66559   5.402   2.970   4.365  0.1007 -0.2661  0.1432
  494MOL0     C66560   5.432   2.833   4.386  0.0621 -0.0561  0.0005
  494MOL0     C66561   5.543   2.786   4.320  0.1728  0.1054  0.0613
  494MOL0     C66562   5.615   2.862   4.226 -0.7332  1.1423  0.0800
  494MOL0     O66563   5.724   2.799   4.166  0.2122 -0.1065  0.4189
  494MOL0     C66564   5.821   2.882   4.111  0.3666  1.1887 -0.3337
  494MOL0     C66565   5.942   2.797   4.102  0.2636 -0.2604  0.6538
  494MOL0     C66566   6.065   2.878   4.067 -0.3469 -0.7511 -0.2843
  494MOL0     C66567   6.070   2.931   3.930 -0.4587 -0.2524 -0.5882
  494MOL0     C66568   6.058   2.831   3.818 -0.5846 -0.3472  0.1296
  494MOL0     C66569   6.160   2.716   3.817 -0.0699  0.2552  0.1321
  494MOL0     C66570   6.310   2.755   3.812  0.3790  0.4022 -0.2432
  494MOL0     C66571   6.345   2.842   3.697  0.1362 -1.4767  0.1009
  494MOL0     N66572   6.485   2.885   3.712 -0.4034  0.0315 -0.4099
  494MOL0     C66573   6.595   2.813   3.675  0.2696 -0.4267 -0.7708
  494MOL0     C66574   6.694   2.888   3.721  0.0956  0.5775 -0.0213
  494MOL0     C66575   6.834   2.852   3.709 -0.0741 -0.2496  0.5193
  494MOL0     C66576   6.888   2.886   3.568  0.1701 -0.0538  0.3841
  494MOL0     C66577   6.922   3.036   3.550  1.1450  0.0924 -0.2514
  494MOL0     C66578   6.980   3.068   3.419 -0.2313 -0.3219 -0.2592
  494MOL0     O66579   7.107   2.999   3.434  0.0347 -0.2217  0.6572
  494MOL0     C66580   7.209   3.042   3.359  0.5711 -0.5914  0.3522
  494MOL0     C66581   7.234   3.173   3.309  0.8572  1.0787  0.0893
  494MOL0     C66582   7.357   3.205   3.265 -0.0132 -0.1810  0.3423
  494MOL0     C66583   7.459   3.114   3.245  0.0972  1.3014 -0.3081
  494MOL0     C66584   7.594   3.146   3.199  0.3100 -0.1733 -0.1802
  494MOL0     O66585   7.666   3.060   3.124  0.5035 -0.0575  0.1853
  494MOL0     C66586   7.784   3.113   3.061  0.4116  0.4508 -0.2101
  494MOL0     C66587   7.767   3.185   2.944 -0.8739 -0.1553  0.1669
  494MOL0     C66588   7.880   3.216   2.866 -0.4139  0.2242 -0.0684
  494MOL0     C66589   8.007   3.177   2.901 -0.5161 -0.8679  0.2831
  494MOL0     O66590   8.126   3.202   2.831 -0.0214 -0.1517 -0.4845
  494MOL0     C66591   8.108   3.216   2.691 -0.1908  0.7612  0.7921
  494MOL0     C66592   8.242   3.224   2.621  0.3915 -0.2274 -0.2223
  494MOL0     C66593   8.345   3.123   2.684  0.1642 -0.0743 -0.1663
  494MOL0     C66594   8.452   3.075   2.580  0.6900  0.7146  0.0768
  494MOL0     C66595   8.515   2.941   2.624  0.0839 -1.5619  0.7404
  494MOL0     C66596   8.572   2.944   2.763  0.0864 -0.9256  0.8220
  494MOL0     C66597   8.655   2.822   2.790  0.2216  0.1450  0.2766
  494MOL0     C66598   8.774   2.830   2.703 -0.3249  0.6780  0.0499
  494MOL0    Cl66599   8.880   2.700   2.758  0.4365  0.0969 -0.2208
  494MOL0     C66600   8.020   3.105   3.027 -0.2041 -0.1606  0.2684
  494MOL0     C66601   7.910   3.066   3.096 -0.1072 -0.3537  0.2518
  494MOL0     O66602   7.636   3.253   3.239 -0.3832  0.2061 -0.6051
  494MOL0     C66603   7.434   2.976   3.274  0.8739  0.2939  0.1073
  494MOL0     C66604   7.308   2.943   3.335  0.5366 -0.0734  0.5964
  494MOL0     N66605   6.650   3.006   3.784 -0.2261  0.2862 -0.0273
  494MOL0     N66606   6.524   3.006   3.771  0.4071  0.3807  0.4337
  494MOL0     C66607   5.585   2.995   4.208  0.4980 -0.6083  0.0718
  494MOL0     C66608   5.470   3.048   4.273  0.7447 -0.3972 -0.5028
  494MOL0     C66609   5.067   3.056   4.496  0.6344 -0.3531  0.6967
  494MOL0     C66610   5.067   3.196   4.527  0.5113 -0.4224  0.7653
  494MOL0     C66611   4.971   3.254   4.607  0.4906 -0.7162  0.1619
  494MOL0     C66612   4.868   3.180   4.657 -1.4688 -0.3567  0.4821
  494MOL0     O66613   4.772   3.247   4.720  0.4861 -0.2810 -0.4348
  494MOL0     C66614   4.646   3.262   4.653 -0.1102  0.6522  0.9796
  494MOL0     C66615   4.636   3.341   4.529  0.3675  0.7535  0.3588
  494MOL0     C66616   4.658   3.485   4.554 -0.4139 -0.4190 -0.0156
  494MOL0     C66617   4.520   3.560   4.557 -0.0513  0.0007  0.1790
  494MOL0     C66618   4.552   3.703   4.570  0.3652 -0.8779  0.0011
  494MOL0     C66619   4.584   3.825   4.575  0.2645 -0.2460 -0.7473
  494MOL0     C66620   4.863   3.048   4.629 -0.7802 -0.2004  0.8225
  494MOL0     C66621   4.949   2.981   4.542  0.2575 -0.5709  0.4216
  494MOL0     C66622   4.921   2.845   4.500 -0.6896 -0.5460 -0.2436
  494MOL0     H66623   5.372   2.783   4.461  1.3013  0.6939  1.5582
  494MOL0     H66624   5.571   2.684   4.344 -4.6306 -1.2210  1.2285
  494MOL0     H66625   5.793   2.919   4.012  0.0670 -1.7064 -1.4455
  494MOL0     H66626   5.850   2.956   4.186  1.3591 -2.4952  3.2649
  494MOL0     H66627   5.935   2.718   4.027  2.4213  0.9192 -0.8841
  494MOL0     H66628   5.957   2.739   4.194  0.8989 -1.0582  0.0570
  494MOL0     H66629   6.146   2.807   4.087 -0.8840 -1.4298 -0.5061
  494MOL0     H66630   6.078   2.966   4.131  0.4320  0.4004 -1.9512
  494MOL0     H66631   5.993   3.008   3.923  0.2538  0.6105  0.6609
  494MOL0     H66632   6.166   2.981   3.909 -1.1070  0.4984 -1.9553
  494MOL0     H66633   5.958   2.787   3.815 -0.5478 -0.4462  0.3557
  494MOL0     H66634   6.056   2.887   3.724  3.1974  1.3984  0.8894
  494MOL0     H66635   6.158   2.655   3.908 -1.2037  0.1430  0.0416
  494MOL0     H66636   6.133   2.645   3.739  3.6511 -0.8458 -0.3262
  494MOL0     H66637   6.371   2.664   3.803 -1.6435 -1.1640  1.1573
  494MOL0     H66638   6.335   2.801   3.908 -0.2292 -2.3753  1.3375
  494MOL0     H66639   6.318   2.806   3.597 -1.6983 -1.8507  0.6966
  494MOL0     H66640   6.291   2.937   3.705 -1.1959 -2.2063 -0.0889
  494MOL0     H66641   6.592   2.721   3.617 -2.7485 -2.3161  2.0439
  494MOL0     H66642   6.898   2.891   3.788 -1.4583 -1.6540  2.4199
  494MOL0     H66643   6.847   2.745   3.731  1.8003  0.2537  2.1310
  494MOL0     H66644   6.984   2.832   3.570 -0.4249 -1.3751 -2.2423
  494MOL0     H66645   6.829   2.844   3.486 -1.9556  2.7015  0.3857
  494MOL0     H66646   6.987   3.066   3.634  1.0377 -1.2629  0.3393
  494MOL0     H66647   6.832   3.097   3.560  1.6813  0.8953 -0.1665
  494MOL0     H66648   6.978   3.176   3.402 -4.0346 -0.2211  0.1263
  494MOL0     H66649   6.931   3.021   3.333  0.2081 -1.5481  0.1310
  494MOL0     H66650   7.154   3.246   3.320  0.7544  1.3741 -2.2748
  494MOL0     H66651   7.370   3.308   3.233  1.1357  0.7293  3.4019
  494MOL0     H66652   7.673   3.227   2.910 -0.5907  0.8274  0.5476
  494MOL0     H66653   7.864   3.252   2.764 -0.3214 -2.3023 -1.0454
  494MOL0     H66654   8.058   3.132   2.642 -2.2432  2.3351  0.0445
  494MOL0     H66655   8.055   3.303   2.651 -0.4288 -1.5056 -4.7268
  494MOL0     H66656   8.239   3.210   2.512  0.6322  1.3065 -0.4474
  494MOL0     H66657   8.276   3.327   2.637 -1.4752 -0.1331  5.1490
  494MOL0     H66658   8.401   3.166   2.767  2.5306 -1.7916 -0.7354
  494MOL0     H66659   8.287   3.034   2.711  0.0394  0.0768  0.0691
  494MOL0     H66660   8.526   3.155   2.577  0.0569  1.3199  0.2765
  494MOL0     H66661   8.401   3.059   2.484  1.1522  3.6935 -0.7464
  494MOL0     H66662   8.591   2.921   2.547  0.5175 -0.2319  0.8035
  494MOL0     H66663   8.440   2.862   2.619 -1.0267 -0.4425 -1.2019
  494MOL0     H66664   8.645   3.022   2.784  0.5973 -1.1010 -0.2349
  494MOL0     H66665   8.485   2.945   2.830 -2.6410  0.8616 -2.4252
  494MOL0     H66666   8.599   2.732   2.763  0.9647  0.0333 -0.9602
  494MOL0     H66667   8.688   2.829   2.894 -0.1441  0.2959  0.3853
  494MOL0     H66668   8.748   2.810   2.599 -0.2666 -0.2521  0.2020
  494MOL0     H66669   8.813   2.930   2.720  0.1632  1.1144 -3.1352
  494MOL0     H66670   8.120   3.072   3.055  0.3764  3.2050  2.8608
  494MOL0     H66671   7.915   3.009   3.188  2.5091 -0.0323  0.3747
  494MOL0     H66672   7.500   2.893   3.249 -1.1133 -1.6207  0.8258
  494MOL0     H66673   7.296   2.840   3.369 -1.1311  0.5640  2.1043
  494MOL0     H66674   5.642   3.055   4.138  0.1327 -0.5208 -0.1505
  494MOL0     H66675   5.446   3.151   4.250  2.4410 -0.1811 -1.4619
  494MOL0     H66676   5.156   3.245   4.491  0.8921 -1.0460  0.8422
  494MOL0     H66677   4.976   3.358   4.639 -0.7702 -0.7486  0.5334
  494MOL0     H66678   4.579   3.317   4.721 -1.6310  0.6637 -0.4664
  494MOL0     H66679   4.606   3.163   4.634 -2.6213  1.5094  1.4509
  494MOL0     H66680   4.540   3.327   4.478  0.5693  1.9271 -0.3892
  494MOL0     H66681   4.723   3.307   4.474 -0.6562 -2.6080  0.5772
  494MOL0     H66682   4.719   3.522   4.471 -1.8189 -1.5327 -1.6295
  494MOL0     H66683   4.719   3.493   4.644  1.2345  0.3964 -1.1518
  494MOL0     H66684   4.474   3.560   4.458  0.9587  1.5877 -0.3273
  494MOL0     H66685   4.458   3.526   4.641  0.8173 -0.0309  0.8121
  494MOL0     H66686   4.611   3.928   4.585  0.1912 -0.1656 -1.3543
  494MOL0     H66687   4.773   3.003   4.670 -0.9862 -0.3063  0.2605
  494MOL0     H66688   4.855   2.847   4.412  0.3692 -2.0536 -1.1221
  494MOL0     H66689   5.003   2.773   4.496 -1.3429 -1.2566 -2.2279
  494MOL0     H66690   4.862   2.798   4.579  0.2044 -1.6113 -0.1854
  495MOL0     O66691   9.454   2.719   1.505 -0.4778  0.0997 -0.2763
  495MOL0     C66692   9.362   2.800   1.499  0.0846  0.1044 -0.5120
  495MOL0     O66693   9.372   2.923   1.441  0.5463 -0.1102 -0.5494
  495MOL0     C66694   9.489   2.950   1.378 -0.3126  0.0588 -0.4430
  495MOL0     C66695   9.481   2.992   1.239 -0.4544 -0.0491 -1.1004
  495MOL0     C66696   9.596   3.025   1.171 -0.2706 -0.1822 -0.8140
  495MOL0     C66697   9.727   3.025   1.231  0.1278 -0.5245  0.1446
  495MOL0     O66698   9.826   3.061   1.147  0.5370 -0.3777 -0.5352
  495MOL0     C66699   9.835   2.982   1.030 -0.5534  1.4147  0.0230
  495MOL0     C66700   9.983   2.950   0.984 -0.1506  0.1539  0.2679
  495MOL0     C66701  10.066   2.907   1.104 -0.4573  0.0456  0.0968
  495MOL0     C66702  10.214   2.905   1.048 -0.3072  0.2738 -0.0980
  495MOL0     C66703  10.320   2.872   1.158  0.3452 -0.1443  0.5487
  495MOL0     C66704  10.466   2.909   1.119  0.0275  0.6455  0.5730
  495MOL0     C66705  10.566   2.866   1.228 -0.6644  0.2640 -0.1640
  495MOL0     C66706  10.715   2.895   1.184  0.3064 -0.4714  0.5676
  495MOL0     N66707  10.742   3.043   1.172  0.1159  0.2951 -0.1142
  495MOL0     C66708  10.819   3.109   1.257 -1.0359 -0.9693  0.0698
  495MOL0     C66709  10.847   3.229   1.203  0.5012 -0.4719  0.5082
  495MOL0     C66710  10.903   3.355   1.260 -0.9575 -0.0579  0.4111
  495MOL0     C66711  11.048   3.378   1.226 -0.1207  0.1144  0.7486
  495MOL0     C66712  11.155   3.305   1.313 -0.1902 -0.2203  0.5432
  495MOL0     C66713  11.290   3.323   1.240  0.5706  0.3187 -0.6705
  495MOL0     O66714  11.387   3.256   1.308  0.8882  0.0366 -1.0227
  495MOL0     C66715  11.515   3.265   1.274  0.1723  0.9364 -0.4256
  495MOL0     C66716  11.571   3.324   1.163 -0.4099  0.3624 -0.0212
  495MOL0     C66717  11.708   3.336   1.141  0.3161  0.1848  1.2701
  495MOL0     C66718  11.800   3.283   1.230 -0.4525 -0.5245  0.8922
  495MOL0     C66719  11.947   3.299   1.212  0.2443 -0.8971 -0.2652
  495MOL0     O66720  12.021   3.275   1.325 -0.1604 -0.0809  0.8604
  495MOL0     C66721  12.155   3.283   1.304  0.5882  1.0443 -0.8602
  495MOL0     C66722  12.216   3.403   1.326 -0.2418 -0.9865 -1.2539
  495MOL0     C66723  12.355   3.415   1.314 -0.3871 -0.2205 -0.1192
  495MOL0     C66724  12.441   3.307   1.288 -0.9198  0.1311 -0.2092
  495MOL0     O66725  12.576   3.309   1.282 -0.0694 -0.1054  0.3789
  495MOL0     C66726  12.650   3.432   1.267  0.2411 -0.9707  1.3398
  495MOL0     C66727  12.732   3.470   1.384 -0.2824 -0.3791  0.2517
  495MOL0     C66728  12.881   3.433   1.370  0.4321  0.3444  0.7467
  495MOL0     C66729  12.975   3.523   1.454  1.2442  0.4234  0.2783
  495MOL0     C66730  13.126   3.502   1.439  1.0447  0.7181  0.1887
  495MOL0     C66731  13.206   3.569   1.550 -0.5486  0.4359 -0.4951
  495MOL0     C66732  13.354   3.582   1.533  0.7865 -0.1985 -0.2794
  495MOL0     C66733  13.426   3.452   1.550  0.6343 -0.7787  0.3030
  495MOL0    Cl66734  13.604   3.463   1.514  0.4220  0.0352 -0.0525
  495MOL0     C66735  12.381   3.184   1.292  0.0153  0.4059 -0.2554
  495MOL0     C66736  12.239   3.168   1.304  0.1097  0.2950  0.8801
  495MOL0     O66737  11.990   3.343   1.104 -0.0352  0.6670 -0.7200
  495MOL0     C66738  11.745   3.211   1.341 -0.5325  0.1037 -0.3619
  495MOL0     C66739  11.607   3.201   1.359  0.0685 -0.5756 -0.5351
  495MOL0     N66740  10.786   3.225   1.073 -0.7051  0.1685 -0.8109
  495MOL0     N66741  10.717   3.118   1.061  0.4824 -0.4084 -0.2279
  495MOL0     C66742   9.732   2.992   1.366 -0.0819  0.5930 -0.2474
  495MOL0     C66743   9.611   2.953   1.441  0.3428 -0.2133 -0.2989
  495MOL0     C66744   9.232   2.766   1.556 -0.2110  0.6656 -0.4635
  495MOL0     C66745   9.149   2.873   1.597 -0.4310 -0.6095 -0.5460
  495MOL0     C66746   9.029   2.846   1.657  0.4253 -0.1341 -0.0736
  495MOL0     C66747   8.984   2.715   1.679 -0.2519 -0.2674  0.4298
  495MOL0     O66748   8.865   2.691   1.744  0.0896  1.0039 -0.3832
  495MOL0     C66749   8.761   2.795   1.746 -0.4469 -0.8263  0.3046
  495MOL0     C66750   8.637   2.717   1.742  0.1201  0.3357  0.0721
  495MOL0     C66751   8.612   2.615   1.852  0.4737  0.1768  0.0905
  495MOL0     C66752   8.470   2.606   1.893  0.6345 -0.7173 -0.3300
  495MOL0     C66753   8.383   2.535   1.804  0.4711  0.2573  1.1998
  495MOL0     C66754   8.306   2.477   1.731 -1.3582 -0.8843 -0.1106
  495MOL0     C66755   9.063   2.604   1.637 -0.3327  0.0012 -0.1833
  495MOL0     C66756   9.185   2.634   1.576 -0.9656  0.5825 -0.2607
  495MOL0     C66757   9.271   2.522   1.530  0.1647  0.7409 -1.0746
  495MOL0     H66758   9.389   2.987   1.181 -1.9205 -0.6716  1.1374
  495MOL0     H66759   9.585   3.061   1.069  0.0181 -1.0272 -1.1434
  495MOL0     H66760   9.787   2.884   1.043  1.4691  0.0983 -1.7351
  495MOL0     H66761   9.782   3.036   0.951 -0.5006  0.8765 -0.3890
  495MOL0     H66762  10.024   3.036   0.929 -1.2534 -1.4278 -3.3068
  495MOL0     H66763   9.981   2.864   0.917  1.0987 -0.7933  1.3961
  495MOL0     H66764  10.036   2.811   1.147 -0.5420 -1.1395 -2.4255
  495MOL0     H66765  10.054   2.978   1.187 -3.3255  0.9830 -0.9750
  495MOL0     H66766  10.217   2.829   0.969  1.0875  0.4345 -0.2265
  495MOL0     H66767  10.244   3.005   1.014  2.9766  0.0015  1.5355
  495MOL0     H66768  10.288   2.927   1.247  0.4845  0.7432  0.0637
  495MOL0     H66769  10.310   2.766   1.182  1.6127  0.0518  2.1179
  495MOL0     H66770  10.490   2.853   1.028 -0.9513 -1.7115  1.6851
  495MOL0     H66771  10.472   3.014   1.088 -1.0238  0.0225 -1.9870
  495MOL0     H66772  10.568   2.757   1.236  0.1891  0.2024 -1.0187
  495MOL0     H66773  10.540   2.907   1.326 -1.2207 -0.2289 -0.1008
  495MOL0     H66774  10.789   2.860   1.256  1.5152 -1.2078 -0.9605
  495MOL0     H66775  10.737   2.849   1.087 -0.6118 -1.1109  0.6478
  495MOL0     H66776  10.861   3.070   1.350  1.0884 -1.7964 -1.1543
  495MOL0     H66777  10.853   3.440   1.213 -0.3146  0.5411  0.7784
  495MOL0     H66778  10.882   3.356   1.368 -0.6383 -1.0542  0.4912
  495MOL0     H66779  11.052   3.362   1.118 -2.4524 -1.2589  0.7999
  495MOL0     H66780  11.085   3.480   1.238  1.9540 -0.3967 -0.8373
  495MOL0     H66781  11.143   3.199   1.336  3.1405 -0.7236  0.5694
  495MOL0     H66782  11.161   3.362   1.406  0.9627  3.1641 -1.4317
  495MOL0     H66783  11.313   3.430   1.238 -0.3173  0.5904  1.4478
  495MOL0     H66784  11.285   3.283   1.138  0.3989  3.3947 -1.9663
  495MOL0     H66785  11.515   3.361   1.078 -1.3312 -1.4825 -0.2556
  495MOL0     H66786  11.739   3.399   1.058 -2.0342  0.2760  0.3771
  495MOL0     H66787  12.159   3.493   1.348  0.3993 -1.0508  0.8680
  495MOL0     H66788  12.392   3.517   1.327 -3.0751  0.7546  0.6277
  495MOL0     H66789  12.721   3.413   1.186 -1.4732  0.5420 -0.6658
  495MOL0     H66790  12.583   3.512   1.231  0.3549 -0.5749  1.9984
  495MOL0     H66791  12.723   3.577   1.407 -4.2371 -0.7610  1.1717
  495MOL0     H66792  12.682   3.409   1.460  0.4063 -2.5118 -0.9336
  495MOL0     H66793  12.878   3.330   1.408  1.2400 -1.9540 -4.4624
  495MOL0     H66794  12.913   3.424   1.266 -2.6864  0.5195 -0.3254
  495MOL0     H66795  12.958   3.515   1.562  1.3489 -2.5017  0.1526
  495MOL0     H66796  12.947   3.621   1.414 -1.6712  1.0386  3.3469
  495MOL0     H66797  13.145   3.538   1.338  1.3754  1.7849  0.6115
  495MOL0     H66798  13.151   3.396   1.434  0.8071  0.7147 -1.4685
  495MOL0     H66799  13.178   3.675   1.549  2.2959  1.3035 -2.0099
  495MOL0     H66800  13.173   3.523   1.643 -0.9536 -0.9702 -1.2974
  495MOL0     H66801  13.387   3.656   1.606 -0.9420  0.7003 -0.3487
  495MOL0     H66802  13.374   3.618   1.431 -0.0659 -0.4489 -0.5474
  495MOL0     H66803  13.414   3.415   1.652 -1.1090  0.7871  0.7456
  495MOL0     H66804  13.377   3.370   1.496 -1.6702 -0.7429  2.1776
  495MOL0     H66805  12.449   3.100   1.295 -0.5954 -0.0637  0.9128
  495MOL0     H66806  12.201   3.066   1.308  1.6341 -0.3100  0.6248
  495MOL0     H66807  11.795   3.165   1.425 -1.2594 -1.2717 -0.6638
  495MOL0     H66808  11.558   3.166   1.449  0.5903  0.6001  0.2311
  495MOL0     H66809   9.827   2.995   1.418  0.4524  1.8299 -1.2468
  495MOL0     H66810   9.619   2.928   1.546  2.3167  2.3198  0.2426
  495MOL0     H66811   9.174   2.978   1.593  1.7913 -1.0800 -0.9357
  495MOL0     H66812   8.980   2.937   1.689  0.4889 -0.1746  0.1394
  495MOL0     H66813   8.757   2.858   1.656  0.7860  1.4813  1.7679
  495MOL0     H66814   8.773   2.855   1.837  0.6349 -0.9119  0.2277
  495MOL0     H66815   8.634   2.663   1.647  1.2539  0.5781 -0.1254
  495MOL0     H66816   8.560   2.794   1.738 -0.5958 -0.3948 -0.3529
  495MOL0     H66817   8.669   2.642   1.941  2.8799 -1.7840 -0.7238
  495MOL0     H66818   8.648   2.520   1.809 -2.7981 -0.1186 -2.4356
  495MOL0     H66819   8.470   2.561   1.992 -1.9769 -0.3006 -0.0749
  495MOL0     H66820   8.427   2.706   1.897  1.2573 -0.2502 -3.1788
  495MOL0     H66821   8.233   2.448   1.658 -0.6375 -1.6639 -0.5361
  495MOL0     H66822   9.030   2.501   1.648 -0.7816 -0.0733 -2.0013
  495MOL0     H66823   9.219   2.426   1.542 -1.2083  1.3322 -2.0090
  495MOL0     H66824   9.310   2.532   1.428  3.0907 -2.8344 -0.5257
  495MOL0     H66825   9.359   2.509   1.593  0.1527 -0.1426 -1.2216
  496MOL0     O66826   9.957   9.385   9.625 -0.1931 -0.0987 -0.2913
  496MOL0     C66827   9.965   9.338   9.740  0.0178  0.8347  1.3028
  496MOL0     O66828  10.078   9.324   9.813 -0.2509 -0.3077  0.4385
  496MOL0     C66829  10.199   9.360   9.753 -0.5921  0.1151  0.1724
  496MOL0     C66830  10.286   9.431   9.828  0.1724  1.6921 -0.1517
  496MOL0     C66831  10.414   9.473   9.782  0.3266 -0.3767  0.4364
  496MOL0     C66832  10.458   9.443   9.649  0.1719 -0.3438  0.1717
  496MOL0     O66833  10.581   9.492   9.613  0.2585 -0.1591  0.5316
  496MOL0     C66834  10.634   9.474   9.483 -0.3368  0.2892  0.8192
  496MOL0     C66835  10.777   9.530   9.501  0.6768  0.1805 -0.4874
  496MOL0     C66836  10.880   9.432   9.455  0.2922 -0.1139 -0.0030
  496MOL0     C66837  11.016   9.490   9.467  0.8197  1.1383 -0.3767
  496MOL0     C66838  11.122   9.382   9.465  0.7125  0.1052  0.5934
  496MOL0     C66839  11.257   9.450   9.438  0.3507 -0.4963  0.1098
  496MOL0     C66840  11.364   9.352   9.451  0.0127 -0.0256 -0.3293
  496MOL0     C66841  11.369   9.259   9.333 -0.2173  0.1705  0.4818
  496MOL0     N66842  11.498   9.193   9.315  0.3316  0.3714  1.1834
  496MOL0     C66843  11.585   9.162   9.412  0.9039  0.2491 -1.2885
  496MOL0     C66844  11.684   9.091   9.363 -0.5392  0.5131  0.0528
  496MOL0     C66845  11.816   9.073   9.435  0.4586 -0.1535  0.3564
  496MOL0     C66846  11.831   8.932   9.481 -0.5296  0.7362 -0.5978
  496MOL0     C66847  11.960   8.888   9.545 -0.0896  0.2470  0.2420
  496MOL0     C66848  11.986   8.947   9.682  0.3213 -1.3294 -0.6012
  496MOL0     O66849  12.105   8.909   9.748  0.1668 -0.5186  0.3359
  496MOL0     C66850  12.134   8.772   9.753  0.1152  0.7689  0.3958
  496MOL0     C66851  12.039   8.681   9.797  0.4431  0.2375  0.3017
  496MOL0     C66852  12.071   8.543   9.809 -0.2408 -0.1937  0.9491
  496MOL0     C66853  12.202   8.497   9.778  1.2246  0.3469 -0.4443
  496MOL0     C66854  12.232   8.354   9.820  0.0018  0.0763 -0.1865
  496MOL0     O66855  12.375   8.329   9.821  0.9618  0.1388  0.1266
  496MOL0     C66856  12.427   8.214   9.862 -0.4570  0.3273 -0.0505
  496MOL0     C66857  12.555   8.190   9.816  0.1996  1.0038  0.3368
  496MOL0     C66858  12.613   8.067   9.846 -0.0279  0.0064  0.3725
  496MOL0     C66859  12.555   7.970   9.928 -0.0225  0.3545  0.4952
  496MOL0     O66860  12.630   7.859   9.962  0.3277 -0.0242 -0.0261
  496MOL0     C66861  12.571   7.736  10.013  0.0092 -0.0195 -0.1104
  496MOL0     C66862  12.662   7.662  10.114  0.1404  0.9298  0.3451
  496MOL0     C66863  12.768   7.574  10.040 -0.4937  0.1756  0.2809
  496MOL0     C66864  12.861   7.505  10.143  0.7613 -0.7838 -0.2169
  496MOL0     C66865  12.987   7.433  10.070  0.4467  0.2312 -0.3135
  496MOL0     C66866  13.043   7.317  10.159 -0.2485  0.1181 -0.2323
  496MOL0     C66867  13.061   7.361  10.307  0.1331 -0.6217 -0.5718
  496MOL0     C66868  13.149   7.257  10.379 -0.3030  0.5187 -0.7615
  496MOL0    Cl66869  13.091   7.088  10.377 -0.0177 -0.3323  0.1473
  496MOL0     C66870  12.420   7.994   9.964  0.4731 -0.8486  0.2309
  496MOL0     C66871  12.358   8.121   9.938  0.2155  0.8753 -0.0829
  496MOL0     O66872  12.142   8.273   9.839 -0.9939 -0.2841 -0.6187
  496MOL0     C66873  12.299   8.585   9.722  0.1058  0.4230  0.3034
  496MOL0     C66874  12.265   8.724   9.719  0.2840  0.4136 -0.6259
  496MOL0     N66875  11.667   9.093   9.225  0.5263  0.0318  0.2584
  496MOL0     N66876  11.557   9.154   9.198 -0.1285  0.7788 -0.1966
  496MOL0     C66877  10.374   9.364   9.569  0.7123 -0.1141 -0.0044
  496MOL0     C66878  10.247   9.328   9.623 -0.0535 -0.2440 -0.1104
  496MOL0     C66879   9.838   9.318   9.814 -0.0668 -0.5579  0.1087
  496MOL0     C66880   9.850   9.319   9.952  0.1451  0.2659  0.2749
  496MOL0     C66881   9.739   9.331  10.029  0.2738 -0.4355 -0.3583
  496MOL0     C66882   9.607   9.337   9.981 -0.1778 -1.3846 -0.7197
  496MOL0     O66883   9.507   9.360  10.076  0.0529 -0.0201  0.2460
  496MOL0     C66884   9.370   9.345  10.044  0.2735 -0.9063  0.6166
  496MOL0     C66885   9.309   9.315  10.175  0.0118 -0.0640 -0.2412
  496MOL0     C66886   9.304   9.434  10.281 -0.6894  0.1614  0.5317
  496MOL0     C66887   9.250   9.389  10.413  0.0984 -0.3654  0.1719
  496MOL0     C66888   9.110   9.333  10.405 -0.6559  0.2790 -0.5758
  496MOL0     C66889   9.005   9.277  10.418  0.5245  0.3748  0.2201
  496MOL0     C66890   9.597   9.327   9.847  0.4136 -0.4543  0.3535
  496MOL0     C66891   9.702   9.321   9.758  0.4901  0.5219  0.2597
  496MOL0     C66892   9.670   9.301   9.614 -0.0546 -0.3981  1.0488
  496MOL0     H66893  10.263   9.445   9.933  2.6061 -1.1279  0.9029
  496MOL0     H66894  10.477   9.537   9.843  0.1005 -1.3386  1.7204
  496MOL0     H66895  10.639   9.369   9.453  1.1281 -0.3388  3.0582
  496MOL0     H66896  10.583   9.540   9.411 -0.9782  2.1232  2.8312
  496MOL0     H66897  10.791   9.558   9.606  2.4620  1.5885 -1.0574
  496MOL0     H66898  10.774   9.622   9.442 -0.9446  0.4429 -0.0570
  496MOL0     H66899  10.873   9.405   9.349  0.8474  0.0168 -0.0775
  496MOL0     H66900  10.866   9.353   9.530  0.7562 -0.6077 -0.4248
  496MOL0     H66901  11.033   9.571   9.395  0.6206 -1.1514 -3.1784
  496MOL0     H66902  11.017   9.543   9.563 -1.9595 -2.1376  1.6786
  496MOL0     H66903  11.130   9.336   9.564  0.0524 -1.1198  0.0970
  496MOL0     H66904  11.104   9.314   9.382  0.8857  1.6047 -0.7199
  496MOL0     H66905  11.256   9.501   9.341  0.5002 -0.3732  0.1734
  496MOL0     H66906  11.279   9.526   9.513  2.8742 -0.1870 -0.8662
  496MOL0     H66907  11.347   9.305   9.548  2.2130  1.1002  0.6766
  496MOL0     H66908  11.458   9.404   9.471  1.7731 -3.1832  0.2143
  496MOL0     H66909  11.298   9.178   9.345 -3.0907  2.5262  0.4759
  496MOL0     H66910  11.355   9.310   9.237 -2.4063 -1.2144  0.0062
  496MOL0     H66911  11.583   9.200   9.514 -0.3573 -1.2713 -0.6951
  496MOL0     H66912  11.894   9.096   9.362  0.2834 -2.0182 -0.4545
  496MOL0     H66913  11.844   9.136   9.521  2.8240 -2.2445  1.2473
  496MOL0     H66914  11.767   8.920   9.569  0.2969  0.0035 -0.0774
  496MOL0     H66915  11.803   8.858   9.406  0.6158  3.3753 -3.8918
  496MOL0     H66916  12.051   8.903   9.486 -0.0879 -1.7930 -0.3656
  496MOL0     H66917  11.945   8.782   9.571  1.6443  0.3515  1.8480
  496MOL0     H66918  11.896   8.937   9.744  0.9559  0.8797  0.7698
  496MOL0     H66919  11.992   9.054   9.664 -1.2911 -0.6215  2.3868
  496MOL0     H66920  11.944   8.724   9.827  1.2495  1.6280  0.9695
  496MOL0     H66921  11.999   8.473   9.847 -0.7168 -0.8708 -1.0777
  496MOL0     H66922  12.602   8.261   9.749  0.0196  0.2641 -0.5928
  496MOL0     H66923  12.713   8.058   9.805 -0.8823 -0.3825 -1.7612
  496MOL0     H66924  12.476   7.751  10.064  0.6177  0.3027  0.9391
  496MOL0     H66925  12.541   7.671   9.929 -0.0227  2.1379 -1.8719
  496MOL0     H66926  12.703   7.732  10.187 -0.9619  0.2798  1.6249
  496MOL0     H66927  12.605   7.593  10.177  0.7585 -2.3207 -2.3658
  496MOL0     H66928  12.712   7.498   9.984  0.8216 -0.4507 -0.2314
  496MOL0     H66929  12.834   7.639   9.983  2.5114  0.0845  3.3076
  496MOL0     H66930  12.804   7.431  10.198  1.8927 -2.0571 -0.6897
  496MOL0     H66931  12.895   7.573  10.221 -0.4859  2.2981 -2.1588
  496MOL0     H66932  13.066   7.507  10.053  0.3430  0.3429 -0.3175
  496MOL0     H66933  12.952   7.394   9.974 -1.9400  1.2444  0.0734
  496MOL0     H66934  12.971   7.235  10.155 -1.7511  1.4131 -0.3899
  496MOL0     H66935  13.138   7.283  10.117 -1.1490 -0.7977 -1.6043
  496MOL0     H66936  12.964   7.365  10.358  0.1543 -5.5701  0.4191
  496MOL0     H66937  13.113   7.457  10.309 -1.9874  0.5831 -0.0817
  496MOL0     H66938  13.246   7.260  10.328 -1.2475  0.2703 -2.6918
  496MOL0     H66939  13.159   7.276  10.486 -2.2686 -0.5298 -0.3357
  496MOL0     H66940  12.371   7.910  10.010 -0.7052 -0.5658 -0.4672
  496MOL0     H66941  12.255   8.117   9.971 -0.4473 -0.6212 -2.1185
  496MOL0     H66942  12.402   8.557   9.705  0.0802 -0.7222  1.8534
  496MOL0     H66943  12.344   8.792   9.689  1.0230  0.4684  1.2993
  496MOL0     H66944  10.408   9.345   9.468  2.5418  0.4572  0.4730
  496MOL0     H66945  10.179   9.273   9.558 -0.8510 -1.0679  1.3710
  496MOL0     H66946   9.947   9.324  10.002 -0.5510  1.0743  1.6177
  496MOL0     H66947   9.758   9.345  10.134  0.3347 -0.7390 -0.3266
  496MOL0     H66948   9.356   9.257   9.981  1.7607 -2.6927  2.6080
  496MOL0     H66949   9.330   9.438  10.004 -1.5788 -3.0448 -2.9495
  496MOL0     H66950   9.370   9.233  10.216  0.0644  1.0891  2.1653
  496MOL0     H66951   9.208   9.280  10.155 -0.4917  1.9972 -1.5917
  496MOL0     H66952   9.262   9.526  10.239  0.1856  0.8539  1.1532
  496MOL0     H66953   9.404   9.462  10.313 -0.5766  0.5753 -0.1618
  496MOL0     H66954   9.318   9.318  10.460  0.5388 -0.1194 -0.0956
  496MOL0     H66955   9.238   9.473  10.482  0.6983 -1.2790  1.4385
  496MOL0     H66956   8.905   9.249  10.445  0.2644  3.4623  3.0541
  496MOL0     H66957   9.495   9.332   9.810  1.2072 -2.3278 -2.3935
  496MOL0     H66958   9.565   9.274   9.598  0.1362 -0.9530  0.7199
  496MOL0     H66959   9.693   9.400   9.573  1.7628 -1.3818 -0.4614
  496MOL0     H66960   9.733   9.231   9.558 -0.1311  0.1438  0.2738
  497MOL0     O66961   3.808  10.028   0.730 -1.0163  0.1784  0.2758
  497MOL0     C66962   3.834   9.925   0.655 -0.7017 -0.8042 -0.4311
  497MOL0     O66963   3.965   9.884   0.623 -0.7721  0.1237 -0.6704
  497MOL0     C66964   4.062   9.948   0.693 -1.1923 -0.1417  0.2977
  497MOL0     C66965   4.119   9.885   0.805  0.8882 -0.0880 -0.3266
  497MOL0     C66966   4.215   9.958   0.880 -0.0716  0.7525 -0.5934
  497MOL0     C66967   4.264  10.079   0.847 -0.0745  0.2292  0.0070
  497MOL0     O66968   4.355  10.145   0.928  0.0277 -0.0471  0.3634
  497MOL0     C66969   4.427  10.263   0.876  0.2135 -0.3123 -0.2792
  497MOL0     C66970   4.556  10.280   0.960  0.0108  0.9629 -0.3202
  497MOL0     C66971   4.628  10.406   0.909 -0.0104 -0.3867  0.3046
  497MOL0     C66972   4.718  10.449   1.022  0.2977  0.2281 -0.4570
  497MOL0     C66973   4.821  10.550   0.975  0.1458 -0.1723 -0.5051
  497MOL0     C66974   4.912  10.584   1.099 -0.6127  0.1094 -0.5360
  497MOL0     C66975   4.838  10.662   1.207  0.8142 -0.9961 -0.3828
  497MOL0     C66976   4.928  10.721   1.314 -0.0580 -0.3691  1.2025
  497MOL0     N66977   4.849  10.731   1.437 -0.2453  0.5630 -0.3251
  497MOL0     C66978   4.900  10.689   1.554 -0.0577  0.4908 -1.2412
  497MOL0     C66979   4.853  10.772   1.651 -0.4997  0.1939  0.2296
  497MOL0     C66980   4.864  10.774   1.805 -0.9757 -0.7257 -0.4233
  497MOL0     C66981   5.000  10.716   1.860  0.2443 -0.7638 -0.1135
  497MOL0     C66982   5.121  10.806   1.812 -0.8355 -0.1789  0.0146
  497MOL0     C66983   5.252  10.731   1.818 -1.1937 -0.1529 -0.3273
  497MOL0     O66984   5.299  10.729   1.953 -0.1293  0.4153 -0.3901
  497MOL0     C66985   5.428  10.701   1.975 -0.0623 -0.1549  0.7116
  497MOL0     C66986   5.450  10.642   2.098 -0.3301 -0.1332  0.9521
  497MOL0     C66987   5.579  10.611   2.144  0.1357 -0.6671 -0.6602
  497MOL0     C66988   5.695  10.651   2.069  1.0352 -0.2335 -0.2554
  497MOL0     C66989   5.830  10.619   2.101 -0.3642  1.0646  0.2015
  497MOL0     O66990   5.932  10.694   2.038  0.5124  0.2773  0.2962
  497MOL0     C66991   6.064  10.661   2.066 -0.4828  0.4114 -0.2953
  497MOL0     C66992   6.148  10.673   1.957  0.3426  0.1670  0.3212
  497MOL0     C66993   6.285  10.672   1.967 -0.9647  0.0720  0.1192
  497MOL0     C66994   6.340  10.661   2.093  0.0042  0.6832 -0.7854
  497MOL0     O66995   6.474  10.647   2.090 -0.2088 -0.6856 -0.3979
  497MOL0     C66996   6.531  10.589   2.209 -0.4643 -0.1589  0.2567
  497MOL0     C66997   6.687  10.593   2.190  0.1194  0.8040  0.0717
  497MOL0     C66998   6.756  10.500   2.288  0.4655  0.7805  0.2788
  497MOL0     C66999   6.908  10.519   2.285  0.0839  0.3059  0.1966
  497MOL0     C67000   6.964  10.473   2.156  0.5362  0.0147  0.2128
  497MOL0     C67001   7.113  10.507   2.151  0.6972 -0.1601  0.3903
  497MOL0     C67002   7.184  10.483   2.006  0.6295 -0.7000  0.3624
  497MOL0     C67003   7.227  10.345   1.980 -1.0108 -0.1374  0.0093
  497MOL0    Cl67004   7.286  10.344   1.819  0.0945 -0.1182  0.6346
  497MOL0     C67005   6.257  10.639   2.208  0.5124 -0.3060 -0.0184
  497MOL0     C67006   6.118  10.646   2.194 -1.1881 -0.6192 -0.1826
  497MOL0     O67007   5.853  10.545   2.195 -0.0832  0.4463 -0.5364
  497MOL0     C67008   5.672  10.709   1.945 -0.7682 -0.2318 -0.9188
  497MOL0     C67009   5.540  10.724   1.894 -0.5692 -1.6819 -0.1786
  497MOL0     N67010   4.759  10.857   1.595 -0.1852 -0.0441  0.0032
  497MOL0     N67011   4.761  10.829   1.466 -0.2826 -0.4125 -0.1498
  497MOL0     C67012   4.202  10.141   0.735 -0.0034 -0.1826  0.2964
  497MOL0     C67013   4.108  10.073   0.649 -0.5804  0.3591 -0.5855
  497MOL0     C67014   3.713   9.869   0.590 -0.1419  0.4793 -0.4608
  497MOL0     C67015   3.584   9.907   0.637 -0.0127  0.7691 -0.2651
  497MOL0     C67016   3.466   9.869   0.575  0.2179  0.8597  0.2742
  497MOL0     C67017   3.472   9.790   0.458 -0.4199 -0.0475  0.7934
  497MOL0     O67018   3.352   9.763   0.399  0.5644  0.1037  0.2442
  497MOL0     C67019   3.341   9.682   0.281 -0.2108  0.4093  0.6756
  497MOL0     C67020   3.199   9.674   0.239  0.6376 -0.0505  0.0008
  497MOL0     C67021   3.107   9.595   0.336 -0.8934  0.2104 -0.3926
  497MOL0     C67022   2.975   9.559   0.267 -0.1130  0.2574 -0.5357
  497MOL0     C67023   2.863   9.511   0.348 -0.2464  0.2145 -0.7441
  497MOL0     C67024   2.771   9.468   0.413 -0.4294 -0.5301 -1.2678
  497MOL0     C67025   3.599   9.742   0.412  1.0462  0.2226 -0.5314
  497MOL0     C67026   3.718   9.777   0.483 -0.3799 -1.0549  0.4844
  497MOL0     C67027   3.844   9.729   0.425 -0.6386  0.4122  0.4433
  497MOL0     H67028   4.083   9.788   0.837 -2.0255  1.2818  0.8498
  497MOL0     H67029   4.264   9.904   0.960  0.1571  0.5554 -0.8637
  497MOL0     H67030   4.463  10.254   0.773 -0.4670 -3.6545 -0.3571
  497MOL0     H67031   4.364  10.352   0.886  1.6555  0.5980  1.1257
  497MOL0     H67032   4.631  10.201   0.946  0.2645 -0.0077  4.6597
  497MOL0     H67033   4.538  10.278   1.067 -1.2663 -0.2130 -0.5288
  497MOL0     H67034   4.561  10.487   0.882  0.2152 -0.5391 -0.7342
  497MOL0     H67035   4.698  10.376   0.831  2.0098  1.0981  1.4373
  497MOL0     H67036   4.662  10.492   1.105  1.9705  0.6845  0.4961
  497MOL0     H67037   4.768  10.356   1.052 -0.0587  0.1481 -0.1037
  497MOL0     H67038   4.888  10.507   0.899 -1.4444 -2.8523 -0.5029
  497MOL0     H67039   4.769  10.635   0.929 -1.7369 -0.2700  1.2937
  497MOL0     H67040   4.956  10.492   1.138  1.1575  1.1326 -0.0095
  497MOL0     H67041   4.999  10.645   1.074 -0.9687  1.2931  0.9316
  497MOL0     H67042   4.761  10.606   1.259 -0.2993  1.2469  0.5214
  497MOL0     H67043   4.796  10.751   1.158 -1.6815 -1.7547  0.2628
  497MOL0     H67044   5.019  10.661   1.323  1.1816  1.5316  1.8919
  497MOL0     H67045   4.964  10.821   1.292 -1.0105 -0.6221 -2.0034
  497MOL0     H67046   4.980  10.617   1.566  0.3786  1.1434 -0.0581
  497MOL0     H67047   4.861  10.879   1.836 -0.2694 -0.0513 -2.4402
  497MOL0     H67048   4.770  10.730   1.839 -0.4904 -1.7513 -0.3529
  497MOL0     H67049   4.987  10.727   1.968  1.7793  1.4657 -0.1007
  497MOL0     H67050   5.008  10.612   1.826  0.9713 -1.0479  0.8830
  497MOL0     H67051   5.113  10.900   1.867 -1.0680 -0.1656 -0.0393
  497MOL0     H67052   5.102  10.813   1.704  1.5689 -0.2245 -0.4558
  497MOL0     H67053   5.321  10.788   1.755  2.5315 -3.1761  0.6231
  497MOL0     H67054   5.233  10.634   1.770 -2.1269 -0.3675  0.4265
  497MOL0     H67055   5.363  10.615   2.157 -1.1062  0.3007  0.0173
  497MOL0     H67056   5.592  10.558   2.237 -1.6975  1.0204  0.6423
  497MOL0     H67057   6.098  10.683   1.861 -0.5612  0.9799  0.8670
  497MOL0     H67058   6.344  10.673   1.876 -1.1982 -0.2176 -0.0362
  497MOL0     H67059   6.508  10.644   2.301 -0.1926  0.0615  0.1933
  497MOL0     H67060   6.492  10.488   2.226  0.1407 -0.4603 -0.1221
  497MOL0     H67061   6.705  10.555   2.090  2.3398 -1.6026  1.2697
  497MOL0     H67062   6.732  10.693   2.196 -1.2589  1.6190 -2.0643
  497MOL0     H67063   6.713  10.520   2.387  0.6638 -0.2174  0.5862
  497MOL0     H67064   6.718  10.400   2.265 -2.5529  2.0011 -0.5305
  497MOL0     H67065   6.946  10.459   2.368  3.1880  0.3000 -1.0911
  497MOL0     H67066   6.928  10.627   2.289  2.2343  0.4165 -5.2056
  497MOL0     H67067   6.906  10.528   2.081 -0.0170  1.5274  1.6827
  497MOL0     H67068   6.942  10.368   2.132  2.4072  0.1789 -2.7875
  497MOL0     H67069   7.124  10.614   2.167 -0.4069 -0.0008  0.1535
  497MOL0     H67070   7.177  10.447   2.217  0.0454 -0.9451  0.3295
  497MOL0     H67071   7.281  10.532   2.005 -1.5506  4.3150  1.5650
  497MOL0     H67072   7.124  10.509   1.918  0.6263 -2.5445 -0.2132
  497MOL0     H67073   7.314  10.313   2.039  0.1636  0.5576 -1.2826
  497MOL0     H67074   7.147  10.273   1.997 -0.3546 -1.1074 -0.8455
  497MOL0     H67075   6.298  10.628   2.309  0.4182  0.1176  0.0661
  497MOL0     H67076   6.078  10.649   2.295 -0.1125 -2.0164  0.3177
  497MOL0     H67077   5.757  10.746   1.888  0.1471  0.4547  0.8121
  497MOL0     H67078   5.530  10.769   1.796 -0.5135  0.8167  0.9034
  497MOL0     H67079   4.239  10.236   0.697  0.9758 -0.4693  0.5110
  497MOL0     H67080   4.071  10.115   0.557  0.3279 -0.5543 -1.3958
  497MOL0     H67081   3.571   9.978   0.718 -2.3152  1.3103 -1.0357
  497MOL0     H67082   3.367   9.902   0.604 -0.0120 -1.2628  2.1340
  497MOL0     H67083   3.383   9.581   0.272 -0.0956  0.6734 -3.8104
  497MOL0     H67084   3.394   9.753   0.218 -1.8256  2.2634  1.3068
  497MOL0     H67085   3.203   9.628   0.140 -0.0595 -2.6491  1.0887
  497MOL0     H67086   3.156   9.774   0.232  0.7556  0.2051  2.2365
  497MOL0     H67087   3.096   9.657   0.425  0.4409  1.4104 -1.0270
  497MOL0     H67088   3.157   9.505   0.372  3.4643  2.4481 -0.1290
  497MOL0     H67089   2.936   9.645   0.211 -0.7620 -0.5477 -1.3554
  497MOL0     H67090   2.993   9.471   0.204  0.0734  1.1494 -1.7827
  497MOL0     H67091   2.706   9.435   0.493 -0.1470  1.1249 -0.3078
  497MOL0     H67092   3.602   9.682   0.321 -1.8246 -1.3158  0.2694
  497MOL0     H67093   3.884   9.656   0.496 -3.1453 -1.9098 -0.3401
  497MOL0     H67094   3.841   9.669   0.333  0.8838  2.3609 -0.9714
  497MOL0     H67095   3.925   9.801   0.409 -0.3985  0.3492  1.3008
  498MOL0     O67096   1.909   4.103   7.833 -0.0580  0.6773 -0.0029
  498MOL0     C67097   1.822   4.166   7.886  0.5869 -0.3255  0.8924
  498MOL0     O67098   1.835   4.288   7.953 -0.3634  0.3841  0.2648
  498MOL0     C67099   1.965   4.333   7.972 -0.1703  0.6783 -0.1123
  498MOL0     C67100   2.004   4.464   7.941  0.2028  0.0482 -0.4316
  498MOL0     C67101   2.131   4.513   7.965 -0.0043 -0.2107 -0.1130
  498MOL0     C67102   2.234   4.434   8.020 -0.7888 -0.4120 -0.2295
  498MOL0     O67103   2.370   4.464   8.030  0.2117 -0.4043 -0.6372
  498MOL0     C67104   2.394   4.597   8.084  0.7715 -0.7126  0.0533
  498MOL0     C67105   2.453   4.688   7.973  0.2056  0.1502  0.0974
  498MOL0     C67106   2.478   4.828   8.027 -0.0636 -1.2626  0.8504
  498MOL0     C67107   2.628   4.852   8.047  0.5662 -0.0523 -0.0227
  498MOL0     C67108   2.684   4.989   8.083 -0.0371 -0.1446 -0.3118
  498MOL0     C67109   2.619   5.046   8.208 -0.3606  0.0347 -0.2299
  498MOL0     C67110   2.705   5.166   8.272 -0.3990  0.5572 -0.0609
  498MOL0     C67111   2.760   5.137   8.417 -0.5629  0.2225 -0.4414
  498MOL0     N67112   2.892   5.073   8.410 -0.0348  0.6305 -0.0864
  498MOL0     C67113   3.012   5.139   8.400 -0.5742 -0.2421  0.1544
  498MOL0     C67114   3.099   5.042   8.363  0.2177  0.1361  0.7685
  498MOL0     C67115   3.236   5.070   8.323  0.7025  0.3656 -0.4999
  498MOL0     C67116   3.334   5.046   8.435 -0.5124 -0.6595 -0.3092
  498MOL0     C67117   3.470   5.029   8.371  0.2904  0.2989  0.4165
  498MOL0     C67118   3.565   5.023   8.488 -1.0568  0.5560  0.2397
  498MOL0     O67119   3.704   4.987   8.452  0.0707  0.1087  0.5915
  498MOL0     C67120   3.807   5.040   8.529  0.2495  0.0297 -0.3807
  498MOL0     C67121   3.798   5.037   8.666  0.2426 -0.2386 -0.5652
  498MOL0     C67122   3.897   5.096   8.743 -0.0105  0.0097 -0.6294
  498MOL0     C67123   4.019   5.145   8.689  0.3970  0.3548  0.1276
  498MOL0     C67124   4.136   5.186   8.766 -0.9749 -0.0311 -0.6661
  498MOL0     O67125   4.109   5.216   8.899  0.3137 -1.7298 -0.9965
  498MOL0     C67126   4.200   5.278   8.985 -0.1629  0.0790  0.0561
  498MOL0     C67127   4.186   5.261   9.125 -0.4412 -0.3988 -0.1142
  498MOL0     C67128   4.282   5.320   9.214 -0.0644  0.0919  0.2578
  498MOL0     C67129   4.379   5.411   9.175 -0.0627 -0.9194 -0.3315
  498MOL0     O67130   4.473   5.473   9.258  0.1691  0.2421 -0.0140
  498MOL0     C67131   4.530   5.403   9.372  0.4934 -0.3014  0.2880
  498MOL0     C67132   4.635   5.307   9.316  0.5770 -0.0923 -0.2833
  498MOL0     C67133   4.697   5.239   9.440  0.4093  0.6713 -0.5438
  498MOL0     C67134   4.595   5.127   9.477 -0.7094  0.3297 -0.2065
  498MOL0     C67135   4.647   5.043   9.592 -0.4981 -0.0767  0.6947
  498MOL0     C67136   4.754   4.946   9.550 -0.2186  0.1518 -0.3417
  498MOL0     C67137   4.798   4.852   9.661 -0.3972 -0.0339  0.0715
  498MOL0     C67138   4.948   4.815   9.662  0.1509 -0.8091 -0.6039
  498MOL0    Cl67139   4.958   4.678   9.551 -0.2300  0.0020  0.1035
  498MOL0     C67140   4.383   5.442   9.039  0.4346  0.2508  0.0052
  498MOL0     C67141   4.297   5.374   8.943  0.8216  0.5495  0.3134
  498MOL0     O67142   4.245   5.178   8.714 -0.7953 -0.0347  0.0869
  498MOL0     C67143   4.029   5.144   8.550 -0.2189 -0.3772  0.3680
  498MOL0     C67144   3.923   5.095   8.469 -0.1932 -0.3143 -0.5511
  498MOL0     N67145   3.038   4.920   8.354 -0.3613  0.3824 -0.3713
  498MOL0     N67146   2.917   4.934   8.388  0.4617 -0.1782 -0.3839
  498MOL0     C67147   2.192   4.304   8.054  0.0705 -0.1024 -0.3866
  498MOL0     C67148   2.064   4.250   8.026  0.5255  0.2102 -0.2520
  498MOL0     C67149   1.685   4.104   7.885  0.1406 -0.0832 -0.3271
  498MOL0     C67150   1.577   4.190   7.884 -0.0472 -0.5720 -0.1657
  498MOL0     C67151   1.442   4.144   7.896  0.2166 -0.4533 -0.5124
  498MOL0     C67152   1.417   4.016   7.899 -0.1047  0.3431  0.3300
  498MOL0     O67153   1.277   3.995   7.925 -0.2809  0.5976 -0.0772
  498MOL0     C67154   1.236   3.857   7.930 -0.0933 -0.6331 -0.1370
  498MOL0     C67155   1.089   3.846   7.972 -0.5137  0.2066  1.1482
  498MOL0     C67156   1.076   3.868   8.121  0.6188  0.0243  0.2580
  498MOL0     C67157   0.929   3.845   8.148  0.4490  0.1563  0.3603
  498MOL0     C67158   0.836   3.928   8.072  0.1188 -0.3563 -0.7796
  498MOL0     C67159   0.757   3.997   8.015 -0.3294 -0.2475  0.7624
  498MOL0     C67160   1.525   3.921   7.878  0.1407  0.0346  0.0672
  498MOL0     C67161   1.652   3.961   7.872 -0.8982 -0.1456  0.6003
  498MOL0     C67162   1.764   3.859   7.882  0.0007 -0.8841 -0.5149
  498MOL0     H67163   1.933   4.529   7.890  1.1651  0.3990 -1.3562
  498MOL0     H67164   2.156   4.613   7.930  0.0095 -0.5031 -0.9843
  498MOL0     H67165   2.300   4.635   8.124  0.4855 -0.3644 -0.9284
  498MOL0     H67166   2.467   4.597   8.166  0.3083  2.3509  0.5563
  498MOL0     H67167   2.386   4.695   7.887  4.0493 -1.5965 -3.4035
  498MOL0     H67168   2.541   4.651   7.921  1.1527  4.1561 -1.5352
  498MOL0     H67169   2.424   4.844   8.121  1.8675 -0.4697  1.8728
  498MOL0     H67170   2.442   4.899   7.951  2.3586  0.7251  1.4131
  498MOL0     H67171   2.653   4.771   8.116 -0.4198 -1.2001 -0.9665
  498MOL0     H67172   2.678   4.823   7.954 -0.2637 -1.2736 -0.1048
  498MOL0     H67173   2.793   4.984   8.094 -0.1699 -1.2448  0.7374
  498MOL0     H67174   2.673   5.060   8.000  1.9691 -0.2448 -0.7200
  498MOL0     H67175   2.516   5.071   8.185  0.0775  0.0114 -2.4073
  498MOL0     H67176   2.610   4.963   8.280 -0.6726  0.0866 -0.2095
  498MOL0     H67177   2.640   5.254   8.264 -0.1752  0.7097 -0.2368
  498MOL0     H67178   2.785   5.193   8.202 -0.0782 -0.4872 -0.1151
  498MOL0     H67179   2.772   5.234   8.465  1.2287 -0.0869 -0.1855
  498MOL0     H67180   2.697   5.072   8.479 -0.1041  0.1771 -0.0129
  498MOL0     H67181   3.023   5.243   8.429 -1.9136  0.1377 -0.5994
  498MOL0     H67182   3.267   5.007   8.239 -2.2816 -1.6993 -0.2095
  498MOL0     H67183   3.256   5.174   8.293  1.2945 -0.1531 -2.0238
  498MOL0     H67184   3.332   5.130   8.505 -1.3831 -2.4064  1.8653
  498MOL0     H67185   3.305   4.952   8.483  3.6488 -1.4434  1.0914
  498MOL0     H67186   3.494   5.120   8.314  0.7428  0.6747  1.1849
  498MOL0     H67187   3.471   4.936   8.313 -1.9162  0.4343  0.1096
  498MOL0     H67188   3.542   4.936   8.550  1.2061  0.5716  1.1808
  498MOL0     H67189   3.569   5.116   8.545 -1.3480  0.7436 -0.0488
  498MOL0     H67190   3.716   4.999   8.725  0.1094  1.6217  0.5135
  498MOL0     H67191   3.896   5.072   8.849 -1.1665 -3.9072 -1.3488
  498MOL0     H67192   4.100   5.205   9.160 -0.1371  0.0277  1.3748
  498MOL0     H67193   4.273   5.299   9.320 -1.7191  1.6317  0.4735
  498MOL0     H67194   4.571   5.483   9.434  0.2831  0.7846 -0.9235
  498MOL0     H67195   4.453   5.353   9.432 -0.4610  0.9473  0.1664
  498MOL0     H67196   4.578   5.236   9.255 -1.5449  1.1447  0.1613
  498MOL0     H67197   4.718   5.356   9.265 -0.2525  1.8621  0.1585
  498MOL0     H67198   4.791   5.192   9.407  0.5182  1.2019 -1.0062
  498MOL0     H67199   4.717   5.308   9.522 -0.8461  1.2681 -0.7290
  498MOL0     H67200   4.569   5.061   9.394 -1.3862  1.1692 -0.6806
  498MOL0     H67201   4.498   5.161   9.514 -1.6076 -3.8522  1.9048
  498MOL0     H67202   4.562   4.987   9.632 -2.7812  2.4894 -0.1990
  498MOL0     H67203   4.684   5.105   9.674 -2.3091  1.2215  0.5990
  498MOL0     H67204   4.714   4.887   9.467  1.6406 -0.0179 -1.1484
  498MOL0     H67205   4.835   5.001   9.502 -1.3346  0.3730 -2.0758
  498MOL0     H67206   4.741   4.759   9.674 -0.9461  0.5182  1.9965
  498MOL0     H67207   4.782   4.901   9.758  0.2521  0.5102 -0.0841
  498MOL0     H67208   5.017   4.894   9.631  1.4711 -1.8645 -0.4749
  498MOL0     H67209   4.981   4.778   9.760 -2.5591 -0.4273  0.5312
  498MOL0     H67210   4.459   5.517   9.019  0.0734  1.0897  1.5756
  498MOL0     H67211   4.304   5.405   8.839  1.1476 -0.9521 -0.1264
  498MOL0     H67212   4.119   5.181   8.501 -1.2180  2.4011  0.4636
  498MOL0     H67213   3.919   5.112   8.362  1.7694 -0.0901 -0.6312
  498MOL0     H67214   2.266   4.243   8.106 -0.2914  0.8390  1.2989
  498MOL0     H67215   2.027   4.148   8.032 -1.9001  1.0798  1.2819
  498MOL0     H67216   1.589   4.296   7.868 -1.0442 -0.7058 -2.0166
  498MOL0     H67217   1.362   4.216   7.905  0.8381  0.1098  0.7190
  498MOL0     H67218   1.301   3.800   7.997  1.2617  0.1888 -0.6962
  498MOL0     H67219   1.239   3.823   7.826  0.1208  0.3527 -0.4685
  498MOL0     H67220   1.055   3.745   7.948  1.6485 -0.5211  0.9008
  498MOL0     H67221   1.025   3.921   7.926  1.9434  1.9899  0.4233
  498MOL0     H67222   1.113   3.969   8.143  2.5627 -0.7383  0.6888
  498MOL0     H67223   1.130   3.792   8.178 -1.5511 -0.3458  1.9673
  498MOL0     H67224   0.909   3.738   8.131  0.9267 -0.3911  2.9098
  498MOL0     H67225   0.911   3.849   8.256 -1.1207  0.2782  0.1244
  498MOL0     H67226   0.698   4.068   7.961  2.7568  0.6183 -1.8294
  498MOL0     H67227   1.506   3.814   7.881  0.1344 -0.0341 -1.6932
  498MOL0     H67228   1.828   3.878   7.969 -1.8780 -2.4939  1.3061
  498MOL0     H67229   1.723   3.760   7.903 -1.0628 -1.1129 -3.2860
  498MOL0     H67230   1.822   3.862   7.789 -0.1671  2.5292 -0.6222
  499MOL0     O67231   5.144   6.906   8.938  0.3052 -0.0436  0.2939
  499MOL0     C67232   5.170   7.024   8.915  1.0102  1.6120 -0.0738
  499MOL0     O67233   5.269   7.089   8.978  0.4299 -0.0378  0.7420
  499MOL0     C67234   5.380   7.025   9.033  0.5491 -0.1464 -0.2809
  499MOL0     C67235   5.436   7.074   9.145  0.3027  0.4202  0.6895
  499MOL0     C67236   5.558   7.029   9.200 -0.3469 -0.3407  0.7945
  499MOL0     C67237   5.615   6.917   9.144  0.2287 -0.5842  0.4483
  499MOL0     O67238   5.722   6.841   9.192 -0.2507 -0.1620  0.3032
  499MOL0     C67239   5.814   6.908   9.280  0.0411 -0.2004  0.2780
  499MOL0     C67240   5.941   6.823   9.278  0.0411 -0.5862  0.9887
  499MOL0     C67241   6.059   6.865   9.175 -0.3856 -0.2771 -0.2780
  499MOL0     C67242   6.174   6.945   9.245  0.8703  1.0192  0.8901
  499MOL0     C67243   6.305   6.910   9.161  1.0469  0.2806  0.0188
  499MOL0     C67244   6.422   6.967   9.241  0.4087 -0.2418 -0.0604
  499MOL0     C67245   6.548   6.917   9.177 -0.5452  0.7058  0.0560
  499MOL0     C67246   6.634   7.025   9.110 -0.1391 -1.5866  0.7198
  499MOL0     N67247   6.769   6.976   9.063  0.1906  0.2786 -0.4535
  499MOL0     C67248   6.801   6.936   8.935 -1.1571 -0.8653 -0.0901
  499MOL0     C67249   6.922   6.877   8.950 -0.5404 -0.4766 -0.7725
  499MOL0     C67250   7.019   6.837   8.839  0.0527  0.3950  0.4782
  499MOL0     C67251   7.009   6.680   8.813 -0.0149 -0.0410 -0.3991
  499MOL0     C67252   7.069   6.628   8.687 -0.0368  0.3454  0.2984
  499MOL0     C67253   7.221   6.649   8.691  0.8006 -1.0390 -0.0628
  499MOL0     O67254   7.289   6.568   8.594 -0.3474 -0.3006  0.1010
  499MOL0     C67255   7.431   6.578   8.588 -0.1985  0.0021 -0.0457
  499MOL0     C67256   7.502   6.666   8.669 -0.2943  1.0816 -0.6968
  499MOL0     C67257   7.648   6.668   8.667  0.7906  0.6735  0.3217
  499MOL0     C67258   7.709   6.578   8.580 -0.4131  0.2050 -0.1105
  499MOL0     C67259   7.857   6.567   8.586 -0.5929 -0.1810  0.8052
  499MOL0     O67260   7.906   6.455   8.523  0.3638  0.2614  0.3018
  499MOL0     C67261   8.036   6.432   8.495  0.4163  0.2728  0.8035
  499MOL0     C67262   8.060   6.346   8.386  0.1388  0.3034 -0.1932
  499MOL0     C67263   8.185   6.297   8.353  0.0111 -0.3392  0.1142
  499MOL0     C67264   8.291   6.328   8.436 -0.1991  0.6213  0.8133
  499MOL0     O67265   8.402   6.274   8.390  0.2275 -0.5396  0.8710
  499MOL0     C67266   8.515   6.275   8.477  0.0973  0.3528 -0.8796
  499MOL0     C67267   8.616   6.185   8.409  0.2588 -0.1046 -0.2224
  499MOL0     C67268   8.753   6.187   8.484 -0.6163 -0.2890 -0.0844
  499MOL0     C67269   8.841   6.075   8.426  1.1043  0.5830 -0.1749
  499MOL0     C67270   8.974   6.073   8.495  0.8380  0.2882  0.1829
  499MOL0     C67271   9.056   5.950   8.467 -0.3543 -0.4737  0.3405
  499MOL0     C67272   9.186   5.948   8.551 -0.7894  0.7076  0.1702
  499MOL0     C67273   9.323   5.927   8.471  0.4162  0.0082 -0.3363
  499MOL0    Cl67274   9.359   6.065   8.350  0.0866 -0.1643 -0.0938
  499MOL0     C67275   8.273   6.414   8.547 -0.5290  0.3692 -0.4128
  499MOL0     C67276   8.141   6.458   8.580  0.3319  0.6093  0.3393
  499MOL0     O67277   7.920   6.666   8.624  0.2437  0.1712  0.3475
  499MOL0     C67278   7.639   6.497   8.499 -0.3356  0.7235 -0.2362
  499MOL0     C67279   7.497   6.493   8.501  0.0892  0.5079 -1.1920
  499MOL0     N67280   6.950   6.872   9.088  0.3166 -0.2316  0.0734
  499MOL0     N67281   6.853   6.919   9.151 -0.2371  0.2917 -0.1563
  499MOL0     C67282   5.565   6.862   9.035 -0.2238  0.9659  0.0104
  499MOL0     C67283   5.451   6.920   8.970  0.1263 -0.1631  0.1199
  499MOL0     C67284   5.056   7.097   8.854  0.3478 -0.5701  0.3634
  499MOL0     C67285   5.090   7.236   8.827  0.5512  0.7851  0.0809
  499MOL0     C67286   5.004   7.317   8.752 -0.0760  0.0186 -1.0265
  499MOL0     C67287   4.879   7.263   8.711 -0.3712  0.1623  0.4147
  499MOL0     O67288   4.795   7.335   8.624  0.4122  0.7097  0.2151
  499MOL0     C67289   4.768   7.474   8.663 -0.4925  0.7269 -0.0489
  499MOL0     C67290   4.743   7.535   8.525  0.1039 -1.0195 -0.2714
  499MOL0     C67291   4.688   7.675   8.540 -0.8036  0.5265  0.1878
  499MOL0     C67292   4.662   7.745   8.405  0.1881  0.1845  0.4986
  499MOL0     C67293   4.598   7.872   8.429  0.5894 -0.3056 -0.2492
  499MOL0     C67294   4.546   7.980   8.454 -0.2347 -0.3616  0.3849
  499MOL0     C67295   4.849   7.131   8.737  0.2975 -1.0960 -0.2312
  499MOL0     C67296   4.928   7.054   8.821  0.7424 -0.5845  0.9071
  499MOL0     C67297   4.877   6.928   8.876  0.3174 -0.0402 -0.9019
  499MOL0     H67298   5.387   7.161   9.188 -0.3989  0.5695 -0.3720
  499MOL0     H67299   5.592   7.075   9.292 -0.6372  2.1896 -0.2887
  499MOL0     H67300   5.840   7.006   9.239  0.7341 -0.2783  0.5137
  499MOL0     H67301   5.780   6.924   9.383  0.2289 -2.6434  0.7695
  499MOL0     H67302   5.907   6.720   9.269 -0.4193 -0.6250  2.8594
  499MOL0     H67303   5.992   6.834   9.374 -0.7805  0.9173  1.2925
  499MOL0     H67304   6.028   6.931   9.094  1.1005  0.5541 -0.1956
  499MOL0     H67305   6.093   6.768   9.137 -0.1597 -1.1781  2.0499
  499MOL0     H67306   6.150   7.051   9.236 -0.9654  0.4822 -1.5609
  499MOL0     H67307   6.194   6.911   9.347  0.5564 -4.5919 -0.6057
  499MOL0     H67308   6.323   6.803   9.147 -1.1979 -0.5565  2.8073
  499MOL0     H67309   6.298   6.954   9.061 -0.8898  0.2708  0.1224
  499MOL0     H67310   6.416   7.076   9.249 -1.3474 -0.2460 -0.9279
  499MOL0     H67311   6.419   6.927   9.344 -0.3309 -1.1113 -0.3976
  499MOL0     H67312   6.526   6.834   9.110 -1.3550  0.7717  0.2343
  499MOL0     H67313   6.613   6.887   9.259  0.2412  0.7659 -0.5315
  499MOL0     H67314   6.564   7.061   9.034 -0.0535 -1.6978  0.5877
  499MOL0     H67315   6.651   7.104   9.184 -0.9609 -1.2152  0.5274
  499MOL0     H67316   6.755   6.947   8.838  1.3725 -4.2503 -1.8844
  499MOL0     H67317   6.989   6.886   8.746  1.1031 -0.6054 -0.4146
  499MOL0     H67318   7.121   6.860   8.873  0.2044  0.9337 -0.3001
  499MOL0     H67319   7.050   6.629   8.901  0.5684 -1.5940 -1.5385
  499MOL0     H67320   6.903   6.655   8.815 -0.3647  1.3153  1.8393
  499MOL0     H67321   7.032   6.673   8.594  0.8985  1.4546  0.4338
  499MOL0     H67322   7.039   6.523   8.690 -1.7960  0.7049 -2.0086
  499MOL0     H67323   7.268   6.631   8.789  2.5445  0.3856 -0.5793
  499MOL0     H67324   7.244   6.755   8.673  1.8441 -0.3441  4.2225
  499MOL0     H67325   7.453   6.743   8.728 -3.4121 -1.2571  0.0603
  499MOL0     H67326   7.700   6.742   8.727  1.3110 -1.1334  2.2169
  499MOL0     H67327   7.974   6.305   8.335 -0.6480  0.0065  1.3286
  499MOL0     H67328   8.190   6.237   8.263 -0.2539  1.6134 -1.2707
  499MOL0     H67329   8.561   6.373   8.496  2.8282 -0.3527 -3.1460
  499MOL0     H67330   8.492   6.224   8.571 -2.3945 -1.0742 -2.1717
  499MOL0     H67331   8.583   6.081   8.395  0.3488  0.0478 -1.6463
  499MOL0     H67332   8.642   6.231   8.314  0.5827 -0.7224 -0.4374
  499MOL0     H67333   8.800   6.284   8.466  3.7149 -1.7140  2.1669
  499MOL0     H67334   8.740   6.182   8.592  0.2355 -0.0144  0.0321
  499MOL0     H67335   8.855   6.094   8.319  0.3685  0.4938 -0.2957
  499MOL0     H67336   8.780   5.985   8.437  1.4172  0.6894  3.4409
  499MOL0     H67337   8.967   6.072   8.604 -0.1286  2.1995  0.1763
  499MOL0     H67338   9.043   6.156   8.477 -0.1146  1.2814  0.9577
  499MOL0     H67339   8.989   5.865   8.484  0.4555 -0.5969  3.4058
  499MOL0     H67340   9.074   5.958   8.359  0.1706 -0.4647  0.4250
  499MOL0     H67341   9.172   5.860   8.615  0.0648  0.6589  0.3026
  499MOL0     H67342   9.190   6.030   8.622 -4.1864  0.9210  0.2714
  499MOL0     H67343   9.411   5.907   8.532  0.2419  0.0948 -0.0549
  499MOL0     H67344   9.302   5.832   8.421 -0.0735 -0.6487  1.0616
  499MOL0     H67345   8.357   6.437   8.612 -1.6255  0.5703  0.9906
  499MOL0     H67346   8.124   6.517   8.670  1.0734 -0.3590  1.1400
  499MOL0     H67347   7.687   6.425   8.433  0.7472 -0.3565  1.6567
  499MOL0     H67348   7.441   6.421   8.442  0.1425 -2.0409  1.5772
  499MOL0     H67349   5.613   6.792   8.967  2.0923  2.2830  0.2036
  499MOL0     H67350   5.417   6.891   8.871 -0.5980  0.4012  0.1945
  499MOL0     H67351   5.176   7.287   8.869  0.4832  2.8586 -2.1420
  499MOL0     H67352   5.024   7.423   8.737  0.2671 -0.0840 -1.2843
  499MOL0     H67353   4.850   7.530   8.709 -0.0983  0.3986 -0.3360
  499MOL0     H67354   4.679   7.476   8.726  0.7187 -1.7289  1.9725
  499MOL0     H67355   4.665   7.477   8.474  0.3611  1.9497 -4.5099
  499MOL0     H67356   4.838   7.535   8.470 -0.2639 -0.5313 -0.9255
  499MOL0     H67357   4.752   7.742   8.598 -0.9703 -0.2638  1.3248
  499MOL0     H67358   4.601   7.663   8.605 -1.8498 -2.3276 -1.5314
  499MOL0     H67359   4.763   7.773   8.374 -0.5723  3.2857  0.4877
  499MOL0     H67360   4.622   7.684   8.324  1.4261  0.0695 -0.0508
  499MOL0     H67361   4.507   8.075   8.482 -1.2321 -0.9335  0.9943
  499MOL0     H67362   4.757   7.096   8.690  0.3909  0.5831 -1.7952
  499MOL0     H67363   4.904   6.903   8.979 -1.1805  0.5133 -0.3462
  499MOL0     H67364   4.768   6.938   8.880  0.1217 -1.5573 -1.8595
  499MOL0     H67365   4.894   6.842   8.810  1.4329  0.6173 -1.5096
  500MOL0     O67366   7.073   2.849   2.120  0.8088  0.3073  0.0125
  500MOL0     C67367   7.119   2.955   2.076  0.7809 -0.3547  0.0407
  500MOL0     O67368   7.064   3.077   2.098 -0.2132 -0.5292  0.1996
  500MOL0     C67369   6.932   3.096   2.078  0.6972  0.8289  0.3809
  500MOL0     C67370   6.872   3.193   2.158  0.0857 -0.6975 -0.2113
  500MOL0     C67371   6.735   3.217   2.158  0.7496  0.4447  0.2274
  500MOL0     C67372   6.646   3.137   2.078 -0.2159  0.1112  0.3664
  500MOL0     O67373   6.514   3.152   2.053 -0.2910  0.0116 -0.4137
  500MOL0     C67374   6.446   3.268   2.109  0.2245 -0.0996  0.5259
  500MOL0     C67375   6.290   3.257   2.070 -0.4874 -1.2886  0.1447
  500MOL0     C67376   6.204   3.358   2.140 -0.5457  0.3667 -0.0776
  500MOL0     C67377   6.069   3.382   2.066  0.8930  0.2666  0.5229
  500MOL0     C67378   5.976   3.482   2.136 -0.3857  0.1360  0.0163
  500MOL0     C67379   5.845   3.497   2.057  0.1136 -0.5198 -0.3386
  500MOL0     C67380   5.730   3.568   2.140 -0.0368 -0.8076  0.1828
  500MOL0     C67381   5.601   3.589   2.063  0.6448 -0.0137  0.1828
  500MOL0     N67382   5.498   3.640   2.151  0.0600  0.1012 -0.1722
  500MOL0     C67383   5.427   3.568   2.236  0.4053 -0.2664 -0.8842
  500MOL0     C67384   5.349   3.659   2.296 -0.3085  0.3079  0.6320
  500MOL0     C67385   5.256   3.629   2.408  0.9262 -0.7384  0.1973
  500MOL0     C67386   5.314   3.615   2.558  0.3769 -0.7143  0.5850
  500MOL0     C67387   5.357   3.744   2.630 -0.8339  0.0405 -0.5587
  500MOL0     C67388   5.495   3.792   2.573  0.7418  0.0080 -0.8049
  500MOL0     O67389   5.604   3.706   2.605  0.1713  0.1076  0.2210
  500MOL0     C67390   5.729   3.732   2.552  0.5007 -0.3108  0.5628
  500MOL0     C67391   5.826   3.630   2.566 -0.1220  0.4602  0.1515
  500MOL0     C67392   5.948   3.641   2.503 -0.7462  0.0461 -0.4290
  500MOL0     C67393   5.973   3.739   2.406 -0.2374  0.2382 -0.4677
  500MOL0     C67394   6.110   3.747   2.354 -0.4082  1.2061 -0.1498
  500MOL0     O67395   6.175   3.625   2.352 -0.0252 -0.0055  0.4553
  500MOL0     C67396   6.312   3.621   2.329  0.7548 -0.3666 -0.1203
  500MOL0     C67397   6.404   3.701   2.251 -0.2430 -0.1364 -0.0922
  500MOL0     C67398   6.541   3.693   2.248  0.2028  0.4442 -0.5752
  500MOL0     C67399   6.598   3.589   2.321 -0.3757  0.2773  0.1115
  500MOL0     O67400   6.731   3.562   2.334 -0.0283  0.6990  0.2595
  500MOL0     C67401   6.809   3.564   2.223  0.5278  0.2259 -0.5422
  500MOL0     C67402   6.948   3.533   2.266 -0.3318  0.3035 -0.2175
  500MOL0     C67403   7.049   3.517   2.150 -0.4510  0.4290 -0.3060
  500MOL0     C67404   7.178   3.459   2.212  0.0287  0.8373  0.7431
  500MOL0     C67405   7.309   3.457   2.121  0.6907 -0.0062  0.4723
  500MOL0     C67406   7.304   3.360   2.003  0.2968 -0.3674  0.4253
  500MOL0     C67407   7.435   3.365   1.920  0.6531  0.7293  0.4310
  500MOL0     C67408   7.416   3.344   1.770 -0.1693 -0.5821 -1.0741
  500MOL0    Cl67409   7.355   3.179   1.733 -0.1674  0.0841 -0.1484
  500MOL0     C67410   6.511   3.502   2.391 -0.5906  0.1472 -0.1371
  500MOL0     C67411   6.373   3.520   2.397  0.1486 -0.2125 -0.0048
  500MOL0     O67412   6.150   3.857   2.311 -0.4660 -0.8996 -0.3738
  500MOL0     C67413   5.875   3.846   2.393 -1.1010  0.0904 -0.4179
  500MOL0     C67414   5.752   3.833   2.460 -0.5460 -0.0333  0.6328
  500MOL0     N67415   5.375   3.790   2.248  0.0661  0.3595  0.4848
  500MOL0     N67416   5.480   3.778   2.167  0.6028  0.5051  0.2043
  500MOL0     C67417   6.704   3.041   1.993 -0.2816 -0.0138  0.0733
  500MOL0     C67418   6.845   3.017   1.990  0.4179  0.6518 -0.4905
  500MOL0     C67419   7.256   2.960   2.027 -0.2126 -0.3524 -0.1454
  500MOL0     C67420   7.279   2.894   1.905 -0.0876 -0.1785 -0.3996
  500MOL0     C67421   7.406   2.881   1.861  0.4093  0.2402  0.6706
  500MOL0     C67422   7.523   2.910   1.934  1.6067  0.1115  0.1769
  500MOL0     O67423   7.650   2.873   1.884  0.2044 -0.1116  0.0037
  500MOL0     C67424   7.762   2.910   1.964  0.8710  0.3271 -0.0608
  500MOL0     C67425   7.877   2.824   1.914 -0.7493  0.0005 -0.5536
  500MOL0     C67426   7.998   2.855   2.003 -0.2026 -0.1135 -0.5478
  500MOL0     C67427   8.124   2.793   1.946 -0.1813  0.0383 -0.2834
  500MOL0     C67428   8.174   2.873   1.829  0.0915 -0.9337 -0.1198
  500MOL0     C67429   8.226   2.960   1.761 -0.6039 -0.1512 -0.6569
  500MOL0     C67430   7.500   2.969   2.060  0.4820 -0.1828  0.6760
  500MOL0     C67431   7.365   2.996   2.106 -0.6018  0.6471 -0.5366
  500MOL0     C67432   7.344   3.054   2.246  0.4662 -0.1083  0.1339
  500MOL0     H67433   6.929   3.260   2.222  0.3682 -0.4414 -0.7259
  500MOL0     H67434   6.681   3.287   2.221 -0.4153  0.2890 -0.5588
  500MOL0     H67435   6.451   3.270   2.218  1.8776 -1.1295  0.5096
  500MOL0     H67436   6.494   3.359   2.073  0.6877 -0.5166  0.0581
  500MOL0     H67437   6.248   3.159   2.096  1.0479 -1.8849  0.4909
  500MOL0     H67438   6.278   3.270   1.962  0.1960  1.3726  0.3225
  500MOL0     H67439   6.261   3.451   2.139 -0.5523  0.3704 -0.1109
  500MOL0     H67440   6.176   3.321   2.239 -0.3849 -1.6321 -0.7199
  500MOL0     H67441   6.087   3.419   1.965  0.1765 -0.2783  0.1852
  500MOL0     H67442   6.006   3.293   2.052  0.9669 -0.0277  1.8775
  500MOL0     H67443   5.953   3.445   2.236  2.6759  1.4741  1.3426
  500MOL0     H67444   6.029   3.577   2.151 -0.8752  0.1254  2.0818
  500MOL0     H67445   5.858   3.551   1.962  0.9617 -0.8434 -0.4123
  500MOL0     H67446   5.816   3.395   2.032  1.8545 -1.4991  1.3632
  500MOL0     H67447   5.760   3.665   2.180 -1.2969  0.7898 -2.4178
  500MOL0     H67448   5.708   3.496   2.219  1.8935 -4.2196 -2.1474
  500MOL0     H67449   5.605   3.665   1.984 -1.0947  0.0978  0.1637
  500MOL0     H67450   5.575   3.492   2.021 -0.8972  1.8177 -3.5945
  500MOL0     H67451   5.425   3.460   2.248  0.1119  0.0253  2.6671
  500MOL0     H67452   5.169   3.696   2.413  1.2317 -0.4305  2.2885
  500MOL0     H67453   5.204   3.534   2.396 -2.4280  0.9368  0.1976
  500MOL0     H67454   5.237   3.565   2.618  0.3858  0.1390  1.3215
  500MOL0     H67455   5.404   3.553   2.561  0.5929 -0.3477  1.6783
  500MOL0     H67456   5.372   3.714   2.734  2.1255  2.3256 -0.1640
  500MOL0     H67457   5.288   3.826   2.612  2.7487  3.0316 -1.9668
  500MOL0     H67458   5.511   3.896   2.603 -1.7603  0.3706 -0.5403
  500MOL0     H67459   5.482   3.800   2.465 -3.6267  1.1366 -0.3493
  500MOL0     H67460   5.819   3.542   2.628  3.3590  0.9969  1.5226
  500MOL0     H67461   6.020   3.562   2.523 -0.3035  0.7911  1.1126
  500MOL0     H67462   6.358   3.785   2.200 -0.1690 -0.4481 -0.6829
  500MOL0     H67463   6.601   3.768   2.198  1.4337  0.2317  0.5099
  500MOL0     H67464   6.775   3.483   2.157 -0.0858 -1.4479  1.6852
  500MOL0     H67465   6.817   3.655   2.164  2.8913 -0.4996 -1.4864
  500MOL0     H67466   6.977   3.612   2.337 -0.6874  1.4975 -1.3635
  500MOL0     H67467   6.937   3.442   2.325 -2.2688 -0.4819 -1.6963
  500MOL0     H67468   7.021   3.441   2.077  3.5144  1.7293 -3.6196
  500MOL0     H67469   7.071   3.610   2.096  1.6922  0.9235  1.2794
  500MOL0     H67470   7.162   3.358   2.249 -0.5136  1.1354  1.3393
  500MOL0     H67471   7.212   3.525   2.293  0.4023  1.4053  0.1340
  500MOL0     H67472   7.395   3.422   2.179  0.5457 -1.6137 -0.2314
  500MOL0     H67473   7.324   3.562   2.098 -1.2315  0.2342  0.1392
  500MOL0     H67474   7.297   3.258   2.041 -0.0550 -0.0726  1.1840
  500MOL0     H67475   7.216   3.379   1.940  1.3471  0.5127 -0.8257
  500MOL0     H67476   7.502   3.285   1.954  0.6202 -2.3257 -5.4259
  500MOL0     H67477   7.478   3.465   1.934 -2.1471  1.9574  0.9692
  500MOL0     H67478   7.359   3.424   1.722  0.4047  0.4476 -0.0957
  500MOL0     H67479   7.509   3.366   1.716 -1.2948  1.6488 -2.2742
  500MOL0     H67480   6.563   3.420   2.439 -2.0781 -1.7567 -1.6042
  500MOL0     H67481   6.314   3.445   2.449 -0.9287 -1.3027 -2.6211
  500MOL0     H67482   5.893   3.917   2.313 -1.8552  0.9916  0.1864
  500MOL0     H67483   5.679   3.914   2.452 -1.1476 -0.7077 -1.4492
  500MOL0     H67484   6.641   3.006   1.912  1.6720 -0.7294 -1.2154
  500MOL0     H67485   6.901   2.944   1.932  0.1255  0.8262 -0.9961
  500MOL0     H67486   7.195   2.855   1.849 -3.3948  3.2300  1.7334
  500MOL0     H67487   7.421   2.817   1.775  1.4641 -1.3358  1.9567
  500MOL0     H67488   7.749   2.871   2.066 -1.1047 -0.3121 -0.5138
  500MOL0     H67489   7.791   3.015   1.956  2.7830 -0.3109 -2.7374
  500MOL0     H67490   7.894   2.848   1.809 -1.8342  1.3394 -0.4525
  500MOL0     H67491   7.850   2.718   1.916 -1.8246  0.2254 -1.6869
  500MOL0     H67492   7.992   2.824   2.107 -0.1582 -0.2648 -0.5890
  500MOL0     H67493   8.016   2.960   2.028  3.4676 -0.7688  0.2390
  500MOL0     H67494   8.198   2.776   2.024  0.2166  0.3794 -0.5813
  500MOL0     H67495   8.092   2.695   1.911  1.6152  0.2719 -2.7742
  500MOL0     H67496   8.248   3.050   1.706  0.2530  1.2694  1.8597
  500MOL0     H67497   7.578   3.000   2.130 -1.9802  2.1857  2.6105
  500MOL0     H67498   7.434   3.053   2.308  1.0569 -1.4239 -0.6942
  500MOL0     H67499   7.320   3.160   2.230 -1.5460 -0.9166 -3.0878
  500MOL0     H67500   7.263   3.010   2.305 -0.0947 -2.4438 -2.1838
  501MOL0     O67501   7.461  10.069   7.722  0.1811 -0.4505  0.3897
  501MOL0     C67502   7.389   9.969   7.719  0.4396 -0.9957 -0.1857
  501MOL0     O67503   7.433   9.842   7.749  0.0254 -0.0601 -0.0288
  501MOL0     C67504   7.565   9.840   7.787  0.0329 -0.1739  0.1575
  501MOL0     C67505   7.662   9.855   7.684 -0.2181 -0.1822  0.0044
  501MOL0     C67506   7.797   9.836   7.703  0.6495  0.0435 -0.3511
  501MOL0     C67507   7.841   9.813   7.835 -0.3644  1.0025  0.2608
  501MOL0     O67508   7.973   9.789   7.875 -0.9417  0.3803 -0.0096
  501MOL0     C67509   8.079   9.773   7.786 -0.6097  0.0358 -0.6179
  501MOL0     C67510   8.211   9.801   7.842 -0.3879 -0.6813 -0.1013
  501MOL0     C67511   8.319   9.769   7.732  0.1524  0.6680  0.5624
  501MOL0     C67512   8.449   9.777   7.798  0.0610  0.7163  0.2644
  501MOL0     C67513   8.570   9.774   7.706 -0.5067  0.4225 -0.2274
  501MOL0     C67514   8.707   9.770   7.776  0.0173 -0.5251 -0.1503
  501MOL0     C67515   8.831   9.771   7.686  0.4272 -0.0301 -0.0039
  501MOL0     C67516   8.959   9.793   7.768 -0.5697 -1.4717  0.5604
  501MOL0     N67517   9.081   9.800   7.680  0.5946  0.7053  0.7766
  501MOL0     C67518   9.153   9.918   7.645  0.1421  0.1039 -0.1349
  501MOL0     C67519   9.276   9.879   7.617 -0.0009 -0.5298 -0.0129
  501MOL0     C67520   9.392   9.975   7.581  0.5501 -0.4978  0.4009
  501MOL0     C67521   9.513   9.917   7.497 -0.4908  1.8342 -0.3021
  501MOL0     C67522   9.651   9.958   7.550 -0.4794  0.6067  0.5733
  501MOL0     C67523   9.765   9.904   7.454  0.2685 -0.2557 -0.4460
  501MOL0     O67524   9.882   9.962   7.510 -0.0153 -0.5823  0.6018
  501MOL0     C67525  10.001   9.941   7.444 -0.4081  0.4910 -0.4129
  501MOL0     C67526  10.017   9.861   7.332  0.5515  0.5328  0.8157
  501MOL0     C67527  10.137   9.818   7.278 -0.3104  0.3392  0.7313
  501MOL0     C67528  10.255   9.870   7.340 -0.8765 -0.6974 -1.4237
  501MOL0     C67529  10.393   9.839   7.291  0.3540  0.2931  0.4566
  501MOL0     O67530  10.404   9.737   7.199  0.2788 -0.2403  0.4493
  501MOL0     C67531  10.530   9.692   7.178  0.1254 -0.6662 -0.4311
  501MOL0     C67532  10.616   9.751   7.086  0.1479  0.4755 -0.7425
  501MOL0     C67533  10.745   9.698   7.059  0.6053 -0.0987  0.5212
  501MOL0     C67534  10.798   9.595   7.133 -0.2586 -0.0050  0.1507
  501MOL0     O67535  10.917   9.539   7.103 -0.4027  1.1271 -0.0618
  501MOL0     C67536  10.997   9.490   7.208 -0.5955 -0.4197 -0.0477
  501MOL0     C67537  11.132   9.449   7.161 -0.0184  0.3920 -0.1879
  501MOL0     C67538  11.203   9.373   7.276 -0.0952 -0.0376  0.3384
  501MOL0     C67539  11.342   9.327   7.224  0.2351  0.5392  0.1073
  501MOL0     C67540  11.395   9.215   7.312  0.2238  0.0269  0.4849
  501MOL0     C67541  11.517   9.141   7.260 -0.3594 -0.0667 -0.3806
  501MOL0     C67542  11.645   9.166   7.340 -1.1269 -0.3970 -0.3114
  501MOL0     C67543  11.772   9.093   7.277 -0.5326 -0.0351 -0.0628
  501MOL0    Cl67544  11.928   9.166   7.327  0.2053  0.3004  0.0401
  501MOL0     C67545  10.707   9.544   7.235 -0.7495  0.6406 -0.8060
  501MOL0     C67546  10.582   9.594   7.256 -0.3164 -0.7397 -0.8219
  501MOL0     O67547  10.482   9.912   7.329  0.5459 -0.7006 -0.2447
  501MOL0     C67548  10.244   9.962   7.453  0.3178  0.1230 -0.2745
  501MOL0     C67549  10.114   9.996   7.501 -0.1812  0.1449 -0.5311
  501MOL0     N67550   9.289   9.743   7.637  0.0525 -0.5248  1.4019
  501MOL0     N67551   9.167   9.696   7.659 -0.0943 -0.4203  0.4803
  501MOL0     C67552   7.751   9.807   7.939 -0.0251  0.1229 -0.2082
  501MOL0     C67553   7.613   9.819   7.915 -0.6357  0.5603 -0.2066
  501MOL0     C67554   7.247   9.978   7.679  0.3284 -1.0298  0.5566
  501MOL0     C67555   7.175   9.849   7.665 -0.2303 -0.0528 -0.1147
  501MOL0     C67556   7.037   9.832   7.643 -0.5990  0.1268  0.6457
  501MOL0     C67557   6.967   9.950   7.614 -1.2952 -0.3959 -0.6150
  501MOL0     O67558   6.837   9.933   7.587 -0.2308  0.8021  0.2039
  501MOL0     C67559   6.747   9.961   7.697  0.5224  0.7759  0.1370
  501MOL0     C67560   6.598   9.944   7.662  0.3746 -0.5498  0.1233
  501MOL0     C67561   6.558   9.797   7.658  0.6217  0.2461 -0.7520
  501MOL0     C67562   6.439   9.762   7.565 -0.2387 -0.1864  0.0774
  501MOL0     C67563   6.317   9.814   7.608  0.3058 -0.0542  0.6698
  501MOL0     C67564   6.213   9.859   7.649 -0.4427  0.7324 -0.2461
  501MOL0     C67565   7.032  10.080   7.629  0.2196  0.6110 -0.1134
  501MOL0     C67566   7.160  10.094   7.668 -0.4117 -0.5733 -0.5034
  501MOL0     C67567   7.213  10.229   7.706  0.0714  0.7092 -0.3992
  501MOL0     H67568   7.640   9.878   7.580 -0.6650  1.1661  0.3721
  501MOL0     H67569   7.866   9.850   7.621  1.8451  0.4271  0.6877
  501MOL0     H67570   8.076   9.670   7.751 -1.3291  0.4716 -1.9211
  501MOL0     H67571   8.067   9.841   7.700 -0.2481  1.4645  0.4377
  501MOL0     H67572   8.222   9.742   7.933 -0.1722 -0.5696 -0.0551
  501MOL0     H67573   8.217   9.902   7.883  3.1816 -0.7155 -0.2201
  501MOL0     H67574   8.305   9.842   7.650 -1.1170  1.3382  1.3389
  501MOL0     H67575   8.301   9.668   7.696  0.0773  0.4992  1.0782
  501MOL0     H67576   8.456   9.867   7.860  1.0063  0.8686 -0.0469
  501MOL0     H67577   8.457   9.690   7.865 -0.9811  1.2198  1.0603
  501MOL0     H67578   8.561   9.683   7.645 -0.8796 -0.9897  1.8432
  501MOL0     H67579   8.575   9.862   7.641  1.5255  0.3385 -0.2425
  501MOL0     H67580   8.713   9.860   7.839 -2.5140 -0.0582 -0.4902
  501MOL0     H67581   8.725   9.687   7.845 -0.7414  0.4943  1.3277
  501MOL0     H67582   8.823   9.851   7.613  0.6156  1.7586  1.8534
  501MOL0     H67583   8.837   9.675   7.632  2.7786 -0.0230  0.1267
  501MOL0     H67584   8.943   9.890   7.815 -3.5870  0.3424 -3.5438
  501MOL0     H67585   8.968   9.721   7.849  2.0141 -1.3712  0.4410
  501MOL0     H67586   9.129  10.024   7.647  1.7738  0.4791  0.1866
  501MOL0     H67587   9.349  10.059   7.526  0.0866 -2.0507 -1.7559
  501MOL0     H67588   9.435  10.016   7.673  0.4731  1.2903 -0.3219
  501MOL0     H67589   9.516   9.807   7.500  0.3036  1.8072 -1.6831
  501MOL0     H67590   9.504   9.941   7.391  1.0810  1.2025 -0.6077
  501MOL0     H67591   9.658   9.918   7.652 -1.8265 -3.6653 -0.7698
  501MOL0     H67592   9.656  10.067   7.549 -2.2700  0.7384 -1.1911
  501MOL0     H67593   9.760   9.950   7.355  2.5070  0.1469 -0.4362
  501MOL0     H67594   9.772   9.795   7.455 -0.1163 -0.2804 -0.4308
  501MOL0     H67595   9.926   9.836   7.278 -0.0773  1.7625  1.2794
  501MOL0     H67596  10.140   9.756   7.189  1.2716 -0.1569  1.0944
  501MOL0     H67597  10.578   9.830   7.022 -1.0847  0.0542 -0.5668
  501MOL0     H67598  10.801   9.747   6.980  2.5329  0.6748  2.2819
  501MOL0     H67599  11.015   9.565   7.285  0.5413  0.0306 -0.7291
  501MOL0     H67600  10.940   9.410   7.256 -1.2704  0.2031  0.2170
  501MOL0     H67601  11.120   9.391   7.069 -0.8409 -1.7608  1.2172
  501MOL0     H67602  11.186   9.538   7.126  2.9583 -1.9777 -2.1870
  501MOL0     H67603  11.213   9.433   7.367  0.6414  0.8967 -0.3471
  501MOL0     H67604  11.129   9.297   7.303  1.2582 -0.7136  2.3721
  501MOL0     H67605  11.414   9.409   7.224  2.1307 -0.9317  3.2332
  501MOL0     H67606  11.338   9.297   7.119  1.9248 -0.9222  0.4165
  501MOL0     H67607  11.315   9.140   7.317 -0.5011  0.6218 -1.2978
  501MOL0     H67608  11.401   9.249   7.416 -0.9224  0.0071  0.5762
  501MOL0     H67609  11.488   9.035   7.259 -2.4313  0.4231 -2.3943
  501MOL0     H67610  11.532   9.171   7.156  0.5874 -1.3918 -0.6511
  501MOL0     H67611  11.643   9.141   7.446  1.1962  0.7472  0.0522
  501MOL0     H67612  11.661   9.273   7.327 -2.0310 -0.1475  0.5432
  501MOL0     H67613  11.772   8.985   7.292 -1.4091 -0.0442 -0.0665
  501MOL0     H67614  11.751   9.112   7.171 -0.3739  2.8401  0.3425
  501MOL0     H67615  10.726   9.465   7.307 -1.1176  2.6927  1.6773
  501MOL0     H67616  10.517   9.559   7.336 -0.9524  1.2727 -0.4021
  501MOL0     H67617  10.333  10.003   7.499  1.5416 -1.3960 -1.1877
  501MOL0     H67618  10.107  10.073   7.577 -2.0210  0.5674 -1.0892
  501MOL0     H67619   7.783   9.791   8.041 -0.5317 -1.5361 -0.2860
  501MOL0     H67620   7.539   9.810   7.994  0.8570 -2.3346  1.0321
  501MOL0     H67621   7.233   9.758   7.678  0.5789  0.1048 -2.2914
  501MOL0     H67622   6.977   9.741   7.642 -1.3255  0.5932 -0.6496
  501MOL0     H67623   6.763  10.063   7.732 -0.4784 -0.3314  4.3958
  501MOL0     H67624   6.772   9.908   7.789  3.3023  0.3843 -0.7682
  501MOL0     H67625   6.580  10.000   7.570 -2.9037  2.3059  2.2427
  501MOL0     H67626   6.535  10.000   7.732  2.2882  2.0147 -0.0522
  501MOL0     H67627   6.539   9.759   7.759  2.7664  0.3286 -0.2651
  501MOL0     H67628   6.649   9.754   7.615  1.5864 -0.6623  1.9649
  501MOL0     H67629   6.459   9.805   7.467 -1.9128  2.0929  0.6661
  501MOL0     H67630   6.426   9.653   7.562  1.9433 -0.5265  1.1516
  501MOL0     H67631   6.117   9.902   7.673 -1.7734 -2.8579  1.6277
  501MOL0     H67632   6.969  10.168   7.623  1.3922  1.4783 -0.0653
  501MOL0     H67633   7.232  10.220   7.813  1.3201 -0.7566 -0.7138
  501MOL0     H67634   7.302  10.252   7.647  1.0589 -2.1405 -0.1643
  501MOL0     H67635   7.145  10.313   7.691 -1.0517 -0.3799 -1.6886
  502MOL0     O67636   3.615   4.397   7.831 -0.9861 -0.3865  0.5449
  502MOL0     C67637   3.553   4.491   7.779  0.2973 -0.3093 -0.2262
  502MOL0     O67638   3.600   4.588   7.698 -0.1926  0.3560  0.8472
  502MOL0     C67639   3.735   4.564   7.664  0.6024 -0.7675  0.3664
  502MOL0     C67640   3.824   4.636   7.744  0.6245  0.5052  0.4773
  502MOL0     C67641   3.962   4.632   7.715  0.1163 -0.5351 -0.0169
  502MOL0     C67642   4.010   4.543   7.611  0.2814  0.3362 -0.7263
  502MOL0     O67643   4.146   4.522   7.586  0.5122  0.3222  0.5823
  502MOL0     C67644   4.231   4.637   7.608 -0.8190 -0.2623 -0.7853
  502MOL0     C67645   4.380   4.596   7.608  0.3132  0.7761 -0.3324
  502MOL0     C67646   4.469   4.705   7.654  0.3302 -0.1182 -0.1756
  502MOL0     C67647   4.616   4.659   7.652  0.0548  0.3278  0.4818
  502MOL0     C67648   4.704   4.768   7.722  0.0896  0.1147  0.8827
  502MOL0     C67649   4.853   4.728   7.730  0.2048  0.2623 -0.1320
  502MOL0     C67650   4.929   4.849   7.779  0.5272 -0.5920  0.0739
  502MOL0     C67651   4.967   4.947   7.662 -0.3664  0.0885  0.2552
  502MOL0     N67652   5.042   4.876   7.556 -0.0639  0.6451  0.5133
  502MOL0     C67653   5.016   4.873   7.421 -0.0125 -0.4504  0.6812
  502MOL0     C67654   5.098   4.777   7.369  0.0563  0.5852  0.2638
  502MOL0     C67655   5.106   4.740   7.220 -0.5168  0.5539 -0.2392
  502MOL0     C67656   5.230   4.808   7.158  0.3585 -0.8642 -0.1334
  502MOL0     C67657   5.359   4.729   7.180  0.6852  0.9910  0.2484
  502MOL0     C67658   5.470   4.833   7.189 -0.0458  0.3040  0.0782
  502MOL0     O67659   5.596   4.771   7.152  0.6376 -1.3057 -0.2987
  502MOL0     C67660   5.714   4.839   7.168  0.0434  0.1277 -0.6016
  502MOL0     C67661   5.729   4.973   7.201  0.8089 -0.4563  0.2845
  502MOL0     C67662   5.857   5.031   7.238  0.6088 -0.3221  0.5147
  502MOL0     C67663   5.975   4.957   7.209 -0.5866  0.1653 -0.1574
  502MOL0     C67664   6.111   5.013   7.216 -0.1766  0.7465 -0.9486
  502MOL0     O67665   6.213   4.932   7.167  0.4692 -0.6625 -0.5307
  502MOL0     C67666   6.351   4.965   7.178 -0.1031 -0.3535  0.6265
  502MOL0     C67667   6.408   5.061   7.270 -0.1399 -0.0611  0.4554
  502MOL0     C67668   6.545   5.088   7.259 -0.3655  0.0172  0.1300
  502MOL0     C67669   6.633   5.010   7.179  0.4373  0.5441  0.1433
  502MOL0     O67670   6.768   5.044   7.188 -0.2021  0.2290 -0.3703
  502MOL0     C67671   6.881   4.983   7.119  0.8102 -1.1797 -0.2593
  502MOL0     C67672   6.961   4.908   7.227 -0.5559 -0.2665 -0.0090
  502MOL0     C67673   7.081   4.824   7.168 -0.2533 -0.6502  0.8360
  502MOL0     C67674   7.189   4.922   7.109  0.0094  0.2540 -0.5387
  502MOL0     C67675   7.337   4.885   7.112  0.3046  0.5185  0.8644
  502MOL0     C67676   7.374   4.742   7.058  0.3299 -0.5854 -0.9387
  502MOL0     C67677   7.524   4.733   7.063 -0.2938  0.2259 -0.5058
  502MOL0     C67678   7.577   4.606   6.996  0.6464 -0.8065 -0.5358
  502MOL0    Cl67679   7.752   4.576   7.036 -0.1218 -0.0044 -0.0731
  502MOL0     C67680   6.572   4.910   7.097 -0.1494 -0.5193 -1.1327
  502MOL0     C67681   6.437   4.889   7.102  0.6493 -1.0402 -0.5134
  502MOL0     O67682   6.121   5.129   7.247 -0.1764  0.2109  0.0903
  502MOL0     C67683   5.956   4.825   7.158  0.2669  0.5417  0.5415
  502MOL0     C67684   5.829   4.765   7.148 -0.4543  0.8340 -0.0035
  502MOL0     N67685   5.172   4.725   7.476 -0.1548  0.1962  0.6085
  502MOL0     N67686   5.148   4.793   7.585  0.0847 -0.2815 -0.1975
  502MOL0     C67687   3.924   4.471   7.539  0.3235  0.5054 -0.0280
  502MOL0     C67688   3.780   4.489   7.560 -0.5133 -0.2971 -0.8884
  502MOL0     C67689   3.406   4.485   7.820  0.5318 -0.3874 -0.6046
  502MOL0     C67690   3.367   4.420   7.941  0.1782  0.2743 -0.1987
  502MOL0     C67691   3.234   4.402   7.969 -0.1148 -0.1983  0.2551
  502MOL0     C67692   3.129   4.448   7.886  0.4998 -0.9137  0.4341
  502MOL0     O67693   2.995   4.424   7.899  0.7052  1.2545  0.1208
  502MOL0     C67694   2.956   4.294   7.953  0.9816  0.6486 -0.0428
  502MOL0     C67695   2.977   4.177   7.858 -0.0218  0.3174  0.2168
  502MOL0     C67696   2.945   4.035   7.919 -0.0912 -0.3025  0.0479
  502MOL0     C67697   3.007   3.930   7.824  0.2903  0.1321 -1.4468
  502MOL0     C67698   2.982   3.949   7.681 -0.2179 -0.0627 -0.5052
  502MOL0     C67699   2.973   3.985   7.564 -0.2051 -1.0083  0.2785
  502MOL0     C67700   3.166   4.508   7.770 -1.0534 -1.2984  0.2751
  502MOL0     C67701   3.298   4.525   7.736 -0.7156  0.1788 -0.4389
  502MOL0     C67702   3.321   4.602   7.612  0.6152  0.3725  0.4123
  502MOL0     H67703   3.795   4.714   7.813  0.6711 -1.4045  2.7812
  502MOL0     H67704   4.023   4.709   7.760 -0.5735  0.5279 -0.8445
  502MOL0     H67705   4.216   4.711   7.528 -1.4951 -1.6514 -1.9930
  502MOL0     H67706   4.213   4.672   7.710 -0.8343 -0.3171 -0.7693
  502MOL0     H67707   4.405   4.574   7.504  0.4182  0.4765 -0.2449
  502MOL0     H67708   4.400   4.510   7.673  1.5098  0.2511 -1.3617
  502MOL0     H67709   4.438   4.727   7.756  1.3400 -2.7018  0.7902
  502MOL0     H67710   4.452   4.794   7.593  0.6582 -0.1417 -0.3064
  502MOL0     H67711   4.614   4.565   7.708 -1.4695 -0.1412 -0.3229
  502MOL0     H67712   4.645   4.646   7.548  1.5679  0.3045  0.8820
  502MOL0     H67713   4.705   4.860   7.662 -0.0783 -0.3001  0.2423
  502MOL0     H67714   4.659   4.802   7.816 -2.2797  1.4572 -0.6341
  502MOL0     H67715   4.866   4.653   7.808  0.6852  0.9336  0.4377
  502MOL0     H67716   4.883   4.696   7.630 -0.8986 -1.8014  0.1362
  502MOL0     H67717   5.021   4.824   7.832  0.9928  1.9610  0.6113
  502MOL0     H67718   4.873   4.909   7.852  0.9276  2.4948 -1.9956
  502MOL0     H67719   4.879   4.991   7.615  0.6384  1.4873 -0.3669
  502MOL0     H67720   5.025   5.028   7.708 -2.8202  2.2127 -0.1486
  502MOL0     H67721   4.936   4.929   7.374  1.4252  0.6659 -0.5125
  502MOL0     H67722   5.102   4.632   7.203 -3.3767  0.5105  0.2990
  502MOL0     H67723   5.014   4.779   7.177 -2.0089 -1.6097  0.7850
  502MOL0     H67724   5.198   4.820   7.054 -1.8903 -2.5796  0.2741
  502MOL0     H67725   5.240   4.911   7.194  3.7282 -1.0034 -0.3194
  502MOL0     H67726   5.374   4.662   7.096  0.4274  3.2288 -1.6949
  502MOL0     H67727   5.356   4.674   7.275  2.2117 -0.0397 -0.2615
  502MOL0     H67728   5.480   4.874   7.290  1.9434  0.6672 -0.2103
  502MOL0     H67729   5.469   4.919   7.121 -0.8385  1.5301  1.5634
  502MOL0     H67730   5.633   5.022   7.209 -0.5646 -3.0914  1.1724
  502MOL0     H67731   5.860   5.134   7.272 -2.4911 -0.2388  0.7962
  502MOL0     H67732   6.347   5.120   7.337 -1.8261  0.2309 -1.2305
  502MOL0     H67733   6.599   5.155   7.326 -0.7499  0.4772 -0.0149
  502MOL0     H67734   6.845   4.915   7.042  1.5008 -1.2885 -0.4932
  502MOL0     H67735   6.935   5.060   7.064 -0.9157  0.1101 -0.2325
  502MOL0     H67736   6.997   4.973   7.307 -2.0354  0.5314  0.0442
  502MOL0     H67737   6.905   4.824   7.270  1.4188 -2.3951 -1.3794
  502MOL0     H67738   7.114   4.765   7.255 -2.1725  0.5277  2.4641
  502MOL0     H67739   7.047   4.750   7.095 -0.1996  1.5095 -1.4719
  502MOL0     H67740   7.178   5.015   7.165 -1.7005 -0.8600  1.1189
  502MOL0     H67741   7.160   4.946   7.007 -1.3985  1.5187  0.1157
  502MOL0     H67742   7.375   4.890   7.215  3.1128 -1.4632  0.0361
  502MOL0     H67743   7.391   4.954   7.047 -1.7078  1.7178  0.3598
  502MOL0     H67744   7.330   4.659   7.113  2.1021 -1.9439 -1.4757
  502MOL0     H67745   7.340   4.740   6.954  1.2595 -2.1491 -1.2411
  502MOL0     H67746   7.564   4.736   7.165  1.1613  2.5985 -1.0730
  502MOL0     H67747   7.572   4.819   7.017  0.7215 -0.2950 -0.4425
  502MOL0     H67748   7.514   4.531   7.045 -0.7745  0.6331 -0.0769
  502MOL0     H67749   7.563   4.608   6.887 -1.9901  3.8401 -0.4012
  502MOL0     H67750   6.626   4.840   7.035 -2.1875 -2.0921 -1.2438
  502MOL0     H67751   6.385   4.821   7.035 -2.0657  2.3551 -2.2304
  502MOL0     H67752   6.030   4.752   7.125 -1.5362 -0.8338 -0.6345
  502MOL0     H67753   5.805   4.666   7.113 -3.8040  1.1661  0.9408
  502MOL0     H67754   3.959   4.391   7.474  0.3392 -0.7311  1.4352
  502MOL0     H67755   3.704   4.428   7.513  0.1319 -1.0616 -0.9492
  502MOL0     H67756   3.443   4.376   8.006  0.9208  1.5763 -0.1488
  502MOL0     H67757   3.202   4.358   8.063 -1.3097 -0.7470 -0.3920
  502MOL0     H67758   2.847   4.304   7.957  0.7244 -0.0051 -2.8874
  502MOL0     H67759   2.983   4.283   8.058 -2.2254  1.2518  0.9618
  502MOL0     H67760   3.078   4.171   7.815  0.4003  0.0512  1.1915
  502MOL0     H67761   2.899   4.184   7.783 -1.7047 -2.2178  1.5731
  502MOL0     H67762   2.838   4.011   7.915 -0.1079 -0.2145 -0.0221
  502MOL0     H67763   2.979   4.026   8.022 -1.6977  0.7341  0.7075
  502MOL0     H67764   3.110   3.935   7.862 -0.1091  2.5115 -0.4653
  502MOL0     H67765   2.968   3.833   7.856  1.6974  0.1268  0.4619
  502MOL0     H67766   2.970   4.026   7.465  3.1485  1.1652  0.9083
  502MOL0     H67767   3.086   4.520   7.697 -1.2424  1.5396  0.8307
  502MOL0     H67768   3.392   4.550   7.547  0.4213  2.2450 -1.4133
  502MOL0     H67769   3.230   4.613   7.554  1.9454  0.7275 -1.7120
  502MOL0     H67770   3.367   4.701   7.620  2.0162  0.1055 -2.7243
  503MOL0     O67771   8.177   3.372   2.106  0.2968 -0.4610  0.2130
  503MOL0     C67772   8.143   3.372   2.221  0.7136 -0.2610 -0.4729
  503MOL0     O67773   8.230   3.384   2.329  0.3510 -0.4601  0.5937
  503MOL0     C67774   8.365   3.399   2.295 -0.3277  0.6075 -0.4976
  503MOL0     C67775   8.412   3.525   2.265 -0.7197  0.1774 -0.1146
  503MOL0     C67776   8.545   3.548   2.234 -0.5784  0.0702  0.3145
  503MOL0     C67777   8.636   3.442   2.217 -0.5598  0.2819  0.0034
  503MOL0     O67778   8.760   3.468   2.170  0.4567  0.4598 -0.3329
  503MOL0     C67779   8.865   3.397   2.226 -0.6292  0.4400 -0.7230
  503MOL0     C67780   9.000   3.473   2.209  0.6718  1.3038  0.2264
  503MOL0     C67781   9.124   3.383   2.227  0.3021 -0.1156 -0.2654
  503MOL0     C67782   9.257   3.474   2.231 -0.5604 -0.2223 -0.0202
  503MOL0     C67783   9.388   3.399   2.210  0.2588  0.2837 -0.1878
  503MOL0     C67784   9.506   3.496   2.248 -0.1562  0.1061  0.3104
  503MOL0     C67785   9.518   3.620   2.160 -0.3292 -0.7845 -0.6677
  503MOL0     C67786   9.658   3.689   2.172  0.4783 -0.3702  0.4797
  503MOL0     N67787   9.676   3.755   2.297 -0.0990 -0.2060  0.2785
  503MOL0     C67788   9.748   3.699   2.402 -0.5464  0.1164 -0.4348
  503MOL0     C67789   9.720   3.786   2.506  0.5358  0.9929  0.1788
  503MOL0     C67790   9.773   3.746   2.638  0.2657 -0.4608 -0.3250
  503MOL0     C67791   9.700   3.804   2.747  0.0300 -0.1391  0.0146
  503MOL0     C67792   9.699   3.722   2.874 -0.4773  0.0022  0.0526
  503MOL0     C67793   9.842   3.700   2.940  0.2684  0.4306  0.3797
  503MOL0     O67794   9.918   3.827   2.939 -0.1321 -0.0090  0.6061
  503MOL0     C67795  10.056   3.832   2.969 -0.6158 -0.3337  0.4108
  503MOL0     C67796  10.139   3.722   2.956 -1.0219  0.0693  0.1943
  503MOL0     C67797  10.269   3.726   3.013  0.2476 -0.3225 -0.2332
  503MOL0     C67798  10.306   3.836   3.096  0.1106  0.4726 -0.1760
  503MOL0     C67799  10.433   3.835   3.166  0.1635 -0.0257  0.2991
  503MOL0     O67800  10.503   3.716   3.165  0.1373  0.0532  0.2304
  503MOL0     C67801  10.643   3.724   3.193 -0.5605 -0.2853 -0.3214
  503MOL0     C67802  10.721   3.811   3.132 -1.2855 -0.8671 -0.4587
  503MOL0     C67803  10.856   3.829   3.176 -0.4134  0.3510 -0.5590
  503MOL0     C67804  10.912   3.731   3.265  0.3013  0.4952 -0.6787
  503MOL0     O67805  11.049   3.723   3.266  0.5478 -0.1578  0.5132
  503MOL0     C67806  11.118   3.651   3.363 -0.4826  0.3163 -0.9984
  503MOL0     C67807  11.255   3.714   3.381 -0.4742  0.2835  0.0415
  503MOL0     C67808  11.249   3.845   3.462  0.2370 -0.2143 -0.1077
  503MOL0     C67809  11.373   3.873   3.554 -0.4838  0.7970 -0.1442
  503MOL0     C67810  11.507   3.850   3.492  0.4005 -0.1902 -0.4974
  503MOL0     C67811  11.617   3.884   3.596  0.3536 -0.4238  0.8614
  503MOL0     C67812  11.748   3.864   3.529  1.2781  0.9535  0.0953
  503MOL0     C67813  11.858   3.896   3.618  0.7787  0.7084  0.1834
  503MOL0    Cl67814  11.897   4.063   3.608  0.2611 -0.1070  0.3898
  503MOL0     C67815  10.829   3.621   3.307  0.2159  0.0490 -0.5073
  503MOL0     C67816  10.692   3.626   3.275  0.2266  0.6073 -0.1274
  503MOL0     O67817  10.469   3.937   3.225  0.9269  0.5042 -0.1121
  503MOL0     C67818  10.221   3.947   3.104  0.0582 -0.0789 -0.0276
  503MOL0     C67819  10.102   3.947   3.040  0.4463 -0.5580  0.1800
  503MOL0     N67820   9.636   3.883   2.459  0.3480  0.3210  0.5296
  503MOL0     N67821   9.617   3.867   2.335  1.3109  0.0842 -0.4660
  503MOL0     C67822   8.593   3.319   2.258 -0.7011  0.5620  0.6675
  503MOL0     C67823   8.460   3.294   2.301  0.3350  0.2862  0.4855
  503MOL0     C67824   8.000   3.357   2.259  0.2684 -0.5157  0.5981
  503MOL0     C67825   7.969   3.396   2.383 -0.3233 -0.7280  0.0195
  503MOL0     C67826   7.833   3.393   2.435 -0.1475  0.3262  0.8114
  503MOL0     C67827   7.727   3.328   2.358 -1.0778  0.8233 -0.2239
  503MOL0     O67828   7.602   3.306   2.410  0.0353 -0.1317  0.4515
  503MOL0     C67829   7.578   3.330   2.556 -0.2092 -0.9101  0.3609
  503MOL0     C67830   7.429   3.309   2.595  0.1066  0.0331 -0.6645
  503MOL0     C67831   7.357   3.434   2.549  0.1948 -0.1626 -0.4229
  503MOL0     C67832   7.211   3.436   2.598 -0.0552 -0.1793  0.1154
  503MOL0     C67833   7.135   3.325   2.546 -0.2157 -0.7421  0.3828
  503MOL0     C67834   7.082   3.229   2.499 -0.3162  0.1203  0.6059
  503MOL0     C67835   7.768   3.295   2.231 -1.1588 -0.2492  0.1158
  503MOL0     C67836   7.900   3.315   2.170  0.6625  1.6680 -0.8908
  503MOL0     C67837   7.917   3.289   2.026 -0.5216  0.3380  0.6773
  503MOL0     H67838   8.344   3.610   2.268 -0.1976  0.5987 -0.0469
  503MOL0     H67839   8.575   3.647   2.200  1.8730 -0.6541  0.1767
  503MOL0     H67840   8.849   3.370   2.331 -1.2827  1.4906 -0.5352
  503MOL0     H67841   8.866   3.302   2.172 -2.3278 -0.0498  0.0361
  503MOL0     H67842   8.998   3.558   2.278  2.3466 -1.8479  4.6545
  503MOL0     H67843   8.996   3.506   2.104  0.0259  2.7840  0.6824
  503MOL0     H67844   9.139   3.308   2.148  1.2571 -1.1642  0.8722
  503MOL0     H67845   9.127   3.327   2.321  1.4994  1.4322  0.6754
  503MOL0     H67846   9.257   3.541   2.145 -0.2597 -0.8372 -0.5097
  503MOL0     H67847   9.258   3.537   2.321  1.4133  0.0383 -0.1931
  503MOL0     H67848   9.393   3.311   2.276 -2.7018  0.2377  0.1017
  503MOL0     H67849   9.394   3.375   2.104  0.3097  0.4675 -0.2268
  503MOL0     H67850   9.497   3.524   2.353  1.7154 -1.2500  0.8926
  503MOL0     H67851   9.608   3.455   2.245 -0.1511  0.1583 -1.5245
  503MOL0     H67852   9.439   3.687   2.194 -0.7430 -1.9733  0.8315
  503MOL0     H67853   9.497   3.585   2.058 -0.0480 -1.3999 -0.5193
  503MOL0     H67854   9.734   3.611   2.159 -0.4729 -0.8309 -3.2887
  503MOL0     H67855   9.665   3.761   2.090 -1.7487  0.8060  1.2514
  503MOL0     H67856   9.801   3.604   2.409 -2.5087 -0.9247  2.0607
  503MOL0     H67857   9.758   3.638   2.651 -0.0176 -0.3005  0.8352
  503MOL0     H67858   9.879   3.768   2.651 -0.4876  1.9628  3.4814
  503MOL0     H67859   9.738   3.904   2.770 -0.8836  0.5302 -1.2639
  503MOL0     H67860   9.596   3.820   2.716 -0.5469 -2.1395  0.7817
  503MOL0     H67861   9.655   3.624   2.852 -0.0261  0.2022 -1.9220
  503MOL0     H67862   9.642   3.779   2.947 -1.4357 -2.2534  1.1763
  503MOL0     H67863   9.896   3.633   2.872 -0.3509 -1.7044  1.8907
  503MOL0     H67864   9.843   3.659   3.041  0.9939  1.0382  0.6314
  503MOL0     H67865  10.109   3.633   2.903 -0.7581  1.4694 -2.4805
  503MOL0     H67866  10.331   3.637   3.009  0.9250 -0.1111  2.9958
  503MOL0     H67867  10.685   3.887   3.063 -1.9070 -0.9292 -0.2101
  503MOL0     H67868  10.913   3.904   3.121  1.4135  1.9932  3.2093
  503MOL0     H67869  11.063   3.654   3.458  2.4467 -1.4803  0.9123
  503MOL0     H67870  11.126   3.543   3.350 -0.1927  0.2382 -0.2161
  503MOL0     H67871  11.324   3.643   3.428 -0.2946 -0.7201 -1.6638
  503MOL0     H67872  11.300   3.729   3.283  2.0187 -0.0902  1.0474
  503MOL0     H67873  11.239   3.932   3.397  1.0127  1.3679  1.8055
  503MOL0     H67874  11.162   3.853   3.528 -0.6704 -0.5821 -1.2243
  503MOL0     H67875  11.363   3.810   3.643 -0.7263  1.0720  0.0253
  503MOL0     H67876  11.371   3.971   3.603  1.2013  1.0451 -0.5237
  503MOL0     H67877  11.511   3.926   3.414  2.7201  0.1976 -0.0770
  503MOL0     H67878  11.519   3.757   3.437  0.0807  0.8229 -2.3416
  503MOL0     H67879  11.599   3.988   3.622 -0.9925  0.5145 -3.2299
  503MOL0     H67880  11.614   3.819   3.684 -1.7611 -0.0957  1.0789
  503MOL0     H67881  11.759   3.928   3.441  7.0101  0.8000  0.3601
  503MOL0     H67882  11.761   3.759   3.505  0.3964  0.9724 -0.5295
  503MOL0     H67883  11.829   3.879   3.722 -3.1570  1.8909 -0.5704
  503MOL0     H67884  11.953   3.847   3.594  0.7332  0.7107 -0.0027
  503MOL0     H67885  10.879   3.544   3.365 -0.4911  0.3881  0.5966
  503MOL0     H67886  10.620   3.553   3.313  0.5965 -0.5726 -1.5878
  503MOL0     H67887  10.253   4.026   3.172 -0.7237  2.5841 -2.5274
  503MOL0     H67888  10.035   4.029   3.064  1.5880  0.4215  0.0868
  503MOL0     H67889   8.669   3.243   2.272 -1.6103  0.0635  3.7509
  503MOL0     H67890   8.445   3.191   2.333 -0.0376  0.2962  0.3478
  503MOL0     H67891   8.035   3.438   2.458 -0.5419  0.4945 -0.4575
  503MOL0     H67892   7.809   3.427   2.535 -0.4679  1.7837  0.2641
  503MOL0     H67893   7.597   3.435   2.582 -0.4259 -0.4279 -1.3229
  503MOL0     H67894   7.636   3.264   2.621 -2.0127 -3.0388 -0.0718
  503MOL0     H67895   7.417   3.297   2.703  1.0150 -0.5390 -0.6085
  503MOL0     H67896   7.398   3.221   2.537 -1.6122  1.2855 -1.7259
  503MOL0     H67897   7.361   3.441   2.439  1.0494 -2.2073 -0.5676
  503MOL0     H67898   7.406   3.526   2.582  0.6998 -0.6061  0.0848
  503MOL0     H67899   7.229   3.407   2.702  1.8145  0.5816  0.0452
  503MOL0     H67900   7.164   3.534   2.589  0.5315 -0.0764 -3.5103
  503MOL0     H67901   7.051   3.139   2.450 -1.3285  1.4296 -1.2898
  503MOL0     H67902   7.699   3.266   2.152  0.7296 -0.5573 -1.4943
  503MOL0     H67903   7.954   3.377   1.972 -1.7345  0.7615  0.5103
  503MOL0     H67904   7.986   3.207   2.003  0.6232  1.8065 -1.5469
  503MOL0     H67905   7.826   3.260   1.974  0.0089  0.6792 -0.4930
  504MOL0     O67906   4.978   5.179   7.881 -0.6745  0.2776  0.1044
  504MOL0     C67907   4.982   5.251   7.981 -0.2819  0.4663 -0.0383
  504MOL0     O67908   5.071   5.351   8.000 -0.0231  0.5230 -0.1749
  504MOL0     C67909   5.156   5.392   7.900  0.1560  1.2662 -0.0517
  504MOL0     C67910   5.275   5.441   7.952 -0.6651  0.4123  0.6396
  504MOL0     C67911   5.385   5.474   7.874 -0.1196  0.1708  0.4163
  504MOL0     C67912   5.391   5.447   7.732  0.2797 -0.1153 -0.2314
  504MOL0     O67913   5.489   5.490   7.654  0.0527  0.4585  0.1074
  504MOL0     C67914   5.458   5.618   7.584  0.4284 -0.1667  0.4335
  504MOL0     C67915   5.581   5.671   7.516  0.7684 -1.0110  0.2505
  504MOL0     C67916   5.679   5.699   7.624 -0.6784 -0.5918 -0.5108
  504MOL0     C67917   5.821   5.722   7.560  0.3964  0.5993 -1.1458
  504MOL0     C67918   5.922   5.776   7.656 -0.1475  0.0827  0.4188
  504MOL0     C67919   6.062   5.787   7.598 -0.4093 -0.2024 -0.0837
  504MOL0     C67920   6.074   5.835   7.456 -0.6207 -0.3614 -0.0551
  504MOL0     C67921   6.064   5.715   7.358 -0.1710  0.7255  0.1119
  504MOL0     N67922   6.132   5.763   7.239 -0.3785 -0.0555 -0.1317
  504MOL0     C67923   6.264   5.732   7.203  0.0949 -0.2143 -0.1186
  504MOL0     C67924   6.290   5.807   7.092 -1.8444 -0.9420  0.2203
  504MOL0     C67925   6.411   5.805   7.003  0.3606 -0.1553  0.3335
  504MOL0     C67926   6.515   5.708   7.040 -0.5674 -0.2625 -0.4217
  504MOL0     C67927   6.656   5.731   6.983 -0.0068  0.6476  0.2479
  504MOL0     C67928   6.744   5.612   6.993 -0.1292 -0.1121  0.6716
  504MOL0     O67929   6.868   5.664   6.939 -0.6709 -0.3783 -0.2955
  504MOL0     C67930   6.986   5.610   6.971  0.6117  0.1540  0.2273
  504MOL0     C67931   7.102   5.686   6.935 -0.5411  0.0470 -0.6938
  504MOL0     C67932   7.231   5.635   6.946 -0.3583  0.8054 -0.6319
  504MOL0     C67933   7.244   5.513   7.016  0.7480 -0.6210  0.2367
  504MOL0     C67934   7.383   5.467   7.041 -0.7077  0.3312 -0.4446
  504MOL0     O67935   7.486   5.539   6.990  0.0010 -0.7807 -0.0296
  504MOL0     C67936   7.607   5.477   6.981  0.1244 -0.0912 -0.3956
  504MOL0     C67937   7.634   5.384   6.886 -0.4254  1.0428 -0.5509
  504MOL0     C67938   7.770   5.331   6.869  0.6962 -0.2661 -0.1935
  504MOL0     C67939   7.872   5.368   6.956  0.5434  0.2376  0.3411
  504MOL0     O67940   7.989   5.313   6.928 -0.2886 -0.3204 -0.1340
  504MOL0     C67941   8.110   5.382   6.967 -0.0625 -0.5154  0.2047
  504MOL0     C67942   8.228   5.332   6.885 -0.3941 -0.0522  0.4001
  504MOL0     C67943   8.352   5.419   6.931  0.0066  0.3254  0.2745
  504MOL0     C67944   8.464   5.402   6.835 -1.3198 -0.1035 -0.6372
  504MOL0     C67945   8.513   5.255   6.816  0.3310 -0.0490  0.3184
  504MOL0     C67946   8.546   5.186   6.947  0.5611  1.3387  0.2719
  504MOL0     C67947   8.579   5.038   6.924  0.2234  0.4041  0.3856
  504MOL0     C67948   8.630   4.966   7.047 -0.3134  0.2095 -0.4424
  504MOL0    Cl67949   8.638   4.792   6.999  0.3852 -0.1358  0.1822
  504MOL0     C67950   7.850   5.467   7.051  0.0786 -0.9730 -0.5917
  504MOL0     C67951   7.715   5.526   7.060 -0.2957 -0.2391  0.1239
  504MOL0     O67952   7.396   5.357   7.100  0.8026  0.3233  0.4463
  504MOL0     C67953   7.135   5.440   7.056 -0.1800  0.3585  0.4144
  504MOL0     C67954   7.008   5.488   7.031 -0.1658  0.1590 -0.2197
  504MOL0     N67955   6.188   5.889   7.070 -0.1380 -0.0205  0.5052
  504MOL0     N67956   6.085   5.860   7.151 -0.8239  0.1775  0.8705
  504MOL0     C67957   5.268   5.395   7.684 -0.2269 -0.1605  0.2723
  504MOL0     C67958   5.153   5.359   7.759 -0.3218 -0.2573  0.6339
  504MOL0     C67959   4.884   5.209   8.085  0.0645  0.1429 -0.4906
  504MOL0     C67960   4.795   5.104   8.058 -0.0820 -0.1946  0.4600
  504MOL0     C67961   4.683   5.066   8.131 -0.3704  0.8807  0.1536
  504MOL0     C67962   4.668   5.121   8.261  0.5871  0.3873 -0.7331
  504MOL0     O67963   4.565   5.082   8.350  0.1486  0.1774  0.6137
  504MOL0     C67964   4.467   5.000   8.304  0.1907  0.1492 -0.2132
  504MOL0     C67965   4.355   4.989   8.406  0.0712  0.3948 -0.8515
  504MOL0     C67966   4.399   4.904   8.526 -0.6011 -0.1695  0.5437
  504MOL0     C67967   4.285   4.837   8.596 -0.0821 -0.0900  0.5644
  504MOL0     C67968   4.325   4.745   8.710  0.3237 -0.3529 -0.2135
  504MOL0     C67969   4.368   4.684   8.811  0.4557  0.2340 -0.3162
  504MOL0     C67970   4.761   5.216   8.301 -1.0147  0.3629 -0.4701
  504MOL0     C67971   4.868   5.263   8.217 -0.6430  0.0812 -0.0000
  504MOL0     C67972   4.960   5.371   8.261  0.0716  0.2253 -0.0066
  504MOL0     H67973   5.272   5.457   8.060 -3.3628  1.4066  0.4898
  504MOL0     H67974   5.467   5.526   7.922  1.7277  0.1413 -2.4617
  504MOL0     H67975   5.387   5.599   7.503  0.3480 -1.4130  0.7842
  504MOL0     H67976   5.432   5.688   7.665 -0.1981  0.4737 -0.3015
  504MOL0     H67977   5.558   5.764   7.462 -0.7604 -3.1797 -3.2020
  504MOL0     H67978   5.613   5.610   7.431 -1.7127 -0.6619 -1.0474
  504MOL0     H67979   5.686   5.625   7.704 -3.1032  1.6591  2.0042
  504MOL0     H67980   5.647   5.790   7.676 -1.8304 -0.5162 -1.3179
  504MOL0     H67981   5.862   5.623   7.537 -2.0301 -0.7555 -0.0129
  504MOL0     H67982   5.816   5.784   7.470  3.2065  2.4089 -0.1976
  504MOL0     H67983   5.887   5.877   7.682 -2.1343 -0.8740  1.7568
  504MOL0     H67984   5.917   5.705   7.739 -2.5816 -2.1972 -1.4920
  504MOL0     H67985   6.110   5.871   7.649 -0.0769  0.2822 -1.1725
  504MOL0     H67986   6.116   5.695   7.621  1.0352  0.8795  1.0887
  504MOL0     H67987   6.174   5.879   7.446 -1.6839  1.8199 -2.1974
  504MOL0     H67988   6.004   5.915   7.430 -0.7332 -1.1490 -2.4688
  504MOL0     H67989   6.124   5.633   7.397 -0.2744  0.9865  0.8480
  504MOL0     H67990   5.964   5.674   7.339  1.0222 -2.0354 -0.6755
  504MOL0     H67991   6.323   5.649   7.241  1.5379  0.8354  0.0058
  504MOL0     H67992   6.378   5.776   6.903 -1.9065  1.8273  0.4258
  504MOL0     H67993   6.448   5.908   6.993  3.5180 -1.3070 -1.4282
  504MOL0     H67994   6.527   5.702   7.149 -1.3181  1.6345 -0.1923
  504MOL0     H67995   6.484   5.609   7.004 -1.1857 -1.4438  2.9924
  504MOL0     H67996   6.698   5.808   7.049  0.1508  0.8747 -0.1110
  504MOL0     H67997   6.662   5.769   6.880  3.2319  1.7856  0.7605
  504MOL0     H67998   6.716   5.526   6.932  1.0709 -1.1205  1.4820
  504MOL0     H67999   6.756   5.585   7.098 -0.3085  3.0008  1.5886
  504MOL0     H68000   7.093   5.780   6.882  0.9985  0.8351  0.3493
  504MOL0     H68001   7.309   5.706   6.920 -0.5297  1.1498 -0.2184
  504MOL0     H68002   7.557   5.355   6.815 -0.9405  2.1352 -0.4592
  504MOL0     H68003   7.773   5.247   6.800  0.7126 -1.9757  1.7895
  504MOL0     H68004   8.098   5.488   6.944  1.6232  0.2007  2.3157
  504MOL0     H68005   8.127   5.377   7.075 -1.5240  2.3642  0.6819
  504MOL0     H68006   8.249   5.226   6.906  0.0024 -0.0464  0.0508
  504MOL0     H68007   8.214   5.346   6.778 -1.7798  3.2513  0.8883
  504MOL0     H68008   8.319   5.524   6.926 -3.1532 -0.5918 -0.1013
  504MOL0     H68009   8.383   5.385   7.030  1.9862 -0.7087 -0.6348
  504MOL0     H68010   8.546   5.458   6.881 -2.5224  0.2215  1.2059
  504MOL0     H68011   8.446   5.447   6.737 -1.0619  1.6712  0.1047
  504MOL0     H68012   8.599   5.238   6.752  1.3293 -2.6136  2.1765
  504MOL0     H68013   8.430   5.204   6.766 -1.4222  0.3957  2.5982
  504MOL0     H68014   8.629   5.236   6.996  2.4881  0.6352 -2.0447
  504MOL0     H68015   8.469   5.193   7.024  0.7210  1.9218  0.3795
  504MOL0     H68016   8.655   5.024   6.846  1.6554  0.2918  1.7480
  504MOL0     H68017   8.489   4.983   6.895  1.8247 -1.3326 -1.7127
  504MOL0     H68018   8.728   5.006   7.075  0.1891  0.2870 -2.2289
  504MOL0     H68019   8.567   4.993   7.132 -0.5170  3.6265 -1.5363
  504MOL0     H68020   7.933   5.507   7.108 -2.1798  1.3060  1.3196
  504MOL0     H68021   7.684   5.605   7.129 -0.0735  0.3659 -0.4572
  504MOL0     H68022   7.144   5.341   7.102  1.9146  0.9678  1.4373
  504MOL0     H68023   6.927   5.422   7.061 -0.2764  0.2770 -0.2571
  504MOL0     H68024   5.261   5.379   7.577  2.1471  1.1126 -0.1512
  504MOL0     H68025   5.067   5.309   7.714 -0.1725  0.4118 -0.4319
  504MOL0     H68026   4.810   5.043   7.970 -1.4805  0.8112 -0.5106
  504MOL0     H68027   4.620   4.988   8.087 -0.9603  0.2950  1.9657
  504MOL0     H68028   4.509   4.900   8.285 -2.2627 -1.1211  0.5937
  504MOL0     H68029   4.423   5.034   8.210 -0.0089  2.0508  0.5412
  504MOL0     H68030   4.264   4.951   8.358  0.5026 -1.6325 -0.1581
  504MOL0     H68031   4.325   5.085   8.447  3.3782  0.4900  1.8067
  504MOL0     H68032   4.463   4.962   8.593 -0.0548  1.2385 -1.1345
  504MOL0     H68033   4.467   4.826   8.492 -0.5160  0.3798 -0.5886
  504MOL0     H68034   4.227   4.918   8.642  1.1807 -1.3560  4.8947
  504MOL0     H68035   4.219   4.779   8.531 -0.8407 -0.7568  1.8912
  504MOL0     H68036   4.392   4.629   8.900  0.9581 -0.5124 -0.8909
  504MOL0     H68037   4.751   5.256   8.402 -0.0842  0.9749 -0.6017
  504MOL0     H68038   4.958   5.455   8.192  0.5833 -0.9619 -1.5283
  504MOL0     H68039   4.922   5.409   8.356 -0.4278  1.9045 -0.8502
  504MOL0     H68040   5.065   5.346   8.277  0.8142  3.2817  0.5840
  505MOL0     O68041   4.827  10.130   2.284  0.5412  0.1172  0.0885
  505MOL0     C68042   4.743  10.078   2.208 -0.3487 -0.4602  0.1900
  505MOL0     O68043   4.718   9.944   2.208  0.1764  0.3315 -0.1607
  505MOL0     C68044   4.805   9.875   2.281 -0.1156  0.5958  0.2903
  505MOL0     C68045   4.937   9.858   2.242 -0.0704  0.0188  1.2227
  505MOL0     C68046   5.016   9.762   2.291  0.8008  0.1450 -1.3442
  505MOL0     C68047   4.976   9.693   2.401  0.2490  0.6991 -0.8830
  505MOL0     O68048   5.060   9.618   2.486  0.5113  0.1237  0.8271
  505MOL0     C68049   5.195   9.602   2.438 -0.3456 -0.0996 -0.3638
  505MOL0     C68050   5.282   9.503   2.529  0.1457  0.0540  0.3366
  505MOL0     C68051   5.412   9.462   2.466 -0.0357  0.5896  0.2040
  505MOL0     C68052   5.498   9.366   2.544  1.0799  0.0390 -0.6770
  505MOL0     C68053   5.641   9.355   2.477 -0.3380  0.5740 -1.1628
  505MOL0     C68054   5.736   9.463   2.543  0.3839 -0.1932  0.2694
  505MOL0     C68055   5.875   9.472   2.472  0.2881  0.2447  0.0054
  505MOL0     C68056   5.945   9.337   2.449 -0.3120  0.1239  0.2041
  505MOL0     N68057   6.092   9.356   2.428  0.2614  0.0193  0.7292
  505MOL0     C68058   6.147   9.362   2.298 -0.1443 -0.9716 -0.9633
  505MOL0     C68059   6.281   9.384   2.321  0.0030 -0.0441 -0.8558
  505MOL0     C68060   6.384   9.410   2.225 -0.9890  0.2622 -0.1221
  505MOL0     C68061   6.359   9.522   2.129 -0.2677 -0.2645 -0.3215
  505MOL0     C68062   6.475   9.548   2.022  0.6765  0.4635 -0.4627
  505MOL0     C68063   6.588   9.633   2.078 -0.5304 -0.2487  0.1874
  505MOL0     O68064   6.552   9.757   2.133  0.5650  0.1282 -0.1830
  505MOL0     C68065   6.651   9.825   2.200 -0.1684 -0.1478  0.1600
  505MOL0     C68066   6.609   9.941   2.258 -0.8068 -0.1645 -0.1584
  505MOL0     C68067   6.707  10.027   2.320 -0.2552  0.8866 -0.4429
  505MOL0     C68068   6.838   9.988   2.355  0.3557 -0.7292 -0.3752
  505MOL0     C68069   6.929  10.069   2.426 -0.2081 -0.6707  0.4898
  505MOL0     O68070   7.054  10.027   2.443  0.7631  0.7326  0.3430
  505MOL0     C68071   7.151  10.117   2.469  0.0250 -0.0891  0.5057
  505MOL0     C68072   7.196  10.214   2.379  0.0616  0.5992  0.7568
  505MOL0     C68073   7.305  10.293   2.417  0.5291  0.5085 -0.1817
  505MOL0     C68074   7.380  10.265   2.533  1.0368  0.8197  0.9485
  505MOL0     O68075   7.484  10.345   2.578 -0.1396 -0.4214  0.3332
  505MOL0     C68076   7.613  10.288   2.549  0.4608 -0.8331 -0.3964
  505MOL0     C68077   7.729  10.362   2.624  0.7734  0.9356  0.0646
  505MOL0     C68078   7.756  10.503   2.569 -0.1174 -0.2610 -1.2307
  505MOL0     C68079   7.871  10.561   2.651 -0.1106  0.8705 -0.3351
  505MOL0     C68080   7.896  10.710   2.629 -0.3556 -0.3470  0.4414
  505MOL0     C68081   8.001  10.769   2.718  1.0009 -0.0949 -1.2052
  505MOL0     C68082   7.980  10.740   2.869 -0.3931  0.2626  0.0447
  505MOL0     C68083   8.086  10.825   2.959 -0.2891 -0.0076 -0.2160
  505MOL0    Cl68084   8.248  10.784   2.907  0.0745  0.1512  0.2245
  505MOL0     C68085   7.334  10.167   2.622 -0.0540 -0.6881  0.1061
  505MOL0     C68086   7.231  10.091   2.589  0.1212 -0.0581  1.2567
  505MOL0     O68087   6.888  10.183   2.450 -0.0693  0.0526  0.1840
  505MOL0     C68088   6.877   9.864   2.304  0.6325 -0.3000 -0.0564
  505MOL0     C68089   6.790   9.789   2.221  0.0895  0.1230 -0.0702
  505MOL0     N68090   6.301   9.374   2.454  0.2592 -0.2059  0.4161
  505MOL0     N68091   6.188   9.364   2.520 -0.4619 -0.5029  0.1355
  505MOL0     C68092   4.846   9.716   2.455 -0.3573 -1.0106 -0.5952
  505MOL0     C68093   4.760   9.804   2.395 -0.1397 -0.0118  0.5588
  505MOL0     C68094   4.661  10.155   2.117 -0.0335  0.0530 -0.1311
  505MOL0     C68095   4.537  10.106   2.079 -1.1576 -0.6684  0.0185
  505MOL0     C68096   4.452  10.182   1.999 -0.7499  0.4365 -1.2360
  505MOL0     C68097   4.485  10.313   1.961 -0.2524 -0.0180  0.1892
  505MOL0     O68098   4.410  10.396   1.884  0.2838  0.3244 -1.0500
  505MOL0     C68099   4.265  10.392   1.898 -0.5709  0.4550  1.0212
  505MOL0     C68100   4.205  10.390   2.031  1.1537 -0.2549 -1.2530
  505MOL0     C68101   4.221  10.539   2.096 -0.4803  0.1062  0.0269
  505MOL0     C68102   4.098  10.620   2.068 -0.5080 -0.5940 -0.0031
  505MOL0     C68103   4.074  10.725   2.170 -0.5191  0.2339 -0.6757
  505MOL0     C68104   4.043  10.802   2.258  0.3289 -0.1718 -0.7498
  505MOL0     C68105   4.611  10.363   1.989 -0.5623 -0.3117 -0.1965
  505MOL0     C68106   4.706  10.282   2.062 -0.1175 -0.5748 -0.1637
  505MOL0     C68107   4.842  10.346   2.087  0.5725  0.6055 -0.2836
  505MOL0     H68108   4.972   9.926   2.165  0.3122 -1.8090 -0.2884
  505MOL0     H68109   5.111   9.734   2.246  1.6584  0.8156 -0.0304
  505MOL0     H68110   5.183   9.555   2.339 -2.4398  1.5625 -0.9832
  505MOL0     H68111   5.259   9.690   2.435 -1.5730  0.9387  1.7473
  505MOL0     H68112   5.227   9.409   2.541 -0.4289  0.4124  0.5230
  505MOL0     H68113   5.305   9.535   2.631  3.7271  0.4055 -0.4259
  505MOL0     H68114   5.475   9.551   2.458  2.8301 -1.3311 -0.1513
  505MOL0     H68115   5.395   9.431   2.363  0.1879 -2.4941  0.9912
  505MOL0     H68116   5.505   9.403   2.647  1.2241  1.5770 -1.2190
  505MOL0     H68117   5.442   9.272   2.552 -1.2725  1.4601  1.0274
  505MOL0     H68118   5.688   9.257   2.489  1.2975  1.3161 -1.2118
  505MOL0     H68119   5.618   9.370   2.371 -1.9267 -0.0565 -0.9339
  505MOL0     H68120   5.684   9.559   2.540  0.6061 -0.0871 -0.3024
  505MOL0     H68121   5.760   9.448   2.649  0.9979 -1.7730 -0.0664
  505MOL0     H68122   5.935   9.542   2.531 -0.1691  0.3703  0.3281
  505MOL0     H68123   5.868   9.509   2.369  1.0816  0.2379 -0.0579
  505MOL0     H68124   5.929   9.278   2.539 -1.8256 -1.5112 -1.0550
  505MOL0     H68125   5.902   9.281   2.365  0.5077 -0.2804  0.0478
  505MOL0     H68126   6.093   9.367   2.204 -1.5880  1.8582 -0.0828
  505MOL0     H68127   6.477   9.435   2.278 -0.6010 -0.3317 -0.5028
  505MOL0     H68128   6.395   9.314   2.174 -0.8025  0.5292 -0.5952
  505MOL0     H68129   6.266   9.502   2.076 -2.3446  0.8868  2.6106
  505MOL0     H68130   6.339   9.616   2.182  0.0057  1.1890 -2.6303
  505MOL0     H68131   6.431   9.584   1.929  0.7703 -0.1065 -0.7318
  505MOL0     H68132   6.517   9.452   1.992  0.9117  0.9069 -1.5973
  505MOL0     H68133   6.645   9.654   1.987 -4.1066  0.0744 -2.1962
  505MOL0     H68134   6.645   9.579   2.154  0.7288  1.0363  0.1926
  505MOL0     H68135   6.506   9.971   2.243 -0.3157  0.0482 -4.3089
  505MOL0     H68136   6.670  10.125   2.346  1.1700  2.1918 -2.9123
  505MOL0     H68137   7.137  10.229   2.288 -0.5822  0.6309  1.1694
  505MOL0     H68138   7.337  10.377   2.355  2.0773 -0.1189 -0.2922
  505MOL0     H68139   7.613  10.187   2.593  1.2836 -0.0875  1.4274
  505MOL0     H68140   7.638  10.286   2.443  4.2735  2.5460  0.2162
  505MOL0     H68141   7.690  10.367   2.726 -1.2180 -0.0149 -0.5923
  505MOL0     H68142   7.815  10.294   2.619  2.1854  2.6403  0.0684
  505MOL0     H68143   7.786  10.499   2.464 -2.4629  0.7655 -1.9947
  505MOL0     H68144   7.667  10.565   2.575  0.5292  0.5384  2.7640
  505MOL0     H68145   7.965  10.509   2.627  1.1067  1.7529  2.2242
  505MOL0     H68146   7.862  10.535   2.757 -0.7125 -3.4594 -1.2584
  505MOL0     H68147   7.809  10.768   2.660  1.2191  0.9925  2.6321
  505MOL0     H68148   7.909  10.728   2.522 -2.9069  0.1645  0.1603
  505MOL0     H68149   8.098  10.734   2.682  0.6505 -1.6239 -0.7202
  505MOL0     H68150   8.007  10.878   2.711  3.3905 -0.0815  0.1173
  505MOL0     H68151   8.001  10.637   2.899  1.6383  1.2162  2.2376
  505MOL0     H68152   7.876  10.771   2.882 -1.4983 -0.6954 -4.6194
  505MOL0     H68153   8.071  10.933   2.950  1.3299  0.3031  0.5515
  505MOL0     H68154   8.073  10.813   3.067 -0.2454  0.3905 -0.1641
  505MOL0     H68155   7.385  10.156   2.717 -1.8708  1.8170  1.5027
  505MOL0     H68156   7.223  10.007   2.658  2.2730  1.2411  3.2113
  505MOL0     H68157   6.976   9.827   2.331  0.1879  0.4714  3.0127
  505MOL0     H68158   6.828   9.703   2.168 -2.8304 -1.1407 -0.2882
  505MOL0     H68159   4.821   9.685   2.556 -0.0770  0.6945  0.0431
  505MOL0     H68160   4.664   9.810   2.445  1.1676  0.8094  3.1233
  505MOL0     H68161   4.507  10.007   2.113  0.8684 -0.1581  3.8138
  505MOL0     H68162   4.356  10.141   1.970 -1.1235  0.2276  0.1778
  505MOL0     H68163   4.228  10.310   1.837 -1.7319 -0.4522  2.8540
  505MOL0     H68164   4.234  10.484   1.848  0.2021  1.8337  2.9351
  505MOL0     H68165   4.250  10.319   2.100  2.2120  0.5046 -1.1412
  505MOL0     H68166   4.101  10.362   2.012  1.0243  0.1749 -1.1882
  505MOL0     H68167   4.307  10.589   2.050  0.8312  0.9063  3.1388
  505MOL0     H68168   4.234  10.525   2.203  3.2137 -0.1590 -0.3281
  505MOL0     H68169   4.101  10.669   1.971  0.8685 -0.4103  0.1179
  505MOL0     H68170   4.003  10.565   2.068 -1.9584  1.7343 -1.6745
  505MOL0     H68171   4.005  10.869   2.332 -2.7480 -1.2523 -1.1898
  505MOL0     H68172   4.640  10.463   1.959  1.1494 -0.0306  2.0674
  505MOL0     H68173   4.854  10.437   2.028 -2.0898  1.6248  0.5817
  505MOL0     H68174   4.839  10.384   2.190 -0.1287 -0.2458  0.0303
  505MOL0     H68175   4.922  10.272   2.093 -1.7252 -1.9463  1.5135
  506MOL0     O68176   4.198   7.618   8.516 -0.3353  0.7091 -0.5387
  506MOL0     C68177   4.157   7.505   8.472  0.1754 -0.2800 -0.1349
  506MOL0     O68178   4.217   7.387   8.513  0.1465 -0.4382 -0.5485
  506MOL0     C68179   4.293   7.385   8.629  0.7175 -0.3232 -0.0103
  506MOL0     C68180   4.415   7.321   8.624  0.1977  0.7127  0.1213
  506MOL0     C68181   4.488   7.307   8.748 -0.5031 -0.0182 -0.1595
  506MOL0     C68182   4.453   7.390   8.857  0.5075  0.3372  0.6192
  506MOL0     O68183   4.522   7.390   8.976 -0.1700 -0.5072  0.1322
  506MOL0     C68184   4.554   7.522   9.035  0.1203  0.8415 -0.0098
  506MOL0     C68185   4.667   7.522   9.126 -0.8035 -0.2902 -0.3255
  506MOL0     C68186   4.808   7.499   9.057 -0.5662 -1.1502 -0.1082
  506MOL0     C68187   4.907   7.580   9.144  0.1470 -0.3713  0.2202
  506MOL0     C68188   5.051   7.560   9.095 -0.3489 -0.1090  0.0802
  506MOL0     C68189   5.149   7.655   9.171 -0.9288 -0.6615  0.2235
  506MOL0     C68190   5.298   7.637   9.131  0.3767  0.6995 -0.0991
  506MOL0     C68191   5.393   7.724   9.229 -0.1995 -0.6477 -0.3659
  506MOL0     N68192   5.525   7.724   9.169 -0.7632 -0.3078 -0.3225
  506MOL0     C68193   5.580   7.823   9.092 -0.1415  0.0336  0.2858
  506MOL0     C68194   5.696   7.779   9.063 -0.4473 -0.0353 -0.4615
  506MOL0     C68195   5.800   7.852   8.985  0.3590  0.7371 -0.2172
  506MOL0     C68196   5.802   7.803   8.835 -0.7903 -0.1364  0.2871
  506MOL0     C68197   5.914   7.702   8.808  0.6497 -0.3377  0.1511
  506MOL0     C68198   6.054   7.738   8.858  0.2283 -0.1397 -0.9983
  506MOL0     O68199   6.164   7.697   8.769 -0.0445 -0.1925  0.1380
  506MOL0     C68200   6.282   7.764   8.771 -0.1582  0.5450  0.1107
  506MOL0     C68201   6.326   7.832   8.884 -1.0764 -0.2009 -0.1227
  506MOL0     C68202   6.465   7.878   8.886 -0.2376  0.1853 -0.6774
  506MOL0     C68203   6.552   7.861   8.781 -0.0425  0.1711  0.6421
  506MOL0     C68204   6.686   7.912   8.770 -0.1934  0.0638  0.6370
  506MOL0     O68205   6.731   7.933   8.640 -0.7157 -0.0842  0.1140
  506MOL0     C68206   6.857   7.989   8.628 -0.6349 -1.0084 -0.2358
  506MOL0     C68207   6.866   8.112   8.567  0.2680  0.4984 -0.9498
  506MOL0     C68208   6.991   8.160   8.535  0.1639  0.1668  0.2231
  506MOL0     C68209   7.110   8.088   8.577 -0.5126 -0.2323 -0.0569
  506MOL0     O68210   7.241   8.126   8.550 -0.2468  0.6365 -0.2036
  506MOL0     C68211   7.256   8.195   8.424  0.2698 -0.2056  0.3990
  506MOL0     C68212   7.398   8.192   8.376  0.9979 -0.0727  0.8528
  506MOL0     C68213   7.508   8.286   8.442  0.2366  0.3175 -0.0084
  506MOL0     C68214   7.637   8.298   8.359  0.6663 -0.4884  0.1274
  506MOL0     C68215   7.738   8.383   8.441 -0.4795  0.3505  0.3111
  506MOL0     C68216   7.881   8.380   8.369  0.3725 -0.6437  0.8541
  506MOL0     C68217   7.983   8.457   8.453 -0.4597 -0.3036  0.0268
  506MOL0     C68218   8.036   8.387   8.587 -0.2157 -0.0878 -0.2879
  506MOL0    Cl68219   8.185   8.469   8.643  0.0793 -0.1735 -0.3394
  506MOL0     C68220   7.094   7.968   8.640 -0.0237 -0.6287  0.2510
  506MOL0     C68221   6.970   7.917   8.666 -0.2505  0.0496 -0.8414
  506MOL0     O68222   6.747   7.925   8.870 -0.0973 -0.1070 -0.8725
  506MOL0     C68223   6.500   7.797   8.669  0.7741 -0.2389 -0.0205
  506MOL0     C68224   6.367   7.746   8.665 -0.1903 -0.4873 -0.3510
  506MOL0     N68225   5.718   7.656   9.123  0.0873  0.1352  0.1138
  506MOL0     N68226   5.608   7.623   9.175  0.6085  0.1661 -0.0766
  506MOL0     C68227   4.334   7.458   8.845  0.1272  0.0402 -0.2057
  506MOL0     C68228   4.252   7.444   8.737 -0.4450 -0.1641 -0.1237
  506MOL0     C68229   4.025   7.484   8.402 -0.2906 -0.6456  0.0258
  506MOL0     C68230   3.979   7.355   8.372 -1.0224  0.2927 -0.4577
  506MOL0     C68231   3.882   7.334   8.289 -0.3896  0.0135 -0.3785
  506MOL0     C68232   3.796   7.436   8.243 -0.1078  0.0973 -0.7767
  506MOL0     O68233   3.695   7.396   8.160  0.0757 -0.2715  0.6855
  506MOL0     C68234   3.572   7.474   8.159 -0.2423  0.0832  0.3140
  506MOL0     C68235   3.468   7.376   8.095 -0.4676 -0.8097 -0.1881
  506MOL0     C68236   3.419   7.266   8.197  0.0633 -0.2164 -0.0751
  506MOL0     C68237   3.300   7.197   8.124 -0.1674  0.1666  0.2697
  506MOL0     C68238   3.238   7.108   8.207  0.3318  0.1218 -0.6538
  506MOL0     C68239   3.182   7.034   8.285 -0.1933 -0.3905 -0.4272
  506MOL0     C68240   3.827   7.566   8.291  0.0605 -0.5468 -0.4178
  506MOL0     C68241   3.946   7.589   8.366 -0.5830 -0.1808  1.3029
  506MOL0     C68242   3.993   7.738   8.369  0.3529 -0.3670 -0.6681
  506MOL0     H68243   4.446   7.269   8.533  0.4010  2.2209 -0.7118
  506MOL0     H68244   4.575   7.242   8.754  0.9757  1.6600 -2.1768
  506MOL0     H68245   4.573   7.591   8.953  1.1577  0.9812  0.3367
  506MOL0     H68246   4.461   7.554   9.083 -0.8820  2.5880 -2.9158
  506MOL0     H68247   4.644   7.449   9.203  0.3101 -1.0014 -0.6471
  506MOL0     H68248   4.671   7.622   9.172 -1.5493  0.0545 -0.9837
  506MOL0     H68249   4.796   7.547   8.959  1.1920  4.0667  1.9166
  506MOL0     H68250   4.826   7.391   9.052  0.8347 -0.8882 -3.2417
  506MOL0     H68251   4.877   7.684   9.130 -0.3996 -0.6347 -0.6827
  506MOL0     H68252   4.902   7.553   9.249 -0.2201  0.0256  0.3087
  506MOL0     H68253   5.076   7.454   9.104 -0.3627 -0.2529 -1.2998
  506MOL0     H68254   5.055   7.581   8.987  1.2859 -2.8147 -0.4793
  506MOL0     H68255   5.121   7.757   9.144  0.0872 -0.6185 -0.7149
  506MOL0     H68256   5.136   7.644   9.279  0.9704  1.1525  0.7130
  506MOL0     H68257   5.313   7.652   9.024  0.1554 -3.3944 -0.8811
  506MOL0     H68258   5.332   7.534   9.146 -0.2600  0.2246 -1.7284
  506MOL0     H68259   5.360   7.828   9.227  2.6588  0.3764  0.4860
  506MOL0     H68260   5.404   7.690   9.332 -1.1557  1.3549  0.4426
  506MOL0     H68261   5.548   7.924   9.070  1.8664  0.6365 -0.0658
  506MOL0     H68262   5.772   7.957   8.988  0.6224  0.8107 -0.2826
  506MOL0     H68263   5.895   7.831   9.035 -1.1578 -0.5049  2.4069
  506MOL0     H68264   5.714   7.749   8.800  0.9849 -3.2724  0.3422
  506MOL0     H68265   5.821   7.885   8.764  1.8887 -0.5911  0.3796
  506MOL0     H68266   5.925   7.693   8.700  0.5622  0.3902  0.0725
  506MOL0     H68267   5.886   7.605   8.848 -0.8171  0.0011  0.0018
  506MOL0     H68268   6.066   7.692   8.956  3.1320 -0.5934 -1.4605
  506MOL0     H68269   6.057   7.846   8.876  1.7573 -0.0762 -1.4933
  506MOL0     H68270   6.257   7.831   8.968 -1.2437  1.5702 -0.1940
  506MOL0     H68271   6.495   7.941   8.969  1.1999  0.1198 -1.1175
  506MOL0     H68272   6.771   8.156   8.538  0.5028  1.2939 -0.5284
  506MOL0     H68273   6.989   8.253   8.477 -1.9382 -1.3561 -2.3824
  506MOL0     H68274   7.199   8.135   8.352  0.5432 -0.9940  0.8308
  506MOL0     H68275   7.220   8.299   8.428 -0.3429 -0.3991  0.0322
  506MOL0     H68276   7.427   8.087   8.384 -0.6351 -0.5305  1.0707
  506MOL0     H68277   7.392   8.218   8.270  4.2075  0.0677  0.6114
  506MOL0     H68278   7.460   8.381   8.470 -1.0298 -0.8918  2.2918
  506MOL0     H68279   7.553   8.233   8.527  2.6642 -3.1180 -3.1415
  506MOL0     H68280   7.608   8.345   8.265  0.5432 -1.3547 -0.2729
  506MOL0     H68281   7.678   8.198   8.341  0.4685 -0.5942  0.2636
  506MOL0     H68282   7.754   8.340   8.540  1.2480 -0.9412 -0.4850
  506MOL0     H68283   7.705   8.487   8.451  0.6480  0.9790 -1.9747
  506MOL0     H68284   7.925   8.282   8.345  0.2761 -0.3793 -0.4879
  506MOL0     H68285   7.859   8.427   8.272 -3.4190 -2.8253  0.4438
  506MOL0     H68286   7.942   8.557   8.467 -0.7434 -0.1330 -1.7938
  506MOL0     H68287   8.071   8.473   8.391 -1.3455 -0.0240 -1.1965
  506MOL0     H68288   7.956   8.399   8.661 -0.4326  0.7473 -0.6400
  506MOL0     H68289   8.053   8.280   8.574  0.7031 -0.0059  0.1691
  506MOL0     H68290   7.176   7.906   8.675  0.6702  0.3090  0.3181
  506MOL0     H68291   6.957   7.827   8.725 -1.4583  1.8855  1.9391
  506MOL0     H68292   6.557   7.781   8.577  0.2812 -2.7318  0.0160
  506MOL0     H68293   6.327   7.689   8.582 -4.0652  1.4760 -0.0678
  506MOL0     H68294   4.290   7.519   8.924 -1.9720 -0.1884 -1.1421
  506MOL0     H68295   4.151   7.483   8.730 -1.2382 -2.0053  0.2840
  506MOL0     H68296   4.037   7.268   8.403 -0.7931  0.3879 -0.6171
  506MOL0     H68297   3.864   7.235   8.248 -0.2711  0.1330 -0.7228
  506MOL0     H68298   3.589   7.569   8.107 -0.7581 -0.0245 -0.0582
  506MOL0     H68299   3.555   7.512   8.260  2.8176 -1.9862  1.7434
  506MOL0     H68300   3.504   7.323   8.006 -2.9666  0.1733 -1.8824
  506MOL0     H68301   3.378   7.434   8.075  1.4024  3.2693  2.1030
  506MOL0     H68302   3.375   7.307   8.288  1.8967  0.5771  0.4919
  506MOL0     H68303   3.498   7.194   8.218  1.3654  0.2454 -2.9344
  506MOL0     H68304   3.233   7.282   8.110 -0.5150  0.1403  1.6516
  506MOL0     H68305   3.326   7.146   8.031  3.1370  0.0781  1.1216
  506MOL0     H68306   3.158   6.963   8.362  0.3519 -0.4003 -0.2619
  506MOL0     H68307   3.754   7.638   8.256 -3.5809 -2.8642  1.7188
  506MOL0     H68308   4.086   7.765   8.320  1.5627  0.2126  1.7740
  506MOL0     H68309   3.916   7.795   8.316  1.5611 -0.7971 -3.0179
  506MOL0     H68310   3.997   7.776   8.472  0.4501 -0.5469 -0.6051
  507MOL0     O68311   3.985   3.997   5.060  0.4025 -0.7559  0.6428
  507MOL0     C68312   3.901   4.065   5.121 -0.1785  0.1251 -0.2988
  507MOL0     O68313   3.922   4.167   5.207  0.2324 -0.2901  0.3926
  507MOL0     C68314   4.052   4.165   5.247  0.3393  0.5364  0.5122
  507MOL0     C68315   4.140   4.270   5.226 -0.3407 -0.1737  0.5895
  507MOL0     C68316   4.279   4.270   5.271  0.5749  0.2287  1.1284
  507MOL0     C68317   4.331   4.166   5.345  0.9865 -0.4458 -0.2301
  507MOL0     O68318   4.464   4.152   5.368  0.3472  0.5915 -0.3498
  507MOL0     C68319   4.556   4.262   5.376 -0.6094  1.0463 -0.0103
  507MOL0     C68320   4.667   4.218   5.473 -0.4165 -0.3194 -0.3503
  507MOL0     C68321   4.761   4.340   5.487 -0.1860 -0.2687 -0.1138
  507MOL0     C68322   4.883   4.316   5.564 -0.6040 -0.1054 -0.3964
  507MOL0     C68323   4.978   4.433   5.581  0.0125  0.5541  0.6419
  507MOL0     C68324   4.903   4.563   5.610  0.5139  0.0732  1.1150
  507MOL0     C68325   4.996   4.682   5.618  0.3140 -0.7956  0.0346
  507MOL0     C68326   4.999   4.752   5.483 -0.1284  0.4790  0.1299
  507MOL0     N68327   5.097   4.860   5.489  0.5648 -0.1807 -1.2174
  507MOL0     C68328   5.091   4.969   5.577 -1.0421  0.0627  0.6958
  507MOL0     C68329   5.188   5.056   5.547  0.0061  0.7661  0.0081
  507MOL0     C68330   5.220   5.188   5.608  0.2588 -0.0269 -0.6317
  507MOL0     C68331   5.375   5.209   5.615  0.5698 -0.6146 -0.3633
  507MOL0     C68332   5.430   5.144   5.741  0.2817  0.2523  0.1781
  507MOL0     C68333   5.576   5.197   5.773 -0.1570 -0.0488 -0.4393
  507MOL0     O68334   5.613   5.122   5.888  0.0863 -0.2671  0.4711
  507MOL0     C68335   5.746   5.134   5.922  0.3195  0.4128  0.9301
  507MOL0     C68336   5.788   5.041   6.010  0.4427  0.8361  0.8870
  507MOL0     C68337   5.921   5.021   6.033  0.0809 -0.5194  0.5731
  507MOL0     C68338   6.016   5.112   5.982 -0.6341  0.3794 -0.6939
  507MOL0     C68339   6.159   5.087   6.021 -0.0995 -0.0595  0.4075
  507MOL0     O68340   6.247   5.162   5.947 -0.1035 -0.7197 -0.0973
  507MOL0     C68341   6.385   5.165   5.959  0.6471 -0.3367  0.1912
  507MOL0     C68342   6.465   5.181   6.075  0.5420 -0.0922  0.6451
  507MOL0     C68343   6.598   5.209   6.051  0.1640 -0.0602  0.1791
  507MOL0     C68344   6.653   5.222   5.928 -0.0653  0.9667  0.7794
  507MOL0     O68345   6.788   5.253   5.910  0.1472  0.4468  0.0237
  507MOL0     C68346   6.887   5.306   6.011  0.7928  0.5837  0.2058
  507MOL0     C68347   7.026   5.296   5.954  0.8783 -0.2461 -0.2855
  507MOL0     C68348   7.064   5.381   5.844  0.5800  0.3180 -0.9902
  507MOL0     C68349   7.204   5.348   5.784  0.2605 -0.3191  0.9834
  507MOL0     C68350   7.317   5.421   5.837  0.2917  0.0087  0.0029
  507MOL0     C68351   7.450   5.379   5.775  0.9615  0.0654  0.3167
  507MOL0     C68352   7.565   5.450   5.838 -0.7076  0.2405 -0.2281
  507MOL0     C68353   7.696   5.377   5.798  0.3453  0.6717 -0.9798
  507MOL0    Cl68354   7.701   5.382   5.631  0.1457  0.0721 -0.0403
  507MOL0     C68355   6.572   5.213   5.817 -0.1729 -0.3104 -0.1389
  507MOL0     C68356   6.440   5.174   5.834  0.3709 -0.3021 -0.4861
  507MOL0     O68357   6.191   4.989   6.087 -0.1866 -0.2240 -0.2593
  507MOL0     C68358   5.973   5.216   5.909  0.6742  0.7945  0.6001
  507MOL0     C68359   5.837   5.229   5.868 -1.0191 -0.5756 -0.1294
  507MOL0     N68360   5.252   4.998   5.432  0.6175  0.1429  0.0329
  507MOL0     N68361   5.205   4.876   5.411  0.2748  0.6637 -0.5556
  507MOL0     C68362   4.243   4.056   5.371 -0.3302 -0.8049 -0.0714
  507MOL0     C68363   4.103   4.055   5.317 -0.1734  0.5735 -0.9599
  507MOL0     C68364   3.762   4.035   5.086  0.3917  0.1498  0.1017
  507MOL0     C68365   3.668   4.081   5.179  0.5359  0.1361  0.7520
  507MOL0     C68366   3.529   4.048   5.160  0.0785 -0.1357  0.0986
  507MOL0     C68367   3.493   3.954   5.070  0.2413 -1.1155 -0.5930
  507MOL0     O68368   3.375   3.889   5.084  0.0183  0.8435  0.0010
  507MOL0     C68369   3.400   3.752   5.136 -0.2369  0.2619  0.3496
  507MOL0     C68370   3.287   3.737   5.247  0.0409 -0.7760  0.1454
  507MOL0     C68371   3.141   3.766   5.196  0.3745  0.0915  0.2610
  507MOL0     C68372   3.033   3.693   5.264  0.0013  0.5245  0.8768
  507MOL0     C68373   3.051   3.549   5.227  0.3201  0.0818 -0.1981
  507MOL0     C68374   3.072   3.433   5.201  0.1137  0.4094 -0.3763
  507MOL0     C68375   3.586   3.920   4.974  0.5391  0.0347  0.4336
  507MOL0     C68376   3.724   3.955   4.976  0.2269  0.5004 -0.7828
  507MOL0     C68377   3.799   3.899   4.871  0.1246 -0.5415  0.6221
  507MOL0     H68378   4.100   4.352   5.168 -0.7253 -0.4040  0.5272
  507MOL0     H68379   4.343   4.351   5.235  0.2728 -0.7086 -1.8183
  507MOL0     H68380   4.603   4.281   5.279 -0.3788  1.2831  0.1426
  507MOL0     H68381   4.504   4.351   5.412 -2.4598 -0.7029  1.8881
  507MOL0     H68382   4.727   4.132   5.445  1.0557 -0.0867  1.8734
  507MOL0     H68383   4.617   4.194   5.567  3.5361 -1.1009  1.7663
  507MOL0     H68384   4.705   4.417   5.540 -0.7948 -1.0898  0.4658
  507MOL0     H68385   4.803   4.359   5.388  1.0671 -4.5401 -0.6442
  507MOL0     H68386   4.856   4.291   5.667  1.7535 -1.8690 -0.1216
  507MOL0     H68387   4.933   4.234   5.512  0.5025  0.8668 -0.9223
  507MOL0     H68388   5.047   4.411   5.663 -0.8994 -0.9662  1.0434
  507MOL0     H68389   5.037   4.441   5.489  0.7189  3.7177  1.2319
  507MOL0     H68390   4.829   4.584   5.532 -0.3303 -1.8042  1.3595
  507MOL0     H68391   4.855   4.562   5.708 -1.9156  1.5812  0.0229
  507MOL0     H68392   5.098   4.667   5.656  1.9614  2.8083 -2.3356
  507MOL0     H68393   4.951   4.752   5.689 -0.9442 -2.5403  1.0187
  507MOL0     H68394   5.025   4.682   5.403 -2.1285  0.4609 -0.5655
  507MOL0     H68395   4.909   4.806   5.452  0.0433  0.7650  0.1306
  507MOL0     H68396   5.010   4.977   5.649 -2.9070 -3.4430 -0.7597
  507MOL0     H68397   5.170   5.272   5.560 -0.2495 -0.8065 -1.5215
  507MOL0     H68398   5.186   5.189   5.711 -0.5920  0.8132 -0.9087
  507MOL0     H68399   5.432   5.169   5.531  0.6362 -1.6639  0.1667
  507MOL0     H68400   5.378   5.318   5.611 -1.7781 -0.4825  0.1030
  507MOL0     H68401   5.432   5.035   5.733 -0.0834 -0.6585  6.7600
  507MOL0     H68402   5.359   5.157   5.823  0.4704 -0.8470  0.5274
  507MOL0     H68403   5.574   5.302   5.805 -4.2338 -0.7887  2.6318
  507MOL0     H68404   5.645   5.179   5.690 -0.5769 -2.1512 -0.3806
  507MOL0     H68405   5.719   4.975   6.063  2.4476 -1.3346  0.9408
  507MOL0     H68406   5.958   4.933   6.086  2.3622  0.3120  0.4306
  507MOL0     H68407   6.420   5.172   6.173 -3.4833 -0.1347 -1.0531
  507MOL0     H68408   6.657   5.210   6.142  0.5257  0.3050 -0.0558
  507MOL0     H68409   6.864   5.409   6.037  1.2576  1.2225 -1.7670
  507MOL0     H68410   6.878   5.245   6.102  0.1923 -0.2361 -0.3845
  507MOL0     H68411   7.092   5.316   6.038  0.0985  0.6098  0.1361
  507MOL0     H68412   7.029   5.192   5.921 -1.0976 -0.1465 -0.9094
  507MOL0     H68413   6.990   5.372   5.764 -1.2755  2.4294  0.3456
  507MOL0     H68414   7.065   5.484   5.883 -0.0242  1.0918 -2.9038
  507MOL0     H68415   7.203   5.378   5.678  1.3079 -1.7693  0.5358
  507MOL0     H68416   7.225   5.242   5.794 -2.2042 -0.8031  1.7237
  507MOL0     H68417   7.322   5.404   5.945 -0.2785  1.4793  0.2765
  507MOL0     H68418   7.297   5.528   5.834  0.9311  0.1748  1.0907
  507MOL0     H68419   7.457   5.270   5.776 -1.1776 -0.1235 -0.0380
  507MOL0     H68420   7.437   5.398   5.668 -1.8877 -1.9123  0.2037
  507MOL0     H68421   7.560   5.441   5.947  0.4586 -0.1866 -0.1958
  507MOL0     H68422   7.564   5.558   5.822 -0.7751  0.4557  1.1173
  507MOL0     H68423   7.780   5.423   5.851 -1.1600  0.1699  2.0671
  507MOL0     H68424   7.692   5.276   5.838  0.8806  1.1460  0.3199
  507MOL0     H68425   6.609   5.249   5.721 -1.2560  2.1732  0.2913
  507MOL0     H68426   6.372   5.160   5.752 -3.4230 -0.2455  2.3907
  507MOL0     H68427   6.041   5.290   5.870 -0.3406  1.1844 -0.4788
  507MOL0     H68428   5.824   5.308   5.795 -4.6239  0.9153  1.9054
  507MOL0     H68429   4.283   3.969   5.422 -1.2136 -1.6523 -0.7619
  507MOL0     H68430   4.048   3.964   5.336  0.6528  0.0176 -1.1443
  507MOL0     H68431   3.700   4.142   5.263  1.2956  0.7903 -0.0015
  507MOL0     H68432   3.455   4.086   5.230  1.3058 -0.1003  1.4237
  507MOL0     H68433   3.500   3.745   5.180 -0.7906 -1.0639  1.4490
  507MOL0     H68434   3.387   3.676   5.058  2.1976  0.2415 -0.1316
  507MOL0     H68435   3.304   3.790   5.341 -3.7650 -1.7437  1.5529
  507MOL0     H68436   3.296   3.630   5.270  0.3630 -1.1781 -1.6751
  507MOL0     H68437   3.124   3.750   5.089 -3.1447  1.2367  0.5455
  507MOL0     H68438   3.118   3.870   5.220 -0.8463  0.0126 -0.5132
  507MOL0     H68439   3.034   3.707   5.372 -1.6974 -3.4485  1.5833
  507MOL0     H68440   2.931   3.712   5.229 -0.1273 -1.0224  0.3206
  507MOL0     H68441   3.090   3.330   5.178  0.5452  0.3618  0.1519
  507MOL0     H68442   3.557   3.853   4.894 -2.2732  1.2013  0.3736
  507MOL0     H68443   3.895   3.946   4.846 -0.6181 -0.3691 -2.3341
  507MOL0     H68444   3.819   3.793   4.892 -0.1162 -0.9171 -0.9351
  507MOL0     H68445   3.758   3.898   4.770  2.5608  2.8242 -0.5889
  508MOL0     O68446   4.228   6.641   6.524  0.6675 -0.2388 -0.1844
  508MOL0     C68447   4.163   6.747   6.519 -0.6659  0.0020  0.2586
  508MOL0     O68448   4.205   6.868   6.571  0.1076 -0.4262 -0.2333
  508MOL0     C68449   4.325   6.860   6.633  0.4585  0.2506 -0.1697
  508MOL0     C68450   4.450   6.874   6.563 -0.1448 -0.0442 -0.7654
  508MOL0     C68451   4.571   6.863   6.635  0.5165  0.5425 -0.1782
  508MOL0     C68452   4.574   6.872   6.776 -0.0496  0.2370  1.0523
  508MOL0     O68453   4.696   6.904   6.839  0.8025  0.5752 -0.4113
  508MOL0     C68454   4.821   6.840   6.798  0.3444  0.5297  0.4526
  508MOL0     C68455   4.945   6.927   6.836 -0.2785 -0.7894  0.2950
  508MOL0     C68456   5.062   6.900   6.749 -0.1699 -0.2975  0.1508
  508MOL0     C68457   5.139   6.769   6.758 -0.0852  0.5760 -0.0427
  508MOL0     C68458   5.232   6.755   6.636  0.6714  0.4740 -0.0116
  508MOL0     C68459   5.309   6.619   6.652  0.3411 -0.1614 -0.2696
  508MOL0     C68460   5.427   6.609   6.563 -0.4611 -0.0464  0.4786
  508MOL0     C68461   5.502   6.475   6.567  0.6796  0.0740  0.2239
  508MOL0     N68462   5.605   6.461   6.461 -0.2944 -0.1520 -0.4339
  508MOL0     C68463   5.642   6.344   6.396 -0.4325 -0.6323 -0.9119
  508MOL0     C68464   5.731   6.384   6.298 -0.1355  0.4284 -0.6145
  508MOL0     C68465   5.828   6.292   6.223  0.3882 -0.0510 -0.8283
  508MOL0     C68466   5.950   6.355   6.159 -0.2087  0.3685 -0.9899
  508MOL0     C68467   6.058   6.380   6.265  0.2809  0.1698  0.3557
  508MOL0     C68468   6.194   6.393   6.196 -0.6958 -0.1343 -0.9950
  508MOL0     O68469   6.291   6.422   6.298  0.1853 -0.0304  0.3980
  508MOL0     C68470   6.424   6.398   6.270  0.1021  0.2284 -0.1527
  508MOL0     C68471   6.494   6.358   6.383  0.6666  0.2677  0.0690
  508MOL0     C68472   6.633   6.359   6.377  0.1594 -0.3597 -0.9549
  508MOL0     C68473   6.698   6.378   6.253 -0.0220  0.5000  0.1912
  508MOL0     C68474   6.839   6.364   6.242  0.6184 -0.4436 -0.3390
  508MOL0     O68475   6.899   6.393   6.130  0.2008 -0.1319  0.0595
  508MOL0     C68476   7.031   6.392   6.133 -0.9060  0.3651 -0.3534
  508MOL0     C68477   7.101   6.284   6.078  0.2775  0.6020 -0.1534
  508MOL0     C68478   7.243   6.274   6.074  0.6333 -0.4472  0.5501
  508MOL0     C68479   7.317   6.385   6.122  0.4861 -1.5086 -0.1649
  508MOL0     O68480   7.453   6.397   6.135  0.1431 -0.2099 -0.6216
  508MOL0     C68481   7.533   6.296   6.084 -0.9830  0.5454  0.3800
  508MOL0     C68482   7.677   6.322   6.130 -0.5611  0.7261  0.5257
  508MOL0     C68483   7.758   6.190   6.123 -1.1595 -1.0074 -0.3248
  508MOL0     C68484   7.907   6.207   6.102 -0.6211 -0.3058  0.1244
  508MOL0     C68485   7.984   6.079   6.079  0.0153 -0.1086  0.4093
  508MOL0     C68486   8.125   6.099   6.133 -0.6110  0.6320 -0.2619
  508MOL0     C68487   8.211   5.977   6.102  0.5152  0.3491  0.5940
  508MOL0     C68488   8.351   6.016   6.157 -0.0478  0.2681  0.0808
  508MOL0    Cl68489   8.475   5.896   6.131  0.5304 -0.0175  0.0764
  508MOL0     C68490   7.250   6.503   6.169  0.7911 -0.2482  0.5346
  508MOL0     C68491   7.107   6.502   6.177  0.0311 -0.4219 -0.3032
  508MOL0     O68492   6.895   6.320   6.342 -0.4897 -0.2365 -1.0058
  508MOL0     C68493   6.623   6.409   6.138  0.3428 -0.7583  0.6555
  508MOL0     C68494   6.486   6.420   6.148 -0.8683 -0.8735  0.3837
  508MOL0     N68495   5.749   6.520   6.304 -0.4445  0.1370 -0.0462
  508MOL0     N68496   5.677   6.567   6.407 -1.0092  0.0081  0.4477
  508MOL0     C68497   4.450   6.861   6.838  0.4738  0.6680  0.1056
  508MOL0     C68498   4.329   6.847   6.775  0.4488 -0.0667  0.2245
  508MOL0     C68499   4.037   6.751   6.449  0.6028  0.3150  0.7600
  508MOL0     C68500   4.019   6.649   6.359 -0.0179  0.5850 -0.5479
  508MOL0     C68501   3.903   6.642   6.287 -0.8085  0.5836  0.2883
  508MOL0     C68502   3.808   6.744   6.292  0.3633 -0.5568  0.5339
  508MOL0     O68503   3.690   6.730   6.217  0.3909 -0.2158 -0.5089
  508MOL0     C68504   3.703   6.780   6.084 -0.3091 -0.8974  0.7167
  508MOL0     C68505   3.639   6.686   5.981 -0.3682  0.1009 -0.2377
  508MOL0     C68506   3.490   6.696   5.983  0.0662 -0.2378  0.2030
  508MOL0     C68507   3.426   6.825   5.929  0.3319 -0.2444  0.3926
  508MOL0     C68508   3.276   6.828   5.917  0.2411 -0.1369 -0.1985
  508MOL0     C68509   3.156   6.844   5.922  0.6550 -0.8034  0.1168
  508MOL0     C68510   3.824   6.855   6.371 -0.0091  0.4769 -0.1887
  508MOL0     C68511   3.942   6.862   6.445 -0.2020 -0.1160  0.2628
  508MOL0     C68512   3.955   7.002   6.522 -0.7421  0.7077 -0.0665
  508MOL0     H68513   4.440   6.888   6.456  0.2627 -0.2347 -0.8297
  508MOL0     H68514   4.667   6.876   6.585 -0.7590  1.5531 -2.5294
  508MOL0     H68515   4.830   6.738   6.836 -1.0216 -0.9408 -2.7433
  508MOL0     H68516   4.826   6.836   6.689  1.9855  3.3137  0.3299
  508MOL0     H68517   4.985   6.920   6.938  1.0726  3.1854  0.1980
  508MOL0     H68518   4.914   7.031   6.823 -1.1137 -1.2158 -1.3958
  508MOL0     H68519   5.140   6.973   6.774 -0.3494  0.7242 -2.0156
  508MOL0     H68520   5.020   6.900   6.648 -1.4429 -1.4913  0.6520
  508MOL0     H68521   5.199   6.763   6.849  1.5061  0.0269 -1.0933
  508MOL0     H68522   5.068   6.686   6.763  1.0805 -0.5606 -1.5770
  508MOL0     H68523   5.180   6.757   6.540 -0.9434  0.4253  0.8128
  508MOL0     H68524   5.301   6.839   6.648  0.4619  0.4588  1.5328
  508MOL0     H68525   5.340   6.610   6.756  2.0338  0.2446 -0.7158
  508MOL0     H68526   5.238   6.537   6.636 -1.0081  0.8618  0.2328
  508MOL0     H68527   5.499   6.689   6.585 -2.3096  2.6665 -2.4742
  508MOL0     H68528   5.398   6.621   6.459 -2.5104 -3.5149  0.5022
  508MOL0     H68529   5.554   6.457   6.661  0.5661  1.5629  0.6003
  508MOL0     H68530   5.431   6.393   6.549 -0.2983  0.9649 -0.1007
  508MOL0     H68531   5.620   6.244   6.432 -2.0124 -0.1784 -0.4949
  508MOL0     H68532   5.864   6.205   6.279  1.7441  1.9022  1.5486
  508MOL0     H68533   5.764   6.257   6.142 -1.2082 -0.9658  0.7465
  508MOL0     H68534   5.985   6.286   6.082  0.1463 -0.4110 -0.1645
  508MOL0     H68535   5.927   6.455   6.122  1.2253  0.8303 -0.7089
  508MOL0     H68536   6.054   6.289   6.325 -2.3449 -2.2562 -3.0641
  508MOL0     H68537   6.052   6.472   6.323  3.1023 -0.5066  1.8536
  508MOL0     H68538   6.203   6.477   6.127  0.3807 -0.0005 -0.7105
  508MOL0     H68539   6.210   6.298   6.145 -1.7375  0.2714 -2.1197
  508MOL0     H68540   6.452   6.367   6.482  0.5581  2.9905 -0.1393
  508MOL0     H68541   6.700   6.332   6.457 -1.9641  0.5663  1.2756
  508MOL0     H68542   7.042   6.206   6.032  0.0074 -1.3551  3.1547
  508MOL0     H68543   7.305   6.189   6.047  3.6946  1.8843 -0.2296
  508MOL0     H68544   7.507   6.201   6.132 -0.4925  0.7860  1.1401
  508MOL0     H68545   7.530   6.290   5.974  3.4995 -0.4261  0.0899
  508MOL0     H68546   7.734   6.389   6.065 -0.6869 -1.0310 -1.4896
  508MOL0     H68547   7.680   6.361   6.232 -0.0225 -0.6344  1.0513
  508MOL0     H68548   7.746   6.146   6.222  1.0146 -0.1085  0.3968
  508MOL0     H68549   7.738   6.112   6.048  0.2473 -1.2353 -0.4837
  508MOL0     H68550   7.934   6.260   6.194 -2.1614 -1.0133  1.0298
  508MOL0     H68551   7.931   6.273   6.018  2.6223 -3.0783 -1.3644
  508MOL0     H68552   7.993   6.059   5.972 -1.9249 -0.4086  0.2684
  508MOL0     H68553   7.929   6.002   6.133 -1.1891  0.2019 -0.3517
  508MOL0     H68554   8.173   6.184   6.083 -0.1919 -0.3472 -1.5472
  508MOL0     H68555   8.119   6.104   6.242  3.0870 -2.9075  0.3264
  508MOL0     H68556   8.229   5.970   5.994 -0.2198  4.2721  0.0590
  508MOL0     H68557   8.182   5.880   6.143  0.5437  0.5654  1.1381
  508MOL0     H68558   8.371   6.111   6.108  0.6958 -0.5720 -1.2984
  508MOL0     H68559   8.341   6.026   6.266  0.4972 -0.5567  0.2126
  508MOL0     H68560   7.301   6.597   6.188 -2.1180  1.6088 -0.1961
  508MOL0     H68561   7.056   6.586   6.223  2.6695 -0.0217  2.1696
  508MOL0     H68562   6.671   6.429   6.044 -1.7921 -1.0932 -0.5735
  508MOL0     H68563   6.411   6.452   6.076  0.5528  1.7543 -0.0626
  508MOL0     H68564   4.444   6.868   6.946  0.8317 -0.1682  0.1897
  508MOL0     H68565   4.231   6.836   6.822 -0.2134  3.3042 -0.1538
  508MOL0     H68566   4.090   6.567   6.348  0.1158  1.0285 -4.7477
  508MOL0     H68567   3.887   6.551   6.230 -1.9878 -0.8245  2.6992
  508MOL0     H68568   3.807   6.790   6.051 -0.7909  2.6483 -0.0632
  508MOL0     H68569   3.657   6.879   6.080  0.1102 -0.7357 -1.3026
  508MOL0     H68570   3.660   6.585   6.018 -0.1409  0.8069  1.6947
  508MOL0     H68571   3.669   6.688   5.876  1.9200  0.6706  0.3717
  508MOL0     H68572   3.454   6.688   6.086 -3.5202  1.2489 -0.7732
  508MOL0     H68573   3.447   6.616   5.922  0.3744 -0.5600  0.4039
  508MOL0     H68574   3.447   6.904   6.002  2.5692 -1.9952  1.7936
  508MOL0     H68575   3.469   6.845   5.830 -4.5817  1.0032 -1.7921
  508MOL0     H68576   3.051   6.864   5.929  0.4713 -1.8254  0.4644
  508MOL0     H68577   3.759   6.942   6.377  2.2290  2.4042 -1.8440
  508MOL0     H68578   3.962   6.997   6.631 -0.2336  1.9713 -0.0222
  508MOL0     H68579   4.038   7.059   6.479 -1.0227  0.4331 -0.9894
  508MOL0     H68580   3.869   7.064   6.496 -0.9238  0.2754 -0.5173
  509MOL0     O68581   5.829   9.591   3.015  0.2955  0.3318  0.7324
  509MOL0     C68582   5.839   9.626   2.897 -0.1249 -0.0362  0.0650
  509MOL0     O68583   5.957   9.644   2.830 -0.1020  0.1117 -0.0303
  509MOL0     C68584   6.071   9.634   2.898 -0.5357  0.1561  0.1803
  509MOL0     C68585   6.171   9.561   2.845 -0.1172 -0.1636  0.6698
  509MOL0     C68586   6.304   9.559   2.887 -0.2061 -0.8359  0.2654
  509MOL0     C68587   6.339   9.634   3.002 -0.4985 -0.3082  0.0936
  509MOL0     O68588   6.464   9.641   3.057  0.1101  0.0168 -0.5757
  509MOL0     C68589   6.583   9.599   2.980 -0.1171  0.3342  0.5271
  509MOL0     C68590   6.705   9.663   3.046  0.7455 -0.5047 -0.2073
  509MOL0     C68591   6.841   9.611   2.996  0.8556  0.6941 -0.5693
  509MOL0     C68592   6.946   9.634   3.113  0.4154 -1.0011  0.3190
  509MOL0     C68593   6.968   9.785   3.140  0.5713 -0.0805  1.0823
  509MOL0     C68594   7.066   9.818   3.252  0.3488 -0.9808 -0.2684
  509MOL0     C68595   7.012   9.790   3.391  0.3509 -0.3118 -0.1250
  509MOL0     C68596   7.114   9.839   3.499  0.4425 -0.3319 -0.5698
  509MOL0     N68597   7.237   9.754   3.516  0.2038 -0.3669  0.1824
  509MOL0     C68598   7.230   9.636   3.584  0.2038  0.2410  0.4523
  509MOL0     C68599   7.354   9.608   3.621  0.4330  0.2759 -0.6661
  509MOL0     C68600   7.407   9.484   3.679 -0.1812  0.4695 -0.4046
  509MOL0     C68601   7.558   9.489   3.709 -0.4983  0.3595  0.0623
  509MOL0     C68602   7.611   9.355   3.768 -0.7384  0.0512 -0.2789
  509MOL0     C68603   7.759   9.346   3.794 -0.2653 -0.4218  0.4236
  509MOL0     O68604   7.803   9.450   3.880 -0.2154  0.1617 -0.5287
  509MOL0     C68605   7.941   9.453   3.905 -0.5892  0.2402  0.3011
  509MOL0     C68606   7.978   9.565   3.975  0.4920  0.8058 -0.1452
  509MOL0     C68607   8.123   9.589   3.996  0.0424 -0.8222 -0.1481
  509MOL0     C68608   8.219   9.499   3.951  0.1171  0.5241  0.3241
  509MOL0     C68609   8.360   9.520   3.979  0.1865  0.1625  0.5870
  509MOL0     O68610   8.440   9.401   3.974 -0.1294 -0.2689  0.1852
  509MOL0     C68611   8.577   9.418   3.971  0.0196  0.0965  0.7201
  509MOL0     C68612   8.649   9.467   4.084 -0.6548  0.3841  1.1246
  509MOL0     C68613   8.788   9.484   4.097  1.0063 -0.2210  0.0469
  509MOL0     C68614   8.865   9.449   3.987 -0.3627  0.1649  1.1860
  509MOL0     O68615   9.003   9.470   3.995  0.5628 -0.0942 -0.6176
  509MOL0     C68616   9.080   9.394   3.905 -0.2843  0.2159 -0.5579
  509MOL0     C68617   9.218   9.355   3.961 -0.2771  0.0152 -0.0870
  509MOL0     C68618   9.290   9.289   3.849  0.3462  0.4936  0.2422
  509MOL0     C68619   9.431   9.254   3.881  0.2756 -0.0138 -0.3782
  509MOL0     C68620   9.517   9.221   3.761 -0.0518  0.8349 -0.0908
  509MOL0     C68621   9.659   9.198   3.803 -0.7894  0.7464 -0.7617
  509MOL0     C68622   9.670   9.054   3.862 -0.9426  0.2303 -0.4315
  509MOL0     C68623   9.815   9.003   3.860 -0.0368  0.4799  0.0917
  509MOL0    Cl68624   9.912   9.123   3.959 -0.1967 -0.0323  0.1343
  509MOL0     C68625   8.805   9.414   3.867  0.2086 -0.8224  0.2280
  509MOL0     C68626   8.666   9.391   3.861 -0.6088 -0.6729 -0.0324
  509MOL0     O68627   8.403   9.630   3.994  0.4848 -0.6869 -0.0506
  509MOL0     C68628   8.164   9.383   3.893 -0.8222 -0.3016 -0.0291
  509MOL0     C68629   8.034   9.350   3.871  0.9562  0.1488 -0.5531
  509MOL0     N68630   7.438   9.715   3.588 -0.1378 -0.0971 -0.3149
  509MOL0     N68631   7.363   9.802   3.530  0.0340 -0.1142  0.2205
  509MOL0     C68632   6.240   9.692   3.075  0.6842  0.7213 -0.1654
  509MOL0     C68633   6.104   9.700   3.019 -0.4018 -0.8977 -0.4459
  509MOL0     C68634   5.714   9.673   2.820 -0.4001  0.7544  0.2324
  509MOL0     C68635   5.735   9.760   2.712  0.4964  0.5375  0.0887
  509MOL0     C68636   5.623   9.828   2.644  0.1415 -0.4672  0.4123
  509MOL0     C68637   5.495   9.798   2.683 -0.4062 -0.0532  0.0793
  509MOL0     O68638   5.383   9.857   2.620  0.1371  0.1878 -0.1224
  509MOL0     C68639   5.401   9.982   2.543 -0.1599 -0.5371 -0.6072
  509MOL0     C68640   5.258  10.013   2.505 -0.9681 -0.3587 -0.2258
  509MOL0     C68641   5.267  10.140   2.418  0.9607 -0.1293  0.1308
  509MOL0     C68642   5.132  10.174   2.354  0.0391  0.5193  0.1119
  509MOL0     C68643   5.150  10.295   2.279  0.7411 -0.1342 -0.1698
  509MOL0     C68644   5.175  10.392   2.211 -0.2933 -0.5312  0.1293
  509MOL0     C68645   5.472   9.699   2.781  0.0397 -0.0846 -0.5199
  509MOL0     C68646   5.581   9.639   2.848  1.4799  0.7728  0.6366
  509MOL0     C68647   5.534   9.555   2.966 -0.2853  0.0273 -0.0533
  509MOL0     H68648   6.140   9.510   2.755 -1.9531  1.2938  0.4073
  509MOL0     H68649   6.373   9.504   2.823 -0.8370 -0.4917 -0.7293
  509MOL0     H68650   6.590   9.491   2.971  0.3233  0.4465 -0.7460
  509MOL0     H68651   6.583   9.631   2.875  0.8384 -2.6468 -0.4544
  509MOL0     H68652   6.691   9.642   3.153 -0.5437 -0.9560 -0.4421
  509MOL0     H68653   6.701   9.771   3.028  0.8543 -0.3684  0.5401
  509MOL0     H68654   6.872   9.658   2.902  0.1669  1.7040 -0.3072
  509MOL0     H68655   6.826   9.503   2.982  0.6142  0.3862  1.7377
  509MOL0     H68656   6.910   9.590   3.206 -0.6605 -1.3650 -0.2546
  509MOL0     H68657   7.041   9.594   3.077 -0.5427 -0.4370 -3.2351
  509MOL0     H68658   7.000   9.827   3.044 -2.0438 -1.9968 -0.7501
  509MOL0     H68659   6.874   9.834   3.168  1.4221  2.1071  0.3576
  509MOL0     H68660   7.164   9.771   3.258 -0.3173 -2.2279  3.0697
  509MOL0     H68661   7.084   9.926   3.251  1.8060 -1.2038 -0.3925
  509MOL0     H68662   6.990   9.683   3.402  1.9608 -0.6293  0.1974
  509MOL0     H68663   6.915   9.837   3.410  0.2040 -1.3634  2.0565
  509MOL0     H68664   7.139   9.944   3.479 -1.6837  0.3899  0.2691
  509MOL0     H68665   7.062   9.847   3.595  0.2754  1.4250 -0.7745
  509MOL0     H68666   7.143   9.573   3.598 -0.5573  1.1483 -0.0231
  509MOL0     H68667   7.356   9.478   3.776  0.6705  0.6526  0.0591
  509MOL0     H68668   7.388   9.399   3.612  0.4513  0.2705 -0.3330
  509MOL0     H68669   7.604   9.506   3.611  1.0794  0.0553  0.7134
  509MOL0     H68670   7.585   9.572   3.775 -2.6687  1.8239 -0.7632
  509MOL0     H68671   7.590   9.275   3.695 -1.1583 -0.4519  0.3846
  509MOL0     H68672   7.547   9.325   3.851 -0.3149 -3.9293 -1.1892
  509MOL0     H68673   7.822   9.345   3.704  1.1980 -2.0827  1.3879
  509MOL0     H68674   7.761   9.245   3.836 -2.2238 -1.0011 -0.7833
  509MOL0     H68675   7.898   9.630   4.008 -1.3255 -1.6882  0.6575
  509MOL0     H68676   8.150   9.677   4.052 -0.9421  0.4777 -1.6107
  509MOL0     H68677   8.596   9.497   4.175 -1.1628  1.1328  0.5957
  509MOL0     H68678   8.838   9.527   4.183  0.6022 -1.9664  1.1948
  509MOL0     H68679   9.033   9.299   3.878 -0.4185  0.5771 -1.6266
  509MOL0     H68680   9.100   9.457   3.818 -0.0367  1.8144  0.6042
  509MOL0     H68681   9.272   9.446   3.987 -1.6335  0.5885  0.8472
  509MOL0     H68682   9.215   9.280   4.041 -0.3324 -0.8505 -0.8773
  509MOL0     H68683   9.227   9.206   3.816  1.6747 -0.3869 -0.1834
  509MOL0     H68684   9.300   9.353   3.760  1.4726  0.5544  0.3967
  509MOL0     H68685   9.437   9.179   3.961 -0.8160 -1.8090 -1.8982
  509MOL0     H68686   9.484   9.340   3.923 -0.4109  1.0211 -1.5959
  509MOL0     H68687   9.511   9.307   3.692  2.6570  0.1613 -1.2906
  509MOL0     H68688   9.484   9.132   3.707  2.0409 -1.1717  1.7843
  509MOL0     H68689   9.724   9.207   3.716  0.2615 -0.9951 -0.2208
  509MOL0     H68690   9.695   9.264   3.882  0.8620 -0.2527 -0.6159
  509MOL0     H68691   9.617   8.979   3.802 -1.1332  0.1180 -0.1254
  509MOL0     H68692   9.638   9.055   3.966 -0.5014  2.1874 -0.2822
  509MOL0     H68693   9.823   8.906   3.910 -2.2674  0.2719  0.1474
  509MOL0     H68694   9.861   8.999   3.761 -1.0491 -2.1884 -0.3485
  509MOL0     H68695   8.853   9.388   3.773  1.5809 -0.8795  0.9264
  509MOL0     H68696   8.636   9.347   3.767  2.0664  1.1570 -1.9039
  509MOL0     H68697   8.234   9.308   3.858 -1.2029  0.4467 -2.6034
  509MOL0     H68698   8.016   9.260   3.813  1.8981 -0.0314 -0.5867
  509MOL0     H68699   6.270   9.750   3.162  1.6579  2.2884 -1.4757
  509MOL0     H68700   6.037   9.766   3.073  0.3970  0.3677 -0.9500
  509MOL0     H68701   5.838   9.762   2.677  0.7640 -0.2630  0.8026
  509MOL0     H68702   5.649   9.878   2.551 -0.7153  0.5611  0.7090
  509MOL0     H68703   5.461   9.959   2.454  1.8526 -3.8056  1.3567
  509MOL0     H68704   5.457  10.055   2.602 -0.1617 -0.3282 -0.8654
  509MOL0     H68705   5.193  10.026   2.592 -2.5802  0.3072 -1.4617
  509MOL0     H68706   5.215   9.935   2.441  0.0216 -0.7377 -0.4452
  509MOL0     H68707   5.332  10.123   2.332  1.9264  0.1748  0.7763
  509MOL0     H68708   5.295  10.226   2.479  1.9212  2.6027 -3.8264
  509MOL0     H68709   5.099  10.090   2.293 -0.1209  0.5464  0.1587
  509MOL0     H68710   5.054  10.196   2.427  0.7001  0.9989  0.6938
  509MOL0     H68711   5.202  10.476   2.151 -0.4373 -0.7918 -0.3033
  509MOL0     H68712   5.368   9.677   2.805 -0.7317  2.5690 -1.0836
  509MOL0     H68713   5.426   9.561   2.979 -0.2870  2.3168 -0.7738
  509MOL0     H68714   5.552   9.449   2.947 -1.8729 -0.3793  0.5796
  509MOL0     H68715   5.576   9.585   3.063 -2.3095  1.2995  0.4871
  510MOL0     O68716   6.161  10.478   8.929 -0.1054  0.8967  0.0445
  510MOL0     C68717   6.214  10.574   8.873 -0.4492  0.1655  0.8758
  510MOL0     O68718   6.350  10.581   8.851  0.2051 -0.5121 -0.6462
  510MOL0     C68719   6.449  10.485   8.889  0.0582 -0.5082  0.1105
  510MOL0     C68720   6.421  10.351   8.901 -0.3531  0.2855 -0.8833
  510MOL0     C68721   6.523  10.265   8.939 -0.7589  0.7873 -0.2673
  510MOL0     C68722   6.659  10.306   8.963  0.3274  0.2188 -0.0250
  510MOL0     O68723   6.736  10.204   8.999 -0.5701  0.0502 -0.8145
  510MOL0     C68724   6.876  10.231   9.024 -0.6009 -0.6625 -0.0492
  510MOL0     C68725   6.950  10.270   8.889  0.4443 -0.6190 -0.5482
  510MOL0     C68726   7.062  10.366   8.915 -0.3301  0.4557 -0.7250
  510MOL0     C68727   7.158  10.302   9.026  0.1963  0.4125 -0.1571
  510MOL0     C68728   7.305  10.346   9.003 -0.4602  0.0091 -0.0529
  510MOL0     C68729   7.326  10.481   9.051 -0.4123  0.6107 -0.9657
  510MOL0     C68730   7.475  10.528   9.022 -0.6743  0.0642 -0.0047
  510MOL0     C68731   7.503  10.674   9.076  0.0178 -0.6602  0.5219
  510MOL0     N68732   7.540  10.667   9.219 -0.1587  0.6754  0.6880
  510MOL0     C68733   7.475  10.736   9.320 -0.1915  0.4304 -0.3043
  510MOL0     C68734   7.566  10.746   9.423 -0.3908  0.2354  0.0198
  510MOL0     C68735   7.540  10.827   9.554 -0.2846  0.8050 -0.0323
  510MOL0     C68736   7.491  10.725   9.662 -0.2970 -0.5233 -0.1303
  510MOL0     C68737   7.590  10.613   9.699 -0.3091  0.4463 -0.7984
  510MOL0     C68738   7.724  10.666   9.742  0.4622  0.3892  0.4718
  510MOL0     O68739   7.767  10.594   9.860 -0.4077  0.5072 -0.4614
  510MOL0     C68740   7.901  10.587   9.885  0.0509 -0.7398  0.3641
  510MOL0     C68741   7.999  10.677   9.827 -0.0501 -0.5324 -0.5725
  510MOL0     C68742   8.132  10.657   9.858 -0.3700  0.1353 -0.1593
  510MOL0     C68743   8.181  10.558   9.946 -0.6657 -0.3380 -0.1450
  510MOL0     C68744   8.325  10.564   9.984  0.4852  0.1234 -0.3385
  510MOL0     O68745   8.358  10.452  10.053  0.1780  0.6765 -0.5193
  510MOL0     C68746   8.484  10.424  10.086 -1.1217 -0.3854  0.4760
  510MOL0     C68747   8.577  10.529  10.136  0.3263  0.5214 -0.5073
  510MOL0     C68748   8.702  10.491  10.185  0.4935  0.3103  0.5887
  510MOL0     C68749   8.742  10.357  10.203  0.5597  0.1545  0.6020
  510MOL0     O68750   8.863  10.331  10.266 -0.2171 -0.0354  0.6490
  510MOL0     C68751   8.952  10.237  10.204 -0.4086  0.2824 -0.7247
  510MOL0     C68752   9.067  10.203  10.302  0.2230 -0.7325 -0.2883
  510MOL0     C68753   9.147  10.326  10.349  0.6465  0.2958 -0.0694
  510MOL0     C68754   9.268  10.297  10.439  0.7358 -0.5205 -0.4392
  510MOL0     C68755   9.386  10.242  10.358 -0.2619  0.0640  0.6766
  510MOL0     C68756   9.511  10.257  10.447  1.1703 -0.4099 -0.0790
  510MOL0     C68757   9.633  10.209  10.368 -0.0028  0.1113 -0.1896
  510MOL0     C68758   9.766  10.244  10.439 -0.3813 -0.0220  1.5572
  510MOL0    Cl68759   9.882  10.165  10.331  0.1434 -0.0353 -0.2340
  510MOL0     C68760   8.654  10.259  10.154  0.5636  0.1994  0.5340
  510MOL0     C68761   8.532  10.291  10.097  0.5936  0.4213  0.1835
  510MOL0     O68762   8.392  10.659   9.943  0.5480 -0.0628  0.0755
  510MOL0     C68763   8.082  10.467   9.999 -0.0391 -0.8721 -0.3836
  510MOL0     C68764   7.945  10.484   9.969 -0.3951 -0.6207 -0.2797
  510MOL0     N68765   7.682  10.682   9.381  0.1069  0.6200  0.1452
  510MOL0     N68766   7.664  10.634   9.261  0.1560 -0.9222  0.4914
  510MOL0     C68767   6.683  10.443   8.952  0.6071  0.9089 -1.1866
  510MOL0     C68768   6.582  10.529   8.911  0.4131 -0.4157 -0.3994
  510MOL0     C68769   6.122  10.663   8.807 -0.0655 -0.2147  0.0248
  510MOL0     C68770   6.148  10.674   8.674 -0.5270  0.2256  0.6704
  510MOL0     C68771   6.054  10.740   8.594 -0.0507 -0.2894 -0.5705
  510MOL0     C68772   5.938  10.804   8.649 -1.0450 -0.2488 -0.0313
  510MOL0     O68773   5.845  10.869   8.573  0.3179  0.5580 -0.4032
  510MOL0     C68774   5.819  10.840   8.431 -0.2423  0.5017  0.3136
  510MOL0     C68775   5.753  10.693   8.430  0.1574  0.3589 -0.0218
  510MOL0     C68776   5.704  10.647   8.296 -0.1750 -1.1233 -0.3569
  510MOL0     C68777   5.643  10.512   8.301 -0.2024 -0.1128  0.6148
  510MOL0     C68778   5.539  10.471   8.397  1.1158 -0.3893 -0.1591
  510MOL0     C68779   5.441  10.446   8.465  0.8790 -0.1158 -0.6503
  510MOL0     C68780   5.931  10.798   8.790  2.0970 -0.2461  0.1457
  510MOL0     C68781   6.015  10.723   8.868  0.0997  0.3379  0.1429
  510MOL0     C68782   5.983  10.715   9.009  0.5188 -0.0622 -0.9284
  510MOL0     H68783   6.323  10.307   8.885 -0.8511  1.5817 -1.6010
  510MOL0     H68784   6.512  10.158   8.953  4.6697  0.2764  3.0230
  510MOL0     H68785   6.897  10.298   9.108  2.8188 -2.3187  0.5999
  510MOL0     H68786   6.917  10.137   9.062  1.7655 -0.2007 -1.2801
  510MOL0     H68787   6.884  10.314   8.814  0.0473 -1.8793 -0.9573
  510MOL0     H68788   6.988  10.183   8.835 -1.6117 -0.6257 -2.0924
  510MOL0     H68789   7.026  10.467   8.937  2.6670  1.5009 -0.1552
  510MOL0     H68790   7.117  10.387   8.822 -3.1111  4.0250 -1.7895
  510MOL0     H68791   7.138  10.332   9.129  0.7741 -1.3561  0.5087
  510MOL0     H68792   7.154  10.193   9.021 -1.0491  0.3886  0.9089
  510MOL0     H68793   7.371  10.280   9.061  0.7385 -0.8664 -2.2672
  510MOL0     H68794   7.334  10.343   8.897  1.2222  0.6307  0.3550
  510MOL0     H68795   7.253  10.549   9.007 -1.1185  0.9962  0.7474
  510MOL0     H68796   7.312  10.486   9.159 -3.3415  1.7902 -1.3276
  510MOL0     H68797   7.499  10.527   8.916  0.9318 -1.4665  0.3167
  510MOL0     H68798   7.545  10.460   9.072  0.8209  2.5665  1.5263
  510MOL0     H68799   7.581  10.726   9.019 -1.1294  0.6339  0.0945
  510MOL0     H68800   7.410  10.729   9.064 -0.6546 -1.6301  1.1225
  510MOL0     H68801   7.374  10.773   9.306 -0.0233  0.6498 -0.9903
  510MOL0     H68802   7.633  10.870   9.590 -0.2991 -0.8429  2.1545
  510MOL0     H68803   7.463  10.904   9.544  0.8389  1.8064 -1.4346
  510MOL0     H68804   7.462  10.782   9.751 -1.2392 -0.0048 -0.7486
  510MOL0     H68805   7.404  10.667   9.630 -0.7272 -0.3271  0.6412
  510MOL0     H68806   7.602  10.543   9.616 -0.5432  0.0034 -0.4653
  510MOL0     H68807   7.549  10.554   9.782  2.1848 -1.5644 -0.8580
  510MOL0     H68808   7.716  10.771   9.773 -2.1125  0.2854  0.3240
  510MOL0     H68809   7.792  10.657   9.656 -0.6895  0.3071 -0.4569
  510MOL0     H68810   7.960  10.760   9.769 -0.1402 -0.2262 -0.0788
  510MOL0     H68811   8.189  10.734   9.807 -0.7474 -0.4798 -1.5650
  510MOL0     H68812   8.545  10.632  10.146 -0.8281  0.0795  0.6774
  510MOL0     H68813   8.760  10.570  10.232  0.7348 -0.5712  1.8395
  510MOL0     H68814   8.903  10.141  10.185  0.6558 -0.8561  1.8092
  510MOL0     H68815   8.992  10.283  10.113  0.9532  3.5072  1.3108
  510MOL0     H68816   9.017  10.163  10.390 -0.6550  0.5741 -0.1672
  510MOL0     H68817   9.133  10.130  10.254  0.1456 -0.5644 -0.6539
  510MOL0     H68818   9.194  10.385  10.269  0.9303 -0.4173 -0.4464
  510MOL0     H68819   9.078  10.390  10.403  0.6468  2.2164 -2.1682
  510MOL0     H68820   9.238  10.223  10.514  1.6198 -2.5365 -2.0038
  510MOL0     H68821   9.310  10.390  10.479  1.2923 -0.5264 -1.0092
  510MOL0     H68822   9.399  10.300  10.266  0.6695 -0.8355  0.2101
  510MOL0     H68823   9.373  10.138  10.326 -4.0876  1.0147 -1.4718
  510MOL0     H68824   9.534  10.358  10.484 -0.6382 -0.3052  0.9012
  510MOL0     H68825   9.493  10.192  10.533 -0.1473  0.2637  0.1872
  510MOL0     H68826   9.634  10.256  10.269 -2.3263 -0.4668 -0.5389
  510MOL0     H68827   9.628  10.101  10.349  2.9178 -0.4039  1.3261
  510MOL0     H68828   9.778  10.352  10.450  0.1636  0.1947 -0.6662
  510MOL0     H68829   9.765  10.197  10.538  0.4630 -0.6939  1.2595
  510MOL0     H68830   8.692  10.158  10.160 -1.2542 -0.6604 -1.4053
  510MOL0     H68831   8.460  10.216  10.066 -1.5785  1.6143  2.0009
  510MOL0     H68832   8.114  10.383  10.060  1.6640  0.9549  1.3824
  510MOL0     H68833   7.865  10.421  10.006 -1.5963  0.9845 -0.0107
  510MOL0     H68834   6.782  10.474   8.983  0.6559 -0.9702  0.7381
  510MOL0     H68835   6.588  10.636   8.899 -1.3489 -0.1341  0.8254
  510MOL0     H68836   6.238  10.634   8.629  0.0664 -0.2472  2.1995
  510MOL0     H68837   6.074  10.739   8.487  0.7464 -1.2541 -0.4304
  510MOL0     H68838   5.909  10.830   8.368 -1.3744 -0.8112 -1.1737
  510MOL0     H68839   5.747  10.912   8.391  1.2997  0.8431 -2.0567
  510MOL0     H68840   5.673  10.680   8.504 -2.9068 -0.3945 -3.1581
  510MOL0     H68841   5.834  10.627   8.460 -0.8974 -0.6987  0.5662
  510MOL0     H68842   5.792  10.660   8.233  0.3451  1.1829  0.7632
  510MOL0     H68843   5.636  10.726   8.261  0.3514 -1.0127 -1.1546
  510MOL0     H68844   5.615  10.488   8.198  0.6838 -0.8431  0.5306
  510MOL0     H68845   5.730  10.448   8.317 -0.7586 -1.3043 -0.8846
  510MOL0     H68846   5.354  10.425   8.523  0.1736 -1.9584 -2.2986
  510MOL0     H68847   5.847  10.847   8.839  1.9268  0.6201 -0.9571
  510MOL0     H68848   5.880  10.678   9.017 -0.8984  2.7451 -3.9279
  510MOL0     H68849   6.065  10.658   9.055  1.6854 -0.2525 -3.1187
  510MOL0     H68850   5.987  10.812   9.060 -0.8914 -0.9314  0.9490
  511MOL0     O68851   4.052   9.677   8.090 -0.2199  0.1232 -0.3129
  511MOL0     C68852   3.970   9.581   8.094  0.1848 -0.0007  0.5139
  511MOL0     O68853   4.012   9.447   8.107  0.2499 -0.7188  0.1426
  511MOL0     C68854   4.144   9.426   8.128 -0.5516 -0.0622 -0.2299
  511MOL0     C68855   4.226   9.361   8.038 -0.5277  0.6327 -0.4817
  511MOL0     C68856   4.356   9.331   8.062  0.0054 -0.6065  0.4525
  511MOL0     C68857   4.411   9.367   8.186 -0.5290  0.2568  0.3971
  511MOL0     O68858   4.546   9.363   8.214 -0.3208  0.4117  0.0261
  511MOL0     C68859   4.635   9.305   8.119  0.3147  0.5477  0.0199
  511MOL0     C68860   4.781   9.346   8.162  0.6370 -0.0077  0.1612
  511MOL0     C68861   4.886   9.323   8.055  0.8094  0.1894  0.1752
  511MOL0     C68862   5.025   9.293   8.123  0.4676  0.1410  0.0694
  511MOL0     C68863   5.139   9.292   8.020 -0.1701  0.0734 -0.2653
  511MOL0     C68864   5.161   9.422   7.947 -0.0643  0.3478 -0.7391
  511MOL0     C68865   5.289   9.407   7.863  0.7765  0.5972 -0.9300
  511MOL0     C68866   5.289   9.500   7.751  0.7246  0.2427  0.3918
  511MOL0     N68867   5.207   9.452   7.637 -0.2123 -0.0246 -0.4527
  511MOL0     C68868   5.088   9.505   7.592  0.3695 -0.7471 -0.4398
  511MOL0     C68869   5.072   9.460   7.462  0.4648 -0.0742 -0.1364
  511MOL0     C68870   4.967   9.507   7.364 -1.4039  0.4014 -0.3803
  511MOL0     C68871   4.824   9.452   7.399 -0.3103  0.0425 -0.1306
  511MOL0     C68872   4.709   9.529   7.331  0.5231 -1.0854  0.0606
  511MOL0     C68873   4.572   9.491   7.384 -0.3370  0.1425 -0.0306
  511MOL0     O68874   4.468   9.563   7.324  0.8046  0.2525  1.0073
  511MOL0     C68875   4.348   9.497   7.297 -0.3555 -0.2243  0.5523
  511MOL0     C68876   4.248   9.487   7.398  0.6218  0.6004 -0.9566
  511MOL0     C68877   4.123   9.425   7.362  0.2736 -0.3540  0.9328
  511MOL0     C68878   4.101   9.373   7.235  0.5441 -0.4819  0.3598
  511MOL0     C68879   3.968   9.331   7.201 -0.1189 -0.2918  0.6807
  511MOL0     O68880   3.947   9.259   7.087 -0.5130  0.7509  0.1947
  511MOL0     C68881   3.833   9.184   7.090 -0.1663  0.4509 -0.3468
  511MOL0     C68882   3.826   9.059   7.161 -0.4201 -0.1111 -0.1323
  511MOL0     C68883   3.704   8.989   7.158  0.0978  0.1489 -0.5736
  511MOL0     C68884   3.592   9.039   7.094  0.4734  0.0923  0.5633
  511MOL0     O68885   3.464   8.995   7.110 -0.4601  0.1884 -0.2285
  511MOL0     C68886   3.438   8.871   7.172 -0.1840  0.3772 -0.2734
  511MOL0     C68887   3.290   8.828   7.162  0.6272  0.1275  0.8729
  511MOL0     C68888   3.259   8.733   7.047  0.1721 -0.6087  0.3705
  511MOL0     C68889   3.118   8.670   7.067 -0.3088  0.1295  0.2374
  511MOL0     C68890   3.097   8.554   6.971 -0.4552 -0.1630 -0.2917
  511MOL0     C68891   2.962   8.487   6.999  1.0364 -0.8376  0.7741
  511MOL0     C68892   2.954   8.358   6.913 -0.3249  0.3499 -0.2328
  511MOL0     C68893   2.829   8.269   6.932 -0.4571 -0.1303  0.5063
  511MOL0    Cl68894   2.701   8.339   6.834 -0.2284 -0.2978  0.0936
  511MOL0     C68895   3.603   9.157   7.018  0.6990 -0.2421  0.1076
  511MOL0     C68896   3.718   9.224   7.013 -0.8521  0.2827 -0.4191
  511MOL0     O68897   3.878   9.370   7.274  0.0267 -0.5960 -0.3842
  511MOL0     C68898   4.203   9.369   7.144 -0.0247 -0.6557  0.1399
  511MOL0     C68899   4.322   9.438   7.169 -0.0089  0.9096  0.5367
  511MOL0     N68900   5.172   9.365   7.439 -0.0652 -0.4360  0.2167
  511MOL0     N68901   5.245   9.360   7.543 -0.5153  0.1494  0.5948
  511MOL0     C68902   4.328   9.418   8.282  0.3495 -0.1899 -0.9315
  511MOL0     C68903   4.192   9.446   8.262  0.0092  0.3242 -0.1127
  511MOL0     C68904   3.827   9.606   8.092  1.0177  0.1919  0.2265
  511MOL0     C68905   3.740   9.503   8.136  0.3872 -0.5833 -0.2515
  511MOL0     C68906   3.605   9.524   8.146  0.3104 -0.1659 -0.4048
  511MOL0     C68907   3.552   9.649   8.115  0.3139  0.8139  0.2474
  511MOL0     O68908   3.415   9.661   8.108  0.3414 -0.2490 -0.7814
  511MOL0     C68909   3.358   9.613   7.984  0.3432  0.1356  0.1914
  511MOL0     C68910   3.295   9.472   7.997  0.1451 -1.3063 -0.3605
  511MOL0     C68911   3.315   9.392   7.864 -0.1287  0.1990  0.0892
  511MOL0     C68912   3.248   9.259   7.857  0.4101  0.1944 -0.0626
  511MOL0     C68913   3.105   9.276   7.849 -0.0478 -0.7438 -0.1818
  511MOL0     C68914   2.986   9.282   7.823 -0.0196 -0.5770  1.0627
  511MOL0     C68915   3.634   9.747   8.065  0.4646 -0.2695  0.5959
  511MOL0     C68916   3.770   9.732   8.064 -0.1849  0.3131 -0.2185
  511MOL0     C68917   3.851   9.850   8.018 -0.5827 -0.3172 -0.7471
  511MOL0     H68918   4.184   9.344   7.939 -0.7155  2.4345 -0.7484
  511MOL0     H68919   4.408   9.286   7.978 -1.2644 -0.9940 -0.1563
  511MOL0     H68920   4.633   9.196   8.110  0.8206  0.4009  1.4522
  511MOL0     H68921   4.619   9.352   8.021 -1.8647  1.3814  0.7048
  511MOL0     H68922   4.803   9.280   8.246  1.4918  1.2806  0.9792
  511MOL0     H68923   4.778   9.448   8.201 -0.6794 -0.0360  0.2029
  511MOL0     H68924   4.899   9.408   7.988 -0.1301  0.0315 -0.2196
  511MOL0     H68925   4.864   9.234   7.995  0.1651 -0.5875  1.5263
  511MOL0     H68926   5.048   9.368   8.199 -2.5197 -1.7392  3.1210
  511MOL0     H68927   5.025   9.198   8.177  3.7542  0.1665  0.3281
  511MOL0     H68928   5.227   9.267   8.080 -0.3578 -2.2820 -0.9028
  511MOL0     H68929   5.123   9.207   7.954  1.8761 -1.2363  0.8361
  511MOL0     H68930   5.070   9.449   7.892 -0.9520  1.9373  1.3320
  511MOL0     H68931   5.181   9.500   8.022  1.0882  0.3373 -1.0196
  511MOL0     H68932   5.296   9.305   7.823 -1.8294 -0.0802  0.1299
  511MOL0     H68933   5.378   9.421   7.924 -1.0793 -0.7383  2.3238
  511MOL0     H68934   5.251   9.600   7.775  1.7587  0.9999 -1.0037
  511MOL0     H68935   5.388   9.506   7.706 -0.1498 -1.6664 -2.0754
  511MOL0     H68936   5.020   9.568   7.649 -0.4393 -0.0340 -2.1351
  511MOL0     H68937   4.971   9.616   7.371  1.8724  0.3586 -0.2721
  511MOL0     H68938   5.001   9.497   7.261 -2.1909 -2.7996 -0.4514
  511MOL0     H68939   4.824   9.344   7.379  3.4715 -0.4842  1.9102
  511MOL0     H68940   4.806   9.468   7.505 -1.2902  0.3351 -0.3247
  511MOL0     H68941   4.713   9.520   7.222 -0.6147 -0.5945 -0.0370
  511MOL0     H68942   4.733   9.631   7.360  2.8189 -1.7723  0.7527
  511MOL0     H68943   4.586   9.517   7.490  0.1574 -0.1487 -0.0208
  511MOL0     H68944   4.557   9.384   7.366  0.5913  0.2711 -1.8046
  511MOL0     H68945   4.257   9.545   7.489 -1.7728  0.8665 -0.8287
  511MOL0     H68946   4.045   9.430   7.438 -0.4825 -2.4328  0.3363
  511MOL0     H68947   3.903   9.012   7.222 -1.1752  2.2196  2.8354
  511MOL0     H68948   3.692   8.893   7.208 -0.4297  1.4472  1.9847
  511MOL0     H68949   3.502   8.795   7.125  0.8750  1.3751 -0.4982
  511MOL0     H68950   3.467   8.864   7.277  0.8595  0.0867 -0.5680
  511MOL0     H68951   3.274   8.767   7.252  1.3436 -0.0631  0.8756
  511MOL0     H68952   3.223   8.914   7.154  2.2153  1.3306 -0.0314
  511MOL0     H68953   3.254   8.797   6.958  0.9043  0.4255  1.0477
  511MOL0     H68954   3.338   8.659   7.035 -0.1202 -1.0920  1.3226
  511MOL0     H68955   3.043   8.749   7.052 -1.3104 -0.7109  0.7196
  511MOL0     H68956   3.113   8.626   7.167  1.4010  1.5519  1.0203
  511MOL0     H68957   3.180   8.484   6.977 -0.1912  0.1806  0.1256
  511MOL0     H68958   3.094   8.584   6.866 -0.1656 -1.0961 -0.5709
  511MOL0     H68959   2.943   8.463   7.104 -0.4380  3.3887  1.6764
  511MOL0     H68960   2.891   8.563   6.964  1.8424 -0.3322  0.2138
  511MOL0     H68961   3.042   8.300   6.941 -1.2661 -0.6896  0.6788
  511MOL0     H68962   2.962   8.389   6.808 -2.0600  2.2532  0.1199
  511MOL0     H68963   2.852   8.164   6.909  0.0159 -0.0109  0.4304
  511MOL0     H68964   2.793   8.267   7.035  1.9986  3.9399  1.6604
  511MOL0     H68965   3.512   9.193   6.971  0.8827 -0.0280 -0.0892
  511MOL0     H68966   3.712   9.319   6.960  0.8693  1.1179  0.7636
  511MOL0     H68967   4.187   9.318   7.049 -0.5164  0.5559 -0.4512
  511MOL0     H68968   4.395   9.437   7.088  1.2670  3.1257  1.5709
  511MOL0     H68969   4.377   9.448   8.374  1.3236  0.6942 -1.7084
  511MOL0     H68970   4.126   9.483   8.339  0.2871 -1.6316  1.1264
  511MOL0     H68971   3.785   9.409   8.165  3.6132 -0.1819 -3.3302
  511MOL0     H68972   3.540   9.445   8.181 -0.9243  0.9934 -0.0122
  511MOL0     H68973   3.432   9.597   7.905  1.6058 -0.2773  1.4147
  511MOL0     H68974   3.278   9.677   7.947  2.9875  3.3174 -0.4350
  511MOL0     H68975   3.188   9.491   8.012  0.7793  2.3040  0.4315
  511MOL0     H68976   3.329   9.416   8.085 -3.1363 -0.4571  1.6301
  511MOL0     H68977   3.415   9.379   7.824 -0.4618 -0.1604 -0.6496
  511MOL0     H68978   3.271   9.455   7.786 -1.4607 -0.5160  0.2307
  511MOL0     H68979   3.281   9.207   7.766 -1.3654  0.3420 -0.8373
  511MOL0     H68980   3.279   9.202   7.945  0.3604  0.1723 -0.0588
  511MOL0     H68981   2.883   9.269   7.800  0.6403 -4.6557 -0.2941
  511MOL0     H68982   3.587   9.837   8.026  0.8879  0.5569  1.9480
  511MOL0     H68983   3.788   9.937   7.998 -0.4080 -0.3027 -1.2425
  511MOL0     H68984   3.918   9.891   8.095 -0.4791  2.4597 -2.1664
  511MOL0     H68985   3.915   9.825   7.933  0.0769 -0.4373 -0.2359
  512MOL0     O68986   7.912   3.051  10.420 -0.1049 -0.4076  0.8323
  512MOL0     C68987   7.840   3.126  10.359 -0.1309 -0.3130  0.6107
  512MOL0     O68988   7.879   3.193  10.244  0.0268 -0.3835 -0.4722
  512MOL0     C68989   8.013   3.219  10.231 -0.1194  0.4760 -0.5207
  512MOL0     C68990   8.083   3.167  10.124  0.3570  0.3400 -0.2346
  512MOL0     C68991   8.219   3.195  10.103  0.3131 -0.2326 -0.1358
  512MOL0     C68992   8.288   3.281  10.188 -0.2048  0.3597 -0.0311
  512MOL0     O68993   8.424   3.311  10.183 -0.6630 -0.2869 -0.2157
  512MOL0     C68994   8.495   3.250  10.078 -0.1544 -0.1437 -0.3470
  512MOL0     C68995   8.643   3.286  10.077  0.6448 -0.6193 -0.1006
  512MOL0     C68996   8.658   3.412   9.993 -0.5575  0.2701 -0.5157
  512MOL0     C68997   8.788   3.478  10.017  0.2159  0.0394  0.8203
  512MOL0     C68998   8.805   3.617   9.939 -0.1340 -0.0070 -0.3377
  512MOL0     C68999   8.888   3.703  10.022 -0.3179 -0.2356 -0.1135
  512MOL0     C69000   9.034   3.656  10.058 -0.1264  0.1192 -0.4774
  512MOL0     C69001   9.115   3.614   9.935 -0.5365 -0.0520 -0.4420
  512MOL0     N69002   9.140   3.731   9.846 -0.0643  0.2143  0.2805
  512MOL0     C69003   9.220   3.836   9.877 -0.4086 -0.3332 -0.5642
  512MOL0     C69004   9.181   3.932   9.788 -0.6151  0.3813  0.7016
  512MOL0     C69005   9.205   4.078   9.804 -0.4119 -0.6207  0.0993
  512MOL0     C69006   9.357   4.113   9.817 -0.8949 -0.0164  0.4060
  512MOL0     C69007   9.395   4.259   9.790 -0.3482 -0.1668  0.3784
  512MOL0     C69008   9.527   4.284   9.846  0.4742 -0.0868 -0.6543
  512MOL0     O69009   9.634   4.205   9.796  0.0856 -0.7207 -0.2978
  512MOL0     C69010   9.751   4.232   9.854 -0.5035  0.4691 -0.5453
  512MOL0     C69011   9.816   4.350   9.817  0.6845  0.1421 -0.3850
  512MOL0     C69012   9.926   4.392   9.898 -0.4949 -0.3163  1.0507
  512MOL0     C69013   9.972   4.311  10.003  0.4009  0.2923 -0.9358
  512MOL0     C69014  10.075   4.366  10.093  0.2501  0.6248 -0.0343
  512MOL0     O69015  10.060   4.322  10.221 -0.1777 -0.1124  0.2520
  512MOL0     C69016  10.168   4.328  10.314 -1.1307  0.3646  0.3916
  512MOL0     C69017  10.311   4.326  10.282 -0.1080 -0.0310 -0.3984
  512MOL0     C69018  10.395   4.340  10.392 -0.2637  0.0039 -0.4686
  512MOL0     C69019  10.353   4.350  10.530 -0.5632  0.1343 -0.1444
  512MOL0     O69020  10.428   4.362  10.643  0.4679 -0.4656 -0.3341
  512MOL0     C69021  10.555   4.428  10.631 -0.4356  0.9690  0.0186
  512MOL0     C69022  10.592   4.509  10.745 -0.5210  0.0017 -0.9590
  512MOL0     C69023  10.553   4.454  10.881  0.4503 -0.1704  0.7004
  512MOL0     C69024  10.589   4.533  11.003 -0.0284 -1.4591  0.2024
  512MOL0     C69025  10.618   4.445  11.126 -0.6489 -0.1620 -0.3915
  512MOL0     C69026  10.615   4.538  11.249  0.9612 -0.5383 -0.2246
  512MOL0     C69027  10.470   4.572  11.301 -0.6834  0.6437 -0.4738
  512MOL0     C69028  10.486   4.682  11.401  0.5651  0.6598 -0.5192
  512MOL0    Cl69029  10.577   4.638  11.558  0.2270 -0.4616 -0.1673
  512MOL0     C69030  10.216   4.346  10.551 -0.5422  0.5576  0.9605
  512MOL0     C69031  10.122   4.331  10.444 -0.4514 -0.1163 -0.3143
  512MOL0     O69032  10.159   4.451  10.054  0.3549 -0.2017 -0.0834
  512MOL0     C69033   9.904   4.190  10.034  0.7158  0.4278 -0.3780
  512MOL0     C69034   9.797   4.155   9.960 -0.4523 -0.2831 -0.1528
  512MOL0     N69035   9.077   3.879   9.711  0.5330 -1.1574 -0.3306
  512MOL0     N69036   9.060   3.756   9.738  0.6785  0.1521 -0.0226
  512MOL0     C69037   8.222   3.340  10.290 -0.1477  0.4261  0.3366
  512MOL0     C69038   8.083   3.301  10.313 -0.2292 -0.4094 -0.5099
  512MOL0     C69039   7.700   3.154  10.407 -0.2081  0.3085 -0.4022
  512MOL0     C69040   7.611   3.213  10.319 -0.0502 -0.1088  0.2020
  512MOL0     C69041   7.474   3.237  10.345 -0.0941 -0.8767 -0.1168
  512MOL0     C69042   7.420   3.221  10.471  0.1238 -0.6572 -0.3351
  512MOL0     O69043   7.283   3.230  10.504 -0.6414  0.1822 -0.2020
  512MOL0     C69044   7.205   3.142  10.419 -0.7435  0.6094  0.5693
  512MOL0     C69045   7.058   3.143  10.460  1.1054 -0.1282 -0.2259
  512MOL0     C69046   6.980   3.046  10.373 -0.2500  0.0924  0.1424
  512MOL0     C69047   6.867   2.975  10.442  0.1096  0.2258 -0.1012
  512MOL0     C69048   6.807   2.886  10.348  0.3576 -0.8968  0.4076
  512MOL0     C69049   6.771   2.799  10.271  0.7924  0.1527 -0.2918
  512MOL0     C69050   7.511   3.169  10.566  0.0374 -1.1554 -0.6312
  512MOL0     C69051   7.640   3.129  10.534  1.7691  0.1546  0.3799
  512MOL0     C69052   7.706   3.043  10.640  0.4311  1.0609 -0.1753
  512MOL0     H69053   8.035   3.095  10.057 -2.7224  2.1299 -0.1672
  512MOL0     H69054   8.270   3.148  10.020  0.1676 -0.4818 -0.0857
  512MOL0     H69055   8.488   3.143  10.102  2.5684 -0.6599 -1.4865
  512MOL0     H69056   8.448   3.276   9.983  0.2615 -0.1496 -0.5555
  512MOL0     H69057   8.693   3.198  10.035 -0.0193 -0.1357 -1.9983
  512MOL0     H69058   8.670   3.306  10.181 -1.9984  1.4210  0.3072
  512MOL0     H69059   8.572   3.472  10.022  0.0623  1.6572 -1.4788
  512MOL0     H69060   8.644   3.386   9.888 -1.4388 -0.5975 -0.1975
  512MOL0     H69061   8.785   3.501  10.124  0.9823  1.1859  0.6102
  512MOL0     H69062   8.874   3.415   9.993 -2.2255 -3.5315  0.7873
  512MOL0     H69063   8.843   3.609   9.837  0.2996 -0.5571 -0.1381
  512MOL0     H69064   8.705   3.661   9.932 -0.3755 -0.4573  0.2570
  512MOL0     H69065   8.888   3.797   9.967 -1.4326  0.3693  0.8683
  512MOL0     H69066   8.832   3.733  10.111  2.4778  1.3939  1.2084
  512MOL0     H69067   9.039   3.575  10.131  3.3959  1.6997  1.2508
  512MOL0     H69068   9.083   3.740  10.107  0.7502 -1.4694  1.5237
  512MOL0     H69069   9.212   3.572   9.963  1.1737  2.7049 -1.7584
  512MOL0     H69070   9.066   3.531   9.884 -0.1043  0.5141 -1.8106
  512MOL0     H69071   9.293   3.844   9.957  0.0391 -1.2510 -0.8647
  512MOL0     H69072   9.150   4.118   9.718 -0.4002 -1.1074 -0.1413
  512MOL0     H69073   9.163   4.122   9.895 -2.3354 -0.6200 -0.7435
  512MOL0     H69074   9.389   4.090   9.919 -0.5748  0.6738  0.4683
  512MOL0     H69075   9.412   4.041   9.756  0.1033  0.0236  1.2279
  512MOL0     H69076   9.317   4.320   9.837 -1.5792 -2.1713  1.0598
  512MOL0     H69077   9.400   4.276   9.682  0.0554 -0.1862  0.3932
  512MOL0     H69078   9.524   4.264   9.954 -1.2445  0.8980 -0.4869
  512MOL0     H69079   9.544   4.392   9.844 -1.9143  0.4056  1.1878
  512MOL0     H69080   9.778   4.401   9.729 -2.8776  0.5992  1.1951
  512MOL0     H69081   9.972   4.489   9.882 -0.6129 -0.5179 -0.6997
  512MOL0     H69082  10.344   4.309  10.180 -1.5938 -2.6122 -0.5495
  512MOL0     H69083  10.501   4.341  10.365 -0.5253 -0.7685 -1.5998
  512MOL0     H69084  10.623   4.344  10.615 -1.1117  0.4259 -0.0846
  512MOL0     H69085  10.567   4.492  10.543  0.4565 -0.8865 -1.2832
  512MOL0     H69086  10.699   4.534  10.739 -0.3251 -0.7750 -0.7567
  512MOL0     H69087  10.532   4.601  10.740 -1.8116 -0.8214 -0.8755
  512MOL0     H69088  10.445   4.442  10.886  0.0804  0.9962 -2.4003
  512MOL0     H69089  10.598   4.355  10.895 -2.0652 -1.4118  0.5143
  512MOL0     H69090  10.500   4.592  11.030  1.1163  0.1562  0.5664
  512MOL0     H69091  10.677   4.595  10.982 -1.6539  0.9157 -0.0495
  512MOL0     H69092  10.719   4.402  11.118 -1.3054 -2.1930  1.4137
  512MOL0     H69093  10.544   4.365  11.134  0.3396 -0.9619  1.6611
  512MOL0     H69094  10.657   4.480  11.332 -1.7330  1.8853  3.1260
  512MOL0     H69095  10.676   4.628  11.237 -1.7935  1.7475  1.5794
  512MOL0     H69096  10.428   4.482  11.348  0.8251  1.6023  3.0751
  512MOL0     H69097  10.404   4.597  11.218  0.3783 -1.6188 -2.1319
  512MOL0     H69098  10.529   4.770  11.352 -0.3102  1.3173 -0.1458
  512MOL0     H69099  10.382   4.699  11.433  0.3963  0.3747 -0.9053
  512MOL0     H69100  10.179   4.326  10.651  1.6008  0.1950  1.7316
  512MOL0     H69101  10.018   4.331  10.474 -0.8688  0.4526 -1.6713
  512MOL0     H69102   9.919   4.129  10.123 -1.0046  2.4003  1.3937
  512MOL0     H69103   9.751   4.058   9.980  0.6718 -1.1744 -1.6460
  512MOL0     H69104   8.277   3.401  10.361  1.4053 -2.8663  2.2330
  512MOL0     H69105   8.033   3.347  10.398 -0.6904  0.1013 -1.0510
  512MOL0     H69106   7.646   3.248  10.222 -1.4150  1.9260  0.3943
  512MOL0     H69107   7.398   3.273  10.276  0.0316  1.4868  0.8618
  512MOL0     H69108   7.262   3.049  10.416  0.8673  1.5548 -1.3604
  512MOL0     H69109   7.206   3.180  10.316 -3.5712  1.9535  0.9446
  512MOL0     H69110   7.005   3.239  10.464 -2.0064 -1.7605  2.7732
  512MOL0     H69111   7.052   3.111  10.565 -2.3250  0.2222 -0.2126
  512MOL0     H69112   7.050   2.976  10.327  0.1284 -0.0679  0.9396
  512MOL0     H69113   6.935   3.103  10.291 -2.3694  0.4510  1.4935
  512MOL0     H69114   6.911   2.906  10.515 -1.3858 -1.2641 -0.5401
  512MOL0     H69115   6.796   3.044  10.489 -1.3219 -2.1734  1.4662
  512MOL0     H69116   6.733   2.741  10.189 -2.6591  2.7193 -0.6991
  512MOL0     H69117   7.477   3.148  10.666 -0.2035  1.4964 -0.0779
  512MOL0     H69118   7.735   2.951  10.587  3.0635  1.2925  0.6924
  512MOL0     H69119   7.801   3.091  10.663  1.1714 -0.3596 -0.1294
  512MOL0     H69120   7.648   3.025  10.731  1.6737  1.5060  0.7302
  513MOL0     O69121   6.541   4.564   8.577  0.2511  0.2931  0.2047
  513MOL0     C69122   6.496   4.454   8.603  0.0021  0.3011 -0.0564
  513MOL0     O69123   6.567   4.337   8.589 -0.7341 -0.8735 -0.0937
  513MOL0     C69124   6.695   4.327   8.554 -0.5640 -0.6227 -0.4860
  513MOL0     C69125   6.723   4.210   8.486  0.2324 -0.0095  0.2682
  513MOL0     C69126   6.845   4.192   8.424 -0.0241 -0.1066  0.4951
  513MOL0     C69127   6.946   4.287   8.453 -0.0621 -0.0752 -0.2373
  513MOL0     O69128   7.068   4.275   8.397  0.2999  0.0345  0.0347
  513MOL0     C69129   7.074   4.208   8.267  0.2733  0.2248 -0.7350
  513MOL0     C69130   7.203   4.251   8.197  0.1789  0.5183  0.1103
  513MOL0     C69131   7.327   4.219   8.282 -0.5876  0.1284 -0.1738
  513MOL0     C69132   7.460   4.204   8.199  0.7117  0.3383 -0.4177
  513MOL0     C69133   7.571   4.131   8.280  0.5198  0.3259  0.5010
  513MOL0     C69134   7.688   4.131   8.178  0.3001 -0.1112  0.5848
  513MOL0     C69135   7.824   4.082   8.227  0.1632  0.0841 -0.3839
  513MOL0     C69136   7.835   3.956   8.312  0.4212 -0.0901  0.4670
  513MOL0     N69137   7.978   3.927   8.337 -0.0366  0.2696 -0.2799
  513MOL0     C69138   8.075   4.017   8.383  0.8616 -0.2854  0.1180
  513MOL0     C69139   8.189   3.938   8.391  0.0273 -0.4827 -0.0138
  513MOL0     C69140   8.325   3.989   8.435 -0.1890  0.4349 -0.3014
  513MOL0     C69141   8.403   3.990   8.299 -0.3899  1.2054 -0.6969
  513MOL0     C69142   8.395   4.126   8.227 -0.7044 -0.9328  1.1547
  513MOL0     C69143   8.434   4.114   8.077 -0.5165  0.4163  0.4292
  513MOL0     O69144   8.531   4.015   8.046 -1.1347  0.1066 -0.7788
  513MOL0     C69145   8.664   4.036   8.061 -0.6053  0.5439 -0.0297
  513MOL0     C69146   8.745   3.933   8.021  0.0893 -0.4326  0.7179
  513MOL0     C69147   8.885   3.930   8.038  0.4782 -0.7982 -0.3500
  513MOL0     C69148   8.950   4.050   8.097  1.1864 -0.4029 -0.9028
  513MOL0     C69149   9.092   4.054   8.120 -0.5929  0.1083 -0.4523
  513MOL0     O69150   9.169   3.943   8.116  0.0535 -0.7522 -0.6133
  513MOL0     C69151   9.305   3.954   8.125  0.3981 -0.4093 -0.4979
  513MOL0     C69152   9.393   4.027   8.044  0.7097 -0.2813  0.0221
  513MOL0     C69153   9.535   4.021   8.051 -0.0077  0.7764 -0.7546
  513MOL0     C69154   9.588   3.936   8.149 -0.0156  0.5079  0.1046
  513MOL0     O69155   9.716   3.901   8.152 -0.5378 -0.3532 -0.2281
  513MOL0     C69156   9.816   4.007   8.137  0.4672  0.8337 -0.3525
  513MOL0     C69157   9.943   3.929   8.165 -0.4002 -0.3504  0.1150
  513MOL0     C69158  10.068   4.008   8.139 -0.5569 -0.5406  0.6980
  513MOL0     C69159  10.206   3.938   8.166 -0.1611 -0.3027  0.3435
  513MOL0     C69160  10.331   4.015   8.123 -0.3425 -0.2733  0.9089
  513MOL0     C69161  10.456   3.951   8.179 -0.0287 -0.2566  0.2073
  513MOL0     C69162  10.502   3.828   8.100  0.3541 -0.3716 -0.2078
  513MOL0     C69163  10.608   3.745   8.166  1.2330  0.2250 -0.0303
  513MOL0    Cl69164  10.735   3.855   8.246  0.0944  0.3278  0.3095
  513MOL0     C69165   9.503   3.865   8.227 -0.0118  0.6193  0.6589
  513MOL0     C69166   9.363   3.865   8.219 -0.1823  0.3167  1.0545
  513MOL0     O69167   9.141   4.166   8.130  0.3301 -0.9755  0.6021
  513MOL0     C69168   8.867   4.157   8.138 -1.0944  0.1482 -0.6635
  513MOL0     C69169   8.728   4.148   8.120 -0.1585 -0.0040  0.0598
  513MOL0     N69170   8.156   3.807   8.362  0.3311 -0.1039 -0.1328
  513MOL0     N69171   8.027   3.802   8.342 -0.2265 -0.0676 -0.0208
  513MOL0     C69172   6.925   4.391   8.541  0.0145  0.1582 -0.0709
  513MOL0     C69173   6.796   4.418   8.595 -0.7151 -0.2636  0.2684
  513MOL0     C69174   6.362   4.446   8.678  0.0236 -0.0426  0.5782
  513MOL0     C69175   6.326   4.565   8.752  0.2576  0.6918  0.1651
  513MOL0     C69176   6.208   4.573   8.815  0.2866  0.5287 -0.5334
  513MOL0     C69177   6.125   4.456   8.831  0.2393 -0.8156  0.2224
  513MOL0     O69178   6.022   4.458   8.929  0.5377  0.2679  0.3640
  513MOL0     C69179   5.927   4.351   8.935 -0.1266 -0.6237  0.6331
  513MOL0     C69180   5.837   4.364   9.055 -0.4912 -0.2387  0.5021
  513MOL0     C69181   5.695   4.316   9.026  0.7417  0.3676  0.0550
  513MOL0     C69182   5.602   4.339   9.146  0.0984  0.2783  0.1239
  513MOL0     C69183   5.610   4.476   9.203  0.3144  0.3900  0.2484
  513MOL0     C69184   5.618   4.581   9.263  0.5551  0.0447 -0.3499
  513MOL0     C69185   6.160   4.344   8.765 -0.4034  0.5397  0.2777
  513MOL0     C69186   6.278   4.336   8.681  0.7089 -0.0279  0.1328
  513MOL0     C69187   6.303   4.210   8.596  0.1137  1.6266  0.2530
  513MOL0     H69188   6.649   4.134   8.462  0.9698  0.1606 -2.9667
  513MOL0     H69189   6.865   4.101   8.369 -2.4385 -0.9493  0.8738
  513MOL0     H69190   7.085   4.101   8.285  3.9420  0.7202  0.6241
  513MOL0     H69191   6.987   4.231   8.205  0.4361  1.2255 -0.6046
  513MOL0     H69192   7.197   4.356   8.169  1.2930  0.6511  0.3276
  513MOL0     H69193   7.221   4.195   8.104  1.6891 -1.5412  1.5409
  513MOL0     H69194   7.309   4.131   8.344  1.4150  0.5037  1.0272
  513MOL0     H69195   7.343   4.304   8.349  0.3141  0.8529 -1.2678
  513MOL0     H69196   7.439   4.139   8.114 -1.2062  0.3788 -0.0123
  513MOL0     H69197   7.509   4.298   8.170  0.8063 -0.0714 -1.6571
  513MOL0     H69198   7.599   4.181   8.373 -0.8313  1.4016  0.3529
  513MOL0     H69199   7.542   4.029   8.310  0.1226 -0.1261 -1.3132
  513MOL0     H69200   7.667   4.057   8.100  0.3311  0.4711  0.0137
  513MOL0     H69201   7.697   4.228   8.129  0.3062  0.2684  1.3180
  513MOL0     H69202   7.868   4.166   8.282 -2.4250  1.9542 -1.0193
  513MOL0     H69203   7.883   4.062   8.137 -0.1362  1.1583 -0.8357
  513MOL0     H69204   7.798   3.984   8.412  1.2181  1.5244  0.3462
  513MOL0     H69205   7.782   3.881   8.253 -1.7117  2.3157 -0.8402
  513MOL0     H69206   8.067   4.124   8.397 -2.9519 -0.3264 -0.5505
  513MOL0     H69207   8.319   4.089   8.480  2.3230 -0.3754  2.1073
  513MOL0     H69208   8.373   3.922   8.507 -1.0468  1.3919  1.2269
  513MOL0     H69209   8.505   3.960   8.323 -1.3280 -3.5752 -1.6091
  513MOL0     H69210   8.358   3.915   8.233 -1.3166 -0.2974  1.4975
  513MOL0     H69211   8.463   4.201   8.271 -0.5382 -0.2377 -0.2365
  513MOL0     H69212   8.296   4.169   8.241 -0.7068 -0.9855  1.3072
  513MOL0     H69213   8.472   4.207   8.034 -0.9213  0.7830  0.8594
  513MOL0     H69214   8.346   4.095   8.015 -1.2281  0.2926  1.4513
  513MOL0     H69215   8.692   3.851   7.973  0.2316 -0.9731  1.4663
  513MOL0     H69216   8.961   3.856   8.014  0.4098 -0.8264 -0.4825
  513MOL0     H69217   9.347   4.094   7.972  1.2311  2.8090  2.3744
  513MOL0     H69218   9.606   4.074   7.989  1.1881 -0.3674 -0.4147
  513MOL0     H69219   9.810   4.061   8.042 -3.3282  2.7037  0.7681
  513MOL0     H69220   9.784   4.078   8.213 -0.4195  0.9487 -0.8275
  513MOL0     H69221   9.938   3.908   8.272  1.9015 -0.2794  0.2740
  513MOL0     H69222   9.937   3.837   8.106  2.4512  1.0028 -2.5748
  513MOL0     H69223  10.074   4.024   8.031 -3.0244 -1.3272  0.3749
  513MOL0     H69224  10.067   4.104   8.189 -0.0968  0.8393 -1.7616
  513MOL0     H69225  10.204   3.841   8.116  1.1389  0.0602 -0.4318
  513MOL0     H69226  10.208   3.924   8.275  3.1157  1.3134  0.6123
  513MOL0     H69227  10.345   4.113   8.170  0.8825  0.8739 -1.6643
  513MOL0     H69228  10.335   4.026   8.015 -0.5433  0.4803  0.9787
  513MOL0     H69229  10.539   4.021   8.194 -0.9584  0.8091  0.4936
  513MOL0     H69230  10.430   3.913   8.278 -1.0941  2.4969  1.0679
  513MOL0     H69231  10.563   3.869   8.019 -0.0812  1.2318  0.2476
  513MOL0     H69232  10.420   3.763   8.067 -2.3401  1.9877  1.4358
  513MOL0     H69233  10.554   3.681   8.237  2.9172  0.8364  1.9267
  513MOL0     H69234  10.660   3.674   8.101 -0.5332 -0.5829 -0.6219
  513MOL0     H69235   9.553   3.794   8.292 -1.9212 -1.0799  0.3880
  513MOL0     H69236   9.302   3.809   8.290 -0.3882 -0.5473  0.2077
  513MOL0     H69237   8.902   4.245   8.190 -2.9802 -0.9322  2.7765
  513MOL0     H69238   8.660   4.232   8.132 -0.8713 -0.6689  0.7847
  513MOL0     H69239   7.009   4.450   8.577 -0.6973  1.0994  0.0983
  513MOL0     H69240   6.786   4.497   8.669 -2.7255  0.3484 -0.5905
  513MOL0     H69241   6.384   4.656   8.740  1.2610  0.2001  1.1407
  513MOL0     H69242   6.175   4.671   8.849 -0.3813  0.6046 -1.3456
  513MOL0     H69243   5.985   4.260   8.947  0.6415 -0.0165  1.7518
  513MOL0     H69244   5.868   4.347   8.843  1.3970  1.7683 -0.5601
  513MOL0     H69245   5.842   4.469   9.085 -0.4040 -0.8129  2.6883
  513MOL0     H69246   5.880   4.308   9.139 -1.2324  0.0360  1.0743
  513MOL0     H69247   5.684   4.212   8.996  3.0829  0.5453 -1.7578
  513MOL0     H69248   5.655   4.372   8.941  0.2151  1.5555  1.0586
  513MOL0     H69249   5.497   4.320   9.124 -0.0090 -1.1462  1.6642
  513MOL0     H69250   5.618   4.259   9.220 -2.0355 -1.4005 -1.1248
  513MOL0     H69251   5.635   4.674   9.314 -0.3684 -0.9959  2.0297
  513MOL0     H69252   6.096   4.259   8.789 -0.8855  1.0484  0.8070
  513MOL0     H69253   6.211   4.152   8.585  1.1387 -0.0756  0.2443
  513MOL0     H69254   6.332   4.240   8.495  3.3116 -0.5201  0.3725
  513MOL0     H69255   6.379   4.145   8.640 -0.1555  1.0679 -0.1053
  514MOL0     O69256  10.130   2.420   1.636 -0.1324  0.8227  0.5562
  514MOL0     C69257  10.044   2.455   1.717 -0.1404  0.4515 -0.2469
  514MOL0     O69258  10.067   2.519   1.837  0.5401  0.9192 -0.3499
  514MOL0     C69259  10.198   2.558   1.862  0.3603 -0.0256  0.3765
  514MOL0     C69260  10.265   2.661   1.802 -0.3543  0.0959  0.2414
  514MOL0     C69261  10.393   2.701   1.840 -0.0594 -0.6627 -0.1415
  514MOL0     C69262  10.449   2.650   1.952  0.4934  0.6683  0.0700
  514MOL0     O69263  10.566   2.682   2.009  0.3277  1.5797  0.9631
  514MOL0     C69264  10.657   2.756   1.922  0.5189  0.2992  0.3497
  514MOL0     C69265  10.788   2.748   2.015  0.0311  0.0259  0.1255
  514MOL0     C69266  10.904   2.780   1.923 -0.4089  0.3288 -1.1201
  514MOL0     C69267  11.036   2.794   2.009  0.1051 -0.3326 -0.6073
  514MOL0     C69268  11.150   2.840   1.925 -0.9254  0.1675 -0.6949
  514MOL0     C69269  11.285   2.828   2.004  0.2225  0.3574  0.5949
  514MOL0     C69270  11.408   2.881   1.930 -0.5470  0.1353 -0.4243
  514MOL0     C69271  11.395   3.036   1.905 -0.0372 -0.1391  0.3429
  514MOL0     N69272  11.526   3.087   1.858  0.3592  0.4942 -0.4158
  514MOL0     C69273  11.580   3.214   1.875 -0.0496  0.0165  1.2906
  514MOL0     C69274  11.679   3.221   1.775  0.2801  0.3338  0.6841
  514MOL0     C69275  11.768   3.338   1.760  0.2050 -0.2732  0.4946
  514MOL0     C69276  11.913   3.295   1.734 -0.4500  0.2601 -0.0183
  514MOL0     C69277  11.997   3.419   1.721 -0.3547 -0.5188 -0.2199
  514MOL0     C69278  12.143   3.380   1.695 -0.0774 -0.1031 -0.8495
  514MOL0     O69279  12.228   3.501   1.696 -0.7107 -0.7640  0.6437
  514MOL0     C69280  12.338   3.499   1.772  0.2109  0.7948 -0.3890
  514MOL0     C69281  12.452   3.462   1.709 -0.2108 -0.0141  0.0479
  514MOL0     C69282  12.573   3.485   1.771  1.1445 -0.5757  0.1278
  514MOL0     C69283  12.580   3.538   1.900  0.2921 -0.5176  0.3797
  514MOL0     C69284  12.709   3.574   1.950 -1.1320 -0.4743 -0.8024
  514MOL0     O69285  12.708   3.662   2.057 -0.2447 -0.4227 -0.2343
  514MOL0     C69286  12.819   3.715   2.125 -0.5933  0.6387  0.3967
  514MOL0     C69287  12.939   3.644   2.142 -0.2647  1.2096  0.4626
  514MOL0     C69288  13.038   3.698   2.228 -0.4183 -1.1358  0.6097
  514MOL0     C69289  13.019   3.819   2.297 -0.4372  0.1501  1.0509
  514MOL0     O69290  13.125   3.848   2.375  0.1624  0.1696  0.5712
  514MOL0     C69291  13.113   3.949   2.477  0.3802 -0.5147 -0.6604
  514MOL0     C69292  13.248   3.988   2.529  0.5597  0.0982  0.6147
  514MOL0     C69293  13.334   3.858   2.569  0.0776  1.0804  1.0762
  514MOL0     C69294  13.472   3.904   2.616  0.2763  0.3048  0.4202
  514MOL0     C69295  13.525   3.812   2.722 -1.3679 -0.4398  0.1160
  514MOL0     C69296  13.652   3.865   2.784 -0.7120  0.0121 -0.0423
  514MOL0     C69297  13.773   3.869   2.680 -0.2714 -0.0348 -0.1248
  514MOL0     C69298  13.899   3.910   2.759 -0.4927  1.2667  0.1485
  514MOL0    Cl69299  13.882   4.078   2.813  0.1562 -0.2427 -0.3028
  514MOL0     C69300  12.897   3.889   2.293  0.1400  0.0717  0.1504
  514MOL0     C69301  12.801   3.833   2.203 -0.2839  0.5748 -0.4038
  514MOL0     O69302  12.810   3.529   1.898  0.2011  0.5428 -0.1421
  514MOL0     C69303  12.462   3.579   1.964 -0.1848 -0.2262  0.0003
  514MOL0     C69304  12.341   3.563   1.899 -0.5533  0.2945 -1.0236
  514MOL0     N69305  11.690   3.098   1.712  0.5615  0.2665 -0.2366
  514MOL0     N69306  11.591   3.019   1.752 -0.4597  0.4585  0.2429
  514MOL0     C69307  10.386   2.541   2.014  0.1187  0.3816 -0.1340
  514MOL0     C69308  10.263   2.503   1.970  0.7511 -0.1393  0.2731
  514MOL0     C69309   9.906   2.403   1.693  0.0710 -0.6672 -0.5566
  514MOL0     C69310   9.799   2.485   1.653  0.3006  0.2438 -0.4582
  514MOL0     C69311   9.669   2.431   1.624  0.1841  0.9942  0.1679
  514MOL0     C69312   9.642   2.292   1.632 -0.5775 -0.7531  0.4128
  514MOL0     O69313   9.532   2.235   1.568 -0.5019 -0.4370 -0.5805
  514MOL0     C69314   9.531   2.098   1.531  0.4026  0.0168 -0.6035
  514MOL0     C69315   9.622   2.079   1.414  0.2640  0.3203 -0.4409
  514MOL0     C69316   9.642   1.931   1.374  0.1416 -0.2795  0.1898
  514MOL0     C69317   9.512   1.854   1.364  0.2487 -0.0907  0.1760
  514MOL0     C69318   9.515   1.751   1.253 -0.1321 -0.4293  0.1695
  514MOL0     C69319   9.510   1.676   1.163  0.0261 -0.3680 -0.2980
  514MOL0     C69320   9.748   2.215   1.677  0.2773  0.3380  0.7714
  514MOL0     C69321   9.874   2.268   1.712  0.8069  0.5977 -0.0925
  514MOL0     C69322   9.973   2.174   1.769  0.1682 -0.9210 -0.2115
  514MOL0     H69323  10.215   2.710   1.719  0.5750  3.0238  1.2793
  514MOL0     H69324  10.440   2.779   1.780  0.6548  1.4457  2.9138
  514MOL0     H69325  10.671   2.715   1.822  1.8952 -0.8480  0.9772
  514MOL0     H69326  10.613   2.855   1.909 -4.4994 -1.7889 -1.0239
  514MOL0     H69327  10.810   2.648   2.052 -0.3900  1.1287  3.8591
  514MOL0     H69328  10.779   2.812   2.104 -2.0537  0.9521 -0.6772
  514MOL0     H69329  10.894   2.876   1.870 -0.7892 -0.5674 -2.7593
  514MOL0     H69330  10.908   2.695   1.854  0.7569 -0.4763 -0.1027
  514MOL0     H69331  11.026   2.875   2.083 -1.3025 -2.5702  1.8063
  514MOL0     H69332  11.062   2.705   2.067  1.6105  0.4808  0.0241
  514MOL0     H69333  11.170   2.776   1.839  2.7224 -1.1907  0.9512
  514MOL0     H69334  11.123   2.939   1.889 -3.3000 -0.3002 -0.3632
  514MOL0     H69335  11.256   2.861   2.105  1.5275  3.8005 -0.0205
  514MOL0     H69336  11.304   2.722   2.024  1.5939  0.3988 -0.3943
  514MOL0     H69337  11.417   2.827   1.836 -0.1015 -0.8355  0.1653
  514MOL0     H69338  11.499   2.858   1.985 -1.5119 -0.1656  1.1208
  514MOL0     H69339  11.318   3.052   1.829  1.0475  2.3809 -0.3100
  514MOL0     H69340  11.372   3.091   1.996 -0.3965 -0.5342  0.4971
  514MOL0     H69341  11.546   3.296   1.938  0.1004  0.7366  0.4486
  514MOL0     H69342  11.743   3.399   1.673  1.9743  0.1970  0.2763
  514MOL0     H69343  11.765   3.413   1.839  1.3434  0.3065  0.0159
  514MOL0     H69344  11.942   3.230   1.817 -1.5606  0.5666  0.6395
  514MOL0     H69345  11.915   3.240   1.639 -1.0421 -1.5015  0.9280
  514MOL0     H69346  11.999   3.481   1.811 -0.3654 -2.7746  1.4438
  514MOL0     H69347  11.961   3.473   1.634 -2.2841  0.8836  1.3705
  514MOL0     H69348  12.159   3.322   1.603  0.2135 -2.9778  0.8998
  514MOL0     H69349  12.178   3.331   1.786 -0.9090 -0.5821 -0.7793
  514MOL0     H69350  12.445   3.420   1.609 -2.7075  0.3864 -0.0182
  514MOL0     H69351  12.662   3.450   1.719  2.6630 -0.0884  2.2763
  514MOL0     H69352  12.951   3.555   2.081  1.4799  1.8229 -0.1670
  514MOL0     H69353  13.132   3.647   2.248 -0.7454 -0.7468  3.5788
  514MOL0     H69354  13.048   4.033   2.452 -0.7123 -0.9012  0.7332
  514MOL0     H69355  13.066   3.904   2.566  0.2082  1.8064  0.4891
  514MOL0     H69356  13.290   4.064   2.463 -0.9742  0.5893  0.1611
  514MOL0     H69357  13.223   4.051   2.615 -1.0217  1.0394 -0.4896
  514MOL0     H69358  13.286   3.792   2.642 -1.7669  2.8407  1.5537
  514MOL0     H69359  13.356   3.801   2.479  3.3332  0.1544  2.3065
  514MOL0     H69360  13.454   4.000   2.667 -2.2813 -0.9245  2.0632
  514MOL0     H69361  13.537   3.907   2.529 -1.7892  0.4942 -1.1943
  514MOL0     H69362  13.546   3.718   2.669 -0.0688  0.7610 -1.5888
  514MOL0     H69363  13.461   3.788   2.807 -0.7662  0.4214  0.8257
  514MOL0     H69364  13.635   3.961   2.834 -0.9883 -0.9245  1.7309
  514MOL0     H69365  13.684   3.793   2.859  1.5582  1.3006  0.3132
  514MOL0     H69366  13.759   3.937   2.595  0.6317 -1.0089 -1.0726
  514MOL0     H69367  13.778   3.764   2.650 -1.6378  0.4367 -2.2006
  514MOL0     H69368  13.919   3.842   2.843  0.6133  2.3578  0.8006
  514MOL0     H69369  13.987   3.910   2.695 -1.3463 -0.6091 -1.1180
  514MOL0     H69370  12.880   3.975   2.357 -0.2477 -0.0217  0.1796
  514MOL0     H69371  12.709   3.888   2.191 -0.6379 -0.0829 -0.7223
  514MOL0     H69372  12.456   3.639   2.055 -1.6799 -1.2217  0.5843
  514MOL0     H69373  12.241   3.600   1.924 -1.1142  0.2086 -2.9880
  514MOL0     H69374  10.429   2.492   2.101 -0.7833 -0.3130 -0.0707
  514MOL0     H69375  10.217   2.419   2.021 -2.4800  1.3501  0.0670
  514MOL0     H69376   9.813   2.592   1.641  0.2454  0.3873  0.6762
  514MOL0     H69377   9.585   2.489   1.586 -0.7194 -1.0018 -1.0239
  514MOL0     H69378   9.433   2.066   1.493  0.2153 -1.9760  1.3680
  514MOL0     H69379   9.541   2.034   1.619 -3.2742 -0.1144 -0.0967
  514MOL0     H69380   9.722   2.114   1.439  1.1256 -1.6685 -0.8987
  514MOL0     H69381   9.583   2.137   1.330 -0.8565  0.2841  0.0400
  514MOL0     H69382   9.709   1.888   1.449 -0.4679  0.3559  1.1227
  514MOL0     H69383   9.692   1.928   1.277 -0.5803 -1.1712 -0.1741
  514MOL0     H69384   9.494   1.813   1.464  0.8844  0.3945  0.4946
  514MOL0     H69385   9.426   1.917   1.338  1.3412  1.4535  0.1972
  514MOL0     H69386   9.482   1.615   1.078 -0.6318  0.3434 -0.6012
  514MOL0     H69387   9.728   2.108   1.675 -2.1784  0.7531 -1.4241
  514MOL0     H69388   9.934   2.080   1.809  0.7286  0.0890  2.9182
  514MOL0     H69389  10.053   2.154   1.696  2.0620  0.0095  1.5256
  514MOL0     H69390  10.032   2.211   1.853 -0.4055  1.3451 -0.7264
  515MOL0     O69391  10.237  10.469   5.673  0.5437 -0.0721  0.4004
  515MOL0     C69392  10.217  10.544   5.766  0.8559 -0.3844 -0.1516
  515MOL0     O69393  10.315  10.621   5.830  0.1407 -0.0265 -0.0030
  515MOL0     C69394  10.446  10.638   5.793  0.5478  0.0923 -0.1707
  515MOL0     C69395  10.505  10.573   5.684 -0.3161 -0.0021 -0.8246
  515MOL0     C69396  10.641  10.581   5.648 -0.5432  0.0375  0.0212
  515MOL0     C69397  10.723  10.657   5.733 -0.3075 -0.3361  0.7119
  515MOL0     O69398  10.857  10.664   5.705 -0.3528  0.4783 -0.4227
  515MOL0     C69399  10.942  10.595   5.797  0.1882 -0.0087  0.8158
  515MOL0     C69400  11.085  10.650   5.814 -0.4933  0.3507 -0.3732
  515MOL0     C69401  11.163  10.631   5.689  0.4161  0.2506 -0.3398
  515MOL0     C69402  11.307  10.627   5.720 -0.1236  0.1148 -0.0046
  515MOL0     C69403  11.378  10.609   5.585 -0.1266 -0.4222  0.1636
  515MOL0     C69404  11.525  10.629   5.601 -0.1032  0.8613 -0.0586
  515MOL0     C69405  11.605  10.589   5.475  0.2314 -1.5001 -0.2075
  515MOL0     C69406  11.750  10.586   5.515  0.5842  0.4779  0.3143
  515MOL0     N69407  11.838  10.558   5.399  0.1665 -0.1896  0.6279
  515MOL0     C69408  11.876  10.660   5.310 -1.2144  1.5880 -0.3541
  515MOL0     C69409  11.958  10.595   5.229 -0.1762  0.8981  0.2769
  515MOL0     C69410  12.048  10.638   5.109 -0.3881  0.2927 -0.9689
  515MOL0     C69411  11.968  10.683   4.996  1.2410 -0.0868  0.3495
  515MOL0     C69412  11.886  10.558   4.937 -0.5621 -0.4351  0.1460
  515MOL0     C69413  11.807  10.598   4.809 -0.4869 -0.3788 -0.1862
  515MOL0     O69414  11.698  10.696   4.837  0.0165 -0.4938 -0.0565
  515MOL0     C69415  11.610  10.679   4.941 -0.3013 -0.7090 -0.8650
  515MOL0     C69416  11.587  10.558   5.004 -1.1893 -0.4132 -0.6795
  515MOL0     C69417  11.499  10.550   5.113 -0.0886 -0.0046 -0.5112
  515MOL0     C69418  11.414  10.654   5.152 -0.1022  0.8729 -0.1239
  515MOL0     C69419  11.299  10.635   5.244  0.0542  0.4382  0.1788
  515MOL0     O69420  11.275  10.501   5.280 -0.1456 -0.1410 -0.6579
  515MOL0     C69421  11.162  10.466   5.352 -0.4741 -0.2132  0.2270
  515MOL0     C69422  11.042  10.540   5.368 -0.4885 -0.2327  1.4195
  515MOL0     C69423  10.932  10.485   5.428  0.5285 -0.0104  0.0436
  515MOL0     C69424  10.935  10.354   5.480 -0.2638  0.8404 -0.3088
  515MOL0     O69425  10.813  10.301   5.517 -0.8576 -0.5760 -0.1402
  515MOL0     C69426  10.799  10.160   5.514 -0.0111 -0.0705  0.7619
  515MOL0     C69427  10.663  10.108   5.536  0.7046  0.8000  0.1213
  515MOL0     C69428  10.613  10.133   5.681  0.1232  0.1946 -1.1866
  515MOL0     C69429  10.467  10.077   5.689  0.1919 -0.5701 -0.2095
  515MOL0     C69430  10.370  10.147   5.789  0.7767  0.1029  0.5248
  515MOL0     C69431  10.227  10.075   5.782 -0.3325 -0.2902 -0.4044
  515MOL0     C69432  10.169  10.094   5.919  0.6546  0.9638 -0.0763
  515MOL0     C69433  10.022  10.025   5.942  0.5980  0.4088  0.9088
  515MOL0    Cl69434   9.899  10.121   5.850 -0.2444  0.2125  0.2581
  515MOL0     C69435  11.061  10.289   5.472 -0.0606  0.3312  0.1658
  515MOL0     C69436  11.169  10.340   5.401  0.0107 -0.2391 -0.5566
  515MOL0     O69437  11.245  10.736   5.286  0.3302 -0.0828  0.5961
  515MOL0     C69438  11.427  10.772   5.075  0.6673 -0.0544  0.1599
  515MOL0     C69439  11.523  10.784   4.974  0.2388 -0.1126  0.5401
  515MOL0     N69440  11.949  10.460   5.258 -0.7026  0.3685  0.9723
  515MOL0     N69441  11.872  10.437   5.355 -0.2569  0.0261 -0.0677
  515MOL0     C69442  10.665  10.733   5.838  0.5162 -0.4854  0.3467
  515MOL0     C69443  10.530  10.719   5.875  0.5695  0.2300  0.0889
  515MOL0     C69444  10.070  10.549   5.803  0.9417  0.1798 -0.1258
  515MOL0     C69445   9.981  10.452   5.755  1.1706  0.0672  1.2817
  515MOL0     C69446   9.843  10.447   5.804  0.1375  0.3017 -0.0516
  515MOL0     C69447   9.800  10.536   5.902 -0.8878 -0.1272  0.5526
  515MOL0     O69448   9.680  10.521   5.957 -0.2374  0.7489  0.2998
  515MOL0     C69449   9.588  10.620   5.910  0.9206 -1.1352 -0.4038
  515MOL0     C69450   9.497  10.662   6.022 -0.9351 -0.3979  0.3186
  515MOL0     C69451   9.400  10.552   6.069  0.2401 -1.2127  0.9085
  515MOL0     C69452   9.331  10.620   6.188  1.4435 -0.3297 -0.2350
  515MOL0     C69453   9.290  10.520   6.289  0.4983  0.3565  0.3158
  515MOL0     C69454   9.260  10.440   6.374  0.1149  0.3240 -0.3449
  515MOL0     C69455   9.882  10.635   5.949 -0.2599 -0.6003 -0.2990
  515MOL0     C69456  10.022  10.640   5.901  0.2495  0.3405 -0.3966
  515MOL0     C69457  10.117  10.743   5.981  0.6296  0.7357  1.0522
  515MOL0     H69458  10.446  10.508   5.619 -2.8039 -1.0971  2.2575
  515MOL0     H69459  10.675  10.521   5.565  0.1495 -1.0960  1.0777
  515MOL0     H69460  10.896  10.605   5.895 -2.5424 -0.3402 -0.3446
  515MOL0     H69461  10.943  10.488   5.774  0.6379  0.0303  0.6393
  515MOL0     H69462  11.130  10.599   5.900 -1.3044 -0.2488 -0.2910
  515MOL0     H69463  11.087  10.754   5.850  0.5468  0.7418 -1.5046
  515MOL0     H69464  11.153  10.711   5.615  0.3029  0.0618 -0.5335
  515MOL0     H69465  11.143  10.534   5.641 -0.4796  0.8174 -1.1512
  515MOL0     H69466  11.339  10.721   5.765  0.7629  0.6318 -1.6242
  515MOL0     H69467  11.320  10.545   5.792  0.8804  0.4034  0.1498
  515MOL0     H69468  11.361  10.507   5.550 -0.3554  0.6723 -3.1916
  515MOL0     H69469  11.341  10.679   5.510  2.1973  0.0136 -0.6463
  515MOL0     H69470  11.552  10.734   5.615 -0.4284  0.7712  1.4398
  515MOL0     H69471  11.563  10.557   5.675  1.4519 -0.4337 -1.9985
  515MOL0     H69472  11.579  10.658   5.394 -2.5390 -0.3340  1.5036
  515MOL0     H69473  11.571  10.494   5.433  0.0112 -0.7919 -1.6989
  515MOL0     H69474  11.770  10.688   5.548 -1.6978  2.0126 -2.5629
  515MOL0     H69475  11.767  10.509   5.590 -1.0817 -0.0200  0.2216
  515MOL0     H69476  11.852  10.766   5.312 -2.1607  1.4421 -1.9447
  515MOL0     H69477  12.118  10.718   5.135  0.1323  0.7914 -3.5863
  515MOL0     H69478  12.111  10.553   5.080 -0.5320  0.0683 -0.6330
  515MOL0     H69479  11.897  10.763   5.019  1.0494  1.2149 -3.8699
  515MOL0     H69480  12.037  10.727   4.923  0.1980 -0.7702 -1.1179
  515MOL0     H69481  11.828  10.514   5.018  0.8276 -0.7323  1.0019
  515MOL0     H69482  11.954  10.476   4.912  1.0484  0.6114  0.9647
  515MOL0     H69483  11.760  10.511   4.763 -0.4531 -0.3987 -0.1827
  515MOL0     H69484  11.882  10.647   4.746 -0.1691  0.7478  1.0068
  515MOL0     H69485  11.621  10.462   4.967 -1.1237  0.9368 -4.5128
  515MOL0     H69486  11.487  10.451   5.156  0.3275 -0.7375 -2.0182
  515MOL0     H69487  11.027  10.642   5.335  1.2372 -0.7129 -1.1628
  515MOL0     H69488  10.839  10.540   5.429 -0.7201 -1.8787 -2.5133
  515MOL0     H69489  10.825  10.146   5.409  1.4661  0.3666  1.0569
  515MOL0     H69490  10.874  10.115   5.580  0.6849  0.1794  0.1500
  515MOL0     H69491  10.593  10.153   5.466 -0.4274 -1.6304 -0.3794
  515MOL0     H69492  10.660  10.002   5.512  0.6175  0.8551 -0.1087
  515MOL0     H69493  10.677  10.080   5.752 -2.6389 -1.2008  0.4237
  515MOL0     H69494  10.610  10.242   5.686  0.6658  0.1811 -0.4526
  515MOL0     H69495  10.476   9.972   5.718  0.0913 -0.8068 -1.0102
  515MOL0     H69496  10.417  10.074   5.592 -1.4297 -3.4548  0.6222
  515MOL0     H69497  10.354  10.253   5.767 -2.5632 -0.1063  1.4819
  515MOL0     H69498  10.409  10.136   5.890 -1.2328  0.6467  1.3872
  515MOL0     H69499  10.160  10.117   5.706  0.9600 -0.2691 -1.5834
  515MOL0     H69500  10.238   9.968   5.763 -0.9410  0.0321 -3.1031
  515MOL0     H69501  10.160  10.198   5.955 -2.5230 -0.4950  4.2989
  515MOL0     H69502  10.228  10.043   5.995 -0.9017  1.2446  1.3920
  515MOL0     H69503  10.020   9.918   5.918 -4.9193  0.4709 -0.1274
  515MOL0     H69504   9.994  10.033   6.047 -0.2592  0.6475  0.6672
  515MOL0     H69505  11.061  10.188   5.511  2.9995  0.8637  1.8619
  515MOL0     H69506  11.265  10.290   5.389  0.4407  0.6214 -0.7828
  515MOL0     H69507  11.363  10.860   5.083 -1.2434 -1.1763 -1.7787
  515MOL0     H69508  11.538  10.884   4.936  0.4048  1.1745  3.6707
  515MOL0     H69509  10.731  10.789   5.904 -1.1972  0.0974  1.6552
  515MOL0     H69510  10.490  10.789   5.948 -0.5430  0.0368 -0.3139
  515MOL0     H69511  10.013  10.373   5.688 -2.3890 -0.0552 -0.5047
  515MOL0     H69512   9.781  10.364   5.772  0.1614 -0.6501  2.1763
  515MOL0     H69513   9.530  10.571   5.831 -1.3673 -0.3303  0.6838
  515MOL0     H69514   9.636  10.707   5.865 -1.3586  1.1765  1.3465
  515MOL0     H69515   9.438  10.749   5.994  2.3478  2.6511  2.0865
  515MOL0     H69516   9.567  10.695   6.099  0.8687 -2.5710 -0.2794
  515MOL0     H69517   9.454  10.459   6.090  2.2085 -0.8239 -1.8594
  515MOL0     H69518   9.330  10.523   5.990  1.8681  0.7486 -1.4145
  515MOL0     H69519   9.399  10.688   6.240  2.0853  0.0657 -1.5364
  515MOL0     H69520   9.239  10.671   6.156  0.7179 -2.4765 -1.8326
  515MOL0     H69521   9.240  10.365   6.448  5.0525 -0.2595  0.7513
  515MOL0     H69522   9.845  10.710   6.018 -0.5699  0.6236 -1.7342
  515MOL0     H69523  10.062  10.783   6.067 -0.2401  1.5196  0.1482
  515MOL0     H69524  10.204  10.684   6.012  1.6891 -0.1596 -3.0965
  515MOL0     H69525  10.149  10.825   5.916  1.2392 -1.5091 -1.6794
  516MOL0     O69526   7.517   8.686   2.973 -0.4815 -0.2485 -0.0728
  516MOL0     C69527   7.504   8.633   3.084 -0.3725 -0.8336 -0.3854
  516MOL0     O69528   7.611   8.587   3.161 -0.3387 -0.2916  0.2000
  516MOL0     C69529   7.730   8.563   3.098  0.2177  0.7749 -0.2806
  516MOL0     C69530   7.816   8.673   3.070  0.2497 -0.9954  0.8181
  516MOL0     C69531   7.947   8.647   3.017 -0.7500 -0.5904  0.7978
  516MOL0     C69532   8.000   8.523   2.991  0.1485  1.2367  0.3949
  516MOL0     O69533   8.126   8.498   2.936 -0.0545  0.0251 -0.3468
  516MOL0     C69534   8.224   8.442   3.022 -1.1681 -0.1985  0.0347
  516MOL0     C69535   8.368   8.466   2.964 -0.4885  0.4833  0.1602
  516MOL0     C69536   8.474   8.420   3.071 -0.2130  1.0024  0.2779
  516MOL0     C69537   8.616   8.475   3.036 -0.4996  0.1060 -0.1940
  516MOL0     C69538   8.728   8.415   3.115 -0.0444 -0.0373 -0.4909
  516MOL0     C69539   8.856   8.479   3.056 -0.6485 -0.1997  0.8829
  516MOL0     C69540   8.971   8.472   3.150 -0.6819  0.5762  0.5786
  516MOL0     C69541   9.100   8.516   3.077 -0.1604 -0.2765  0.5287
  516MOL0     N69542   9.227   8.506   3.151  0.8045 -0.4243  0.4147
  516MOL0     C69543   9.249   8.435   3.269  0.6045 -0.2538  0.8266
  516MOL0     C69544   9.381   8.450   3.285 -0.3152 -0.5507 -0.0728
  516MOL0     C69545   9.448   8.376   3.390 -0.0536 -0.2262 -0.3665
  516MOL0     C69546   9.527   8.467   3.481  0.0730 -0.2027  0.5211
  516MOL0     C69547   9.609   8.383   3.588 -0.3973 -0.0799 -0.1691
  516MOL0     C69548   9.681   8.477   3.685 -0.0627  0.4277 -0.5400
  516MOL0     O69549   9.761   8.403   3.779  0.5702  0.7989 -1.0336
  516MOL0     C69550   9.894   8.440   3.780 -0.2939  0.1629 -0.1035
  516MOL0     C69551   9.952   8.462   3.910 -0.3064  0.3806 -0.4098
  516MOL0     C69552  10.092   8.488   3.916  0.0252 -0.7344 -0.2820
  516MOL0     C69553  10.167   8.491   3.802 -0.4798  0.0645 -0.3975
  516MOL0     C69554  10.316   8.513   3.813  0.9044 -0.5224  0.2442
  516MOL0     O69555  10.388   8.477   3.702  0.0110 -0.0982  0.5033
  516MOL0     C69556  10.520   8.526   3.691 -0.5237  0.5045  0.4491
  516MOL0     C69557  10.622   8.439   3.694 -0.5139 -0.6585  1.0212
  516MOL0     C69558  10.749   8.483   3.671  0.5752  0.3708  0.3427
  516MOL0     C69559  10.781   8.618   3.642 -0.2251 -0.3298  0.2170
  516MOL0     O69560  10.905   8.672   3.614  0.0111  0.0973  0.0540
  516MOL0     C69561  11.027   8.601   3.611  0.4073 -0.1166  0.4116
  516MOL0     C69562  11.143   8.700   3.644 -0.2456  0.1011  0.4963
  516MOL0     C69563  11.168   8.781   3.515  0.6425 -0.4267 -0.8710
  516MOL0     C69564  11.268   8.714   3.423  0.6172 -0.6974  0.3499
  516MOL0     C69565  11.296   8.805   3.300  0.1057 -0.9906 -0.3078
  516MOL0     C69566  11.417   8.751   3.219  0.1302  0.3071  0.2917
  516MOL0     C69567  11.447   8.805   3.079 -0.1586  0.1500 -0.3504
  516MOL0     C69568  11.343   8.747   2.983 -0.0647 -0.3098  0.1376
  516MOL0    Cl69569  11.393   8.767   2.811 -0.1267 -0.2218 -0.1685
  516MOL0     C69570  10.674   8.710   3.637 -1.0122  0.2629 -0.8654
  516MOL0     C69571  10.542   8.666   3.662 -0.7575 -0.5817  0.0654
  516MOL0     O69572  10.361   8.570   3.914  0.4695 -0.0010  0.3474
  516MOL0     C69573  10.112   8.461   3.677  0.1156  0.0015  0.0242
  516MOL0     C69574   9.977   8.436   3.668  0.7049 -0.1070 -0.0534
  516MOL0     N69575   9.433   8.545   3.202 -0.4594 -0.2577  0.4141
  516MOL0     N69576   9.341   8.570   3.119 -0.6082 -0.0743 -0.2270
  516MOL0     C69577   7.917   8.417   3.031  0.1791 -0.5868  0.0618
  516MOL0     C69578   7.791   8.435   3.080  0.1736  0.8504  0.7314
  516MOL0     C69579   7.370   8.634   3.148 -0.0917  0.0964  0.1346
  516MOL0     C69580   7.358   8.550   3.259  0.0782  0.9509 -0.1115
  516MOL0     C69581   7.231   8.528   3.323 -0.3004  0.5937 -0.3470
  516MOL0     C69582   7.117   8.599   3.292 -0.1476  0.4887 -0.3021
  516MOL0     O69583   6.996   8.574   3.343 -0.0405  0.6182 -0.4414
  516MOL0     C69584   6.988   8.520   3.473  0.1463 -0.0642 -0.2307
  516MOL0     C69585   6.846   8.551   3.520 -0.3500  0.2899  0.0528
  516MOL0     C69586   6.822   8.482   3.653  0.1618  0.9935 -0.4500
  516MOL0     C69587   6.855   8.576   3.777  0.0197 -0.0763 -0.4984
  516MOL0     C69588   6.757   8.682   3.793  0.5888  0.3676 -0.3953
  516MOL0     C69589   6.690   8.777   3.822  0.3491  0.6549  0.4615
  516MOL0     C69590   7.130   8.671   3.171  0.5047  0.2314 -0.1448
  516MOL0     C69591   7.250   8.693   3.101  0.9646  0.1170  0.1076
  516MOL0     C69592   7.235   8.763   2.967 -0.5813  0.6283 -0.0943
  516MOL0     H69593   7.780   8.773   3.090  1.0510  0.0179 -2.2257
  516MOL0     H69594   8.016   8.729   2.999 -0.5034 -0.3676  2.5935
  516MOL0     H69595   8.219   8.493   3.119  0.2884 -2.3947  1.3710
  516MOL0     H69596   8.209   8.334   3.033 -1.4626 -0.3318 -1.5221
  516MOL0     H69597   8.367   8.575   2.960 -4.3813  0.5742  0.5672
  516MOL0     H69598   8.386   8.412   2.870  0.0961 -0.8694  1.0253
  516MOL0     H69599   8.487   8.311   3.071  0.2372  1.0437  1.4317
  516MOL0     H69600   8.446   8.456   3.170 -1.4423  0.9042 -0.0270
  516MOL0     H69601   8.638   8.466   2.929 -0.1026 -0.9133 -0.0338
  516MOL0     H69602   8.620   8.583   3.053  1.0893  0.0309  0.0940
  516MOL0     H69603   8.713   8.447   3.219 -4.2413  0.9745 -1.2331
  516MOL0     H69604   8.730   8.306   3.111  3.2048 -0.1163  0.6924
  516MOL0     H69605   8.882   8.419   2.969 -2.3475 -0.5038  0.5383
  516MOL0     H69606   8.840   8.586   3.037  0.9162 -0.0301  0.4030
  516MOL0     H69607   8.981   8.368   3.181 -2.4154 -0.2293 -1.3605
  516MOL0     H69608   8.956   8.534   3.239  1.1760  0.5443  0.9589
  516MOL0     H69609   9.114   8.444   2.995  0.2288 -0.2210  0.5413
  516MOL0     H69610   9.076   8.612   3.031  1.1633  0.0617  0.5044
  516MOL0     H69611   9.183   8.367   3.322 -1.0727 -1.3965 -2.4543
  516MOL0     H69612   9.375   8.330   3.458  1.0218  1.2916  1.9642
  516MOL0     H69613   9.515   8.306   3.339  3.5786  2.4033  0.3840
  516MOL0     H69614   9.599   8.518   3.417  1.3493 -1.4537  0.8989
  516MOL0     H69615   9.464   8.540   3.532  1.6941  0.4617  1.6650
  516MOL0     H69616   9.685   8.325   3.535 -1.4840 -2.0723  0.3307
  516MOL0     H69617   9.545   8.312   3.642  0.3846 -0.9592 -0.3864
  516MOL0     H69618   9.604   8.530   3.742 -1.0219 -1.5046  0.0615
  516MOL0     H69619   9.739   8.551   3.629 -1.8328  1.3423 -1.2449
  516MOL0     H69620   9.892   8.460   4.000 -2.5461 -0.4840 -1.8404
  516MOL0     H69621  10.140   8.504   4.012  1.7119 -0.0289 -1.1889
  516MOL0     H69622  10.611   8.333   3.715  0.5619 -0.4199  3.0168
  516MOL0     H69623  10.834   8.416   3.679  0.3191  0.0593  0.5162
  516MOL0     H69624  11.033   8.530   3.694 -0.1290 -0.2410  0.3491
  516MOL0     H69625  11.033   8.549   3.515 -1.4750  0.0098  0.1993
  516MOL0     H69626  11.111   8.760   3.729 -0.2648 -1.3063  1.5229
  516MOL0     H69627  11.229   8.642   3.681 -0.5534 -0.5299  0.2359
  516MOL0     H69628  11.072   8.803   3.468 -0.7899 -2.2366  1.0218
  516MOL0     H69629  11.200   8.883   3.541 -0.5355 -0.4113  0.5976
  516MOL0     H69630  11.222   8.620   3.392 -2.1264 -0.5278  3.3722
  516MOL0     H69631  11.354   8.699   3.489  1.4067  2.7636  0.3205
  516MOL0     H69632  11.313   8.906   3.340 -1.4248 -0.7801 -0.1229
  516MOL0     H69633  11.208   8.798   3.234 -0.3753  0.7022  0.0801
  516MOL0     H69634  11.511   8.766   3.273  1.5300 -1.2665 -1.5780
  516MOL0     H69635  11.400   8.643   3.209  0.9650  0.0754  1.2304
  516MOL0     H69636  11.546   8.771   3.048  0.2206  0.2024  0.7427
  516MOL0     H69637  11.449   8.914   3.064  3.3170  0.3173  0.4625
  516MOL0     H69638  11.334   8.639   3.000  3.2648 -0.8575 -0.9510
  516MOL0     H69639  11.244   8.792   2.997  0.5979  1.0265  0.6713
  516MOL0     H69640  10.691   8.814   3.608  1.9080  0.7921  2.0913
  516MOL0     H69641  10.454   8.729   3.664 -2.2506 -2.5860  0.4985
  516MOL0     H69642  10.165   8.458   3.582  2.4786  0.9205  1.2483
  516MOL0     H69643   9.944   8.413   3.568  4.0850 -2.3259 -0.8413
  516MOL0     H69644   7.949   8.314   3.025  1.8242 -0.0320 -2.3769
  516MOL0     H69645   7.726   8.351   3.104  0.5454  0.2889 -0.1986
  516MOL0     H69646   7.439   8.488   3.295 -1.4295 -2.5199 -2.1852
  516MOL0     H69647   7.228   8.451   3.399  1.6584 -0.4031 -1.1977
  516MOL0     H69648   7.054   8.572   3.543 -2.0365  0.5314  1.4959
  516MOL0     H69649   7.022   8.417   3.462  0.6370  0.0953 -0.2469
  516MOL0     H69650   6.785   8.511   3.438 -0.5550 -0.1088  0.3906
  516MOL0     H69651   6.820   8.657   3.531 -0.2637  0.2577  0.5940
  516MOL0     H69652   6.881   8.390   3.656  0.2357  0.9117 -2.6357
  516MOL0     H69653   6.714   8.467   3.667  0.6285 -0.9655  1.5889
  516MOL0     H69654   6.837   8.505   3.858 -0.6973 -1.1278 -1.5412
  516MOL0     H69655   6.960   8.607   3.782  0.6624 -2.0879 -0.5302
  516MOL0     H69656   6.628   8.863   3.838  0.5286  1.0463 -0.7860
  516MOL0     H69657   7.037   8.713   3.136 -1.4781 -2.0375  2.0759
  516MOL0     H69658   7.253   8.686   2.892  2.2487  1.2075 -0.0869
  516MOL0     H69659   7.134   8.801   2.950 -0.3624  0.3768 -2.1896
  516MOL0     H69660   7.299   8.850   2.955 -0.1747  0.5043  1.1033
  517MOL0     O69661   0.939   5.586   9.869 -0.5056  0.9943 -0.4881
  517MOL0     C69662   0.941   5.647   9.760 -0.0689 -0.4059 -0.7732
  517MOL0     O69663   1.049   5.684   9.696 -0.0972  0.2871 -0.1109
  517MOL0     C69664   1.185   5.663   9.742  0.7168 -0.2067  0.2947
  517MOL0     C69665   1.290   5.714   9.660 -0.5499 -0.4130  0.1757
  517MOL0     C69666   1.427   5.698   9.685  0.1374  0.7467 -0.2236
  517MOL0     C69667   1.466   5.627   9.801  0.7593 -0.3409  0.4241
  517MOL0     O69668   1.591   5.602   9.844  0.3074 -0.1123  0.4038
  517MOL0     C69669   1.697   5.619   9.753 -0.6215 -0.2944 -0.5062
  517MOL0     C69670   1.822   5.585   9.831  0.5624 -0.0439 -0.2947
  517MOL0     C69671   1.831   5.439   9.873 -0.7948 -0.6658 -0.6193
  517MOL0     C69672   1.970   5.391   9.885 -0.7550 -0.5261 -0.3677
  517MOL0     C69673   1.968   5.242   9.920 -0.3202 -0.1977  0.7189
  517MOL0     C69674   2.115   5.181   9.918 -0.3831  0.8602 -0.0360
  517MOL0     C69675   2.127   5.056  10.015 -0.3396  0.4190 -0.8159
  517MOL0     C69676   2.044   4.936   9.969  0.3467 -0.5226 -0.4139
  517MOL0     N69677   2.082   4.881   9.844 -0.5579  0.5999 -0.1099
  517MOL0     C69678   2.181   4.786   9.823  0.2922  0.3452  0.5354
  517MOL0     C69679   2.185   4.774   9.690 -0.4895 -1.2693 -0.9329
  517MOL0     C69680   2.282   4.684   9.609 -0.3629 -0.2379  0.8175
  517MOL0     C69681   2.221   4.540   9.579  0.0211 -0.8777  0.0346
  517MOL0     C69682   2.274   4.473   9.451 -0.1117  0.0180  0.1699
  517MOL0     C69683   2.422   4.456   9.454  0.0282  0.6515 -1.0719
  517MOL0     O69684   2.477   4.386   9.563 -0.5818  0.0234 -0.0542
  517MOL0     C69685   2.615   4.384   9.582 -0.3567 -0.4990  1.1174
  517MOL0     C69686   2.702   4.416   9.478 -0.3936  0.1717 -0.7447
  517MOL0     C69687   2.840   4.413   9.501 -0.5529 -0.0191  0.1851
  517MOL0     C69688   2.894   4.383   9.628  0.4388  0.1634  0.0987
  517MOL0     C69689   3.041   4.379   9.653  0.3349 -0.4269 -1.2735
  517MOL0     O69690   3.125   4.384   9.541 -0.0325  0.8679 -0.4634
  517MOL0     C69691   3.254   4.350   9.559 -0.0107  0.1932  0.6837
  517MOL0     C69692   3.299   4.238   9.636  0.3375  0.2804  0.0728
  517MOL0     C69693   3.438   4.214   9.648  0.1063  0.5387 -0.7948
  517MOL0     C69694   3.536   4.293   9.587 -0.1679  0.2531  0.2720
  517MOL0     O69695   3.667   4.265   9.611 -0.0123 -0.1268  0.2715
  517MOL0     C69696   3.746   4.365   9.677 -0.1105 -0.2992  0.2486
  517MOL0     C69697   3.858   4.301   9.751  0.5482 -0.0140 -0.6156
  517MOL0     C69698   3.995   4.292   9.679 -0.8625  0.2616 -0.1651
  517MOL0     C69699   4.082   4.182   9.743  0.6005 -0.0818 -0.2753
  517MOL0     C69700   4.228   4.188   9.709  0.5241  0.3088 -0.1193
  517MOL0     C69701   4.312   4.084   9.786 -0.3628  0.5829 -0.2241
  517MOL0     C69702   4.457   4.076   9.726  0.5802  1.1209 -0.4265
  517MOL0     C69703   4.552   4.018   9.830  0.6103  0.6414 -0.9186
  517MOL0    Cl69704   4.582   4.139   9.969  0.0065 -0.1555  0.7062
  517MOL0     C69705   3.495   4.391   9.505  0.2988 -0.9349 -0.1244
  517MOL0     C69706   3.357   4.421   9.485  0.3536  0.3436  0.1005
  517MOL0     O69707   3.075   4.369   9.771  0.4138 -0.4263 -0.2289
  517MOL0     C69708   2.802   4.342   9.729 -0.0796 -0.3056  0.9451
  517MOL0     C69709   2.664   4.345   9.708 -0.5662  0.2982  0.8734
  517MOL0     N69710   2.087   4.852   9.629 -0.2235  0.0951  0.3532
  517MOL0     N69711   2.028   4.910   9.728 -0.1149  0.1184  0.3165
  517MOL0     C69712   1.366   5.580   9.885 -0.2031 -0.1181 -0.1991
  517MOL0     C69713   1.229   5.589   9.853  0.3247  0.2306  0.1835
  517MOL0     C69714   0.805   5.701   9.710  0.5334 -0.7601 -1.0215
  517MOL0     C69715   0.694   5.679   9.790  0.1416 -0.0093  0.3199
  517MOL0     C69716   0.565   5.715   9.749 -0.5142  0.1453 -0.4039
  517MOL0     C69717   0.543   5.767   9.619 -0.7502 -0.6346 -0.0641
  517MOL0     O69718   0.427   5.812   9.564  0.5777  0.0251 -0.0556
  517MOL0     C69719   0.332   5.878   9.659  0.7931 -0.0844  0.3844
  517MOL0     C69720   0.241   5.976   9.585 -0.4400 -0.1927 -0.7921
  517MOL0     C69721   0.156   5.908   9.477  0.1953  0.8414 -0.2230
  517MOL0     C69722   0.071   6.023   9.413 -0.3938 -0.0928 -0.1845
  517MOL0     C69723   0.143   6.060   9.290 -0.4484 -1.1767 -0.0477
  517MOL0     C69724   0.184   6.106   9.193  0.2367 -0.4841  0.3125
  517MOL0     C69725   0.657   5.798   9.542  0.1713 -0.1688 -0.3208
  517MOL0     C69726   0.786   5.769   9.585 -1.2783  0.5743 -0.1943
  517MOL0     C69727   0.904   5.816   9.488 -0.5456  0.9169 -0.7069
  517MOL0     H69728   1.268   5.768   9.568  1.7684  0.6590  0.1772
  517MOL0     H69729   1.498   5.746   9.619 -1.1627  0.6358 -1.7662
  517MOL0     H69730   1.692   5.560   9.661 -0.6111 -0.1776 -0.5817
  517MOL0     H69731   1.708   5.724   9.723 -1.6056 -0.6343 -2.1816
  517MOL0     H69732   1.831   5.654   9.915 -0.4826  0.7496 -0.8045
  517MOL0     H69733   1.904   5.606   9.762 -0.7541  0.0141 -1.8977
  517MOL0     H69734   1.784   5.377   9.796 -0.3643 -4.2598  1.7482
  517MOL0     H69735   1.782   5.417   9.968  2.4184 -2.7025  0.7630
  517MOL0     H69736   2.030   5.403   9.794 -0.0511 -1.2652 -0.0142
  517MOL0     H69737   2.017   5.448   9.966 -0.9954 -2.1375  0.9622
  517MOL0     H69738   1.915   5.225  10.014 -3.1540 -1.4864 -0.9744
  517MOL0     H69739   1.907   5.198   9.841 -1.1074  0.6461  0.8412
  517MOL0     H69740   2.143   5.157   9.815  0.7825 -4.2349  1.1849
  517MOL0     H69741   2.190   5.256   9.946 -0.7684  0.5264  1.9925
  517MOL0     H69742   2.108   5.071  10.122  2.3108 -2.6556  0.2276
  517MOL0     H69743   2.231   5.025  10.014  0.3001  2.2853  0.9241
  517MOL0     H69744   2.060   4.861  10.047 -0.2757  0.0900  0.3152
  517MOL0     H69745   1.936   4.952   9.964  0.2328 -0.1518  1.9574
  517MOL0     H69746   2.247   4.734   9.892  2.5854 -1.2534 -2.5914
  517MOL0     H69747   2.297   4.734   9.513 -0.7724 -0.2489  0.7438
  517MOL0     H69748   2.379   4.679   9.659 -0.7945 -1.5805  1.5880
  517MOL0     H69749   2.252   4.480   9.665  0.7856 -0.3515  0.1382
  517MOL0     H69750   2.112   4.538   9.569  0.0498 -2.0099 -0.1827
  517MOL0     H69751   2.243   4.536   9.368 -0.9118  0.2709  0.6522
  517MOL0     H69752   2.234   4.372   9.436 -1.7227  0.6669 -0.0727
  517MOL0     H69753   2.469   4.555   9.453 -1.1439  1.2584  0.2249
  517MOL0     H69754   2.443   4.419   9.353  2.5518  2.3851 -1.2862
  517MOL0     H69755   2.675   4.461   9.383  1.4773  1.0083 -0.9434
  517MOL0     H69756   2.913   4.449   9.429  0.1710 -0.2050  0.8180
  517MOL0     H69757   3.226   4.172   9.682 -1.1788  0.3105 -2.1651
  517MOL0     H69758   3.471   4.131   9.710 -0.9015  1.1797  0.6443
  517MOL0     H69759   3.779   4.430   9.595  0.1279 -0.9646 -0.1859
  517MOL0     H69760   3.702   4.422   9.759  1.4464  0.3730  0.6639
  517MOL0     H69761   3.865   4.364   9.840 -0.9012  1.2325 -1.3457
  517MOL0     H69762   3.826   4.203   9.790  0.2666  1.1085  2.2246
  517MOL0     H69763   3.991   4.286   9.570 -0.1950  0.6369 -0.2166
  517MOL0     H69764   4.050   4.385   9.695 -1.3869  0.2172  2.3238
  517MOL0     H69765   4.041   4.082   9.724 -2.5396  1.0244  0.1642
  517MOL0     H69766   4.079   4.195   9.852 -2.5067  0.6562 -0.3495
  517MOL0     H69767   4.258   4.291   9.732 -2.9241  1.2701  0.5408
  517MOL0     H69768   4.239   4.180   9.600 -2.1456  4.1013 -0.8485
  517MOL0     H69769   4.321   4.097   9.894  2.5016 -2.3408  0.0722
  517MOL0     H69770   4.267   3.985   9.779  0.9674 -0.1657  1.2011
  517MOL0     H69771   4.492   4.177   9.701 -1.2903  1.5603 -1.4400
  517MOL0     H69772   4.458   4.011   9.638  1.8090  0.6573 -0.0984
  517MOL0     H69773   4.509   3.929   9.876  2.3074  0.0402 -0.4133
  517MOL0     H69774   4.643   3.996   9.774 -0.3794 -0.6504 -2.0719
  517MOL0     H69775   3.569   4.446   9.448  1.6612 -3.1797 -0.6340
  517MOL0     H69776   3.334   4.509   9.425 -2.5539 -0.1562  0.3301
  517MOL0     H69777   2.849   4.315   9.823  2.4550  2.5206  0.6809
  517MOL0     H69778   2.595   4.313   9.786 -2.7535  3.4823  0.4693
  517MOL0     H69779   1.391   5.534   9.980 -2.0340  0.1600  0.4637
  517MOL0     H69780   1.169   5.532   9.923  1.7622 -0.2590  1.0690
  517MOL0     H69781   0.703   5.644   9.892 -0.7036  1.7124  1.0239
  517MOL0     H69782   0.479   5.700   9.814 -0.7043  1.5079 -0.3082
  517MOL0     H69783   0.383   5.927   9.743  0.1455  2.5611 -0.6757
  517MOL0     H69784   0.260   5.800   9.687  0.7011 -0.5163 -0.9930
  517MOL0     H69785   0.309   6.042   9.532 -1.3748  1.9491  0.5305
  517MOL0     H69786   0.185   6.027   9.664  1.5325  0.0716  0.5097
  517MOL0     H69787   0.088   5.844   9.533  1.5449  0.5248  1.1184
  517MOL0     H69788   0.217   5.855   9.403  3.0160 -3.0897  4.3167
  517MOL0     H69789  -0.027   5.985   9.385  0.3125 -2.0659 -0.1029
  517MOL0     H69790   0.061   6.116   9.470 -2.2060  0.7318 -1.7174
  517MOL0     H69791   0.211   6.147   9.098 -3.4272 -0.1061 -0.7412
  517MOL0     H69792   0.647   5.849   9.447  3.0979 -0.6175 -0.9683
  517MOL0     H69793   0.874   5.855   9.391  1.2293 -1.5234 -2.3283
  517MOL0     H69794   0.968   5.878   9.552  1.7715 -1.3282 -0.7209
  517MOL0     H69795   0.971   5.733   9.467 -0.5005  0.6965  0.2425
  518MOL0     O69796   4.307   4.565  10.628 -0.6283 -0.0477  0.9693
  518MOL0     C69797   4.293   4.487  10.719 -0.3174  0.0886 -0.6312
  518MOL0     O69798   4.382   4.463  10.825  0.4130 -0.3328  0.1960
  518MOL0     C69799   4.496   4.530  10.851  0.4835 -0.6940 -0.4610
  518MOL0     C69800   4.590   4.463  10.931 -0.6490  0.3174  0.1578
  518MOL0     C69801   4.729   4.504  10.937 -0.2065 -0.0752 -0.2582
  518MOL0     C69802   4.756   4.637  10.887 -0.0120 -0.0301  0.7866
  518MOL0     O69803   4.885   4.688  10.893 -0.2328  0.0851  0.0635
  518MOL0     C69804   4.986   4.615  10.967  0.9342  0.5249  1.0882
  518MOL0     C69805   5.102   4.705  10.956 -1.0649 -0.0504 -0.0415
  518MOL0     C69806   5.219   4.645  11.037  0.1767  0.4363  0.3253
  518MOL0     C69807   5.352   4.701  10.985 -0.2871 -0.8251 -0.2210
  518MOL0     C69808   5.459   4.697  11.106  0.1573 -0.6140  0.4821
  518MOL0     C69809   5.604   4.743  11.068  0.1676 -0.6850 -0.1217
  518MOL0     C69810   5.681   4.648  10.977 -0.3132  1.9248  0.4951
  518MOL0     C69811   5.825   4.695  10.951  0.3013 -0.1717  0.4347
  518MOL0     N69812   5.899   4.624  10.843  0.5831 -0.5584 -0.2665
  518MOL0     C69813   5.849   4.515  10.775  0.0004 -0.6209 -0.9058
  518MOL0     C69814   5.939   4.483  10.678  0.8550  0.7503  0.3830
  518MOL0     C69815   5.925   4.365  10.575  0.5555  0.3974 -0.1264
  518MOL0     C69816   5.838   4.407  10.454  0.1229 -0.1348 -0.0301
  518MOL0     C69817   5.808   4.287  10.357 -0.2008 -0.1607 -0.4003
  518MOL0     C69818   5.704   4.333  10.267 -0.1855  0.2613 -0.2923
  518MOL0     O69819   5.732   4.464  10.219 -0.0807 -0.2223  0.4262
  518MOL0     C69820   5.820   4.488  10.110  0.2424  0.3520  0.5488
  518MOL0     C69821   5.871   4.387  10.020 -1.4605 -0.0866  0.4744
  518MOL0     C69822   5.970   4.416   9.927  0.0121  1.0890  0.1763
  518MOL0     C69823   6.025   4.541   9.915  0.1022 -0.7202 -0.3389
  518MOL0     C69824   6.140   4.572   9.823  0.0946  0.3383  0.4921
  518MOL0     O69825   6.175   4.704   9.797  0.3714 -0.6121  0.1934
  518MOL0     C69826   6.300   4.726   9.739 -0.5475  0.4755 -0.8599
  518MOL0     C69827   6.384   4.809   9.819  0.7489  0.0418 -1.3029
  518MOL0     C69828   6.513   4.841   9.775  0.3044 -0.0348 -0.4305
  518MOL0     C69829   6.564   4.799   9.653  0.4214  0.2290  0.6601
  518MOL0     O69830   6.695   4.830   9.634  0.2590 -0.3485 -0.4753
  518MOL0     C69831   6.753   4.792   9.506  0.0021  0.4276 -0.0200
  518MOL0     C69832   6.820   4.653   9.525 -0.9279 -0.1489  1.1668
  518MOL0     C69833   6.926   4.641   9.632  0.1934  0.6930 -0.1875
  518MOL0     C69834   6.973   4.502   9.653 -0.3156 -0.4435  0.1205
  518MOL0     C69835   7.101   4.510   9.748  0.7999 -0.1306  0.2135
  518MOL0     C69836   7.227   4.577   9.705  0.6354  0.2935  0.2340
  518MOL0     C69837   7.290   4.520   9.575  0.2791 -0.1670 -0.0023
  518MOL0     C69838   7.426   4.592   9.550 -0.0726  0.0212 -1.1793
  518MOL0    Cl69839   7.561   4.553   9.662  0.1530  0.3205 -0.3108
  518MOL0     C69840   6.486   4.720   9.572 -0.7561  0.2130  0.3559
  518MOL0     C69841   6.351   4.685   9.610 -0.2841  0.0339 -0.1759
  518MOL0     O69842   6.206   4.470   9.777 -0.0136 -0.9778 -0.4076
  518MOL0     C69843   5.966   4.647  10.000  0.3921  1.0768 -0.6722
  518MOL0     C69844   5.866   4.621  10.098  0.2047  0.4661  0.0995
  518MOL0     N69845   6.044   4.571  10.688  0.9067 -0.2065  0.2659
  518MOL0     N69846   6.020   4.654  10.790  0.3045  0.0561 -0.3628
  518MOL0     C69847   4.664   4.707  10.810  0.7347 -0.6101 -0.6420
  518MOL0     C69848   4.532   4.660  10.792 -1.0221 -0.2263 -0.3760
  518MOL0     C69849   4.162   4.417  10.706  0.2453 -0.2655  0.2585
  518MOL0     C69850   4.046   4.485  10.660 -0.5712  0.4110  0.0928
  518MOL0     C69851   3.929   4.410  10.636 -0.9053 -0.3383 -0.5888
  518MOL0     C69852   3.927   4.273  10.666 -0.5760 -0.3091 -0.5726
  518MOL0     O69853   3.814   4.204  10.675  0.0530  0.1774 -0.8613
  518MOL0     C69854   3.707   4.217  10.586 -0.5586 -0.5882  0.3850
  518MOL0     C69855   3.613   4.101  10.610  0.7545  0.0053 -0.3975
  518MOL0     C69856   3.482   4.118  10.537  0.6688  0.7465  0.5194
  518MOL0     C69857   3.360   4.174  10.617 -0.6360  0.1955 -0.6408
  518MOL0     C69858   3.243   4.202  10.523 -0.0351  0.6991 -0.2479
  518MOL0     C69859   3.146   4.227  10.453  0.0880 -0.4373 -0.4256
  518MOL0     C69860   4.042   4.211  10.719  1.0549  0.6325  0.3757
  518MOL0     C69861   4.159   4.280  10.733 -0.6067  0.6666  0.3741
  518MOL0     C69862   4.287   4.205  10.768  0.2498 -0.7593 -0.2409
  518MOL0     H69863   4.577   4.359  10.960  0.9051 -0.9257 -3.1290
  518MOL0     H69864   4.809   4.450  10.986 -0.4189 -1.0037 -0.9115
  518MOL0     H69865   4.954   4.597  11.070 -0.8965 -1.7824  0.2075
  518MOL0     H69866   5.007   4.513  10.935  1.0494  0.1779  2.2499
  518MOL0     H69867   5.082   4.802  11.004  0.1363  1.8568 -3.0813
  518MOL0     H69868   5.136   4.728  10.855 -2.5847 -1.3506 -0.8873
  518MOL0     H69869   5.220   4.536  11.028  1.3677  0.5864 -3.0276
  518MOL0     H69870   5.211   4.664  11.144  1.1779  1.1423  0.2992
  518MOL0     H69871   5.392   4.645  10.900 -1.0329  0.2601 -1.3228
  518MOL0     H69872   5.351   4.807  10.956 -1.1591 -0.6623  0.3789
  518MOL0     H69873   5.414   4.767  11.177  0.2215 -0.2785  0.1975
  518MOL0     H69874   5.464   4.594  11.140  0.4607 -0.4248  1.0120
  518MOL0     H69875   5.602   4.843  11.025  2.7943  0.0708  1.3019
  518MOL0     H69876   5.650   4.746  11.167 -3.4975  0.3889  1.7291
  518MOL0     H69877   5.626   4.631  10.884 -0.0401  1.2174  0.4564
  518MOL0     H69878   5.690   4.551  11.027  0.1939  1.5219 -0.3364
  518MOL0     H69879   5.827   4.801  10.923  1.0252 -0.1951  0.3935
  518MOL0     H69880   5.875   4.695  11.049 -1.2200  0.0207  1.2450
  518MOL0     H69881   5.753   4.465  10.785 -1.7897  2.8438  1.3528
  518MOL0     H69882   6.024   4.330  10.544  0.4029 -0.4947  0.3585
  518MOL0     H69883   5.880   4.277  10.621 -0.2442  0.3779 -0.9260
  518MOL0     H69884   5.743   4.444  10.494 -0.2335 -0.3056 -0.7057
  518MOL0     H69885   5.887   4.493  10.410 -0.1957  0.2693  0.3914
  518MOL0     H69886   5.774   4.193  10.402 -3.0958  0.6466 -0.6898
  518MOL0     H69887   5.899   4.252  10.307  0.1088 -0.1343  0.1364
  518MOL0     H69888   5.606   4.342  10.317  0.1082 -2.1669  0.8678
  518MOL0     H69889   5.691   4.253  10.193  2.4686  0.4742 -1.0886
  518MOL0     H69890   5.823   4.289  10.015 -1.9923  0.1579  0.7052
  518MOL0     H69891   6.021   4.335   9.875 -1.8411  0.5618 -0.9291
  518MOL0     H69892   6.349   4.842   9.916  1.6965  0.4504 -1.0935
  518MOL0     H69893   6.571   4.912   9.833  1.0851  0.6814 -2.0203
  518MOL0     H69894   6.679   4.768   9.429 -1.8832 -1.1938  2.1305
  518MOL0     H69895   6.832   4.864   9.485  0.9881 -1.0160 -1.4999
  518MOL0     H69896   6.740   4.579   9.533  0.9255 -2.1961  1.7542
  518MOL0     H69897   6.870   4.632   9.430  1.0836  0.8601  1.9364
  518MOL0     H69898   7.009   4.710   9.614 -0.6111  1.2008 -2.1528
  518MOL0     H69899   6.870   4.674   9.721  2.1975 -0.7163  1.7068
  518MOL0     H69900   7.000   4.460   9.555 -1.2747  0.6245 -0.6409
  518MOL0     H69901   6.898   4.438   9.700  1.3895 -2.1240  0.6596
  518MOL0     H69902   7.136   4.409   9.775  0.5771 -0.1237  0.5216
  518MOL0     H69903   7.074   4.558   9.842  0.3339 -4.1046  2.3404
  518MOL0     H69904   7.216   4.685   9.717  1.6555  0.5792 -1.0422
  518MOL0     H69905   7.296   4.537   9.780 -2.0780 -3.1686  1.1588
  518MOL0     H69906   7.226   4.536   9.488  2.0753 -2.0664 -1.8056
  518MOL0     H69907   7.310   4.412   9.577  0.4554 -0.2326 -2.4894
  518MOL0     H69908   7.446   4.586   9.443 -0.1339  0.8879 -1.2409
  518MOL0     H69909   7.409   4.699   9.564  1.4878  0.1749 -0.2049
  518MOL0     H69910   6.529   4.675   9.483 -3.7947  2.3429 -2.4323
  518MOL0     H69911   6.275   4.625   9.561 -1.2218  0.0231  1.2564
  518MOL0     H69912   5.999   4.750   9.988 -0.4013  1.2990 -1.0183
  518MOL0     H69913   5.848   4.689  10.181 -1.2201  0.4135 -0.1487
  518MOL0     H69914   4.686   4.803  10.766 -2.4832 -1.0430 -3.5824
  518MOL0     H69915   4.464   4.710  10.724 -1.1641  0.1657  0.0482
  518MOL0     H69916   4.045   4.592  10.641 -1.4816  0.6069  1.1192
  518MOL0     H69917   3.843   4.459  10.591 -0.9717 -0.0080 -0.1108
  518MOL0     H69918   3.739   4.207  10.482 -0.8048 -0.9311  0.3390
  518MOL0     H69919   3.662   4.314  10.610 -1.0786 -1.2378  2.1869
  518MOL0     H69920   3.584   4.094  10.715  0.4226  3.4466 -0.1355
  518MOL0     H69921   3.660   4.007  10.580  2.7699  0.3787  1.3798
  518MOL0     H69922   3.463   4.015  10.506  2.7612  0.8809 -1.4297
  518MOL0     H69923   3.494   4.176  10.445 -4.2056  1.5576  0.1488
  518MOL0     H69924   3.338   4.099  10.694  0.6686  1.0729  0.6285
  518MOL0     H69925   3.393   4.266  10.664  1.0314 -0.4122 -0.5700
  518MOL0     H69926   3.071   4.244  10.378  1.7431  0.6131 -1.9208
  518MOL0     H69927   4.041   4.108  10.756 -0.2994  2.1072  5.2514
  518MOL0     H69928   4.265   4.098  10.764  0.0928 -0.7085 -0.7686
  518MOL0     H69929   4.374   4.224  10.704  0.8017 -1.2491  0.3510
  518MOL0     H69930   4.320   4.225  10.870  0.6823 -1.1515 -0.2971
  519MOL0     O69931   7.310   3.461   7.685 -0.4861 -0.6495  0.0513
  519MOL0     C69932   7.393   3.389   7.745 -0.5719  0.9325  0.0604
  519MOL0     O69933   7.480   3.299   7.690  0.8521 -0.8255 -0.8793
  519MOL0     C69934   7.429   3.211   7.604 -0.2905 -0.4354 -0.1887
  519MOL0     C69935   7.300   3.190   7.564 -0.3988  0.1656  0.6577
  519MOL0     C69936   7.277   3.087   7.477  0.3881 -0.1472 -1.3778
  519MOL0     C69937   7.381   3.014   7.416  0.3282  0.0401 -0.1213
  519MOL0     O69938   7.354   2.931   7.311 -0.1990  1.0544  0.2031
  519MOL0     C69939   7.297   2.991   7.197  1.0607  0.0241  0.2187
  519MOL0     C69940   7.254   2.877   7.098 -0.6758 -0.6697  0.2076
  519MOL0     C69941   7.172   2.942   6.983 -0.2200  0.0369 -1.2567
  519MOL0     C69942   7.247   3.043   6.897  0.8445 -0.1717  0.5772
  519MOL0     C69943   7.183   3.053   6.760 -0.0905 -0.4132 -0.3416
  519MOL0     C69944   7.027   3.084   6.763  0.0479 -0.1263  0.7182
  519MOL0     C69945   6.951   3.104   6.632 -0.2711 -0.0398 -0.4589
  519MOL0     C69946   6.792   3.116   6.650  0.2326 -0.0797 -0.8110
  519MOL0     N69947   6.746   3.183   6.778 -1.2401  0.0487  0.4869
  519MOL0     C69948   6.769   3.306   6.823 -0.4230  0.4913  0.8677
  519MOL0     C69949   6.752   3.315   6.962  0.0141  0.5164  0.0491
  519MOL0     C69950   6.775   3.435   7.049  0.2742 -0.0625 -0.3796
  519MOL0     C69951   6.901   3.418   7.140 -0.3036 -0.1521 -0.1094
  519MOL0     C69952   7.028   3.406   7.066  0.5754 -0.8112 -0.3649
  519MOL0     C69953   7.147   3.434   7.157 -0.4548  0.5368 -0.0800
  519MOL0     O69954   7.266   3.423   7.079  0.1030 -0.2247  0.2276
  519MOL0     C69955   7.391   3.388   7.129  0.3738  0.2460  0.1543
  519MOL0     C69956   7.487   3.350   7.031  0.4611 -0.5002 -0.1849
  519MOL0     C69957   7.615   3.306   7.072 -0.6945 -0.1842  0.2780
  519MOL0     C69958   7.648   3.309   7.214  0.0482  0.9659 -0.3223
  519MOL0     C69959   7.788   3.259   7.249 -0.2432  0.8333 -0.6544
  519MOL0     O69960   7.856   3.200   7.148  0.1029 -0.0399 -0.1157
  519MOL0     C69961   7.969   3.124   7.167  0.8654  0.6609 -0.3357
  519MOL0     C69962   8.078   3.166   7.240 -0.1249  0.0723 -0.9855
  519MOL0     C69963   8.193   3.087   7.268 -0.6389 -0.9234  0.6634
  519MOL0     C69964   8.196   2.959   7.207 -0.1019 -0.5671 -0.8632
  519MOL0     O69965   8.305   2.876   7.226  0.0075  0.0027  0.1134
  519MOL0     C69966   8.397   2.908   7.331 -1.0241  0.3819 -0.6918
  519MOL0     C69967   8.500   2.793   7.343 -0.4168  0.4382  0.3039
  519MOL0     C69968   8.595   2.783   7.220  0.1064 -0.1805 -0.4529
  519MOL0     C69969   8.621   2.634   7.201  0.2640  0.4749  0.4678
  519MOL0     C69970   8.698   2.616   7.070  0.4265  0.2216  0.8813
  519MOL0     C69971   8.711   2.479   7.029  0.0028 -0.1510 -0.1305
  519MOL0     C69972   8.785   2.381   7.127 -0.1015 -0.5686  0.0494
  519MOL0     C69973   8.833   2.259   7.052  0.1458 -0.5936  0.0361
  519MOL0    Cl69974   8.940   2.157   7.149  0.3238  0.1033 -0.2474
  519MOL0     C69975   8.086   2.908   7.138  0.2116  0.6398 -0.1957
  519MOL0     C69976   7.975   2.996   7.117  0.2664  0.2437 -0.3244
  519MOL0     O69977   7.831   3.260   7.369  1.1997  0.3933 -0.5264
  519MOL0     C69978   7.552   3.361   7.311  0.2036  0.2977  0.8691
  519MOL0     C69979   7.427   3.399   7.264 -0.2333  0.1680  1.2047
  519MOL0     N69980   6.722   3.187   6.999  0.0148 -0.6722  0.3881
  519MOL0     N69981   6.715   3.115   6.890  0.4741 -0.0451  0.4486
  519MOL0     C69982   7.515   3.037   7.458  0.1915 -0.9651 -0.3638
  519MOL0     C69983   7.541   3.134   7.560  0.6977 -0.3653  0.3554
  519MOL0     C69984   7.404   3.390   7.892 -0.0589 -0.0708 -0.0116
  519MOL0     C69985   7.460   3.273   7.959 -0.1454 -0.1573 -0.5094
  519MOL0     C69986   7.455   3.261   8.096 -0.2628  0.1540  0.3944
  519MOL0     C69987   7.401   3.351   8.178  0.8623 -0.0039  0.0318
  519MOL0     O69988   7.378   3.312   8.313 -0.4536 -0.5039  0.1260
  519MOL0     C69989   7.288   3.391   8.396 -0.7051  0.2779 -0.3621
  519MOL0     C69990   7.284   3.333   8.533  0.4149 -0.1891  0.5887
  519MOL0     C69991   7.217   3.431   8.634  0.4469 -0.1752 -0.3482
  519MOL0     C69992   7.063   3.456   8.625  0.1685  0.5709 -0.1066
  519MOL0     C69993   6.985   3.328   8.622  0.4617 -0.4451  0.2122
  519MOL0     C69994   6.930   3.216   8.615  1.1641  0.0536 -0.3027
  519MOL0     C69995   7.336   3.459   8.109  0.6395 -0.1385  1.0831
  519MOL0     C69996   7.346   3.487   7.969 -0.8993  0.3109 -0.5361
  519MOL0     C69997   7.277   3.611   7.915 -0.1046  0.6735  0.3639
  519MOL0     H69998   7.218   3.256   7.593 -0.5782 -0.6026  1.9980
  519MOL0     H69999   7.180   3.059   7.437  0.1672 -2.4055  0.4850
  519MOL0     H70000   7.206   3.046   7.223  0.6489 -0.2184 -0.6964
  519MOL0     H70001   7.360   3.069   7.154 -0.3431  1.6714  1.0315
  519MOL0     H70002   7.190   2.807   7.153 -0.1333 -0.6248  0.9066
  519MOL0     H70003   7.342   2.824   7.060 -0.0156  0.2229  0.4531
  519MOL0     H70004   7.085   2.992   7.027  0.9106  1.4981 -0.6005
  519MOL0     H70005   7.133   2.860   6.921  0.9027 -0.1095 -1.7856
  519MOL0     H70006   7.245   3.133   6.959 -1.8214 -1.8963  3.2691
  519MOL0     H70007   7.349   3.005   6.891  0.2837 -1.6300 -0.3165
  519MOL0     H70008   7.230   3.135   6.704  1.0970 -1.0139 -0.2516
  519MOL0     H70009   7.204   2.967   6.696 -0.4794 -3.7848  3.7005
  519MOL0     H70010   6.989   2.993   6.810  0.4754 -0.0409  1.2384
  519MOL0     H70011   7.018   3.172   6.828  1.2589 -1.2233  2.4610
  519MOL0     H70012   6.979   3.029   6.556  1.1596  2.8025 -2.9374
  519MOL0     H70013   6.985   3.195   6.582  0.1854 -0.9709 -1.9205
  519MOL0     H70014   6.754   3.176   6.566 -3.4281 -0.3711  0.4411
  519MOL0     H70015   6.764   3.010   6.642 -0.8530  0.1024  0.3076
  519MOL0     H70016   6.820   3.385   6.768  1.5572 -1.7044 -0.6542
  519MOL0     H70017   6.801   3.526   6.994 -0.2906  0.1910 -0.2424
  519MOL0     H70018   6.684   3.459   7.106  0.7019  0.5720  0.0526
  519MOL0     H70019   6.909   3.511   7.197  1.7722  0.3214 -1.0665
  519MOL0     H70020   6.896   3.341   7.217  1.8138  1.7566  2.1280
  519MOL0     H70021   7.039   3.485   6.991  3.3077  0.1388  0.8976
  519MOL0     H70022   7.037   3.303   7.029 -3.4809 -2.9852  3.6640
  519MOL0     H70023   7.163   3.354   7.230  0.1153 -0.7042 -1.5020
  519MOL0     H70024   7.140   3.527   7.214  4.7778  1.0119  0.2151
  519MOL0     H70025   7.467   3.340   6.925  2.7260  0.1858 -0.7375
  519MOL0     H70026   7.681   3.283   6.989  0.4708  0.2674  1.0575
  519MOL0     H70027   8.090   3.254   7.302  2.1595 -2.8943  3.2753
  519MOL0     H70028   8.274   3.118   7.334  1.1015 -2.5625 -0.6163
  519MOL0     H70029   8.451   3.001   7.313 -2.1707  1.1761 -0.1593
  519MOL0     H70030   8.351   2.915   7.430 -0.2512 -0.0451 -0.2932
  519MOL0     H70031   8.561   2.819   7.429  0.8676  1.7425 -0.9532
  519MOL0     H70032   8.446   2.698   7.352 -0.6572  0.2974 -2.0847
  519MOL0     H70033   8.563   2.847   7.137  0.5660  0.0082 -0.4878
  519MOL0     H70034   8.695   2.822   7.242  0.8854 -2.3050  0.0875
  519MOL0     H70035   8.528   2.578   7.195 -0.8477  2.3144 -0.0714
  519MOL0     H70036   8.670   2.586   7.286 -0.0465 -1.5326 -0.4310
  519MOL0     H70037   8.798   2.656   7.089  0.8234 -0.5742  0.4947
  519MOL0     H70038   8.652   2.683   6.997 -3.6704  0.1607  3.0647
  519MOL0     H70039   8.613   2.436   7.009 -0.2137  0.2755  0.0044
  519MOL0     H70040   8.767   2.475   6.935  1.1652  2.2338  0.3784
  519MOL0     H70041   8.726   2.345   7.212  2.3071 -1.4320  1.4341
  519MOL0     H70042   8.877   2.427   7.163 -0.7092 -0.7143  1.9467
  519MOL0     H70043   8.751   2.191   7.028 -0.0925 -0.6497  0.9500
  519MOL0     H70044   8.882   2.290   6.960  1.4629  0.1084  0.9338
  519MOL0     H70045   8.098   2.806   7.102 -0.5297  1.2489 -2.3249
  519MOL0     H70046   7.891   2.971   7.053 -1.1032 -0.6609  1.7192
  519MOL0     H70047   7.573   3.347   7.417  0.0470 -1.7431  0.6659
  519MOL0     H70048   7.354   3.421   7.341 -0.9674 -1.0110  0.8761
  519MOL0     H70049   7.597   2.976   7.420 -0.8507 -1.6550 -1.6237
  519MOL0     H70050   7.639   3.163   7.597 -0.0942  1.6847  0.9877
  519MOL0     H70051   7.496   3.189   7.900  4.1029 -2.1072  4.1326
  519MOL0     H70052   7.478   3.168   8.147 -1.9766  0.4864  1.8861
  519MOL0     H70053   7.193   3.394   8.343  0.5260 -5.3640 -3.7652
  519MOL0     H70054   7.326   3.493   8.398  0.0828  0.0899  3.7450
  519MOL0     H70055   7.388   3.320   8.567  0.5742  2.7056  1.4352
  519MOL0     H70056   7.239   3.233   8.534  2.8141 -1.3613  1.3526
  519MOL0     H70057   7.273   3.526   8.629  1.9526 -0.9724  0.6688
  519MOL0     H70058   7.241   3.397   8.735 -3.3647  0.3999  0.8751
  519MOL0     H70059   7.018   3.519   8.703 -2.0750  2.4662 -2.7373
  519MOL0     H70060   7.043   3.510   8.532 -0.6667 -0.6412 -0.6529
  519MOL0     H70061   6.883   3.121   8.630  1.5947  0.2188  2.7270
  519MOL0     H70062   7.278   3.537   8.158 -1.8454  0.1862 -2.0124
  519MOL0     H70063   7.177   3.584   7.879  0.5977 -3.2551  0.8949
  519MOL0     H70064   7.264   3.681   7.998 -1.8201 -1.0723  1.6445
  519MOL0     H70065   7.347   3.662   7.848  0.1554 -0.0271  0.0935
  520MOL0     O70066   4.822   4.655   9.104 -0.0748 -0.2598 -0.3104
  520MOL0     C70067   4.736   4.596   9.040 -0.4892 -0.2435  0.0857
  520MOL0     O70068   4.712   4.613   8.906  0.3336  0.1175  0.3062
  520MOL0     C70069   4.793   4.681   8.824  0.3625 -0.6670  0.3500
  520MOL0     C70070   4.935   4.701   8.842 -0.5894  0.1137  0.7099
  520MOL0     C70071   5.010   4.783   8.759 -0.4411  0.3237 -0.4302
  520MOL0     C70072   4.944   4.860   8.664  0.0711 -0.3375 -0.3550
  520MOL0     O70073   5.015   4.938   8.587 -0.5937 -0.6467  0.1193
  520MOL0     C70074   4.988   4.951   8.440 -0.3268 -0.2960  0.4327
  520MOL0     C70075   5.121   4.949   8.367  0.5555 -0.3187  1.1955
  520MOL0     C70076   5.096   4.944   8.211 -0.7250 -1.2734 -0.4708
  520MOL0     C70077   5.229   4.934   8.139 -0.6410  0.3100 -0.2567
  520MOL0     C70078   5.216   4.999   8.004 -0.2566 -0.2399 -0.5327
  520MOL0     C70079   5.333   4.948   7.924 -0.5505 -0.5567 -0.0243
  520MOL0     C70080   5.358   5.026   7.793 -0.0792 -0.0229  0.1376
  520MOL0     C70081   5.489   4.966   7.728  0.1881 -0.5028 -0.8020
  520MOL0     N70082   5.534   5.074   7.634 -1.1451 -0.4005 -0.0577
  520MOL0     C70083   5.623   5.169   7.679  0.1474  0.6112 -0.3668
  520MOL0     C70084   5.676   5.219   7.565  0.7455  0.0658 -0.5118
  520MOL0     C70085   5.776   5.332   7.545 -0.0845  0.1448  0.1994
  520MOL0     C70086   5.923   5.270   7.544  0.1771 -0.9392 -0.2735
  520MOL0     C70087   6.028   5.364   7.476  0.4676 -0.7533  0.3495
  520MOL0     C70088   6.159   5.308   7.527 -0.0024  0.2289 -0.8567
  520MOL0     O70089   6.253   5.400   7.480 -0.6356  0.6817  0.0972
  520MOL0     C70090   6.386   5.368   7.504 -1.3209 -0.2467 -1.2989
  520MOL0     C70091   6.427   5.264   7.581 -0.5594  0.1508 -0.3213
  520MOL0     C70092   6.564   5.234   7.586 -0.1540 -0.0499 -0.1373
  520MOL0     C70093   6.669   5.320   7.539 -0.0267 -0.2888  1.4398
  520MOL0     C70094   6.811   5.280   7.541 -1.4277 -0.9129 -0.3785
  520MOL0     O70095   6.900   5.370   7.494  0.1607  0.2837 -0.2585
  520MOL0     C70096   7.030   5.327   7.485 -0.6043 -0.8973  0.0871
  520MOL0     C70097   7.119   5.336   7.596 -0.2875  0.1099  0.7731
  520MOL0     C70098   7.255   5.297   7.594  0.3724 -0.2748 -0.3218
  520MOL0     C70099   7.310   5.254   7.469  1.4644 -0.6629  0.2107
  520MOL0     O70100   7.441   5.227   7.472 -0.1125 -0.6783 -0.1289
  520MOL0     C70101   7.489   5.138   7.367 -0.2602  0.0096  0.0914
  520MOL0     C70102   7.631   5.086   7.405  0.3267 -0.2203 -0.2032
  520MOL0     C70103   7.699   4.983   7.309  0.0421 -0.1457  0.2744
  520MOL0     C70104   7.785   5.054   7.201 -0.0342  0.2567  0.3468
  520MOL0     C70105   7.861   4.950   7.125 -0.5206 -1.0088 -0.4408
  520MOL0     C70106   7.968   5.001   7.031 -0.3100 -0.2633 -0.6425
  520MOL0     C70107   8.071   4.890   6.976 -0.2146 -0.7093 -0.0239
  520MOL0     C70108   8.170   4.826   7.080 -0.6779  0.4738  0.4387
  520MOL0    Cl70109   8.256   4.950   7.179 -0.1389  0.4484 -0.0752
  520MOL0     C70110   7.219   5.241   7.357 -0.5171 -0.4814 -0.3745
  520MOL0     C70111   7.087   5.283   7.366  0.2228 -0.4540 -0.2110
  520MOL0     O70112   6.832   5.161   7.558 -0.4708  0.0966 -0.2559
  520MOL0     C70113   6.625   5.432   7.468  0.8077  0.7260  0.3580
  520MOL0     C70114   6.488   5.459   7.449  0.1162  0.2100 -0.7495
  520MOL0     N70115   5.627   5.138   7.465 -0.6752 -0.4091  0.4591
  520MOL0     N70116   5.541   5.046   7.505 -0.1851  0.4122  0.3065
  520MOL0     C70117   4.802   4.843   8.649 -0.5126  0.3682 -0.4099
  520MOL0     C70118   4.726   4.760   8.732  0.2243  0.6657 -0.5582
  520MOL0     C70119   4.634   4.516   9.110  0.1575 -0.1330 -0.2629
  520MOL0     C70120   4.545   4.446   9.018  0.3320  0.3798 -0.2311
  520MOL0     C70121   4.453   4.359   9.074 -0.1120 -0.6277 -0.5223
  520MOL0     C70122   4.448   4.342   9.213 -1.0873 -0.2168  1.1099
  520MOL0     O70123   4.343   4.270   9.248  0.0053  1.1227  0.1873
  520MOL0     C70124   4.266   4.302   9.364 -0.0695  0.5374 -0.3915
  520MOL0     C70125   4.160   4.409   9.345  0.0248 -0.7880  0.0580
  520MOL0     C70126   4.047   4.379   9.239 -0.3304 -0.4155  0.0460
  520MOL0     C70127   3.912   4.428   9.289  0.1545  0.6907  0.3855
  520MOL0     C70128   3.810   4.431   9.181  0.5455  0.2318 -0.0872
  520MOL0     C70129   3.717   4.425   9.104  0.0274  0.2031 -0.3814
  520MOL0     C70130   4.550   4.396   9.297  0.2381  0.0481 -0.9146
  520MOL0     C70131   4.639   4.492   9.249 -1.1790 -0.0050 -0.0626
  520MOL0     C70132   4.747   4.549   9.349  0.1775  0.3767  0.4303
  520MOL0     H70133   4.980   4.652   8.929 -2.1418 -2.4068  0.1908
  520MOL0     H70134   5.118   4.773   8.768 -0.4944  0.5328  0.5583
  520MOL0     H70135   4.929   4.872   8.394  2.0088 -0.6005 -2.3621
  520MOL0     H70136   4.945   5.051   8.423  1.0079  0.9775  3.6192
  520MOL0     H70137   5.163   4.851   8.393 -0.9818 -0.1768  4.7516
  520MOL0     H70138   5.173   5.041   8.393  1.2403  0.0018 -1.0319
  520MOL0     H70139   5.049   5.037   8.177  1.4356  0.1026  0.1065
  520MOL0     H70140   5.025   4.866   8.185  0.5493 -1.7068 -3.0134
  520MOL0     H70141   5.305   4.990   8.195  0.1662  1.4027 -2.3616
  520MOL0     H70142   5.247   4.826   8.127 -3.0674 -0.2671  0.6508
  520MOL0     H70143   5.115   4.978   7.969 -0.8468 -0.2432  1.1205
  520MOL0     H70144   5.229   5.108   8.011 -1.1950  0.1034 -2.9745
  520MOL0     H70145   5.423   4.950   7.986 -0.7542  0.7132  0.2613
  520MOL0     H70146   5.306   4.847   7.894 -0.0693 -0.8256  0.4300
  520MOL0     H70147   5.378   5.129   7.823  1.5844 -0.7082  1.5718
  520MOL0     H70148   5.266   5.028   7.734  0.2054  0.4329 -0.3038
  520MOL0     H70149   5.569   4.933   7.795  0.1500 -2.2791 -1.5686
  520MOL0     H70150   5.457   4.870   7.685  0.5409 -0.5151 -1.0453
  520MOL0     H70151   5.633   5.210   7.779 -0.2262 -1.8141  0.7396
  520MOL0     H70152   5.760   5.376   7.446 -2.1426  1.8935  1.2209
  520MOL0     H70153   5.774   5.410   7.622 -1.8464 -0.8877  1.2491
  520MOL0     H70154   5.948   5.271   7.650 -4.2713  4.9577  1.2744
  520MOL0     H70155   5.939   5.175   7.492  1.5352 -2.9651  3.4727
  520MOL0     H70156   6.000   5.467   7.502 -0.9794 -0.3028 -2.5784
  520MOL0     H70157   6.024   5.347   7.368 -1.8508 -3.3169  0.7358
  520MOL0     H70158   6.182   5.212   7.479 -3.3376 -0.0960 -2.1161
  520MOL0     H70159   6.165   5.299   7.635 -0.1541  1.1444 -0.7660
  520MOL0     H70160   6.363   5.200   7.640  1.4416 -0.3304  1.4735
  520MOL0     H70161   6.591   5.152   7.651 -0.1027  1.5340  1.9284
  520MOL0     H70162   7.092   5.367   7.696  2.2511  0.4919  1.4091
  520MOL0     H70163   7.319   5.310   7.681 -1.4893 -1.0262  1.2277
  520MOL0     H70164   7.414   5.061   7.350 -1.7031  1.5100 -0.6405
  520MOL0     H70165   7.490   5.185   7.268  3.4785 -3.3063 -1.7305
  520MOL0     H70166   7.701   5.169   7.395  2.6896 -2.0013  0.5678
  520MOL0     H70167   7.630   5.041   7.505 -2.3385  0.8648  0.3319
  520MOL0     H70168   7.757   4.917   7.374 -0.0682  0.3638  0.8975
  520MOL0     H70169   7.621   4.918   7.267 -0.9599  0.2188  1.5174
  520MOL0     H70170   7.848   5.132   7.245 -0.7876 -0.2319  2.4002
  520MOL0     H70171   7.714   5.099   7.131 -0.9524  0.2148  1.2226
  520MOL0     H70172   7.786   4.897   7.065 -0.2040 -4.1252  1.6637
  520MOL0     H70173   7.905   4.873   7.189 -0.7262  0.5452  1.6705
  520MOL0     H70174   7.931   5.067   6.952 -0.1565  1.3929  0.6060
  520MOL0     H70175   8.028   5.075   7.085 -0.9001  1.4423 -2.2000
  520MOL0     H70176   8.138   4.930   6.900  2.4161 -2.5945  1.1367
  520MOL0     H70177   8.017   4.811   6.924  0.1560 -1.2901  0.4490
  520MOL0     H70178   8.109   4.766   7.149 -0.6618 -2.0642 -1.6014
  520MOL0     H70179   8.242   4.757   7.034 -0.2820  1.1582  0.0115
  520MOL0     H70180   7.265   5.207   7.265  0.4259 -0.4335  0.0726
  520MOL0     H70181   7.016   5.263   7.286 -1.7882 -4.6982  2.2828
  520MOL0     H70182   6.689   5.514   7.438  2.4314  0.0183  1.7387
  520MOL0     H70183   6.449   5.544   7.394 -1.0305  0.0715 -0.1586
  520MOL0     H70184   4.755   4.900   8.570  0.5087  2.3043  0.3268
  520MOL0     H70185   4.621   4.734   8.726  0.1116  0.4762  1.4067
  520MOL0     H70186   4.560   4.446   8.911 -0.4080  2.0043 -0.3686
  520MOL0     H70187   4.386   4.308   9.005  1.7401 -1.3355 -1.9032
  520MOL0     H70188   4.336   4.323   9.445 -1.0858  0.5698  0.4882
  520MOL0     H70189   4.203   4.219   9.396  1.7128 -0.9148 -0.4864
  520MOL0     H70190   4.209   4.503   9.318  0.0571 -0.4796  1.1523
  520MOL0     H70191   4.118   4.414   9.446  0.2738  0.1113  0.1274
  520MOL0     H70192   4.040   4.273   9.216 -1.0874 -0.5315  0.7657
  520MOL0     H70193   4.070   4.428   9.144  0.4243  1.5234  1.1786
  520MOL0     H70194   3.861   4.367   9.364  1.7338 -2.4631 -0.9080
  520MOL0     H70195   3.934   4.532   9.317 -0.4636  1.9275 -3.2423
  520MOL0     H70196   3.637   4.431   9.032 -0.2753  2.3314  0.0515
  520MOL0     H70197   4.555   4.357   9.398 -1.6369  0.9837 -0.4073
  520MOL0     H70198   4.730   4.656   9.363 -1.8490 -0.0399  1.6132
  520MOL0     H70199   4.734   4.502   9.447  1.6040  1.3463  1.1093
  520MOL0     H70200   4.850   4.528   9.320 -0.0776  1.8610 -1.7264
  521MOL0     O70201   4.520  10.684   5.812 -0.4765  0.0040  0.3896
  521MOL0     C70202   4.517  10.698   5.930  0.1029  0.7464 -0.1964
  521MOL0     O70203   4.624  10.660   6.011 -0.0758 -0.3093  0.0222
  521MOL0     C70204   4.750  10.657   5.951  0.3238 -0.0008 -0.0522
  521MOL0     C70205   4.803  10.538   5.898  0.6718  0.3790 -0.0973
  521MOL0     C70206   4.929  10.539   5.842  0.1123  0.0951 -0.3355
  521MOL0     C70207   5.010  10.652   5.848 -0.7400  0.3564  0.0011
  521MOL0     O70208   5.133  10.624   5.793  0.4055 -0.3157 -0.4449
  521MOL0     C70209   5.214  10.744   5.791 -0.4322  0.2390  0.6492
  521MOL0     C70210   5.352  10.685   5.754 -0.0893 -0.1706 -0.3719
  521MOL0     C70211   5.471  10.792   5.728 -0.0521  0.2722 -0.5233
  521MOL0     C70212   5.449  10.901   5.624  0.2423  0.1637 -0.4407
  521MOL0     C70213   5.531  11.027   5.641  0.2471  0.1523 -0.1592
  521MOL0     C70214   5.681  11.016   5.603 -0.5076 -0.6874  0.5831
  521MOL0     C70215   5.713  10.985   5.453  0.2262 -0.1165  0.6015
  521MOL0     C70216   5.728  10.838   5.424  0.2701  0.4359  0.5269
  521MOL0     N70217   5.860  10.789   5.455  0.0789 -0.2302  0.2787
  521MOL0     C70218   5.895  10.714   5.562  0.3293 -0.3413 -0.2705
  521MOL0     C70219   6.032  10.704   5.556  0.5752 -0.1222 -0.3877
  521MOL0     C70220   6.133  10.623   5.630  0.1316  0.2790 -0.4708
  521MOL0     C70221   6.259  10.706   5.640 -0.3840 -0.2208  0.7711
  521MOL0     C70222   6.367  10.636   5.727 -0.7075 -0.3118 -0.6516
  521MOL0     C70223   6.335  10.645   5.882  0.2839 -0.0409  0.5749
  521MOL0     O70224   6.436  10.608   5.978 -0.0037  0.2553 -0.3241
  521MOL0     C70225   6.561  10.664   5.966 -0.8991  0.0742 -0.9539
  521MOL0     C70226   6.582  10.791   5.912 -0.1888  0.5032 -0.4528
  521MOL0     C70227   6.703  10.849   5.910 -0.1751  0.1067 -0.4081
  521MOL0     C70228   6.815  10.785   5.974  0.6282 -0.6430  0.7753
  521MOL0     C70229   6.942  10.844   5.972 -0.3085 -0.9499  0.2701
  521MOL0     O70230   6.950  10.970   5.922 -0.5232 -0.7064  0.1781
  521MOL0     C70231   7.073  11.032   5.906  0.2432 -0.6369  0.2231
  521MOL0     C70232   7.146  11.072   6.015 -0.2918 -0.5442  0.2912
  521MOL0     C70233   7.260  11.147   5.999 -0.1036  0.2911 -0.6770
  521MOL0     C70234   7.308  11.192   5.866  0.4013  0.3779  0.3122
  521MOL0     O70235   7.409  11.278   5.836 -0.3982  0.0349  0.3793
  521MOL0     C70236   7.449  11.359   5.949 -1.1832 -0.2838 -0.2392
  521MOL0     C70237   7.571  11.425   5.901 -0.4885 -0.6161 -0.3494
  521MOL0     C70238   7.688  11.322   5.878  0.1854  0.5496  0.5879
  521MOL0     C70239   7.818  11.385   5.831  0.8844  0.8439 -0.3709
  521MOL0     C70240   7.932  11.285   5.829 -0.1891  0.6725 -0.1498
  521MOL0     C70241   8.071  11.348   5.766 -0.1324 -0.1709  0.0713
  521MOL0     C70242   8.162  11.432   5.862 -1.0072  0.1731 -0.7389
  521MOL0     C70243   8.307  11.448   5.794  0.1869 -0.8291 -0.8123
  521MOL0    Cl70244   8.428  11.441   5.922 -0.1023 -0.2118  0.0259
  521MOL0     C70245   7.239  11.144   5.753  0.1491 -0.1408  0.2385
  521MOL0     C70246   7.121  11.068   5.775  0.5190 -0.2344  0.4764
  521MOL0     O70247   7.035  10.784   6.012  0.2512  0.3843 -0.1742
  521MOL0     C70248   6.795  10.660   6.034 -0.2627  0.4599 -0.3104
  521MOL0     C70249   6.663  10.610   6.039 -0.5502 -0.1210  0.3167
  521MOL0     N70250   6.065  10.762   5.435 -0.8575  0.4528  0.8353
  521MOL0     N70251   5.970  10.825   5.384 -0.3834 -0.1835  0.1830
  521MOL0     C70252   4.963  10.775   5.905 -0.4300  0.5552  0.5821
  521MOL0     C70253   4.832  10.770   5.962  0.4297  0.0789  0.2757
  521MOL0     C70254   4.395  10.760   5.991 -0.6776 -1.0040 -0.1620
  521MOL0     C70255   4.412  10.824   6.123  0.0390 -0.3549  0.6980
  521MOL0     C70256   4.308  10.903   6.179  0.0903 -0.2398 -0.0587
  521MOL0     C70257   4.187  10.907   6.118 -0.0808 -0.0457  0.5566
  521MOL0     O70258   4.098  10.987   6.183  0.4068 -0.1265 -0.1491
  521MOL0     C70259   3.952  10.988   6.144  0.2422  0.1845  0.2073
  521MOL0     C70260   3.919  11.098   6.034 -0.4169  0.8919 -0.9454
  521MOL0     C70261   3.979  11.238   6.071  0.0020  0.7585 -0.2905
  521MOL0     C70262   3.953  11.344   5.959 -0.1944 -0.2869 -0.3144
  521MOL0     C70263   4.007  11.466   6.008 -0.5191  0.1126  0.4649
  521MOL0     C70264   4.053  11.569   6.058  0.4676  0.2592  0.1544
  521MOL0     C70265   4.163  10.842   5.992 -0.0286 -0.1256 -0.3219
  521MOL0     C70266   4.269  10.770   5.932  0.5866  0.6137  1.1552
  521MOL0     C70267   4.233  10.698   5.808  0.3254  0.3030 -0.2312
  521MOL0     H70268   4.758  10.439   5.903  0.7106  0.3183 -0.8412
  521MOL0     H70269   4.972  10.454   5.790  0.9607  0.4509 -0.2266
  521MOL0     H70270   5.180  10.808   5.709  3.5637 -0.0518 -1.4966
  521MOL0     H70271   5.224  10.788   5.890  1.2594  1.0479  0.1537
  521MOL0     H70272   5.348  10.633   5.657  0.6997 -1.6925  0.3696
  521MOL0     H70273   5.377  10.615   5.834  1.1982 -0.7252 -1.2139
  521MOL0     H70274   5.565  10.739   5.708  0.1951  1.0581 -1.5669
  521MOL0     H70275   5.492  10.842   5.822  1.7481 -1.4278  0.0516
  521MOL0     H70276   5.455  10.857   5.524  0.6880 -0.8956  0.0361
  521MOL0     H70277   5.344  10.931   5.627 -0.6376 -2.6428 -0.4950
  521MOL0     H70278   5.479  11.101   5.580  1.9331  0.2345 -1.5778
  521MOL0     H70279   5.518  11.054   5.746 -0.2655 -2.1907  0.4314
  521MOL0     H70280   5.742  11.103   5.627 -0.1217 -0.2849 -1.6603
  521MOL0     H70281   5.715  10.932   5.665 -0.1895 -0.8501  0.1909
  521MOL0     H70282   5.792  11.047   5.409  0.1159 -0.7342 -0.5087
  521MOL0     H70283   5.624  11.014   5.396  2.7124  3.8941 -1.7254
  521MOL0     H70284   5.650  10.785   5.479  1.6567 -1.4717  0.7643
  521MOL0     H70285   5.707  10.819   5.318 -0.1685  0.6774  0.5707
  521MOL0     H70286   5.838  10.661   5.637  1.8780 -2.0230 -0.2108
  521MOL0     H70287   6.092  10.593   5.727  0.2737 -0.4597 -0.6352
  521MOL0     H70288   6.159  10.534   5.573 -0.8279 -0.6745  0.5388
  521MOL0     H70289   6.285  10.726   5.535 -4.1212 -1.7006 -0.6064
  521MOL0     H70290   6.235  10.798   5.692 -0.0182  0.9946 -1.1016
  521MOL0     H70291   6.462  10.686   5.708 -2.5872  3.7432 -0.4360
  521MOL0     H70292   6.384  10.530   5.706  2.4646  0.1330 -0.8677
  521MOL0     H70293   6.259  10.570   5.907 -0.4948  0.3840 -0.4743
  521MOL0     H70294   6.289  10.742   5.899 -0.4332 -0.5567  1.7106
  521MOL0     H70295   6.498  10.844   5.868 -1.2142 -0.1203  0.6794
  521MOL0     H70296   6.713  10.945   5.860  2.9738 -0.8336 -1.9179
  521MOL0     H70297   7.114  11.052   6.117 -0.5962  1.4440  0.6307
  521MOL0     H70298   7.308  11.166   6.094 -0.5648 -0.3999 -0.3000
  521MOL0     H70299   7.379  11.438   5.975  0.8847  1.1930  1.1701
  521MOL0     H70300   7.463  11.301   6.041  0.8778 -0.6768 -0.7430
  521MOL0     H70301   7.540  11.489   5.818 -2.5588  2.5607  2.5890
  521MOL0     H70302   7.616  11.497   5.970 -1.6235 -1.2878  1.1607
  521MOL0     H70303   7.705  11.257   5.964 -1.8060  1.5051  1.7575
  521MOL0     H70304   7.662  11.249   5.801  3.6691 -0.6751  0.3675
  521MOL0     H70305   7.855  11.468   5.891  2.2166 -1.1648  1.7577
  521MOL0     H70306   7.789  11.416   5.730 -1.6756  0.0400  0.0347
  521MOL0     H70307   7.903  11.198   5.770  3.7501 -1.6595  0.9802
  521MOL0     H70308   7.965  11.253   5.928 -1.2952  0.9683  0.3267
  521MOL0     H70309   8.125  11.261   5.729 -1.3099  0.0476 -2.3871
  521MOL0     H70310   8.042  11.404   5.676  1.1067  0.1527 -0.1405
  521MOL0     H70311   8.175  11.379   5.956  2.3838  0.2222 -1.0520
  521MOL0     H70312   8.113  11.528   5.877  0.1476  0.4277  1.8687
  521MOL0     H70313   8.332  11.377   5.714 -0.7993  1.5959 -3.4236
  521MOL0     H70314   8.306  11.549   5.751 -3.8454  1.3803  3.5653
  521MOL0     H70315   7.278  11.173   5.656  0.8446  1.1306  0.8692
  521MOL0     H70316   7.055  11.040   5.693 -0.1895  0.0988  0.9243
  521MOL0     H70317   6.878  10.607   6.080 -1.0582  0.0640  0.7104
  521MOL0     H70318   6.649  10.519   6.095 -1.0043 -0.5726 -0.5107
  521MOL0     H70319   5.025  10.863   5.920 -0.1148  0.5236 -0.4436
  521MOL0     H70320   4.781  10.851   6.012 -3.9067 -2.5882  0.7405
  521MOL0     H70321   4.505  10.810   6.178 -0.6689 -2.4482  1.4598
  521MOL0     H70322   4.329  10.955   6.271 -0.1589 -0.2549  0.0082
  521MOL0     H70323   3.886  11.015   6.227 -1.2407 -3.5439  0.4034
  521MOL0     H70324   3.919  10.890   6.110 -0.2037  0.2218  0.5301
  521MOL0     H70325   3.813  11.094   6.011 -0.1426 -0.6416 -2.0730
  521MOL0     H70326   3.972  11.068   5.943  0.6444 -2.0756  0.4813
  521MOL0     H70327   4.087  11.230   6.089 -0.2813 -0.7462  0.9231
  521MOL0     H70328   3.933  11.266   6.166  0.2016  0.0606  0.0172
  521MOL0     H70329   3.996  11.326   5.859  1.2068  1.5290 -0.0993
  521MOL0     H70330   3.845  11.361   5.952 -0.0566  0.3100 -1.3307
  521MOL0     H70331   4.079  11.665   6.097 -1.3310 -0.0964  2.3971
  521MOL0     H70332   4.065  10.848   5.947 -1.7129 -0.4965  2.9672
  521MOL0     H70333   4.263  10.755   5.720  1.6933  1.1525  0.7558
  521MOL0     H70334   4.282  10.600   5.803  3.7642  1.8607  0.5618
  521MOL0     H70335   4.125  10.685   5.797  0.3402  1.0975 -1.5582
  522MOL0     O70336   8.878   1.994   8.792  0.1363 -0.0437 -1.1536
  522MOL0     C70337   8.758   2.004   8.823  0.1781 -0.3858  0.7000
  522MOL0     O70338   8.684   2.108   8.794  0.4277 -0.1246 -0.1934
  522MOL0     C70339   8.737   2.213   8.724 -0.4884 -0.2235 -0.1664
  522MOL0     C70340   8.775   2.198   8.592  0.2304  0.2238 -0.2828
  522MOL0     C70341   8.804   2.315   8.509  0.2266 -0.0840  0.5578
  522MOL0     C70342   8.791   2.443   8.557 -0.3546 -0.2418 -0.2733
  522MOL0     O70343   8.827   2.546   8.470 -0.2481 -0.3234  0.4593
  522MOL0     C70344   8.795   2.686   8.505  0.2332  0.3119 -0.3583
  522MOL0     C70345   8.831   2.784   8.401 -0.6324  0.4111  0.2018
  522MOL0     C70346   8.972   2.780   8.346 -0.3608 -0.1602 -0.2725
  522MOL0     C70347   9.077   2.852   8.431  0.2190  0.3563  0.3019
  522MOL0     C70348   9.202   2.877   8.345  0.4146  0.1464  0.6680
  522MOL0     C70349   9.311   2.921   8.431  0.0990  0.2302  0.5985
  522MOL0     C70350   9.412   2.986   8.344  0.3204 -0.0701  0.7644
  522MOL0     C70351   9.561   3.016   8.392 -0.1765  0.6129 -0.1827
  522MOL0     N70352   9.551   3.065   8.526 -0.5129 -0.1147 -0.4890
  522MOL0     C70353   9.564   3.192   8.550  0.2075  0.1202 -0.2345
  522MOL0     C70354   9.561   3.203   8.681 -0.2240 -0.0322  0.4104
  522MOL0     C70355   9.556   3.328   8.754  0.1888  0.1037  0.1432
  522MOL0     C70356   9.675   3.358   8.850 -0.0428 -1.0564 -0.4948
  522MOL0     C70357   9.794   3.417   8.770  0.1005  0.0545 -0.3186
  522MOL0     C70358   9.913   3.437   8.869  0.5009  0.3307 -0.0983
  522MOL0     O70359  10.019   3.519   8.810  1.1194 -0.2684  0.8448
  522MOL0     C70360  10.124   3.538   8.891  0.1394  0.0226  0.1681
  522MOL0     C70361  10.139   3.492   9.019  0.0230 -0.4362  0.6666
  522MOL0     C70362  10.249   3.527   9.096 -0.6447  0.2387 -0.3433
  522MOL0     C70363  10.351   3.613   9.048 -0.6359  0.0959  0.2043
  522MOL0     C70364  10.461   3.666   9.133 -0.0333 -0.6544 -0.1522
  522MOL0     O70365  10.481   3.615   9.256 -0.1563  0.1101  0.2065
  522MOL0     C70366  10.562   3.669   9.347 -0.4133 -0.4122  0.8861
  522MOL0     C70367  10.514   3.700   9.474 -0.0951  0.5775 -0.5158
  522MOL0     C70368  10.595   3.755   9.574 -0.0055 -0.6467  0.1637
  522MOL0     C70369  10.731   3.768   9.547  0.1005 -0.0441 -0.4896
  522MOL0     O70370  10.816   3.808   9.647 -0.0469  0.0292 -0.0628
  522MOL0     C70371  10.922   3.721   9.693  0.3335  0.5874  0.1096
  522MOL0     C70372  10.974   3.764   9.827 -0.1564  0.1562  0.1032
  522MOL0     C70373  10.995   3.912   9.850  0.7437 -0.0097  0.4949
  522MOL0     C70374  10.993   3.929  10.004  0.4473 -0.3957  0.5251
  522MOL0     C70375  11.036   4.074  10.035 -0.5893  0.1481 -0.4292
  522MOL0     C70376  11.050   4.085  10.189 -0.5088  0.0767 -0.1695
  522MOL0     C70377  11.062   4.231  10.232  0.5201 -0.1773  0.1623
  522MOL0     C70378  10.928   4.312  10.226 -0.2448  0.2929  0.1457
  522MOL0    Cl70379  10.838   4.286  10.384  0.4408  0.2611  0.1111
  522MOL0     C70380  10.778   3.734   9.421 -0.0011 -0.4296  0.0846
  522MOL0     C70381  10.693   3.684   9.320  0.0406 -0.2934 -0.1558
  522MOL0     O70382  10.521   3.765   9.087 -0.1586  0.3734 -0.4346
  522MOL0     C70383  10.336   3.659   8.917  0.3286 -0.3586 -1.0981
  522MOL0     C70384  10.228   3.618   8.840  0.2049 -0.1276  0.3334
  522MOL0     N70385   9.558   3.078   8.739 -0.3637  0.3350 -0.2280
  522MOL0     N70386   9.544   2.994   8.641  0.1798  0.3427  0.3235
  522MOL0     C70387   8.750   2.455   8.695  0.0321  0.5367 -0.1755
  522MOL0     C70388   8.716   2.348   8.775 -1.0669  1.0039 -0.1904
  522MOL0     C70389   8.689   1.890   8.888 -0.2495 -0.1911 -0.1708
  522MOL0     C70390   8.562   1.857   8.840 -0.6081  0.7126  1.2090
  522MOL0     C70391   8.502   1.751   8.900  0.8889 -0.2274 -0.0473
  522MOL0     C70392   8.563   1.669   8.992 -0.0160  0.4881 -0.5532
  522MOL0     O70393   8.509   1.551   9.030 -0.1131 -0.0036 -0.2891
  522MOL0     C70394   8.435   1.465   8.945 -0.0813 -0.0726  0.1046
  522MOL0     C70395   8.478   1.317   8.954  0.2966  0.4128  0.6713
  522MOL0     C70396   8.387   1.242   9.054  0.4154 -0.7001 -0.3812
  522MOL0     C70397   8.249   1.195   9.002 -0.7132 -0.3287  0.1403
  522MOL0     C70398   8.175   1.123   9.101  0.9929 -0.5102  0.5304
  522MOL0     C70399   8.100   1.061   9.168 -0.0532  0.4783 -0.4886
  522MOL0     C70400   8.680   1.711   9.045 -0.5151 -0.2253 -0.2073
  522MOL0     C70401   8.744   1.823   9.000 -0.0712 -0.8509 -0.2275
  522MOL0     C70402   8.862   1.870   9.082 -0.5233  0.3722 -0.1537
  522MOL0     H70403   8.767   2.100   8.546  2.0910 -0.1571  0.1136
  522MOL0     H70404   8.821   2.299   8.403  1.1436 -2.5076  0.9993
  522MOL0     H70405   8.687   2.697   8.523  0.6661  3.5606  0.9810
  522MOL0     H70406   8.834   2.713   8.603 -0.2740 -0.6924  0.1353
  522MOL0     H70407   8.803   2.886   8.432 -1.8028  0.2425 -0.2283
  522MOL0     H70408   8.761   2.753   8.323 -0.5239 -0.7993  0.5710
  522MOL0     H70409   8.962   2.836   8.252 -1.7695 -0.3389 -0.2412
  522MOL0     H70410   9.002   2.680   8.315 -2.7825 -1.4203  1.1935
  522MOL0     H70411   9.041   2.947   8.473  1.1092 -0.1433  2.2832
  522MOL0     H70412   9.107   2.788   8.514 -0.6886  0.0509  0.4036
  522MOL0     H70413   9.228   2.790   8.284 -1.8069  1.4982 -2.4947
  522MOL0     H70414   9.174   2.953   8.271 -0.3489 -0.6753  0.0965
  522MOL0     H70415   9.271   2.990   8.506 -5.0537 -0.3690 -1.2000
  522MOL0     H70416   9.355   2.830   8.474 -1.6721 -1.1108 -0.2909
  522MOL0     H70417   9.358   3.075   8.310 -0.4933 -0.7633  0.1728
  522MOL0     H70418   9.424   2.927   8.253 -1.3046  0.6875  0.0206
  522MOL0     H70419   9.626   2.929   8.383  2.5229  2.3437  1.1915
  522MOL0     H70420   9.609   3.091   8.329  1.1505  0.8507  1.0536
  522MOL0     H70421   9.567   3.285   8.493 -0.6123 -0.1350 -0.7086
  522MOL0     H70422   9.526   3.412   8.691 -1.6013 -0.3317  0.3580
  522MOL0     H70423   9.467   3.308   8.816  1.6033 -1.9467  1.6723
  522MOL0     H70424   9.655   3.429   8.930 -0.0691 -1.8882  0.2478
  522MOL0     H70425   9.712   3.268   8.900  2.3549 -0.7904 -1.6152
  522MOL0     H70426   9.766   3.509   8.718 -2.5888 -0.9729 -0.8549
  522MOL0     H70427   9.830   3.350   8.692  1.5113  1.0049 -0.5114
  522MOL0     H70428   9.952   3.344   8.911  2.9890  1.3153 -0.0642
  522MOL0     H70429   9.887   3.498   8.956  0.6136 -0.2877  0.3752
  522MOL0     H70430  10.058   3.437   9.065 -1.7930  2.0009  0.5731
  522MOL0     H70431  10.249   3.480   9.195  0.9977 -0.6892 -0.7553
  522MOL0     H70432  10.410   3.675   9.494 -0.1079 -1.3244 -2.5534
  522MOL0     H70433  10.541   3.781   9.665  3.3803 -0.4554  2.3112
  522MOL0     H70434  10.894   3.616   9.684  0.3993  0.7457 -3.2852
  522MOL0     H70435  11.013   3.738   9.635  0.7539  0.9697  0.8621
  522MOL0     H70436  10.904   3.741   9.908  1.2417 -0.1100  1.2904
  522MOL0     H70437  11.066   3.710   9.853  0.2402  1.0280  0.5927
  522MOL0     H70438  11.093   3.936   9.809 -0.4788  1.6579 -1.7279
  522MOL0     H70439  10.926   3.983   9.803  2.3751  1.4633  0.2094
  522MOL0     H70440  11.062   3.853  10.041 -1.2725 -3.5775 -2.1797
  522MOL0     H70441  10.894   3.909  10.048  1.4936 -2.1205  2.2299
  522MOL0     H70442  10.971   4.156  10.002  1.6603  1.7111 -1.1976
  522MOL0     H70443  11.134   4.101   9.996  0.9734 -2.0911  1.6244
  522MOL0     H70444  10.963   4.039  10.237  0.7124 -1.2922  0.8533
  522MOL0     H70445  11.136   4.026  10.224  0.5763  2.2796  1.1300
  522MOL0     H70446  11.143   4.273  10.172  2.2326 -1.4988  1.4603
  522MOL0     H70447  11.102   4.225  10.334 -4.2802 -0.4699  2.2810
  522MOL0     H70448  10.953   4.416  10.203  0.4647  0.6008  2.1804
  522MOL0     H70449  10.866   4.280  10.141  2.0870  0.8336 -1.8855
  522MOL0     H70450  10.884   3.749   9.402 -0.6611  1.2445 -3.1098
  522MOL0     H70451  10.737   3.668   9.222  3.9450 -1.8043  1.6043
  522MOL0     H70452  10.417   3.716   8.872  0.6590  0.0589 -0.0030
  522MOL0     H70453  10.219   3.665   8.743 -1.9061 -1.3597 -0.1450
  522MOL0     H70454   8.752   2.550   8.749 -0.6926  0.5071 -0.0907
  522MOL0     H70455   8.677   2.360   8.876 -1.0533  1.7535 -0.2720
  522MOL0     H70456   8.522   1.905   8.752 -0.0871  0.4271  0.8090
  522MOL0     H70457   8.399   1.722   8.882  0.3955  0.1864  1.9077
  522MOL0     H70458   8.451   1.495   8.841 -1.9828  2.3488  0.4309
  522MOL0     H70459   8.329   1.490   8.954  0.2386  2.6224 -2.2405
  522MOL0     H70460   8.576   1.311   9.002 -0.7150  0.3596  2.8826
  522MOL0     H70461   8.476   1.277   8.852  1.9100  2.3464 -0.1843
  522MOL0     H70462   8.366   1.314   9.134 -0.0711 -0.3309 -0.8275
  522MOL0     H70463   8.444   1.154   9.085  1.0224  0.3210  1.5605
  522MOL0     H70464   8.181   1.274   8.968  1.4320  1.2614 -0.6510
  522MOL0     H70465   8.269   1.131   8.915 -1.0652  0.2050 -0.3449
  522MOL0     H70466   8.020   1.031   9.232  1.5595 -0.9132  1.0025
  522MOL0     H70467   8.731   1.657   9.124 -0.5903  0.0410  0.0228
  522MOL0     H70468   8.917   1.784   9.122 -1.2263 -0.5321 -1.0850
  522MOL0     H70469   8.936   1.932   9.031  0.8452 -0.9885  0.0847
  522MOL0     H70470   8.836   1.929   9.170  3.6260  1.0921  0.7729
  523MOL0     O70471   0.522   2.727   3.024  0.2911 -0.0298  0.2729
  523MOL0     C70472   0.564   2.658   2.931  0.1833 -0.9897 -0.5006
  523MOL0     O70473   0.693   2.666   2.890  0.2562 -0.3563  0.2860
  523MOL0     C70474   0.790   2.738   2.960  0.0160  0.0499 -0.7354
  523MOL0     C70475   0.903   2.779   2.891 -0.2537 -0.0533 -0.3835
  523MOL0     C70476   0.993   2.865   2.960 -0.5259  0.2310  0.0389
  523MOL0     C70477   0.983   2.892   3.099  0.3313 -0.4162 -0.5969
  523MOL0     O70478   1.082   2.979   3.147  0.0933  0.3609  0.0327
  523MOL0     C70479   1.068   3.055   3.265 -0.0548  0.1166 -0.2828
  523MOL0     C70480   1.187   3.159   3.286 -0.2372  0.0228 -0.2930
  523MOL0     C70481   1.323   3.097   3.300 -0.4446  0.2974  0.5852
  523MOL0     C70482   1.426   3.211   3.294  0.8962 -0.4421  0.0452
  523MOL0     C70483   1.562   3.144   3.318  0.5094  0.6048 -0.0889
  523MOL0     C70484   1.665   3.222   3.246 -0.0228  0.0960 -0.1180
  523MOL0     C70485   1.799   3.164   3.292 -0.2521 -1.0097 -0.9810
  523MOL0     C70486   1.919   3.232   3.221 -0.5200 -0.1604  0.0369
  523MOL0     N70487   2.046   3.200   3.292  0.2009  0.3327  0.0703
  523MOL0     C70488   2.089   3.258   3.405 -0.6767  1.3664  0.1629
  523MOL0     C70489   2.196   3.189   3.431 -0.5765 -0.2908  0.9778
  523MOL0     C70490   2.285   3.241   3.543  0.7284 -0.0860  0.0349
  523MOL0     C70491   2.371   3.367   3.509  0.0739 -1.2688  0.3514
  523MOL0     C70492   2.472   3.352   3.400 -0.8300  0.1259  0.4739
  523MOL0     C70493   2.564   3.228   3.418  0.3053  0.0870 -0.3361
  523MOL0     O70494   2.643   3.223   3.536 -0.3073  0.2902 -0.9997
  523MOL0     C70495   2.780   3.205   3.543  0.4317 -0.2957  0.6028
  523MOL0     C70496   2.859   3.175   3.435 -0.0422 -0.5305  0.1752
  523MOL0     C70497   2.994   3.175   3.438 -0.1988 -0.0727 -0.0999
  523MOL0     C70498   3.060   3.197   3.562  0.4464 -0.0270 -0.3522
  523MOL0     C70499   3.205   3.182   3.571  0.6435 -0.1272 -0.3985
  523MOL0     O70500   3.257   3.215   3.697  0.8416 -0.9646  0.4985
  523MOL0     C70501   3.384   3.253   3.715 -0.3363 -0.0978 -0.0203
  523MOL0     C70502   3.431   3.358   3.639  0.1127  0.2805  0.6911
  523MOL0     C70503   3.573   3.374   3.629 -0.5592 -0.3765 -1.3072
  523MOL0     C70504   3.668   3.299   3.693 -0.1017  0.4821  0.2634
  523MOL0     O70505   3.803   3.327   3.682 -0.2860  0.4884 -0.5919
  523MOL0     C70506   3.898   3.219   3.711  0.2785 -0.1879  0.5092
  523MOL0     C70507   4.001   3.205   3.595 -0.5619 -0.0330 -0.5758
  523MOL0     C70508   3.959   3.103   3.487 -0.2363 -0.6486  0.4247
  523MOL0     C70509   3.862   3.157   3.383  0.5795  1.0292  0.9337
  523MOL0     C70510   3.939   3.222   3.261 -0.3266  0.4763  0.0058
  523MOL0     C70511   3.846   3.306   3.165  0.0779 -0.1513 -0.4803
  523MOL0     C70512   3.925   3.348   3.042 -0.1139  0.1261  0.1218
  523MOL0     C70513   3.827   3.395   2.937 -1.3164 -0.6458 -0.0554
  523MOL0    Cl70514   3.923   3.459   2.800 -0.0078 -0.4795  0.1458
  523MOL0     C70515   3.617   3.191   3.766  0.2416 -0.2910 -0.0382
  523MOL0     C70516   3.481   3.171   3.781  0.7248  0.2550  0.4508
  523MOL0     O70517   3.272   3.131   3.484 -0.0098 -0.1941 -0.1025
  523MOL0     C70518   2.979   3.227   3.674 -0.4961 -0.2846 -0.5140
  523MOL0     C70519   2.843   3.225   3.661 -0.5093  0.0332 -0.1093
  523MOL0     N70520   2.215   3.078   3.348  0.3816 -0.2770  0.1340
  523MOL0     N70521   2.109   3.087   3.270  1.1077  0.8978  0.1035
  523MOL0     C70522   0.878   2.847   3.176 -0.0522  0.5918  0.7037
  523MOL0     C70523   0.778   2.779   3.106 -0.5087 -0.4241 -0.1393
  523MOL0     C70524   0.477   2.563   2.864  0.1274 -0.3205  0.1646
  523MOL0     C70525   0.530   2.479   2.772 -0.6395  1.1047 -0.5721
  523MOL0     C70526   0.461   2.384   2.695  0.3508  0.4922  0.2692
  523MOL0     C70527   0.323   2.375   2.709 -0.2961  0.3592  0.0707
  523MOL0     O70528   0.249   2.281   2.641 -0.4278 -0.1270  0.4243
  523MOL0     C70529   0.104   2.277   2.655  0.6313 -0.2086  0.2222
  523MOL0     C70530   0.035   2.183   2.555 -0.4340 -0.0978  0.6976
  523MOL0     C70531   0.047   2.038   2.590 -0.0943  0.6329  0.5543
  523MOL0     C70532  -0.068   1.975   2.661 -0.6999  0.4796  0.0353
  523MOL0     C70533  -0.026   1.842   2.703  0.0180  0.2572  0.0941
  523MOL0     C70534   0.006   1.726   2.713  0.0855  0.3711 -0.1951
  523MOL0     C70535   0.267   2.456   2.808 -0.0865  0.1631 -0.1807
  523MOL0     C70536   0.334   2.556   2.884 -0.1053 -1.1504  0.0372
  523MOL0     C70537   0.254   2.650   2.977 -0.4492  0.5149  0.6655
  523MOL0     H70538   0.917   2.764   2.785 -1.0003 -0.3205 -0.4492
  523MOL0     H70539   1.071   2.917   2.906 -0.9925  3.6388  2.3291
  523MOL0     H70540   0.971   3.105   3.259  0.0230  0.2279 -0.7155
  523MOL0     H70541   1.059   2.998   3.357  2.1724  1.6419  0.9828
  523MOL0     H70542   1.158   3.217   3.374 -0.7240  0.3250 -0.6489
  523MOL0     H70543   1.195   3.231   3.204 -2.0463  0.2460 -0.2951
  523MOL0     H70544   1.349   3.036   3.213  0.2116 -1.0181  1.6706
  523MOL0     H70545   1.320   3.033   3.389 -3.4891 -0.1999  0.2319
  523MOL0     H70546   1.416   3.268   3.201 -1.9275 -1.5541 -0.4539
  523MOL0     H70547   1.416   3.277   3.380  1.5119 -0.7821  0.3809
  523MOL0     H70548   1.587   3.153   3.424  4.7402 -0.3574 -0.8118
  523MOL0     H70549   1.569   3.035   3.307  2.2572  0.6636  0.1661
  523MOL0     H70550   1.657   3.208   3.138 -1.8099 -1.0410  0.1255
  523MOL0     H70551   1.652   3.331   3.250 -0.6010  0.1912 -2.8284
  523MOL0     H70552   1.808   3.055   3.282  0.3417 -1.6945  4.2155
  523MOL0     H70553   1.795   3.198   3.396 -4.6805  3.4347 -2.2420
  523MOL0     H70554   1.932   3.188   3.121  0.3551 -1.2226  0.5965
  523MOL0     H70555   1.913   3.340   3.206  2.9106 -0.0084 -1.0661
  523MOL0     H70556   2.051   3.344   3.460 -0.4051  1.9286 -0.5049
  523MOL0     H70557   2.222   3.268   3.629 -0.7617 -1.2876 -0.6299
  523MOL0     H70558   2.353   3.163   3.580  0.8980 -0.0416 -0.1862
  523MOL0     H70559   2.305   3.452   3.489  1.1761 -0.6615 -0.8331
  523MOL0     H70560   2.425   3.408   3.595 -0.3284  1.3924 -0.5957
  523MOL0     H70561   2.524   3.448   3.389 -1.2930  0.2061 -1.4820
  523MOL0     H70562   2.425   3.331   3.303 -2.3347 -2.4999  1.6825
  523MOL0     H70563   2.625   3.226   3.327  2.2021  0.4613  0.8748
  523MOL0     H70564   2.495   3.143   3.413 -3.3576  2.8388 -0.5286
  523MOL0     H70565   2.820   3.165   3.334  0.0963  0.3597  0.0231
  523MOL0     H70566   3.048   3.152   3.347 -0.0183 -1.5270  0.3574
  523MOL0     H70567   3.354   3.419   3.593  0.1128  0.1581  0.5253
  523MOL0     H70568   3.607   3.451   3.559 -2.6583 -0.2133 -2.2239
  523MOL0     H70569   3.960   3.241   3.799  1.8638 -0.9669 -0.3651
  523MOL0     H70570   3.859   3.117   3.718  0.9518 -0.4826  0.0282
  523MOL0     H70571   4.017   3.301   3.546  1.0256  1.2838  2.3030
  523MOL0     H70572   4.093   3.177   3.647 -0.8270  1.8008  0.9802
  523MOL0     H70573   4.051   3.066   3.441 -0.2313 -0.0812 -0.0370
  523MOL0     H70574   3.932   3.008   3.532 -0.0311 -1.4620 -1.1098
  523MOL0     H70575   3.792   3.229   3.425 -1.0823 -0.1758  0.3455
  523MOL0     H70576   3.794   3.082   3.341  0.5867  2.2337 -1.4203
  523MOL0     H70577   3.990   3.140   3.210 -0.4162  0.4195  0.0069
  523MOL0     H70578   4.022   3.278   3.305  0.6558  0.5822 -1.9093
  523MOL0     H70579   3.760   3.245   3.136  1.5293 -1.4022 -2.3714
  523MOL0     H70580   3.806   3.400   3.206 -1.7610 -1.9506  2.2579
  523MOL0     H70581   3.971   3.255   3.006  0.4326 -0.9384  3.3163
  523MOL0     H70582   4.001   3.419   3.074 -0.4540  2.9687 -4.4721
  523MOL0     H70583   3.762   3.313   2.904  0.1257 -2.1091  0.6223
  523MOL0     H70584   3.765   3.469   2.989 -0.1477  0.9251 -0.8222
  523MOL0     H70585   3.683   3.133   3.830 -0.3467 -0.0263  0.8322
  523MOL0     H70586   3.453   3.088   3.846  2.4106 -1.3842 -0.8100
  523MOL0     H70587   3.017   3.253   3.772  1.8617  0.3244 -1.5338
  523MOL0     H70588   2.768   3.245   3.738 -0.8060  0.3723 -0.4819
  523MOL0     H70589   0.868   2.858   3.283  0.9939 -0.9587  0.9861
  523MOL0     H70590   0.693   2.757   3.169 -0.8365 -0.7828 -0.6933
  523MOL0     H70591   0.639   2.477   2.764 -0.5582  0.8322  0.4284
  523MOL0     H70592   0.516   2.327   2.620  2.5314  0.7528  1.5833
  523MOL0     H70593   0.065   2.377   2.630 -0.5994 -0.3730  1.3283
  523MOL0     H70594   0.068   2.255   2.756  1.3221  1.0843  0.7724
  523MOL0     H70595   0.087   2.202   2.461 -0.7088  0.9877  0.7618
  523MOL0     H70596  -0.066   2.216   2.530  0.0294  0.9478  0.1284
  523MOL0     H70597   0.135   2.025   2.654 -2.5812  0.5148  4.2924
  523MOL0     H70598   0.053   1.979   2.498  0.5632  1.4957  0.0228
  523MOL0     H70599  -0.088   2.037   2.749 -1.3838 -3.0027  2.5514
  523MOL0     H70600  -0.153   1.976   2.591  1.9985  0.9310 -3.5338
  523MOL0     H70601   0.008   1.619   2.702 -1.5713  0.2509  0.3970
  523MOL0     H70602   0.159   2.466   2.815 -0.1063  3.0988 -2.4385
  523MOL0     H70603   0.147   2.629   2.978 -1.0810  3.3044  0.3428
  523MOL0     H70604   0.282   2.651   3.083 -1.8920 -0.7105  1.0883
  523MOL0     H70605   0.267   2.752   2.938 -0.3634  0.4607  0.5493
  524MOL0     O70606   9.795   1.774   3.974  0.4377 -0.3934  0.4868
  524MOL0     C70607   9.745   1.686   4.051 -0.5569  0.1941 -0.3520
  524MOL0     O70608   9.819   1.611   4.144  0.3468  0.1135 -0.0607
  524MOL0     C70609   9.957   1.594   4.121 -0.3794  0.6105 -0.6273
  524MOL0     C70610  10.050   1.695   4.136  0.1579  1.0569  0.0671
  524MOL0     C70611  10.181   1.674   4.099  0.0442  0.0458  0.5207
  524MOL0     C70612  10.227   1.551   4.070 -0.2008  0.8381 -0.4213
  524MOL0     O70613  10.361   1.526   4.051 -0.0875  0.1692 -0.6970
  524MOL0     C70614  10.391   1.510   3.914  0.1155  0.3147  0.0226
  524MOL0     C70615  10.492   1.616   3.887  0.3429  0.6726  0.1398
  524MOL0     C70616  10.549   1.604   3.746 -0.4218  0.3248 -0.5747
  524MOL0     C70617  10.616   1.727   3.693  0.8405 -0.4524 -0.4151
  524MOL0     C70618  10.666   1.714   3.546 -0.2153  0.0387 -0.1362
  524MOL0     C70619  10.767   1.827   3.510  0.0114 -0.0465 -0.2313
  524MOL0     C70620  10.814   1.817   3.364  0.0054 -0.0415 -0.0302
  524MOL0     C70621  10.889   1.945   3.325  0.3219  0.3723  1.2011
  524MOL0     N70622  11.001   1.988   3.419  0.2868 -0.0877  0.1085
  524MOL0     C70623  10.997   2.101   3.500 -0.2447 -0.0870  0.1812
  524MOL0     C70624  11.111   2.104   3.566  0.1938  0.8997  0.0540
  524MOL0     C70625  11.165   2.223   3.640 -0.2853 -0.1149 -0.3917
  524MOL0     C70626  11.286   2.296   3.573  0.0645  0.7802  0.7828
  524MOL0     C70627  11.281   2.317   3.423  0.5149 -0.5843  0.1840
  524MOL0     C70628  11.403   2.390   3.371  0.5009 -0.0300  0.4196
  524MOL0     O70629  11.437   2.511   3.442  0.8241  0.5577 -0.6088
  524MOL0     C70630  11.565   2.551   3.463 -0.1924  0.4076  0.1535
  524MOL0     C70631  11.660   2.545   3.365  0.0876  0.6669  0.7248
  524MOL0     C70632  11.789   2.591   3.372 -0.0428  0.2671  0.2622
  524MOL0     C70633  11.835   2.645   3.494  0.7044 -0.2068 -0.8194
  524MOL0     C70634  11.956   2.720   3.514 -0.9453  0.5125  0.3893
  524MOL0     O70635  11.971   2.800   3.625 -0.1082  0.2814 -0.1390
  524MOL0     C70636  12.088   2.881   3.637 -0.1077 -1.3744  0.0026
  524MOL0     C70637  12.059   3.005   3.708  0.0485  0.8887 -0.5736
  524MOL0     C70638  12.161   3.098   3.723 -0.4773  0.9038  0.1040
  524MOL0     C70639  12.292   3.069   3.697 -0.7598  0.1917  0.8997
  524MOL0     O70640  12.388   3.164   3.736  0.5238  0.6420 -0.0664
  524MOL0     C70641  12.520   3.140   3.696  0.2240 -0.3194 -0.5891
  524MOL0     C70642  12.623   3.229   3.764 -0.4270  0.4436 -0.6409
  524MOL0     C70643  12.760   3.178   3.733 -0.1082 -0.8538 -0.4278
  524MOL0     C70644  12.881   3.258   3.810  1.3052  0.1956 -1.1306
  524MOL0     C70645  13.015   3.187   3.765  0.3978 -0.1035 -0.2882
  524MOL0     C70646  13.142   3.244   3.830  0.0692 -0.3849 -0.1648
  524MOL0     C70647  13.275   3.174   3.789 -0.1423  0.0717 -0.2324
  524MOL0     C70648  13.300   3.058   3.885  0.2691 -0.7557  0.5178
  524MOL0    Cl70649  13.341   3.118   4.049  0.3976 -0.8205  0.2569
  524MOL0     C70650  12.325   2.948   3.642  0.9592  0.0602 -0.0342
  524MOL0     C70651  12.222   2.854   3.605 -0.4399 -0.4763  0.5816
  524MOL0     O70652  12.044   2.688   3.431  0.2690  0.8612  0.4234
  524MOL0     C70653  11.743   2.644   3.602 -0.4749 -0.0254 -0.1070
  524MOL0     C70654  11.610   2.597   3.585 -0.7293  0.6516 -0.5767
  524MOL0     N70655  11.190   1.991   3.524  0.0712  0.6900 -0.4482
  524MOL0     N70656  11.118   1.931   3.441  0.4701  0.0463  0.7958
  524MOL0     C70657  10.139   1.440   4.061 -0.1839  0.1664 -0.6521
  524MOL0     C70658  10.004   1.468   4.083 -0.4441  0.3774  0.2372
  524MOL0     C70659   9.592   1.685   4.070 -0.5083  0.6570  0.2454
  524MOL0     C70660   9.535   1.590   4.146 -0.1376  0.7362 -0.3517
  524MOL0     C70661   9.397   1.582   4.170  0.3023 -0.6859  0.1147
  524MOL0     C70662   9.303   1.663   4.102  0.0270  0.0512  0.4496
  524MOL0     O70663   9.170   1.639   4.127 -0.5502  0.1967  0.3393
  524MOL0     C70664   9.064   1.704   4.056 -0.1525 -0.3639  0.4341
  524MOL0     C70665   9.037   1.630   3.929 -0.5950 -0.1515 -0.8343
  524MOL0     C70666   8.937   1.706   3.843  0.3027  0.6584 -0.0382
  524MOL0     C70667   8.948   1.657   3.699  0.0129  0.6702 -0.2692
  524MOL0     C70668   8.949   1.515   3.678  0.4283  0.2338  0.0548
  524MOL0     C70669   8.973   1.395   3.669 -0.8027 -0.5273 -0.1286
  524MOL0     C70670   9.364   1.764   4.023 -0.6207  0.8500 -0.6125
  524MOL0     C70671   9.502   1.778   3.998 -0.4054 -0.1402 -0.8429
  524MOL0     C70672   9.551   1.874   3.897 -0.5739 -0.2278  0.8442
  524MOL0     H70673  10.015   1.796   4.155 -1.2965  0.4527  0.7311
  524MOL0     H70674  10.243   1.763   4.099  0.7588 -0.4371 -0.1835
  524MOL0     H70675  10.437   1.412   3.900  0.0009  0.4590 -1.6106
  524MOL0     H70676  10.306   1.512   3.844  1.9887 -1.0625 -2.4285
  524MOL0     H70677  10.573   1.606   3.959  1.7264  1.7898 -1.1885
  524MOL0     H70678  10.460   1.720   3.902  1.4207  1.3728 -1.9653
  524MOL0     H70679  10.468   1.569   3.682 -0.1071 -0.7065 -0.4233
  524MOL0     H70680  10.621   1.523   3.755  0.1310  0.9770  1.6131
  524MOL0     H70681  10.546   1.812   3.700  2.8369  1.1327  1.9899
  524MOL0     H70682  10.705   1.760   3.747 -0.5613  0.1335  1.6283
  524MOL0     H70683  10.710   1.614   3.546  0.6306  0.3165  2.4608
  524MOL0     H70684  10.582   1.720   3.476 -0.9693  1.3214  0.8269
  524MOL0     H70685  10.706   1.917   3.505  0.0096  0.0114  0.6680
  524MOL0     H70686  10.845   1.831   3.587 -0.1755 -0.5999 -0.0109
  524MOL0     H70687  10.720   1.810   3.309 -1.0140  2.0067  1.3655
  524MOL0     H70688  10.875   1.730   3.337 -1.0762 -0.3314 -1.6847
  524MOL0     H70689  10.938   1.933   3.227 -1.0945  1.2799  0.3444
  524MOL0     H70690  10.807   2.017   3.317 -0.9137 -0.8504  2.5231
  524MOL0     H70691  10.918   2.175   3.505 -0.1477  0.1822 -1.6283
  524MOL0     H70692  11.089   2.302   3.651  0.0718  0.2757 -0.7056
  524MOL0     H70693  11.195   2.188   3.739 -0.1674 -0.4099 -0.5342
  524MOL0     H70694  11.309   2.392   3.621  0.8464  0.3437  1.2940
  524MOL0     H70695  11.377   2.238   3.591  0.8327  1.9406  0.7593
  524MOL0     H70696  11.201   2.386   3.394  1.3170  0.8227  1.1997
  524MOL0     H70697  11.277   2.225   3.364  1.1454 -0.8078  0.4757
  524MOL0     H70698  11.388   2.406   3.264  1.1884  2.7403  0.6458
  524MOL0     H70699  11.489   2.324   3.377  1.7743  1.4323 -0.7894
  524MOL0     H70700  11.636   2.517   3.263  1.1383  1.1288  0.3256
  524MOL0     H70701  11.857   2.595   3.288  2.4036 -0.7806  2.0937
  524MOL0     H70702  11.961   3.022   3.752  0.4397 -1.6151  1.5526
  524MOL0     H70703  12.135   3.188   3.777 -4.7088  0.5709 -1.0459
  524MOL0     H70704  12.553   3.040   3.725 -0.8041 -0.5254 -0.0621
  524MOL0     H70705  12.531   3.164   3.590  1.4083  1.0022 -0.1873
  524MOL0     H70706  12.598   3.331   3.735  0.5702  0.2255 -2.4193
  524MOL0     H70707  12.615   3.246   3.872  1.4735  1.8742 -0.6829
  524MOL0     H70708  12.760   3.069   3.738  1.0816 -0.8157  1.3470
  524MOL0     H70709  12.778   3.209   3.630  3.1921  0.1021  0.3227
  524MOL0     H70710  12.868   3.251   3.919 -1.7207 -1.2972 -1.4970
  524MOL0     H70711  12.879   3.362   3.778  1.1931 -0.5279 -3.6286
  524MOL0     H70712  13.016   3.182   3.656  0.9729  1.3778 -0.3750
  524MOL0     H70713  13.007   3.083   3.797 -0.9032 -0.2290 -0.9798
  524MOL0     H70714  13.147   3.351   3.807 -0.1542 -0.6249 -1.3945
  524MOL0     H70715  13.135   3.230   3.938  0.4305  3.2544  0.4431
  524MOL0     H70716  13.361   3.241   3.787 -1.4623  1.8248 -1.0103
  524MOL0     H70717  13.266   3.134   3.688 -1.4270  0.9461 -0.4855
  524MOL0     H70718  13.215   2.991   3.900 -1.1461  1.0328  0.7562
  524MOL0     H70719  13.381   3.003   3.836  0.3383  1.3616 -1.9778
  524MOL0     H70720  12.424   2.916   3.611  0.7661 -0.9766  0.3872
  524MOL0     H70721  12.249   2.757   3.565 -2.8722 -1.0491  0.1579
  524MOL0     H70722  11.773   2.691   3.695  2.2097  3.1410 -2.3354
  524MOL0     H70723  11.541   2.615   3.668 -1.2097 -1.0817 -0.5625
  524MOL0     H70724  10.168   1.337   4.043 -0.7033 -0.6879  2.6991
  524MOL0     H70725   9.929   1.390   4.075 -1.1696  1.1498 -0.6747
  524MOL0     H70726   9.600   1.521   4.200 -1.2005  0.9735  1.3219
  524MOL0     H70727   9.367   1.500   4.235 -2.2860  0.5495  0.5954
  524MOL0     H70728   9.085   1.808   4.029 -1.2503  0.2945  1.9276
  524MOL0     H70729   8.971   1.713   4.113 -0.7642 -1.3821 -0.3753
  524MOL0     H70730   9.001   1.530   3.952 -2.5178  0.9158  1.2046
  524MOL0     H70731   9.131   1.616   3.876 -0.3236  1.2256 -0.7660
  524MOL0     H70732   8.936   1.815   3.852  3.1028  0.6602  1.3300
  524MOL0     H70733   8.834   1.689   3.875 -0.1133  2.1706 -0.5059
  524MOL0     H70734   8.865   1.710   3.650 -0.2900  3.2054  2.6566
  524MOL0     H70735   9.038   1.696   3.651 -1.9639  2.4009 -2.8333
  524MOL0     H70736   8.993   1.298   3.628 -0.4558 -0.6348  0.2753
  524MOL0     H70737   9.299   1.840   3.980  1.4975  1.8029 -2.3097
  524MOL0     H70738   9.605   1.954   3.948 -1.2580 -0.5478  2.1032
  524MOL0     H70739   9.604   1.828   3.813 -2.3131 -2.9893  1.1175
  524MOL0     H70740   9.464   1.928   3.857 -0.8621 -0.2775  1.3935
  525MOL0     O70741   1.653   6.115   0.144  0.3187  0.5242  0.9864
  525MOL0     C70742   1.571   6.055   0.208 -0.2455  0.5961  0.5632
  525MOL0     O70743   1.599   5.952   0.289  0.7286  0.1538 -0.3304
  525MOL0     C70744   1.732   5.906   0.291  0.2619 -0.7732 -0.7581
  525MOL0     C70745   1.776   5.812   0.197 -0.4712 -0.2005 -0.6656
  525MOL0     C70746   1.913   5.758   0.215  0.0973  0.5457  0.3920
  525MOL0     C70747   1.998   5.795   0.314  0.3608 -0.2391 -0.3082
  525MOL0     O70748   2.125   5.729   0.335 -0.0393  0.2684  0.2622
  525MOL0     C70749   2.225   5.817   0.398  0.3204 -0.0051  0.3739
  525MOL0     C70750   2.360   5.765   0.361  0.0463  0.0363  0.1002
  525MOL0     C70751   2.460   5.879   0.390 -0.4313 -0.0169  0.3360
  525MOL0     C70752   2.604   5.829   0.370  0.0500 -0.1599  0.0509
  525MOL0     C70753   2.700   5.949   0.352 -1.2160 -0.2478  0.2511
  525MOL0     C70754   2.852   5.905   0.320 -0.2706  0.2215  0.7190
  525MOL0     C70755   2.959   6.014   0.345  0.3586  0.2374  0.7460
  525MOL0     C70756   2.933   6.143   0.269 -0.2970 -0.3708  0.3347
  525MOL0     N70757   3.023   6.258   0.309  0.0989 -0.3960 -0.6215
  525MOL0     C70758   3.158   6.254   0.322 -0.0506  0.5238 -0.6555
  525MOL0     C70759   3.202   6.380   0.347 -0.1338 -0.4800  0.1793
  525MOL0     C70760   3.346   6.408   0.380  0.7204  0.1298 -0.9785
  525MOL0     C70761   3.364   6.537   0.467  0.6192 -0.3857 -0.0408
  525MOL0     C70762   3.337   6.527   0.618  0.0476  0.2228 -0.2773
  525MOL0     C70763   3.377   6.663   0.682 -0.8208 -0.3656  0.1729
  525MOL0     O70764   3.303   6.681   0.802  0.1799 -0.4761 -0.0379
  525MOL0     C70765   3.165   6.692   0.800 -0.2199 -0.2104 -0.7444
  525MOL0     C70766   3.113   6.712   0.932  0.3434 -0.6339  0.7473
  525MOL0     C70767   2.977   6.729   0.946 -0.3012 -0.3895 -0.2655
  525MOL0     C70768   2.898   6.736   0.837  0.9435 -0.1485  0.1504
  525MOL0     C70769   2.752   6.770   0.852 -0.2957 -0.0950  0.5067
  525MOL0     O70770   2.679   6.720   0.744  0.1927  0.2899  0.6172
  525MOL0     C70771   2.545   6.733   0.750  0.5380 -0.1717  0.2893
  525MOL0     C70772   2.485   6.657   0.851  1.1636  1.2822 -0.9226
  525MOL0     C70773   2.344   6.673   0.870  0.7772 -0.7152  1.2767
  525MOL0     C70774   2.257   6.765   0.797 -0.5763 -0.4043  0.3515
  525MOL0     O70775   2.117   6.766   0.817 -0.1841  0.1146  0.1570
  525MOL0     C70776   2.050   6.892   0.790 -0.3828 -0.3394  0.4603
  525MOL0     C70777   1.908   6.898   0.848 -0.6361  0.3363  0.3331
  525MOL0     C70778   1.815   6.799   0.784  1.3096 -0.6299  0.2655
  525MOL0     C70779   1.661   6.833   0.797 -0.1393  0.3671  1.0618
  525MOL0     C70780   1.640   6.969   0.745  0.1135 -0.7689 -0.1509
  525MOL0     C70781   1.487   6.987   0.744  0.0646 -0.0250  0.5772
  525MOL0     C70782   1.428   7.128   0.724 -0.5530  0.0449 -0.2842
  525MOL0     C70783   1.451   7.219   0.846  0.4991  0.1522 -0.1374
  525MOL0    Cl70784   1.347   7.362   0.827 -0.3664  0.0701  0.3271
  525MOL0     C70785   2.328   6.841   0.703  0.1689 -1.0813 -0.4424
  525MOL0     C70786   2.465   6.823   0.672 -0.0242  0.6889 -0.6289
  525MOL0     O70787   2.711   6.826   0.947 -0.1811  0.6077  0.4506
  525MOL0     C70788   2.945   6.720   0.707  0.5698  1.5931  0.5558
  525MOL0     C70789   3.076   6.707   0.691  0.3237  0.3356 -0.6988
  525MOL0     N70790   3.085   6.461   0.356 -0.8084 -0.3612  0.3143
  525MOL0     N70791   2.982   6.383   0.336  0.3745 -0.0101 -0.4651
  525MOL0     C70792   1.946   5.881   0.406  0.5536 -1.1692 -0.2190
  525MOL0     C70793   1.817   5.943   0.400 -0.2579  0.1829  0.2245
  525MOL0     C70794   1.432   6.100   0.211 -0.1120  0.1704 -0.1683
  525MOL0     C70795   1.332   6.017   0.274  0.1566 -0.3586 -0.4908
  525MOL0     C70796   1.199   6.048   0.296 -0.4210 -0.7423  0.5038
  525MOL0     C70797   1.153   6.176   0.253  0.8358  0.6700  0.4212
  525MOL0     O70798   1.023   6.208   0.281 -0.4021 -0.0698 -0.6556
  525MOL0     C70799   0.967   6.327   0.233  0.4941  0.4877  0.1945
  525MOL0     C70800   0.973   6.439   0.341  0.1364  0.6706 -0.2097
  525MOL0     C70801   0.916   6.393   0.471 -0.4065 -0.1162 -0.1406
  525MOL0     C70802   0.857   6.507   0.552 -0.3246  0.6975 -0.9849
  525MOL0     C70803   0.973   6.578   0.604 -0.0247  0.3684  0.0786
  525MOL0     C70804   1.061   6.640   0.658  0.2900  0.5165 -0.1959
  525MOL0     C70805   1.245   6.262   0.189 -0.9533 -0.2288  0.9036
  525MOL0     C70806   1.383   6.231   0.167  0.6092  0.3757 -0.2327
  525MOL0     C70807   1.476   6.329   0.109  0.6218 -0.2853 -0.0430
  525MOL0     H70808   1.708   5.774   0.121 -1.4124 -0.5265  0.3158
  525MOL0     H70809   1.939   5.677   0.148  0.0595  1.6424 -0.9782
  525MOL0     H70810   2.210   5.918   0.357  0.3698 -0.6816 -1.3703
  525MOL0     H70811   2.212   5.816   0.507 -0.8148  0.7659  0.2757
  525MOL0     H70812   2.355   5.742   0.255 -0.7128  0.4832  0.0338
  525MOL0     H70813   2.391   5.674   0.413 -0.1938  0.7936  1.6535
  525MOL0     H70814   2.448   5.924   0.490 -2.7246 -2.3422  1.2425
  525MOL0     H70815   2.457   5.965   0.323 -0.4552 -0.5086 -0.2986
  525MOL0     H70816   2.626   5.763   0.455  2.9606 -1.6938 -1.7538
  525MOL0     H70817   2.604   5.772   0.277  2.2793 -0.8412  0.4203
  525MOL0     H70818   2.669   6.013   0.269  0.5969 -1.8526 -1.7654
  525MOL0     H70819   2.691   6.001   0.448  1.0337 -5.6691  3.9552
  525MOL0     H70820   2.890   5.825   0.384  3.1194  0.1633 -1.1433
  525MOL0     H70821   2.858   5.879   0.214  0.4421 -0.0340  0.8176
  525MOL0     H70822   3.053   5.969   0.311  0.0504 -0.5089  0.8492
  525MOL0     H70823   2.976   6.035   0.451  2.0067 -1.6319  0.9046
  525MOL0     H70824   2.959   6.121   0.165 -1.6594  0.3196 -0.1761
  525MOL0     H70825   2.829   6.177   0.273 -0.9299 -1.9831 -1.2899
  525MOL0     H70826   3.220   6.165   0.331  0.2852  0.8775  0.7328
  525MOL0     H70827   3.389   6.325   0.437  2.5555  1.0909 -0.8903
  525MOL0     H70828   3.396   6.411   0.283  0.4774  3.3106 -1.1128
  525MOL0     H70829   3.472   6.551   0.457  0.9366 -2.8721 -0.6943
  525MOL0     H70830   3.312   6.622   0.421  0.2398 -0.4686  0.2334
  525MOL0     H70831   3.398   6.455   0.673  1.4081  2.0786  0.7612
  525MOL0     H70832   3.232   6.508   0.641 -0.5684  2.5233 -0.9265
  525MOL0     H70833   3.381   6.751   0.618 -1.0664  0.4565  1.2701
  525MOL0     H70834   3.481   6.659   0.716 -0.1508  3.1108 -1.0972
  525MOL0     H70835   3.184   6.713   1.014  2.5848 -2.9986 -0.9767
  525MOL0     H70836   2.928   6.736   1.042  0.1455  3.5644 -0.1421
  525MOL0     H70837   2.545   6.615   0.930  0.6615  2.1138 -0.0786
  525MOL0     H70838   2.295   6.625   0.954 -0.0365 -0.8179  0.7605
  525MOL0     H70839   2.103   6.973   0.842 -1.4715  0.6938  0.0104
  525MOL0     H70840   2.052   6.919   0.684 -1.8838 -3.3150 -0.4334
  525MOL0     H70841   1.915   6.884   0.957 -1.5030 -1.1635  0.2343
  525MOL0     H70842   1.880   7.001   0.825  1.1176  1.0876  1.2904
  525MOL0     H70843   1.837   6.799   0.677 -0.6289 -1.0499 -0.1775
  525MOL0     H70844   1.836   6.699   0.822 -2.2539 -3.3866 -4.0868
  525MOL0     H70845   1.619   6.824   0.897 -0.9233 -2.2992  0.5637
  525MOL0     H70846   1.603   6.768   0.732 -2.0694  2.8210  0.1478
  525MOL0     H70847   1.683   7.001   0.650 -0.0464  0.1598  0.0865
  525MOL0     H70848   1.677   7.046   0.813 -0.1276  0.7022 -1.6094
  525MOL0     H70849   1.452   6.939   0.653  5.5502 -0.5855 -1.6174
  525MOL0     H70850   1.442   6.944   0.834  1.9222  0.6738  1.9060
  525MOL0     H70851   1.323   7.116   0.697 -0.1843 -0.9810 -1.3803
  525MOL0     H70852   1.482   7.169   0.638 -0.9696  1.7373  0.2309
  525MOL0     H70853   1.417   7.158   0.930  0.3861  0.7701  0.2736
  525MOL0     H70854   1.553   7.254   0.861  0.2486  1.6196 -1.5822
  525MOL0     H70855   2.274   6.914   0.643 -0.9845 -0.3895  1.3403
  525MOL0     H70856   2.512   6.867   0.584 -0.2766  0.2475 -0.9886
  525MOL0     H70857   2.875   6.730   0.625 -0.9317  0.8421  1.6927
  525MOL0     H70858   3.118   6.712   0.591 -1.9342 -0.8455 -1.7747
  525MOL0     H70859   2.002   5.905   0.495 -0.9823 -1.1838  0.7863
  525MOL0     H70860   1.778   6.017   0.470 -0.5360 -0.4649  0.7686
  525MOL0     H70861   1.369   5.922   0.314  1.0017 -0.5489 -1.6673
  525MOL0     H70862   1.140   5.976   0.352 -3.2393  0.3311 -0.8730
  525MOL0     H70863   0.867   6.312   0.193  0.9994  0.6971 -1.1997
  525MOL0     H70864   1.020   6.362   0.143 -0.6934 -1.9326 -1.5468
  525MOL0     H70865   0.925   6.533   0.309  0.4161  1.8253  2.5259
  525MOL0     H70866   1.079   6.462   0.350  0.2069  2.0362 -3.2290
  525MOL0     H70867   0.991   6.340   0.530 -1.2819 -1.2578 -0.0279
  525MOL0     H70868   0.839   6.316   0.463 -0.0612 -0.5076  0.2352
  525MOL0     H70869   0.782   6.560   0.493 -2.2566 -0.4649  0.3258
  525MOL0     H70870   0.817   6.470   0.647 -1.3385  2.6397 -0.6180
  525MOL0     H70871   1.139   6.701   0.699  1.7108 -0.4674 -1.2983
  525MOL0     H70872   1.217   6.363   0.161 -0.1962  0.2208  1.7009
  525MOL0     H70873   1.548   6.364   0.183  2.3069 -0.8371 -1.3572
  525MOL0     H70874   1.526   6.291   0.019 -1.8635 -1.2322 -1.1223
  525MOL0     H70875   1.430   6.422   0.074  1.4962  0.2867  0.3158
  526MOL0     O70876   2.302   7.216   9.043 -0.4283 -0.4898  0.2049
  526MOL0     C70877   2.216   7.298   9.050 -0.6301 -0.4660  0.2830
  526MOL0     O70878   2.169   7.360   9.167  0.6042  0.4226  0.1199
  526MOL0     C70879   2.232   7.335   9.286 -0.4379 -0.2136 -0.7914
  526MOL0     C70880   2.283   7.210   9.324 -0.1587  0.2684  0.5433
  526MOL0     C70881   2.355   7.191   9.444  0.7469  0.0667 -0.0810
  526MOL0     C70882   2.382   7.296   9.533 -0.4723 -0.1388 -0.2396
  526MOL0     O70883   2.451   7.281   9.657  0.4489  0.1229 -0.6850
  526MOL0     C70884   2.475   7.398   9.740 -0.9101  0.2126 -1.0978
  526MOL0     C70885   2.536   7.349   9.864  0.2685  0.4581 -0.0019
  526MOL0     C70886   2.581   7.456   9.952  0.7302 -0.8994 -0.5994
  526MOL0     C70887   2.687   7.414  10.050  0.0473 -0.8526 -0.5010
  526MOL0     C70888   2.764   7.533  10.118 -0.1385  0.2077 -0.7195
  526MOL0     C70889   2.905   7.508  10.166  1.2343  0.3609  0.3878
  526MOL0     C70890   2.952   7.624  10.256  0.3179  0.4352  0.6120
  526MOL0     C70891   3.101   7.612  10.288  0.4467  0.3081  0.0260
  526MOL0     N70892   3.121   7.735  10.356 -0.2047 -0.8004 -0.1213
  526MOL0     C70893   3.155   7.751  10.484 -0.4571  0.3448  0.1379
  526MOL0     C70894   3.171   7.885  10.503 -0.4200 -0.2474 -0.8810
  526MOL0     C70895   3.204   7.973  10.618  0.4333 -0.3967 -0.0595
  526MOL0     C70896   3.354   7.997  10.630 -0.2327  0.1070  0.5125
  526MOL0     C70897   3.383   8.080  10.751 -0.5928 -0.8101  0.5133
  526MOL0     C70898   3.537   8.110  10.762 -0.3041 -0.0344 -0.2652
  526MOL0     O70899   3.555   8.172  10.888  0.5035 -0.7594  0.2041
  526MOL0     C70900   3.681   8.209  10.923 -0.1920 -0.2316 -0.7669
  526MOL0     C70901   3.799   8.153  10.880 -0.1899 -0.2179  0.1257
  526MOL0     C70902   3.924   8.208  10.924 -0.3168  0.2034  0.0404
  526MOL0     C70903   3.929   8.314  11.012 -0.3196  0.9356  0.1454
  526MOL0     C70904   4.062   8.378  11.051  0.0509 -0.0315 -0.3669
  526MOL0     O70905   4.174   8.315  11.022 -0.5635 -0.1735 -0.4189
  526MOL0     C70906   4.296   8.365  11.063  0.6910 -0.4789 -0.5035
  526MOL0     C70907   4.325   8.394  11.195 -0.1842  0.4680 -0.7724
  526MOL0     C70908   4.453   8.444  11.231 -0.3603 -0.8073  0.5897
  526MOL0     C70909   4.550   8.469  11.130  0.0862  0.6443 -0.0915
  526MOL0     O70910   4.669   8.525  11.174 -0.4444  0.2285 -0.2680
  526MOL0     C70911   4.789   8.502  11.089  0.1010 -0.8261  0.8109
  526MOL0     C70912   4.908   8.565  11.166 -1.0061 -0.0985  0.0850
  526MOL0     C70913   5.045   8.504  11.147  0.8582  0.8939  0.1636
  526MOL0     C70914   5.151   8.577  11.206 -0.3366 -0.2285 -0.3648
  526MOL0     C70915   5.289   8.492  11.220  0.1995 -0.8422  0.6823
  526MOL0     C70916   5.403   8.580  11.271 -0.0361  0.6417 -0.0822
  526MOL0     C70917   5.444   8.689  11.183 -0.4454  0.0713  0.3889
  526MOL0     C70918   5.528   8.809  11.249  0.3138  0.2400  0.0062
  526MOL0    Cl70919   5.678   8.746  11.330 -0.7453 -0.1514 -0.5442
  526MOL0     C70920   4.515   8.447  10.999 -0.3276  0.0040 -0.0066
  526MOL0     C70921   4.389   8.390  10.969 -0.4243 -0.5432  0.3988
  526MOL0     O70922   4.051   8.489  11.105  0.2429  0.4222  0.1885
  526MOL0     C70923   3.803   8.370  11.052  0.3622  0.3476  0.2553
  526MOL0     C70924   3.681   8.315  11.018 -0.4601  0.2225  0.4908
  526MOL0     N70925   3.157   7.938  10.383 -0.4423 -0.5072  0.1137
  526MOL0     N70926   3.133   7.851  10.293 -0.2324  0.3221 -0.7265
  526MOL0     C70927   2.337   7.421   9.493 -0.0534  0.1844 -0.4949
  526MOL0     C70928   2.258   7.436   9.386  0.0860 -0.7824  0.8055
  526MOL0     C70929   2.146   7.320   8.924 -0.4801  0.4920  0.1832
  526MOL0     C70930   2.221   7.319   8.806 -0.3902 -0.2616  0.2092
  526MOL0     C70931   2.166   7.344   8.682 -0.2838 -0.8032 -1.0301
  526MOL0     C70932   2.025   7.353   8.676 -0.3228  0.6053 -0.1365
  526MOL0     O70933   1.973   7.367   8.551  0.0064  0.3468  0.0704
  526MOL0     C70934   1.830   7.367   8.536  0.6148  0.0359  0.2901
  526MOL0     C70935   1.795   7.361   8.387 -0.0951 -0.9847  0.2460
  526MOL0     C70936   1.848   7.492   8.316 -0.4865 -0.2062 -0.4246
  526MOL0     C70937   1.825   7.488   8.172 -0.2102  1.0129  0.0949
  526MOL0     C70938   1.839   7.626   8.116 -0.2808  0.3113 -0.2399
  526MOL0     C70939   1.840   7.740   8.071 -0.1840  0.5274 -0.7050
  526MOL0     C70940   1.953   7.342   8.792  0.4179  0.3814  0.4381
  526MOL0     C70941   2.004   7.329   8.914  0.3470  0.4300 -1.1290
  526MOL0     C70942   1.914   7.324   9.038 -0.2673  0.0276 -0.1255
  526MOL0     H70943   2.278   7.126   9.255  2.8609  0.4541 -0.0329
  526MOL0     H70944   2.390   7.090   9.463  0.0639 -0.1532  0.0504
  526MOL0     H70945   2.540   7.469   9.689 -0.1073 -0.1819 -0.6308
  526MOL0     H70946   2.379   7.444   9.767 -1.4357 -1.8400  0.7996
  526MOL0     H70947   2.616   7.283   9.831  1.1410  2.1097 -1.3620
  526MOL0     H70948   2.459   7.287   9.912 -1.3299  2.0317 -0.4026
  526MOL0     H70949   2.489   7.491  10.001  0.7571 -2.7196  0.8460
  526MOL0     H70950   2.623   7.538   9.892  1.9648 -2.3279 -1.7745
  526MOL0     H70951   2.642   7.358  10.133  0.4783  2.4626  2.1955
  526MOL0     H70952   2.760   7.353   9.996  1.8715  2.5175 -2.1385
  526MOL0     H70953   2.775   7.616  10.048  1.0137  0.8963  0.2417
  526MOL0     H70954   2.695   7.563  10.197  0.0197  0.5096 -0.6950
  526MOL0     H70955   2.925   7.410  10.210 -0.4798 -1.8142 -3.1689
  526MOL0     H70956   2.966   7.514  10.075  0.7905  0.2717  0.0800
  526MOL0     H70957   2.887   7.628  10.344  0.6725  0.7087  0.8628
  526MOL0     H70958   2.929   7.717  10.203  0.2389 -0.4339 -0.9280
  526MOL0     H70959   3.126   7.521  10.343  1.8453  1.1471  0.8490
  526MOL0     H70960   3.153   7.623  10.192  1.5653  0.6758  0.6561
  526MOL0     H70961   3.165   7.670  10.555 -0.0869  1.8980  1.9699
  526MOL0     H70962   3.151   8.068  10.609  1.1564 -0.0288 -0.4606
  526MOL0     H70963   3.169   7.926  10.711 -0.9114  1.5220  0.4639
  526MOL0     H70964   3.414   7.907  10.644  1.7998  1.4142  0.5906
  526MOL0     H70965   3.392   8.055  10.545 -1.7206  1.4830  0.7318
  526MOL0     H70966   3.355   8.020  10.838 -1.7371 -1.9173 -0.5775
  526MOL0     H70967   3.320   8.169  10.744 -0.0514 -0.3127  1.6474
  526MOL0     H70968   3.558   8.170  10.672  0.3430  2.7009  1.5947
  526MOL0     H70969   3.596   8.018  10.756 -0.4114 -0.2844  1.9192
  526MOL0     H70970   3.797   8.066  10.816 -0.4217 -1.1620  1.3646
  526MOL0     H70971   4.013   8.156  10.890  0.0982  1.6670 -1.1700
  526MOL0     H70972   4.253   8.378  11.276  0.8374 -0.2365  0.0244
  526MOL0     H70973   4.478   8.463  11.335  1.1584  1.0699 -0.0571
  526MOL0     H70974   4.810   8.395  11.078  0.1875 -0.6663 -0.7804
  526MOL0     H70975   4.782   8.556  10.994 -3.7679 -1.7003  0.4051
  526MOL0     H70976   4.915   8.674  11.154 -1.1527  0.0053  0.8705
  526MOL0     H70977   4.891   8.556  11.274 -1.5284  1.6987  0.1923
  526MOL0     H70978   5.039   8.406  11.196  2.0804  1.9758  2.6892
  526MOL0     H70979   5.057   8.491  11.039  1.4759 -2.0577  0.5004
  526MOL0     H70980   5.121   8.610  11.306 -0.1169  2.5120 -1.1127
  526MOL0     H70981   5.169   8.668  11.147 -0.5391 -1.7536 -2.9157
  526MOL0     H70982   5.314   8.456  11.120 -0.8095 -1.7358  0.7307
  526MOL0     H70983   5.271   8.412  11.292  0.5009 -0.6778  0.9428
  526MOL0     H70984   5.372   8.627  11.364 -0.3588 -1.0295  0.6841
  526MOL0     H70985   5.492   8.520  11.290  0.0634  0.4175 -1.1672
  526MOL0     H70986   5.371   8.734  11.115  2.9863  0.3303 -3.5639
  526MOL0     H70987   5.507   8.638  11.109 -0.7005 -0.0818  0.2769
  526MOL0     H70988   5.552   8.885  11.174  1.8815  0.8520  1.0749
  526MOL0     H70989   5.466   8.862  11.322 -1.7815 -3.6005  1.3249
  526MOL0     H70990   4.575   8.456  10.909 -0.4685  0.9970 -0.0147
  526MOL0     H70991   4.379   8.377  10.861  1.2653  1.7067 -0.1071
  526MOL0     H70992   3.810   8.459  11.114  1.7653  1.1715 -1.0106
  526MOL0     H70993   3.588   8.355  11.057 -0.1573  1.4013  0.0486
  526MOL0     H70994   2.353   7.506   9.559  0.5142  0.7311 -1.3123
  526MOL0     H70995   2.200   7.522   9.355  0.3907 -0.7964  0.1791
  526MOL0     H70996   2.328   7.304   8.808 -0.1333  1.2540 -0.6801
  526MOL0     H70997   2.225   7.377   8.598 -1.3074  1.4432 -0.9360
  526MOL0     H70998   1.789   7.458   8.581 -0.5567 -0.4364  0.2139
  526MOL0     H70999   1.785   7.285   8.592 -0.3837  1.3128  1.4318
  526MOL0     H71000   1.687   7.360   8.370  0.2279 -2.2006 -2.0624
  526MOL0     H71001   1.828   7.266   8.345  1.0466 -1.6482  2.4863
  526MOL0     H71002   1.953   7.496   8.346 -0.8025 -0.7412  0.8354
  526MOL0     H71003   1.792   7.577   8.357  0.4475  0.4153 -0.4092
  526MOL0     H71004   1.882   7.415   8.114 -3.8037 -1.7744 -0.2759
  526MOL0     H71005   1.719   7.470   8.149  0.3502 -2.2140 -0.5330
  526MOL0     H71006   1.856   7.844   8.051  0.0916  1.1540  2.2275
  526MOL0     H71007   1.846   7.339   8.773  0.7749 -3.1505 -2.1821
  526MOL0     H71008   1.939   7.232   9.091 -0.0194  0.1330 -0.0594
  526MOL0     H71009   1.946   7.398   9.112 -2.2484  0.9262 -0.1007
  526MOL0     H71010   1.806   7.324   9.018 -0.1502  0.6481 -0.7943
  527MOL0     O71011   5.269  11.008   4.505  0.1257 -0.5653  0.2383
  527MOL0     C71012   5.289  11.074   4.398 -0.0152 -0.5232 -0.7221
  527MOL0     O71013   5.406  11.127   4.367  0.3204  0.5578  0.5735
  527MOL0     C71014   5.503  11.145   4.461  0.6996  0.8045 -0.0068
  527MOL0     C71015   5.483  11.166   4.601  0.4124  0.2680  0.4453
  527MOL0     C71016   5.586  11.199   4.680  0.2241  0.4400 -0.2795
  527MOL0     C71017   5.715  11.227   4.631 -0.3260  0.5010  1.2538
  527MOL0     O71018   5.810  11.267   4.726  0.2395 -0.5360 -0.4575
  527MOL0     C71019   5.939  11.282   4.688  0.2616  0.4617  0.5499
  527MOL0     C71020   6.022  11.321   4.811  0.2143 -0.1058  0.1477
  527MOL0     C71021   6.176  11.314   4.769  0.5697 -0.5599 -0.6250
  527MOL0     C71022   6.267  11.378   4.886 -0.0569 -0.0671 -0.1376
  527MOL0     C71023   6.376  11.466   4.817 -0.5149 -0.5297 -0.2128
  527MOL0     C71024   6.501  11.513   4.897  0.3702  0.0117 -0.3156
  527MOL0     C71025   6.612  11.563   4.809 -0.0451  1.0327  0.3797
  527MOL0     C71026   6.714  11.637   4.891 -0.2259  0.4298 -0.2440
  527MOL0     N71027   6.827  11.690   4.812 -0.1035  1.0900 -0.0135
  527MOL0     C71028   6.925  11.629   4.727  0.1793  0.0547  0.3712
  527MOL0     C71029   6.983  11.733   4.670 -0.1824 -0.2996  0.1050
  527MOL0     C71030   7.079  11.741   4.560  0.7838  0.6650 -0.2304
  527MOL0     C71031   7.211  11.691   4.611  0.3714  0.1164 -0.0094
  527MOL0     C71032   7.321  11.733   4.514  0.7244  0.4082  0.0546
  527MOL0     C71033   7.455  11.677   4.569 -0.3626  0.1469 -0.4381
  527MOL0     O71034   7.471  11.535   4.559 -0.8632  1.1361  1.2690
  527MOL0     C71035   7.586  11.489   4.508 -0.7314 -0.1471  0.5558
  527MOL0     C71036   7.713  11.540   4.547 -0.1397 -0.4037 -0.2270
  527MOL0     C71037   7.828  11.473   4.500 -0.2637  0.2307  0.7477
  527MOL0     C71038   7.819  11.368   4.405 -0.5960  0.5774  0.2812
  527MOL0     C71039   7.941  11.303   4.349  0.5768  0.4050 -0.2432
  527MOL0     O71040   8.053  11.323   4.426  0.0913 -0.1566 -0.8790
  527MOL0     C71041   8.173  11.265   4.397 -0.2652 -0.4941  0.3334
  527MOL0     C71042   8.241  11.188   4.497 -0.7180 -0.3350 -0.1600
  527MOL0     C71043   8.360  11.125   4.460  0.0391 -0.0902 -0.2821
  527MOL0     C71044   8.422  11.156   4.340 -0.1944 -0.1006 -0.3602
  527MOL0     O71045   8.555  11.124   4.311 -0.2901  0.2407 -0.3088
  527MOL0     C71046   8.566  10.992   4.250  0.0693 -0.3810 -0.5643
  527MOL0     C71047   8.600  10.890   4.358 -0.1193  0.0966 -0.2134
  527MOL0     C71048   8.735  10.812   4.326  0.9424  0.3729  0.5060
  527MOL0     C71049   8.746  10.697   4.420  0.2957  0.1511 -0.6387
  527MOL0     C71050   8.875  10.615   4.420  0.2133  0.3238  0.9741
  527MOL0     C71051   8.860  10.486   4.331  0.0210  0.6333  0.0040
  527MOL0     C71052   8.998  10.438   4.293  0.8036  0.1809  0.6573
  527MOL0     C71053   9.064  10.484   4.173  0.4585  0.3615 -0.6881
  527MOL0    Cl71054   8.961  10.494   4.023 -0.0895  0.0126 -0.2203
  527MOL0     C71055   8.359  11.228   4.237 -0.5982  1.0638 -0.0906
  527MOL0     C71056   8.232  11.281   4.273  0.4839  0.3078 -0.0943
  527MOL0     O71057   7.932  11.222   4.254  0.0754  0.3017 -0.1464
  527MOL0     C71058   7.691  11.321   4.373  0.5367  0.6128  0.1825
  527MOL0     C71059   7.572  11.378   4.422 -0.1487  0.4202 -0.5156
  527MOL0     N71060   6.938  11.854   4.727 -0.2668  0.1669  0.0755
  527MOL0     N71061   6.853  11.823   4.812 -0.1196  0.2697 -0.3608
  527MOL0     C71062   5.741  11.208   4.496  1.1374 -0.6909 -0.2685
  527MOL0     C71063   5.635  11.172   4.412  1.4163  0.0207  0.6258
  527MOL0     C71064   5.173  11.087   4.299  0.7120 -0.3530 -0.0586
  527MOL0     C71065   5.192  11.165   4.183 -0.6035 -0.3332 -0.1445
  527MOL0     C71066   5.102  11.160   4.082 -0.1267 -0.2528  0.6245
  527MOL0     C71067   4.978  11.093   4.086 -1.0813  0.2005 -0.0311
  527MOL0     O71068   4.908  11.071   3.972  0.8738  0.2580  0.4669
  527MOL0     C71069   4.804  10.965   3.979 -0.6170 -0.4823 -0.4534
  527MOL0     C71070   4.864  10.826   3.970  0.3950  0.2858 -0.3319
  527MOL0     C71071   4.762  10.714   3.993 -0.5837 -0.6882 -0.1572
  527MOL0     C71072   4.654  10.697   3.890 -0.5870  0.4104 -0.2619
  527MOL0     C71073   4.696  10.641   3.757  0.7115 -0.3198 -1.0182
  527MOL0     C71074   4.720  10.589   3.642  0.9386 -0.5695 -0.7602
  527MOL0     C71075   4.944  11.044   4.217 -0.4693  0.0154 -0.5661
  527MOL0     C71076   5.037  11.049   4.322  1.1178  0.1201 -0.6177
  527MOL0     C71077   4.989  10.992   4.461 -0.9621  0.7061  0.8882
  527MOL0     H71078   5.385  11.161   4.647 -0.8973 -5.0786 -1.9993
  527MOL0     H71079   5.573  11.236   4.781  0.3292  2.2487 -0.8832
  527MOL0     H71080   5.963  11.182   4.649  0.6380 -0.7028  3.4821
  527MOL0     H71081   5.952  11.356   4.609 -1.0564 -1.7909 -1.9374
  527MOL0     H71082   5.987  11.256   4.891 -0.1433 -0.0787  0.0193
  527MOL0     H71083   5.992  11.421   4.845  0.8374 -1.0298  3.7775
  527MOL0     H71084   6.194  11.365   4.674  0.4713  2.4140  0.8419
  527MOL0     H71085   6.213  11.213   4.746 -0.3366 -0.5402 -2.2880
  527MOL0     H71086   6.217  11.443   4.959  0.7085 -0.1895  0.5029
  527MOL0     H71087   6.319  11.295   4.932 -0.1987 -0.4757 -0.7055
  527MOL0     H71088   6.430  11.410   4.740  3.0146  1.5944  0.4969
  527MOL0     H71089   6.324  11.549   4.769  1.1225  0.9503  0.4702
  527MOL0     H71090   6.462  11.598   4.953 -1.1516 -0.3019 -0.8658
  527MOL0     H71091   6.542  11.439   4.967  2.2516 -0.0893 -1.4648
  527MOL0     H71092   6.568  11.624   4.730 -1.7207 -2.3207 -1.5064
  527MOL0     H71093   6.663  11.478   4.764 -2.2525 -0.4998  0.6235
  527MOL0     H71094   6.659  11.713   4.946 -0.9320 -0.9441  1.0244
  527MOL0     H71095   6.755  11.559   4.956 -0.9561 -1.5936 -2.0685
  527MOL0     H71096   6.943  11.527   4.696  0.4442  0.2094  0.0041
  527MOL0     H71097   7.042  11.675   4.480 -1.4588  3.1810 -1.4173
  527MOL0     H71098   7.086  11.841   4.517 -1.0539  0.5042 -1.0274
  527MOL0     H71099   7.228  11.734   4.710  0.4452 -1.8147  0.8574
  527MOL0     H71100   7.209  11.583   4.631  1.4814 -0.5954 -3.1903
  527MOL0     H71101   7.329  11.842   4.512  2.8572  0.2978  0.3076
  527MOL0     H71102   7.299  11.690   4.415  0.8068 -1.7789  0.9401
  527MOL0     H71103   7.471  11.710   4.673 -1.9141 -0.8721  0.1627
  527MOL0     H71104   7.529  11.732   4.510 -0.2270  0.4434 -0.0025
  527MOL0     H71105   7.751  11.630   4.595 -0.5367 -1.4425  2.1989
  527MOL0     H71106   7.929  11.510   4.517 -1.3546  3.9247 -0.0021
  527MOL0     H71107   8.198  11.179   4.596  0.0533  1.2173  0.3467
  527MOL0     H71108   8.410  11.072   4.540 -0.2017  0.8548  0.5216
  527MOL0     H71109   8.477  10.958   4.196 -0.1390 -1.1464  0.2292
  527MOL0     H71110   8.644  10.996   4.173 -1.2385  0.0033 -1.9046
  527MOL0     H71111   8.606  10.949   4.449 -0.2590 -0.9679  0.5090
  527MOL0     H71112   8.524  10.812   4.374  1.7094 -1.5415  0.8471
  527MOL0     H71113   8.746  10.768   4.226  0.7685 -0.5835  0.8951
  527MOL0     H71114   8.822  10.877   4.341  0.3475  1.2528  0.1770
  527MOL0     H71115   8.659  10.632   4.410  0.1289  0.3177 -0.2750
  527MOL0     H71116   8.747  10.748   4.517  2.1090  0.0189 -0.5576
  527MOL0     H71117   8.893  10.580   4.523 -1.2976 -1.2002  0.7756
  527MOL0     H71118   8.955  10.675   4.376  1.3990 -2.6491 -1.3002
  527MOL0     H71119   8.804  10.410   4.385  0.0173  0.8027  0.2387
  527MOL0     H71120   8.799  10.514   4.244 -3.2772  1.5301  2.4179
  527MOL0     H71121   8.975  10.331   4.283 -0.2301  0.2448  1.9245
  527MOL0     H71122   9.055  10.437   4.387 -1.8859 -1.9025  2.4332
  527MOL0     H71123   9.105  10.584   4.194  2.9566 -0.6335 -0.5660
  527MOL0     H71124   9.150  10.420   4.152  0.2692  0.7215 -2.8116
  527MOL0     H71125   8.400  11.236   4.137 -1.6905  0.1319 -0.6424
  527MOL0     H71126   8.174  11.340   4.202  0.7418  1.5409  0.6813
  527MOL0     H71127   7.677  11.235   4.307 -1.3087 -0.0076  1.3135
  527MOL0     H71128   7.470  11.345   4.406 -0.4949 -0.0600  2.1992
  527MOL0     H71129   5.839  11.217   4.451 -0.6236 -2.3596 -5.0639
  527MOL0     H71130   5.658  11.155   4.308 -2.1966  0.2338 -0.3180
  527MOL0     H71131   5.284  11.216   4.155 -1.1838  0.5228 -0.5285
  527MOL0     H71132   5.124  11.202   3.985 -1.0076 -1.3439 -0.0644
  527MOL0     H71133   4.740  10.992   3.895  3.9737 -1.0842 -4.5442
  527MOL0     H71134   4.731  10.973   4.061 -1.0107 -0.5363 -0.7931
  527MOL0     H71135   4.944  10.804   4.041 -0.5458 -1.6478  0.1948
  527MOL0     H71136   4.911  10.815   3.872 -1.5573 -0.5866 -1.2328
  527MOL0     H71137   4.711  10.734   4.088 -0.9287 -1.8231 -0.0971
  527MOL0     H71138   4.809  10.616   4.002  0.7955 -0.3357 -2.5771
  527MOL0     H71139   4.583  10.630   3.940 -0.2637  0.4645  0.2789
  527MOL0     H71140   4.614  10.797   3.869  0.4320  0.4982 -1.9722
  527MOL0     H71141   4.733  10.552   3.543 -0.1359  1.8117 -1.8611
  527MOL0     H71142   4.851  10.990   4.231 -0.4450 -0.0986 -0.8470
  527MOL0     H71143   4.882  10.966   4.465 -1.1788  1.3267 -0.2802
  527MOL0     H71144   5.049  10.902   4.476  4.2572  2.2140 -5.7526
  527MOL0     H71145   5.020  11.064   4.537  2.0069  0.6798 -0.1807
  528MOL0     O71146   1.322   4.596   0.823  0.0315  0.6475  0.1422
  528MOL0     C71147   1.396   4.553   0.910  0.2014 -0.4336 -0.4382
  528MOL0     O71148   1.383   4.430   0.972  0.0735 -0.1903 -0.8263
  528MOL0     C71149   1.291   4.338   0.926  0.8681 -0.7018  0.0193
  528MOL0     C71150   1.149   4.358   0.927  0.3535 -0.6030 -0.6492
  528MOL0     C71151   1.061   4.258   0.904 -0.1601 -0.5622 -1.0296
  528MOL0     C71152   1.092   4.133   0.862  0.6733  0.2230  1.2019
  528MOL0     O71153   0.981   4.048   0.847  0.1474  0.0615 -0.5401
  528MOL0     C71154   0.995   3.947   0.747  0.5344 -0.3735 -0.8144
  528MOL0     C71155   0.864   3.885   0.719  0.0007  0.2041 -1.1083
  528MOL0     C71156   0.845   3.827   0.586  0.2186 -0.4830 -0.3649
  528MOL0     C71157   0.727   3.730   0.586 -0.0673 -0.2414 -0.2899
  528MOL0     C71158   0.681   3.696   0.438  1.0446 -0.1723 -0.5381
  528MOL0     C71159   0.782   3.609   0.364  0.9220  0.5730 -0.4330
  528MOL0     C71160   0.754   3.626   0.213  0.8358 -0.3250  0.4385
  528MOL0     C71161   0.809   3.511   0.125  0.4365 -0.4337  0.8368
  528MOL0     N71162   0.817   3.565  -0.013  0.3096 -0.3607  0.2009
  528MOL0     C71163   0.931   3.624  -0.061 -0.8772  1.0025 -0.1699
  528MOL0     C71164   0.889   3.681  -0.174  0.8167  0.3809 -0.3391
  528MOL0     C71165   0.977   3.763  -0.260 -0.4549 -0.6296  0.3084
  528MOL0     C71166   1.117   3.712  -0.260  0.5612 -0.4710  0.6478
  528MOL0     C71167   1.203   3.753  -0.382  0.5042 -0.0728 -0.7245
  528MOL0     C71168   1.354   3.729  -0.346  0.9056  1.0441 -0.4415
  528MOL0     O71169   1.438   3.739  -0.460  0.1616  0.5824  0.5287
  528MOL0     C71170   1.576   3.739  -0.440  1.0335 -0.3335 -0.0669
  528MOL0     C71171   1.646   3.718  -0.310  0.4578  0.2897 -0.0695
  528MOL0     C71172   1.785   3.720  -0.317 -0.1499 -0.3681  0.1558
  528MOL0     C71173   1.849   3.717  -0.446 -0.5008  0.4476 -0.5092
  528MOL0     C71174   1.989   3.685  -0.456 -0.2640  0.0818 -0.7666
  528MOL0     O71175   2.069   3.727  -0.355  0.7235  0.4854  0.3645
  528MOL0     C71176   2.205   3.706  -0.369  1.3532 -0.0369 -0.2651
  528MOL0     C71177   2.280   3.821  -0.372 -0.0082  0.5170  0.4299
  528MOL0     C71178   2.416   3.807  -0.385 -0.3033 -0.9290  0.5734
  528MOL0     C71179   2.486   3.692  -0.374  0.0779 -0.3720  0.0122
  528MOL0     O71180   2.623   3.691  -0.410  0.4672  0.1332 -0.3765
  528MOL0     C71181   2.697   3.570  -0.379 -1.1599  0.8279 -0.0572
  528MOL0     C71182   2.850   3.597  -0.402 -0.1828  0.3958 -0.4113
  528MOL0     C71183   2.889   3.622  -0.543  0.0807 -0.2771  0.5034
  528MOL0     C71184   3.045   3.640  -0.548  0.8165  0.2620  0.3204
  528MOL0     C71185   3.098   3.663  -0.686 -0.0757  0.0488  0.9304
  528MOL0     C71186   3.262   3.677  -0.688 -0.0290  0.4882  0.2931
  528MOL0     C71187   3.331   3.688  -0.830  0.6321  0.2285 -0.0970
  528MOL0     C71188   3.477   3.667  -0.835  0.9141  0.2100  0.3327
  528MOL0    Cl71189   3.571   3.750  -0.697  0.0392  0.3046  0.0261
  528MOL0     C71190   2.402   3.573  -0.368  0.1900 -0.6743  0.0976
  528MOL0     C71191   2.260   3.582  -0.372  0.3657 -0.0385 -0.0550
  528MOL0     O71192   2.028   3.637  -0.560  0.3865  0.1117 -0.5508
  528MOL0     C71193   1.774   3.741  -0.565 -0.0174 -0.5070 -0.3546
  528MOL0     C71194   1.636   3.757  -0.557  0.8888  0.0716  0.0419
  528MOL0     N71195   0.751   3.676  -0.185 -0.1157  0.1026 -0.8691
  528MOL0     N71196   0.710   3.602  -0.084  0.5260 -0.4869 -0.2075
  528MOL0     C71197   1.229   4.120   0.842  0.3946  0.1552  0.9377
  528MOL0     C71198   1.335   4.215   0.878 -0.3872 -0.5253  0.1718
  528MOL0     C71199   1.513   4.621   0.968 -0.1640  0.8516  0.5008
  528MOL0     C71200   1.615   4.666   0.880 -0.1381  0.1572  0.0495
  528MOL0     C71201   1.726   4.734   0.930  0.5623  0.6534  0.4309
  528MOL0     C71202   1.734   4.756   1.065 -0.2957  0.0385  0.1516
  528MOL0     O71203   1.852   4.816   1.110  0.6088 -0.3520  0.6505
  528MOL0     C71204   1.921   4.767   1.222 -0.2852  1.8625 -0.2190
  528MOL0     C71205   2.075   4.763   1.209 -0.3421 -0.4900 -0.3777
  528MOL0     C71206   2.136   4.649   1.122  0.8151  0.2689  0.1552
  528MOL0     C71207   2.093   4.659   0.975  0.2164 -0.1276  0.3467
  528MOL0     C71208   2.184   4.584   0.892 -0.0206 -0.9852 -0.7854
  528MOL0     C71209   2.258   4.535   0.815  0.4485  0.4882 -0.0939
  528MOL0     C71210   1.637   4.720   1.154  0.0945  0.2937  0.6370
  528MOL0     C71211   1.516   4.658   1.105  0.6356  0.5699  0.0023
  528MOL0     C71212   1.406   4.638   1.209  0.3461  0.7712  0.6005
  528MOL0     H71213   1.117   4.458   0.953  1.7992 -0.5549  1.1840
  528MOL0     H71214   0.954   4.272   0.903  0.0909  1.6065 -1.4863
  528MOL0     H71215   1.021   4.000   0.655 -3.0042  3.5149  0.0670
  528MOL0     H71216   1.066   3.869   0.775 -1.2253 -1.3492  1.2157
  528MOL0     H71217   0.785   3.960   0.728  2.0901  2.4012  0.2994
  528MOL0     H71218   0.851   3.816   0.803 -1.9482 -0.3439 -1.8058
  528MOL0     H71219   0.942   3.778   0.569  1.6852  2.5389 -1.3237
  528MOL0     H71220   0.838   3.903   0.509  0.7714  1.1555  1.1254
  528MOL0     H71221   0.760   3.643   0.643  1.2752 -0.8765 -1.9590
  528MOL0     H71222   0.637   3.774   0.630 -0.3910  2.7013 -3.4547
  528MOL0     H71223   0.581   3.654   0.452 -0.3940  3.5721  1.5896
  528MOL0     H71224   0.671   3.787   0.379 -0.9200 -0.9583 -1.5155
  528MOL0     H71225   0.887   3.631   0.388  1.2150 -2.6627  1.8648
  528MOL0     H71226   0.765   3.503   0.383 -0.8223  1.2610  2.3442
  528MOL0     H71227   0.796   3.724   0.185  1.7953 -0.1743  2.2779
  528MOL0     H71228   0.647   3.621   0.195  0.9901 -0.9632 -0.4091
  528MOL0     H71229   0.908   3.484   0.163  1.1880 -1.6415 -1.8127
  528MOL0     H71230   0.746   3.421   0.127 -0.2056 -0.0158  0.0406
  528MOL0     H71231   1.032   3.614  -0.023 -1.3987 -3.3320  0.6121
  528MOL0     H71232   0.929   3.764  -0.358 -2.6255 -0.1830  1.3120
  528MOL0     H71233   0.982   3.862  -0.214  1.4215 -1.9281  3.2251
  528MOL0     H71234   1.175   3.738  -0.171  0.2615 -1.6404  1.2041
  528MOL0     H71235   1.104   3.604  -0.247  0.0309 -0.1183  3.9863
  528MOL0     H71236   1.189   3.861  -0.399  2.3401  0.6830  1.9321
  528MOL0     H71237   1.173   3.688  -0.464 -0.2017  0.1542 -0.6548
  528MOL0     H71238   1.362   3.626  -0.309 -1.4327  0.1145 -2.2301
  528MOL0     H71239   1.386   3.796  -0.266  1.3670  0.2488  0.0572
  528MOL0     H71240   1.602   3.713  -0.211 -0.0068  1.0550 -0.2271
  528MOL0     H71241   1.846   3.698  -0.229  1.0916 -0.0072 -0.5820
  528MOL0     H71242   2.233   3.919  -0.374  1.1425  1.0693 -1.4463
  528MOL0     H71243   2.469   3.901  -0.393 -0.5204 -0.7520  1.1671
  528MOL0     H71244   2.663   3.534  -0.282 -1.8207 -1.1417 -0.9620
  528MOL0     H71245   2.667   3.495  -0.452 -0.1170 -0.1445  0.4913
  528MOL0     H71246   2.886   3.667  -0.326  0.5131 -2.2404  1.8503
  528MOL0     H71247   2.895   3.501  -0.376  0.3682  0.4466 -1.1763
  528MOL0     H71248   2.855   3.540  -0.608 -2.1912  1.3320 -0.4730
  528MOL0     H71249   2.847   3.712  -0.589  1.2858 -0.8918 -1.9225
  528MOL0     H71250   3.090   3.550  -0.503  2.5479  2.2247  2.8065
  528MOL0     H71251   3.057   3.730  -0.487 -0.1667  1.1095 -0.6926
  528MOL0     H71252   3.050   3.745  -0.740  0.5796 -1.0217 -1.3679
  528MOL0     H71253   3.073   3.568  -0.733 -0.0393  0.6852 -0.4268
  528MOL0     H71254   3.292   3.766  -0.631  0.5148 -0.9812  2.3962
  528MOL0     H71255   3.293   3.591  -0.629 -4.2185 -0.3237  1.5937
  528MOL0     H71256   3.309   3.788  -0.868  0.3683 -0.7494 -2.7885
  528MOL0     H71257   3.291   3.626  -0.911 -0.1673  1.7848 -0.9332
  528MOL0     H71258   3.501   3.561  -0.843 -0.7245 -0.0654 -1.4924
  528MOL0     H71259   3.512   3.703  -0.932  0.9845 -2.2493 -0.6061
  528MOL0     H71260   2.448   3.476  -0.361  0.1754 -0.6493  0.6126
  528MOL0     H71261   2.201   3.492  -0.365 -0.4923  0.4526 -0.7502
  528MOL0     H71262   1.819   3.745  -0.664  1.6583  3.0323  0.3806
  528MOL0     H71263   1.569   3.773  -0.641  1.4670  1.0846 -0.2433
  528MOL0     H71264   1.266   4.033   0.788 -0.6067  0.6733 -0.6197
  528MOL0     H71265   1.437   4.186   0.856 -1.2322 -2.0670 -2.0470
  528MOL0     H71266   1.621   4.658   0.772  0.5948 -1.9371  0.2034
  528MOL0     H71267   1.807   4.767   0.865  0.4544 -0.6141 -0.3789
  528MOL0     H71268   1.898   4.660   1.225  0.9710  1.5824  0.1859
  528MOL0     H71269   1.891   4.818   1.314 -0.8834 -0.5381  1.0198
  528MOL0     H71270   2.108   4.767   1.313 -2.3695  0.2727  0.2881
  528MOL0     H71271   2.095   4.860   1.162  1.0031 -0.1265  0.8880
  528MOL0     H71272   2.118   4.544   1.146  1.7912 -0.6795 -2.8133
  528MOL0     H71273   2.244   4.668   1.128  0.9264  0.1915 -1.1895
  528MOL0     H71274   1.989   4.634   0.953  0.0605  1.6984 -1.2268
  528MOL0     H71275   2.090   4.764   0.947 -3.4632  0.7404  3.2417
  528MOL0     H71276   2.313   4.470   0.750  2.0420 -0.7812  2.3355
  528MOL0     H71277   1.646   4.750   1.258  0.0592 -0.6337  0.9157
  528MOL0     H71278   1.320   4.703   1.196 -0.7771 -0.9247 -1.1093
  528MOL0     H71279   1.368   4.535   1.205 -1.2921  1.3636  0.0198
  528MOL0     H71280   1.449   4.650   1.309  3.3156 -2.3938 -0.1010
  529MOL0     O71281   4.247   5.061   4.875 -0.3173  0.5512  0.5923
  529MOL0     C71282   4.204   5.021   4.766  0.4937  0.5274 -0.5436
  529MOL0     O71283   4.277   4.960   4.661 -0.8024 -0.7133 -0.5165
  529MOL0     C71284   4.411   4.943   4.688 -0.2592  0.2704 -1.1859
  529MOL0     C71285   4.466   4.821   4.747 -0.4272 -0.2405  0.7037
  529MOL0     C71286   4.607   4.809   4.751  0.1563  0.0723  1.0548
  529MOL0     C71287   4.687   4.907   4.700 -0.6908  0.0754 -0.0416
  529MOL0     O71288   4.822   4.888   4.723 -0.6884 -0.1106  0.2415
  529MOL0     C71289   4.917   4.955   4.633 -1.0929  0.3698  0.1163
  529MOL0     C71290   5.054   4.894   4.659 -0.9646 -0.8937 -0.0482
  529MOL0     C71291   5.056   4.745   4.619 -0.8339 -0.1429 -0.8373
  529MOL0     C71292   5.185   4.670   4.625 -0.1570 -0.6534  0.0163
  529MOL0     C71293   5.278   4.722   4.515  0.0694  0.2156 -0.1990
  529MOL0     C71294   5.384   4.612   4.499 -0.3775  0.9624  0.0596
  529MOL0     C71295   5.470   4.658   4.381 -0.3094 -0.0253 -0.7520
  529MOL0     C71296   5.406   4.640   4.242  0.0080 -0.6235 -0.7323
  529MOL0     N71297   5.363   4.503   4.209  0.0347 -0.3159  0.2438
  529MOL0     C71298   5.244   4.456   4.244 -0.5354  0.0464  0.4597
  529MOL0     C71299   5.249   4.327   4.192 -0.6757 -0.8529 -0.0758
  529MOL0     C71300   5.155   4.212   4.230 -0.1889  0.0284 -0.3922
  529MOL0     C71301   5.026   4.220   4.145 -0.5092 -0.2088  0.5844
  529MOL0     C71302   4.969   4.077   4.123  0.4331 -0.5269 -1.0657
  529MOL0     C71303   5.034   3.995   4.008  0.3167  0.3894 -0.1134
  529MOL0     O71304   5.172   3.965   4.047 -0.2047 -0.1633  0.8508
  529MOL0     C71305   5.272   3.967   3.958  0.0582 -0.2806 -0.4131
  529MOL0     C71306   5.283   4.064   3.863  0.7793  0.4134 -0.7304
  529MOL0     C71307   5.385   4.061   3.776  0.5412 -1.0305  0.0120
  529MOL0     C71308   5.471   3.949   3.765 -0.2534 -0.2020 -0.6048
  529MOL0     C71309   5.575   3.950   3.661  0.2719 -0.1319 -0.4234
  529MOL0     O71310   5.568   4.040   3.565 -0.4110  0.1876  0.2069
  529MOL0     C71311   5.640   4.030   3.445 -0.2244  0.3826  0.6669
  529MOL0     C71312   5.767   4.079   3.434 -0.1719 -0.2487  0.4803
  529MOL0     C71313   5.844   4.090   3.318  0.5136  0.1070  0.6649
  529MOL0     C71314   5.779   4.043   3.191  0.0447  0.7845  0.1778
  529MOL0     O71315   5.826   4.043   3.065 -0.1527 -0.0705 -0.3619
  529MOL0     C71316   5.944   4.127   3.054 -0.9017  0.7246  0.6905
  529MOL0     C71317   6.001   4.129   2.909 -0.4559  0.0096 -0.9581
  529MOL0     C71318   6.019   3.988   2.860 -0.3431 -0.6937  0.1747
  529MOL0     C71319   6.085   3.985   2.721 -0.1041  0.5945  0.4968
  529MOL0     C71320   6.147   3.844   2.691 -0.2219 -0.9383  0.2424
  529MOL0     C71321   6.255   3.797   2.793  0.0623  0.3845 -0.1688
  529MOL0     C71322   6.331   3.681   2.737 -0.6190 -0.1297  0.8044
  529MOL0     C71323   6.416   3.611   2.850  0.3885  0.5216 -0.1676
  529MOL0    Cl71324   6.549   3.712   2.911 -0.0678 -0.1321  0.1037
  529MOL0     C71325   5.650   3.982   3.199 -0.4138  0.0512  0.2867
  529MOL0     C71326   5.586   3.981   3.325 -0.2797  0.3670 -0.1735
  529MOL0     O71327   5.665   3.868   3.664  0.0305 -0.0636  0.3260
  529MOL0     C71328   5.463   3.851   3.869 -0.6325 -0.0084 -0.1590
  529MOL0     C71329   5.361   3.859   3.961  0.4132 -0.6081 -1.0150
  529MOL0     N71330   5.364   4.310   4.114  0.6020 -0.1111 -0.6660
  529MOL0     N71331   5.427   4.424   4.122  0.7165 -0.0448 -0.8983
  529MOL0     C71332   4.638   5.027   4.648  0.6842  0.2692  0.1055
  529MOL0     C71333   4.503   5.043   4.634  0.5095  0.4706 -0.4353
  529MOL0     C71334   4.050   5.018   4.742  0.0515 -0.7938 -0.6833
  529MOL0     C71335   4.006   4.952   4.625  0.4174 -0.3479  0.3812
  529MOL0     C71336   3.868   4.949   4.600  0.0480  0.3086 -0.6360
  529MOL0     C71337   3.774   4.995   4.690 -0.4301 -0.0447 -0.0856
  529MOL0     O71338   3.637   4.980   4.675  0.0343 -0.6197  0.1117
  529MOL0     C71339   3.586   4.924   4.554  0.9638 -0.4886 -0.3343
  529MOL0     C71340   3.440   4.871   4.558 -0.8740 -0.7653 -0.6448
  529MOL0     C71341   3.388   4.812   4.695  0.1166  0.5696 -0.1602
  529MOL0     C71342   3.235   4.784   4.688  0.1864 -0.2552 -0.0359
  529MOL0     C71343   3.167   4.913   4.715  0.1933 -0.7195 -0.0411
  529MOL0     C71344   3.105   5.022   4.727 -0.1342 -0.4513  0.2414
  529MOL0     C71345   3.819   5.051   4.811 -0.7291 -0.0294  0.0170
  529MOL0     C71346   3.952   5.061   4.839 -0.2175 -0.5408 -0.0985
  529MOL0     C71347   3.985   5.117   4.968 -0.1312 -0.2929  0.3587
  529MOL0     H71348   4.403   4.752   4.801 -0.6524  0.8526  1.9002
  529MOL0     H71349   4.649   4.719   4.793 -0.8679 -1.7994 -1.6527
  529MOL0     H71350   4.892   4.938   4.528  0.4869 -0.3430 -0.1606
  529MOL0     H71351   4.933   5.062   4.646  1.4653  0.2449 -1.2979
  529MOL0     H71352   5.078   4.905   4.766 -0.1669  0.3493 -0.3295
  529MOL0     H71353   5.121   4.949   4.592  0.7420 -1.9718  0.7097
  529MOL0     H71354   5.013   4.739   4.519 -2.3519  2.9396 -0.4981
  529MOL0     H71355   4.989   4.690   4.686 -0.1990 -1.7135 -1.4458
  529MOL0     H71356   5.235   4.674   4.722 -0.7092  0.6126  0.2671
  529MOL0     H71357   5.158   4.567   4.597 -1.6926  0.0172 -1.0919
  529MOL0     H71358   5.224   4.731   4.420 -0.7354 -0.6427  0.1515
  529MOL0     H71359   5.316   4.821   4.541 -0.6408  0.1497  1.2185
  529MOL0     H71360   5.433   4.603   4.597 -1.4778  0.9243  0.6215
  529MOL0     H71361   5.347   4.510   4.480 -3.0941  1.7814  0.5145
  529MOL0     H71362   5.564   4.602   4.377  0.3751  1.1416 -2.4720
  529MOL0     H71363   5.497   4.764   4.385 -0.2232 -0.0586  3.1478
  529MOL0     H71364   5.324   4.712   4.239  0.8051  0.5223  2.1006
  529MOL0     H71365   5.479   4.678   4.169 -1.4929  2.6591 -0.7154
  529MOL0     H71366   5.176   4.494   4.319 -1.5615  0.2994 -0.5695
  529MOL0     H71367   5.213   4.122   4.207  0.2994  0.6963 -1.9078
  529MOL0     H71368   5.132   4.222   4.337 -0.0359  0.6431 -0.4149
  529MOL0     H71369   4.949   4.279   4.194 -2.3956  0.1039 -2.5266
  529MOL0     H71370   5.042   4.265   4.047  0.5658  1.3100  1.4092
  529MOL0     H71371   4.863   4.096   4.104  0.5276 -0.2996 -1.3738
  529MOL0     H71372   4.985   4.017   4.213  1.8375 -0.1906 -1.0758
  529MOL0     H71373   5.020   4.056   3.919  1.6029  5.1366  2.6057
  529MOL0     H71374   4.976   3.903   3.998 -0.8734  0.9025  1.5298
  529MOL0     H71375   5.220   4.152   3.862  0.7227  0.3703 -1.4878
  529MOL0     H71376   5.395   4.143   3.705 -2.9581  0.0001  0.5002
  529MOL0     H71377   5.822   4.124   3.516  3.8193 -1.2790 -1.3801
  529MOL0     H71378   5.942   4.136   3.317  0.0062  1.6639 -4.2747
  529MOL0     H71379   5.921   4.231   3.081  1.0479  1.5378 -0.5672
  529MOL0     H71380   6.017   4.082   3.121 -0.3892 -1.4034 -1.1962
  529MOL0     H71381   5.947   4.186   2.833  1.8233  0.5809 -2.2656
  529MOL0     H71382   6.100   4.176   2.910 -0.4934  0.1031  0.3587
  529MOL0     H71383   6.077   3.930   2.932 -0.0570  0.5234  0.9578
  529MOL0     H71384   5.923   3.937   2.845  0.2143 -1.4828 -0.7892
  529MOL0     H71385   6.165   4.059   2.717  0.2665  0.3194  2.0618
  529MOL0     H71386   6.001   4.004   2.653 -1.5408 -1.4586  1.5573
  529MOL0     H71387   6.196   3.856   2.594  2.3398 -1.1488  1.4217
  529MOL0     H71388   6.069   3.767   2.685 -0.9730 -0.0718 -2.4792
  529MOL0     H71389   6.315   3.883   2.823 -1.3370  0.4578  2.6810
  529MOL0     H71390   6.206   3.771   2.887 -1.7976  3.6986 -0.0753
  529MOL0     H71391   6.396   3.714   2.656 -3.3470  0.1055 -1.4348
  529MOL0     H71392   6.248   3.621   2.697 -0.8643 -1.1600  2.7039
  529MOL0     H71393   6.347   3.584   2.931 -0.0917  1.2089 -0.3361
  529MOL0     H71394   6.471   3.530   2.802  1.5684  0.5935  0.9875
  529MOL0     H71395   5.598   3.942   3.113  0.6857 -0.3213 -0.2157
  529MOL0     H71396   5.486   3.939   3.317 -0.9083  2.0001 -1.7300
  529MOL0     H71397   5.527   3.764   3.880 -0.8079  0.1199  2.8887
  529MOL0     H71398   5.335   3.792   4.043 -1.1714 -0.2124 -1.1605
  529MOL0     H71399   4.706   5.102   4.609  1.0813  0.0552  0.3792
  529MOL0     H71400   4.439   5.122   4.597 -0.3868 -0.1180 -0.1832
  529MOL0     H71401   4.062   4.914   4.540 -2.3674  1.8441 -2.6364
  529MOL0     H71402   3.832   4.892   4.515 -0.6269  0.3722 -0.3942
  529MOL0     H71403   3.640   4.833   4.525 -1.0017 -0.8328 -3.4120
  529MOL0     H71404   3.582   4.999   4.475 -2.7067  0.1137  0.2224
  529MOL0     H71405   3.436   4.806   4.470  1.4514  2.3715 -3.3470
  529MOL0     H71406   3.386   4.964   4.540  1.0680  0.4575 -0.4751
  529MOL0     H71407   3.409   4.882   4.776 -4.0277  1.6979  0.1794
  529MOL0     H71408   3.435   4.717   4.723 -0.4723  0.6510  1.2134
  529MOL0     H71409   3.219   4.750   4.585  4.4294  0.0993 -0.9845
  529MOL0     H71410   3.200   4.706   4.756 -0.9716  1.5880  1.5928
  529MOL0     H71411   3.043   5.107   4.745  0.0369 -0.5749  1.5079
  529MOL0     H71412   3.739   5.074   4.881 -0.7928  1.4636 -0.5069
  529MOL0     H71413   3.896   5.152   5.021 -0.4151  1.3423 -1.1059
  529MOL0     H71414   4.039   5.044   5.029 -1.2939 -0.4916  1.1909
  529MOL0     H71415   4.051   5.205   4.962 -1.7177  1.0619  1.6839
  530MOL0     O71416   0.713   6.961  10.818 -0.2963 -0.3279 -0.2421
  530MOL0     C71417   0.632   6.984  10.912 -0.2591  0.0503  0.6021
  530MOL0     O71418   0.672   7.007  11.044  0.2724  0.2239  0.1980
  530MOL0     C71419   0.805   7.038  11.069  0.4619 -0.4975  0.2507
  530MOL0     C71420   0.829   7.131  11.165 -0.3775 -0.2198  0.0795
  530MOL0     C71421   0.963   7.163  11.199  0.4626 -1.7230  0.1618
  530MOL0     C71422   1.073   7.098  11.145  0.2164  0.4066 -0.6697
  530MOL0     O71423   1.201   7.141  11.175 -0.0660 -0.5963 -0.4552
  530MOL0     C71424   1.313   7.067  11.144  0.1917  0.3743 -0.2829
  530MOL0     C71425   1.441   7.124  11.202  0.4081  0.5494 -0.4651
  530MOL0     C71426   1.550   7.010  11.166  0.4623 -0.1344 -0.1747
  530MOL0     C71427   1.692   7.057  11.211  0.2013 -0.4239 -0.7525
  530MOL0     C71428   1.792   6.936  11.212  0.3687  0.4962 -0.0634
  530MOL0     C71429   1.930   6.977  11.260  0.9446 -0.3097 -0.2769
  530MOL0     C71430   1.996   7.101  11.192  0.7426  0.0067 -0.4646
  530MOL0     C71431   2.152   7.080  11.182  0.7519  0.2027  0.0441
  530MOL0     N71432   2.221   7.065  11.308  0.6548  0.3151  0.7745
  530MOL0     C71433   2.209   6.953  11.388 -1.0664 -0.1668 -0.8854
  530MOL0     C71434   2.309   6.977  11.475  0.6492  0.8157 -0.3850
  530MOL0     C71435   2.363   6.877  11.567  0.0988  0.5866 -0.3823
  530MOL0     C71436   2.403   6.753  11.498 -0.4783  0.2092 -0.3188
  530MOL0     C71437   2.465   6.646  11.591  0.7435 -0.2050 -0.1895
  530MOL0     C71438   2.621   6.669  11.614  0.2429  0.0177  0.6337
  530MOL0     O71439   2.652   6.797  11.666 -0.1146 -0.7199  0.7001
  530MOL0     C71440   2.787   6.832  11.682  0.1898  0.3572 -0.2033
  530MOL0     C71441   2.896   6.774  11.621  0.1218  0.0349  0.6094
  530MOL0     C71442   3.023   6.821  11.648 -1.0222 -0.0795  0.2016
  530MOL0     C71443   3.047   6.924  11.741 -0.7599 -0.2718 -1.0374
  530MOL0     C71444   3.184   6.989  11.758 -0.2769 -0.0086  0.0197
  530MOL0     O71445   3.286   6.939  11.675  0.0885  0.3627 -0.6887
  530MOL0     C71446   3.408   7.007  11.685  0.0580 -0.2693  0.0534
  530MOL0     C71447   3.416   7.133  11.625  0.6560  1.0502 -0.2117
  530MOL0     C71448   3.540   7.196  11.614 -0.9639 -0.8501 -0.6923
  530MOL0     C71449   3.656   7.142  11.662 -0.0643  0.5543  1.1909
  530MOL0     O71450   3.781   7.202  11.640  0.6712  0.3755 -0.8892
  530MOL0     C71451   3.876   7.193  11.747  0.1937  0.0196 -0.1767
  530MOL0     C71452   3.812   7.262  11.875 -0.5588 -0.1355  0.6527
  530MOL0     C71453   3.809   7.420  11.870  0.2331 -1.0319  0.4924
  530MOL0     C71454   3.931   7.483  11.943  0.6573  0.3993  0.1257
  530MOL0     C71455   3.928   7.642  11.950  0.0643 -0.2531  0.1268
  530MOL0     C71456   4.055   7.677  12.015 -0.7351 -0.1330 -0.2542
  530MOL0     C71457   4.055   7.836  12.027 -0.2088  0.1684 -0.3086
  530MOL0     C71458   4.197   7.891  12.039 -0.0159 -0.0968 -0.1126
  530MOL0    Cl71459   4.252   7.844  12.199 -0.0318  0.2268 -0.0298
  530MOL0     C71460   3.646   7.013  11.723  0.2374  0.4198  0.0447
  530MOL0     C71461   3.520   6.952  11.735  0.5283  0.2635 -0.3220
  530MOL0     O71462   3.194   7.085  11.825 -0.3123 -0.5270  0.0112
  530MOL0     C71463   2.938   6.985  11.810 -0.0122  0.8638  0.7553
  530MOL0     C71464   2.808   6.939  11.774 -0.7575 -0.4854 -0.9436
  530MOL0     N71465   2.361   7.103  11.462  0.3074  0.6476  0.6260
  530MOL0     N71466   2.306   7.157  11.356 -0.0790 -0.6371 -0.1593
  530MOL0     C71467   1.044   6.991  11.064 -0.2699 -0.0127  0.1737
  530MOL0     C71468   0.913   6.962  11.017 -0.4334 -0.3575 -0.7487
  530MOL0     C71469   0.488   6.990  10.879  0.2005 -0.5458  0.0688
  530MOL0     C71470   0.448   6.961  10.746  0.2625  0.3770 -0.0830
  530MOL0     C71471   0.312   6.961  10.704  0.0518 -0.6942  0.3484
  530MOL0     C71472   0.210   6.989  10.793 -0.3783 -0.0180  0.0293
  530MOL0     O71473   0.079   7.005  10.758  0.8150  0.2709 -0.3710
  530MOL0     C71474   0.020   6.910  10.665 -0.0527 -0.4180 -0.3719
  530MOL0     C71475  -0.126   6.908  10.715  0.5443 -0.4692  0.3709
  530MOL0     C71476  -0.212   6.813  10.629  0.2825  0.8524 -0.0234
  530MOL0     C71477  -0.337   6.754  10.707  0.5826  0.5888  0.1165
  530MOL0     C71478  -0.432   6.848  10.765 -0.9640  0.0040 -0.2254
  530MOL0     C71479  -0.508   6.925  10.829 -0.4255 -0.0166 -0.8655
  530MOL0     C71480   0.245   7.019  10.924 -0.7467 -0.4775  0.3558
  530MOL0     C71481   0.382   7.016  10.970  0.3814 -0.4185 -0.4573
  530MOL0     C71482   0.403   7.059  11.115 -0.5109  0.0789 -0.0921
  530MOL0     H71483   0.745   7.177  11.215  1.3722  1.0415  2.0016
  530MOL0     H71484   0.984   7.247  11.264 -1.1135 -3.2870  2.8901
  530MOL0     H71485   1.287   6.971  11.190  0.7775 -0.7873 -2.2071
  530MOL0     H71486   1.319   7.060  11.035 -1.4819  0.7582 -0.4277
  530MOL0     H71487   1.435   7.134  11.310 -0.1846 -1.2422 -0.3046
  530MOL0     H71488   1.464   7.223  11.161  5.5214 -0.4233 -0.6461
  530MOL0     H71489   1.548   6.985  11.060 -0.3555 -0.5849 -0.0596
  530MOL0     H71490   1.519   6.925  11.227 -1.0228  0.4658 -0.0431
  530MOL0     H71491   1.726   7.138  11.146 -0.2539 -0.8441 -1.5312
  530MOL0     H71492   1.695   7.101  11.311 -1.2066  2.1463 -1.7416
  530MOL0     H71493   1.755   6.850  11.269  1.7027  0.2748  0.5177
  530MOL0     H71494   1.798   6.902  11.108  0.8465  0.5969 -0.0713
  530MOL0     H71495   1.926   6.985  11.369  0.0092  0.3170 -0.3465
  530MOL0     H71496   1.999   6.894  11.241  2.6539  1.5708 -2.9245
  530MOL0     H71497   1.974   7.194  11.246  0.9470 -0.6867  0.8431
  530MOL0     H71498   1.949   7.116  11.095 -0.5568  1.1967  0.3077
  530MOL0     H71499   2.177   7.011  11.101  0.9632  0.5649 -0.2016
  530MOL0     H71500   2.197   7.166  11.133  1.6638 -0.6817 -0.7163
  530MOL0     H71501   2.136   6.873  11.390  0.0215 -1.2146  1.8012
  530MOL0     H71502   2.444   6.919  11.627 -0.7293 -1.2269  2.1696
  530MOL0     H71503   2.275   6.859  11.629 -0.7552  1.3461 -1.3394
  530MOL0     H71504   2.313   6.696  11.475  1.2729 -2.7624 -0.3664
  530MOL0     H71505   2.462   6.772  11.407  1.5620 -1.7019  0.4900
  530MOL0     H71506   2.442   6.547  11.550  0.9705  0.3646 -1.7408
  530MOL0     H71507   2.428   6.653  11.694  0.2648 -2.6102 -0.1201
  530MOL0     H71508   2.671   6.659  11.517  1.3232  0.4067  1.1390
  530MOL0     H71509   2.665   6.589  11.674  0.9500 -0.8718 -0.9924
  530MOL0     H71510   2.873   6.689  11.557 -1.8530 -1.4190  3.0605
  530MOL0     H71511   3.105   6.772  11.598 -0.2958 -1.1418  2.3086
  530MOL0     H71512   3.327   7.175  11.577  0.2496 -2.0104 -2.4668
  530MOL0     H71513   3.538   7.291  11.562  1.9097 -1.7429 -2.6628
  530MOL0     H71514   3.909   7.090  11.762 -0.9567 -0.7083 -2.2598
  530MOL0     H71515   3.963   7.250  11.712 -2.0428  4.0352  0.2082
  530MOL0     H71516   3.710   7.229  11.895 -0.8648  1.1140  1.2491
  530MOL0     H71517   3.874   7.253  11.965 -1.1552  2.1679  1.3579
  530MOL0     H71518   3.800   7.452  11.766  1.8513 -1.1403  0.2892
  530MOL0     H71519   3.717   7.461  11.913 -1.0998 -1.9225 -1.3560
  530MOL0     H71520   4.012   7.441  11.883 -0.0919  0.0946 -0.6901
  530MOL0     H71521   3.949   7.452  12.046 -0.2748 -0.5127  0.0295
  530MOL0     H71522   3.835   7.673  11.998  0.0286  1.0252 -0.7379
  530MOL0     H71523   3.925   7.689  11.852 -1.4438  1.2388  0.8385
  530MOL0     H71524   4.074   7.626  12.110  0.6522 -1.1307 -1.0401
  530MOL0     H71525   4.143   7.656  11.955  0.1276  1.4446  0.3927
  530MOL0     H71526   3.994   7.859  12.115  1.2683  0.8880  0.5754
  530MOL0     H71527   4.016   7.885  11.938  1.2279  1.0261 -0.4979
  530MOL0     H71528   4.259   7.856  11.957  1.6802  0.7089  0.7833
  530MOL0     H71529   4.194   8.001  12.042  0.6294  0.0307 -2.3009
  530MOL0     H71530   3.725   6.961  11.776 -1.8563 -1.4798  1.5131
  530MOL0     H71531   3.509   6.849  11.768  2.3374 -0.0084 -0.4283
  530MOL0     H71532   2.946   7.066  11.881 -1.1371 -0.0455  1.9735
  530MOL0     H71533   2.728   6.996  11.819 -0.7063  0.2497 -1.7677
  530MOL0     H71534   1.131   6.932  11.036 -0.2380  1.2764 -2.7280
  530MOL0     H71535   0.898   6.882  10.945 -0.9343 -1.0474  0.1076
  530MOL0     H71536   0.517   6.931  10.668  0.2982 -1.9757  0.7640
  530MOL0     H71537   0.302   6.936  10.599 -0.8300 -0.5838  0.3967
  530MOL0     H71538   0.069   6.813  10.675  1.7617  0.4391 -0.5025
  530MOL0     H71539   0.031   6.947  10.563  2.1120 -2.9434 -1.1627
  530MOL0     H71540  -0.168   7.009  10.704 -1.8739 -1.5985 -1.8113
  530MOL0     H71541  -0.128   6.890  10.822 -0.3892 -0.9918  0.2760
  530MOL0     H71542  -0.167   6.721  10.591 -0.9844  1.2911 -2.8496
  530MOL0     H71543  -0.243   6.871  10.541  0.7025  0.3485 -0.5143
  530MOL0     H71544  -0.396   6.700  10.632  0.2818 -1.3914  1.6713
  530MOL0     H71545  -0.304   6.682  10.783  1.5561  1.7934  0.8556
  530MOL0     H71546  -0.564   7.003  10.877  1.1278 -0.1050  1.2158
  530MOL0     H71547   0.158   7.048  10.983 -0.2201 -0.8241  1.3292
  530MOL0     H71548   0.471   6.985  11.159 -0.8630 -0.6543 -0.7427
  530MOL0     H71549   0.456   7.154  11.121 -0.8230  0.1694  2.4583
  530MOL0     H71550   0.305   7.071  11.162 -0.3770  1.3449 -0.1205
  531MOL0     O71551   4.976   6.408   9.436 -0.9676 -0.4012 -0.8466
  531MOL0     C71552   4.910   6.434   9.335 -0.4772  0.5074 -0.1398
  531MOL0     O71553   4.962   6.466   9.211  0.0823 -0.0230 -0.5528
  531MOL0     C71554   5.098   6.448   9.183 -0.4964 -0.2887  0.6385
  531MOL0     C71555   5.195   6.368   9.250  0.9343  0.5651  0.3072
  531MOL0     C71556   5.321   6.353   9.199  0.2024  0.3251  0.0148
  531MOL0     C71557   5.365   6.409   9.079 -0.2093  1.1534 -0.0699
  531MOL0     O71558   5.485   6.378   9.032 -0.8454 -0.3288  0.0045
  531MOL0     C71559   5.568   6.490   8.995 -0.1478 -0.1318  0.6655
  531MOL0     C71560   5.706   6.441   8.949  0.4314  0.2218 -0.1165
  531MOL0     C71561   5.784   6.376   9.063  0.2431 -0.3977 -0.3502
  531MOL0     C71562   5.931   6.340   9.022 -0.3304 -0.5247 -0.2719
  531MOL0     C71563   6.013   6.467   9.007  0.0874 -0.3556 -0.4795
  531MOL0     C71564   6.150   6.430   8.979 -0.2675  0.1451  0.0318
  531MOL0     C71565   6.243   6.551   8.955  0.6422 -0.1204 -0.1890
  531MOL0     C71566   6.394   6.510   8.929  0.2702  0.0836 -0.2891
  531MOL0     N71567   6.458   6.608   8.834  0.6638 -0.0134  0.4572
  531MOL0     C71568   6.461   6.601   8.692  0.0838 -1.2057  0.1355
  531MOL0     C71569   6.544   6.702   8.649 -0.0025 -0.0818 -0.4284
  531MOL0     C71570   6.591   6.732   8.509 -0.4563 -0.6852 -0.4137
  531MOL0     C71571   6.623   6.606   8.429  0.3275 -0.4553  0.3810
  531MOL0     C71572   6.736   6.614   8.326 -0.0755  0.7210  0.5155
  531MOL0     C71573   6.726   6.499   8.229 -0.6924  0.1936  0.9261
  531MOL0     O71574   6.780   6.539   8.108  0.6773 -0.8669  0.2120
  531MOL0     C71575   6.918   6.545   8.096  0.3652 -0.9088  0.3223
  531MOL0     C71576   7.009   6.530   8.203 -0.2726  0.2027  0.3013
  531MOL0     C71577   7.146   6.548   8.179  0.1105 -1.1888 -0.5215
  531MOL0     C71578   7.199   6.568   8.045  0.1061  0.1466 -0.5284
  531MOL0     C71579   7.342   6.549   8.026  0.3351  0.4356 -0.7760
  531MOL0     O71580   7.414   6.533   8.138  0.2183  0.1508 -0.1841
  531MOL0     C71581   7.545   6.526   8.119  0.6027  0.4925 -1.0013
  531MOL0     C71582   7.630   6.634   8.112  0.1447 -0.7691  0.0753
  531MOL0     C71583   7.771   6.613   8.103 -0.0107  0.0799  1.3100
  531MOL0     C71584   7.819   6.481   8.094 -0.2909  0.3612  0.1199
  531MOL0     O71585   7.952   6.457   8.069  0.0430  0.2077  0.1684
  531MOL0     C71586   7.980   6.393   7.939  0.6831 -0.1560  0.5213
  531MOL0     C71587   8.131   6.395   7.913 -0.2054  0.0431  0.3120
  531MOL0     C71588   8.155   6.308   7.787  0.6701  0.5338  0.1096
  531MOL0     C71589   8.283   6.226   7.809  0.5877  0.9436  0.3273
  531MOL0     C71590   8.304   6.128   7.693  0.0390  0.4450  0.0363
  531MOL0     C71591   8.198   6.020   7.686  0.7546 -0.1070  0.5989
  531MOL0     C71592   8.223   5.893   7.603  0.2405 -0.1406  0.4619
  531MOL0     C71593   8.248   5.924   7.454  0.0767  0.7356  0.5459
  531MOL0    Cl71594   8.098   5.997   7.374  0.2697 -0.0302  0.2984
  531MOL0     C71595   7.732   6.377   8.108 -0.0780  0.2389  0.5885
  531MOL0     C71596   7.597   6.397   8.127 -0.1190 -0.5105 -0.3785
  531MOL0     O71597   7.383   6.536   7.909 -0.3278  0.6353  0.0906
  531MOL0     C71598   7.097   6.575   7.944 -1.0267 -0.8271 -0.5456
  531MOL0     C71599   6.966   6.577   7.970 -0.1371 -0.0876  0.0810
  531MOL0     N71600   6.596   6.756   8.762 -0.3143  0.1505  0.6147
  531MOL0     N71601   6.541   6.706   8.868 -0.3102  0.0091  0.5282
  531MOL0     C71602   5.267   6.498   9.018 -0.1729  0.6447 -0.6036
  531MOL0     C71603   5.140   6.513   9.067 -0.0076 -0.7943 -0.4815
  531MOL0     C71604   4.768   6.450   9.359  0.5625 -0.3132 -1.1676
  531MOL0     C71605   4.718   6.479   9.491  0.7948 -0.2149  0.0861
  531MOL0     C71606   4.579   6.491   9.505  0.4395 -0.2933 -0.6607
  531MOL0     C71607   4.493   6.493   9.395  0.0499 -0.4708  0.1505
  531MOL0     O71608   4.357   6.509   9.407 -0.2561 -0.3808 -0.2196
  531MOL0     C71609   4.284   6.515   9.531  0.3475 -0.1118 -0.2358
  531MOL0     C71610   4.243   6.373   9.570 -0.0447 -0.0715  0.2804
  531MOL0     C71611   4.114   6.331   9.496 -0.2529  0.2605  0.2373
  531MOL0     C71612   3.991   6.337   9.587  0.5828  0.2893  0.3457
  531MOL0     C71613   3.865   6.300   9.517 -0.2454  0.2665 -0.3274
  531MOL0     C71614   3.764   6.268   9.450 -0.6720  0.2502  0.1307
  531MOL0     C71615   4.542   6.466   9.267 -0.7923 -0.3287 -0.2273
  531MOL0     C71616   4.674   6.442   9.254  0.5927  0.0315 -0.0855
  531MOL0     C71617   4.714   6.402   9.109  0.1479  0.2100  0.3814
  531MOL0     H71618   5.167   6.303   9.332 -0.0663 -1.1689 -1.3368
  531MOL0     H71619   5.379   6.269   9.237  0.7009  1.4619  1.8545
  531MOL0     H71620   5.521   6.540   8.910  1.5946 -0.7154 -0.7034
  531MOL0     H71621   5.594   6.558   9.078 -0.3144  1.3342 -0.4408
  531MOL0     H71622   5.754   6.526   8.899 -1.3435  1.1778 -0.2978
  531MOL0     H71623   5.697   6.373   8.864 -2.9029  0.2719  0.0601
  531MOL0     H71624   5.728   6.282   9.068 -3.5207  1.6295 -0.5428
  531MOL0     H71625   5.777   6.427   9.160 -1.2679 -0.0546 -0.6183
  531MOL0     H71626   5.974   6.269   9.093  0.6458  0.3663  0.0697
  531MOL0     H71627   5.925   6.301   8.920 -0.1077 -3.5675  0.7734
  531MOL0     H71628   5.977   6.536   8.931  2.4306 -0.9523 -2.2489
  531MOL0     H71629   6.015   6.520   9.103  1.2893  1.2857 -1.3621
  531MOL0     H71630   6.185   6.373   9.065  0.0535  0.7214  0.2829
  531MOL0     H71631   6.166   6.364   8.893  0.8792  2.3637 -1.5480
  531MOL0     H71632   6.223   6.614   9.042 -1.0155 -0.5948 -0.1966
  531MOL0     H71633   6.202   6.614   8.876 -1.3082 -3.4264 -2.0561
  531MOL0     H71634   6.448   6.520   9.023 -0.9873  0.0200  0.4608
  531MOL0     H71635   6.394   6.405   8.901  0.0475 -0.7600  2.6027
  531MOL0     H71636   6.404   6.546   8.618 -0.9157  0.0907 -0.1028
  531MOL0     H71637   6.523   6.799   8.456 -1.3988  0.7922  2.4730
  531MOL0     H71638   6.686   6.780   8.533 -0.4883 -1.4745  1.4903
  531MOL0     H71639   6.630   6.515   8.489 -2.9760 -0.5754  0.7855
  531MOL0     H71640   6.534   6.585   8.369  1.3470 -1.4417 -0.8452
  531MOL0     H71641   6.831   6.602   8.379 -0.7799  0.1438  1.7023
  531MOL0     H71642   6.738   6.705   8.266  0.4740  0.0263 -0.5637
  531MOL0     H71643   6.621   6.486   8.204 -0.4308 -2.6838  1.0412
  531MOL0     H71644   6.763   6.403   8.264 -0.3427 -0.5240 -1.2728
  531MOL0     H71645   6.979   6.490   8.299 -0.0359 -0.1434  0.2286
  531MOL0     H71646   7.214   6.550   8.264  0.3666  1.6646 -0.6965
  531MOL0     H71647   7.588   6.734   8.111  0.6122 -0.5211  2.0298
  531MOL0     H71648   7.837   6.699   8.108  0.1280  0.0234  0.5801
  531MOL0     H71649   7.937   6.293   7.934  1.0616 -0.3440  1.0089
  531MOL0     H71650   7.940   6.453   7.856  3.6916 -0.2290 -1.1375
  531MOL0     H71651   8.174   6.495   7.894  0.0916 -0.2372 -0.5309
  531MOL0     H71652   8.185   6.354   7.999  1.4826  0.4482 -0.4905
  531MOL0     H71653   8.067   6.246   7.769  0.8416  0.5156 -0.7017
  531MOL0     H71654   8.168   6.365   7.694  2.4083 -2.0699 -1.3771
  531MOL0     H71655   8.269   6.169   7.902  0.6353 -0.8282 -0.7090
  531MOL0     H71656   8.371   6.292   7.806  2.0623 -0.9622 -1.8593
  531MOL0     H71657   8.402   6.080   7.700  0.1487  0.7452  0.6658
  531MOL0     H71658   8.304   6.172   7.593  0.7737 -2.1865 -1.2186
  531MOL0     H71659   8.173   5.986   7.787 -2.2182  3.5161  1.2823
  531MOL0     H71660   8.106   6.063   7.646  1.3678 -0.3568 -1.1433
  531MOL0     H71661   8.137   5.828   7.619 -0.1392 -0.2719 -1.8576
  531MOL0     H71662   8.305   5.845   7.658 -1.6638 -2.3333  1.5663
  531MOL0     H71663   8.334   5.990   7.437 -0.0707  0.6110 -0.8798
  531MOL0     H71664   8.263   5.831   7.398  0.0458 -0.0320  1.7877
  531MOL0     H71665   7.773   6.277   8.102 -2.1450 -0.6975  1.1446
  531MOL0     H71666   7.537   6.308   8.141  0.2434 -1.0889 -2.2933
  531MOL0     H71667   7.130   6.571   7.841 -0.0300 -0.3751 -0.2554
  531MOL0     H71668   6.907   6.595   7.880 -1.4739 -1.8339  0.5558
  531MOL0     H71669   5.287   6.541   8.920 -1.9534 -1.3698 -1.9256
  531MOL0     H71670   5.077   6.575   9.004 -2.1495  0.2543  2.4267
  531MOL0     H71671   4.787   6.482   9.574  0.4175 -2.8241  0.5538
  531MOL0     H71672   4.555   6.510   9.610  1.3558  3.0844 -0.9365
  531MOL0     H71673   4.199   6.585   9.534  1.4197  1.2215 -0.2139
  531MOL0     H71674   4.348   6.555   9.609  1.4364 -0.8178 -0.7472
  531MOL0     H71675   4.225   6.354   9.676  1.6744  0.4131  0.7000
  531MOL0     H71676   4.325   6.305   9.545 -0.2890  0.1327 -1.1294
  531MOL0     H71677   4.139   6.224   9.494 -1.3359 -0.0213  0.7440
  531MOL0     H71678   4.097   6.364   9.393  0.6791 -1.9258 -0.6892
  531MOL0     H71679   3.998   6.271   9.674 -0.9223 -0.3758 -0.0100
  531MOL0     H71680   3.981   6.443   9.610 -2.2618  0.4599 -1.2001
  531MOL0     H71681   3.660   6.251   9.430 -0.7913  3.8348 -3.6056
  531MOL0     H71682   4.477   6.468   9.180  0.3193 -4.7824 -1.4585
  531MOL0     H71683   4.772   6.309   9.110 -0.9947 -0.5609  2.7142
  531MOL0     H71684   4.628   6.377   9.047 -0.4663  1.2490  0.7809
  531MOL0     H71685   4.767   6.480   9.053  1.1789 -0.4621  0.3918
  532MOL0     O71686   0.409   7.972   0.530  0.5767  0.8690  0.2302
  532MOL0     C71687   0.307   8.002   0.463 -0.9165  0.7463 -1.1098
  532MOL0     O71688   0.302   8.106   0.374 -0.5993 -0.2523  0.5176
  532MOL0     C71689   0.412   8.177   0.337  0.2024  0.3821  1.2785
  532MOL0     C71690   0.382   8.311   0.314  0.4175 -0.4163 -0.8866
  532MOL0     C71691   0.480   8.407   0.282  0.0326  0.0112 -0.0529
  532MOL0     C71692   0.610   8.369   0.282 -0.2960 -0.2988  0.6078
  532MOL0     O71693   0.698   8.470   0.254  0.2993 -0.6037  0.1157
  532MOL0     C71694   0.846   8.471   0.262  1.3888  0.4714  0.6990
  532MOL0     C71695   0.902   8.605   0.216 -0.1899  0.4812 -0.6802
  532MOL0     C71696   1.057   8.588   0.197 -0.6915  0.9621 -0.3892
  532MOL0     C71697   1.121   8.708   0.268  0.2105  0.7834 -0.3088
  532MOL0     C71698   1.267   8.703   0.285 -0.7420  0.5667 -0.3390
  532MOL0     C71699   1.329   8.839   0.333 -0.2562 -0.8501 -0.2529
  532MOL0     C71700   1.481   8.833   0.350 -0.0131 -1.3536  0.4300
  532MOL0     C71701   1.557   8.835   0.213  0.0490  0.6175  0.5987
  532MOL0     N71702   1.693   8.885   0.226  0.2267 -0.4408 -0.5904
  532MOL0     C71703   1.776   8.821   0.317  0.2777 -0.3923  0.2386
  532MOL0     C71704   1.885   8.894   0.315 -0.4657 -0.0108  0.6894
  532MOL0     C71705   2.008   8.857   0.391  0.7772  0.0178  0.3596
  532MOL0     C71706   2.132   8.943   0.366  0.2294 -0.4601 -0.1763
  532MOL0     C71707   2.240   8.912   0.469  0.2713 -0.5404  0.0948
  532MOL0     C71708   2.269   8.763   0.492  0.6276 -0.3860 -0.4508
  532MOL0     O71709   2.360   8.748   0.605  0.0065  0.2596 -0.4125
  532MOL0     C71710   2.498   8.759   0.586 -0.0741 -0.0402  0.0938
  532MOL0     C71711   2.563   8.789   0.467 -0.4157  0.9392 -0.5988
  532MOL0     C71712   2.704   8.789   0.470 -0.8588  0.3601  0.1274
  532MOL0     C71713   2.780   8.767   0.582  1.1497 -0.4224  0.2822
  532MOL0     C71714   2.924   8.788   0.586 -0.1054 -0.4050 -0.1755
  532MOL0     O71715   2.980   8.801   0.712  0.4480  0.1868  0.8306
  532MOL0     C71716   3.109   8.787   0.726 -0.0816 -0.7460 -0.0721
  532MOL0     C71717   3.161   8.705   0.834 -0.0452  0.0698  1.0149
  532MOL0     C71718   3.292   8.681   0.859  0.0839 -1.3078  0.0720
  532MOL0     C71719   3.393   8.732   0.777 -0.0050  0.3570  0.4590
  532MOL0     O71720   3.521   8.692   0.795 -0.9864 -0.0996  0.3449
  532MOL0     C71721   3.600   8.755   0.895  0.0660 -0.3747 -0.0415
  532MOL0     C71722   3.749   8.746   0.849  0.4257  0.4890  0.5215
  532MOL0     C71723   3.769   8.862   0.760 -0.5023 -0.3124  0.5574
  532MOL0     C71724   3.925   8.873   0.743 -0.1798  0.5867  0.1957
  532MOL0     C71725   3.965   8.975   0.631  0.8235 -0.0590  0.2062
  532MOL0     C71726   4.116   8.992   0.592 -0.7976 -0.3215 -0.1343
  532MOL0     C71727   4.200   9.028   0.714  0.4918 -0.5654 -0.2256
  532MOL0     C71728   4.263   8.904   0.783  0.5831 -0.1568 -0.4934
  532MOL0    Cl71729   4.377   8.950   0.911  0.0061  0.5328  0.4803
  532MOL0     C71730   3.350   8.810   0.672 -0.2191  0.3782 -0.4440
  532MOL0     C71731   3.212   8.834   0.644  0.1635  0.0553 -0.3994
  532MOL0     O71732   2.988   8.775   0.481  0.4463 -0.5162  0.3632
  532MOL0     C71733   2.711   8.720   0.695  0.7226  0.5114 -0.6088
  532MOL0     C71734   2.566   8.721   0.699  0.2565  0.2011  0.2427
  532MOL0     N71735   1.867   9.015   0.232  0.0408 -0.4177  0.4116
  532MOL0     N71736   1.745   9.010   0.185  0.8688 -0.6192 -0.1861
  532MOL0     C71737   0.640   8.232   0.303  0.4112 -0.2421  0.1352
  532MOL0     C71738   0.541   8.139   0.331  0.0145 -0.6035  0.1438
  532MOL0     C71739   0.187   7.912   0.477 -0.5599 -0.0854 -0.0677
  532MOL0     C71740   0.200   7.784   0.542 -0.2929  0.7049  0.3707
  532MOL0     C71741   0.094   7.701   0.575 -0.6854  0.4028 -0.5286
  532MOL0     C71742  -0.036   7.736   0.545 -1.1370 -0.4235  0.1485
  532MOL0     O71743  -0.124   7.633   0.566  0.1369 -0.2635  0.3791
  532MOL0     C71744  -0.189   7.645   0.696  0.2603  0.0765  0.3077
  532MOL0     C71745  -0.272   7.519   0.706  0.4282  0.5671  0.7453
  532MOL0     C71746  -0.359   7.510   0.829 -0.5563  0.6662 -0.1521
  532MOL0     C71747  -0.437   7.379   0.807 -0.3890 -0.9441 -0.3977
  532MOL0     C71748  -0.560   7.365   0.895  0.3491  0.4008 -0.3241
  532MOL0     C71749  -0.657   7.370   0.967  0.0960  0.3937 -1.1400
  532MOL0     C71750  -0.052   7.864   0.489  0.5478  0.5416 -0.6682
  532MOL0     C71751   0.056   7.947   0.450  0.0193 -0.4817 -0.4606
  532MOL0     C71752   0.026   8.086   0.394  0.0665 -0.0978  0.2466
  532MOL0     H71753   0.280   8.347   0.318  1.0658  1.5206  2.4884
  532MOL0     H71754   0.454   8.511   0.260  0.1395  0.0281 -0.1010
  532MOL0     H71755   0.882   8.454   0.364  2.2774 -2.6889 -0.0177
  532MOL0     H71756   0.885   8.388   0.202  1.0736  0.2371  0.8116
  532MOL0     H71757   0.881   8.685   0.287 -0.1552  0.2445 -0.4015
  532MOL0     H71758   0.854   8.627   0.120  0.1158 -1.0638 -1.2168
  532MOL0     H71759   1.082   8.580   0.090 -2.4591  0.3298 -0.7824
  532MOL0     H71760   1.085   8.489   0.234  0.8003  0.9225 -1.5290
  532MOL0     H71761   1.101   8.799   0.209 -1.8293 -0.5154 -1.7254
  532MOL0     H71762   1.069   8.720   0.364 -1.8038  1.5272 -1.4342
  532MOL0     H71763   1.291   8.623   0.354 -0.4713  0.6851 -0.2978
  532MOL0     H71764   1.309   8.679   0.187  2.5420 -0.1998  1.1530
  532MOL0     H71765   1.304   8.915   0.259 -0.0085 -0.6622 -0.1425
  532MOL0     H71766   1.304   8.864   0.436 -0.1068  0.5728 -0.5408
  532MOL0     H71767   1.499   8.736   0.396  0.6489 -3.0673 -3.1102
  532MOL0     H71768   1.512   8.918   0.411 -1.2374 -1.1240  0.7672
  532MOL0     H71769   1.561   8.741   0.157  0.6143  1.2659 -0.4838
  532MOL0     H71770   1.513   8.904   0.140  1.2672  2.1301  1.2335
  532MOL0     H71771   1.758   8.736   0.382 -0.2554 -1.2614 -1.0157
  532MOL0     H71772   1.975   8.869   0.495 -0.9766  2.4248 -0.3891
  532MOL0     H71773   2.031   8.757   0.355 -0.5910  0.5954 -2.3860
  532MOL0     H71774   2.165   8.912   0.266 -1.7121 -1.6756 -0.5012
  532MOL0     H71775   2.104   9.048   0.364  2.2855  0.1321 -1.7316
  532MOL0     H71776   2.210   8.948   0.568  2.0675 -0.2868  0.5874
  532MOL0     H71777   2.330   8.964   0.434 -0.9873  0.0263 -2.5408
  532MOL0     H71778   2.298   8.709   0.401  0.0885 -0.7049 -0.4376
  532MOL0     H71779   2.174   8.723   0.530 -0.1529  2.8749  1.3875
  532MOL0     H71780   2.507   8.807   0.376 -0.2574  0.4967 -0.7837
  532MOL0     H71781   2.761   8.812   0.380  1.5095  0.6397  1.6022
  532MOL0     H71782   3.086   8.669   0.904  0.4398 -1.1579  0.9266
  532MOL0     H71783   3.319   8.617   0.943  2.2635 -0.5367  0.0256
  532MOL0     H71784   3.564   8.857   0.912 -2.4555 -1.3347  0.8917
  532MOL0     H71785   3.597   8.712   0.995  0.2934  2.0884  1.1122
  532MOL0     H71786   3.811   8.763   0.938 -0.9120 -1.9349  2.0222
  532MOL0     H71787   3.773   8.651   0.801  0.5430  0.6198  0.3210
  532MOL0     H71788   3.716   8.856   0.665  2.1764  0.3354 -1.0886
  532MOL0     H71789   3.738   8.961   0.796 -0.2789  0.0859 -0.3048
  532MOL0     H71790   3.970   8.774   0.730 -1.0668  0.0320  1.2067
  532MOL0     H71791   3.959   8.911   0.840 -2.9007  0.6091  1.2298
  532MOL0     H71792   3.918   9.071   0.653 -1.2110 -0.5815 -1.5427
  532MOL0     H71793   3.912   8.941   0.541  0.8781 -1.3791  0.6526
  532MOL0     H71794   4.152   8.906   0.534  1.0736  0.1038  0.3417
  532MOL0     H71795   4.119   9.070   0.516 -1.4165 -0.3299 -0.1729
  532MOL0     H71796   4.152   9.089   0.791  0.1652 -2.6651  1.3209
  532MOL0     H71797   4.274   9.100   0.677 -0.8606  0.7137 -0.5213
  532MOL0     H71798   4.184   8.842   0.825  0.6544 -0.5561 -0.9430
  532MOL0     H71799   4.319   8.839   0.716 -0.5188 -1.6922  0.0225
  532MOL0     H71800   3.426   8.858   0.610 -0.0770  0.0135 -0.5526
  532MOL0     H71801   3.180   8.898   0.563  0.4815 -1.1089 -1.4702
  532MOL0     H71802   2.756   8.697   0.791 -3.7647 -0.6378  1.4879
  532MOL0     H71803   2.510   8.691   0.786  1.6539 -1.1471  0.7252
  532MOL0     H71804   0.742   8.196   0.292  0.5938  0.7366 -1.9816
  532MOL0     H71805   0.567   8.035   0.348 -1.0771 -0.8301  0.5005
  532MOL0     H71806   0.302   7.748   0.557 -0.3423  0.7605  0.8539
  532MOL0     H71807   0.115   7.604   0.619  2.8642  1.0114 -0.5804
  532MOL0     H71808  -0.257   7.730   0.685 -0.2996 -0.5361 -1.2491
  532MOL0     H71809  -0.119   7.648   0.780 -0.7251 -1.5446  1.2339
  532MOL0     H71810  -0.202   7.435   0.709  0.2192  0.2781 -1.2766
  532MOL0     H71811  -0.327   7.515   0.611  0.3612  0.1997  0.7965
  532MOL0     H71812  -0.422   7.599   0.842  2.6671  3.0469  0.2193
  532MOL0     H71813  -0.296   7.504   0.918 -1.9054  2.9431  1.0353
  532MOL0     H71814  -0.482   7.379   0.707 -0.3230  1.2710 -0.4732
  532MOL0     H71815  -0.373   7.291   0.822 -1.7998 -1.5886  2.5318
  532MOL0     H71816  -0.755   7.379   1.009 -0.5371  2.9438 -2.9444
  532MOL0     H71817  -0.152   7.888   0.452  0.1944 -1.2461 -0.9870
  532MOL0     H71818   0.070   8.161   0.459 -0.7340  0.4859  0.1234
  532MOL0     H71819   0.083   8.092   0.301 -0.6463  1.1197 -0.1284
  532MOL0     H71820  -0.078   8.115   0.378  0.5694  0.7479 -1.9330
  533MOL0     O71821   5.166   0.265   7.697 -0.2580  0.7126 -0.3659
  533MOL0     C71822   5.058   0.277   7.768 -0.5771 -0.0380 -0.0192
  533MOL0     O71823   5.046   0.239   7.895  0.0227  0.5795 -0.6888
  533MOL0     C71824   5.145   0.186   7.974  0.4815 -0.5791 -0.3106
  533MOL0     C71825   5.279   0.223   7.973 -0.1974  0.7209  0.3275
  533MOL0     C71826   5.374   0.156   8.055  0.0452  0.2008  0.4423
  533MOL0     C71827   5.331   0.050   8.140  1.1726  0.3571  0.4858
  533MOL0     O71828   5.425  -0.016   8.219  0.1481  0.1652  0.2470
  533MOL0     C71829   5.387  -0.109   8.324  0.1856  0.0074  0.3834
  533MOL0     C71830   5.498  -0.205   8.370  0.4394 -0.4182  0.4499
  533MOL0     C71831   5.474  -0.274   8.504 -0.3642  0.1680 -0.1808
  533MOL0     C71832   5.408  -0.410   8.474  0.1904 -0.6853  0.9433
  533MOL0     C71833   5.356  -0.476   8.598  0.0265 -0.3375  0.5429
  533MOL0     C71834   5.459  -0.539   8.684 -0.5420  0.6251  0.1880
  533MOL0     C71835   5.403  -0.586   8.819 -0.0574  0.1759 -0.2205
  533MOL0     C71836   5.510  -0.637   8.917  0.5291 -0.0270 -0.0418
  533MOL0     N71837   5.568  -0.771   8.891 -1.1829  0.6970  0.1299
  533MOL0     C71838   5.701  -0.799   8.859 -0.2292 -1.0290  0.4414
  533MOL0     C71839   5.719  -0.926   8.853 -0.1754  0.0505 -0.1476
  533MOL0     C71840   5.836  -1.009   8.817 -0.3722  0.8040  0.2906
  533MOL0     C71841   5.914  -0.964   8.695  0.4472  0.6808  0.8413
  533MOL0     C71842   5.833  -0.976   8.560  0.1641 -0.1064 -0.6144
  533MOL0     C71843   5.920  -1.022   8.461  0.4452  0.1814  0.4429
  533MOL0     O71844   6.020  -0.924   8.426  0.2127 -0.6967 -0.0394
  533MOL0     C71845   6.104  -0.947   8.325 -0.2275 -0.7880 -0.2599
  533MOL0     C71846   6.115  -1.065   8.246 -0.2738  0.4064  0.5695
  533MOL0     C71847   6.209  -1.073   8.143  0.6549  0.2270  0.1018
  533MOL0     C71848   6.287  -0.963   8.104 -0.0777  0.6088 -0.7566
  533MOL0     C71849   6.400  -0.977   8.006  0.2349  0.2185 -0.3455
  533MOL0     O71850   6.480  -0.868   7.990 -0.1333  0.0432  0.4551
  533MOL0     C71851   6.578  -0.874   7.898  0.8644  0.4862  0.2074
  533MOL0     C71852   6.561  -0.830   7.765  0.0071  0.3248  0.5774
  533MOL0     C71853   6.665  -0.828   7.668 -0.1418  0.8177  0.0766
  533MOL0     C71854   6.797  -0.872   7.712  0.3340 -0.5057 -0.8574
  533MOL0     O71855   6.903  -0.894   7.624 -0.0649 -0.3295  0.5822
  533MOL0     C71856   6.891  -0.842   7.492 -0.7800 -0.2370 -0.3386
  533MOL0     C71857   7.025  -0.854   7.412  0.7325 -0.2514  0.3637
  533MOL0     C71858   7.133  -0.771   7.476 -0.1255 -0.1215  0.3317
  533MOL0     C71859   7.273  -0.819   7.422  0.6509 -0.0908 -0.4399
  533MOL0     C71860   7.305  -0.776   7.277  0.6611 -0.1382 -0.0578
  533MOL0     C71861   7.305  -0.622   7.244 -0.4960 -0.0794  0.6487
  533MOL0     C71862   7.410  -0.538   7.328  0.2775  0.8828  0.7703
  533MOL0     C71863   7.481  -0.434   7.231 -0.2313  0.6774  0.0420
  533MOL0    Cl71864   7.580  -0.543   7.119 -0.2103 -0.0329 -0.0273
  533MOL0     C71865   6.811  -0.920   7.848  0.3480 -0.0654 -0.7639
  533MOL0     C71866   6.709  -0.909   7.938  0.1401  1.0056 -0.7377
  533MOL0     O71867   6.411  -1.080   7.937 -0.0988  0.5264  0.0713
  533MOL0     C71868   6.271  -0.845   8.181 -0.7640 -0.1874  0.3578
  533MOL0     C71869   6.183  -0.834   8.292 -0.1627  0.2494  0.7684
  533MOL0     N71870   5.603  -0.990   8.889  0.1588  0.5982 -0.5109
  533MOL0     N71871   5.518  -0.904   8.916  0.1358  0.3062  0.4570
  533MOL0     C71872   5.194   0.028   8.154  0.3339 -0.6191  0.4613
  533MOL0     C71873   5.101   0.101   8.077 -0.4879  0.4379  0.7922
  533MOL0     C71874   4.930   0.331   7.705  0.4003 -0.5601  0.3446
  533MOL0     C71875   4.816   0.337   7.783  0.0552  0.2205 -0.0006
  533MOL0     C71876   4.696   0.388   7.735  0.1233  0.3459 -0.4797
  533MOL0     C71877   4.682   0.423   7.602  0.0818  0.0993 -0.7933
  533MOL0     O71878   4.563   0.463   7.540 -0.2900  0.4838  0.0788
  533MOL0     C71879   4.439   0.477   7.610 -0.9341 -0.4219  0.0504
  533MOL0     C71880   4.357   0.351   7.559  0.3873 -0.4285 -0.7606
  533MOL0     C71881   4.208   0.381   7.562  0.4219  0.0556  0.2003
  533MOL0     C71882   4.117   0.279   7.514 -0.1002  0.4548 -0.1384
  533MOL0     C71883   3.974   0.318   7.531  0.5842 -0.9439  0.9647
  533MOL0     C71884   3.855   0.346   7.519  0.2993  0.1600  0.1193
  533MOL0     C71885   4.794   0.409   7.521 -0.2549 -0.2977  0.2894
  533MOL0     C71886   4.920   0.372   7.572  1.2992 -0.4777 -0.3705
  533MOL0     C71887   5.025   0.350   7.464 -0.2618  0.3234 -0.9436
  533MOL0     H71888   5.309   0.307   7.912  0.5912  0.2236  0.0114
  533MOL0     H71889   5.481   0.172   8.051  0.3022 -0.6718  2.3943
  533MOL0     H71890   5.357  -0.059   8.417  0.4792 -0.2108  0.5985
  533MOL0     H71891   5.299  -0.171   8.305 -0.4234  0.2224  2.3105
  533MOL0     H71892   5.594  -0.153   8.368  0.8468 -1.1401 -1.4883
  533MOL0     H71893   5.507  -0.280   8.291 -0.5187  1.0613 -1.1543
  533MOL0     H71894   5.408  -0.213   8.567 -0.4030  0.0522 -0.1093
  533MOL0     H71895   5.572  -0.280   8.551 -0.0943  0.1969 -0.7372
  533MOL0     H71896   5.326  -0.396   8.404  3.2039  2.5976 -2.3607
  533MOL0     H71897   5.472  -0.473   8.413 -0.6349  0.2239 -0.9472
  533MOL0     H71898   5.295  -0.405   8.655  1.0099  2.1565 -1.3433
  533MOL0     H71899   5.294  -0.560   8.564  0.5378  0.2040 -1.8463
  533MOL0     H71900   5.502  -0.625   8.631 -1.9308 -0.2770  0.4633
  533MOL0     H71901   5.539  -0.465   8.697 -1.8019  2.3533 -1.3209
  533MOL0     H71902   5.338  -0.670   8.791  0.2654  0.6691 -2.6203
  533MOL0     H71903   5.345  -0.512   8.875 -0.3755  0.9892 -1.5851
  533MOL0     H71904   5.591  -0.564   8.915 -1.4160  2.3237  1.7047
  533MOL0     H71905   5.471  -0.642   9.019 -0.8437 -0.2590 -0.5571
  533MOL0     H71906   5.773  -0.727   8.820 -0.9620 -1.3072 -1.5843
  533MOL0     H71907   5.897  -1.003   8.908  1.1882  2.6851 -0.8155
  533MOL0     H71908   5.803  -1.110   8.791  1.7338 -0.4681  2.0943
  533MOL0     H71909   5.947  -0.860   8.705 -0.4526  0.9870  0.7428
  533MOL0     H71910   6.007  -1.021   8.691 -1.1687 -2.1061 -0.2095
  533MOL0     H71911   5.802  -0.874   8.536  0.8590  0.4485  0.7336
  533MOL0     H71912   5.753  -1.048   8.577  0.9404 -0.5428  1.5521
  533MOL0     H71913   5.865  -1.045   8.369  0.5212 -5.0604  1.4327
  533MOL0     H71914   5.964  -1.117   8.491  2.3491  0.1924 -1.9786
  533MOL0     H71915   6.047  -1.147   8.270 -0.1216  1.3702  5.0509
  533MOL0     H71916   6.221  -1.159   8.078  0.8040  0.3769 -0.0731
  533MOL0     H71917   6.459  -0.795   7.748 -2.5074 -4.6627  3.1637
  533MOL0     H71918   6.652  -0.780   7.572 -0.5247  1.3279  0.3748
  533MOL0     H71919   6.814  -0.886   7.428  1.3310 -2.5630 -1.4557
  533MOL0     H71920   6.872  -0.735   7.508  0.7753 -0.3763  3.5187
  533MOL0     H71921   7.041  -0.962   7.414  1.2254 -0.3912 -3.4358
  533MOL0     H71922   7.006  -0.831   7.307  2.4693  3.3582  0.6894
  533MOL0     H71923   7.123  -0.664   7.456  0.5320 -0.1577 -0.2372
  533MOL0     H71924   7.133  -0.793   7.583  2.4145 -2.7283 -0.0908
  533MOL0     H71925   7.280  -0.925   7.445  0.4541  0.7404  4.4303
  533MOL0     H71926   7.343  -0.785   7.499 -0.8606 -3.4497  2.7008
  533MOL0     H71927   7.232  -0.816   7.205  0.3382 -0.8825  0.6642
  533MOL0     H71928   7.405  -0.810   7.250  0.2144 -1.4190 -0.1646
  533MOL0     H71929   7.330  -0.604   7.139 -2.0499  0.2949  0.3244
  533MOL0     H71930   7.206  -0.583   7.268 -1.0420 -0.8516 -0.3018
  533MOL0     H71931   7.479  -0.605   7.380  1.2062 -0.0933 -1.5830
  533MOL0     H71932   7.352  -0.481   7.402  2.7887  3.0851  1.2122
  533MOL0     H71933   7.400  -0.389   7.173  1.3138  0.2632 -2.5795
  533MOL0     H71934   7.541  -0.360   7.285  0.9725  1.5764 -2.3848
  533MOL0     H71935   6.903  -0.973   7.870  1.4014  1.2899 -1.7543
  533MOL0     H71936   6.721  -0.936   8.042 -0.2861  1.6573 -0.5152
  533MOL0     H71937   6.340  -0.762   8.165  0.0834 -0.2206  3.2649
  533MOL0     H71938   6.170  -0.740   8.344 -1.8743  0.2356  0.4148
  533MOL0     H71939   5.147  -0.037   8.227  0.5326 -0.5850  0.6191
  533MOL0     H71940   4.994   0.085   8.085 -0.5457  0.1929 -0.2227
  533MOL0     H71941   4.824   0.304   7.886  0.4607  2.4736  0.7360
  533MOL0     H71942   4.615   0.399   7.807  0.5111 -0.1994  0.0486
  533MOL0     H71943   4.391   0.570   7.578  2.1180  1.7897  1.3888
  533MOL0     H71944   4.440   0.466   7.719 -0.6618 -2.1480 -0.0964
  533MOL0     H71945   4.375   0.271   7.631 -0.7118  1.5892  1.9329
  533MOL0     H71946   4.385   0.313   7.460  0.8447 -0.9291 -0.4432
  533MOL0     H71947   4.193   0.474   7.507 -2.1364 -0.4305 -0.0168
  533MOL0     H71948   4.190   0.390   7.669  1.0192 -2.7425  0.6040
  533MOL0     H71949   4.132   0.260   7.407 -1.5986 -2.2505  0.0394
  533MOL0     H71950   4.137   0.187   7.569  0.3714 -0.2423 -1.4180
  533MOL0     H71951   3.750   0.360   7.499  0.5247 -0.9452 -2.2575
  533MOL0     H71952   4.777   0.445   7.420  2.9443 -3.6809 -1.7584
  533MOL0     H71953   5.120   0.399   7.489  0.6537 -1.7094 -0.2554
  533MOL0     H71954   5.058   0.246   7.462  0.9105  0.6911 -2.0070
  533MOL0     H71955   4.992   0.374   7.363  0.0514 -2.0803 -1.6772
  534MOL0     O71956  11.249   3.323   2.699 -0.3877 -0.3100 -0.6456
  534MOL0     C71957  11.218   3.234   2.774  0.3662  0.3169 -0.0069
  534MOL0     O71958  11.308   3.154   2.842  0.3366  0.3669  0.1332
  534MOL0     C71959  11.445   3.168   2.852  0.6485 -0.1415 -0.4413
  534MOL0     C71960  11.530   3.269   2.794  1.0760 -0.7430  1.0602
  534MOL0     C71961  11.667   3.268   2.806  1.0562  0.2912 -0.2320
  534MOL0     C71962  11.725   3.159   2.876 -0.9805  0.3381  0.2177
  534MOL0     O71963  11.861   3.132   2.885  0.6595  0.2956 -0.0478
  534MOL0     C71964  11.910   3.178   3.013 -0.7157  0.6998 -0.5736
  534MOL0     C71965  12.070   3.150   3.027  1.2321 -0.5307  0.7251
  534MOL0     C71966  12.132   3.261   2.947  0.0095 -0.4342 -0.6821
  534MOL0     C71967  12.285   3.277   2.984 -0.2885 -0.1225 -0.5109
  534MOL0     C71968  12.357   3.372   2.883  0.1014 -0.1444 -0.2703
  534MOL0     C71969  12.316   3.520   2.898 -0.5574  0.4511 -0.1797
  534MOL0     C71970  12.421   3.615   2.834 -0.2920 -0.2376 -0.0453
  534MOL0     C71971  12.553   3.625   2.909 -0.2023 -0.2764 -0.5232
  534MOL0     N71972  12.658   3.712   2.866 -0.4281 -0.4535 -0.1108
  534MOL0     C71973  12.679   3.849   2.891 -0.2781  0.1455 -0.3777
  534MOL0     C71974  12.796   3.873   2.821 -0.1525  0.7181 -0.6028
  534MOL0     C71975  12.858   4.001   2.812 -0.7698  0.5044  0.1287
  534MOL0     C71976  12.958   4.034   2.935  0.3029 -0.2246  0.2191
  534MOL0     C71977  13.081   3.938   2.935  0.1441 -0.1681  0.0832
  534MOL0     C71978  13.187   3.969   3.043  0.6833 -0.0811 -0.7381
  534MOL0     O71979  13.278   4.067   2.989  0.1628  0.1532 -0.1033
  534MOL0     C71980  13.400   4.083   3.052 -0.1834  0.1779  0.8238
  534MOL0     C71981  13.469   3.984   3.115 -0.1052 -0.0603 -0.0131
  534MOL0     C71982  13.604   4.003   3.147 -0.4627  0.5563 -0.1563
  534MOL0     C71983  13.676   4.120   3.117  0.3298  0.0665 -0.3444
  534MOL0     C71984  13.816   4.127   3.157  0.3511  0.3143  0.8851
  534MOL0     O71985  13.865   4.009   3.200  0.5928 -0.2137 -0.1855
  534MOL0     C71986  13.987   3.988   3.256 -0.2363  0.4650 -0.2847
  534MOL0     C71987  14.102   4.035   3.198 -0.4797 -0.1962  0.7825
  534MOL0     C71988  14.225   4.020   3.261 -0.6948  0.3246  0.4266
  534MOL0     C71989  14.241   3.956   3.381 -0.7407  0.6322 -0.1363
  534MOL0     O71990  14.369   3.966   3.433 -0.0448  0.3800 -0.2469
  534MOL0     C71991  14.389   3.893   3.553  0.8445 -0.1444 -0.9174
  534MOL0     C71992  14.531   3.850   3.562 -0.2539 -0.3161 -0.2193
  534MOL0     C71993  14.628   3.965   3.593 -0.0253 -0.7294  0.7160
  534MOL0     C71994  14.777   3.943   3.573 -0.2607  0.5005  0.7243
  534MOL0     C71995  14.838   3.856   3.681 -1.0616  0.7180  0.3939
  534MOL0     C71996  14.978   3.798   3.644  0.6224 -0.1221 -0.2860
  534MOL0     C71997  15.031   3.712   3.757 -0.8581 -0.2995  0.3545
  534MOL0     C71998  15.181   3.689   3.747 -0.4095  0.2640  0.7373
  534MOL0    Cl71999  15.272   3.840   3.794  0.1149 -0.2932 -0.0997
  534MOL0     C72000  14.124   3.899   3.439  0.0550  0.2593 -0.2219
  534MOL0     C72001  14.006   3.916   3.377  0.1940  0.2755  0.8788
  534MOL0     O72002  13.876   4.232   3.134  0.0585  0.1396  0.0911
  534MOL0     C72003  13.602   4.220   3.046 -0.5966  0.2881  0.1031
  534MOL0     C72004  13.462   4.207   3.025  0.3966 -0.7784  0.0643
  534MOL0     N72005  12.842   3.757   2.760  0.6394 -0.7646  0.0979
  534MOL0     N72006  12.765   3.662   2.794 -0.6787 -0.6679 -0.2977
  534MOL0     C72007  11.639   3.070   2.949 -0.1569  0.2501 -0.2487
  534MOL0     C72008  11.504   3.071   2.942  0.9032 -0.3214 -0.3432
  534MOL0     C72009  11.084   3.177   2.775  0.2940  0.4900 -0.4104
  534MOL0     C72010  11.063   3.058   2.850 -0.1494  0.5935  1.1542
  534MOL0     C72011  10.930   3.010   2.855 -0.0772  0.6744 -0.1019
  534MOL0     C72012  10.830   3.069   2.783  0.2813 -0.2201  0.6358
  534MOL0     O72013  10.706   3.014   2.793 -0.8555 -0.2481  0.8246
  534MOL0     C72014  10.611   3.044   2.684 -0.3490  0.5733  0.0833
  534MOL0     C72015  10.488   2.951   2.702 -0.7024 -0.6092  0.4038
  534MOL0     C72016  10.395   2.997   2.817 -0.5793  0.0947  0.6244
  534MOL0     C72017  10.286   2.897   2.855  0.4727 -0.8228 -0.3353
  534MOL0     C72018  10.210   2.853   2.745 -0.3311  0.7757 -0.6637
  534MOL0     C72019  10.141   2.832   2.654 -1.1629  1.0228 -0.3185
  534MOL0     C72020  10.857   3.182   2.702  0.5180  0.2374 -0.9085
  534MOL0     C72021  10.982   3.239   2.701 -0.2922 -0.6082  0.1703
  534MOL0     C72022  10.976   3.372   2.619 -0.5066 -0.2935 -0.5506
  534MOL0     H72023  11.482   3.347   2.736  2.2635 -0.7948 -0.0489
  534MOL0     H72024  11.734   3.344   2.768  3.6353 -1.0693  1.2314
  534MOL0     H72025  11.893   3.286   3.021 -1.0454  0.6841 -1.0387
  534MOL0     H72026  11.872   3.115   3.094  2.2742  0.8183  1.0549
  534MOL0     H72027  12.088   3.047   2.995 -0.9883 -1.1100  1.1574
  534MOL0     H72028  12.089   3.163   3.134 -1.1920 -0.4431  1.2022
  534MOL0     H72029  12.088   3.358   2.971  1.4221 -0.5369  2.9492
  534MOL0     H72030  12.128   3.254   2.838 -0.0905  2.7113 -0.9921
  534MOL0     H72031  12.303   3.312   3.086 -1.4147 -1.9743  0.3704
  534MOL0     H72032  12.334   3.181   2.967 -2.4589 -0.9274 -2.7224
  534MOL0     H72033  12.462   3.355   2.906 -0.1545  1.1773  2.3370
  534MOL0     H72034  12.338   3.350   2.777  1.7351 -3.7651  0.0558
  534MOL0     H72035  12.211   3.538   2.871 -1.5570 -2.3804  1.3299
  534MOL0     H72036  12.310   3.531   3.007 -2.7689 -1.0216 -0.0797
  534MOL0     H72037  12.366   3.710   2.827  0.8057  0.3314 -1.4953
  534MOL0     H72038  12.439   3.568   2.737 -1.5395 -2.6007  0.8039
  534MOL0     H72039  12.528   3.638   3.015 -0.8960 -0.9046 -0.5970
  534MOL0     H72040  12.597   3.524   2.913 -0.1010 -0.2183 -0.1026
  534MOL0     H72041  12.625   3.914   2.959 -0.1960 -0.4142  0.2291
  534MOL0     H72042  12.924   3.995   2.725 -0.1064 -0.0773  0.6570
  534MOL0     H72043  12.789   4.085   2.802 -0.4078  0.8570  0.5257
  534MOL0     H72044  12.996   4.136   2.930 -0.4373  0.0238 -0.4558
  534MOL0     H72045  12.899   4.025   3.027  0.7748  0.0535  0.5541
  534MOL0     H72046  13.131   3.935   2.838  2.9844 -1.8476  1.4681
  534MOL0     H72047  13.040   3.836   2.939 -1.6259  0.4849 -0.3072
  534MOL0     H72048  13.234   3.870   3.050 -0.2437 -0.5880 -1.3852
  534MOL0     H72049  13.154   3.986   3.146  1.5894 -1.6678 -0.1475
  534MOL0     H72050  13.428   3.885   3.126  0.7530 -0.5138 -0.7439
  534MOL0     H72051  13.652   3.925   3.205  2.5201  1.0615 -1.7513
  534MOL0     H72052  14.096   4.094   3.106  0.9745  0.7343  1.2506
  534MOL0     H72053  14.316   4.060   3.218  2.6926 -4.4124  2.3066
  534MOL0     H72054  14.365   3.952   3.642  0.4435 -2.1012  0.3438
  534MOL0     H72055  14.340   3.795   3.547  0.6535 -0.0298 -1.2651
  534MOL0     H72056  14.555   3.767   3.628  2.0652  0.0936 -0.4559
  534MOL0     H72057  14.563   3.810   3.465 -0.8603 -0.4769 -0.3535
  534MOL0     H72058  14.604   4.038   3.515 -0.9206 -0.5446  1.1568
  534MOL0     H72059  14.615   4.020   3.686 -2.7968 -0.5607  0.3099
  534MOL0     H72060  14.829   4.039   3.577  0.2672  0.4933 -2.6559
  534MOL0     H72061  14.793   3.895   3.476  1.5535 -0.3716  1.4183
  534MOL0     H72062  14.775   3.771   3.710  0.7179 -1.5768 -2.0334
  534MOL0     H72063  14.859   3.916   3.770 -1.0828  2.3548 -0.6679
  534MOL0     H72064  14.970   3.731   3.558  0.1525 -1.4112  0.7051
  534MOL0     H72065  15.039   3.878   3.602 -1.1974 -0.4410 -3.9180
  534MOL0     H72066  14.980   3.616   3.768 -0.0770 -0.6873  0.6583
  534MOL0     H72067  15.009   3.763   3.852  0.6304 -1.0429  1.1283
  534MOL0     H72068  15.213   3.607   3.812  3.1111 -0.2421 -1.3722
  534MOL0     H72069  15.213   3.661   3.646  0.6491 -0.6826  1.3103
  534MOL0     H72070  14.131   3.851   3.536  1.4665 -0.2973 -0.5737
  534MOL0     H72071  13.915   3.867   3.412 -0.1891  0.9389  0.8163
  534MOL0     H72072  13.662   4.297   3.000 -0.6064  0.7264  0.8068
  534MOL0     H72073  13.403   4.285   2.977  0.8289  1.7422  3.2833
  534MOL0     H72074  11.688   2.990   3.003 -0.1758  0.6140  0.3123
  534MOL0     H72075  11.442   2.989   2.977  0.4374 -0.0344 -0.4895
  534MOL0     H72076  11.137   3.006   2.910  0.3270  2.9914  2.7817
  534MOL0     H72077  10.904   2.923   2.914  1.3477  0.6354  0.5011
  534MOL0     H72078  10.662   3.029   2.588  0.7990 -2.6212  1.0312
  534MOL0     H72079  10.571   3.145   2.694  0.2443  1.1276 -2.4009
  534MOL0     H72080  10.517   2.851   2.734  1.9999  0.7900  2.7239
  534MOL0     H72081  10.421   2.931   2.617 -0.9635  0.4394  0.3517
  534MOL0     H72082  10.348   3.092   2.790 -3.2850 -1.6088 -1.1294
  534MOL0     H72083  10.464   3.011   2.901 -0.2424  0.9116  0.2259
  534MOL0     H72084  10.338   2.818   2.909  1.8581  1.1245  1.3118
  534MOL0     H72085  10.218   2.945   2.926 -0.1133 -0.2576 -1.2361
  534MOL0     H72086  10.077   2.826   2.567  1.0587 -1.2017 -1.9456
  534MOL0     H72087  10.776   3.224   2.644 -1.4843 -1.5470  0.4787
  534MOL0     H72088  11.002   3.346   2.516  2.9098 -1.5889  0.4885
  534MOL0     H72089  10.880   3.422   2.629 -1.2419 -1.8820  0.8427
  534MOL0     H72090  11.053   3.443   2.650  0.0634 -1.3221  0.5194
  535MOL0     O72091   8.225   7.551  10.394  0.4432 -0.1303  0.3455
  535MOL0     C72092   8.145   7.503  10.320  0.2801 -0.1686 -0.0010
  535MOL0     O72093   8.166   7.394  10.244  0.3321 -0.8439 -0.2959
  535MOL0     C72094   8.247   7.305  10.297  0.3588  0.4187 -0.0213
  535MOL0     C72095   8.385   7.301  10.276  0.1120 -0.4605  0.6223
  535MOL0     C72096   8.476   7.214  10.338 -0.0109 -0.1388  0.9124
  535MOL0     C72097   8.424   7.104  10.412  0.9153 -1.1718  0.2198
  535MOL0     O72098   8.490   7.014  10.483  0.1752  0.3526  0.2073
  535MOL0     C72099   8.626   6.990  10.441  0.8280 -0.3289 -0.4938
  535MOL0     C72100   8.670   6.872  10.525  0.9568  0.4374 -0.1626
  535MOL0     C72101   8.816   6.834  10.486  0.7509 -0.3648  0.1313
  535MOL0     C72102   8.852   6.714  10.570  0.3285  0.5195  0.2871
  535MOL0     C72103   9.000   6.678  10.563 -0.1080  0.4213 -0.6737
  535MOL0     C72104   9.081   6.785  10.633 -0.7219 -0.0113 -1.1681
  535MOL0     C72105   9.229   6.739  10.657 -0.8944 -0.3729  0.2231
  535MOL0     C72106   9.324   6.840  10.735  0.3890 -0.7651 -0.5509
  535MOL0     N72107   9.336   6.812  10.876  0.0179 -0.1356 -0.1224
  535MOL0     C72108   9.236   6.813  10.975 -0.1030  0.3987  0.9884
  535MOL0     C72109   9.294   6.773  11.089 -0.2680 -0.1026 -0.0408
  535MOL0     C72110   9.221   6.741  11.212 -0.0318 -0.5556 -0.1821
  535MOL0     C72111   9.247   6.835  11.343  0.4672  0.6186  0.0691
  535MOL0     C72112   9.168   6.775  11.461 -0.7934 -0.3423 -1.2707
  535MOL0     C72113   9.205   6.840  11.591  0.2363  0.3418 -0.3179
  535MOL0     O72114   9.126   6.774  11.693 -0.6787  0.4570  0.1622
  535MOL0     C72115   9.113   6.836  11.817  0.1363  0.2781 -0.2094
  535MOL0     C72116   8.981   6.828  11.873  0.1940  0.2530 -0.4273
  535MOL0     C72117   8.958   6.890  11.997  0.1399  0.1109 -0.9349
  535MOL0     C72118   9.047   6.966  12.070 -0.6211  0.3033  0.2723
  535MOL0     C72119   9.014   7.024  12.200 -0.7368  0.5152 -0.0178
  535MOL0     O72120   9.088   7.127  12.238 -0.1872  0.1001  0.1287
  535MOL0     C72121   9.084   7.175  12.366  0.1221 -0.8625  0.2895
  535MOL0     C72122   9.101   7.315  12.381 -0.4997  0.0225  0.1161
  535MOL0     C72123   9.107   7.377  12.502  0.6233 -0.0475 -0.6778
  535MOL0     C72124   9.115   7.301  12.615  0.1396  0.2545 -0.8715
  535MOL0     O72125   9.137   7.354  12.737  0.0490  0.0644 -0.0846
  535MOL0     C72126   9.168   7.494  12.751  0.0172 -0.3290 -0.0705
  535MOL0     C72127   9.195   7.523  12.903  0.3696  0.2043 -0.0137
  535MOL0     C72128   9.301   7.430  12.956  0.0112  0.4170 -0.1860
  535MOL0     C72129   9.245   7.304  13.021 -1.6385  0.4050 -0.5236
  535MOL0     C72130   9.343   7.218  13.106 -0.4545  0.0703 -0.1449
  535MOL0     C72131   9.467   7.164  13.031  0.2246 -0.1731 -0.5419
  535MOL0     C72132   9.532   7.061  13.124  0.4095 -0.7367  0.0193
  535MOL0     C72133   9.675   7.029  13.066  0.3218 -0.0124  0.1604
  535MOL0    Cl72134   9.650   6.902  12.937 -0.0277  0.5368 -0.1028
  535MOL0     C72135   9.097   7.159  12.607 -0.2679 -0.1118 -0.6054
  535MOL0     C72136   9.083   7.099  12.480 -0.1361  0.1052 -0.4816
  535MOL0     O72137   8.918   6.973  12.258  0.4625  0.3660 -0.6491
  535MOL0     C72138   9.176   6.979  12.012  1.1419  0.7298 -0.6834
  535MOL0     C72139   9.206   6.912  11.884  0.1841  0.1787 -0.4047
  535MOL0     N72140   9.427   6.747  11.062  0.0440 -0.9647  0.4547
  535MOL0     N72141   9.452   6.774  10.940 -0.6563 -0.0016  0.1038
  535MOL0     C72142   8.285   7.105  10.425  1.1303 -0.2078 -0.3783
  535MOL0     C72143   8.191   7.201  10.362 -0.1467  0.7894 -0.5698
  535MOL0     C72144   8.016   7.569  10.306  1.0574  0.9146  0.2715
  535MOL0     C72145   7.924   7.499  10.233  0.5143 -0.0107 -0.6503
  535MOL0     C72146   7.801   7.553  10.198 -0.4093  0.0151  0.4231
  535MOL0     C72147   7.758   7.673  10.253 -0.7742 -0.8660  0.3319
  535MOL0     O72148   7.637   7.724  10.209 -0.5984  0.3731  0.6202
  535MOL0     C72149   7.597   7.857  10.264  0.3274 -0.0679  0.0884
  535MOL0     C72150   7.448   7.876  10.237  0.1479 -0.5887 -0.6843
  535MOL0     C72151   7.384   7.971  10.346  0.2274  0.3828  0.1511
  535MOL0     C72152   7.240   7.920  10.393 -1.2639  0.4096  0.6803
  535MOL0     C72153   7.134   7.931  10.291  0.3808  0.5738  0.6772
  535MOL0     C72154   7.045   7.944  10.219  0.4949  0.5400 -0.5675
  535MOL0     C72155   7.847   7.741  10.340  0.1568  0.5358 -0.0614
  535MOL0     C72156   7.978   7.698  10.357 -0.3956  1.4956  0.5146
  535MOL0     C72157   8.059   7.787  10.450  0.0714  0.2721 -0.2386
  535MOL0     H72158   8.429   7.382  10.218 -0.6584 -0.8606 -0.5533
  535MOL0     H72159   8.583   7.229  10.335  0.4143 -2.6219  1.0452
  535MOL0     H72160   8.622   6.959  10.336  2.8759  2.4115 -1.5053
  535MOL0     H72161   8.700   7.070  10.455 -0.2702  1.0094 -1.9363
  535MOL0     H72162   8.601   6.788  10.514 -1.2409  2.1141 -0.1063
  535MOL0     H72163   8.666   6.911  10.627  2.2639  3.8935 -1.2825
  535MOL0     H72164   8.885   6.913  10.519  2.8339 -1.5561 -1.1290
  535MOL0     H72165   8.843   6.819  10.381  1.9326 -0.9236  0.4983
  535MOL0     H72166   8.819   6.731  10.673  1.2481 -1.6973  1.0150
  535MOL0     H72167   8.792   6.629  10.537  1.2773 -0.4024  0.8574
  535MOL0     H72168   9.010   6.587  10.622  1.3618  1.9073  1.4984
  535MOL0     H72169   9.046   6.661  10.465  0.3265  0.4836 -0.4806
  535MOL0     H72170   9.081   6.871  10.566  0.8483  0.9100 -0.0402
  535MOL0     H72171   9.040   6.820  10.728  3.4691 -1.2496  1.3546
  535MOL0     H72172   9.278   6.714  10.563  0.6031 -0.4978  1.0025
  535MOL0     H72173   9.222   6.643  10.709 -3.5656 -0.8266 -0.7808
  535MOL0     H72174   9.430   6.840  10.707  0.7032  1.2607  0.4666
  535MOL0     H72175   9.290   6.943  10.718 -1.9343 -1.6696 -1.8532
  535MOL0     H72176   9.132   6.840  10.959 -0.3419  0.2410  2.2085
  535MOL0     H72177   9.115   6.748  11.185 -0.3811 -3.8842 -0.1160
  535MOL0     H72178   9.247   6.640  11.245 -2.1636 -0.5722  1.7472
  535MOL0     H72179   9.353   6.830  11.368  0.0990 -1.0896  1.5226
  535MOL0     H72180   9.206   6.935  11.329 -2.0965 -0.2221  0.9268
  535MOL0     H72181   9.178   6.666  11.471 -0.5100 -0.3051 -1.1343
  535MOL0     H72182   9.063   6.799  11.447 -1.5657 -1.3872  1.8500
  535MOL0     H72183   9.185   6.948  11.594  0.8140  0.4232  0.9241
  535MOL0     H72184   9.308   6.830  11.624 -0.0917 -0.0727  0.6103
  535MOL0     H72185   8.909   6.778  11.809  1.2597 -0.8949 -0.7713
  535MOL0     H72186   8.862   6.908  12.043  1.0558 -0.2810  1.2312
  535MOL0     H72187   9.103   7.364  12.284 -0.9001 -1.6749 -0.7971
  535MOL0     H72188   9.117   7.485  12.506 -0.1662  0.0202 -0.4043
  535MOL0     H72189   9.259   7.514  12.694 -0.1084 -0.7137 -0.4134
  535MOL0     H72190   9.091   7.557  12.707  0.4598  0.2125 -0.0883
  535MOL0     H72191   9.215   7.630  12.917  0.2556  0.9515 -4.2078
  535MOL0     H72192   9.102   7.504  12.958  1.1778 -0.7686  1.0561
  535MOL0     H72193   9.378   7.409  12.881  0.8245 -2.2081  1.2324
  535MOL0     H72194   9.345   7.490  13.036 -3.6628  1.7550  1.0763
  535MOL0     H72195   9.199   7.241  12.944 -2.0395  1.6513 -1.3369
  535MOL0     H72196   9.167   7.330  13.093 -0.5393 -2.1986  1.7342
  535MOL0     H72197   9.290   7.128  13.138  1.1926 -1.5775 -1.7795
  535MOL0     H72198   9.369   7.274  13.196 -1.6553 -4.2421  3.2497
  535MOL0     H72199   9.438   7.119  12.936 -0.2547  1.2998 -1.1084
  535MOL0     H72200   9.532   7.246  13.000 -2.0491  0.4495 -4.1199
  535MOL0     H72201   9.472   6.970  13.137  1.7651 -1.6250  0.2060
  535MOL0     H72202   9.538   7.107  13.223  0.8686 -0.8427  0.0430
  535MOL0     H72203   9.721   7.119  13.026  0.6646 -1.0246 -1.8458
  535MOL0     H72204   9.738   6.978  13.139  1.1521 -1.0756 -1.2410
  535MOL0     H72205   9.102   7.100  12.698  0.7554  1.4948  0.4314
  535MOL0     H72206   9.070   6.991  12.491  2.4923 -0.1123  1.6858
  535MOL0     H72207   9.249   7.018  12.082 -0.6720  1.1971  1.0468
  535MOL0     H72208   9.309   6.916  11.850 -0.3656 -0.7203 -2.3597
  535MOL0     H72209   8.258   7.016  10.481  0.3569 -0.3472 -0.9553
  535MOL0     H72210   8.086   7.195  10.388  0.1953 -2.3922  0.4910
  535MOL0     H72211   7.943   7.397  10.201  2.0656 -0.5815  1.8109
  535MOL0     H72212   7.736   7.496  10.132 -0.0393 -0.1443  0.1886
  535MOL0     H72213   7.658   7.938  10.223  0.2310  1.6519  3.0167
  535MOL0     H72214   7.611   7.863  10.373  1.3823 -0.7544  0.0040
  535MOL0     H72215   7.411   7.774  10.250  1.0362 -0.6739  1.7443
  535MOL0     H72216   7.434   7.903  10.132  1.2589 -1.8706 -1.2083
  535MOL0     H72217   7.373   8.065  10.292 -0.9468  0.2158  0.0753
  535MOL0     H72218   7.458   7.984  10.426 -0.1338 -0.5309  0.6616
  535MOL0     H72219   7.257   7.816  10.421 -2.0422  0.2900  0.7288
  535MOL0     H72220   7.192   7.964  10.480 -0.4197  0.9225  0.8953
  535MOL0     H72221   6.960   7.962  10.156  0.6505  3.0338 -0.1598
  535MOL0     H72222   7.826   7.838  10.384 -0.1739 -0.1792  1.4074
  535MOL0     H72223   8.040   7.893  10.462 -1.6800 -0.0396 -0.0174
  535MOL0     H72224   8.051   7.736  10.546 -0.3533 -0.4433 -0.6396
  535MOL0     H72225   8.165   7.782  10.423  0.2157  3.8303 -0.7197
  536MOL0     O72226   5.144   8.363   4.203  0.5223 -0.3447  0.9548
  536MOL0     C72227   5.164   8.333   4.320 -0.4197  0.3102 -0.6728
  536MOL0     O72228   5.280   8.294   4.369  0.1866  0.3086  0.3496
  536MOL0     C72229   5.395   8.298   4.287 -0.1545 -0.8286 -1.0626
  536MOL0     C72230   5.415   8.362   4.160  0.6680  0.4586 -0.0697
  536MOL0     C72231   5.541   8.369   4.096 -0.0211 -0.0377  0.0714
  536MOL0     C72232   5.644   8.291   4.149 -0.6909 -0.1269  0.2878
  536MOL0     O72233   5.756   8.275   4.074 -0.2362  0.1517 -0.5290
  536MOL0     C72234   5.814   8.386   4.013  0.5455  0.8705  0.7048
  536MOL0     C72235   5.964   8.373   3.968  0.7205 -0.2113 -0.0540
  536MOL0     C72236   5.981   8.242   3.887 -0.0340  0.2156 -0.3906
  536MOL0     C72237   6.117   8.213   3.841 -0.7019 -0.4421 -0.0233
  536MOL0     C72238   6.128   8.068   3.786  0.5466 -0.3950 -0.4093
  536MOL0     C72239   6.271   8.010   3.761  0.8610  0.0980 -0.2501
  536MOL0     C72240   6.363   8.109   3.691  0.5860 -0.3778  0.3732
  536MOL0     C72241   6.514   8.069   3.704 -0.4276 -0.1113  1.0640
  536MOL0     N72242   6.583   8.103   3.578 -0.1755 -0.0060  0.6163
  536MOL0     C72243   6.616   8.014   3.479 -0.2309 -0.2966 -0.6347
  536MOL0     C72244   6.685   8.089   3.393  0.0212 -0.3085 -0.3397
  536MOL0     C72245   6.744   8.046   3.262  0.0891  0.4225 -0.1681
  536MOL0     C72246   6.892   8.087   3.256  0.0052  0.1235  0.1427
  536MOL0     C72247   6.983   8.000   3.347  0.0304 -0.7965  0.4127
  536MOL0     C72248   7.075   7.914   3.254 -0.4269 -0.3388 -0.9021
  536MOL0     O72249   7.167   7.983   3.168  0.7670  0.1719  0.1279
  536MOL0     C72250   7.283   8.014   3.231  0.0089  0.2139  0.1623
  536MOL0     C72251   7.375   8.068   3.138 -0.5219  0.3493 -0.6672
  536MOL0     C72252   7.509   8.102   3.175 -0.0965 -0.3849  0.4411
  536MOL0     C72253   7.545   8.090   3.311 -0.5871 -0.8099  0.2340
  536MOL0     C72254   7.681   8.129   3.362 -0.2377  0.0985  0.0758
  536MOL0     O72255   7.780   8.126   3.264 -0.0149 -0.4974  0.2224
  536MOL0     C72256   7.904   8.169   3.309  0.8110  0.2424  0.3218
  536MOL0     C72257   7.994   8.079   3.333 -0.2362 -0.2993 -0.5135
  536MOL0     C72258   8.119   8.099   3.396 -0.0561 -0.4562  0.8319
  536MOL0     C72259   8.159   8.224   3.431  0.6499  0.0360  1.1248
  536MOL0     O72260   8.283   8.243   3.490  1.0216 -0.1370  0.3879
  536MOL0     C72261   8.337   8.376   3.492 -0.4023  0.1732 -0.2539
  536MOL0     C72262   8.482   8.355   3.532 -0.6459  0.8003  0.7888
  536MOL0     C72263   8.556   8.491   3.542 -0.6162 -0.2247 -0.0057
  536MOL0     C72264   8.708   8.463   3.573  0.2804  0.1317 -0.0077
  536MOL0     C72265   8.784   8.587   3.595  1.0179 -0.3917  1.3104
  536MOL0     C72266   8.935   8.559   3.583 -0.4936 -0.2326  0.3581
  536MOL0     C72267   8.991   8.477   3.704  0.4579  0.5836 -0.1171
  536MOL0     C72268   9.140   8.460   3.689 -0.7829 -0.3169  0.2953
  536MOL0    Cl72269   9.232   8.604   3.636  0.3407  0.5777 -0.5544
  536MOL0     C72270   8.068   8.324   3.396 -0.6028 -0.1535  0.4961
  536MOL0     C72271   7.941   8.299   3.334 -0.5072 -0.0792 -0.6582
  536MOL0     O72272   7.697   8.170   3.476 -0.1659 -0.0792 -0.9374
  536MOL0     C72273   7.456   8.063   3.404  0.3462  0.0541 -0.3389
  536MOL0     C72274   7.326   8.020   3.368  0.0795 -0.4400  0.3942
  536MOL0     N72275   6.692   8.218   3.439  0.5204 -0.2246  0.2656
  536MOL0     N72276   6.614   8.229   3.546 -0.0522 -0.2596  0.4534
  536MOL0     C72277   5.625   8.222   4.270 -0.6334 -0.7010  0.0188
  536MOL0     C72278   5.507   8.233   4.337 -0.0475  1.2506 -0.5113
  536MOL0     C72279   5.050   8.308   4.404  0.0007  0.2696  0.4061
  536MOL0     C72280   5.068   8.278   4.542 -1.0639 -0.0436  0.4276
  536MOL0     C72281   4.973   8.264   4.633  0.5255  0.0856 -0.0982
  536MOL0     C72282   4.842   8.277   4.593  0.6823  0.1011  0.6268
  536MOL0     O72283   4.741   8.261   4.694  0.1834 -0.4812 -0.4582
  536MOL0     C72284   4.602   8.288   4.655  0.3824  0.0307 -0.8105
  536MOL0     C72285   4.500   8.210   4.740  0.5785 -0.3640  0.4282
  536MOL0     C72286   4.361   8.256   4.695  0.3390  0.9974 -0.0652
  536MOL0     C72287   4.253   8.154   4.732  0.6972 -0.3510  0.2280
  536MOL0     C72288   4.125   8.189   4.672  0.3916 -1.0173  0.1586
  536MOL0     C72289   4.015   8.233   4.647 -0.3305  0.0920  0.3610
  536MOL0     C72290   4.816   8.297   4.457  0.4837  0.1084  0.1095
  536MOL0     C72291   4.912   8.321   4.365  0.3870 -0.1877 -0.4170
  536MOL0     C72292   4.859   8.346   4.218 -0.3301 -0.5380 -0.5288
  536MOL0     H72293   5.341   8.416   4.103  1.5034  0.9066 -0.7468
  536MOL0     H72294   5.551   8.412   3.997 -1.5692  3.5372  1.3056
  536MOL0     H72295   5.759   8.397   3.919 -2.4416  0.9176  2.3330
  536MOL0     H72296   5.810   8.482   4.066 -0.6114  0.0785  2.1180
  536MOL0     H72297   6.026   8.374   4.058  0.8307  1.0523 -0.1382
  536MOL0     H72298   5.991   8.455   3.902  2.0469  0.2811  1.0633
  536MOL0     H72299   5.923   8.241   3.794 -0.2312  0.0172 -0.2663
  536MOL0     H72300   5.944   8.155   3.942 -0.7282  1.3836  1.0363
  536MOL0     H72301   6.155   8.290   3.773  3.9816 -1.2997  1.2345
  536MOL0     H72302   6.175   8.230   3.933 -2.1664 -0.1489  0.8858
  536MOL0     H72303   6.076   7.987   3.838  1.4047  0.3664  1.7342
  536MOL0     H72304   6.089   8.070   3.683  2.0822 -0.0064 -1.0171
  536MOL0     H72305   6.310   7.981   3.859 -1.8917 -2.7315  0.1793
  536MOL0     H72306   6.254   7.917   3.706  0.9992 -1.7566  2.6117
  536MOL0     H72307   6.365   8.205   3.744 -0.9442 -0.7281  1.1245
  536MOL0     H72308   6.336   8.121   3.586 -0.3064 -1.7531  0.4184
  536MOL0     H72309   6.555   8.119   3.793  0.9019  1.4475 -0.3526
  536MOL0     H72310   6.518   7.961   3.717  0.8185 -0.2648 -0.4280
  536MOL0     H72311   6.599   7.907   3.474 -2.5192  0.0772 -3.5081
  536MOL0     H72312   6.737   7.937   3.261 -0.8615  0.4728 -1.2480
  536MOL0     H72313   6.692   8.088   3.175  3.2550  1.8786 -1.5492
  536MOL0     H72314   6.940   8.093   3.158  0.1828 -2.4698  0.0011
  536MOL0     H72315   6.902   8.184   3.306  2.3246 -0.7486  1.5282
  536MOL0     H72316   6.933   7.943   3.426  1.1350 -1.2229  0.8278
  536MOL0     H72317   7.050   8.074   3.391 -1.3455  1.1586 -0.6477
  536MOL0     H72318   7.007   7.851   3.197 -3.1034  1.2551  0.3193
  536MOL0     H72319   7.141   7.859   3.322  0.2374  2.9796  1.3999
  536MOL0     H72320   7.341   8.079   3.035 -1.5930 -1.5826 -0.5655
  536MOL0     H72321   7.579   8.122   3.095 -0.7449 -0.6266 -0.1939
  536MOL0     H72322   7.970   7.977   3.303 -2.1150 -0.2928  0.7762
  536MOL0     H72323   8.183   8.012   3.411  1.3167  0.1205 -1.2455
  536MOL0     H72324   8.338   8.423   3.394 -1.6667  6.9529  2.4468
  536MOL0     H72325   8.280   8.431   3.568  2.4341  1.8867  0.7650
  536MOL0     H72326   8.495   8.284   3.614  0.4151 -1.8369 -1.4971
  536MOL0     H72327   8.513   8.294   3.447 -1.9569  1.3566 -0.1221
  536MOL0     H72328   8.540   8.554   3.454 -0.5088 -0.3315 -0.1021
  536MOL0     H72329   8.531   8.542   3.636  3.7190  1.3528  0.5454
  536MOL0     H72330   8.751   8.400   3.494  0.8774 -2.2222  2.0662
  536MOL0     H72331   8.721   8.399   3.661 -0.2402  1.4162  1.0272
  536MOL0     H72332   8.755   8.632   3.690 -2.3584 -2.1020  1.2133
  536MOL0     H72333   8.747   8.651   3.514 -0.3287 -1.2279  1.2424
  536MOL0     H72334   8.957   8.510   3.488  3.6709 -2.0618  1.9618
  536MOL0     H72335   8.990   8.654   3.580  0.9755 -1.0510 -2.3852
  536MOL0     H72336   8.946   8.377   3.696  0.6192  0.4346  0.7909
  536MOL0     H72337   8.968   8.532   3.795 -2.8995 -0.8609  0.0602
  536MOL0     H72338   9.184   8.434   3.786 -2.2975 -1.6514  0.6715
  536MOL0     H72339   9.161   8.372   3.627 -1.7703 -0.0971 -0.3704
  536MOL0     H72340   8.092   8.428   3.416 -2.0599  0.4961 -0.9164
  536MOL0     H72341   7.865   8.376   3.332 -0.7850 -0.3594 -1.5802
  536MOL0     H72342   7.482   8.059   3.509  0.1648 -1.9966 -0.3308
  536MOL0     H72343   7.254   7.986   3.442 -0.7948 -0.3559 -0.3911
  536MOL0     H72344   5.710   8.168   4.311  3.5595  0.6770 -5.6922
  536MOL0     H72345   5.507   8.183   4.433 -1.2155 -0.7882 -1.5088
  536MOL0     H72346   5.170   8.261   4.576 -0.4104  0.2062 -1.2967
  536MOL0     H72347   4.982   8.230   4.735  0.4193  0.3118 -0.0139
  536MOL0     H72348   4.581   8.266   4.550 -0.0144 -1.6824 -0.3973
  536MOL0     H72349   4.585   8.396   4.663  3.0018  0.5331 -0.9554
  536MOL0     H72350   4.506   8.239   4.845  0.5633  1.0745  0.0505
  536MOL0     H72351   4.520   8.103   4.731  0.6488 -0.6213  3.0369
  536MOL0     H72352   4.360   8.268   4.586 -2.6355  0.8426 -0.1511
  536MOL0     H72353   4.345   8.356   4.735  0.2194  1.3120 -0.8722
  536MOL0     H72354   4.277   8.052   4.700 -1.1582 -1.0272  0.8818
  536MOL0     H72355   4.240   8.142   4.840 -0.3461  0.9660  0.2879
  536MOL0     H72356   3.919   8.276   4.632 -0.1445 -0.1866 -2.0790
  536MOL0     H72357   4.715   8.295   4.420 -0.5519  0.9861  2.6365
  536MOL0     H72358   4.892   8.271   4.146 -4.1958 -2.7495 -0.2797
  536MOL0     H72359   4.750   8.340   4.210 -0.4778 -1.5701  1.5222
  536MOL0     H72360   4.883   8.448   4.188  1.1039  0.7953  4.1744
  537MOL0     O72361   8.549   7.278   5.947  0.1393 -0.4158  0.0347
  537MOL0     C72362   8.556   7.231   5.831  0.0690  0.6163 -0.1789
  537MOL0     O72363   8.449   7.174   5.766 -0.1216  0.1678  0.3354
  537MOL0     C72364   8.322   7.181   5.832 -0.3704  0.1128  1.1491
  537MOL0     C72365   8.274   7.068   5.898 -0.1876  0.8168  0.2563
  537MOL0     C72366   8.156   7.074   5.973  1.3078  0.3904  1.0610
  537MOL0     C72367   8.088   7.194   5.987 -0.2990 -0.2581  0.1225
  537MOL0     O72368   7.976   7.201   6.067  0.1690 -0.3086 -0.1740
  537MOL0     C72369   7.859   7.266   6.024  0.3641  0.4576  0.0947
  537MOL0     C72370   7.731   7.214   6.083 -0.0104 -0.7140  0.1211
  537MOL0     C72371   7.707   7.065   6.045  0.0396 -0.0771 -0.3647
  537MOL0     C72372   7.583   7.021   6.116  0.5143  0.6933  0.4731
  537MOL0     C72373   7.572   6.870   6.101  0.1247 -0.0236 -0.3597
  537MOL0     C72374   7.533   6.818   5.963  0.1226  0.2566 -0.8378
  537MOL0     C72375   7.551   6.666   5.960  0.0035 -0.0018 -0.2204
  537MOL0     C72376   7.543   6.622   5.809  0.5140  0.2906 -1.0940
  537MOL0     N72377   7.591   6.489   5.782 -0.6744  0.4056  0.1177
  537MOL0     C72378   7.723   6.447   5.786  0.5056  0.5270  0.5277
  537MOL0     C72379   7.718   6.322   5.732 -0.0704 -0.6987  0.3650
  537MOL0     C72380   7.833   6.234   5.727 -0.2326  0.4970 -0.5662
  537MOL0     C72381   7.965   6.315   5.706 -0.2061  0.6731 -0.2400
  537MOL0     C72382   8.066   6.215   5.656  0.3600  0.8657 -0.1300
  537MOL0     C72383   8.199   6.285   5.609  0.1136  0.3126 -0.3001
  537MOL0     O72384   8.285   6.322   5.723 -0.5217 -0.3526  0.3051
  537MOL0     C72385   8.396   6.392   5.685 -0.3404 -0.2077 -0.0289
  537MOL0     C72386   8.500   6.325   5.635 -0.0046  0.2295  0.9531
  537MOL0     C72387   8.616   6.390   5.595  0.2244  0.5876  0.0971
  537MOL0     C72388   8.617   6.529   5.604 -0.0163  0.4484  0.1509
  537MOL0     C72389   8.746   6.594   5.584 -0.0418  0.2377 -0.0150
  537MOL0     O72390   8.838   6.534   5.520 -0.7613  0.4225  0.2418
  537MOL0     C72391   8.965   6.587   5.509  0.4405  0.1256 -0.5363
  537MOL0     C72392   9.048   6.599   5.626  0.3683  0.3295 -0.5952
  537MOL0     C72393   9.180   6.627   5.613 -0.5207  0.0529 -0.0598
  537MOL0     C72394   9.238   6.645   5.481  0.1344  0.0676 -1.1365
  537MOL0     O72395   9.360   6.689   5.460 -0.3428  0.6411  0.0867
  537MOL0     C72396   9.464   6.634   5.543  0.2892  0.5798 -0.0812
  537MOL0     C72397   9.602   6.643   5.472  0.2433  0.0844  0.2145
  537MOL0     C72398   9.643   6.793   5.462  0.1540 -0.2752 -0.8113
  537MOL0     C72399   9.786   6.803   5.412 -0.3906 -0.2409  0.3950
  537MOL0     C72400   9.833   6.945   5.418  0.3300 -0.1864 -0.5174
  537MOL0     C72401   9.845   7.001   5.566 -0.1987 -0.1344  0.3148
  537MOL0     C72402   9.923   7.142   5.570  0.1955  1.0125 -1.0092
  537MOL0     C72403  10.040   7.126   5.673  0.0953  0.2419 -0.0429
  537MOL0    Cl72404  10.159   6.997   5.636 -0.3803 -0.0613  0.1110
  537MOL0     C72405   9.159   6.635   5.365  0.1891 -1.0932  0.1978
  537MOL0     C72406   9.022   6.606   5.383 -0.2129 -0.0621 -0.0701
  537MOL0     O72407   8.753   6.706   5.634 -0.6805  0.3220 -0.5933
  537MOL0     C72408   8.508   6.602   5.656 -0.8909  0.0167  0.4293
  537MOL0     C72409   8.390   6.535   5.694  0.0105  0.2618  0.5818
  537MOL0     N72410   7.587   6.290   5.692  0.2673  0.0393  0.3764
  537MOL0     N72411   7.515   6.386   5.735  0.0326 -0.8215  0.2200
  537MOL0     C72412   8.130   7.306   5.913 -0.3889  0.1602  1.0744
  537MOL0     C72413   8.248   7.297   5.842 -0.8461 -1.0314 -0.0369
  537MOL0     C72414   8.693   7.210   5.773  0.4422 -0.1399 -0.3858
  537MOL0     C72415   8.711   7.088   5.711  0.5935 -0.5495  0.0686
  537MOL0     C72416   8.829   7.044   5.653  0.8228  0.3125  1.2507
  537MOL0     C72417   8.933   7.132   5.668  0.1643 -0.5423 -0.0258
  537MOL0     O72418   9.071   7.102   5.633  0.3934 -0.3303  0.1000
  537MOL0     C72419   9.086   7.029   5.512 -0.5359  0.1004  0.2989
  537MOL0     C72420   9.236   7.026   5.481  0.2898 -0.6389 -0.3943
  537MOL0     C72421   9.276   7.175   5.443 -0.2111 -1.0049  0.5410
  537MOL0     C72422   9.414   7.168   5.377  0.2044 -0.1511  0.2988
  537MOL0     C72423   9.483   7.301   5.367 -0.4095 -1.4951  0.3731
  537MOL0     C72424   9.561   7.394   5.377  0.3065  0.0293 -1.0284
  537MOL0     C72425   8.924   7.262   5.732  0.5031  0.6975 -0.0729
  537MOL0     C72426   8.804   7.295   5.784 -0.1508 -0.4715  0.5105
  537MOL0     C72427   8.790   7.413   5.872 -0.3279  0.2007 -0.5543
  537MOL0     H72428   8.330   6.976   5.886 -1.0990  0.5982 -3.4309
  537MOL0     H72429   8.116   6.993   6.033  0.8784 -0.2182 -0.0314
  537MOL0     H72430   7.876   7.374   6.034  1.7464  0.3718 -1.1658
  537MOL0     H72431   7.845   7.248   5.917  0.4494 -0.7323  0.2667
  537MOL0     H72432   7.652   7.278   6.044 -0.2322  0.2018  1.9443
  537MOL0     H72433   7.720   7.234   6.190 -3.9387  1.0879 -0.4731
  537MOL0     H72434   7.794   7.000   6.063 -0.5014 -0.8845 -0.5733
  537MOL0     H72435   7.689   7.065   5.937  0.7796 -0.5035 -0.4986
  537MOL0     H72436   7.576   7.048   6.222 -0.8745 -2.6792  1.3930
  537MOL0     H72437   7.497   7.079   6.083 -0.8895  1.0369  4.2486
  537MOL0     H72438   7.670   6.830   6.129  0.6243  0.6535 -1.0921
  537MOL0     H72439   7.501   6.834   6.176  1.2666  2.5285  2.0954
  537MOL0     H72440   7.431   6.846   5.935 -0.4188 -0.4225  0.3963
  537MOL0     H72441   7.600   6.869   5.893  1.2722  1.3477  0.9631
  537MOL0     H72442   7.468   6.622   6.017  0.9046  1.0640  2.0541
  537MOL0     H72443   7.645   6.633   6.005 -0.4284  0.8835  1.4298
  537MOL0     H72444   7.442   6.635   5.771  0.6854  0.6292 -1.4393
  537MOL0     H72445   7.615   6.682   5.753  1.4529 -1.8368 -2.2983
  537MOL0     H72446   7.814   6.495   5.822  2.1729 -3.5601  2.3984
  537MOL0     H72447   7.842   6.173   5.817  3.0544 -1.0176 -1.7658
  537MOL0     H72448   7.813   6.166   5.644 -4.5866  0.4125  0.2800
  537MOL0     H72449   7.951   6.397   5.635  2.4079 -0.0921 -1.7819
  537MOL0     H72450   8.000   6.359   5.800 -0.2957 -0.1931  0.2049
  537MOL0     H72451   8.027   6.161   5.569  0.8329  3.0104 -1.7730
  537MOL0     H72452   8.079   6.149   5.742 -0.8644  1.4026  0.4929
  537MOL0     H72453   8.182   6.377   5.552 -0.7085 -0.1325 -0.7937
  537MOL0     H72454   8.249   6.221   5.536  0.0324  1.9929 -1.9339
  537MOL0     H72455   8.489   6.218   5.621 -3.5565  0.3668  1.7520
  537MOL0     H72456   8.700   6.332   5.558  0.6523 -0.0043  1.9263
  537MOL0     H72457   9.010   6.585   5.727  2.7254  0.1366  0.3129
  537MOL0     H72458   9.242   6.640   5.701 -0.5077  1.5292 -0.2515
  537MOL0     H72459   9.467   6.686   5.639 -0.1043  0.9713 -0.2702
  537MOL0     H72460   9.445   6.530   5.568  1.6735  0.4755  0.5723
  537MOL0     H72461   9.665   6.587   5.541  0.4008  1.0957  0.9101
  537MOL0     H72462   9.595   6.597   5.372 -1.2432 -0.0193  0.3437
  537MOL0     H72463   9.574   6.846   5.396  0.2581  0.3303 -0.4426
  537MOL0     H72464   9.624   6.854   5.551 -2.7651  1.8482 -2.7161
  537MOL0     H72465   9.778   6.770   5.308  0.1537  0.0974  0.2435
  537MOL0     H72466   9.849   6.733   5.467 -0.0381 -0.3411 -0.1242
  537MOL0     H72467   9.764   7.008   5.362 -0.7085 -0.2965  0.6064
  537MOL0     H72468   9.932   6.942   5.371  0.1053 -0.7854 -0.9751
  537MOL0     H72469   9.739   7.027   5.577 -0.0010 -0.2629  3.3257
  537MOL0     H72470   9.881   6.932   5.643  0.5834 -2.4106 -1.9333
  537MOL0     H72471   9.853   7.220   5.601 -0.9607 -0.8723  1.4135
  537MOL0     H72472   9.967   7.165   5.473 -0.4437  2.6500 -0.9338
  537MOL0     H72473  10.096   7.220   5.682  1.4891 -0.4845 -0.6622
  537MOL0     H72474   9.997   7.106   5.771  0.2044  0.1655 -0.0097
  537MOL0     H72475   9.207   6.648   5.268 -1.6643 -2.0409 -0.8971
  537MOL0     H72476   8.966   6.588   5.292 -0.5118 -3.0174  0.5896
  537MOL0     H72477   8.514   6.710   5.646 -0.8203  0.1631  1.8273
  537MOL0     H72478   8.302   6.587   5.730  1.9624  2.2100  2.9193
  537MOL0     H72479   8.080   7.401   5.905 -1.4052 -0.4708 -0.9418
  537MOL0     H72480   8.288   7.385   5.791 -1.4928 -0.8988 -0.3210
  537MOL0     H72481   8.635   7.013   5.687  0.7672 -0.5528 -0.4955
  537MOL0     H72482   8.817   6.946   5.608 -3.8956  0.2965  2.0873
  537MOL0     H72483   9.026   7.068   5.429 -0.0914 -0.8832 -0.5127
  537MOL0     H72484   9.067   6.922   5.523 -4.9587  0.6988  0.1799
  537MOL0     H72485   9.261   6.978   5.386  0.7702  2.6912 -2.0734
  537MOL0     H72486   9.283   6.994   5.574  0.5954 -0.5688 -0.5263
  537MOL0     H72487   9.284   7.245   5.526  2.6862  0.1244 -0.5423
  537MOL0     H72488   9.207   7.228   5.377 -0.6670  0.0042  1.8020
  537MOL0     H72489   9.486   7.099   5.421  1.0558 -0.4353 -1.4321
  537MOL0     H72490   9.411   7.115   5.281 -1.1258 -0.6501  0.5914
  537MOL0     H72491   9.639   7.467   5.387  0.8601 -0.4636 -1.6098
  537MOL0     H72492   9.011   7.326   5.736 -0.9737  2.7437  1.1163
  537MOL0     H72493   8.697   7.466   5.850 -2.4375 -3.8338 -2.4257
  537MOL0     H72494   8.785   7.370   5.973 -0.0409  0.2480 -0.5199
  537MOL0     H72495   8.871   7.486   5.874 -0.4770  0.4173  2.3139
  538MOL0     O72496  10.546   3.164   9.272 -0.3691 -0.5615  0.3988
  538MOL0     C72497  10.490   3.204   9.167 -0.2341 -0.5828 -0.0333
  538MOL0     O72498  10.556   3.247   9.053  0.0653  0.0195 -0.0327
  538MOL0     C72499  10.690   3.256   9.079  0.6351  0.3446 -0.2728
  538MOL0     C72500  10.770   3.167   9.021 -0.3009 -0.0179  0.1052
  538MOL0     C72501  10.912   3.162   9.052  0.4688 -0.2203  0.2911
  538MOL0     C72502  10.965   3.264   9.134 -0.7075 -0.4459 -0.6174
  538MOL0     O72503  11.102   3.279   9.150  0.3744  1.0554 -0.4917
  538MOL0     C72504  11.187   3.165   9.118 -0.4118  0.3001  0.1652
  538MOL0     C72505  11.334   3.224   9.123  0.2612  0.0759 -0.0805
  538MOL0     C72506  11.422   3.111   9.055  0.9861  0.4057 -0.5385
  538MOL0     C72507  11.473   3.004   9.157 -0.0883  0.0437  0.0715
  538MOL0     C72508  11.506   2.871   9.083  0.2644 -0.3234 -0.8465
  538MOL0     C72509  11.620   2.888   8.988 -0.0428 -0.0361  1.3517
  538MOL0     C72510  11.657   2.754   8.923 -0.6936  0.4608 -0.6482
  538MOL0     C72511  11.751   2.784   8.808 -0.4118 -0.3455  0.1666
  538MOL0     N72512  11.866   2.869   8.850  0.6793  0.0657  0.1098
  538MOL0     C72513  11.988   2.821   8.882 -0.4172 -0.3577 -1.3644
  538MOL0     C72514  12.067   2.932   8.892  0.5656  0.2783 -0.4910
  538MOL0     C72515  12.216   2.930   8.915 -0.2805 -0.4027 -0.6474
  538MOL0     C72516  12.299   2.833   8.827 -0.4575 -0.4889 -0.3320
  538MOL0     C72517  12.264   2.834   8.677 -0.6800 -0.7745  0.1113
  538MOL0     C72518  12.260   2.986   8.622  0.3504  1.1622  0.2976
  538MOL0     O72519  12.313   2.999   8.487  0.3191 -0.4447 -0.0207
  538MOL0     C72520  12.448   2.992   8.462 -0.8645 -0.3516 -0.3939
  538MOL0     C72521  12.550   2.948   8.552  0.2417  0.2326  0.7611
  538MOL0     C72522  12.686   2.951   8.509  1.0761  0.0289 -0.2169
  538MOL0     C72523  12.717   2.982   8.372  0.0629 -0.1068 -0.8880
  538MOL0     C72524  12.854   2.962   8.334 -0.5016 -0.0507  0.0682
  538MOL0     O72525  12.874   2.953   8.198 -0.0339 -0.4905 -0.5506
  538MOL0     C72526  12.998   2.907   8.158 -0.2939  1.4468 -0.0813
  538MOL0     C72527  13.123   2.964   8.182  0.0336 -0.1472  0.1871
  538MOL0     C72528  13.240   2.891   8.169 -0.2402 -1.5887  0.5336
  538MOL0     C72529  13.243   2.771   8.105 -0.2323  0.1063 -0.1464
  538MOL0     O72530  13.366   2.709   8.081 -0.7136  0.0562  0.1676
  538MOL0     C72531  13.381   2.562   8.094 -0.3341 -0.2745 -0.2669
  538MOL0     C72532  13.485   2.502   8.004 -0.2172 -0.3167 -0.1875
  538MOL0     C72533  13.628   2.518   8.048  0.2995  0.9284  0.4719
  538MOL0     C72534  13.734   2.497   7.943  0.3151 -0.7381  0.3439
  538MOL0     C72535  13.874   2.511   8.003 -0.1051  0.5989  0.5099
  538MOL0     C72536  13.993   2.463   7.920 -0.3261 -0.6817  0.6528
  538MOL0     C72537  14.121   2.463   8.004  0.1204  0.6614  0.1656
  538MOL0     C72538  14.243   2.405   7.922  0.7941 -0.2708 -0.6289
  538MOL0    Cl72539  14.386   2.404   8.022 -0.1463  0.2086  0.4984
  538MOL0     C72540  13.120   2.716   8.071  0.3603 -0.5705 -0.9606
  538MOL0     C72541  13.000   2.779   8.102 -0.2639 -0.1991  0.7076
  538MOL0     O72542  12.948   2.953   8.418 -0.4782  0.0275  0.3784
  538MOL0     C72543  12.615   3.013   8.288  0.6448  0.3927  0.8093
  538MOL0     C72544  12.483   3.015   8.328 -0.6660 -1.1945 -0.3118
  538MOL0     N72545  11.995   3.046   8.865  0.6322  0.6208  0.1153
  538MOL0     N72546  11.867   3.011   8.847  0.5722  0.0433  0.6558
  538MOL0     C72547  10.879   3.361   9.188 -0.2620 -0.0509  0.3927
  538MOL0     C72548  10.740   3.356   9.163  0.4059  0.2284  0.7567
  538MOL0     C72549  10.348   3.172   9.153  0.2089  0.9233  0.1390
  538MOL0     C72550  10.292   3.156   9.028 -0.0497  0.9655 -0.1617
  538MOL0     C72551  10.159   3.118   9.000 -0.2223  1.4466  0.3623
  538MOL0     C72552  10.072   3.098   9.106 -0.9580  0.3890 -0.3205
  538MOL0     O72553   9.945   3.054   9.097 -0.6323 -0.0353 -0.1946
  538MOL0     C72554   9.905   3.023   8.964  0.3753  0.0796 -0.4124
  538MOL0     C72555   9.759   2.981   8.984  0.0986 -0.6645  1.2906
  538MOL0     C72556   9.744   2.844   9.046  0.2159  0.2674 -0.3846
  538MOL0     C72557   9.598   2.823   9.091  0.1554 -0.3489 -0.6056
  538MOL0     C72558   9.520   2.781   8.975  0.1463  0.9291 -0.8528
  538MOL0     C72559   9.443   2.729   8.896  0.1458  0.7015 -0.4598
  538MOL0     C72560  10.121   3.114   9.229 -0.4279 -0.6518 -0.2284
  538MOL0     C72561  10.257   3.148   9.264  0.5117  0.0363  0.2925
  538MOL0     C72562  10.297   3.157   9.415 -0.0439 -0.1350 -0.4619
  538MOL0     H72563  10.722   3.085   8.967  0.0202 -1.5700  2.0657
  538MOL0     H72564  10.968   3.078   9.013 -1.0222 -1.8245  1.4692
  538MOL0     H72565  11.175   3.086   9.193 -0.8115  0.3579  0.1609
  538MOL0     H72566  11.166   3.120   9.021 -1.1938 -0.8273  0.8282
  538MOL0     H72567  11.362   3.252   9.225  1.9731 -1.1391 -0.1662
  538MOL0     H72568  11.340   3.317   9.067 -1.5656  0.5614  0.4354
  538MOL0     H72569  11.508   3.157   9.005  1.1328 -2.3346 -3.0971
  538MOL0     H72570  11.379   3.064   8.966  2.2447  1.2354 -1.6282
  538MOL0     H72571  11.562   3.043   9.207 -1.0411  6.4250 -2.2240
  538MOL0     H72572  11.405   2.981   9.239 -0.6881 -1.7389 -0.8663
  538MOL0     H72573  11.542   2.804   9.162  0.8500  0.4114 -0.4722
  538MOL0     H72574  11.418   2.828   9.035 -0.7708  0.9424 -0.1352
  538MOL0     H72575  11.591   2.955   8.907  2.8986  1.5611  1.4682
  538MOL0     H72576  11.704   2.933   9.043 -0.6389 -0.3593  2.5664
  538MOL0     H72577  11.564   2.705   8.895  0.0955 -0.9950 -0.7898
  538MOL0     H72578  11.707   2.691   8.997  0.2072  0.7555 -0.9909
  538MOL0     H72579  11.773   2.690   8.756  1.1314  0.5140 -0.8109
  538MOL0     H72580  11.697   2.841   8.732  0.9570 -0.1132 -0.6787
  538MOL0     H72581  12.019   2.718   8.895  1.7264  0.4975  0.9715
  538MOL0     H72582  12.255   3.033   8.916  0.0173 -0.4382  2.7393
  538MOL0     H72583  12.234   2.898   9.018 -0.6983  2.8490  0.5632
  538MOL0     H72584  12.402   2.867   8.834 -0.4521 -0.0882 -2.0219
  538MOL0     H72585  12.288   2.733   8.871 -0.9386 -0.6053 -0.7058
  538MOL0     H72586  12.167   2.787   8.661 -0.6730 -0.5885 -0.4690
  538MOL0     H72587  12.343   2.779   8.625 -1.0264 -0.5180 -0.6912
  538MOL0     H72588  12.317   3.055   8.686  0.7588 -0.0504  1.2702
  538MOL0     H72589  12.152   3.002   8.621  0.0611 -0.5224  1.1051
  538MOL0     H72590  12.528   2.913   8.653  0.2207 -1.3792  0.2287
  538MOL0     H72591  12.767   2.928   8.578  1.5650 -1.0351 -1.1084
  538MOL0     H72592  13.131   3.067   8.217  1.3057  0.4646 -1.7477
  538MOL0     H72593  13.332   2.941   8.195 -1.6698  2.7297 -1.7173
  538MOL0     H72594  13.399   2.533   8.198 -2.0612 -0.3548  0.0474
  538MOL0     H72595  13.289   2.512   8.063 -0.6824  1.4133 -2.1478
  538MOL0     H72596  13.461   2.397   7.986  2.0700 -1.9084  4.4194
  538MOL0     H72597  13.479   2.560   7.911 -2.5423  1.3362  0.8777
  538MOL0     H72598  13.636   2.620   8.086 -2.3264  0.5552  2.3177
  538MOL0     H72599  13.641   2.457   8.138 -0.8854  0.0845  0.0970
  538MOL0     H72600  13.738   2.561   7.854 -0.9501 -0.6237  0.3511
  538MOL0     H72601  13.727   2.398   7.895 -2.5912  0.5023 -2.0965
  538MOL0     H72602  13.880   2.458   8.099  3.1557  2.0318  1.2183
  538MOL0     H72603  13.895   2.614   8.032  2.8114  0.1233  0.3799
  538MOL0     H72604  13.977   2.367   7.871 -1.4455  0.3695 -1.1520
  538MOL0     H72605  14.012   2.536   7.840 -2.1758 -1.8765 -0.9563
  538MOL0     H72606  14.099   2.405   8.095 -1.8703 -1.4236 -1.5237
  538MOL0     H72607  14.143   2.564   8.039  3.3456  0.3687 -0.6264
  538MOL0     H72608  14.223   2.301   7.896  0.5585 -0.8610  1.7162
  538MOL0     H72609  14.255   2.465   7.831 -1.1378  2.2395  0.6514
  538MOL0     H72610  13.109   2.621   8.018  0.5187 -0.2503 -1.5769
  538MOL0     H72611  12.906   2.734   8.071 -0.2915  1.6184 -2.1437
  538MOL0     H72612  12.636   3.027   8.182 -0.2316  0.3035  0.6205
  538MOL0     H72613  12.411   3.056   8.259  2.3111  1.9692 -1.8274
  538MOL0     H72614  10.925   3.442   9.244  0.6096 -1.9033  2.5375
  538MOL0     H72615  10.669   3.430   9.198  0.2531  1.3521 -1.7061
  538MOL0     H72616  10.360   3.171   8.944  0.9052 -3.5200 -0.4183
  538MOL0     H72617  10.142   3.093   8.896  0.8173 -0.2698  0.5643
  538MOL0     H72618   9.967   2.939   8.931  1.2242  0.4453  0.2348
  538MOL0     H72619   9.915   3.103   8.890  1.1505 -1.6251 -2.2684
  538MOL0     H72620   9.734   2.976   8.877  4.1547  2.5199 -0.0650
  538MOL0     H72621   9.703   3.057   9.038  0.2172 -0.9170  1.7689
  538MOL0     H72622   9.801   2.828   9.138 -0.8002  1.6612  0.5178
  538MOL0     H72623   9.780   2.765   8.979  1.8642 -0.2438  1.0252
  538MOL0     H72624   9.598   2.745   9.168 -0.1014 -1.7399 -1.9745
  538MOL0     H72625   9.557   2.919   9.123 -1.1166 -1.0723  0.0332
  538MOL0     H72626   9.367   2.692   8.830  0.2490  3.5736 -2.3585
  538MOL0     H72627  10.055   3.100   9.314  0.1623 -0.4488  0.2761
  538MOL0     H72628  10.212   3.181   9.479 -0.4107  0.8123 -1.2856
  538MOL0     H72629  10.361   3.077   9.455  0.6822  0.6780  0.0277
  538MOL0     H72630  10.352   3.251   9.408 -0.1378 -0.0934 -0.6360
  539MOL0     O72631   3.978   1.414   2.040  0.7793 -0.1835  0.6241
  539MOL0     C72632   3.910   1.507   2.086 -0.9519  0.2725  0.7862
  539MOL0     O72633   3.952   1.601   2.179 -0.5411  0.6176  0.8920
  539MOL0     C72634   4.088   1.617   2.216 -0.2764  0.3639 -0.1681
  539MOL0     C72635   4.109   1.662   2.351  0.1157  0.3488  0.1478
  539MOL0     C72636   4.234   1.671   2.399 -0.2691 -0.4203  0.0001
  539MOL0     C72637   4.338   1.653   2.315 -0.5362  0.2048  0.9989
  539MOL0     O72638   4.476   1.673   2.343  0.3811 -0.3292 -0.6001
  539MOL0     C72639   4.527   1.621   2.468  0.0220  0.4392 -0.7364
  539MOL0     C72640   4.675   1.633   2.494  0.4125  0.4278  0.5702
  539MOL0     C72641   4.722   1.765   2.438 -0.2779 -0.5453 -0.5473
  539MOL0     C72642   4.844   1.827   2.519  0.6871  0.5926  0.1366
  539MOL0     C72643   4.883   1.960   2.460  0.2939 -0.3574 -0.4823
  539MOL0     C72644   4.967   2.035   2.573 -0.6228 -0.9623  0.5278
  539MOL0     C72645   5.021   2.172   2.549 -0.4036 -0.5354 -0.1471
  539MOL0     C72646   5.012   2.270   2.667  0.5624 -0.2083  0.0875
  539MOL0     N72647   4.874   2.289   2.726  0.1484  0.1928  0.6187
  539MOL0     C72648   4.750   2.283   2.664  0.2845 -0.4876 -0.4696
  539MOL0     C72649   4.657   2.296   2.766 -1.4420  0.5990  0.3115
  539MOL0     C72650   4.514   2.307   2.758  0.0989 -0.4376 -0.5268
  539MOL0     C72651   4.444   2.226   2.645  0.1768 -0.1694 -0.1447
  539MOL0     C72652   4.430   2.070   2.641  0.6978  0.1031 -0.3103
  539MOL0     C72653   4.362   2.010   2.766  0.4673 -0.3070 -0.0103
  539MOL0     O72654   4.403   1.875   2.789  0.5279 -1.0199  0.0351
  539MOL0     C72655   4.531   1.844   2.832  0.2759  0.7960 -0.1024
  539MOL0     C72656   4.566   1.707   2.844 -0.2496 -0.1154  0.4105
  539MOL0     C72657   4.701   1.663   2.887 -0.4013  0.3841  0.5687
  539MOL0     C72658   4.793   1.763   2.927 -0.0232  0.0059 -0.4827
  539MOL0     C72659   4.930   1.730   2.947  0.2151  0.0451 -0.0632
  539MOL0     O72660   5.023   1.825   2.913 -0.3591 -0.4388 -0.4135
  539MOL0     C72661   5.155   1.796   2.935  0.5891  0.0771  0.9086
  539MOL0     C72662   5.241   1.829   2.832  0.3918 -0.3115 -0.1951
  539MOL0     C72663   5.376   1.803   2.844 -0.9166 -0.6222 -0.0259
  539MOL0     C72664   5.433   1.757   2.968  0.1925 -0.3555 -0.0827
  539MOL0     O72665   5.569   1.747   2.974  0.2227  0.1787 -0.6194
  539MOL0     C72666   5.621   1.655   3.068 -0.3709 -0.4922  0.0678
  539MOL0     C72667   5.774   1.688   3.050  0.6885  0.3869  0.3376
  539MOL0     C72668   5.857   1.575   3.113 -0.4324 -0.3501 -0.1522
  539MOL0     C72669   5.992   1.567   3.052  0.7182 -0.5124 -0.0637
  539MOL0     C72670   6.092   1.506   3.151  0.4240  0.2470  0.0225
  539MOL0     C72671   6.235   1.521   3.102 -0.1104  0.3097  0.1474
  539MOL0     C72672   6.330   1.416   3.167  1.0046 -0.5848  0.0733
  539MOL0     C72673   6.481   1.435   3.131 -0.1736  0.0847 -0.8737
  539MOL0    Cl72674   6.513   1.410   2.957 -0.1358 -0.0407  0.1789
  539MOL0     C72675   5.343   1.721   3.071  0.6224  0.8586  0.4391
  539MOL0     C72676   5.208   1.741   3.052 -0.0330 -0.1098  0.7987
  539MOL0     O72677   4.952   1.614   2.983 -0.9036 -0.6731  0.2052
  539MOL0     C72678   4.753   1.896   2.929 -0.2743  0.8337  0.4165
  539MOL0     C72679   4.630   1.939   2.874  0.1682 -0.0705 -0.3838
  539MOL0     N72680   4.721   2.276   2.895 -0.1371 -0.0069  0.4651
  539MOL0     N72681   4.847   2.275   2.868 -0.3421  0.0561  0.1072
  539MOL0     C72682   4.321   1.607   2.185 -0.0144  0.8491  0.2292
  539MOL0     C72683   4.190   1.578   2.135 -0.9616  0.0192  0.2533
  539MOL0     C72684   3.766   1.518   2.056 -0.0813 -0.1336  1.1574
  539MOL0     C72685   3.675   1.539   2.164  1.0077 -0.1325 -0.3405
  539MOL0     C72686   3.541   1.543   2.145 -0.6734  0.1301  0.9799
  539MOL0     C72687   3.488   1.532   2.017 -0.2909 -0.2704  0.3823
  539MOL0     O72688   3.354   1.550   2.002 -0.1924  0.6751  0.4789
  539MOL0     C72689   3.298   1.552   1.873 -0.6068 -0.4203  0.3525
  539MOL0     C72690   3.148   1.559   1.880 -0.1243  0.1577 -0.6856
  539MOL0     C72691   3.089   1.675   1.962  0.3020 -0.2880  0.6243
  539MOL0     C72692   3.111   1.815   1.893 -0.0325 -0.0546  0.3898
  539MOL0     C72693   3.056   1.920   1.979 -0.0598 -0.8025 -0.1498
  539MOL0     C72694   3.003   1.999   2.052 -0.4965 -1.5251  0.7094
  539MOL0     C72695   3.578   1.529   1.910 -0.3959 -0.1460  0.6113
  539MOL0     C72696   3.716   1.514   1.927  0.3549 -1.3051  0.3439
  539MOL0     C72697   3.789   1.509   1.797  0.0416  0.5594  0.3428
  539MOL0     H72698   4.022   1.681   2.414 -0.4195  0.0309 -0.4881
  539MOL0     H72699   4.252   1.698   2.502 -0.6226 -3.6550  0.9994
  539MOL0     H72700   4.486   1.679   2.550  1.2807  0.3734 -0.0328
  539MOL0     H72701   4.494   1.516   2.471 -2.2395  0.9415 -3.6727
  539MOL0     H72702   4.710   1.551   2.432 -1.5794 -0.6590  0.7815
  539MOL0     H72703   4.690   1.625   2.602 -0.0298 -0.4301  0.5739
  539MOL0     H72704   4.630   1.823   2.434 -0.9807 -1.6713 -1.2130
  539MOL0     H72705   4.759   1.751   2.336  2.6634  0.0586  0.3262
  539MOL0     H72706   4.807   1.837   2.622  0.4558  0.9867  0.0140
  539MOL0     H72707   4.933   1.762   2.519  0.5226  0.3631  0.4637
  539MOL0     H72708   4.954   1.940   2.379  0.2445 -2.3163 -0.0991
  539MOL0     H72709   4.799   2.024   2.434  2.5468  3.0554 -0.0417
  539MOL0     H72710   4.910   2.046   2.666  0.3133  2.0160  0.8884
  539MOL0     H72711   5.054   1.971   2.591 -0.3285 -1.3399 -1.9533
  539MOL0     H72712   4.979   2.219   2.459  1.5951  0.1539 -0.7664
  539MOL0     H72713   5.126   2.169   2.518  0.6930  2.0028  2.7362
  539MOL0     H72714   5.069   2.226   2.749 -1.6469 -1.7943  0.8771
  539MOL0     H72715   5.041   2.367   2.626 -0.1074 -0.8567 -2.0361
  539MOL0     H72716   4.722   2.290   2.559  0.8836 -0.4317 -0.6283
  539MOL0     H72717   4.468   2.282   2.854 -1.1039  0.2628 -0.8938
  539MOL0     H72718   4.486   2.413   2.757  1.8634  0.4132  5.3298
  539MOL0     H72719   4.340   2.257   2.652 -0.0683 -1.2631  2.2017
  539MOL0     H72720   4.487   2.244   2.546  1.8824 -1.6651  0.2632
  539MOL0     H72721   4.529   2.027   2.628  0.4550 -0.4016 -0.4813
  539MOL0     H72722   4.375   2.042   2.551 -2.2716 -0.1933  1.4440
  539MOL0     H72723   4.254   2.026   2.758  0.8142  3.3371  1.0153
  539MOL0     H72724   4.395   2.070   2.852 -1.9777 -2.7904  2.9150
  539MOL0     H72725   4.490   1.634   2.820 -1.1393  1.2186 -1.0416
  539MOL0     H72726   4.726   1.559   2.903 -2.2276 -0.1128  0.3568
  539MOL0     H72727   5.199   1.886   2.749 -1.2391  2.8971  2.6103
  539MOL0     H72728   5.445   1.847   2.773 -1.0642  0.3056  0.3949
  539MOL0     H72729   5.596   1.675   3.172  2.6372  1.7469  0.4907
  539MOL0     H72730   5.594   1.555   3.035  0.1948 -0.6712  0.1377
  539MOL0     H72731   5.804   1.699   2.945  0.1420 -1.1380 -0.0039
  539MOL0     H72732   5.800   1.782   3.100 -0.6256  0.0449  1.7108
  539MOL0     H72733   5.863   1.601   3.219 -1.8969 -1.7043  0.3137
  539MOL0     H72734   5.806   1.479   3.099  2.0967 -1.5021 -2.6072
  539MOL0     H72735   6.035   1.663   3.025  0.2583 -0.6104 -1.2092
  539MOL0     H72736   5.988   1.505   2.961 -1.9607  1.1548 -1.2285
  539MOL0     H72737   6.075   1.400   3.173 -1.1553 -0.2491 -3.0843
  539MOL0     H72738   6.092   1.560   3.246 -0.7561  1.7240 -0.7734
  539MOL0     H72739   6.224   1.516   2.993  0.3187  1.7184  0.0220
  539MOL0     H72740   6.273   1.621   3.124  1.9179  0.1736 -2.2698
  539MOL0     H72741   6.293   1.325   3.118  0.6412  0.2359 -1.2150
  539MOL0     H72742   6.318   1.403   3.275  2.2248 -1.0995  0.1673
  539MOL0     H72743   6.516   1.534   3.162  0.9380 -1.0284  1.7440
  539MOL0     H72744   6.536   1.365   3.194  1.1156  1.2127 -0.6894
  539MOL0     H72745   5.379   1.681   3.165  0.8448 -0.5010 -0.1903
  539MOL0     H72746   5.141   1.715   3.134 -1.6004  0.7439 -0.1565
  539MOL0     H72747   4.822   1.973   2.962 -1.5538  3.0269 -1.7186
  539MOL0     H72748   4.600   2.043   2.875  1.8012  0.4178 -0.3490
  539MOL0     H72749   4.409   1.580   2.127 -0.2840 -0.9793  0.6209
  539MOL0     H72750   4.189   1.545   2.032  1.9226  4.5474 -1.5560
  539MOL0     H72751   3.709   1.564   2.264 -1.1183  3.8399 -0.3857
  539MOL0     H72752   3.470   1.569   2.223  0.4479 -0.0997  2.1029
  539MOL0     H72753   3.330   1.461   1.821  4.4478  1.4546 -0.3173
  539MOL0     H72754   3.333   1.642   1.822 -0.2481 -0.2320  0.9290
  539MOL0     H72755   3.105   1.473   1.932  0.4142  0.9385  1.1080
  539MOL0     H72756   3.118   1.574   1.776  0.5822 -1.2782 -1.1067
  539MOL0     H72757   3.135   1.682   2.061  1.8602 -0.9020 -0.0302
  539MOL0     H72758   2.982   1.657   1.979 -0.3112  1.9402 -0.4175
  539MOL0     H72759   3.216   1.837   1.870 -0.4696 -0.5584 -2.4700
  539MOL0     H72760   3.065   1.819   1.794 -0.2382  0.1995  0.4947
  539MOL0     H72761   2.969   2.073   2.121  0.7741 -2.2555  2.1734
  539MOL0     H72762   3.545   1.531   1.806  1.0445 -3.4920 -0.0313
  539MOL0     H72763   3.727   1.510   1.707  1.9550 -0.3510 -1.0565
  539MOL0     H72764   3.846   1.603   1.793 -0.3905  0.8000 -1.1903
  539MOL0     H72765   3.854   1.423   1.786 -2.0268 -0.8454 -1.9137
  540MOL0     O72766   2.896   0.223   9.767  0.4568  0.0619  0.2280
  540MOL0     C72767   2.811   0.308   9.784 -0.2815  0.1236  0.6189
  540MOL0     O72768   2.837   0.443   9.799 -0.3526  0.3210  0.2903
  540MOL0     C72769   2.972   0.475   9.792 -0.0418  0.6745  0.4737
  540MOL0     C72770   3.052   0.486   9.905 -0.0893  0.0214 -0.2509
  540MOL0     C72771   3.189   0.522   9.898  0.0125  0.2897  0.0396
  540MOL0     C72772   3.246   0.553   9.773  0.7447 -0.2407  0.4674
  540MOL0     O72773   3.379   0.576   9.750 -0.1775  0.3853 -0.1550
  540MOL0     C72774   3.458   0.557   9.870 -1.0526 -0.1036 -0.2078
  540MOL0     C72775   3.603   0.587   9.843 -0.1959 -0.1374 -0.3461
  540MOL0     C72776   3.687   0.537   9.959  0.3381  0.0583  0.4401
  540MOL0     C72777   3.838   0.538   9.933 -0.2100 -0.6565 -0.0714
  540MOL0     C72778   3.907   0.490  10.059  0.1128 -0.1179  0.6949
  540MOL0     C72779   4.054   0.525  10.049 -0.4610  0.3101  0.2684
  540MOL0     C72780   4.130   0.425  10.135  0.5068  0.2094 -0.7680
  540MOL0     C72781   4.281   0.479  10.146 -0.2927 -0.4687  0.4040
  540MOL0     N72782   4.352   0.390  10.240  0.0194  0.6816  0.2913
  540MOL0     C72783   4.318   0.361  10.370  0.4063  0.1369 -0.5111
  540MOL0     C72784   4.390   0.260  10.402 -0.3192  0.3120 -0.3235
  540MOL0     C72785   4.394   0.198  10.544 -0.6522 -0.2825 -0.1137
  540MOL0     C72786   4.533   0.211  10.612 -0.5694 -0.1785 -0.2025
  540MOL0     C72787   4.531   0.169  10.760 -0.1255 -0.1474 -0.5241
  540MOL0     C72788   4.671   0.204  10.828  0.8817  0.2014  0.1868
  540MOL0     O72789   4.773   0.118  10.772 -0.1627  0.3626 -0.6056
  540MOL0     C72790   4.903   0.151  10.793  0.0918 -0.6578 -0.1110
  540MOL0     C72791   4.999   0.111  10.701  0.2419 -0.4322 -0.3467
  540MOL0     C72792   5.129   0.160  10.708 -0.3618  0.4195  0.2080
  540MOL0     C72793   5.181   0.222  10.824  0.2833 -0.2236  0.0811
  540MOL0     C72794   5.320   0.264  10.822 -1.0723  0.1713 -0.1393
  540MOL0     O72795   5.358   0.342  10.927  0.0336  0.1241 -0.2322
  540MOL0     C72796   5.493   0.372  10.944 -0.3392 -0.9760  0.7591
  540MOL0     C72797   5.522   0.488  11.014  0.5638 -0.8949  1.1969
  540MOL0     C72798   5.654   0.528  11.039  0.1241 -0.0723  0.0658
  540MOL0     C72799   5.765   0.458  10.985  0.2943  0.3161 -0.9641
  540MOL0     O72800   5.894   0.506  10.985  0.5136  0.5533 -0.3125
  540MOL0     C72801   5.974   0.465  11.094  1.2972  0.0689 -0.8728
  540MOL0     C72802   6.106   0.412  11.045 -0.4989 -0.2145  0.1923
  540MOL0     C72803   6.184   0.371  11.170 -0.5103  0.5771  0.0941
  540MOL0     C72804   6.257   0.237  11.149  0.0981 -0.1021  1.4135
  540MOL0     C72805   6.364   0.245  11.032 -0.4581  0.6254  0.5877
  540MOL0     C72806   6.448   0.109  11.011 -0.6942 -0.5486 -0.3383
  540MOL0     C72807   6.552   0.101  10.897 -0.5279  0.1756  0.2049
  540MOL0     C72808   6.670   0.199  10.919  0.4070 -0.1622 -0.7289
  540MOL0    Cl72809   6.782   0.185  10.777  0.0737  0.2050  0.1975
  540MOL0     C72810   5.734   0.335  10.913 -0.0129  0.5387 -1.0473
  540MOL0     C72811   5.601   0.294  10.893 -0.2965 -0.0792 -0.4392
  540MOL0     O72812   5.396   0.235  10.726  0.0118  0.3953  0.4439
  540MOL0     C72813   5.084   0.251  10.926 -0.4888 -0.5836 -0.6769
  540MOL0     C72814   4.947   0.229  10.901  1.1883 -0.2075 -0.2601
  540MOL0     N72815   4.479   0.223  10.302  0.0551 -0.2447  0.5863
  540MOL0     N72816   4.460   0.302  10.206 -0.1444  0.3073  0.2624
  540MOL0     C72817   3.162   0.550   9.662  0.2946 -0.6387 -0.1265
  540MOL0     C72818   3.028   0.514   9.672  0.3800 -0.4578 -0.2819
  540MOL0     C72819   2.673   0.274   9.769 -0.0753  0.6989 -0.6206
  540MOL0     C72820   2.634   0.159   9.838  0.4125 -0.0990 -0.9062
  540MOL0     C72821   2.498   0.120   9.831 -0.0547 -0.4857 -0.6487
  540MOL0     C72822   2.408   0.190   9.767 -0.1123 -0.5830  0.3089
  540MOL0     O72823   2.282   0.154   9.766 -0.1720  0.2530 -0.2740
  540MOL0     C72824   2.182   0.250   9.805 -0.1030 -0.3518 -1.1015
  540MOL0     C72825   2.183   0.258   9.956 -0.2546 -0.4377 -0.1723
  540MOL0     C72826   2.053   0.325  10.012 -0.8797 -0.4253 -0.5205
  540MOL0     C72827   2.043   0.278  10.157  0.0062  0.1300  0.0507
  540MOL0     C72828   1.911   0.306  10.211 -1.1139  0.4791 -0.6460
  540MOL0     C72829   1.794   0.304  10.253  0.1175  0.7804  0.5413
  540MOL0     C72830   2.449   0.306   9.698  0.6313  0.1300 -0.4232
  540MOL0     C72831   2.584   0.349   9.689 -0.6293  1.1268 -0.2464
  540MOL0     C72832   2.623   0.473   9.610  0.7057  0.2374 -0.3625
  540MOL0     H72833   2.996   0.471   9.997  0.0231  0.7410 -0.0545
  540MOL0     H72834   3.246   0.511   9.990  0.6721  1.4083 -0.2238
  540MOL0     H72835   3.422   0.622   9.950 -1.5219 -0.5922 -0.0127
  540MOL0     H72836   3.459   0.455   9.910  1.8295 -0.7158 -1.5742
  540MOL0     H72837   3.625   0.694   9.840 -1.5136  0.1907  0.7097
  540MOL0     H72838   3.645   0.546   9.750  0.8045  3.9460 -1.9261
  540MOL0     H72839   3.656   0.437   9.989  1.8093 -1.0239 -1.3630
  540MOL0     H72840   3.683   0.605  10.044 -0.1269  0.7813 -0.1491
  540MOL0     H72841   3.865   0.472   9.850  0.9677 -0.9412  0.5194
  540MOL0     H72842   3.885   0.634   9.914 -2.4550  0.4095 -0.6243
  540MOL0     H72843   3.872   0.547  10.146  2.3938 -1.9575  3.0049
  540MOL0     H72844   3.881   0.386  10.081  0.1799 -1.0737 -3.1250
  540MOL0     H72845   4.095   0.518   9.948  1.2098 -0.1378  0.9414
  540MOL0     H72846   4.074   0.625  10.087  1.4401 -0.0946  0.4403
  540MOL0     H72847   4.114   0.331  10.081 -2.5042 -0.9369  1.8379
  540MOL0     H72848   4.090   0.404  10.235  0.8097 -0.7704 -0.8388
  540MOL0     H72849   4.338   0.497  10.055 -1.5094 -0.5427 -0.3838
  540MOL0     H72850   4.286   0.575  10.200  0.6299  0.1511 -0.7434
  540MOL0     H72851   4.249   0.407  10.439  1.9645  2.6921 -0.5316
  540MOL0     H72852   4.328   0.258  10.608 -0.8354 -0.0835 -0.4892
  540MOL0     H72853   4.365   0.093  10.534  0.4572 -0.3445 -4.9736
  540MOL0     H72854   4.614   0.154  10.564  0.1341  0.1489  0.5608
  540MOL0     H72855   4.554   0.319  10.614  0.9001 -0.4430  0.4426
  540MOL0     H72856   4.503   0.065  10.780  0.6650 -0.0547  1.2829
  540MOL0     H72857   4.456   0.224  10.818 -0.1159 -1.1365  0.4634
  540MOL0     H72858   4.669   0.177  10.934  1.0802 -0.2440  0.0795
  540MOL0     H72859   4.703   0.305  10.802  1.8908  0.4640  2.2227
  540MOL0     H72860   4.951   0.057  10.620 -3.6259  0.2657  1.2512
  540MOL0     H72861   5.185   0.123  10.623 -0.3393 -0.4602  0.5926
  540MOL0     H72862   5.436   0.545  11.046 -0.0797 -1.1897  0.0482
  540MOL0     H72863   5.670   0.620  11.095  1.0986 -0.1363 -0.0899
  540MOL0     H72864   5.987   0.538  11.174  0.5950  0.0846 -0.7610
  540MOL0     H72865   5.932   0.375  11.139  4.0471 -1.6927 -1.6193
  540MOL0     H72866   6.088   0.333  10.972  0.4468 -1.2128  1.0126
  540MOL0     H72867   6.164   0.493  11.000  2.2952 -1.2858  1.5822
  540MOL0     H72868   6.262   0.446  11.184 -0.3662 -0.1385  4.3747
  540MOL0     H72869   6.129   0.380  11.264 -0.5522  0.4030  0.0861
  540MOL0     H72870   6.184   0.157  11.137  0.3212 -0.3704  1.8245
  540MOL0     H72871   6.322   0.210  11.233  2.8544 -0.2093 -0.6249
  540MOL0     H72872   6.442   0.322  11.044  0.2338  0.4021 -1.9405
  540MOL0     H72873   6.315   0.278  10.940 -0.3618  2.2837  1.0945
  540MOL0     H72874   6.484   0.071  11.107  0.8758  1.2930 -0.1540
  540MOL0     H72875   6.370   0.044  10.969 -1.5620  0.8568 -0.9628
  540MOL0     H72876   6.501   0.113  10.801  1.8519 -2.6877 -1.5947
  540MOL0     H72877   6.589  -0.002  10.897  1.0112  0.6997  0.8902
  540MOL0     H72878   6.634   0.301  10.934  0.0856 -0.4030  0.2454
  540MOL0     H72879   6.705   0.157  11.014 -0.1108 -0.0060 -0.4649
  540MOL0     H72880   5.811   0.266  10.882 -1.8123 -2.8006  1.2863
  540MOL0     H72881   5.579   0.198  10.849 -3.1574  0.5620 -0.6136
  540MOL0     H72882   5.113   0.317  11.007 -2.7803  0.4450 -0.6095
  540MOL0     H72883   4.878   0.260  10.980  1.9138 -1.6840  1.0010
  540MOL0     H72884   3.202   0.590   9.569 -2.2075 -0.6825 -1.3015
  540MOL0     H72885   2.956   0.506   9.590  1.0518  1.8011 -1.1854
  540MOL0     H72886   2.699   0.091   9.891  0.9623  0.2780 -1.0887
  540MOL0     H72887   2.471   0.041   9.901  1.7279 -1.4328 -0.9667
  540MOL0     H72888   2.086   0.207   9.778 -1.7164  1.9711  0.5343
  540MOL0     H72889   2.194   0.348   9.757  2.0010 -0.7143 -1.4138
  540MOL0     H72890   2.268   0.319   9.986  1.0734 -1.1540 -2.2271
  540MOL0     H72891   2.200   0.156   9.992 -1.0486 -1.0521 -1.4609
  540MOL0     H72892   1.964   0.289   9.960 -0.9872 -2.4485  0.9255
  540MOL0     H72893   2.054   0.434   9.999 -0.1044 -0.5845 -1.9924
  540MOL0     H72894   2.074   0.173  10.170  3.0649  1.1893  2.7923
  540MOL0     H72895   2.117   0.331  10.217  1.5310 -0.5294 -1.1579
  540MOL0     H72896   1.699   0.295  10.300  0.4619  0.6836  1.2356
  540MOL0     H72897   2.381   0.368   9.641 -1.5591  0.9562  2.7966
  540MOL0     H72898   2.724   0.459   9.569  1.2440 -0.1334  1.0386
  540MOL0     H72899   2.548   0.504   9.537  0.5183  0.3014 -0.1412
  540MOL0     H72900   2.634   0.551   9.686 -0.5823  2.4855 -2.3091
  541MOL0     O72901   9.770   8.349   1.033  0.0048 -0.2192  0.8965
  541MOL0     C72902   9.780   8.334   0.910  0.1064  0.4933  0.1467
  541MOL0     O72903   9.795   8.438   0.818 -0.8089 -0.3493 -0.9673
  541MOL0     C72904   9.868   8.551   0.853  0.5482 -0.1102  0.4528
  541MOL0     C72905   9.820   8.681   0.831 -0.0061  0.0283  0.3464
  541MOL0     C72906   9.904   8.790   0.866 -0.2575  0.4589 -0.2608
  541MOL0     C72907  10.034   8.786   0.913 -0.8294 -0.2321 -0.6785
  541MOL0     O72908  10.123   8.883   0.931  0.1386  0.2746 -0.1106
  541MOL0     C72909  10.107   9.004   0.860 -0.5743 -0.5000 -0.4611
  541MOL0     C72910  10.184   9.118   0.911  0.2896 -0.8584 -0.3661
  541MOL0     C72911  10.338   9.093   0.901 -0.1678 -0.2107  0.4170
  541MOL0     C72912  10.412   9.219   0.918  0.4610 -0.5763  0.4131
  541MOL0     C72913  10.563   9.216   0.918 -0.5607 -0.6260 -0.3839
  541MOL0     C72914  10.621   9.360   0.915  0.4611 -0.2113  0.1553
  541MOL0     C72915  10.773   9.375   0.900  0.2038  0.0477  0.0489
  541MOL0     C72916  10.828   9.387   0.758 -0.0397  0.7381  0.2181
  541MOL0     N72917  10.973   9.420   0.745 -0.5527 -0.3684 -0.5764
  541MOL0     C72918  11.066   9.342   0.800  0.2359 -0.1341 -0.4560
  541MOL0     C72919  11.183   9.351   0.736  1.2178 -0.7822  0.2145
  541MOL0     C72920  11.301   9.270   0.768 -0.3914  0.0779 -0.0019
  541MOL0     C72921  11.433   9.342   0.791 -0.3548 -0.6022 -0.1850
  541MOL0     C72922  11.476   9.431   0.677 -0.7639 -1.0677 -0.2607
  541MOL0     C72923  11.615   9.499   0.703 -0.4556  0.7159 -0.2752
  541MOL0     O72924  11.723   9.407   0.704  0.9811 -0.3831 -0.7798
  541MOL0     C72925  11.860   9.447   0.697 -0.1511  0.0217  0.3736
  541MOL0     C72926  11.899   9.576   0.688 -0.2624 -0.0104  1.0098
  541MOL0     C72927  12.036   9.610   0.682  0.1899  0.0390  0.9703
  541MOL0     C72928  12.135   9.517   0.708  0.5987 -0.6283 -0.3007
  541MOL0     C72929  12.279   9.560   0.717  0.5487  0.9500  0.2875
  541MOL0     O72930  12.364   9.484   0.791  0.0749  0.0596  0.6978
  541MOL0     C72931  12.500   9.509   0.790 -0.9313  0.1488 -0.3843
  541MOL0     C72932  12.574   9.555   0.680 -0.2716  0.0983 -0.2106
  541MOL0     C72933  12.717   9.562   0.686  1.2160  0.2903  0.3122
  541MOL0     C72934  12.790   9.514   0.798 -1.3875 -0.6894  0.2145
  541MOL0     O72935  12.928   9.518   0.793  0.4408 -0.0891  0.3086
  541MOL0     C72936  13.008   9.489   0.912  0.2502 -0.0302  1.1510
  541MOL0     C72937  13.153   9.529   0.870 -0.8543 -0.8251  0.1808
  541MOL0     C72938  13.185   9.659   0.947  0.5527  0.9895 -0.0964
  541MOL0     C72939  13.338   9.691   0.948 -0.5804  0.0566  0.2321
  541MOL0     C72940  13.366   9.805   1.059 -0.9874 -0.7635 -0.1167
  541MOL0     C72941  13.495   9.890   1.031  0.9067 -0.1355 -0.3659
  541MOL0     C72942  13.615   9.801   1.021 -0.4115 -0.1028  0.2063
  541MOL0     C72943  13.744   9.875   0.996  0.0200 -0.0561 -0.1926
  541MOL0    Cl72944  13.792   9.952   1.151  0.0663 -0.0918 -0.0282
  541MOL0     C72945  12.717   9.460   0.906 -0.9552 -0.6982 -0.2103
  541MOL0     C72946  12.578   9.463   0.902  0.9090  0.1107  0.4782
  541MOL0     O72947  12.300   9.661   0.653  0.2423  0.2986  0.2880
  541MOL0     C72948  12.095   9.385   0.714 -0.0274  0.2459  0.3533
  541MOL0     C72949  11.956   9.348   0.705 -0.3639 -0.0366 -0.5271
  541MOL0     N72950  11.156   9.444   0.630 -0.1979  0.0206  0.7656
  541MOL0     N72951  11.035   9.491   0.647 -0.6287  0.5019  0.1719
  541MOL0     C72952  10.081   8.657   0.933 -0.2991 -0.5271  0.5627
  541MOL0     C72953  10.000   8.541   0.910  0.2135  0.8539 -0.2695
  541MOL0     C72954   9.760   8.201   0.846  1.0098  0.3375 -0.1550
  541MOL0     C72955   9.796   8.183   0.713 -0.3512 -0.9251  0.0388
  541MOL0     C72956   9.787   8.062   0.650 -0.2114  0.2103 -0.2307
  541MOL0     C72957   9.735   7.940   0.713  0.6168  0.7330 -0.5717
  541MOL0     O72958   9.723   7.830   0.635  0.2803  0.3360 -0.8525
  541MOL0     C72959   9.661   7.714   0.692 -0.5508 -0.6095 -0.2088
  541MOL0     C72960   9.767   7.624   0.760  0.0815  0.0272  0.4387
  541MOL0     C72961   9.886   7.590   0.674 -0.3299  0.4100  1.3108
  541MOL0     C72962   9.988   7.500   0.735 -0.4174  0.2722  0.0546
  541MOL0     C72963   9.935   7.362   0.768 -0.7957 -0.1354 -0.0253
  541MOL0     C72964   9.886   7.247   0.784  0.5885 -0.1374 -0.2067
  541MOL0     C72965   9.701   7.960   0.848  0.3954  0.5049 -0.4531
  541MOL0     C72966   9.711   8.085   0.914  0.4998 -0.5916  0.4835
  541MOL0     C72967   9.661   8.096   1.059 -0.3433 -0.0893 -0.0938
  541MOL0     H72968   9.722   8.702   0.791 -0.5666  0.2047  1.7344
  541MOL0     H72969   9.860   8.886   0.843 -1.1136 -0.0928 -1.0232
  541MOL0     H72970  10.131   8.981   0.756  0.4265  2.8889 -1.0987
  541MOL0     H72971  10.002   9.036   0.868  0.1575  1.9957  0.1768
  541MOL0     H72972  10.154   9.136   1.015 -0.5383 -0.9897 -0.5688
  541MOL0     H72973  10.170   9.205   0.846 -0.6823  0.1547  1.1398
  541MOL0     H72974  10.361   9.041   0.807  4.7384  2.0401  0.0802
  541MOL0     H72975  10.366   9.021   0.978  2.6886 -2.9632 -2.8227
  541MOL0     H72976  10.375   9.287   0.840  0.6376 -2.4542 -1.3806
  541MOL0     H72977  10.387   9.267   1.013  0.3441  0.1113  0.0475
  541MOL0     H72978  10.601   9.166   1.007 -1.1099  0.3082  0.3961
  541MOL0     H72979  10.596   9.170   0.824 -0.0330 -0.1193 -0.4514
  541MOL0     H72980  10.572   9.414   0.833 -0.2329 -2.1090 -0.7414
  541MOL0     H72981  10.593   9.411   1.007  0.8581  1.5507 -0.6566
  541MOL0     H72982  10.817   9.285   0.945  0.8757  0.1519 -0.3829
  541MOL0     H72983  10.809   9.468   0.944 -1.7035  1.7566 -1.7687
  541MOL0     H72984  10.809   9.291   0.708  0.6828  0.5559  0.2790
  541MOL0     H72985  10.773   9.467   0.708  1.4631  1.4435 -0.3607
  541MOL0     H72986  11.048   9.270   0.879 -1.8574  0.4074 -0.3857
  541MOL0     H72987  11.282   9.209   0.857  0.7033  1.6908  1.3867
  541MOL0     H72988  11.303   9.203   0.681 -2.5738  3.0965 -2.6002
  541MOL0     H72989  11.424   9.404   0.881  6.3301  0.4701  0.2801
  541MOL0     H72990  11.516   9.274   0.814  0.1746  0.1150  0.0918
  541MOL0     H72991  11.395   9.504   0.673 -2.7371 -3.1676 -0.8953
  541MOL0     H72992  11.481   9.380   0.580 -0.8739  2.0337 -2.0260
  541MOL0     H72993  11.603   9.557   0.795  0.6229 -0.3618  0.5690
  541MOL0     H72994  11.633   9.571   0.622 -1.6872 -0.5087 -1.6923
  541MOL0     H72995  11.818   9.646   0.669 -1.0681 -0.3013  3.0562
  541MOL0     H72996  12.062   9.708   0.645  0.9829  0.1989  1.9049
  541MOL0     H72997  12.529   9.585   0.586 -1.2279  0.5971  0.3918
  541MOL0     H72998  12.774   9.597   0.600  1.7637 -1.8422 -0.2398
  541MOL0     H72999  12.977   9.543   1.002 -1.8150  1.2550 -0.2420
  541MOL0     H73000  13.007   9.380   0.925  3.0760 -0.5248 -1.5366
  541MOL0     H73001  13.229   9.452   0.885  0.5443  0.7665  1.8266
  541MOL0     H73002  13.166   9.549   0.763  2.1875  0.0985  0.6313
  541MOL0     H73003  13.133   9.749   0.915 -0.9004  0.1966 -0.0227
  541MOL0     H73004  13.174   9.625   1.050  2.1102 -1.2762 -0.5930
  541MOL0     H73005  13.379   9.727   0.853 -0.4146  0.3113  0.3975
  541MOL0     H73006  13.394   9.600   0.971  0.7327 -0.1304 -3.1097
  541MOL0     H73007  13.370   9.757   1.158  2.7496 -1.6485 -0.5446
  541MOL0     H73008  13.289   9.881   1.070 -1.6109 -1.2137 -1.2733
  541MOL0     H73009  13.472   9.942   0.937 -3.1505  1.3158  1.2097
  541MOL0     H73010  13.485   9.967   1.108  1.9737  0.2120 -0.5536
  541MOL0     H73011  13.605   9.736   0.933  0.8026  0.2371 -0.1989
  541MOL0     H73012  13.620   9.745   1.114 -0.9728  3.4466  2.5596
  541MOL0     H73013  13.830   9.821   0.954 -0.5414 -0.9495 -0.2162
  541MOL0     H73014  13.731   9.963   0.931  2.2110  1.2512  1.0268
  541MOL0     H73015  12.766   9.412   0.990  2.3503 -0.8417 -2.0439
  541MOL0     H73016  12.515   9.430   0.984  1.2117 -2.0378 -0.1041
  541MOL0     H73017  12.173   9.311   0.725 -1.7574 -1.6853  0.2220
  541MOL0     H73018  11.920   9.254   0.745  1.2605  0.3591  2.1392
  541MOL0     H73019  10.185   8.649   0.962 -0.4722 -0.0863  1.3395
  541MOL0     H73020  10.036   8.439   0.923 -1.0789  0.2905 -0.8249
  541MOL0     H73021   9.840   8.269   0.663  0.1346 -0.5933  1.0085
  541MOL0     H73022   9.823   8.057   0.548  3.9380 -0.2081  1.0697
  541MOL0     H73023   9.617   7.661   0.607  0.3904 -0.0615 -1.0669
  541MOL0     H73024   9.576   7.734   0.758  2.1641  2.4140  2.7514
  541MOL0     H73025   9.717   7.529   0.780  0.9646 -0.0222  2.6569
  541MOL0     H73026   9.792   7.673   0.855 -3.4859  2.8675  0.1211
  541MOL0     H73027   9.938   7.678   0.636  0.9178 -0.7746  0.1644
  541MOL0     H73028   9.845   7.541   0.584 -0.3340  2.7745 -0.0401
  541MOL0     H73029  10.070   7.494   0.664  0.0955  1.9195  0.4627
  541MOL0     H73030  10.014   7.566   0.818  1.7500  0.6003 -0.8307
  541MOL0     H73031   9.843   7.149   0.787 -3.9258  1.4709 -2.4130
  541MOL0     H73032   9.660   7.880   0.908  3.0110  0.2223  1.1244
  541MOL0     H73033   9.599   8.011   1.090  0.2512 -0.2552  0.6718
  541MOL0     H73034   9.746   8.081   1.126 -0.3482 -1.9129 -0.4415
  541MOL0     H73035   9.598   8.182   1.085 -0.0786  0.0109  0.2095
  542MOL0     O73036   4.510   0.930   9.555 -0.8278  0.4473  0.4847
  542MOL0     C73037   4.471   0.819   9.509 -0.2933 -0.3415  0.6982
  542MOL0     O73038   4.550   0.706   9.494 -0.4464 -0.4075  0.1055
  542MOL0     C73039   4.669   0.713   9.557 -0.4083 -0.1085 -0.0082
  542MOL0     C73040   4.685   0.664   9.682 -0.9077  0.0928 -0.7182
  542MOL0     C73041   4.815   0.664   9.738 -0.4826 -1.0427  0.3519
  542MOL0     C73042   4.919   0.731   9.681  0.1351  0.0747  0.2762
  542MOL0     O73043   5.033   0.746   9.751 -0.4608  0.3080  0.1495
  542MOL0     C73044   5.132   0.843   9.702 -0.1166 -0.9582  0.2544
  542MOL0     C73045   5.221   0.866   9.821 -0.4006  0.2463 -0.9496
  542MOL0     C73046   5.338   0.961   9.793  0.2536  0.5548  0.5898
  542MOL0     C73047   5.428   0.978   9.928 -0.6091 -0.6521  0.8864
  542MOL0     C73048   5.526   0.864   9.966  0.4417 -0.7291  0.4359
  542MOL0     C73049   5.610   0.889  10.095  0.1875  0.2853  1.1529
  542MOL0     C73050   5.692   0.763  10.126  0.3948  1.0849  0.8460
  542MOL0     C73051   5.717   0.739  10.274  1.2409 -0.2109 -0.4564
  542MOL0     N73052   5.798   0.836  10.350 -1.0708  0.6008  0.0429
  542MOL0     C73053   5.941   0.837  10.338 -0.3593 -0.0974  0.2061
  542MOL0     C73054   5.985   0.901  10.453  0.3231 -1.1810 -0.8453
  542MOL0     C73055   6.128   0.941  10.491  1.0063 -0.2327  0.0278
  542MOL0     C73056   6.191   0.837  10.573 -0.3138  0.1654  0.1626
  542MOL0     C73057   6.324   0.892  10.641  0.0288 -1.2625  0.6524
  542MOL0     C73058   6.437   0.784  10.664  0.0794 -1.0540  1.0053
  542MOL0     O73059   6.546   0.847  10.735  0.5618 -0.5843 -0.3221
  542MOL0     C73060   6.658   0.782  10.764  0.0599  0.5641 -0.9080
  542MOL0     C73061   6.670   0.641  10.764 -0.1319  0.9317 -0.6202
  542MOL0     C73062   6.788   0.583  10.811 -0.2199  0.3628  0.4528
  542MOL0     C73063   6.895   0.667  10.866 -0.3820  0.0021 -0.3102
  542MOL0     C73064   7.016   0.612  10.915  0.0417  0.4711 -0.3968
  542MOL0     O73065   7.051   0.486  10.869 -0.4245  0.3052  0.5368
  542MOL0     C73066   7.182   0.440  10.889  0.1921 -0.1662 -0.3853
  542MOL0     C73067   7.251   0.391  10.774  0.1832  0.2595  0.3597
  542MOL0     C73068   7.388   0.333  10.780  0.8148 -0.4661  0.4710
  542MOL0     C73069   7.450   0.324  10.906  0.1566  0.3638 -0.2470
  542MOL0     O73070   7.574   0.269  10.928  0.4283 -0.5420 -0.6643
  542MOL0     C73071   7.609   0.169  10.832  0.1481 -0.3862  1.7306
  542MOL0     C73072   7.715   0.228  10.735 -0.3673  0.1042  0.2549
  542MOL0     C73073   7.785   0.129  10.647 -0.9502 -0.2812  0.1370
  542MOL0     C73074   7.700   0.065  10.542  0.1885  0.4612 -0.7998
  542MOL0     C73075   7.767  -0.065  10.495  0.9358 -0.1541 -0.0410
  542MOL0     C73076   7.913  -0.063  10.449 -0.9586 -0.4024 -0.2375
  542MOL0     C73077   7.918   0.032  10.326  0.0378 -0.3956 -1.2924
  542MOL0     C73078   8.062   0.015  10.272  0.9144 -0.9049 -0.5317
  542MOL0    Cl73079   8.175   0.068  10.396  0.0527 -0.0706  0.1589
  542MOL0     C73080   7.378   0.369  11.021  0.6028 -0.9976 -0.4353
  542MOL0     C73081   7.251   0.426  11.017 -0.1505  0.0923 -0.3840
  542MOL0     O73082   7.077   0.674  11.002  0.2994 -0.4378  0.2366
  542MOL0     C73083   6.875   0.805  10.872 -0.6539  1.0674 -0.7055
  542MOL0     C73084   6.758   0.862  10.825  0.3154 -0.6505 -0.5789
  542MOL0     N73085   5.868   0.928  10.534 -0.8866 -0.0888  0.2522
  542MOL0     N73086   5.760   0.888  10.468 -0.2897  0.2363 -0.4613
  542MOL0     C73087   4.904   0.783   9.553  0.4813  0.6663  0.1574
  542MOL0     C73088   4.781   0.770   9.490  0.0525  0.4433  0.4283
  542MOL0     C73089   4.339   0.799   9.451 -0.3205  0.2430  0.3104
  542MOL0     C73090   4.312   0.698   9.358 -0.0925  0.1864 -1.1988
  542MOL0     C73091   4.183   0.689   9.302 -0.0565 -1.0765  0.2473
  542MOL0     C73092   4.078   0.772   9.333  0.7071 -0.6457 -0.1607
  542MOL0     O73093   3.967   0.734   9.271  0.3292 -0.5789 -0.4461
  542MOL0     C73094   3.845   0.796   9.319  0.1880 -0.0662 -0.7004
  542MOL0     C73095   3.721   0.736   9.269  0.8758  0.1299 -0.3907
  542MOL0     C73096   3.597   0.799   9.313  0.1696 -0.1901 -0.3826
  542MOL0     C73097   3.468   0.729   9.271 -0.8839  0.5013 -0.2296
  542MOL0     C73098   3.430   0.623   9.367  0.1246  0.0030 -0.1381
  542MOL0     C73099   3.422   0.525   9.438 -0.0802  0.2453  0.2975
  542MOL0     C73100   4.107   0.877   9.419 -0.0061 -0.2879 -0.9447
  542MOL0     C73101   4.234   0.891   9.477  1.0828  0.6596  1.1932
  542MOL0     C73102   4.248   0.998   9.579 -0.1771 -0.4649 -0.3644
  542MOL0     H73103   4.602   0.631   9.744  0.2483  1.7052  1.8540
  542MOL0     H73104   4.828   0.624   9.838 -0.7683  1.2579  1.3901
  542MOL0     H73105   5.190   0.812   9.615 -0.7367  3.1958 -1.8810
  542MOL0     H73106   5.077   0.934   9.675 -0.7551 -0.4121  3.0355
  542MOL0     H73107   5.267   0.771   9.850  2.6756  1.6547 -0.8264
  542MOL0     H73108   5.158   0.899   9.905 -0.2732  0.7116 -1.0377
  542MOL0     H73109   5.296   1.056   9.759 -0.3709  0.3155  0.6862
  542MOL0     H73110   5.401   0.938   9.706 -1.3120 -1.5385 -0.0637
  542MOL0     H73111   5.499   1.062   9.928 -0.8856 -0.4183  0.9101
  542MOL0     H73112   5.365   1.003  10.013 -0.6701  0.2641  0.5850
  542MOL0     H73113   5.467   0.771   9.968 -2.5804  1.0053 -0.6506
  542MOL0     H73114   5.595   0.863   9.882  0.5022 -1.3266  0.4849
  542MOL0     H73115   5.676   0.975  10.079 -0.8473  1.0620  0.9177
  542MOL0     H73116   5.538   0.917  10.173 -1.1212  0.8141 -0.1850
  542MOL0     H73117   5.787   0.752  10.073 -0.5337 -2.3137 -0.3804
  542MOL0     H73118   5.631   0.677  10.098  0.2172  0.5323  2.8106
  542MOL0     H73119   5.619   0.736  10.322  1.0702  0.7804 -0.7290
  542MOL0     H73120   5.763   0.641  10.289  1.9433 -0.0021 -1.1501
  542MOL0     H73121   6.005   0.801  10.258  0.4730 -0.2193  0.9107
  542MOL0     H73122   6.189   0.948  10.401  0.6091 -0.3574 -0.2513
  542MOL0     H73123   6.131   1.030  10.555  1.8093  1.1245 -1.8105
  542MOL0     H73124   6.131   0.803  10.658 -0.5171  0.8181  0.2852
  542MOL0     H73125   6.215   0.752  10.510  2.1947  2.1136 -1.7448
  542MOL0     H73126   6.296   0.941  10.734 -0.2372  1.0866 -0.5773
  542MOL0     H73127   6.380   0.971  10.590 -0.8693 -1.7696 -1.2203
  542MOL0     H73128   6.462   0.753  10.562  0.1298  1.7930  0.0434
  542MOL0     H73129   6.386   0.704  10.717 -2.3713  0.6246  1.3565
  542MOL0     H73130   6.602   0.578  10.708 -0.1208 -0.6849  1.0868
  542MOL0     H73131   6.791   0.474  10.815  1.9206  0.2526 -2.0873
  542MOL0     H73132   7.187   0.377  10.688  0.1980 -1.0485  0.5412
  542MOL0     H73133   7.431   0.306  10.684 -1.4313 -0.5357 -0.5898
  542MOL0     H73134   7.659   0.090  10.888 -0.4186  0.2723  3.2007
  542MOL0     H73135   7.525   0.131  10.773  0.7689 -1.2681  1.3830
  542MOL0     H73136   7.677   0.306  10.670  1.3896  2.5087  1.9347
  542MOL0     H73137   7.805   0.268  10.783 -0.0382 -1.0698  0.6741
  542MOL0     H73138   7.866   0.183  10.596 -0.7840 -0.8316 -0.1861
  542MOL0     H73139   7.835   0.059  10.714 -1.0704  0.8872  1.5146
  542MOL0     H73140   7.674   0.135  10.463 -0.8931  1.3911  0.3342
  542MOL0     H73141   7.601   0.039  10.581 -0.7233  0.2060 -3.1411
  542MOL0     H73142   7.705  -0.105  10.415 -0.0491  1.2052  0.0227
  542MOL0     H73143   7.775  -0.135  10.579  1.9613  0.5228  0.4417
  542MOL0     H73144   7.978  -0.025  10.529  1.7559 -1.0317 -2.0092
  542MOL0     H73145   7.940  -0.167  10.429  0.6267 -0.5118  2.0809
  542MOL0     H73146   7.902   0.137  10.355  2.2218 -1.0026  2.7244
  542MOL0     H73147   7.846   0.003  10.249 -1.2731 -1.5613  0.3198
  542MOL0     H73148   8.074  -0.092  10.255  3.0291 -0.3522 -3.1488
  542MOL0     H73149   8.078   0.070  10.179 -2.2792  3.6619  1.2171
  542MOL0     H73150   7.430   0.354  11.115 -2.3771 -3.6537  0.9929
  542MOL0     H73151   7.202   0.454  11.110 -0.1901  2.6638 -1.0984
  542MOL0     H73152   6.954   0.867  10.914 -0.1492  0.0533 -0.1155
  542MOL0     H73153   6.746   0.969  10.838  0.6882 -0.8643  2.0090
  542MOL0     H73154   4.997   0.819   9.511  4.1175 -4.0992  3.0084
  542MOL0     H73155   4.783   0.802   9.386 -1.1946  1.4933  0.6999
  542MOL0     H73156   4.382   0.622   9.324  0.1379 -0.1484  0.0010
  542MOL0     H73157   4.170   0.606   9.234  3.4970 -0.6131 -1.2241
  542MOL0     H73158   3.854   0.904   9.303  2.9815  0.0718  0.9973
  542MOL0     H73159   3.842   0.782   9.428  0.2977  0.5047 -0.6193
  542MOL0     H73160   3.724   0.628   9.288  1.9092 -0.0475 -1.4561
  542MOL0     H73161   3.722   0.744   9.160  1.3668  0.9199 -0.3424
  542MOL0     H73162   3.582   0.897   9.266 -1.2173 -0.6520 -0.9625
  542MOL0     H73163   3.595   0.813   9.421  1.4343 -0.9864 -0.2382
  542MOL0     H73164   3.393   0.809   9.269 -0.0716  1.4232  2.2761
  542MOL0     H73165   3.474   0.681   9.173 -4.9486 -1.5440  0.3268
  542MOL0     H73166   3.415   0.440   9.502 -0.1335 -1.2980 -1.6562
  542MOL0     H73167   4.024   0.940   9.452  1.0554  0.9765 -0.6136
  542MOL0     H73168   4.303   1.088   9.551  1.3311 -1.8290 -2.0487
  542MOL0     H73169   4.148   1.029   9.612 -0.5259 -1.5491 -0.3517
  542MOL0     H73170   4.291   0.949   9.667  2.5871 -1.0221 -1.9140
  543MOL0     O73171   5.288   3.815   7.395 -0.6809  0.4772  0.6210
  543MOL0     C73172   5.309   3.900   7.309  0.3907 -0.4163 -0.3791
  543MOL0     O73173   5.428   3.933   7.257  0.5782 -0.2876  0.4975
  543MOL0     C73174   5.540   3.914   7.340 -0.3701  0.3499  0.0073
  543MOL0     C73175   5.665   3.875   7.276 -0.0342  0.4958 -0.1505
  543MOL0     C73176   5.777   3.848   7.357  0.5843  0.0889 -0.2445
  543MOL0     C73177   5.768   3.860   7.496  0.4233  0.4437  0.2523
  543MOL0     O73178   5.879   3.852   7.574 -0.1924  0.1339  0.0998
  543MOL0     C73179   6.001   3.809   7.511  0.5645  0.0664 -0.0948
  543MOL0     C73180   6.104   3.864   7.600  1.0478 -0.3424 -0.3535
  543MOL0     C73181   6.112   4.013   7.618 -0.4219  0.6203  0.2696
  543MOL0     C73182   6.152   4.095   7.498  0.2366 -0.8027 -0.4702
  543MOL0     C73183   6.209   4.239   7.520 -0.0731 -0.2537 -0.0041
  543MOL0     C73184   6.244   4.304   7.382 -0.5293  0.0077  0.0072
  543MOL0     C73185   6.257   4.458   7.394 -0.6767 -0.4050  1.2194
  543MOL0     C73186   6.297   4.521   7.255 -0.8382 -0.2294 -0.5761
  543MOL0     N73187   6.440   4.504   7.213  0.2858  0.1004  0.8144
  543MOL0     C73188   6.556   4.520   7.286 -0.0902 -0.0976  0.6005
  543MOL0     C73189   6.659   4.518   7.197 -0.1817 -0.5527  0.3745
  543MOL0     C73190   6.803   4.531   7.238  0.7875  0.2793 -0.2045
  543MOL0     C73191   6.879   4.399   7.222 -0.0244 -0.5207  0.3791
  543MOL0     C73192   6.926   4.397   7.077  0.3682 -0.0478 -0.4487
  543MOL0     C73193   7.030   4.289   7.062 -0.6900  0.3191 -0.4669
  543MOL0     O73194   7.151   4.340   7.135 -0.7137  1.0582 -0.0441
  543MOL0     C73195   7.269   4.286   7.093  0.5925  0.7077  0.6495
  543MOL0     C73196   7.379   4.323   7.166  0.6145  0.3447  1.0114
  543MOL0     C73197   7.501   4.274   7.140 -0.3883  0.7988  0.3778
  543MOL0     C73198   7.529   4.183   7.040  0.6292 -0.4823  0.5196
  543MOL0     C73199   7.660   4.137   7.006  0.5229  0.3787 -0.4085
  543MOL0     O73200   7.769   4.198   7.058 -0.1385 -0.2244  0.4330
  543MOL0     C73201   7.896   4.168   7.039 -0.9021  0.2458  0.3233
  543MOL0     C73202   7.947   4.043   7.078 -0.2777  0.4683  1.1001
  543MOL0     C73203   8.086   4.023   7.080 -0.2139  0.6868  0.5296
  543MOL0     C73204   8.170   4.118   7.029 -0.1576  0.0692  0.3107
  543MOL0     O73205   8.311   4.103   7.037  0.6082 -0.0821 -0.2706
  543MOL0     C73206   8.371   3.983   7.082  0.4045 -0.0267  0.4188
  543MOL0     C73207   8.518   3.995   7.058  0.2473  0.4066 -0.5782
  543MOL0     C73208   8.586   3.870   7.116  0.2550 -0.9346 -0.4007
  543MOL0     C73209   8.735   3.882   7.132  0.1915 -0.2043  0.0313
  543MOL0     C73210   8.801   3.745   7.158  1.2195 -0.2605  0.4518
  543MOL0     C73211   8.927   3.768   7.238 -0.0048  0.6415 -0.0455
  543MOL0     C73212   9.028   3.653   7.233  0.5531 -0.2901  0.5786
  543MOL0     C73213   9.138   3.648   7.341  0.9659  0.0742 -0.1302
  543MOL0    Cl73214   9.064   3.601   7.483  0.0045 -0.0037  0.3843
  543MOL0     C73215   8.115   4.237   6.975 -0.0937  0.9143 -0.4024
  543MOL0     C73216   7.983   4.264   6.983  1.0215  0.1292 -0.0301
  543MOL0     O73217   7.665   4.038   6.931  0.1212 -0.5911  0.5087
  543MOL0     C73218   7.413   4.144   6.965  0.1485  0.6516 -0.9482
  543MOL0     C73219   7.279   4.193   6.988 -0.1881 -0.3669 -1.3142
  543MOL0     N73220   6.604   4.491   7.071  0.1179  0.5263 -0.3003
  543MOL0     N73221   6.480   4.492   7.083 -0.2904  0.7006  0.7882
  543MOL0     C73222   5.649   3.896   7.561 -0.2043  0.8592  0.0740
  543MOL0     C73223   5.544   3.933   7.484 -0.3868 -0.2565 -0.1680
  543MOL0     C73224   5.195   3.961   7.230 -0.0425  0.3364 -0.1769
  543MOL0     C73225   5.225   4.035   7.111  0.2066 -0.1973 -0.6671
  543MOL0     C73226   5.125   4.078   7.025  0.5310  1.1272  0.5470
  543MOL0     C73227   4.989   4.056   7.047 -0.1453  0.1423 -0.1579
  543MOL0     O73228   4.893   4.095   6.955 -0.2616 -0.6787  0.1058
  543MOL0     C73229   4.752   4.073   6.975 -0.1561  0.2528 -0.3927
  543MOL0     C73230   4.674   4.181   6.902 -0.0536  0.0686 -0.3486
  543MOL0     C73231   4.517   4.182   6.951 -0.3865 -0.2054  0.5293
  543MOL0     C73232   4.466   4.320   6.938  0.0988 -0.3508 -0.4586
  543MOL0     C73233   4.341   4.338   7.017 -0.2312  0.2514  0.2189
  543MOL0     C73234   4.229   4.344   7.055  0.8877 -1.3587  0.6157
  543MOL0     C73235   4.960   3.979   7.165 -0.5210 -0.0428 -0.2273
  543MOL0     C73236   5.052   3.935   7.258 -1.3353 -0.3277 -0.2731
  543MOL0     C73237   5.004   3.877   7.391 -0.4735  0.0414 -0.5449
  543MOL0     H73238   5.681   3.863   7.170  1.7562 -0.6301  0.2028
  543MOL0     H73239   5.866   3.825   7.299 -1.3845 -0.3742 -3.3527
  543MOL0     H73240   6.007   3.700   7.506 -1.0313 -0.0422 -0.2708
  543MOL0     H73241   6.018   3.850   7.411  0.3307 -0.5556 -0.3930
  543MOL0     H73242   6.202   3.821   7.578  2.0936  0.7399  1.8475
  543MOL0     H73243   6.082   3.811   7.694 -0.4129 -2.8264 -1.9645
  543MOL0     H73244   6.195   4.027   7.688  1.0367  0.6806 -1.4013
  543MOL0     H73245   6.026   4.057   7.669  0.1731  0.5787  1.3304
  543MOL0     H73246   6.220   4.051   7.425 -0.0848 -2.4189  0.1576
  543MOL0     H73247   6.057   4.114   7.447 -0.2476 -0.3859  0.5636
  543MOL0     H73248   6.147   4.304   7.582  3.2034  2.7925  0.4096
  543MOL0     H73249   6.300   4.227   7.581 -0.8011 -3.8303  0.6163
  543MOL0     H73250   6.338   4.263   7.343  1.6755  4.5831 -0.1693
  543MOL0     H73251   6.173   4.275   7.304  0.3466  2.5007 -1.8736
  543MOL0     H73252   6.346   4.477   7.455  0.3310  0.8418 -0.5276
  543MOL0     H73253   6.164   4.498   7.436 -2.5315 -1.2817 -1.7158
  543MOL0     H73254   6.241   4.489   7.167 -0.2813 -1.2733 -0.5688
  543MOL0     H73255   6.274   4.625   7.282 -0.7351 -0.7808  1.9194
  543MOL0     H73256   6.565   4.540   7.393  0.5741 -0.0107  0.5333
  543MOL0     H73257   6.841   4.620   7.185 -0.1397  2.7383  2.9277
  543MOL0     H73258   6.794   4.560   7.343  0.3305  0.9939 -0.4317
  543MOL0     H73259   6.965   4.398   7.289  0.6502  1.4917 -0.3731
  543MOL0     H73260   6.823   4.308   7.243 -0.6101  0.0612  1.3759
  543MOL0     H73261   6.965   4.494   7.044  2.8432 -0.1113  1.8735
  543MOL0     H73262   6.842   4.371   7.012 -1.1408 -1.3235  1.8751
  543MOL0     H73263   7.038   4.268   6.955  0.6349  0.5621 -0.4361
  543MOL0     H73264   6.999   4.197   7.112 -1.0310  1.3838  1.3917
  543MOL0     H73265   7.371   4.393   7.249  0.6901  0.8802  0.5732
  543MOL0     H73266   7.589   4.316   7.187 -0.1198 -0.5928  1.1538
  543MOL0     H73267   7.880   3.961   7.102 -3.5731  3.2932  2.4987
  543MOL0     H73268   8.129   3.928   7.112 -0.7718 -0.3304 -1.5485
  543MOL0     H73269   8.367   3.970   7.190  1.5620 -0.7308  0.3949
  543MOL0     H73270   8.328   3.897   7.029  2.1348  0.9046 -2.7854
  543MOL0     H73271   8.550   4.022   6.957 -1.1739  2.2075 -0.5911
  543MOL0     H73272   8.540   4.089   7.109 -0.6481 -0.5995  1.8311
  543MOL0     H73273   8.546   3.858   7.217  1.3306 -0.3345  0.1162
  543MOL0     H73274   8.555   3.777   7.068  3.7360 -1.1667 -2.6140
  543MOL0     H73275   8.748   3.952   7.216 -5.2868  2.1161 -0.6147
  543MOL0     H73276   8.772   3.929   7.041 -1.3725 -0.0665 -0.5668
  543MOL0     H73277   8.831   3.708   7.060  2.6129  1.9842 -0.0318
  543MOL0     H73278   8.734   3.679   7.215  0.3607  1.2538  1.2797
  543MOL0     H73279   8.974   3.860   7.202  1.2062  0.4063  0.8565
  543MOL0     H73280   8.910   3.788   7.344  3.2574  1.8020  0.3946
  543MOL0     H73281   9.079   3.663   7.136 -0.9367 -0.6467 -0.2704
  543MOL0     H73282   8.977   3.557   7.245  0.1503 -0.1545 -0.0141
  543MOL0     H73283   9.213   3.572   7.318  1.6800  0.7547 -0.0795
  543MOL0     H73284   9.195   3.742   7.343 -2.2816  2.2044 -0.5655
  543MOL0     H73285   8.188   4.311   6.941 -0.6555  2.0108  0.7031
  543MOL0     H73286   7.941   4.345   6.924 -2.9166 -0.4262  1.6972
  543MOL0     H73287   7.420   4.069   6.887 -3.2257 -2.5368  1.4213
  543MOL0     H73288   7.198   4.150   6.928 -0.7703 -1.2260  0.0385
  543MOL0     H73289   5.659   3.915   7.667 -0.0918  2.0862 -0.1329
  543MOL0     H73290   5.459   3.967   7.542  0.1096  0.7381 -0.0032
  543MOL0     H73291   5.328   4.051   7.079  0.7469  2.2801  1.9395
  543MOL0     H73292   5.150   4.131   6.934 -2.7270 -0.8078 -1.6796
  543MOL0     H73293   4.735   4.061   7.082  2.7929  0.7714  0.2102
  543MOL0     H73294   4.733   3.976   6.928 -1.7200 -0.7024  2.0231
  543MOL0     H73295   4.676   4.161   6.795  0.2930 -2.2939  0.0431
  543MOL0     H73296   4.720   4.278   6.926 -1.9362  0.8480  0.3481
  543MOL0     H73297   4.518   4.145   7.055 -2.5118  0.6890  0.9296
  543MOL0     H73298   4.461   4.108   6.892 -1.4241  1.0335 -0.0861
  543MOL0     H73299   4.536   4.394   6.978 -1.6373  2.1157 -1.6731
  543MOL0     H73300   4.452   4.349   6.833  0.5897  1.8005  0.0243
  543MOL0     H73301   4.124   4.356   7.066  0.9326  2.3221 -1.6009
  543MOL0     H73302   4.860   3.951   7.196  0.3427 -1.8450  1.1345
  543MOL0     H73303   5.025   3.771   7.409  0.2332  0.5917  2.4206
  543MOL0     H73304   5.053   3.923   7.477  0.7266 -0.1618 -1.1014
  543MOL0     H73305   4.896   3.893   7.397 -0.3625  0.3574  0.8505
  544MOL0     O73306   6.075   5.284   3.162  0.2093  0.3961  0.0188
  544MOL0     C73307   6.085   5.244   3.277 -0.1172 -0.0122 -0.8404
  544MOL0     O73308   6.196   5.191   3.337  0.7666 -0.8500  0.2268
  544MOL0     C73309   6.318   5.205   3.272  0.0163 -0.2740 -0.8959
  544MOL0     C73310   6.424   5.287   3.325 -0.0149 -0.0927  0.2041
  544MOL0     C73311   6.550   5.293   3.267 -0.2220 -0.6230  0.3211
  544MOL0     C73312   6.576   5.221   3.148  0.4606  0.2987  0.1198
  544MOL0     O73313   6.699   5.223   3.085 -0.3079 -0.2544 -0.1497
  544MOL0     C73314   6.775   5.100   3.116  1.1813 -0.3256  1.1867
  544MOL0     C73315   6.883   5.157   3.203  0.1896  0.5548 -0.3523
  544MOL0     C73316   7.012   5.179   3.134 -0.8162 -0.2333 -0.1532
  544MOL0     C73317   7.120   5.226   3.231 -0.3751  0.4232 -0.3672
  544MOL0     C73318   7.256   5.242   3.173 -0.1876 -0.0338  0.0978
  544MOL0     C73319   7.364   5.305   3.268  0.3586 -0.8384 -0.3114
  544MOL0     C73320   7.491   5.337   3.188  0.1036 -0.0737  0.0773
  544MOL0     C73321   7.614   5.374   3.277  0.6886 -0.3109 -0.1549
  544MOL0     N73322   7.712   5.461   3.203 -0.3773 -0.2810 -0.3534
  544MOL0     C73323   7.802   5.422   3.103  0.4797  0.3848 -0.1954
  544MOL0     C73324   7.875   5.531   3.076  0.9153 -0.3236 -0.3617
  544MOL0     C73325   7.982   5.543   2.975  0.4483 -1.2606 -0.9398
  544MOL0     C73326   8.113   5.467   3.016 -0.6472  0.5675  0.1829
  544MOL0     C73327   8.229   5.475   2.918 -0.3276 -1.0400 -0.0341
  544MOL0     C73328   8.354   5.397   2.942  0.2927  0.1447  0.4592
  544MOL0     O73329   8.449   5.435   2.835  0.3112  0.4250  0.0697
  544MOL0     C73330   8.576   5.388   2.838 -0.0066  0.5617  0.6982
  544MOL0     C73331   8.633   5.380   2.706  0.2232 -0.2045 -0.8597
  544MOL0     C73332   8.761   5.335   2.701  0.5948 -0.0554 -0.0166
  544MOL0     C73333   8.840   5.299   2.813 -0.4723  0.0138 -0.0065
  544MOL0     C73334   8.991   5.265   2.797 -0.3547  0.8538  0.2651
  544MOL0     O73335   9.032   5.203   2.690 -0.3333  0.1177  0.0865
  544MOL0     C73336   9.176   5.198   2.689 -0.2207  0.6924  0.7353
  544MOL0     C73337   9.247   5.099   2.737  0.1888  0.5484  0.3508
  544MOL0     C73338   9.384   5.114   2.754  0.4587  0.2650 -0.0216
  544MOL0     C73339   9.455   5.229   2.718  0.4710 -0.1729  0.2580
  544MOL0     O73340   9.587   5.257   2.739 -0.1162 -0.5117 -0.0147
  544MOL0     C73341   9.673   5.151   2.801 -0.2793  0.8808 -1.0101
  544MOL0     C73342   9.811   5.202   2.842 -0.6689 -0.6447 -0.2272
  544MOL0     C73343   9.902   5.090   2.893  0.1547 -0.3695  0.7920
  544MOL0     C73344  10.041   5.123   2.935 -0.5072  0.6801 -0.2754
  544MOL0     C73345  10.100   5.012   3.030 -0.0393  0.0289  0.4981
  544MOL0     C73346  10.250   5.018   3.031 -0.0337  0.5417  0.2111
  544MOL0     C73347  10.307   5.145   3.092  0.7084  0.3103  0.5422
  544MOL0     C73348  10.462   5.134   3.114 -0.0649  0.8674  0.1180
  544MOL0    Cl73349  10.503   5.011   3.249  0.3950  0.3695 -0.0305
  544MOL0     C73350   9.379   5.331   2.667 -0.6914  0.2201 -0.1381
  544MOL0     C73351   9.241   5.314   2.641 -1.4223 -0.1168  0.5208
  544MOL0     O73352   9.067   5.304   2.889 -0.2555 -0.2579  1.5094
  544MOL0     C73353   8.787   5.317   2.939 -0.1927  1.5418  0.0072
  544MOL0     C73354   8.650   5.348   2.952  0.5993 -0.3394 -0.0235
  544MOL0     N73355   7.820   5.634   3.157 -0.9706 -0.4707 -0.0680
  544MOL0     N73356   7.725   5.597   3.221  0.7527 -0.0786 -0.3702
  544MOL0     C73357   6.472   5.148   3.088  0.2525 -0.9880 -0.4499
  544MOL0     C73358   6.341   5.143   3.145  0.5168  0.0723 -0.0026
  544MOL0     C73359   5.956   5.245   3.350 -0.1417 -0.3553 -0.1125
  544MOL0     C73360   5.842   5.176   3.297  0.7967  1.0427 -0.4499
  544MOL0     C73361   5.715   5.189   3.352 -0.5769 -0.3630  0.5191
  544MOL0     C73362   5.698   5.269   3.466  0.0117 -0.4690  1.0579
  544MOL0     O73363   5.580   5.289   3.535 -0.4355  0.1199 -0.4178
  544MOL0     C73364   5.454   5.277   3.467  0.4479  0.2958 -0.0188
  544MOL0     C73365   5.369   5.400   3.477  0.0859 -1.0274 -0.8387
  544MOL0     C73366   5.258   5.430   3.380 -0.1525  0.1888  0.3540
  544MOL0     C73367   5.137   5.354   3.411 -0.1752 -0.4255  0.6368
  544MOL0     C73368   5.147   5.216   3.361  0.3011 -0.5373 -0.1530
  544MOL0     C73369   5.148   5.102   3.311 -0.4515  0.1053  0.7375
  544MOL0     C73370   5.804   5.355   3.505  0.6565 -0.0929  0.6805
  544MOL0     C73371   5.934   5.340   3.457  0.3168  0.2266 -0.0576
  544MOL0     C73372   6.040   5.427   3.522  0.1086 -0.3847  0.4040
  544MOL0     H73373   6.414   5.342   3.418 -1.8669 -0.5484  0.3105
  544MOL0     H73374   6.624   5.360   3.309 -2.4212  3.1939 -1.3103
  544MOL0     H73375   6.707   5.031   3.167 -0.2938 -1.5047 -2.0881
  544MOL0     H73376   6.817   5.049   3.029 -0.4033  0.3832 -0.0505
  544MOL0     H73377   6.901   5.082   3.281 -0.1524  0.4444 -0.3781
  544MOL0     H73378   6.847   5.249   3.250  4.0639  0.7159  2.8256
  544MOL0     H73379   6.992   5.235   3.042 -0.4276  1.4544  0.7522
  544MOL0     H73380   7.052   5.082   3.102  1.2033  0.6981 -0.5830
  544MOL0     H73381   7.087   5.325   3.263 -3.2321 -0.7086  0.4388
  544MOL0     H73382   7.130   5.173   3.327  1.3538  1.2204 -0.0506
  544MOL0     H73383   7.300   5.149   3.134  0.4490  0.7639 -1.1338
  544MOL0     H73384   7.242   5.303   3.084 -2.9171  0.2896  0.6610
  544MOL0     H73385   7.319   5.394   3.314  0.1589 -0.7054 -0.7503
  544MOL0     H73386   7.375   5.237   3.352 -4.2788 -1.4179  0.0988
  544MOL0     H73387   7.460   5.409   3.112 -0.4000 -0.7169 -0.3389
  544MOL0     H73388   7.523   5.247   3.135 -0.2842 -0.1272 -0.0672
  544MOL0     H73389   7.574   5.421   3.367 -0.8898 -1.7274 -0.0742
  544MOL0     H73390   7.670   5.281   3.290  2.5388  0.8383  0.4697
  544MOL0     H73391   7.819   5.320   3.071 -2.5267  0.0810 -1.2089
  544MOL0     H73392   7.949   5.500   2.880  0.9408 -0.0149 -1.7024
  544MOL0     H73393   8.000   5.651   2.967 -1.0968 -0.8918  0.0368
  544MOL0     H73394   8.153   5.499   3.112  2.0823 -1.5692 -0.0993
  544MOL0     H73395   8.087   5.363   3.037  0.3595  0.3955  0.6530
  544MOL0     H73396   8.254   5.581   2.906 -0.3828 -1.0290 -0.0574
  544MOL0     H73397   8.193   5.438   2.821 -0.3296 -0.9852 -0.0542
  544MOL0     H73398   8.334   5.291   2.925 -0.7230  0.1169  1.6592
  544MOL0     H73399   8.394   5.422   3.041  0.2358 -0.9624  0.7769
  544MOL0     H73400   8.588   5.409   2.612  0.2378 -1.2477 -1.2017
  544MOL0     H73401   8.814   5.336   2.606 -1.0541  3.3407 -1.0653
  544MOL0     H73402   9.205   5.010   2.785  2.0795 -1.5512 -1.6402
  544MOL0     H73403   9.435   5.036   2.809  0.8383 -0.1421 -0.9340
  544MOL0     H73404   9.621   5.106   2.886  0.8392  2.5520  0.6471
  544MOL0     H73405   9.683   5.073   2.725 -0.0487 -0.5751  0.4520
  544MOL0     H73406   9.863   5.247   2.757 -0.5744  0.5969  0.4669
  544MOL0     H73407   9.793   5.280   2.917  0.2364  1.6674 -2.2846
  544MOL0     H73408   9.843   5.050   2.975 -3.9325  0.2055 -1.5860
  544MOL0     H73409   9.914   5.013   2.816 -1.3175  0.2415 -0.1034
  544MOL0     H73410  10.039   5.207   3.006 -1.9894 -1.9877  3.1614
  544MOL0     H73411  10.099   5.142   2.845 -1.0008 -1.5129 -1.1069
  544MOL0     H73412  10.076   4.911   2.996  1.2537 -0.6811  1.5737
  544MOL0     H73413  10.062   5.023   3.132 -2.9216 -2.6094 -0.1546
  544MOL0     H73414  10.294   4.938   3.092  1.7956  2.1343  1.0938
  544MOL0     H73415  10.282   4.992   2.930 -3.5016 -1.4270 -0.5294
  544MOL0     H73416  10.252   5.178   3.181 -1.9991 -0.9269 -0.5565
  544MOL0     H73417  10.288   5.225   3.021 -1.4080  1.3906  2.2219
  544MOL0     H73418  10.518   5.107   3.024  1.2909  3.0498  0.2240
  544MOL0     H73419  10.502   5.231   3.143 -1.4496  0.8785  2.1928
  544MOL0     H73420   9.441   5.417   2.644  1.1533 -1.2461 -0.8180
  544MOL0     H73421   9.177   5.395   2.609 -0.4322  0.1159 -0.9588
  544MOL0     H73422   8.844   5.288   3.026  0.9008 -1.1291 -1.4966
  544MOL0     H73423   8.608   5.356   3.052  1.6878 -0.0163  0.4133
  544MOL0     H73424   6.498   5.091   3.000  1.5827 -1.9952  0.5419
  544MOL0     H73425   6.259   5.092   3.095  1.1174 -1.8525  0.8646
  544MOL0     H73426   5.850   5.105   3.215  1.6570  1.7305 -0.9817
  544MOL0     H73427   5.633   5.131   3.312  1.5762 -2.6376 -0.9059
  544MOL0     H73428   5.398   5.193   3.509  1.3167  0.6157  1.8706
  544MOL0     H73429   5.464   5.255   3.360 -0.9322  0.1918 -0.1430
  544MOL0     H73430   5.438   5.485   3.469  0.2848 -1.3403 -3.0721
  544MOL0     H73431   5.325   5.402   3.577  0.6255  0.8671 -0.5866
  544MOL0     H73432   5.282   5.411   3.275  3.4049  2.1112  0.6852
  544MOL0     H73433   5.221   5.534   3.380  0.5125  0.4524 -0.9766
  544MOL0     H73434   5.113   5.357   3.517  1.0821  2.7580  0.9397
  544MOL0     H73435   5.052   5.401   3.361  0.1965  0.1982  0.5816
  544MOL0     H73436   5.154   5.004   3.269 -0.4443 -0.3801  1.8267
  544MOL0     H73437   5.776   5.421   3.587 -3.7808  0.8776 -1.3107
  544MOL0     H73438   6.076   5.378   3.613 -2.3956  0.7054  2.0719
  544MOL0     H73439   6.125   5.448   3.456 -1.6046 -0.4107 -1.9323
  544MOL0     H73440   6.002   5.519   3.566  3.2371  1.6023 -0.6556
  545MOL0     O73441   3.546   3.685   1.369 -0.3576  0.0102 -0.2979
  545MOL0     C73442   3.577   3.596   1.299  0.0905 -0.2781  0.4572
  545MOL0     O73443   3.703   3.570   1.264  0.3392  0.2529 -0.0970
  545MOL0     C73444   3.806   3.646   1.314  0.8011 -0.6016  0.7296
  545MOL0     C73445   3.843   3.642   1.451  0.6626 -0.0624 -0.3473
  545MOL0     C73446   3.965   3.699   1.489 -0.1890  0.5359 -0.1127
  545MOL0     C73447   4.051   3.755   1.396  0.0342  0.6751 -0.2644
  545MOL0     O73448   4.179   3.785   1.421 -0.6855  0.2118 -0.3211
  545MOL0     C73449   4.203   3.848   1.540  0.3773 -0.0606 -0.5628
  545MOL0     C73450   4.363   3.865   1.553 -0.3052  0.0754  0.1971
  545MOL0     C73451   4.447   3.733   1.559 -0.1711 -0.0573 -0.0880
  545MOL0     C73452   4.595   3.771   1.566 -0.1800  0.4210  0.0155
  545MOL0     C73453   4.687   3.648   1.586 -0.0504 -0.3396  0.1006
  545MOL0     C73454   4.838   3.682   1.623 -1.1110 -0.3824 -0.1914
  545MOL0     C73455   4.909   3.787   1.548  0.2611 -0.1097 -0.4561
  545MOL0     C73456   4.927   3.760   1.395  0.1772  0.6921 -0.2141
  545MOL0     N73457   5.019   3.652   1.371 -0.3221  0.0733  0.4934
  545MOL0     C73458   5.149   3.658   1.356 -0.5534  0.4806  0.3467
  545MOL0     C73459   5.190   3.535   1.306  0.5087 -0.1998  0.4593
  545MOL0     C73460   5.324   3.488   1.280 -0.1472 -0.2442  0.1862
  545MOL0     C73461   5.380   3.510   1.139  0.0648 -0.4130 -0.1583
  545MOL0     C73462   5.516   3.449   1.114 -0.4057 -0.9629 -0.6280
  545MOL0     C73463   5.633   3.542   1.166  0.4947 -0.5812  1.2916
  545MOL0     O73464   5.754   3.469   1.173 -0.1476  0.2374  0.6250
  545MOL0     C73465   5.823   3.441   1.058 -0.1980  0.5397 -0.1442
  545MOL0     C73466   5.944   3.367   1.075  0.3187  0.0776 -0.2272
  545MOL0     C73467   6.035   3.345   0.965  0.5958 -0.4595 -0.4539
  545MOL0     C73468   6.006   3.398   0.838 -0.0981  0.8184  0.8858
  545MOL0     C73469   6.091   3.376   0.724 -0.9298 -0.1101  0.3271
  545MOL0     O73470   6.207   3.312   0.741  0.1951 -0.1449  0.0923
  545MOL0     C73471   6.307   3.320   0.653  0.7110  0.0437  0.3023
  545MOL0     C73472   6.297   3.266   0.528  0.2831 -0.4117  0.0401
  545MOL0     C73473   6.404   3.276   0.444 -0.4992  0.9716  0.7516
  545MOL0     C73474   6.529   3.332   0.479  0.1499 -0.5700 -0.0548
  545MOL0     O73475   6.625   3.339   0.380 -0.1756 -0.4201 -0.2913
  545MOL0     C73476   6.762   3.349   0.427 -0.1005  0.4349 -0.3576
  545MOL0     C73477   6.864   3.337   0.326  0.4584 -0.7321 -0.1378
  545MOL0     C73478   7.004   3.362   0.381 -0.2082 -0.1607 -0.0218
  545MOL0     C73479   7.104   3.352   0.265  0.4458  0.0052 -0.1401
  545MOL0     C73480   7.247   3.305   0.317 -0.1265  0.3608 -0.4152
  545MOL0     C73481   7.358   3.316   0.216  0.1232 -0.9532  0.1958
  545MOL0     C73482   7.494   3.257   0.261  0.4540  0.1591 -0.3296
  545MOL0     C73483   7.617   3.271   0.164 -0.1330  0.3883 -0.0972
  545MOL0    Cl73484   7.657   3.434   0.129  0.3655  0.3007 -0.1909
  545MOL0     C73485   6.541   3.384   0.614 -0.4101 -0.4694  0.1952
  545MOL0     C73486   6.427   3.372   0.702 -0.6813  0.5981 -0.0282
  545MOL0     O73487   6.053   3.430   0.626  0.0279  0.7592 -0.2337
  545MOL0     C73488   5.880   3.466   0.819  0.6961  1.1363 -0.6756
  545MOL0     C73489   5.796   3.488   0.931 -0.0607 -0.2049  0.2586
  545MOL0     N73490   5.078   3.454   1.297 -0.2904 -0.0484 -0.2562
  545MOL0     N73491   4.981   3.529   1.342  0.8390  0.2552 -0.1040
  545MOL0     C73492   4.002   3.784   1.268 -0.0241 -0.0051  0.2898
  545MOL0     C73493   3.876   3.727   1.234  0.1040  0.0055  0.3507
  545MOL0     C73494   3.462   3.516   1.242 -0.7519  0.2769  0.4556
  545MOL0     C73495   3.484   3.451   1.109 -0.7803 -0.0736  0.2533
  545MOL0     C73496   3.367   3.411   1.049 -0.5119 -0.2612  0.3802
  545MOL0     C73497   3.240   3.419   1.105 -0.5214 -0.1683  0.3566
  545MOL0     O73498   3.134   3.397   1.026 -0.0935  0.0138 -0.4906
  545MOL0     C73499   3.013   3.341   1.085 -0.5807 -0.1736 -0.1028
  545MOL0     C73500   2.920   3.303   0.968  0.3065  0.1804  0.5689
  545MOL0     C73501   2.856   3.432   0.908 -0.8252  0.4587 -0.1351
  545MOL0     C73502   2.731   3.398   0.822  0.6376 -0.2581  0.9370
  545MOL0     C73503   2.771   3.335   0.692 -0.0792  0.6674 -0.5121
  545MOL0     C73504   2.810   3.272   0.599 -1.2077  0.4804  0.8519
  545MOL0     C73505   3.224   3.465   1.237  0.8966 -0.7299  0.3991
  545MOL0     C73506   3.334   3.510   1.306 -0.9278  0.8568  0.4273
  545MOL0     C73507   3.307   3.553   1.452  0.2974 -0.3033  0.6201
  545MOL0     H73508   3.783   3.581   1.518  5.0522 -3.2630  1.1176
  545MOL0     H73509   3.998   3.676   1.590  1.3747 -1.8818 -1.0699
  545MOL0     H73510   4.144   3.940   1.550  1.2722  0.3898  0.9627
  545MOL0     H73511   4.175   3.780   1.621  1.9037 -1.8034 -1.4193
  545MOL0     H73512   4.381   3.926   1.641  0.2970  0.4133 -0.1543
  545MOL0     H73513   4.399   3.915   1.463  0.4178 -1.9576 -0.7184
  545MOL0     H73514   4.426   3.664   1.476 -2.8429  0.0616  0.3976
  545MOL0     H73515   4.419   3.695   1.657  2.5393 -0.5212  0.5703
  545MOL0     H73516   4.622   3.827   1.476  0.6290 -1.8227 -1.1956
  545MOL0     H73517   4.604   3.827   1.660 -0.2917 -0.9750  0.8862
  545MOL0     H73518   4.645   3.586   1.666 -0.4873 -1.3827 -0.9019
  545MOL0     H73519   4.693   3.586   1.495  0.3379 -1.0342  0.5870
  545MOL0     H73520   4.855   3.701   1.730 -0.9311  2.4161 -0.6438
  545MOL0     H73521   4.894   3.591   1.600 -0.2228  0.1626 -0.2096
  545MOL0     H73522   5.005   3.789   1.601  0.0258  0.0779 -0.0295
  545MOL0     H73523   4.855   3.882   1.557  1.9034  0.9215 -0.8856
  545MOL0     H73524   4.831   3.739   1.348  0.6704  0.7324 -1.2680
  545MOL0     H73525   4.974   3.848   1.351 -0.8182  2.7004  2.4682
  545MOL0     H73526   5.203   3.750   1.378  0.1640 -0.5493  3.3413
  545MOL0     H73527   5.390   3.549   1.342 -1.5667  1.5049  0.0741
  545MOL0     H73528   5.334   3.384   1.311  1.4870 -0.2254 -0.2017
  545MOL0     H73529   5.312   3.459   1.071  1.5678 -1.5219 -0.8891
  545MOL0     H73530   5.378   3.617   1.117 -0.3358 -0.5764 -0.9524
  545MOL0     H73531   5.523   3.431   1.006  4.1659  2.5935 -1.2820
  545MOL0     H73532   5.522   3.350   1.159  0.9193 -0.5516  0.1740
  545MOL0     H73533   5.612   3.586   1.264 -0.0411  3.0668 -0.2572
  545MOL0     H73534   5.639   3.630   1.100 -0.7671 -0.2598  1.5773
  545MOL0     H73535   5.972   3.341   1.176  3.0647  0.9434 -0.6744
  545MOL0     H73536   6.132   3.302   0.988  0.2801 -0.1528  1.6314
  545MOL0     H73537   6.205   3.215   0.500 -0.6193  1.2493 -0.1518
  545MOL0     H73538   6.397   3.224   0.349  0.6354 -0.5811  1.4710
  545MOL0     H73539   6.769   3.444   0.480  1.0804 -0.1054  0.5132
  545MOL0     H73540   6.785   3.275   0.505 -0.0080  1.1743  0.3309
  545MOL0     H73541   6.851   3.236   0.285 -1.0345 -1.0864  1.1208
  545MOL0     H73542   6.845   3.421   0.258 -0.0500 -0.8505 -0.1502
  545MOL0     H73543   7.012   3.465   0.419  0.2164 -0.5514  0.9894
  545MOL0     H73544   7.024   3.276   0.445 -0.2528 -0.6450 -0.6519
  545MOL0     H73545   7.120   3.451   0.221  4.6259  0.1831  1.2851
  545MOL0     H73546   7.060   3.290   0.187  1.4273  0.2744 -0.9353
  545MOL0     H73547   7.246   3.196   0.330  0.4800  0.3712 -0.2808
  545MOL0     H73548   7.274   3.351   0.412 -0.2497  2.0001 -1.1464
  545MOL0     H73549   7.319   3.270   0.125 -2.4216 -1.0974  1.2751
  545MOL0     H73550   7.384   3.420   0.196  0.2107 -0.7318  1.3968
  545MOL0     H73551   7.481   3.154   0.295 -0.2998  1.0925  2.4823
  545MOL0     H73552   7.523   3.320   0.346  0.0470  0.0394 -0.0988
  545MOL0     H73553   7.705   3.228   0.212 -1.8742 -2.2969  0.9221
  545MOL0     H73554   7.594   3.227   0.066  3.5427  1.0931 -1.4046
  545MOL0     H73555   6.629   3.440   0.644 -1.8037  2.1135 -0.2179
  545MOL0     H73556   6.440   3.415   0.800 -1.8090 -0.4773  0.6250
  545MOL0     H73557   5.833   3.498   0.726  0.4496  0.0514 -0.9423
  545MOL0     H73558   5.696   3.521   0.905  0.0204 -1.4959 -2.0430
  545MOL0     H73559   4.056   3.839   1.191  1.6343 -0.2813  1.1920
  545MOL0     H73560   3.844   3.745   1.132  0.7946 -1.0537 -0.0681
  545MOL0     H73561   3.576   3.448   1.052 -1.5705 -0.1269 -1.0535
  545MOL0     H73562   3.368   3.394   0.942 -0.0563  1.6529  0.0383
  545MOL0     H73563   2.955   3.406   1.152  0.8539 -1.4621  2.5254
  545MOL0     H73564   3.027   3.245   1.136  1.7104 -0.4150 -1.0937
  545MOL0     H73565   2.841   3.244   1.015 -0.7137  0.3334 -0.8835
  545MOL0     H73566   2.965   3.247   0.886  1.9223  1.0784  0.8000
  545MOL0     H73567   2.928   3.477   0.839 -1.8786  1.1063 -0.8357
  545MOL0     H73568   2.826   3.510   0.978 -3.3898  0.4282 -1.1047
  545MOL0     H73569   2.662   3.331   0.874 -0.8132 -1.2839 -2.0639
  545MOL0     H73570   2.673   3.488   0.801  0.1118 -0.8950 -0.4211
  545MOL0     H73571   2.836   3.220   0.509 -1.2351  0.5788  0.7879
  545MOL0     H73572   3.124   3.457   1.279 -0.2916 -0.1273 -2.0922
  545MOL0     H73573   3.293   3.661   1.446 -0.4870 -0.2770  2.3681
  545MOL0     H73574   3.212   3.513   1.490 -0.0897 -2.4579 -2.2209
  545MOL0     H73575   3.380   3.522   1.527 -0.6264  1.4761  2.3407
  546MOL0     O73576   8.302   7.313   0.496 -0.7227 -0.5876 -0.4300
  546MOL0     C73577   8.228   7.409   0.473 -0.1359 -0.4536  0.2338
  546MOL0     O73578   8.215   7.522   0.554  0.3702 -0.0571  0.6533
  546MOL0     C73579   8.288   7.523   0.671  0.4799  0.3667  0.3283
  546MOL0     C73580   8.246   7.432   0.776 -0.4056  0.1160 -0.2630
  546MOL0     C73581   8.315   7.421   0.890  0.1045  0.5131  0.0953
  546MOL0     C73582   8.419   7.504   0.910  0.6629  0.0512  0.2331
  546MOL0     O73583   8.484   7.479   1.024 -0.5959  0.4194 -0.4038
  546MOL0     C73584   8.595   7.391   1.013 -0.2245  0.4871  0.5867
  546MOL0     C73585   8.684   7.413   1.134 -0.3263 -0.3482  0.1069
  546MOL0     C73586   8.656   7.330   1.262  0.4486  0.0711 -0.1817
  546MOL0     C73587   8.715   7.193   1.244  0.6022 -0.0721 -0.0046
  546MOL0     C73588   8.771   7.137   1.378 -0.2823 -0.1050 -0.7781
  546MOL0     C73589   8.674   7.124   1.495 -0.5707  0.4478 -0.1781
  546MOL0     C73590   8.741   7.082   1.620  0.2250 -0.2987 -0.7493
  546MOL0     C73591   8.855   7.185   1.681  0.5077 -0.6265  0.5030
  546MOL0     N73592   8.861   7.191   1.830 -0.1246 -0.5835  0.1289
  546MOL0     C73593   8.969   7.157   1.900 -0.2698 -0.1201  0.0126
  546MOL0     C73594   8.941   7.192   2.024 -0.5224 -0.6253  0.1355
  546MOL0     C73595   9.037   7.175   2.136 -0.0780 -0.0879 -0.1203
  546MOL0     C73596   8.950   7.103   2.243  0.9920 -1.1427 -1.1034
  546MOL0     C73597   9.029   7.069   2.376  0.9721  0.1949 -0.5006
  546MOL0     C73598   8.937   7.032   2.492  0.5841  0.3958 -0.3635
  546MOL0     O73599   8.888   7.148   2.558  0.1632  0.4901  0.2170
  546MOL0     C73600   8.755   7.150   2.588  0.2373  0.1650 -0.7998
  546MOL0     C73601   8.664   7.040   2.596  0.0670 -0.1284 -0.8898
  546MOL0     C73602   8.535   7.062   2.649 -0.5705  0.4109 -0.0889
  546MOL0     C73603   8.497   7.189   2.698  1.1554 -0.1829 -0.1679
  546MOL0     C73604   8.362   7.204   2.749  0.3427  0.2455  0.0757
  546MOL0     O73605   8.264   7.145   2.670  0.4878 -0.3066  0.2063
  546MOL0     C73606   8.139   7.136   2.713  0.6564  1.0127  1.6689
  546MOL0     C73607   8.051   7.085   2.614 -0.5263  0.0144  0.0070
  546MOL0     C73608   7.913   7.054   2.648 -0.3203 -0.8517  0.3757
  546MOL0     C73609   7.877   7.050   2.781 -0.2632 -0.2377  0.6091
  546MOL0     O73610   7.750   7.015   2.811 -0.3213  0.4880 -0.3109
  546MOL0     C73611   7.643   7.074   2.740  0.1223 -0.2658  0.2200
  546MOL0     C73612   7.512   7.090   2.825 -0.1119 -0.0252 -0.4733
  546MOL0     C73613   7.383   7.120   2.744  0.1501 -0.5080 -0.8637
  546MOL0     C73614   7.257   7.105   2.843  0.7612  0.4865  0.1509
  546MOL0     C73615   7.199   6.959   2.841 -0.1748 -0.4815 -0.0568
  546MOL0     C73616   7.070   6.947   2.913  0.3043 -0.1760  0.8470
  546MOL0     C73617   7.002   6.815   2.893  0.1154  0.1825  0.0122
  546MOL0     C73618   6.866   6.790   2.965  0.1743  0.3244  0.6775
  546MOL0    Cl73619   6.870   6.781   3.140  0.2415  0.1034 -0.0490
  546MOL0     C73620   7.975   7.078   2.881 -0.9641 -0.0343  0.5432
  546MOL0     C73621   8.102   7.121   2.848 -0.1481  0.2534  0.3923
  546MOL0     O73622   8.347   7.262   2.855 -0.1282 -0.7255 -0.3999
  546MOL0     C73623   8.587   7.297   2.689  1.1020 -0.5432  0.3212
  546MOL0     C73624   8.715   7.278   2.636 -0.5213 -0.4264 -0.7289
  546MOL0     N73625   8.816   7.252   2.037  0.3293  0.0020  0.0433
  546MOL0     N73626   8.777   7.255   1.912 -0.3056  0.1333 -0.5907
  546MOL0     C73627   8.456   7.601   0.811  0.1362 -0.5576 -1.2513
  546MOL0     C73628   8.394   7.609   0.682 -0.0522 -0.6214 -0.2979
  546MOL0     C73629   8.120   7.400   0.364  0.1649 -0.2002 -0.1760
  546MOL0     C73630   7.995   7.454   0.396  0.0502 -0.3186 -1.2469
  546MOL0     C73631   7.883   7.430   0.313  0.2663 -0.3335  0.0264
  546MOL0     C73632   7.906   7.377   0.180  0.0092  0.0386  0.3680
  546MOL0     O73633   7.795   7.356   0.100  0.2038 -0.0367  0.4084
  546MOL0     C73634   7.813   7.287  -0.020  0.3330  0.6796 -0.4233
  546MOL0     C73635   7.682   7.281  -0.104 -0.5765  0.2327 -0.1586
  546MOL0     C73636   7.646   7.421  -0.148  0.0408 -0.2649  0.4237
  546MOL0     C73637   7.541   7.425  -0.262 -0.2626  0.5677 -0.2161
  546MOL0     C73638   7.501   7.564  -0.288  0.4169 -0.0602  0.6727
  546MOL0     C73639   7.471   7.674  -0.318 -0.1718  0.0636 -0.0489
  546MOL0     C73640   8.038   7.336   0.152 -0.3609  1.1993  0.4285
  546MOL0     C73641   8.147   7.341   0.240  0.6673 -1.0372  0.1708
  546MOL0     C73642   8.269   7.284   0.185  0.2599  0.0846 -0.2422
  546MOL0     H73643   8.160   7.370   0.754 -1.6377  1.7436 -0.2474
  546MOL0     H73644   8.291   7.338   0.956 -1.5110 -1.4225 -2.7261
  546MOL0     H73645   8.569   7.287   0.994  0.0913  0.4458  0.3836
  546MOL0     H73646   8.655   7.421   0.927 -0.2249 -0.2146  0.3347
  546MOL0     H73647   8.676   7.519   1.161  0.3083  0.2727 -1.9276
  546MOL0     H73648   8.784   7.378   1.108  0.2363  1.6212 -0.6119
  546MOL0     H73649   8.549   7.318   1.284  0.6747 -0.7883  0.4845
  546MOL0     H73650   8.706   7.380   1.346 -1.5669 -1.1615  1.8626
  546MOL0     H73651   8.643   7.119   1.209  1.6350 -0.7980 -0.6555
  546MOL0     H73652   8.797   7.185   1.172  0.7693  1.8082 -0.0586
  546MOL0     H73653   8.823   7.044   1.354  0.5981  0.2110 -0.1329
  546MOL0     H73654   8.844   7.211   1.410  0.9556 -2.0661  1.2705
  546MOL0     H73655   8.611   7.213   1.497 -0.0153  0.8365  0.4054
  546MOL0     H73656   8.600   7.046   1.472 -0.2872 -0.5385  1.9499
  546MOL0     H73657   8.787   6.986   1.595  0.2737 -0.3899 -0.3166
  546MOL0     H73658   8.671   7.062   1.701  1.0148  1.0218  0.3122
  546MOL0     H73659   8.955   7.158   1.646  0.9814  1.3968  0.1618
  546MOL0     H73660   8.843   7.289   1.648 -2.0331 -1.3733 -1.2390
  546MOL0     H73661   9.062   7.112   1.866  1.1420  1.7261  1.1968
  546MOL0     H73662   9.136   7.134   2.112 -0.2051 -0.2008 -0.4625
  546MOL0     H73663   9.055   7.275   2.177  2.4963  0.0678 -1.3954
  546MOL0     H73664   8.874   7.177   2.267 -0.4238 -2.2652 -1.9679
  546MOL0     H73665   8.899   7.011   2.213  0.3883 -1.0255 -0.4458
  546MOL0     H73666   9.094   7.151   2.409 -1.0887  1.9908 -0.6631
  546MOL0     H73667   9.092   6.984   2.349 -0.1626 -1.0379  0.6222
  546MOL0     H73668   8.990   6.974   2.568  1.4359  0.7255 -0.6965
  546MOL0     H73669   8.865   6.959   2.454  1.4615 -2.9313  3.5811
  546MOL0     H73670   8.685   6.936   2.577 -0.7781 -0.0204 -2.6200
  546MOL0     H73671   8.469   6.976   2.656  0.5144 -0.6085 -1.5043
  546MOL0     H73672   8.085   7.092   2.511  2.1746  1.0243  0.8563
  546MOL0     H73673   7.844   7.026   2.569 -2.7889  1.1696  1.6845
  546MOL0     H73674   7.674   7.176   2.714  1.0481 -0.7900 -0.8098
  546MOL0     H73675   7.634   7.013   2.650  1.7649 -1.7385  0.9733
  546MOL0     H73676   7.498   7.009   2.897  0.8647 -1.1477 -1.4871
  546MOL0     H73677   7.533   7.179   2.885 -0.7678  1.5432 -2.4777
  546MOL0     H73678   7.377   7.223   2.706 -0.8938  0.3903  1.4697
  546MOL0     H73679   7.379   7.046   2.665 -1.3996 -0.2746 -1.0420
  546MOL0     H73680   7.180   7.166   2.796  1.1625  1.5301  0.8234
  546MOL0     H73681   7.264   7.134   2.948 -4.7711  0.8837  0.6742
  546MOL0     H73682   7.278   6.895   2.883 -1.0496 -1.3235  0.3441
  546MOL0     H73683   7.170   6.934   2.739 -1.1611  0.5163 -0.0286
  546MOL0     H73684   7.086   6.966   3.019  0.1872 -0.7357  0.9641
  546MOL0     H73685   7.002   7.025   2.875 -0.3835 -0.5472  1.2911
  546MOL0     H73686   7.066   6.738   2.936  0.4431 -0.2495 -1.2374
  546MOL0     H73687   7.001   6.791   2.787  3.2756 -1.9636  0.3525
  546MOL0     H73688   6.792   6.869   2.951  0.6047  0.5447 -0.3911
  546MOL0     H73689   6.829   6.701   2.913 -2.7703  3.2461 -2.7132
  546MOL0     H73690   7.955   7.097   2.986  5.8824 -0.7600  2.4271
  546MOL0     H73691   8.166   7.140   2.934 -0.0088  0.3147  0.2754
  546MOL0     H73692   8.559   7.390   2.738 -2.9557 -2.6205  2.4135
  546MOL0     H73693   8.795   7.349   2.652 -1.6801  0.5910  0.8312
  546MOL0     H73694   8.542   7.665   0.821 -3.1678  4.2580 -0.2006
  546MOL0     H73695   8.440   7.674   0.608  1.1043  0.9611  1.6909
  546MOL0     H73696   7.987   7.511   0.488  1.5574  1.4125 -2.1237
  546MOL0     H73697   7.778   7.446   0.334 -0.3576 -3.5659 -0.1631
  546MOL0     H73698   7.866   7.193  -0.007  2.5869  2.0547  1.0679
  546MOL0     H73699   7.894   7.337  -0.075 -0.1189  0.2961 -1.4750
  546MOL0     H73700   7.605   7.233  -0.043 -1.6496  0.7962 -1.0465
  546MOL0     H73701   7.686   7.214  -0.190  0.2898 -0.7482  0.6060
  546MOL0     H73702   7.728   7.484  -0.184 -0.5229 -0.0496 -0.5182
  546MOL0     H73703   7.612   7.477  -0.061 -2.7483  0.6225 -1.1057
  546MOL0     H73704   7.592   7.392  -0.353 -0.7608 -1.7357  0.2853
  546MOL0     H73705   7.451   7.370  -0.231  0.5134  0.8166  2.8375
  546MOL0     H73706   7.457   7.777  -0.347 -1.7168 -0.3905 -1.0545
  546MOL0     H73707   8.058   7.306   0.049 -0.6416  0.7359  0.5061
  546MOL0     H73708   8.358   7.337   0.221 -0.3734  0.8380  0.2441
  546MOL0     H73709   8.279   7.178   0.211  1.4524  0.1972 -0.1855
  546MOL0     H73710   8.274   7.295   0.076  2.2673 -0.9642 -0.3170
  547MOL0     O73711   7.586  10.094   3.169  0.1983 -0.4248  0.3185
  547MOL0     C73712   7.471  10.105   3.130  0.0395  0.2652 -0.0565
  547MOL0     O73713   7.432  10.059   3.010  1.3376  0.5484  0.0893
  547MOL0     C73714   7.513  10.009   2.910  0.5530 -0.3214  0.9138
  547MOL0     C73715   7.451   9.908   2.831 -0.7001  0.4544  0.3006
  547MOL0     C73716   7.524   9.849   2.727 -0.0773 -0.5003 -0.4728
  547MOL0     C73717   7.656   9.889   2.698 -0.6058  1.0185 -0.6961
  547MOL0     O73718   7.716   9.818   2.602  0.1687  0.4646  0.0173
  547MOL0     C73719   7.857   9.796   2.615 -0.3327 -0.0385  0.3250
  547MOL0     C73720   7.907   9.687   2.531 -0.2300  0.2645 -0.1645
  547MOL0     C73721   8.068   9.683   2.527  0.7231 -0.4971 -0.7791
  547MOL0     C73722   8.121   9.768   2.421 -0.0583  0.1685 -0.7109
  547MOL0     C73723   8.266   9.717   2.410 -0.1756 -0.2997  0.2560
  547MOL0     C73724   8.334   9.803   2.297 -0.5020  0.9798 -0.8942
  547MOL0     C73725   8.483   9.766   2.254 -0.9065 -0.3200  0.4071
  547MOL0     C73726   8.566   9.710   2.375 -0.1342  1.4306  0.2380
  547MOL0     N73727   8.703   9.677   2.336 -0.8133 -0.3729  0.6541
  547MOL0     C73728   8.812   9.754   2.343 -0.7174  0.2318  0.1231
  547MOL0     C73729   8.920   9.678   2.306  0.7114 -0.6331  1.1729
  547MOL0     C73730   9.065   9.722   2.306  0.6063  0.9129  0.4924
  547MOL0     C73731   9.140   9.667   2.425 -0.5645 -1.0791  0.3749
  547MOL0     C73732   9.072   9.711   2.557 -0.5477 -0.5431 -0.4819
  547MOL0     C73733   9.169   9.676   2.670 -0.3342  0.3746  0.2392
  547MOL0     O73734   9.277   9.766   2.671  0.1068  0.0511 -0.2365
  547MOL0     C73735   9.374   9.728   2.760  0.2302 -0.5966 -0.3707
  547MOL0     C73736   9.344   9.714   2.901  1.0500  0.8343 -0.5467
  547MOL0     C73737   9.448   9.687   2.991  0.0311 -0.8008  0.2858
  547MOL0     C73738   9.578   9.659   2.944  0.1584 -0.1691  0.5262
  547MOL0     C73739   9.695   9.636   3.023 -0.4956 -0.5813 -0.2999
  547MOL0     O73740   9.669   9.635   3.154 -0.2009 -0.2638 -0.2113
  547MOL0     C73741   9.762   9.609   3.249 -0.9785 -0.5761 -0.2296
  547MOL0     C73742   9.899   9.650   3.254  0.0066 -0.9956 -0.2899
  547MOL0     C73743   9.984   9.605   3.355 -0.8184  0.1727 -0.4150
  547MOL0     C73744   9.938   9.531   3.465  0.0574  0.1271 -0.3240
  547MOL0     O73745  10.026   9.490   3.563 -0.1442  0.6060 -0.6960
  547MOL0     C73746   9.986   9.413   3.678 -0.2302 -0.6251  0.7341
  547MOL0     C73747  10.084   9.401   3.796 -0.0752  1.4166  0.3307
  547MOL0     C73748  10.112   9.535   3.852 -0.3122 -1.1018 -0.2560
  547MOL0     C73749  10.226   9.535   3.957  0.4654 -0.7545  1.6005
  547MOL0     C73750  10.245   9.669   4.032  0.8136 -0.3728 -0.0695
  547MOL0     C73751  10.315   9.767   3.949 -0.4357  0.8485  0.8808
  547MOL0     C73752  10.365   9.882   4.041  0.0637 -0.3404 -0.1573
  547MOL0     C73753  10.430   9.988   3.960 -0.0604 -0.0794 -0.1302
  547MOL0    Cl73754  10.328  10.114   3.874  0.4959  0.2690  0.2679
  547MOL0     C73755   9.802   9.490   3.461  0.2066  0.5736  0.1581
  547MOL0     C73756   9.721   9.533   3.355 -0.2383  0.0948  0.3160
  547MOL0     O73757   9.807   9.612   2.973 -0.1079 -0.1773 -0.5613
  547MOL0     C73758   9.604   9.662   2.807 -0.0019 -0.4394 -0.2431
  547MOL0     C73759   9.499   9.688   2.714 -0.3885 -0.2650 -0.0678
  547MOL0     N73760   8.870   9.559   2.268  0.3223  0.9631 -0.1947
  547MOL0     N73761   8.740   9.557   2.293  0.0250  0.3390  0.8389
  547MOL0     C73762   7.711   9.994   2.771  0.0747 -0.7713 -0.1950
  547MOL0     C73763   7.640  10.061   2.875 -0.1671  0.0419 -0.5551
  547MOL0     C73764   7.377  10.179   3.207 -0.0395 -0.3600  0.7359
  547MOL0     C73765   7.268  10.244   3.135  0.9064  0.0351 -0.9852
  547MOL0     C73766   7.161  10.295   3.209  0.1493 -0.5094  0.2499
  547MOL0     C73767   7.160  10.306   3.346  0.0739  0.0197  0.2226
  547MOL0     O73768   7.060  10.355   3.424  0.7548 -0.5184 -0.3418
  547MOL0     C73769   6.931  10.396   3.376  0.4417  0.0723 -0.0242
  547MOL0     C73770   6.958  10.538   3.333  0.5878 -0.2079  0.1642
  547MOL0     C73771   6.840  10.640   3.333  1.0661  1.0129  0.4672
  547MOL0     C73772   6.716  10.593   3.248  0.5747  0.4675 -0.1006
  547MOL0     C73773   6.619  10.699   3.265 -0.1286 -0.0686 -0.6652
  547MOL0     C73774   6.537  10.787   3.285  0.4242  0.4124 -0.1863
  547MOL0     C73775   7.272  10.257   3.416  0.1935  0.0079 -0.5730
  547MOL0     C73776   7.377  10.193   3.347 -0.6018  0.0214 -0.4610
  547MOL0     C73777   7.484  10.132   3.430 -0.6780  1.3445 -0.0274
  547MOL0     H73778   7.359   9.859   2.861  1.0961 -1.6192  2.9224
  547MOL0     H73779   7.477   9.771   2.668 -1.0742  0.3728 -0.8703
  547MOL0     H73780   7.914   9.884   2.582  1.4081 -1.5704 -0.9403
  547MOL0     H73781   7.878   9.774   2.720 -2.7339 -0.1408  0.8485
  547MOL0     H73782   7.860   9.698   2.433 -3.1502 -0.3804  1.0623
  547MOL0     H73783   7.868   9.588   2.557  1.1206 -0.4194 -0.6356
  547MOL0     H73784   8.094   9.578   2.534 -2.9480 -1.4784  1.4533
  547MOL0     H73785   8.115   9.720   2.619  2.7047  0.1413 -1.9881
  547MOL0     H73786   8.068   9.750   2.327  0.2564 -1.9486 -0.5482
  547MOL0     H73787   8.114   9.873   2.451  3.3073  0.6411 -1.1404
  547MOL0     H73788   8.317   9.726   2.506  0.0816 -3.3640  0.5011
  547MOL0     H73789   8.264   9.610   2.388 -2.8845 -0.3212  0.3580
  547MOL0     H73790   8.272   9.796   2.207  0.6947 -0.2121 -1.6567
  547MOL0     H73791   8.320   9.906   2.331 -1.6296  1.3629 -2.4155
  547MOL0     H73792   8.530   9.860   2.225 -2.0486 -0.2474 -1.3387
  547MOL0     H73793   8.477   9.691   2.174 -1.3231 -0.3867  0.4984
  547MOL0     H73794   8.561   9.779   2.460 -0.2012  1.5258  0.1567
  547MOL0     H73795   8.518   9.616   2.404  2.4325 -0.6887 -1.8345
  547MOL0     H73796   8.811   9.855   2.383 -1.1923 -0.1653  1.1312
  547MOL0     H73797   9.108   9.691   2.210 -0.9247 -0.2596  0.1448
  547MOL0     H73798   9.071   9.831   2.307  0.9263  0.8932  1.2769
  547MOL0     H73799   9.147   9.559   2.417  0.8023 -0.9615 -0.3448
  547MOL0     H73800   9.241   9.707   2.412 -0.4120 -1.7280 -0.5706
  547MOL0     H73801   8.973   9.668   2.578 -1.3508  1.6819  0.6642
  547MOL0     H73802   9.059   9.820   2.550  1.2933 -0.3205 -0.7482
  547MOL0     H73803   9.209   9.577   2.648  2.6344  1.4306  0.4312
  547MOL0     H73804   9.121   9.681   2.769  0.5985 -0.8731  0.7731
  547MOL0     H73805   9.251   9.743   2.948  1.2934 -1.1510  1.3251
  547MOL0     H73806   9.428   9.676   3.097  0.7003  0.4251  0.5540
  547MOL0     H73807   9.948   9.716   3.183 -0.3650  0.5080  0.8033
  547MOL0     H73808  10.088   9.632   3.369 -1.1516  1.7304 -0.8036
  547MOL0     H73809   9.893   9.453   3.720 -0.3522  2.2883 -1.9432
  547MOL0     H73810   9.962   9.315   3.635 -0.6749 -0.3545  0.3482
  547MOL0     H73811  10.053   9.337   3.879 -4.3706  1.6186 -0.9103
  547MOL0     H73812  10.165   9.344   3.749 -3.0233 -0.6911 -2.6710
  547MOL0     H73813  10.140   9.602   3.770 -1.1025  1.1008  1.1961
  547MOL0     H73814  10.016   9.570   3.891  1.2947  1.3671  1.7997
  547MOL0     H73815  10.324   9.507   3.916  0.8824 -0.0893  2.1147
  547MOL0     H73816  10.199   9.456   4.027  1.5032 -1.1642  1.5685
  547MOL0     H73817  10.297   9.634   4.122  0.5399 -3.7988 -1.1168
  547MOL0     H73818  10.150   9.713   4.065  1.2918  0.9780 -0.4352
  547MOL0     H73819  10.399   9.719   3.897 -2.3558 -1.3656 -0.3433
  547MOL0     H73820  10.244   9.812   3.879  0.4134  1.0982  0.1478
  547MOL0     H73821  10.449   9.842   4.099  2.4293  0.3032 -2.9266
  547MOL0     H73822  10.293   9.933   4.106 -0.9267 -0.2907 -1.2555
  547MOL0     H73823  10.491  10.045   4.030  0.2503 -0.1162 -0.3683
  547MOL0     H73824  10.496   9.952   3.880  0.6610 -0.9831  0.8284
  547MOL0     H73825   9.751   9.414   3.520 -0.5021 -1.1072 -2.4347
  547MOL0     H73826   9.614   9.517   3.348  0.1953 -2.4914 -2.1353
  547MOL0     H73827   9.696   9.634   2.757  0.3094  1.9067 -1.0916
  547MOL0     H73828   9.512   9.706   2.608  2.4395 -2.7836 -0.2755
  547MOL0     H73829   7.813  10.024   2.749 -0.9122  2.8522 -0.4818
  547MOL0     H73830   7.684  10.151   2.917 -1.7224  2.7238 -4.0991
  547MOL0     H73831   7.255  10.246   3.027 -3.0592 -1.0472 -0.6945
  547MOL0     H73832   7.087  10.340   3.144 -0.0334 -1.4347 -0.1924
  547MOL0     H73833   6.858  10.375   3.454 -0.5307 -0.1149 -0.9548
  547MOL0     H73834   6.904  10.340   3.285  0.4759 -0.3236  0.2059
  547MOL0     H73835   7.019  10.534   3.242 -2.0065  0.4434 -1.7321
  547MOL0     H73836   7.019  10.571   3.418  0.2568  1.0288 -0.0618
  547MOL0     H73837   6.876  10.737   3.296 -0.1194  2.2291  2.3153
  547MOL0     H73838   6.806  10.656   3.436 -1.5340 -1.5705  0.1296
  547MOL0     H73839   6.748  10.599   3.144 -1.0804  2.8192 -0.5472
  547MOL0     H73840   6.680  10.496   3.284 -0.7262  1.3481  1.1195
  547MOL0     H73841   6.477  10.875   3.297  2.2377  1.4172  2.2013
  547MOL0     H73842   7.274  10.261   3.524  2.8979  2.1422 -0.5910
  547MOL0     H73843   7.484  10.165   3.535 -2.1818  1.5944 -0.0897
  547MOL0     H73844   7.471  10.024   3.426  0.7577  1.1722 -0.8884
  547MOL0     H73845   7.586  10.161   3.403  0.6811 -0.9956  2.1123
  548MOL0     O73846   1.135   1.263   2.352 -0.8010 -0.3155  0.4718
  548MOL0     C73847   1.041   1.243   2.430 -0.3630 -0.1205 -0.3144
  548MOL0     O73848   1.059   1.255   2.561 -0.4077 -0.0889 -0.1474
  548MOL0     C73849   1.183   1.249   2.611 -0.3834  1.2344  0.2011
  548MOL0     C73850   1.229   1.337   2.706 -0.6117 -0.4676  0.6484
  548MOL0     C73851   1.359   1.327   2.763  0.1131 -0.3442  1.1969
  548MOL0     C73852   1.449   1.227   2.722 -0.6160 -0.6008  0.1194
  548MOL0     O73853   1.585   1.234   2.753 -0.2620  1.1114  1.2619
  548MOL0     C73854   1.638   1.366   2.780 -0.7208 -0.4356  0.4516
  548MOL0     C73855   1.795   1.354   2.778 -0.0160  0.2841 -0.7662
  548MOL0     C73856   1.852   1.275   2.897  0.9067 -0.3935 -0.3429
  548MOL0     C73857   2.003   1.287   2.920 -0.0473  0.0415 -0.0063
  548MOL0     C73858   2.061   1.172   3.012  0.5383 -0.8667 -0.6413
  548MOL0     C73859   2.203   1.206   3.044  0.2356  0.3415 -0.4085
  548MOL0     C73860   2.252   1.105   3.151  0.1461 -0.9050  0.5238
  548MOL0     C73861   2.403   1.110   3.176  0.1621 -0.3750 -0.3325
  548MOL0     N73862   2.477   1.080   3.047 -0.2244  0.5879 -0.2782
  548MOL0     C73863   2.466   0.966   2.969 -0.4656  0.3400  0.0738
  548MOL0     C73864   2.504   1.011   2.849  0.4506  0.1133 -0.6424
  548MOL0     C73865   2.485   0.938   2.725 -0.2667 -0.6333  0.1490
  548MOL0     C73866   2.564   0.811   2.706  0.6552 -0.6270  0.5802
  548MOL0     C73867   2.594   0.773   2.561 -0.4318  0.3263 -0.2124
  548MOL0     C73868   2.709   0.856   2.497 -0.6201 -0.5101  0.8809
  548MOL0     O73869   2.849   0.832   2.548 -0.0852  0.2380  0.3180
  548MOL0     C73870   2.899   0.920   2.637 -1.0953 -0.5128  0.2188
  548MOL0     C73871   2.842   1.035   2.697  0.5608  0.8538  0.0683
  548MOL0     C73872   2.922   1.130   2.766 -0.8149  0.6960 -0.1505
  548MOL0     C73873   3.062   1.119   2.772  0.5417 -0.6577  0.1669
  548MOL0     C73874   3.164   1.206   2.840 -0.5139 -0.8076  0.3530
  548MOL0     O73875   3.297   1.171   2.836  0.3314  0.1575  0.1956
  548MOL0     C73876   3.395   1.261   2.860 -0.0094 -0.7568  0.1539
  548MOL0     C73877   3.514   1.215   2.906  0.3109  0.0093 -0.8500
  548MOL0     C73878   3.620   1.291   2.938 -0.7498 -0.2087  0.2784
  548MOL0     C73879   3.607   1.433   2.927 -0.3165 -0.6017  0.4852
  548MOL0     O73880   3.705   1.522   2.959 -0.6474  0.2646  0.1506
  548MOL0     C73881   3.819   1.475   3.042 -0.3004 -0.0760  0.1705
  548MOL0     C73882   3.917   1.590   3.043  0.6081  0.5067 -0.5435
  548MOL0     C73883   4.032   1.552   3.135 -0.5343  0.1650  0.0729
  548MOL0     C73884   4.131   1.667   3.135 -0.8428 -0.3441  0.0837
  548MOL0     C73885   4.258   1.633   3.214 -0.0143 -0.0905  0.5793
  548MOL0     C73886   4.344   1.753   3.247  0.7132 -0.4334 -1.0104
  548MOL0     C73887   4.473   1.702   3.312  0.1186 -0.4123  0.2088
  548MOL0     C73888   4.584   1.684   3.196  0.7467  0.4671  0.5863
  548MOL0    Cl73889   4.726   1.610   3.276  0.7873  0.4917  0.1942
  548MOL0     C73890   3.493   1.490   2.857 -0.1598  0.6841 -0.2967
  548MOL0     C73891   3.387   1.397   2.836  0.5259  0.0855  0.4889
  548MOL0     O73892   3.120   1.297   2.895  0.1423 -0.0451  0.1808
  548MOL0     C73893   3.114   1.001   2.721  0.1254  0.4133 -0.8163
  548MOL0     C73894   3.036   0.891   2.668  0.2075 -0.5345  0.5851
  548MOL0     N73895   2.552   1.142   2.853  0.8897 -0.3485 -0.1284
  548MOL0     N73896   2.540   1.179   2.976 -0.3027 -0.3882  0.1947
  548MOL0     C73897   1.392   1.125   2.641 -0.2026  0.7203  0.4068
  548MOL0     C73898   1.267   1.137   2.581 -0.3405 -0.2300 -0.2392
  548MOL0     C73899   0.902   1.220   2.384  0.7122  0.1639 -0.0176
  548MOL0     C73900   0.801   1.285   2.449  0.1688 -0.0865  0.2271
  548MOL0     C73901   0.671   1.276   2.413  0.4012  0.3716 -0.8351
  548MOL0     C73902   0.630   1.205   2.300 -0.3000 -0.6352  0.6379
  548MOL0     O73903   0.502   1.192   2.257 -0.7002 -0.6513 -0.5654
  548MOL0     C73904   0.436   1.078   2.304 -0.0208 -0.8529 -0.1158
  548MOL0     C73905   0.328   1.066   2.202 -0.1360 -0.4041  0.1020
  548MOL0     C73906   0.233   0.965   2.246  0.7289  0.1124  0.8368
  548MOL0     C73907   0.282   0.821   2.206  0.0896  0.3431 -0.6109
  548MOL0     C73908   0.301   0.793   2.064 -0.6786 -0.1522  0.1158
  548MOL0     C73909   0.320   0.765   1.948 -0.8474 -0.0223  0.5625
  548MOL0     C73910   0.733   1.136   2.234 -0.8213 -0.7424  0.2055
  548MOL0     C73911   0.869   1.138   2.277  0.5199  0.5614 -0.1277
  548MOL0     C73912   0.971   1.069   2.187 -0.3838 -1.1667  1.2374
  548MOL0     H73913   1.160   1.413   2.740 -0.1282 -1.1174  3.3410
  548MOL0     H73914   1.396   1.397   2.838  3.4316 -1.0408  0.3420
  548MOL0     H73915   1.608   1.444   2.710 -0.8849 -0.6925  0.2355
  548MOL0     H73916   1.613   1.399   2.882  0.2777  2.6182 -0.1986
  548MOL0     H73917   1.839   1.454   2.772 -0.7863  0.6958  0.2393
  548MOL0     H73918   1.821   1.303   2.685  2.3106 -0.7846  0.3855
  548MOL0     H73919   1.832   1.171   2.869  2.1273 -0.6369 -0.3438
  548MOL0     H73920   1.801   1.292   2.992  0.2655 -4.2255  0.1700
  548MOL0     H73921   2.060   1.292   2.827  1.5432  0.9423  0.9734
  548MOL0     H73922   2.032   1.375   2.979 -0.9232 -0.7477  1.6703
  548MOL0     H73923   2.005   1.177   3.105  1.2131 -0.8137 -0.2353
  548MOL0     H73924   2.052   1.073   2.967  0.6226  0.2394 -3.2764
  548MOL0     H73925   2.258   1.191   2.951 -0.7449 -1.3569 -0.7564
  548MOL0     H73926   2.207   1.308   3.083  0.5871  0.5737 -1.0440
  548MOL0     H73927   2.222   1.003   3.124  0.8899 -0.3542 -2.6864
  548MOL0     H73928   2.222   1.137   3.251  2.9564  0.2612  1.0667
  548MOL0     H73929   2.431   1.208   3.216 -0.9445 -1.1621  2.6190
  548MOL0     H73930   2.429   1.040   3.255  1.1395 -0.3631 -0.6266
  548MOL0     H73931   2.429   0.872   3.007 -1.2844  0.3611 -0.6211
  548MOL0     H73932   2.383   0.899   2.725  0.7474 -3.5714  1.0508
  548MOL0     H73933   2.496   1.009   2.642 -2.7229  0.7618  0.8895
  548MOL0     H73934   2.652   0.809   2.770  1.3187  0.3036 -0.2814
  548MOL0     H73935   2.500   0.727   2.735 -2.1833  0.1806 -2.6249
  548MOL0     H73936   2.508   0.788   2.495  0.0683  2.5708 -0.4144
  548MOL0     H73937   2.633   0.670   2.562 -1.2292  0.0088  1.7406
  548MOL0     H73938   2.686   0.963   2.503 -1.9420 -0.7624  0.4736
  548MOL0     H73939   2.695   0.829   2.392 -2.3617 -1.7741  1.4015
  548MOL0     H73940   2.734   1.043   2.694  0.1147 -2.8974  0.4380
  548MOL0     H73941   2.878   1.221   2.805 -0.9640  1.2720 -1.6226
  548MOL0     H73942   3.521   1.107   2.916  0.7722 -0.1401 -2.4571
  548MOL0     H73943   3.710   1.245   2.978 -0.5656  0.2058  0.3422
  548MOL0     H73944   3.792   1.450   3.145  1.9332  1.2430  1.1508
  548MOL0     H73945   3.873   1.390   2.999  0.7206  1.8471 -2.6626
  548MOL0     H73946   3.949   1.599   2.939  0.4204 -0.1662 -0.6649
  548MOL0     H73947   3.865   1.681   3.073 -1.0078 -0.7558  0.6899
  548MOL0     H73948   3.983   1.539   3.232 -1.3468  0.3531 -0.3042
  548MOL0     H73949   4.079   1.457   3.109 -2.7197 -1.3811  1.4119
  548MOL0     H73950   4.082   1.753   3.183 -2.8765 -0.8220 -1.0399
  548MOL0     H73951   4.161   1.688   3.032 -0.0337  0.6453  0.4955
  548MOL0     H73952   4.313   1.556   3.160  0.3775  0.1366  0.6453
  548MOL0     H73953   4.233   1.587   3.310  1.8895  0.1499  1.2317
  548MOL0     H73954   4.377   1.798   3.153 -0.4821 -0.3872 -1.4224
  548MOL0     H73955   4.303   1.823   3.321  0.9990  0.3786 -1.6069
  548MOL0     H73956   4.455   1.614   3.374 -3.0395  0.3571  0.5499
  548MOL0     H73957   4.516   1.779   3.377 -0.7947  0.6580 -0.4234
  548MOL0     H73958   4.549   1.608   3.125  1.5806 -0.9124  1.6045
  548MOL0     H73959   4.604   1.779   3.146  0.5631  0.6330  0.8304
  548MOL0     H73960   3.484   1.595   2.834  2.9925  1.8622  2.8890
  548MOL0     H73961   3.300   1.442   2.789  1.3390  0.6309 -0.5513
  548MOL0     H73962   3.220   0.990   2.743  0.5501  3.9832 -0.4961
  548MOL0     H73963   3.084   0.801   2.631  3.4874  0.9854  0.8051
  548MOL0     H73964   1.453   1.037   2.621  0.2813  1.2317 -0.4286
  548MOL0     H73965   1.232   1.058   2.515  0.2252 -0.8986  0.2496
  548MOL0     H73966   0.834   1.356   2.524  1.8531  3.3208 -3.3978
  548MOL0     H73967   0.598   1.346   2.453 -0.9040 -0.3276 -1.9375
  548MOL0     H73968   0.410   1.096   2.409 -0.3537  0.7871 -0.4509
  548MOL0     H73969   0.499   0.992   2.280  1.8586  0.8206 -1.5309
  548MOL0     H73970   0.372   1.050   2.103  0.9895  1.8047  0.1809
  548MOL0     H73971   0.274   1.161   2.193 -1.1114 -0.9137  0.3975
  548MOL0     H73972   0.132   0.978   2.207 -0.1649 -2.1736  2.2091
  548MOL0     H73973   0.214   0.974   2.353 -1.9451  1.5508  0.3372
  548MOL0     H73974   0.380   0.804   2.251  2.4365  1.0572 -4.9392
  548MOL0     H73975   0.205   0.750   2.237  0.9724  0.3586  1.8520
  548MOL0     H73976   0.327   0.728   1.848  3.1812 -1.8513  1.3310
  548MOL0     H73977   0.712   1.082   2.142  1.3955 -1.9547  0.3412
  548MOL0     H73978   1.023   1.000   2.254  0.9582  0.4216  1.9310
  548MOL0     H73979   0.908   1.020   2.113 -1.6006  2.3412 -0.2737
  548MOL0     H73980   1.035   1.149   2.148 -0.2790 -1.6176  0.4629
  549MOL0     O73981   7.790   1.173   8.878  0.2897 -0.1347  0.4744
  549MOL0     C73982   7.668   1.166   8.887 -0.4620 -0.3531  0.1466
  549MOL0     O73983   7.582   1.273   8.864 -0.4104  0.3194 -0.1287
  549MOL0     C73984   7.633   1.397   8.842 -0.1779 -0.2922 -0.0128
  549MOL0     C73985   7.596   1.467   8.729  0.3464  0.3416  0.2603
  549MOL0     C73986   7.644   1.599   8.705 -0.3967 -0.5703 -0.0537
  549MOL0     C73987   7.741   1.663   8.790 -0.3775  0.9883  0.5092
  549MOL0     O73988   7.803   1.780   8.739  0.3967  0.5101  0.5089
  549MOL0     C73989   7.903   1.844   8.817  0.2234  0.8460  0.7381
  549MOL0     C73990   7.946   1.957   8.735  0.3475  0.9851  0.5351
  549MOL0     C73991   8.036   2.057   8.805 -0.0789 -0.1955  0.7209
  549MOL0     C73992   8.166   2.075   8.730  0.2130  0.1744  0.9976
  549MOL0     C73993   8.266   2.171   8.783 -0.6340 -0.0503 -0.2551
  549MOL0     C73994   8.215   2.319   8.785 -0.0454  0.6900  0.1249
  549MOL0     C73995   8.338   2.405   8.817  0.2453 -0.5797 -0.1131
  549MOL0     C73996   8.322   2.553   8.829 -0.0682 -0.4142 -0.2232
  549MOL0     N73997   8.446   2.627   8.847 -0.8186  1.2067  0.6622
  549MOL0     C73998   8.513   2.633   8.968 -0.3726  0.3423  0.3001
  549MOL0     C73999   8.618   2.710   8.936 -0.7283 -0.3049 -0.3845
  549MOL0     C74000   8.715   2.758   9.045 -0.4875 -0.6732  0.3271
  549MOL0     C74001   8.855   2.768   8.982  0.1074  0.0937  0.1103
  549MOL0     C74002   8.950   2.827   9.087  0.2774 -0.1742  0.3234
  549MOL0     C74003   9.084   2.871   9.019 -0.4906  1.1349  0.6315
  549MOL0     O74004   9.077   3.010   8.963  0.0374  1.0199 -0.5668
  549MOL0     C74005   9.172   3.088   9.022 -0.3749 -0.0932  0.0994
  549MOL0     C74006   9.297   3.090   8.960 -0.2203  0.1979  0.4968
  549MOL0     C74007   9.403   3.159   9.028  0.2345  0.1580  0.2926
  549MOL0     C74008   9.394   3.210   9.159 -0.4785  0.2690 -0.3970
  549MOL0     C74009   9.515   3.270   9.237 -0.6914  0.1359  0.2325
  549MOL0     O74010   9.636   3.274   9.176 -0.1074 -0.1582  0.3644
  549MOL0     C74011   9.741   3.343   9.239  0.6223 -1.1650 -0.3642
  549MOL0     C74012   9.839   3.279   9.321 -0.9933 -0.5541  0.3201
  549MOL0     C74013   9.944   3.354   9.374  0.5664  0.0017  0.5250
  549MOL0     C74014   9.945   3.492   9.365  0.2703 -0.1677  0.4283
  549MOL0     O74015  10.053   3.560   9.416  0.2826 -0.0240 -0.0326
  549MOL0     C74016  10.050   3.698   9.435 -0.3468 -0.0217 -0.2032
  549MOL0     C74017   9.955   3.735   9.544 -0.0174  0.1766 -0.2419
  549MOL0     C74018  10.014   3.832   9.655 -0.2449  0.3118  0.4938
  549MOL0     C74019  10.046   3.969   9.584 -0.0951  0.6889  0.8492
  549MOL0     C74020  10.106   4.077   9.672 -0.4482  0.6429 -0.1882
  549MOL0     C74021  10.261   4.049   9.704  0.8816  1.4663  0.0758
  549MOL0     C74022  10.306   4.133   9.823 -0.4816 -0.2471 -0.1959
  549MOL0     C74023  10.457   4.121   9.856  0.7406  0.0055 -0.6732
  549MOL0    Cl74024  10.513   4.227   9.991 -0.3304 -0.2266  0.1090
  549MOL0     C74025   9.841   3.557   9.289 -0.2319  0.8285 -0.0913
  549MOL0     C74026   9.741   3.484   9.225 -0.6159  0.5595  0.1942
  549MOL0     O74027   9.495   3.306   9.351  0.2828 -0.3593  0.5031
  549MOL0     C74028   9.270   3.198   9.216  0.3844  0.0877 -0.0545
  549MOL0     C74029   9.164   3.137   9.146 -0.9844 -0.2600 -0.4344
  549MOL0     N74030   8.611   2.740   8.801 -0.9039 -0.0332  0.4811
  549MOL0     N74031   8.507   2.690   8.747 -0.1435 -0.4936 -0.1784
  549MOL0     C74032   7.772   1.587   8.904  0.0857  0.5662 -0.7648
  549MOL0     C74033   7.713   1.462   8.934 -0.5881 -0.4817  0.8229
  549MOL0     C74034   7.616   1.027   8.887 -0.6139  0.2305 -0.0231
  549MOL0     C74035   7.481   1.002   8.847 -0.0683 -0.0860  0.3845
  549MOL0     C74036   7.432   0.872   8.829 -0.0724  0.3205  0.4729
  549MOL0     C74037   7.512   0.758   8.853  0.3238 -1.1452 -0.3323
  549MOL0     O74038   7.488   0.627   8.832  0.4283  0.7567 -0.2747
  549MOL0     C74039   7.359   0.581   8.776  0.2661 -0.2402 -0.3075
  549MOL0     C74040   7.328   0.614   8.634  0.1200 -0.3950  1.7867
  549MOL0     C74041   7.436   0.668   8.533 -0.1204  0.2620 -0.6349
  549MOL0     C74042   7.560   0.575   8.524 -0.3739  0.7355 -0.5978
  549MOL0     C74043   7.655   0.609   8.423  0.3030 -0.2755  0.5060
  549MOL0     C74044   7.718   0.640   8.325  0.1911  0.4484 -0.6163
  549MOL0     C74045   7.638   0.781   8.915 -0.2333  0.1135  0.9537
  549MOL0     C74046   7.697   0.912   8.922  0.0098  0.4370  0.1497
  549MOL0     C74047   7.833   0.915   8.979 -0.1817  0.8426 -0.5323
  549MOL0     H74048   7.526   1.422   8.660 -1.7507  0.6966  2.0368
  549MOL0     H74049   7.627   1.640   8.606 -0.4256  1.8819  0.8970
  549MOL0     H74050   7.857   1.877   8.911  1.1759  1.2578  1.0668
  549MOL0     H74051   7.984   1.772   8.834  0.7749  1.5690  1.2233
  549MOL0     H74052   7.852   2.003   8.703  1.3268  2.1439 -0.8317
  549MOL0     H74053   7.997   1.919   8.647 -0.4324  2.4288 -0.5999
  549MOL0     H74054   8.060   2.011   8.901  0.5883 -0.8676  0.2389
  549MOL0     H74055   7.976   2.147   8.824  1.7657  0.5280  3.8025
  549MOL0     H74056   8.209   1.974   8.739  0.0354  0.0522  0.5380
  549MOL0     H74057   8.146   2.108   8.627 -0.4158  1.2191  1.4453
  549MOL0     H74058   8.307   2.146   8.882 -0.7809 -1.8139 -0.6085
  549MOL0     H74059   8.343   2.160   8.706  0.8482 -1.6978  1.3594
  549MOL0     H74060   8.170   2.343   8.689 -0.6629  0.6456  0.4018
  549MOL0     H74061   8.134   2.335   8.857 -2.8935  0.5871 -2.8481
  549MOL0     H74062   8.413   2.383   8.741 -0.4137 -0.5177 -0.7949
  549MOL0     H74063   8.365   2.360   8.913 -1.8975 -0.3746  0.6443
  549MOL0     H74064   8.267   2.585   8.740 -2.2156 -1.2966  0.6957
  549MOL0     H74065   8.255   2.569   8.915  0.3495  0.1837 -0.0088
  549MOL0     H74066   8.479   2.611   9.069  0.9644  0.1502  0.7211
  549MOL0     H74067   8.679   2.858   9.071 -0.4533 -0.2173 -1.2830
  549MOL0     H74068   8.713   2.699   9.138  3.1765  0.2427  1.1422
  549MOL0     H74069   8.892   2.672   8.945  0.9800  0.0050  1.1564
  549MOL0     H74070   8.838   2.839   8.899 -0.5953 -0.4727 -0.2362
  549MOL0     H74071   8.974   2.755   9.165  0.2195  0.0288  0.5273
  549MOL0     H74072   8.906   2.918   9.128  0.2951  0.3540 -0.7845
  549MOL0     H74073   9.099   2.804   8.933 -0.0869  1.1992  0.6487
  549MOL0     H74074   9.162   2.863   9.095 -1.4669 -2.5025  1.4670
  549MOL0     H74075   9.297   3.039   8.865 -0.0840  2.1102 -0.5857
  549MOL0     H74076   9.492   3.166   8.967 -0.8220  0.7770 -1.2407
  549MOL0     H74077   9.842   3.170   9.315 -4.4539 -0.7670 -0.1260
  549MOL0     H74078  10.023   3.299   9.424  2.5714 -0.5733 -3.0070
  549MOL0     H74079  10.154   3.722   9.460 -0.3694  1.9828 -1.8004
  549MOL0     H74080  10.031   3.753   9.342 -0.0537  1.7148  0.7148
  549MOL0     H74081   9.865   3.783   9.503 -2.3365 -2.3866  1.4536
  549MOL0     H74082   9.909   3.648   9.593 -1.9806  0.3529 -1.6522
  549MOL0     H74083   9.940   3.856   9.732 -1.5653 -1.4552 -0.1588
  549MOL0     H74084  10.103   3.788   9.700  0.1035  1.5683  1.0811
  549MOL0     H74085   9.948   4.009   9.554  0.6983  1.5173 -0.7797
  549MOL0     H74086  10.111   3.948   9.499 -1.6659 -2.4366  0.2811
  549MOL0     H74087  10.050   4.074   9.765  0.6331 -2.6146  0.4884
  549MOL0     H74088  10.097   4.174   9.621  2.6684 -0.1235 -2.5216
  549MOL0     H74089  10.273   3.945   9.735  0.4262  0.8309 -1.6996
  549MOL0     H74090  10.316   4.063   9.610  2.3094 -0.1941  0.6245
  549MOL0     H74091  10.255   4.118   9.919  1.8605  0.6126  1.2711
  549MOL0     H74092  10.276   4.237   9.807  0.9592  0.7105  2.5642
  549MOL0     H74093  10.481   4.017   9.881  3.2873 -0.0491 -2.9631
  549MOL0     H74094  10.511   4.149   9.766  0.1912  0.5528 -0.8396
  549MOL0     H74095   9.835   3.664   9.277 -0.2484  0.8874  0.4332
  549MOL0     H74096   9.659   3.532   9.172 -0.5032  0.3124 -0.2079
  549MOL0     H74097   9.254   3.244   9.313  0.9707  1.8855 -0.7770
  549MOL0     H74098   9.059   3.135   9.174 -0.7891 -1.0247  0.2642
  549MOL0     H74099   7.848   1.632   8.967 -0.0910 -0.6802  0.3795
  549MOL0     H74100   7.746   1.416   9.027 -0.3553  0.8057  1.4103
  549MOL0     H74101   7.421   1.085   8.813 -0.4819 -0.9140 -1.0013
  549MOL0     H74102   7.331   0.865   8.789  1.1354  0.8222 -3.1048
  549MOL0     H74103   7.276   0.618   8.837  2.2939 -0.5206  2.8369
  549MOL0     H74104   7.360   0.472   8.785 -1.5821 -0.1373  1.9994
  549MOL0     H74105   7.241   0.680   8.629  0.1342 -0.2974  2.7009
  549MOL0     H74106   7.296   0.519   8.587  0.7702  0.3828 -0.3677
  549MOL0     H74107   7.462   0.767   8.570  2.2486 -1.2045  1.9858
  549MOL0     H74108   7.400   0.684   8.431  0.8637 -0.1844 -1.0616
  549MOL0     H74109   7.617   0.574   8.618 -3.7678 -1.2927  1.6404
  549MOL0     H74110   7.522   0.475   8.505 -2.3541  1.1231  0.9907
  549MOL0     H74111   7.796   0.667   8.256  1.6074 -1.4403  0.1806
  549MOL0     H74112   7.695   0.696   8.951 -1.7253 -1.9487 -1.2185
  549MOL0     H74113   7.870   0.816   9.008 -2.0800  0.1293 -0.4360
  549MOL0     H74114   7.902   0.942   8.898  2.2784 -1.8097  0.4680
  549MOL0     H74115   7.843   0.991   9.057  2.5390  2.1243 -1.9953
  550MOL0     O74116   0.943   4.030   2.906  0.0864 -0.0769  0.3420
  550MOL0     C74117   0.904   4.097   2.811 -0.0553  0.1469  0.0310
  550MOL0     O74118   0.955   4.219   2.781 -0.3364  0.2433 -0.1928
  550MOL0     C74119   1.074   4.276   2.828  0.8173 -0.5072  0.3975
  550MOL0     C74120   1.169   4.225   2.914  0.1697 -0.4816  0.3216
  550MOL0     C74121   1.289   4.290   2.939 -0.4365  0.4071  0.1061
  550MOL0     C74122   1.316   4.416   2.883 -1.0152  0.3261  0.7232
  550MOL0     O74123   1.445   4.468   2.897 -0.0611 -0.2508 -0.7803
  550MOL0     C74124   1.461   4.610   2.867  0.3332 -0.0635  0.0927
  550MOL0     C74125   1.611   4.640   2.862  0.2065 -0.9600  0.0913
  550MOL0     C74126   1.657   4.652   3.013 -0.1242  0.2474  0.2817
  550MOL0     C74127   1.805   4.688   3.032 -0.8739  0.0269 -0.1333
  550MOL0     C74128   1.879   4.600   2.937 -0.1502 -1.0332 -1.3840
  550MOL0     C74129   2.030   4.617   2.966 -0.2861 -0.1417 -0.1258
  550MOL0     C74130   2.080   4.564   3.108 -0.4016 -0.0548  0.2562
  550MOL0     C74131   2.228   4.536   3.113 -0.0869  0.6690 -0.8138
  550MOL0     N74132   2.317   4.653   3.117  0.1611  0.2536 -0.0793
  550MOL0     C74133   2.450   4.651   3.100  0.3476  0.5210  1.1068
  550MOL0     C74134   2.491   4.786   3.112  0.3386 -0.8475  0.7234
  550MOL0     C74135   2.625   4.845   3.080  0.3510 -0.5924  0.3233
  550MOL0     C74136   2.650   4.865   2.936 -0.9198 -0.2935 -0.5234
  550MOL0     C74137   2.778   4.943   2.918 -0.6156 -0.0999 -0.4614
  550MOL0     C74138   2.904   4.874   2.946 -0.0698  0.6506  0.7114
  550MOL0     O74139   2.954   4.810   2.822  0.0524 -0.1858  0.2100
  550MOL0     C74140   3.090   4.800   2.824 -0.2438  0.2060 -0.4039
  550MOL0     C74141   3.171   4.798   2.942 -0.9599  0.1818 -0.0554
  550MOL0     C74142   3.310   4.815   2.930 -0.2853 -0.7173 -0.2400
  550MOL0     C74143   3.376   4.825   2.810 -0.6855  0.2233  1.4811
  550MOL0     C74144   3.526   4.825   2.799  1.5799 -1.1218  1.1741
  550MOL0     O74145   3.594   4.783   2.905  0.2403 -0.2571  0.5652
  550MOL0     C74146   3.728   4.793   2.897 -0.4649  0.5638 -0.6278
  550MOL0     C74147   3.788   4.672   2.908 -0.5138 -0.3967 -0.3607
  550MOL0     C74148   3.918   4.650   2.880 -0.4622 -0.2372  0.6777
  550MOL0     C74149   3.996   4.757   2.829 -0.0551  0.0320 -0.3617
  550MOL0     O74150   4.127   4.734   2.804  0.4297 -0.1565  0.1530
  550MOL0     C74151   4.218   4.842   2.823 -0.2701  0.9685  0.1595
  550MOL0     C74152   4.365   4.805   2.803  0.6255 -0.2976 -0.1192
  550MOL0     C74153   4.414   4.699   2.901  0.3781  0.6057  0.0493
  550MOL0     C74154   4.369   4.566   2.861 -0.6191  0.2630  0.1155
  550MOL0     C74155   4.433   4.474   2.968  1.3255 -0.3052 -0.0282
  550MOL0     C74156   4.429   4.330   2.923 -0.8702  0.7462  0.2100
  550MOL0     C74157   4.469   4.232   3.043  0.2694 -0.1237  0.2347
  550MOL0     C74158   4.363   4.192   3.146 -0.3633 -0.5542  1.2126
  550MOL0    Cl74159   4.429   4.179   3.313  0.3155  0.0284  0.5525
  550MOL0     C74160   3.932   4.879   2.816  0.0664  0.1225  0.0121
  550MOL0     C74161   3.801   4.901   2.851  0.2033 -0.2318  0.4465
  550MOL0     O74162   3.565   4.859   2.686  0.1467  0.3170 -0.2184
  550MOL0     C74163   3.296   4.829   2.699  0.8037  0.0053 -0.0680
  550MOL0     C74164   3.155   4.816   2.706  0.1329 -0.8046  0.8399
  550MOL0     N74165   2.374   4.863   3.130 -0.7687  1.4851  0.0015
  550MOL0     N74166   2.275   4.783   3.130 -0.2867 -0.8829  0.1507
  550MOL0     C74167   1.213   4.480   2.808  0.7990 -0.1741  0.1546
  550MOL0     C74168   1.098   4.410   2.776  0.3891  0.6248 -0.7821
  550MOL0     C74169   0.790   4.034   2.733  0.5815 -0.6819 -0.1316
  550MOL0     C74170   0.714   4.124   2.654  0.1994  0.1638  0.9450
  550MOL0     C74171   0.611   4.084   2.577 -0.0925  0.1990 -0.2621
  550MOL0     C74172   0.570   3.953   2.574  0.3016  0.2532 -0.3204
  550MOL0     O74173   0.457   3.942   2.500  0.3965  1.0016 -0.0343
  550MOL0     C74174   0.389   3.812   2.497 -0.0368  0.1006  0.3070
  550MOL0     C74175   0.236   3.842   2.510 -0.0441 -0.2163  1.3186
  550MOL0     C74176   0.173   3.899   2.382 -0.3097  0.2856  0.8987
  550MOL0     C74177   0.120   3.778   2.295  0.1487 -0.6957 -0.2349
  550MOL0     C74178   0.054   3.827   2.170  0.3093  1.2822 -0.5545
  550MOL0     C74179  -0.002   3.876   2.071  0.8591  0.0689  0.3138
  550MOL0     C74180   0.638   3.854   2.646 -0.1033 -0.4867 -0.0775
  550MOL0     C74181   0.749   3.893   2.726  0.1448  0.0998  0.3605
  550MOL0     C74182   0.803   3.778   2.799  0.2667 -0.2161  0.5236
  550MOL0     H74183   1.148   4.129   2.959 -1.7008 -0.2187  0.1287
  550MOL0     H74184   1.369   4.253   3.002 -0.4834 -0.8585 -0.5393
  550MOL0     H74185   1.419   4.625   2.767 -1.0105 -0.3715  0.5908
  550MOL0     H74186   1.399   4.672   2.932 -1.0347 -0.0518 -1.1488
  550MOL0     H74187   1.621   4.737   2.811  1.2467 -1.3016 -0.3806
  550MOL0     H74188   1.673   4.574   2.801 -0.1668  0.1866 -1.6180
  550MOL0     H74189   1.644   4.560   3.070  2.9856 -0.3830  0.1593
  550MOL0     H74190   1.603   4.735   3.061  0.8016  1.2655 -0.3858
  550MOL0     H74191   1.823   4.793   3.004 -0.0073  0.5811  2.2707
  550MOL0     H74192   1.834   4.671   3.136  0.2104  1.2899 -0.1978
  550MOL0     H74193   1.854   4.494   2.945  3.7170 -2.0307 -0.7790
  550MOL0     H74194   1.871   4.632   2.832  0.7203  0.3180 -1.0709
  550MOL0     H74195   2.087   4.572   2.884  1.0774 -0.9650  1.2093
  550MOL0     H74196   2.058   4.723   2.961  0.0282 -0.2631 -4.0390
  550MOL0     H74197   2.032   4.469   3.133  0.1051  0.0441  1.7027
  550MOL0     H74198   2.039   4.631   3.183  1.5409  1.3383  0.1258
  550MOL0     H74199   2.255   4.464   3.192  1.7045  0.1843 -1.7977
  550MOL0     H74200   2.251   4.483   3.020 -0.3598  1.0895 -1.1229
  550MOL0     H74201   2.508   4.562   3.080 -2.4147 -0.8614 -1.6418
  550MOL0     H74202   2.641   4.940   3.133 -0.9381 -0.9313  1.3631
  550MOL0     H74203   2.699   4.777   3.122  2.2176  0.8884 -0.4227
  550MOL0     H74204   2.657   4.768   2.887  1.6196 -0.3928 -0.0943
  550MOL0     H74205   2.565   4.920   2.895 -2.6374 -2.5356 -0.1569
  550MOL0     H74206   2.784   5.032   2.981  1.3468  1.9101 -3.2314
  550MOL0     H74207   2.780   4.990   2.819 -0.3346  2.7709  0.8107
  550MOL0     H74208   2.906   4.803   3.029  0.2776  1.9010  1.8123
  550MOL0     H74209   2.971   4.953   2.983 -1.7619  2.1715  0.6639
  550MOL0     H74210   3.122   4.779   3.037 -1.5077 -4.3916 -1.0180
  550MOL0     H74211   3.363   4.824   3.024 -3.2377  0.0305  1.5017
  550MOL0     H74212   3.719   4.592   2.931  0.1139 -0.8826 -0.1182
  550MOL0     H74213   3.963   4.552   2.888 -2.1297 -1.0899  0.0180
  550MOL0     H74214   4.197   4.918   2.746 -1.0738 -0.7636 -1.4269
  550MOL0     H74215   4.207   4.877   2.926 -1.2127 -1.4105  0.9395
  550MOL0     H74216   4.374   4.772   2.699 -4.3371 -0.0822 -0.8942
  550MOL0     H74217   4.422   4.897   2.814 -1.4351  1.1897 -1.1832
  550MOL0     H74218   4.523   4.703   2.907  0.3426  1.5127  0.1925
  550MOL0     H74219   4.377   4.719   3.002 -0.7663  0.1294 -0.2587
  550MOL0     H74220   4.407   4.539   2.762  0.6657 -2.8741  1.3354
  550MOL0     H74221   4.263   4.541   2.869 -0.8774  1.2224 -0.0732
  550MOL0     H74222   4.360   4.485   3.049 -1.2097  0.7927 -2.3131
  550MOL0     H74223   4.536   4.500   2.995  1.6740  0.8529 -2.2292
  550MOL0     H74224   4.332   4.301   2.881 -0.3730 -2.0347  0.7340
  550MOL0     H74225   4.494   4.323   2.835 -1.7183 -1.2603 -0.3286
  550MOL0     H74226   4.556   4.277   3.092 -0.2581 -0.3108  1.3859
  550MOL0     H74227   4.504   4.138   3.000 -1.2945  0.0627 -1.5653
  550MOL0     H74228   4.270   4.248   3.143 -1.6081 -2.5791  0.0357
  550MOL0     H74229   4.326   4.091   3.122  1.8176 -1.1562  0.0995
  550MOL0     H74230   3.992   4.967   2.797 -0.2550 -0.1213 -2.3584
  550MOL0     H74231   3.751   4.992   2.820  0.1967  0.6020  2.7341
  550MOL0     H74232   3.335   4.849   2.600 -1.0679  1.5186 -0.5445
  550MOL0     H74233   3.094   4.837   2.618  0.8926  1.4149  0.7682
  550MOL0     H74234   1.212   4.584   2.779  0.8747  0.2646  1.6535
  550MOL0     H74235   1.035   4.465   2.707 -0.8047 -0.5637 -0.6739
  550MOL0     H74236   0.738   4.230   2.657 -3.1107  1.0012  2.6407
  550MOL0     H74237   0.552   4.150   2.515 -0.5277  0.2784  0.2337
  550MOL0     H74238   0.407   3.748   2.584 -1.8192  1.1959  1.5461
  550MOL0     H74239   0.402   3.756   2.404 -4.1122  3.1655 -2.4648
  550MOL0     H74240   0.235   3.933   2.571  0.1380  2.0227 -1.8014
  550MOL0     H74241   0.179   3.761   2.556 -0.9878 -0.4661 -0.2243
  550MOL0     H74242   0.242   3.962   2.326 -0.1281 -0.6980 -0.0220
  550MOL0     H74243   0.094   3.966   2.417 -0.0383  0.7934  0.5610
  550MOL0     H74244   0.205   3.713   2.274 -0.5572 -2.4065  1.8006
  550MOL0     H74245   0.044   3.720   2.349  1.0772 -1.7262 -0.0028
  550MOL0     H74246  -0.059   3.920   1.992  1.0668  0.7166  0.5095
  550MOL0     H74247   0.606   3.751   2.640  2.0610 -1.1975 -0.2049
  550MOL0     H74248   0.868   3.814   2.880  0.3821  2.5368 -0.6721
  550MOL0     H74249   0.715   3.722   2.833 -0.0738 -0.3656 -0.5456
  550MOL0     H74250   0.868   3.716   2.737  0.0103 -0.3965  0.4298
  551MOL0     O74251  10.813   1.737   8.070 -0.2887  1.1364  1.2896
  551MOL0     C74252  10.779   1.655   7.982  0.3614 -0.4372 -0.5849
  551MOL0     O74253  10.853   1.611   7.881  0.3425 -0.1562 -0.8994
  551MOL0     C74254  10.976   1.659   7.853 -0.3183 -0.6549 -0.7182
  551MOL0     C74255  11.013   1.795   7.866 -0.2225  0.4518 -0.0521
  551MOL0     C74256  11.145   1.826   7.828  0.4698  0.4960  1.2547
  551MOL0     C74257  11.234   1.740   7.775  0.2738 -0.0014 -0.4805
  551MOL0     O74258  11.359   1.766   7.727 -0.5572 -0.0375  0.8293
  551MOL0     C74259  11.384   1.906   7.683 -0.1030  0.0611  0.0936
  551MOL0     C74260  11.526   1.899   7.639 -0.6322 -0.2990  0.4769
  551MOL0     C74261  11.595   2.035   7.602  0.3131  0.2468  0.5149
  551MOL0     C74262  11.745   2.008   7.574  0.2146 -0.2864 -0.0005
  551MOL0     C74263  11.815   2.140   7.543 -0.6025  0.4835  0.5745
  551MOL0     C74264  11.966   2.105   7.507  1.4476 -0.2056 -0.1409
  551MOL0     C74265  12.025   2.227   7.451  0.3558  0.0016  0.4471
  551MOL0     C74266  12.022   2.349   7.542  0.1910 -0.0228 -0.2909
  551MOL0     N74267  12.067   2.463   7.468 -0.9012  0.4083  0.2120
  551MOL0     C74268  12.195   2.480   7.417 -0.2847 -0.4279 -0.7067
  551MOL0     C74269  12.186   2.590   7.342  0.1154 -0.0350 -0.5604
  551MOL0     C74270  12.297   2.641   7.266  0.0639 -0.1581  0.6056
  551MOL0     C74271  12.288   2.594   7.119  0.1200 -0.0075  0.2035
  551MOL0     C74272  12.385   2.671   7.027  0.7709  1.1223  0.1450
  551MOL0     C74273  12.533   2.634   7.058  0.3081  0.1663  1.1131
  551MOL0     O74274  12.577   2.716   7.159 -0.1801  0.8979 -0.1112
  551MOL0     C74275  12.697   2.675   7.221 -0.3931  0.4830  0.4809
  551MOL0     C74276  12.805   2.763   7.219  0.0746 -0.5460 -0.0930
  551MOL0     C74277  12.924   2.734   7.276 -0.5978  0.1334  0.6168
  551MOL0     C74278  12.938   2.611   7.346  0.3850  0.4405  0.2590
  551MOL0     C74279  13.074   2.570   7.397 -0.1761  0.0769 -0.3244
  551MOL0     O74280  13.175   2.661   7.369  0.3836  0.3324 -0.2705
  551MOL0     C74281  13.301   2.659   7.419 -0.1972 -0.5024 -0.0250
  551MOL0     C74282  13.322   2.632   7.554  0.4002  0.1107  0.4489
  551MOL0     C74283  13.450   2.619   7.598  0.7567  0.4611 -0.2293
  551MOL0     C74284  13.559   2.661   7.523  0.5163  0.0863 -0.4800
  551MOL0     O74285  13.680   2.663   7.590  0.2280 -0.3171 -0.6037
  551MOL0     C74286  13.780   2.742   7.530 -0.5363  0.2912 -0.5722
  551MOL0     C74287  13.863   2.786   7.644 -0.5943 -0.5117  0.2046
  551MOL0     C74288  13.989   2.857   7.586  0.9118  0.0400  0.7452
  551MOL0     C74289  14.110   2.853   7.676  0.4107  0.0802  0.7485
  551MOL0     C74290  14.245   2.883   7.600 -0.9498 -0.4383 -0.2226
  551MOL0     C74291  14.367   2.865   7.692  0.1932 -0.3018 -0.4276
  551MOL0     C74292  14.498   2.934   7.644 -0.6439  0.8617 -0.7452
  551MOL0     C74293  14.620   2.876   7.719 -0.0859 -0.8359 -0.2421
  551MOL0    Cl74294  14.654   2.708   7.667 -0.1014  0.1079  0.5045
  551MOL0     C74295  13.537   2.712   7.397 -0.0439  0.6947  1.0807
  551MOL0     C74296  13.407   2.712   7.348  0.4444  0.6917  0.3821
  551MOL0     O74297  13.085   2.472   7.469  0.9915  0.1477  0.3299
  551MOL0     C74298  12.830   2.522   7.351  0.2309  0.4123  0.5199
  551MOL0     C74299  12.709   2.550   7.290 -0.4642  0.0964 -0.7822
  551MOL0     N74300  12.060   2.635   7.348  0.1204 -0.0658 -0.3824
  551MOL0     N74301  11.987   2.561   7.426 -0.3119 -0.1677  0.2612
  551MOL0     C74302  11.188   1.613   7.751 -1.0282  0.6497 -0.4649
  551MOL0     C74303  11.057   1.571   7.795  0.6134 -0.3688 -0.2859
  551MOL0     C74304  10.637   1.596   7.986 -0.2664  0.0676 -0.2987
  551MOL0     C74305  10.560   1.630   8.101 -0.8672  0.1588 -0.3529
  551MOL0     C74306  10.430   1.579   8.126 -0.4864  0.9919  1.1117
  551MOL0     C74307  10.367   1.494   8.026 -0.4505  0.2914 -0.6967
  551MOL0     O74308  10.240   1.447   8.028 -0.0448 -0.1360  0.2904
  551MOL0     C74309  10.166   1.451   8.144  1.2632  0.5978 -0.4828
  551MOL0     C74310  10.090   1.582   8.136  0.1972 -0.0958 -0.6175
  551MOL0     C74311  10.012   1.594   8.268 -0.2522  0.3177  0.2443
  551MOL0     C74312   9.922   1.721   8.276 -0.7709  1.0977  0.1841
  551MOL0     C74313   9.806   1.710   8.190  0.3086  0.1109  0.3720
  551MOL0     C74314   9.717   1.698   8.110  0.2343 -0.3189  1.0028
  551MOL0     C74315  10.439   1.461   7.909  1.3512 -0.0775 -0.5873
  551MOL0     C74316  10.573   1.500   7.900  0.1750  0.0594  0.6952
  551MOL0     C74317  10.644   1.419   7.788 -0.0645 -0.8083 -0.7684
  551MOL0     H74318  10.942   1.871   7.897 -0.2093  1.3544 -2.0300
  551MOL0     H74319  11.172   1.931   7.837  0.5628  0.4536  1.4830
  551MOL0     H74320  11.324   1.946   7.601 -0.4173  0.3243  0.4488
  551MOL0     H74321  11.366   1.975   7.765 -0.6357  1.8189 -1.4284
  551MOL0     H74322  11.528   1.831   7.554 -0.1308 -0.6817  0.7864
  551MOL0     H74323  11.593   1.858   7.716 -1.2095 -1.6834  0.2716
  551MOL0     H74324  11.581   2.119   7.670  3.2230  0.0763  1.4433
  551MOL0     H74325  11.543   2.063   7.509 -2.4239  0.9094  2.1352
  551MOL0     H74326  11.799   1.965   7.660  2.5835  0.9468 -0.7896
  551MOL0     H74327  11.751   1.931   7.497 -1.5685 -2.3996  1.8094
  551MOL0     H74328  11.758   2.188   7.463  0.7190  0.2204 -0.5644
  551MOL0     H74329  11.813   2.201   7.633 -0.3381  0.6446  0.4709
  551MOL0     H74330  12.019   2.090   7.601  0.2799  1.4117  0.8424
  551MOL0     H74331  11.971   2.018   7.441 -2.2798 -2.8509  2.6087
  551MOL0     H74332  11.966   2.257   7.364 -0.9759  0.1436  1.3720
  551MOL0     H74333  12.133   2.215   7.435 -0.0942 -2.2138 -1.6905
  551MOL0     H74334  11.924   2.377   7.581  0.2986  1.9876 -1.3403
  551MOL0     H74335  12.083   2.341   7.633 -0.1262  3.4399  0.3763
  551MOL0     H74336  12.279   2.414   7.435 -0.7180 -0.4980  1.3216
  551MOL0     H74337  12.303   2.750   7.262  1.3487 -0.2136  0.7724
  551MOL0     H74338  12.387   2.597   7.311  0.1105  0.0852  0.7528
  551MOL0     H74339  12.303   2.486   7.111  0.3985  0.1233 -1.2711
  551MOL0     H74340  12.188   2.620   7.083  0.6573 -0.3819 -1.6289
  551MOL0     H74341  12.371   2.778   7.036 -0.5121  1.0444 -0.7164
  551MOL0     H74342  12.369   2.639   6.923 -1.6570  0.8761  0.5445
  551MOL0     H74343  12.600   2.650   6.973  0.6831 -1.9843  0.9484
  551MOL0     H74344  12.536   2.526   7.077 -0.1537  0.3227  2.1179
  551MOL0     H74345  12.797   2.857   7.164  1.9733 -0.5560 -0.4551
  551MOL0     H74346  13.009   2.800   7.261  0.9457 -1.2507  2.7813
  551MOL0     H74347  13.236   2.602   7.612  2.7840 -2.7235  2.8386
  551MOL0     H74348  13.474   2.604   7.703  1.2763  2.4153 -0.0386
  551MOL0     H74349  13.836   2.677   7.461  1.6060  0.4312  0.9422
  551MOL0     H74350  13.742   2.832   7.480  0.5547  2.6358  2.5201
  551MOL0     H74351  13.810   2.861   7.704 -0.5686  1.7917 -2.4721
  551MOL0     H74352  13.900   2.707   7.711  3.6318  1.7700  0.9141
  551MOL0     H74353  14.021   2.821   7.488 -0.1091 -2.8757  1.3858
  551MOL0     H74354  13.958   2.959   7.561 -1.9683 -1.2195 -1.3090
  551MOL0     H74355  14.113   2.750   7.712 -2.7334 -1.3730 -2.4954
  551MOL0     H74356  14.093   2.926   7.756 -2.3516  1.3543 -0.8405
  551MOL0     H74357  14.251   2.987   7.567  1.6115 -0.9623 -1.6378
  551MOL0     H74358  14.246   2.827   7.507  1.2650  2.6125 -2.2232
  551MOL0     H74359  14.342   2.903   7.791 -1.1456 -0.3340 -0.7325
  551MOL0     H74360  14.369   2.757   7.705 -2.9191 -0.4389 -0.2932
  551MOL0     H74361  14.495   3.040   7.671 -2.2913  0.5562  0.4321
  551MOL0     H74362  14.521   2.918   7.539  1.2361 -1.8577 -0.0403
  551MOL0     H74363  14.713   2.928   7.693 -1.0597  1.3449  0.5021
  551MOL0     H74364  14.610   2.882   7.828 -0.1959  2.5732 -0.3392
  551MOL0     H74365  13.617   2.749   7.334 -1.3488  0.8464 -0.5478
  551MOL0     H74366  13.387   2.771   7.258 -2.4167  1.2608  1.2848
  551MOL0     H74367  12.822   2.431   7.410 -2.1675  0.6115  0.5968
  551MOL0     H74368  12.629   2.477   7.299  0.1256 -0.4173  0.5859
  551MOL0     H74369  11.256   1.548   7.697 -1.6376 -2.6389  2.4027
  551MOL0     H74370  11.027   1.466   7.794 -0.2741 -0.1235 -0.1718
  551MOL0     H74371  10.597   1.705   8.170 -3.2766 -1.4982  2.9921
  551MOL0     H74372  10.378   1.623   8.212  1.3215  3.0670  1.2410
  551MOL0     H74373  10.231   1.438   8.230  1.3884  0.1735 -0.6398
  551MOL0     H74374  10.091   1.372   8.148 -0.8716  2.3728 -2.4977
  551MOL0     H74375  10.028   1.577   8.046 -0.5565 -1.7878 -0.0401
  551MOL0     H74376  10.160   1.666   8.124 -0.6797  0.5086 -1.6462
  551MOL0     H74377  10.080   1.594   8.353  0.5401 -0.4777 -0.3729
  551MOL0     H74378   9.946   1.507   8.278 -0.8563  0.6162 -0.9769
  551MOL0     H74379   9.891   1.720   8.381  0.1631  1.0183  0.4652
  551MOL0     H74380   9.972   1.818   8.267  0.7855  0.2932 -0.2230
  551MOL0     H74381   9.637   1.681   8.040  0.4141 -2.5871  1.2670
  551MOL0     H74382  10.388   1.389   7.846  0.1425 -2.0530  2.4441
  551MOL0     H74383  10.635   1.477   7.695  0.0270 -0.2410 -0.4266
  551MOL0     H74384  10.748   1.394   7.813 -0.5903 -0.8585  1.5552
  551MOL0     H74385  10.593   1.323   7.777 -1.9480  0.2980 -2.3671
  552MOL0     O74386   7.222   4.546   3.882  0.4001 -0.0048 -0.1880
  552MOL0     C74387   7.217   4.517   3.999 -0.1039  0.5765 -0.7999
  552MOL0     O74388   7.318   4.517   4.087 -0.0513  0.3065 -0.6970
  552MOL0     C74389   7.443   4.516   4.036 -1.4074 -0.0439  0.3606
  552MOL0     C74390   7.534   4.602   4.095 -0.9244  0.3030  0.2775
  552MOL0     C74391   7.659   4.606   4.035  0.0146 -0.9073 -0.0186
  552MOL0     C74392   7.702   4.528   3.923  0.4777  0.5878 -0.1034
  552MOL0     O74393   7.817   4.548   3.858 -0.0702 -0.3177  0.3561
  552MOL0     C74394   7.918   4.640   3.896 -0.0931 -0.2317 -0.8577
  552MOL0     C74395   8.052   4.610   3.828  0.4382  0.2282  0.0673
  552MOL0     C74396   8.041   4.622   3.669 -0.2890  0.6662  0.0305
  552MOL0     C74397   8.175   4.612   3.604  0.1033  0.4203  0.2163
  552MOL0     C74398   8.167   4.585   3.450  0.4832 -0.3592  0.5319
  552MOL0     C74399   8.308   4.542   3.397 -0.1326 -0.2264  0.5071
  552MOL0     C74400   8.309   4.542   3.245  0.4788 -0.8377  0.0632
  552MOL0     C74401   8.442   4.508   3.172 -0.4764  0.2696  0.1044
  552MOL0     N74402   8.555   4.589   3.204 -0.1620  0.3930 -0.1691
  552MOL0     C74403   8.559   4.726   3.180 -0.4275 -1.2527 -0.3210
  552MOL0     C74404   8.665   4.769   3.253 -0.2955  0.1265 -0.6324
  552MOL0     C74405   8.709   4.914   3.271  0.2287 -1.1553  0.2491
  552MOL0     C74406   8.737   4.980   3.132  0.6664 -0.1415  0.1389
  552MOL0     C74407   8.843   4.915   3.047 -0.6772  0.8254  0.0896
  552MOL0     C74408   8.986   4.986   3.076  0.1100  0.4032 -0.8659
  552MOL0     O74409   9.082   4.889   3.044 -0.4612 -0.5180 -0.3777
  552MOL0     C74410   9.208   4.902   3.089 -0.3748  0.5244  0.3480
  552MOL0     C74411   9.283   5.015   3.104 -0.6599  0.0546  0.5111
  552MOL0     C74412   9.421   5.010   3.146  0.8410 -0.3723  0.2530
  552MOL0     C74413   9.477   4.890   3.198  0.4426  0.4543 -0.4520
  552MOL0     C74414   9.618   4.878   3.250  0.3791  0.1536  0.4958
  552MOL0     O74415   9.651   4.752   3.286  0.0961  0.2931 -0.1424
  552MOL0     C74416   9.783   4.732   3.323  0.0863 -0.2879  0.4043
  552MOL0     C74417   9.883   4.747   3.229 -0.0716 -0.6441 -0.1834
  552MOL0     C74418  10.014   4.714   3.255  0.5192 -0.5943  0.0121
  552MOL0     C74419  10.050   4.664   3.373 -0.5306 -0.5391  0.2157
  552MOL0     O74420  10.189   4.640   3.394 -0.0513  0.7612  0.0462
  552MOL0     C74421  10.217   4.537   3.489 -0.9146  0.0624 -0.5376
  552MOL0     C74422  10.378   4.509   3.497 -0.2903 -0.3254 -0.3491
  552MOL0     C74423  10.454   4.621   3.558  0.0343 -0.9474  0.1746
  552MOL0     C74424  10.603   4.596   3.554  0.9670  0.3741 -0.6574
  552MOL0     C74425  10.675   4.595   3.411  1.0045 -0.7891 -0.4263
  552MOL0     C74426  10.825   4.572   3.418 -0.2455 -0.0848  0.2969
  552MOL0     C74427  10.910   4.638   3.534  0.1881  0.2638 -0.6718
  552MOL0     C74428  10.883   4.785   3.530  0.6458  0.3620  0.2685
  552MOL0    Cl74429  10.940   4.852   3.371 -0.0845  0.0524  0.3842
  552MOL0     C74430   9.954   4.624   3.461  0.5676 -0.6818  0.7694
  552MOL0     C74431   9.816   4.669   3.440 -0.5666  0.2566 -0.0886
  552MOL0     O74432   9.684   4.978   3.287  0.3862  0.0316 -0.0543
  552MOL0     C74433   9.394   4.772   3.187  0.4641 -0.0752 -0.4161
  552MOL0     C74434   9.270   4.784   3.131 -0.4152  0.2958  0.2445
  552MOL0     N74435   8.736   4.661   3.299  0.4691  0.2928  0.0540
  552MOL0     N74436   8.674   4.557   3.255 -0.3673  0.3287 -0.3324
  552MOL0     C74437   7.614   4.442   3.878  0.0171 -0.0748  0.4612
  552MOL0     C74438   7.486   4.431   3.930 -0.5266  0.9854 -0.0628
  552MOL0     C74439   7.080   4.504   4.062  0.4304  0.9274 -0.1674
  552MOL0     C74440   6.978   4.451   3.981  0.1754  0.4729  0.7078
  552MOL0     C74441   6.859   4.412   4.039 -0.5849 -0.8283 -0.6232
  552MOL0     C74442   6.831   4.441   4.177  0.5955  0.6412  0.6280
  552MOL0     O74443   6.712   4.403   4.236 -0.5328 -0.3427 -0.2467
  552MOL0     C74444   6.649   4.487   4.338 -0.0012  0.5365 -0.0480
  552MOL0     C74445   6.498   4.490   4.325  0.0568 -0.0677 -0.4000
  552MOL0     C74446   6.420   4.353   4.310  0.3430  0.1675  0.8636
  552MOL0     C74447   6.265   4.378   4.298  0.3085 -0.5262  0.2545
  552MOL0     C74448   6.203   4.245   4.310 -0.4113 -0.7143 -0.3864
  552MOL0     C74449   6.168   4.138   4.335 -0.3043  0.1778 -0.3390
  552MOL0     C74450   6.928   4.500   4.254  0.0401  0.4457 -0.1294
  552MOL0     C74451   7.052   4.529   4.200 -0.4758 -0.1179  0.0641
  552MOL0     C74452   7.148   4.603   4.297 -0.4120 -0.0495  0.1604
  552MOL0     H74453   7.493   4.660   4.178  0.4441  2.7142 -0.6367
  552MOL0     H74454   7.735   4.670   4.079 -2.3321  2.3807 -0.4143
  552MOL0     H74455   7.864   4.733   3.874 -1.3520  0.6662  4.5047
  552MOL0     H74456   7.943   4.637   4.002 -2.6758  1.2263 -0.1122
  552MOL0     H74457   8.074   4.507   3.860 -2.9358 -1.0552 -1.2869
  552MOL0     H74458   8.124   4.681   3.870 -1.2959  2.2258 -0.1594
  552MOL0     H74459   7.999   4.717   3.633  0.8733  0.8607 -0.8735
  552MOL0     H74460   7.985   4.533   3.639  2.8548 -2.2548  2.1238
  552MOL0     H74461   8.223   4.710   3.613 -0.3118  0.4466  2.9376
  552MOL0     H74462   8.242   4.541   3.653  0.9909 -0.0161 -1.5568
  552MOL0     H74463   8.100   4.502   3.426 -1.2496  0.8835  0.8920
  552MOL0     H74464   8.128   4.674   3.400  1.5065  1.5072  2.8264
  552MOL0     H74465   8.376   4.619   3.434  0.2014 -0.7698  1.0514
  552MOL0     H74466   8.347   4.452   3.445  1.4409 -0.3807 -0.9760
  552MOL0     H74467   8.273   4.640   3.212  2.1086 -0.7588 -1.6688
  552MOL0     H74468   8.236   4.469   3.209 -0.2821  0.8406 -2.0433
  552MOL0     H74469   8.467   4.403   3.192  2.0690  0.9014  0.6258
  552MOL0     H74470   8.420   4.518   3.065 -3.8672  2.7463  0.8542
  552MOL0     H74471   8.486   4.785   3.126  0.7297 -0.2944 -0.8786
  552MOL0     H74472   8.647   4.974   3.339  2.1353  3.0906 -1.4063
  552MOL0     H74473   8.803   4.920   3.326  0.2622 -0.4559  0.1308
  552MOL0     H74474   8.641   4.971   3.079  0.0359 -1.2988  1.4260
  552MOL0     H74475   8.751   5.088   3.139 -0.9730  0.0535  1.0118
  552MOL0     H74476   8.820   4.938   2.942  1.3701  0.6386 -0.4364
  552MOL0     H74477   8.850   4.807   3.060  2.1500  0.8808 -0.2573
  552MOL0     H74478   8.989   5.019   3.180  1.4223 -1.8999 -0.1099
  552MOL0     H74479   8.995   5.077   3.015 -1.3908  0.9380 -0.3382
  552MOL0     H74480   9.249   5.116   3.082  0.5112  0.4164  0.2654
  552MOL0     H74481   9.489   5.094   3.140  1.0082 -0.5601 -5.2576
  552MOL0     H74482   9.863   4.771   3.125  2.8262 -0.4892 -0.7911
  552MOL0     H74483  10.080   4.734   3.171  0.6017 -2.0451 -0.2935
  552MOL0     H74484  10.185   4.554   3.592  1.7128 -0.6429  0.4849
  552MOL0     H74485  10.165   4.451   3.447 -0.4867 -0.0652 -0.8066
  552MOL0     H74486  10.388   4.419   3.558 -1.0155  0.8054  1.5179
  552MOL0     H74487  10.423   4.488   3.399  2.3989  0.4573  0.6349
  552MOL0     H74488  10.429   4.710   3.500  2.1106  0.1318  0.8239
  552MOL0     H74489  10.418   4.632   3.661  2.0464  3.0340  0.6424
  552MOL0     H74490  10.616   4.498   3.600  0.9534  0.0355 -1.3688
  552MOL0     H74491  10.631   4.678   3.621  0.6333  2.2023 -2.6312
  552MOL0     H74492  10.674   4.691   3.359  2.1870 -1.2398 -1.3667
  552MOL0     H74493  10.627   4.520   3.347 -0.4331 -0.8959  0.7530
  552MOL0     H74494  10.841   4.464   3.424 -0.0455  0.0191  1.9821
  552MOL0     H74495  10.875   4.607   3.326 -1.1319  0.4143 -0.0021
  552MOL0     H74496  11.016   4.610   3.532 -0.0552 -1.2223  1.7821
  552MOL0     H74497  10.869   4.585   3.621  1.1578 -0.9414 -0.9113
  552MOL0     H74498  10.781   4.814   3.557  0.6855  1.9804 -1.1522
  552MOL0     H74499  10.949   4.831   3.605  1.9452  3.0769 -2.3211
  552MOL0     H74500   9.968   4.578   3.558 -1.3127  0.3302  1.5782
  552MOL0     H74501   9.736   4.634   3.506 -2.5314  0.7710 -2.0750
  552MOL0     H74502   9.423   4.670   3.211  0.3352 -1.0752 -3.9270
  552MOL0     H74503   9.203   4.699   3.139  1.7912 -1.6285 -0.7178
  552MOL0     H74504   7.638   4.384   3.790 -0.6268  1.5375 -0.8287
  552MOL0     H74505   7.417   4.361   3.884  1.0487 -1.4750  1.0984
  552MOL0     H74506   6.989   4.441   3.874 -0.7810  3.2120  0.2683
  552MOL0     H74507   6.778   4.377   3.974 -3.1103  0.5354  1.5855
  552MOL0     H74508   6.673   4.590   4.311  0.8552  0.0934 -1.0892
  552MOL0     H74509   6.673   4.468   4.443 -0.9554  1.1775  0.2955
  552MOL0     H74510   6.459   4.555   4.246  0.0257  1.0461  0.5215
  552MOL0     H74511   6.460   4.533   4.418 -1.8002  1.3028 -1.7092
  552MOL0     H74512   6.452   4.293   4.396  1.1284 -1.8803 -0.7738
  552MOL0     H74513   6.461   4.294   4.228 -2.9149 -2.0962  0.6403
  552MOL0     H74514   6.238   4.454   4.373 -2.5908 -1.8527  0.6845
  552MOL0     H74515   6.241   4.422   4.201 -4.0605 -1.4586  0.6824
  552MOL0     H74516   6.142   4.035   4.346  1.4284 -0.2056  0.4106
  552MOL0     H74517   6.905   4.530   4.356  0.9491  0.6413  0.0313
  552MOL0     H74518   7.217   4.668   4.242 -0.6680  0.5996  0.5920
  552MOL0     H74519   7.098   4.677   4.360 -2.2900 -0.8707 -0.3103
  552MOL0     H74520   7.202   4.536   4.365  3.8496  2.3345 -0.5081
  553MOL0     O74521   0.617   8.507   3.291  0.7054 -0.0425 -0.0686
  553MOL0     C74522   0.585   8.623   3.335 -0.2016  0.5795 -0.4563
  553MOL0     O74523   0.552   8.732   3.256  1.0059 -0.8639  0.0619
  553MOL0     C74524   0.537   8.716   3.118  0.7375  0.9226  0.0460
  553MOL0     C74525   0.474   8.609   3.050 -0.1352 -0.0184 -0.3481
  553MOL0     C74526   0.451   8.615   2.914  0.4177 -0.2548 -0.2837
  553MOL0     C74527   0.496   8.735   2.847 -0.1242 -0.1141 -0.0251
  553MOL0     O74528   0.491   8.737   2.711  0.0484  0.1774 -0.6827
  553MOL0     C74529   0.432   8.623   2.643  0.1097 -0.1191 -0.0737
  553MOL0     C74530   0.434   8.644   2.497  0.3634 -0.3816  1.0305
  553MOL0     C74531   0.574   8.667   2.437 -0.3804  0.1933 -0.8996
  553MOL0     C74532   0.666   8.542   2.430 -0.4957 -0.2509 -0.1908
  553MOL0     C74533   0.802   8.570   2.377  0.0047 -0.0813  0.0947
  553MOL0     C74534   0.882   8.434   2.396 -0.0303 -0.2166  0.0427
  553MOL0     C74535   1.005   8.429   2.305  0.6196  0.5748 -0.6543
  553MOL0     C74536   1.075   8.286   2.298 -0.5113  0.8234  0.6963
  553MOL0     N74537   0.984   8.183   2.247 -0.0925 -0.2166 -0.2562
  553MOL0     C74538   0.919   8.184   2.128 -0.1748 -0.0763 -0.0038
  553MOL0     C74539   0.899   8.051   2.095  0.1260  0.0881  1.0113
  553MOL0     C74540   0.890   7.998   1.955 -0.2468  0.1696  0.6140
  553MOL0     C74541   1.026   7.939   1.914 -0.2239 -0.3945 -0.0917
  553MOL0     C74542   1.140   8.035   1.935  0.3786  0.6873 -0.6374
  553MOL0     C74543   1.268   7.968   1.865 -1.0732  0.0063 -0.3039
  553MOL0     O74544   1.375   8.063   1.893 -0.2113  0.5351  0.2182
  553MOL0     C74545   1.494   8.033   1.834  0.5547 -0.0729 -0.4324
  553MOL0     C74546   1.607   8.089   1.892 -0.2450 -0.1077 -0.3142
  553MOL0     C74547   1.745   8.069   1.838 -0.5920  0.3082 -0.0950
  553MOL0     C74548   1.769   7.999   1.722 -0.1019 -0.0247 -0.5346
  553MOL0     C74549   1.903   7.982   1.661  0.3278 -0.0190 -0.1681
  553MOL0     O74550   2.004   8.058   1.710  0.5569 -1.1284  0.1196
  553MOL0     C74551   2.131   8.060   1.661  0.0651 -0.2245 -0.8680
  553MOL0     C74552   2.187   7.973   1.570 -0.4151  0.5580  0.5244
  553MOL0     C74553   2.316   7.996   1.515 -0.2160 -0.9169 -0.0557
  553MOL0     C74554   2.397   8.101   1.561 -0.3381  0.4558 -0.4007
  553MOL0     O74555   2.532   8.130   1.521  0.0045 -0.1168 -0.5459
  553MOL0     C74556   2.568   8.076   1.402 -0.0451 -0.1417 -0.0305
  553MOL0     C74557   2.714   8.119   1.378  0.1600  0.2247 -0.4068
  553MOL0     C74558   2.775   8.057   1.252  0.4328  0.5422  0.6348
  553MOL0     C74559   2.914   8.111   1.204 -0.5375  0.1141  0.1146
  553MOL0     C74560   2.965   8.017   1.088  1.2241  0.1605 -1.1598
  553MOL0     C74561   3.072   8.084   0.996  0.4265  0.4525  0.3493
  553MOL0     C74562   3.200   8.123   1.079  0.3291  0.2493  0.2803
  553MOL0     C74563   3.308   8.171   0.992  1.2083  0.0165  0.3723
  553MOL0    Cl74564   3.270   8.332   0.935  0.0883  0.2112  0.2247
  553MOL0     C74565   2.337   8.181   1.660 -0.3171 -0.5116 -0.7310
  553MOL0     C74566   2.206   8.164   1.709  0.0081 -0.0877 -0.0312
  553MOL0     O74567   1.910   7.903   1.571  0.0693  0.4782 -0.2760
  553MOL0     C74568   1.658   7.941   1.661 -0.1050  0.9751  0.1364
  553MOL0     C74569   1.525   7.971   1.711 -0.3222 -0.1282 -0.3146
  553MOL0     N74570   0.922   7.976   2.203 -0.0739  1.0962 -0.3185
  553MOL0     N74571   0.978   8.054   2.294  0.0995 -0.1503  0.3448
  553MOL0     C74572   0.553   8.839   2.914  0.1641 -0.7933  0.7467
  553MOL0     C74573   0.578   8.827   3.044 -0.1007  0.3557 -0.6345
  553MOL0     C74574   0.559   8.640   3.488  0.4440 -0.0066  0.2907
  553MOL0     C74575   0.474   8.751   3.526  0.0709 -0.7283 -0.8628
  553MOL0     C74576   0.444   8.774   3.661  0.0967  0.2978  0.8992
  553MOL0     C74577   0.491   8.682   3.760  0.6302 -0.3015 -0.0234
  553MOL0     O74578   0.453   8.717   3.883  0.3151 -0.9726 -0.5821
  553MOL0     C74579   0.484   8.636   3.994 -0.4832  0.0343 -0.4423
  553MOL0     C74580   0.367   8.533   4.001  1.3788  0.1151 -0.1320
  553MOL0     C74581   0.243   8.611   4.058 -0.2261 -0.3545  1.0060
  553MOL0     C74582   0.115   8.523   4.058  0.4293  0.2700 -0.3076
  553MOL0     C74583   0.130   8.397   4.134  0.7265 -0.6976  0.8514
  553MOL0     C74584   0.125   8.295   4.179  0.1782  0.3092 -1.4572
  553MOL0     C74585   0.579   8.581   3.719  0.3190 -0.0662 -0.0539
  553MOL0     C74586   0.605   8.555   3.588 -0.0681  0.0017  0.3053
  553MOL0     C74587   0.688   8.432   3.560 -0.1079  0.1019  0.4586
  553MOL0     H74588   0.431   8.525   3.104  0.8726  0.1083  0.7006
  553MOL0     H74589   0.406   8.531   2.862  0.1307  0.3441 -1.0258
  553MOL0     H74590   0.494   8.536   2.667 -3.7076 -2.8591  0.7533
  553MOL0     H74591   0.328   8.610   2.675 -0.2507  1.0817 -0.7102
  553MOL0     H74592   0.370   8.732   2.485 -0.7499 -0.9850  2.3091
  553MOL0     H74593   0.384   8.558   2.454  0.0814 -0.1362  0.8659
  553MOL0     H74594   0.620   8.745   2.498  1.5689  0.4377 -2.5840
  553MOL0     H74595   0.566   8.709   2.336  1.6522  0.0222 -1.1698
  553MOL0     H74596   0.673   8.499   2.531  0.4635  0.0367 -0.1241
  553MOL0     H74597   0.616   8.479   2.357  1.1376  1.5334 -3.0183
  553MOL0     H74598   0.798   8.603   2.273  1.6817 -2.2707 -0.7666
  553MOL0     H74599   0.859   8.644   2.434  5.2807 -1.9525 -2.1231
  553MOL0     H74600   0.914   8.431   2.500  0.2680  2.7983  0.1379
  553MOL0     H74601   0.819   8.348   2.371  0.4012 -0.4719 -0.1865
  553MOL0     H74602   1.079   8.504   2.336  1.1019  0.1701 -0.8105
  553MOL0     H74603   0.969   8.452   2.205  1.1007 -0.5401 -1.1035
  553MOL0     H74604   1.169   8.285   2.243  1.4704 -0.3945  3.8135
  553MOL0     H74605   1.118   8.255   2.394  2.1858  1.5564 -0.1719
  553MOL0     H74606   0.912   8.270   2.062  4.0689  1.5123  1.2271
  553MOL0     H74607   0.822   7.912   1.951  2.1745 -1.8315 -0.6701
  553MOL0     H74608   0.862   8.072   1.879 -1.8248 -1.0403 -0.0408
  553MOL0     H74609   1.056   7.854   1.975 -2.5041 -1.0896  0.1138
  553MOL0     H74610   1.022   7.906   1.810 -0.5174 -0.9627  0.0989
  553MOL0     H74611   1.155   8.065   2.039 -0.0904 -0.0132 -0.3610
  553MOL0     H74612   1.114   8.131   1.889 -0.9096 -0.6116 -2.8171
  553MOL0     H74613   1.241   7.970   1.759 -0.4472 -1.3348 -0.5093
  553MOL0     H74614   1.282   7.867   1.905 -0.9429 -0.3892 -1.3066
  553MOL0     H74615   1.595   8.148   1.982 -1.6459  1.6915 -1.5834
  553MOL0     H74616   1.825   8.097   1.905  0.0310 -1.4050 -0.0641
  553MOL0     H74617   2.130   7.892   1.527 -0.4931 -0.2732  2.1166
  553MOL0     H74618   2.357   7.931   1.438 -1.9286 -1.7156 -0.3428
  553MOL0     H74619   2.564   7.967   1.411  0.4961 -0.2917 -1.3883
  553MOL0     H74620   2.500   8.113   1.324  0.1309  0.4218  0.0756
  553MOL0     H74621   2.727   8.227   1.374 -3.2665  0.8360  1.5927
  553MOL0     H74622   2.763   8.083   1.469 -1.7810  2.2703  1.5882
  553MOL0     H74623   2.779   7.949   1.267 -2.2392  0.1976 -0.5810
  553MOL0     H74624   2.706   8.085   1.172  0.1209  1.5567  1.2504
  553MOL0     H74625   2.984   8.106   1.287  0.4525 -2.7581 -0.7692
  553MOL0     H74626   2.898   8.212   1.166  0.3585  0.0604 -0.4389
  553MOL0     H74627   2.885   7.978   1.025  1.2760  2.2442 -2.6054
  553MOL0     H74628   3.011   7.928   1.133  1.0006  0.6892  0.1807
  553MOL0     H74629   3.097   8.014   0.916 -2.3139  1.9923 -2.0433
  553MOL0     H74630   3.030   8.175   0.951 -3.5345 -1.3628  0.0281
  553MOL0     H74631   3.235   8.039   1.139 -1.5780 -1.6958 -1.1731
  553MOL0     H74632   3.176   8.203   1.150  0.3623  0.5122  0.0001
  553MOL0     H74633   3.400   8.186   1.050  1.3002  1.0463 -0.0302
  553MOL0     H74634   3.329   8.100   0.911 -0.2126 -0.3341  0.2899
  553MOL0     H74635   2.388   8.274   1.681  0.3395 -1.0674  0.2209
  553MOL0     H74636   2.164   8.235   1.780  0.0855 -0.7274  0.6717
  553MOL0     H74637   1.660   7.881   1.570 -2.6064 -1.6675  1.6563
  553MOL0     H74638   1.448   7.944   1.640 -1.0347 -2.2971  1.1773
  553MOL0     H74639   0.575   8.925   2.851  0.0525 -0.8567  0.6189
  553MOL0     H74640   0.640   8.898   3.099 -0.9148  0.4231  0.2242
  553MOL0     H74641   0.430   8.814   3.449 -2.9722  2.7067  3.2209
  553MOL0     H74642   0.376   8.856   3.683  0.6905  0.6214  1.5805
  553MOL0     H74643   0.477   8.688   4.090 -1.1109 -1.6311  0.4601
  553MOL0     H74644   0.582   8.589   3.989  0.2376  0.9310  2.8093
  553MOL0     H74645   0.402   8.465   4.079 -0.7981  1.0052  1.7278
  553MOL0     H74646   0.336   8.477   3.912 -2.8087  2.0873 -0.1387
  553MOL0     H74647   0.222   8.690   3.986  0.2683 -1.5805 -0.5434
  553MOL0     H74648   0.261   8.647   4.160 -0.6067  1.5402  0.4528
  553MOL0     H74649   0.035   8.586   4.099  1.8482  2.7536 -1.1522
  553MOL0     H74650   0.092   8.494   3.955  1.6177 -0.0978 -0.4896
  553MOL0     H74651   0.120   8.206   4.239 -0.9480 -0.0796 -2.0820
  553MOL0     H74652   0.618   8.515   3.796 -0.1701  1.0946  1.2356
  553MOL0     H74653   0.774   8.455   3.496 -0.8541  0.2561 -0.5234
  553MOL0     H74654   0.735   8.396   3.651  1.1040  0.5280  0.0148
  553MOL0     H74655   0.622   8.355   3.517 -0.1260 -1.2409  2.7225
  554MOL0     O74656   1.008   1.302   8.468 -0.1454  0.2373  0.7071
  554MOL0     C74657   1.036   1.227   8.561 -0.4741  0.0304  0.5412
  554MOL0     O74658   1.158   1.193   8.607  0.2598  0.7291 -0.2692
  554MOL0     C74659   1.277   1.225   8.548  0.4328  0.2579  0.7297
  554MOL0     C74660   1.295   1.239   8.405 -0.7652  0.2818 -0.3007
  554MOL0     C74661   1.427   1.265   8.353 -0.3548 -0.2447  0.3003
  554MOL0     C74662   1.541   1.252   8.441 -0.1496 -0.2529  0.2692
  554MOL0     O74663   1.672   1.273   8.410  0.3564 -0.0212  0.1682
  554MOL0     C74664   1.693   1.293   8.268 -0.2765  0.8372  0.3158
  554MOL0     C74665   1.830   1.369   8.251  0.0323  0.1690 -0.0054
  554MOL0     C74666   1.947   1.283   8.313 -0.1934 -0.1666  0.1546
  554MOL0     C74667   2.074   1.360   8.328  0.2552  0.2933 -0.2448
  554MOL0     C74668   2.178   1.271   8.379  0.4982 -0.3110 -0.4327
  554MOL0     C74669   2.271   1.344   8.470 -0.1381 -0.6066 -0.1651
  554MOL0     C74670   2.384   1.250   8.514 -0.0378  0.4077  0.3154
  554MOL0     C74671   2.471   1.201   8.401 -0.0375 -0.0375 -0.3222
  554MOL0     N74672   2.599   1.156   8.454  0.5364  0.0491 -0.3628
  554MOL0     C74673   2.709   1.233   8.482  0.7491  0.1979  0.3318
  554MOL0     C74674   2.793   1.153   8.538  0.0466  0.3477 -0.6079
  554MOL0     C74675   2.926   1.208   8.585 -0.3924  0.4333 -0.2912
  554MOL0     C74676   3.021   1.114   8.672  1.1836  0.7684 -0.3112
  554MOL0     C74677   3.001   1.127   8.818  0.4297 -0.3407  0.4011
  554MOL0     C74678   3.020   1.003   8.905 -0.7170  0.2826 -0.8184
  554MOL0     O74679   3.143   0.933   8.878 -0.1659  0.1729 -0.2320
  554MOL0     C74680   3.266   0.989   8.905  0.4559  0.5549 -0.1172
  554MOL0     C74681   3.309   1.019   9.033  0.1423  0.0000  0.5155
  554MOL0     C74682   3.437   1.050   9.053  0.4321 -0.2202 -0.5485
  554MOL0     C74683   3.529   1.065   8.942  0.8084  0.1505  0.8119
  554MOL0     C74684   3.666   1.109   8.957 -1.1312 -0.2001  0.0026
  554MOL0     O74685   3.721   1.094   9.078 -0.3378 -0.4871  0.3343
  554MOL0     C74686   3.846   1.124   9.093  0.4357 -1.1094 -0.1708
  554MOL0     C74687   3.950   1.043   9.046  0.0663 -0.4184  0.4073
  554MOL0     C74688   4.083   1.066   9.087  0.3243 -0.8595 -0.2596
  554MOL0     C74689   4.109   1.174   9.176 -0.1243 -0.4207 -0.0780
  554MOL0     O74690   4.233   1.200   9.232  0.0852 -0.3792  0.7229
  554MOL0     C74691   4.346   1.124   9.198  0.0032  0.4816 -0.0144
  554MOL0     C74692   4.469   1.159   9.283  0.4134 -0.5478 -0.3961
  554MOL0     C74693   4.606   1.103   9.235  0.0219  0.2532  0.3635
  554MOL0     C74694   4.712   1.136   9.333 -0.8081 -0.0064 -0.5780
  554MOL0     C74695   4.846   1.111   9.253  0.4872  0.4841 -0.5923
  554MOL0     C74696   4.975   1.144   9.338 -0.1232  0.6674  0.8889
  554MOL0     C74697   5.080   1.141   9.237  0.5212 -0.4628  0.2392
  554MOL0     C74698   5.213   1.164   9.299  0.5043  0.3769 -0.2833
  554MOL0    Cl74699   5.275   1.018   9.396  0.0079 -0.1335 -0.1104
  554MOL0     C74700   4.007   1.260   9.228 -1.0622 -0.3130  0.3529
  554MOL0     C74701   3.874   1.228   9.183 -0.6293 -0.9122  0.4448
  554MOL0     O74702   3.727   1.159   8.860 -0.6999  0.8001  0.1349
  554MOL0     C74703   3.487   1.041   8.810  0.6970 -0.3119 -0.2594
  554MOL0     C74704   3.355   0.996   8.787  0.2466  0.7801 -0.7054
  554MOL0     N74705   2.750   1.024   8.535  0.2403 -0.6116 -0.3361
  554MOL0     N74706   2.634   1.029   8.476  0.2357 -0.3063  0.0563
  554MOL0     C74707   1.521   1.222   8.581 -0.2761 -0.1189  0.1074
  554MOL0     C74708   1.393   1.206   8.632 -0.4397 -0.6313  0.2622
  554MOL0     C74709   0.918   1.172   8.640 -0.4250  0.5130 -0.2200
  554MOL0     C74710   0.949   1.116   8.762  0.8419  0.2749 -0.5248
  554MOL0     C74711   0.854   1.060   8.844 -0.1166  0.3352 -0.1750
  554MOL0     C74712   0.723   1.052   8.803  0.0342 -0.2564  0.4827
  554MOL0     O74713   0.619   1.001   8.878  0.1497  0.1992 -0.1251
  554MOL0     C74714   0.629   0.948   9.011 -0.1505  0.3031  0.1011
  554MOL0     C74715   0.504   0.871   9.062 -0.3173  0.2841  0.3471
  554MOL0     C74716   0.372   0.937   9.023 -0.1503  0.5643  0.1938
  554MOL0     C74717   0.240   0.893   9.095 -0.6653  0.1681 -0.1355
  554MOL0     C74718   0.131   0.888   9.001  0.6260  0.8435 -0.2568
  554MOL0     C74719   0.022   0.878   8.935 -0.4857  0.3882  0.6728
  554MOL0     C74720   0.688   1.099   8.672  0.2542  0.2085  0.3104
  554MOL0     C74721   0.786   1.160   8.589 -0.1754 -0.4333 -0.4185
  554MOL0     C74722   0.730   1.200   8.448  0.4391  0.5350  0.4020
  554MOL0     H74723   1.207   1.251   8.343 -1.6557 -0.0120  0.8807
  554MOL0     H74724   1.440   1.291   8.249 -1.6920  0.8014  0.3630
  554MOL0     H74725   1.685   1.194   8.222 -1.9533 -0.3560  2.9686
  554MOL0     H74726   1.625   1.369   8.228 -1.5054 -0.6023 -0.4206
  554MOL0     H74727   1.832   1.465   8.303 -3.1417 -1.6625  4.0010
  554MOL0     H74728   1.847   1.388   8.144  1.9020  1.4559  0.4661
  554MOL0     H74729   1.964   1.195   8.251  0.2763 -0.2663  0.4168
  554MOL0     H74730   1.913   1.244   8.410 -1.8689  1.3551  0.2349
  554MOL0     H74731   2.110   1.394   8.230  3.9689 -1.4647  0.3678
  554MOL0     H74732   2.069   1.448   8.393 -0.6201  0.1565 -0.1162
  554MOL0     H74733   2.139   1.179   8.423  1.2029 -1.1144 -1.4519
  554MOL0     H74734   2.237   1.244   8.292  0.7981 -0.1485 -0.2843
  554MOL0     H74735   2.318   1.431   8.424 -1.8894 -0.0774 -1.0547
  554MOL0     H74736   2.212   1.385   8.552 -0.6139  2.8383 -2.0643
  554MOL0     H74737   2.348   1.166   8.573  2.0844 -0.6676  0.1687
  554MOL0     H74738   2.454   1.307   8.576  0.4041 -0.4955  0.6691
  554MOL0     H74739   2.429   1.121   8.339  1.2202 -0.2114 -0.9661
  554MOL0     H74740   2.490   1.282   8.331  1.0521 -3.0908 -3.9225
  554MOL0     H74741   2.727   1.340   8.473  1.9456 -0.1533 -2.3959
  554MOL0     H74742   2.982   1.228   8.493 -1.1090  3.3372 -0.2018
  554MOL0     H74743   2.906   1.296   8.648 -1.4945 -1.2155  1.7846
  554MOL0     H74744   3.002   1.011   8.642 -1.5303  1.6535 -2.0132
  554MOL0     H74745   3.123   1.147   8.650  0.8104  1.1090 -1.6542
  554MOL0     H74746   2.894   1.145   8.831 -0.0664 -1.3442 -1.8446
  554MOL0     H74747   3.070   1.207   8.847 -0.8154  1.4924 -1.3857
  554MOL0     H74748   2.941   0.927   8.898 -0.7155  0.2152 -0.2265
  554MOL0     H74749   3.019   1.036   9.010 -0.2885 -1.9974 -0.0164
  554MOL0     H74750   3.246   1.013   9.121  1.1960 -1.3490  1.2255
  554MOL0     H74751   3.462   1.084   9.152  1.4663  0.5078 -1.0451
  554MOL0     H74752   3.926   0.955   8.986 -0.4363  0.5237 -0.8155
  554MOL0     H74753   4.159   1.004   9.041  0.0022 -1.7932  0.4414
  554MOL0     H74754   4.335   1.015   9.203 -0.9404  0.5795  0.2519
  554MOL0     H74755   4.358   1.140   9.090 -0.5711  0.4315 -0.0853
  554MOL0     H74756   4.478   1.266   9.304  0.9853 -0.6973  0.1740
  554MOL0     H74757   4.445   1.119   9.382  0.1246  2.9602  1.1326
  554MOL0     H74758   4.599   0.994   9.229 -1.4891  0.3597 -0.4880
  554MOL0     H74759   4.623   1.143   9.135  1.9379  0.0111  0.5669
  554MOL0     H74760   4.709   1.074   9.423 -1.2131  0.2458 -0.4115
  554MOL0     H74761   4.708   1.239   9.369 -2.2882 -0.5231  0.8673
  554MOL0     H74762   4.845   1.159   9.155 -2.7098  0.6999 -0.5661
  554MOL0     H74763   4.857   1.003   9.238  4.2700  0.6024  0.2254
  554MOL0     H74764   4.954   1.245   9.374 -4.0875  0.2444  0.2360
  554MOL0     H74765   4.991   1.069   9.416 -0.9586 -1.7257 -1.0911
  554MOL0     H74766   5.055   1.220   9.165  0.0213 -0.0047  0.9116
  554MOL0     H74767   5.088   1.043   9.189  0.9987  0.3989 -1.5322
  554MOL0     H74768   5.285   1.192   9.222  0.8425  1.7098  0.4708
  554MOL0     H74769   5.200   1.250   9.365 -4.6338 -0.1440 -0.2654
  554MOL0     H74770   4.041   1.340   9.293 -0.4358  0.8118 -1.2984
  554MOL0     H74771   3.798   1.289   9.231 -0.1837 -0.5798  0.7339
  554MOL0     H74772   3.552   1.048   8.723  3.2888  0.1264  1.6273
  554MOL0     H74773   3.319   0.982   8.686 -2.7748  1.3582  0.1924
  554MOL0     H74774   1.602   1.213   8.652  1.1679  1.5518 -1.2304
  554MOL0     H74775   1.375   1.197   8.739 -1.8857  0.2607  0.1293
  554MOL0     H74776   1.051   1.106   8.798  0.8141  0.7713 -0.3021
  554MOL0     H74777   0.892   1.021   8.937 -2.9083 -2.5642 -0.0686
  554MOL0     H74778   0.647   1.032   9.078  0.6540  0.8714 -0.8025
  554MOL0     H74779   0.724   0.893   9.017  0.3666  1.2454  0.7827
  554MOL0     H74780   0.511   0.860   9.170  1.8507 -2.5427  0.0353
  554MOL0     H74781   0.504   0.764   9.038  2.7181 -0.2899  2.4546
  554MOL0     H74782   0.370   0.911   8.917  0.7395 -0.9530  0.5228
  554MOL0     H74783   0.376   1.045   9.039 -1.2762  0.4936  1.0998
  554MOL0     H74784   0.264   0.799   9.146  1.6652  0.3951 -0.7137
  554MOL0     H74785   0.225   0.962   9.178  0.9195  1.5395 -0.9288
  554MOL0     H74786  -0.065   0.890   8.875  0.4222 -1.0331 -1.0298
  554MOL0     H74787   0.582   1.094   8.648  0.4560  0.5060 -0.7094
  554MOL0     H74788   0.768   1.292   8.404  2.7773  0.9981  3.0560
  554MOL0     H74789   0.748   1.110   8.388  1.1161  0.9427 -0.0218
  554MOL0     H74790   0.623   1.217   8.459  0.4417  1.0604 -0.3368
  555MOL0     O74791   6.056   9.396   3.884 -0.1237 -0.2444 -0.3173
  555MOL0     C74792   6.006   9.321   3.802  0.3019  1.3743  0.3381
  555MOL0     O74793   6.065   9.243   3.713  0.7721  0.3700 -0.5437
  555MOL0     C74794   6.201   9.217   3.738  0.5107  0.1885  0.3415
  555MOL0     C74795   6.269   9.223   3.860 -0.3777 -0.4407  0.6648
  555MOL0     C74796   6.408   9.207   3.862  0.1798  0.1811  0.7729
  555MOL0     C74797   6.486   9.187   3.747 -0.9992 -0.0085  0.1088
  555MOL0     O74798   6.624   9.171   3.760  0.0711 -0.2152  0.0238
  555MOL0     C74799   6.683   9.071   3.668 -0.2025  0.4360  0.1714
  555MOL0     C74800   6.770   9.146   3.565  0.9394 -0.5693  0.0646
  555MOL0     C74801   6.917   9.177   3.597 -0.2560 -0.0999  0.4317
  555MOL0     C74802   6.998   9.216   3.469  0.2111  0.6235 -0.5684
  555MOL0     C74803   7.139   9.252   3.501 -0.0898  0.7374 -0.1616
  555MOL0     C74804   7.229   9.256   3.373 -0.4211  0.2877  0.3879
  555MOL0     C74805   7.200   9.384   3.295  0.5556 -0.4908 -0.2290
  555MOL0     C74806   7.299   9.405   3.187 -0.0880 -0.8581  0.6553
  555MOL0     N74807   7.424   9.471   3.230  0.2779  0.0359  0.8314
  555MOL0     C74808   7.424   9.606   3.262 -0.4916  0.2571  1.0601
  555MOL0     C74809   7.560   9.624   3.280  0.1185 -0.0184  0.4439
  555MOL0     C74810   7.632   9.758   3.308  0.4236  0.3548  0.1250
  555MOL0     C74811   7.735   9.780   3.196 -0.6182  0.7386  0.5589
  555MOL0     C74812   7.834   9.892   3.241  0.1732 -0.8224  0.6821
  555MOL0     C74813   7.910   9.951   3.126 -0.8886 -0.3971 -0.7785
  555MOL0     O74814   7.935   9.860   3.017 -0.4694 -0.0713  0.4401
  555MOL0     C74815   8.063   9.807   3.004  0.0591 -0.1686  0.7332
  555MOL0     C74816   8.132   9.833   2.890  0.1627 -0.3175 -0.5869
  555MOL0     C74817   8.245   9.765   2.862 -0.4643  0.0967  0.1127
  555MOL0     C74818   8.303   9.673   2.954 -0.9593 -0.8017 -0.1658
  555MOL0     C74819   8.444   9.628   2.925  0.0644 -0.2046 -0.0051
  555MOL0     O74820   8.528   9.602   3.035  0.6616 -0.3498  0.6647
  555MOL0     C74821   8.659   9.561   3.026  0.3315 -0.1936 -1.2689
  555MOL0     C74822   8.739   9.521   2.919 -0.1342 -0.3339  0.3817
  555MOL0     C74823   8.875   9.470   2.936  1.4148  0.7845  0.3402
  555MOL0     C74824   8.937   9.467   3.066  0.5300 -0.0625  0.0520
  555MOL0     O74825   9.064   9.425   3.103 -0.6923  0.4000  0.3233
  555MOL0     C74826   9.149   9.380   3.001  0.9547  0.4972 -0.5245
  555MOL0     C74827   9.285   9.339   3.063 -0.1072 -0.0642 -0.6301
  555MOL0     C74828   9.396   9.303   2.966 -0.5268  0.1511  0.3343
  555MOL0     C74829   9.514   9.276   3.061 -0.2787 -0.3882 -0.9791
  555MOL0     C74830   9.639   9.210   3.010  0.0929 -0.0251  0.6463
  555MOL0     C74831   9.764   9.234   3.076 -0.1754 -0.4665  0.2672
  555MOL0     C74832   9.770   9.207   3.223  0.2741 -0.1626  0.3056
  555MOL0     C74833   9.908   9.171   3.264  0.6777 -0.4330 -0.5746
  555MOL0    Cl74834   9.903   9.120   3.441 -0.0289  0.5844 -0.1133
  555MOL0     C74835   8.855   9.515   3.171 -0.0014  0.5308  0.9415
  555MOL0     C74836   8.717   9.554   3.153 -0.1942 -0.7186 -0.7443
  555MOL0     O74837   8.478   9.609   2.807  0.8225  0.0271 -0.1076
  555MOL0     C74838   8.236   9.657   3.080 -0.1542 -0.1165  0.1218
  555MOL0     C74839   8.118   9.729   3.104 -0.8590 -0.0274  0.0720
  555MOL0     N74840   7.635   9.507   3.278 -0.0227 -0.5004  1.2408
  555MOL0     N74841   7.547   9.415   3.246 -0.4706  0.0402  0.1534
  555MOL0     C74842   6.418   9.171   3.628 -0.3846 -0.3830 -0.0121
  555MOL0     C74843   6.277   9.196   3.621 -0.0619  0.6011  0.3460
  555MOL0     C74844   5.856   9.310   3.796  0.7596  0.6663  0.4237
  555MOL0     C74845   5.794   9.182   3.787  0.0618 -0.1267  0.7680
  555MOL0     C74846   5.660   9.172   3.775 -0.4071  0.7151 -0.7697
  555MOL0     C74847   5.581   9.292   3.774  0.1127  0.6313  0.1945
  555MOL0     O74848   5.443   9.289   3.750  0.2614 -0.1737 -0.3412
  555MOL0     C74849   5.370   9.168   3.725  0.9983  0.2900  0.1572
  555MOL0     C74850   5.223   9.189   3.755  0.7515  0.0755 -0.3453
  555MOL0     C74851   5.127   9.094   3.676  0.5743 -0.1397 -0.4685
  555MOL0     C74852   4.986   9.106   3.724  0.4607  0.4168 -0.1007
  555MOL0     C74853   4.895   9.046   3.627 -0.7942  0.1162 -0.2921
  555MOL0     C74854   4.812   8.994   3.563 -0.2387  0.9574 -0.0279
  555MOL0     C74855   5.639   9.415   3.776 -0.6461 -0.7168 -0.1586
  555MOL0     C74856   5.778   9.428   3.791 -0.3657  0.4553 -0.5717
  555MOL0     C74857   5.833   9.569   3.797 -0.2699  0.2889  0.1325
  555MOL0     H74858   6.219   9.254   3.951 -1.3437  1.5160 -0.4547
  555MOL0     H74859   6.469   9.202   3.952  0.9919 -3.4012  0.1774
  555MOL0     H74860   6.754   9.017   3.731  0.4531 -1.8844 -2.3775
  555MOL0     H74861   6.613   8.996   3.630 -1.0400  0.6528  1.2415
  555MOL0     H74862   6.714   9.238   3.544 -0.5915 -1.6631 -0.8378
  555MOL0     H74863   6.774   9.084   3.475  0.0841  2.2483 -2.0634
  555MOL0     H74864   6.976   9.089   3.624 -0.4855 -1.1741 -2.2724
  555MOL0     H74865   6.927   9.255   3.673  1.0379  2.9967 -2.6873
  555MOL0     H74866   7.000   9.133   3.398 -0.6848 -0.8218  1.0294
  555MOL0     H74867   6.945   9.302   3.426 -1.8432 -0.2829  0.0059
  555MOL0     H74868   7.151   9.353   3.544 -0.8086  0.9232 -0.3815
  555MOL0     H74869   7.177   9.181   3.575 -2.5212 -0.8194 -0.3089
  555MOL0     H74870   7.332   9.253   3.407 -0.0502  0.3050 -0.7006
  555MOL0     H74871   7.220   9.173   3.302  2.4230 -0.4673  0.8090
  555MOL0     H74872   7.199   9.468   3.365  0.7872 -0.4368 -0.2912
  555MOL0     H74873   7.097   9.380   3.257 -0.1406  2.1925  1.1524
  555MOL0     H74874   7.314   9.314   3.129  1.2072 -0.8174  0.8911
  555MOL0     H74875   7.249   9.479   3.125 -0.4890 -2.9950 -1.7243
  555MOL0     H74876   7.336   9.668   3.254 -0.9748 -0.6066 -0.5959
  555MOL0     H74877   7.553   9.833   3.297  0.2637  0.5958  2.4250
  555MOL0     H74878   7.657   9.757   3.415 -2.7452  0.4949  0.9787
  555MOL0     H74879   7.784   9.688   3.161 -1.3198  1.0213 -1.3010
  555MOL0     H74880   7.679   9.818   3.110 -0.5477 -1.7430 -0.6796
  555MOL0     H74881   7.902   9.848   3.314  2.5952  1.7580  0.1319
  555MOL0     H74882   7.784   9.973   3.295  4.3819  2.4241  0.2112
  555MOL0     H74883   8.002  10.000   3.158 -0.9196  0.7799 -2.3762
  555MOL0     H74884   7.852  10.032   3.079  0.9745  2.2894  1.2667
  555MOL0     H74885   8.087   9.907   2.824 -2.3266 -0.0751  1.2092
  555MOL0     H74886   8.296   9.800   2.772 -1.5729 -1.1846 -1.0557
  555MOL0     H74887   8.712   9.522   2.814  1.1924  1.3226  0.0203
  555MOL0     H74888   8.927   9.438   2.846  1.6700  0.0414  0.7369
  555MOL0     H74889   9.104   9.297   2.945 -1.5317  0.9088  0.6906
  555MOL0     H74890   9.168   9.462   2.931  3.1612  0.2887 -0.2406
  555MOL0     H74891   9.325   9.429   3.111 -1.0936 -0.0237  0.1502
  555MOL0     H74892   9.263   9.263   3.139 -0.9108  1.5046  0.7735
  555MOL0     H74893   9.380   9.214   2.905 -0.2255  0.5206 -0.2886
  555MOL0     H74894   9.411   9.390   2.902 -2.2871  2.1755  2.4657
  555MOL0     H74895   9.488   9.219   3.151  1.7721  1.0645  0.6238
  555MOL0     H74896   9.542   9.374   3.099 -1.0984 -1.7264  3.7572
  555MOL0     H74897   9.655   9.248   2.909 -2.8399 -1.4248 -0.4804
  555MOL0     H74898   9.620   9.102   3.012 -0.3396  0.0570  2.6175
  555MOL0     H74899   9.844   9.177   3.027 -2.3452 -2.2554 -1.4174
  555MOL0     H74900   9.792   9.337   3.055 -3.2181  0.5838  0.8740
  555MOL0     H74901   9.692   9.132   3.237 -0.5511  1.1750  3.8129
  555MOL0     H74902   9.736   9.290   3.285  3.3335  1.7954 -0.4186
  555MOL0     H74903   9.961   9.097   3.203 -0.9216 -1.0725 -1.2418
  555MOL0     H74904   9.969   9.262   3.261  0.7650 -0.5038 -1.6425
  555MOL0     H74905   8.900   9.508   3.269  1.0430 -1.6148  0.3876
  555MOL0     H74906   8.655   9.576   3.239  0.0825 -0.4828 -0.6027
  555MOL0     H74907   8.284   9.592   3.153  1.5076  2.1413  1.1509
  555MOL0     H74908   8.071   9.702   3.197 -0.9095 -0.2791 -0.0244
  555MOL0     H74909   6.475   9.156   3.536  0.6954 -2.8699  0.9700
  555MOL0     H74910   6.229   9.199   3.524 -0.7132  0.9128  0.6768
  555MOL0     H74911   5.853   9.091   3.784 -0.9530 -0.8216 -2.7069
  555MOL0     H74912   5.618   9.073   3.762  2.0163 -0.3263 -1.2392
  555MOL0     H74913   5.412   9.086   3.783 -0.3564 -0.0276  0.7490
  555MOL0     H74914   5.376   9.147   3.618 -0.8137 -1.6253  0.3556
  555MOL0     H74915   5.191   9.289   3.724 -3.1406 -0.1899  2.0766
  555MOL0     H74916   5.201   9.176   3.861 -3.4878  0.6108 -0.9858
  555MOL0     H74917   5.162   8.990   3.683 -0.1397 -0.3246  0.5957
  555MOL0     H74918   5.133   9.118   3.570  2.4730  2.1655  0.0720
  555MOL0     H74919   4.978   9.061   3.824  2.6099 -0.1536 -0.1562
  555MOL0     H74920   4.965   9.214   3.730  1.6193  0.6826 -0.5813
  555MOL0     H74921   4.748   8.947   3.490  0.2891 -1.0269  0.7120
  555MOL0     H74922   5.583   9.508   3.775  0.6009  0.3788  4.8250
  555MOL0     H74923   5.762   9.640   3.752 -0.5395  0.0344  0.1546
  555MOL0     H74924   5.866   9.602   3.896 -0.8610  2.7037 -0.3993
  555MOL0     H74925   5.916   9.581   3.727  0.6144 -1.4946  0.8297
  556MOL0     O74926   6.317   1.610   0.339 -0.1535  0.1502  0.6231
  556MOL0     C74927   6.243   1.601   0.240 -0.4479 -0.3047 -0.6742
  556MOL0     O74928   6.281   1.612   0.108 -0.2839  0.6087 -0.2283
  556MOL0     C74929   6.401   1.570   0.064 -0.3797  0.3867 -0.8930
  556MOL0     C74930   6.435   1.633  -0.060 -0.2159  0.6538 -0.3496
  556MOL0     C74931   6.551   1.593  -0.119 -0.8523 -0.1013  0.0621
  556MOL0     C74932   6.642   1.500  -0.062 -0.0490  0.6339  0.4443
  556MOL0     O74933   6.751   1.478  -0.140 -0.0990 -0.5503  0.2962
  556MOL0     C74934   6.879   1.465  -0.077 -0.2652 -0.4156 -0.2228
  556MOL0     C74935   6.999   1.431  -0.171  1.0953 -0.1589  0.2690
  556MOL0     C74936   7.100   1.343  -0.114 -1.3053  0.5961 -0.3350
  556MOL0     C74937   7.162   1.256  -0.223  1.0433  0.2314  0.2086
  556MOL0     C74938   7.295   1.195  -0.181  0.0504 -0.3542  0.3351
  556MOL0     C74939   7.413   1.297  -0.185  0.1195 -0.0666 -0.3325
  556MOL0     C74940   7.533   1.243  -0.113  0.2043 -0.4375  0.4083
  556MOL0     C74941   7.613   1.157  -0.207  0.3097 -0.6006 -0.0121
  556MOL0     N74942   7.712   1.089  -0.126 -0.2045  0.3625 -0.0748
  556MOL0     C74943   7.799   1.145  -0.038 -0.5904 -0.7866 -0.3973
  556MOL0     C74944   7.874   1.044   0.008  0.2699  0.0893  0.0631
  556MOL0     C74945   7.985   1.061   0.109  0.1547 -0.2043  0.3467
  556MOL0     C74946   8.073   0.927   0.109  0.6625  0.0771 -0.1699
  556MOL0     C74947   8.198   0.935   0.207 -0.6460  0.3483 -0.1251
  556MOL0     C74948   8.273   0.800   0.231 -0.0674 -0.6745 -0.1028
  556MOL0     O74949   8.358   0.802   0.340 -0.0059  0.3948  0.4289
  556MOL0     C74950   8.482   0.805   0.307 -0.0941 -0.8114 -1.0489
  556MOL0     C74951   8.545   0.930   0.279 -0.2303 -0.6657 -0.3570
  556MOL0     C74952   8.686   0.934   0.261  0.4718  0.2387  0.1596
  556MOL0     C74953   8.763   0.816   0.268 -1.0336 -0.1791 -0.3096
  556MOL0     C74954   8.910   0.825   0.252  0.3816  0.3484  0.4204
  556MOL0     O74955   8.978   0.728   0.332 -0.1144  0.1141  0.8220
  556MOL0     C74956   9.091   0.677   0.276 -0.3202 -0.0488 -0.1229
  556MOL0     C74957   9.194   0.654   0.361 -0.5018 -0.2105  0.0807
  556MOL0     C74958   9.319   0.621   0.308 -0.3573 -0.1887  0.0357
  556MOL0     C74959   9.340   0.596   0.168  0.2807  0.9128  0.5077
  556MOL0     O74960   9.458   0.554   0.110 -0.1299 -0.3611  0.5768
  556MOL0     C74961   9.583   0.574   0.184 -0.2925  0.3257  0.8585
  556MOL0     C74962   9.692   0.502   0.103 -0.1588  0.1768  0.3444
  556MOL0     C74963   9.726   0.586  -0.027  0.2335 -0.2447  0.0295
  556MOL0     C74964   9.861   0.660  -0.015  0.2520 -0.4119  0.2386
  556MOL0     C74965   9.883   0.735  -0.154 -0.0512  0.5521  0.4099
  556MOL0     C74966  10.019   0.800  -0.144  0.4925  0.3521  0.1681
  556MOL0     C74967  10.139   0.707  -0.173 -0.0976 -0.0153 -0.5541
  556MOL0     C74968  10.276   0.779  -0.161 -0.0684 -0.2847  0.6042
  556MOL0    Cl74969  10.401   0.664  -0.211  0.0328 -0.5778  0.1351
  556MOL0     C74970   9.229   0.608   0.084 -0.3860  0.2335 -0.7544
  556MOL0     C74971   9.109   0.652   0.136 -0.1484  0.2696 -0.2510
  556MOL0     O74972   8.956   0.895   0.161 -0.3196  0.0039 -0.1599
  556MOL0     C74973   8.702   0.691   0.296  0.2399  0.4966 -0.1299
  556MOL0     C74974   8.561   0.696   0.318  0.6453  0.1194 -1.0924
  556MOL0     N74975   7.809   0.928  -0.040 -0.2821  1.0607 -0.2979
  556MOL0     N74976   7.721   0.959  -0.125 -0.2769  0.1820  0.4722
  556MOL0     C74977   6.617   1.454   0.069  0.2530 -0.1535 -0.8131
  556MOL0     C74978   6.488   1.488   0.132  0.0279 -0.3084 -0.1620
  556MOL0     C74979   6.093   1.604   0.261 -0.5318 -0.4310 -0.0854
  556MOL0     C74980   6.012   1.654   0.158 -0.6162 -0.5587 -0.2687
  556MOL0     C74981   5.877   1.678   0.167 -0.4360 -0.1795  0.0427
  556MOL0     C74982   5.812   1.645   0.293 -0.1866 -0.2914  0.0413
  556MOL0     O74983   5.680   1.648   0.317  0.7999 -0.2943  0.4735
  556MOL0     C74984   5.596   1.674   0.207  0.0856 -0.4239 -0.4143
  556MOL0     C74985   5.455   1.650   0.261 -0.1804 -0.1534 -0.7899
  556MOL0     C74986   5.359   1.691   0.143  0.0436  0.0002 -0.8463
  556MOL0     C74987   5.224   1.717   0.218 -0.2497  0.1873  0.0724
  556MOL0     C74988   5.120   1.771   0.134 -0.4856  0.1893  0.3044
  556MOL0     C74989   5.035   1.819   0.068 -0.2445 -0.1658 -0.0577
  556MOL0     C74990   5.890   1.593   0.396 -0.6192 -0.0730 -0.0222
  556MOL0     C74991   6.028   1.571   0.385  0.3064  0.0711  0.1160
  556MOL0     C74992   6.104   1.505   0.497  0.2031 -0.0409  0.2441
  556MOL0     H74993   6.368   1.706  -0.105  0.4338  0.6722 -1.3058
  556MOL0     H74994   6.584   1.621  -0.218 -0.0708 -2.9123 -0.5664
  556MOL0     H74995   6.916   1.555  -0.027  3.3977 -2.3418  0.9872
  556MOL0     H74996   6.875   1.388   0.000 -3.2880 -0.3953 -0.2439
  556MOL0     H74997   7.042   1.526  -0.205  0.3641  0.6938  1.5981
  556MOL0     H74998   6.958   1.370  -0.252  1.2741 -0.8982  0.7336
  556MOL0     H74999   7.051   1.279  -0.039 -0.8385  0.6047 -0.0199
  556MOL0     H75000   7.180   1.405  -0.072 -0.9385 -0.8652  1.2776
  556MOL0     H75001   7.092   1.175  -0.244  0.3119  1.0029 -0.3985
  556MOL0     H75002   7.169   1.315  -0.315  0.0647 -0.3787 -0.2702
  556MOL0     H75003   7.283   1.160  -0.078 -1.8130  2.2133  1.0935
  556MOL0     H75004   7.314   1.106  -0.242 -0.3347 -0.6641  0.6626
  556MOL0     H75005   7.421   1.309  -0.294 -1.8068 -0.9201 -0.6096
  556MOL0     H75006   7.372   1.388  -0.141 -0.5444 -0.2548 -0.5456
  556MOL0     H75007   7.513   1.188  -0.020  2.6646  1.5927  2.3199
  556MOL0     H75008   7.595   1.330  -0.087  1.3046 -1.0530 -0.0995
  556MOL0     H75009   7.551   1.087  -0.263  0.0671  1.9217 -3.1295
  556MOL0     H75010   7.659   1.225  -0.279 -0.2475 -0.5725 -0.3379
  556MOL0     H75011   7.823   1.247  -0.011  2.8649 -0.9197 -2.2507
  556MOL0     H75012   8.044   1.146   0.071 -1.1352  1.6985  2.3354
  556MOL0     H75013   7.949   1.080   0.210 -0.0681  0.5562  0.1354
  556MOL0     H75014   8.012   0.841   0.139 -0.0991  0.1692 -1.3853
  556MOL0     H75015   8.097   0.911   0.004  0.3369  2.6312 -0.6907
  556MOL0     H75016   8.160   0.975   0.301 -1.6512 -0.5138 -0.1542
  556MOL0     H75017   8.277   1.006   0.178  0.3115  0.3858  2.3608
  556MOL0     H75018   8.327   0.781   0.138  1.2599  2.6585 -0.1346
  556MOL0     H75019   8.204   0.715   0.245 -0.2733 -0.3019  1.3418
  556MOL0     H75020   8.489   1.022   0.264 -1.3165 -1.1431  0.5997
  556MOL0     H75021   8.726   1.030   0.230  1.9238 -0.4254 -0.1086
  556MOL0     H75022   9.193   0.685   0.464 -0.8616  0.1771 -0.0382
  556MOL0     H75023   9.403   0.622   0.377 -0.2698 -0.6945 -0.0644
  556MOL0     H75024   9.606   0.678   0.205  2.4629  0.2224 -1.0899
  556MOL0     H75025   9.566   0.506   0.268 -5.8493 -0.4916 -0.4784
  556MOL0     H75026   9.779   0.508   0.169  0.5370  2.9332 -0.6639
  556MOL0     H75027   9.661   0.402   0.074  3.1471 -0.4788 -1.3273
  556MOL0     H75028   9.735   0.512  -0.107 -0.1587 -3.1269  2.4701
  556MOL0     H75029   9.643   0.653  -0.047 -3.3510 -3.6800  1.9641
  556MOL0     H75030   9.941   0.592   0.014  0.3438 -0.1906  0.5054
  556MOL0     H75031   9.845   0.739   0.059 -2.7712 -1.8192  1.2490
  556MOL0     H75032   9.812   0.813  -0.185 -2.0075 -0.4685  2.0566
  556MOL0     H75033   9.879   0.662  -0.235 -0.4971 -0.4184  1.2960
  556MOL0     H75034  10.026   0.883  -0.216  0.6771  0.0044 -0.2228
  556MOL0     H75035  10.040   0.848  -0.048  0.6091 -1.0900  0.8865
  556MOL0     H75036  10.133   0.650  -0.266 -0.4514  2.1450 -1.9304
  556MOL0     H75037  10.139   0.631  -0.095 -1.2049  1.5250  1.0224
  556MOL0     H75038  10.279   0.869  -0.223 -3.0680 -1.9493 -2.2893
  556MOL0     H75039  10.298   0.814  -0.059  0.2158 -0.2554  0.5338
  556MOL0     H75040   9.236   0.582  -0.021 -1.3217  0.6410 -0.9247
  556MOL0     H75041   9.024   0.669   0.072 -0.6822  3.0636  1.0610
  556MOL0     H75042   8.763   0.601   0.295  0.6565  0.6842 -3.4115
  556MOL0     H75043   8.506   0.603   0.329  0.2503  0.1782 -2.4024
  556MOL0     H75044   6.680   1.389   0.128 -2.7743  1.8028  5.3807
  556MOL0     H75045   6.469   1.452   0.232  2.2611 -0.1340  0.3871
  556MOL0     H75046   6.062   1.673   0.064  0.9060 -4.0563 -0.3163
  556MOL0     H75047   5.834   1.717   0.076  3.0722 -0.4524 -1.9061
  556MOL0     H75048   5.615   1.606   0.123 -1.8420 -0.3417 -0.9658
  556MOL0     H75049   5.607   1.778   0.175 -1.9779 -0.7779 -2.5701
  556MOL0     H75050   5.446   1.719   0.346  0.6492 -1.1011  0.0868
  556MOL0     H75051   5.449   1.550   0.305  0.2926  0.6262  1.1835
  556MOL0     H75052   5.342   1.618   0.064 -0.2191  1.4653 -2.1816
  556MOL0     H75053   5.397   1.781   0.095 -0.0986  0.1944 -0.5973
  556MOL0     H75054   5.189   1.628   0.271  0.0276 -1.8895 -2.9283
  556MOL0     H75055   5.233   1.792   0.297  1.5839  2.4897 -2.1434
  556MOL0     H75056   4.949   1.869   0.028  0.1121  2.3569  2.0438
  556MOL0     H75057   5.835   1.574   0.488 -1.1222  4.6887  0.9157
  556MOL0     H75058   6.181   1.566   0.546 -0.4395 -0.5901  2.0386
  556MOL0     H75059   6.032   1.481   0.577  0.2728 -0.2048  0.2586
  556MOL0     H75060   6.147   1.409   0.469  0.0579  0.2328 -0.9762
  557MOL0     O75061   4.674   0.380   4.468 -0.0860  0.3062 -0.5428
  557MOL0     C75062   4.689   0.330   4.580  0.0698  0.0028 -0.0410
  557MOL0     O75063   4.712   0.200   4.602 -0.0646 -0.4492  0.2204
  557MOL0     C75064   4.640   0.106   4.532 -0.5655  0.4690  0.2045
  557MOL0     C75065   4.703  -0.020   4.498  1.1390 -0.6312  0.1508
  557MOL0     C75066   4.630  -0.125   4.441  0.0043  0.0701 -0.5033
  557MOL0     C75067   4.501  -0.104   4.397  0.0939  1.0075 -0.2506
  557MOL0     O75068   4.443  -0.210   4.337 -0.3092  0.1141  0.4397
  557MOL0     C75069   4.309  -0.212   4.290  0.0031  0.2811  0.1730
  557MOL0     C75070   4.285  -0.149   4.150  0.0510 -0.0074 -0.3512
  557MOL0     C75071   4.387  -0.158   4.045 -0.2373 -0.1166  0.4202
  557MOL0     C75072   4.339  -0.108   3.906  0.5876  0.4254  0.2494
  557MOL0     C75073   4.434  -0.145   3.801 -0.8014  0.4018  0.1398
  557MOL0     C75074   4.428  -0.297   3.774 -0.9069 -0.2377 -0.3204
  557MOL0     C75075   4.485  -0.333   3.633  0.6702  0.6418 -0.0456
  557MOL0     C75076   4.615  -0.280   3.586 -0.4753 -0.6231 -0.7723
  557MOL0     N75077   4.656  -0.333   3.458 -0.5887 -0.1930  0.3979
  557MOL0     C75078   4.746  -0.438   3.436 -0.2720 -0.2865  1.0622
  557MOL0     C75079   4.735  -0.466   3.303  0.5533  0.0046 -1.2098
  557MOL0     C75080   4.805  -0.576   3.223  0.6747  0.0457 -0.5654
  557MOL0     C75081   4.884  -0.524   3.110 -0.0872 -0.5957  0.4880
  557MOL0     C75082   5.008  -0.443   3.145  0.4626 -0.3255 -0.5329
  557MOL0     C75083   5.067  -0.378   3.033  0.0542 -0.6035 -1.2255
  557MOL0     O75084   5.119  -0.463   2.935  0.4198 -0.0199 -0.0331
  557MOL0     C75085   5.220  -0.546   2.975  0.3673  0.1679  0.5562
  557MOL0     C75086   5.206  -0.685   2.964  0.0561 -0.5226  0.3996
  557MOL0     C75087   5.309  -0.767   2.994 -0.3319  1.0412 -0.1721
  557MOL0     C75088   5.435  -0.722   3.042  0.3871  0.7522 -1.2710
  557MOL0     C75089   5.539  -0.820   3.080 -0.8694 -0.2474  0.8296
  557MOL0     O75090   5.517  -0.947   3.065 -0.1416 -0.2899 -0.1790
  557MOL0     C75091   5.627  -1.009   3.004 -0.1928 -0.1128 -0.1842
  557MOL0     C75092   5.749  -1.031   3.080 -0.0866  0.3347  0.6565
  557MOL0     C75093   5.856  -1.101   3.021 -0.3494 -1.0520 -0.2291
  557MOL0     C75094   5.847  -1.150   2.896  0.1272 -0.4923  0.5715
  557MOL0     O75095   5.950  -1.213   2.832 -0.1390  0.1924 -0.3124
  557MOL0     C75096   6.069  -1.255   2.897 -0.2636 -0.0790 -0.3736
  557MOL0     C75097   6.181  -1.140   2.896 -0.4897 -0.0599 -0.6566
  557MOL0     C75098   6.328  -1.176   2.932  0.4469 -0.5009  0.0108
  557MOL0     C75099   6.394  -1.275   2.822 -0.6296 -0.1463 -0.4581
  557MOL0     C75100   6.543  -1.305   2.857  0.1669  0.3243 -0.0677
  557MOL0     C75101   6.648  -1.202   2.829 -0.8970  0.1080  0.3838
  557MOL0     C75102   6.789  -1.236   2.883 -0.0968  0.5933  0.1748
  557MOL0     C75103   6.916  -1.147   2.837  0.5643 -0.6429 -0.1809
  557MOL0    Cl75104   7.063  -1.201   2.918 -0.0029  0.2520  0.1545
  557MOL0     C75105   5.731  -1.136   2.820 -0.2881  0.4756  0.4878
  557MOL0     C75106   5.616  -1.071   2.878 -0.1437 -0.5408 -0.8615
  557MOL0     O75107   5.648  -0.763   3.099 -1.1291  0.6744 -0.2997
  557MOL0     C75108   5.456  -0.582   3.047  0.1548 -0.9043 -0.1550
  557MOL0     C75109   5.346  -0.498   3.009  0.1392  0.9068 -0.3029
  557MOL0     N75110   4.653  -0.382   3.240  0.1952  0.1278  0.7969
  557MOL0     N75111   4.595  -0.313   3.337  1.2370 -0.3628  0.1842
  557MOL0     C75112   4.439   0.017   4.433  0.7810 -0.6021  0.4274
  557MOL0     C75113   4.504   0.113   4.495 -0.7941 -0.1777 -0.6219
  557MOL0     C75114   4.689   0.426   4.690 -0.8374  0.3662 -0.1765
  557MOL0     C75115   4.787   0.409   4.792 -0.0603  0.1788 -0.0235
  557MOL0     C75116   4.797   0.514   4.885 -0.8688 -0.2357 -0.5357
  557MOL0     C75117   4.708   0.618   4.893 -0.4403 -0.1286  0.7568
  557MOL0     O75118   4.733   0.715   4.986  0.4897  0.7064  0.3193
  557MOL0     C75119   4.767   0.841   4.946 -0.1888  0.7261 -0.5668
  557MOL0     C75120   4.883   0.860   4.857  0.3284  0.5086  1.0087
  557MOL0     C75121   5.013   0.818   4.929  0.0602  0.5020  0.1145
  557MOL0     C75122   5.131   0.851   4.840  0.1352  0.5157 -0.0688
  557MOL0     C75123   5.141   0.743   4.736  0.6391 -0.5431 -0.1216
  557MOL0     C75124   5.156   0.664   4.648 -0.1328 -0.1068  0.1006
  557MOL0     C75125   4.606   0.628   4.804  0.2782  0.1692  0.2458
  557MOL0     C75126   4.599   0.536   4.699  0.1771 -0.3135 -0.1311
  557MOL0     C75127   4.478   0.550   4.610 -0.3410  0.3730 -0.3022
  557MOL0     H75128   4.807  -0.023   4.531  0.9358  0.7101  0.9968
  557MOL0     H75129   4.672  -0.225   4.430 -1.2103 -0.7088  1.4041
  557MOL0     H75130   4.279  -0.317   4.289  1.0372 -0.0232  0.4247
  557MOL0     H75131   4.241  -0.160   4.357 -0.9842  1.6906 -1.8034
  557MOL0     H75132   4.257  -0.044   4.161 -0.8340 -0.2284 -0.4015
  557MOL0     H75133   4.196  -0.199   4.109 -2.3036  2.1846  1.7536
  557MOL0     H75134   4.417  -0.263   4.039  0.0209  0.0339 -1.4509
  557MOL0     H75135   4.469  -0.092   4.073  0.9643 -0.0742 -2.7295
  557MOL0     H75136   4.242  -0.153   3.883  1.0246 -0.7781  0.7044
  557MOL0     H75137   4.323   0.000   3.912 -1.8396  0.1254  0.3219
  557MOL0     H75138   4.399  -0.081   3.720 -1.7539 -1.1344 -0.6996
  557MOL0     H75139   4.538  -0.131   3.833 -0.6649 -1.7490  0.7526
  557MOL0     H75140   4.486  -0.354   3.847 -1.2116 -0.1376  0.0011
  557MOL0     H75141   4.323  -0.325   3.789 -0.6675  0.1457  2.6794
  557MOL0     H75142   4.406  -0.305   3.563 -1.5898 -0.5784  1.8508
  557MOL0     H75143   4.492  -0.442   3.634 -2.0024  0.3060 -2.9597
  557MOL0     H75144   4.611  -0.171   3.594  1.7273 -0.5541  5.3890
  557MOL0     H75145   4.692  -0.317   3.655 -1.1383 -2.3328 -0.9076
  557MOL0     H75146   4.815  -0.493   3.499  0.0914  0.8552  1.7012
  557MOL0     H75147   4.868  -0.638   3.287  0.6614 -0.4823 -1.0514
  557MOL0     H75148   4.726  -0.643   3.187 -2.5728  3.9428 -1.5206
  557MOL0     H75149   4.923  -0.604   3.046  1.3044 -1.2212  2.0378
  557MOL0     H75150   4.815  -0.466   3.048  1.3833 -0.0041 -0.6518
  557MOL0     H75151   5.086  -0.499   3.197  0.3000  2.0558  2.5307
  557MOL0     H75152   4.971  -0.363   3.210  0.2660 -0.3341 -0.6331
  557MOL0     H75153   5.146  -0.312   3.073  0.5025 -0.9829 -1.4785
  557MOL0     H75154   4.998  -0.309   2.985  0.8255  1.0578 -0.0591
  557MOL0     H75155   5.107  -0.722   2.939  0.9482 -1.6849 -1.6430
  557MOL0     H75156   5.295  -0.875   2.992  2.0804  0.6269 -3.5503
  557MOL0     H75157   5.760  -1.003   3.184 -1.8886  0.2458  0.9123
  557MOL0     H75158   5.949  -1.113   3.077 -0.0082  0.0978 -0.5281
  557MOL0     H75159   6.045  -1.287   2.999  0.6581 -2.2839 -0.7878
  557MOL0     H75160   6.101  -1.347   2.848 -0.1290  0.9727 -2.3616
  557MOL0     H75161   6.185  -1.102   2.794  2.7404  0.5012 -0.4327
  557MOL0     H75162   6.155  -1.048   2.948 -2.7855 -0.4240 -1.0724
  557MOL0     H75163   6.381  -1.080   2.929  1.0247 -0.8553 -2.1124
  557MOL0     H75164   6.338  -1.223   3.031  0.3494  0.0909  0.3062
  557MOL0     H75165   6.377  -1.217   2.731 -1.9347  2.2112  1.1919
  557MOL0     H75166   6.343  -1.372   2.815  0.9549 -1.2311  1.7176
  557MOL0     H75167   6.579  -1.384   2.790  1.7648 -0.0969  1.2298
  557MOL0     H75168   6.548  -1.338   2.962  0.7041 -2.0467 -0.7717
  557MOL0     H75169   6.657  -1.196   2.720 -3.0216 -0.3081  0.1522
  557MOL0     H75170   6.612  -1.105   2.866 -1.8354  0.3738 -1.1427
  557MOL0     H75171   6.813  -1.336   2.847  0.9659  0.1417  2.0078
  557MOL0     H75172   6.800  -1.235   2.992 -0.2915  0.6907  0.1954
  557MOL0     H75173   6.937  -1.163   2.731  1.8720  1.7273 -0.3618
  557MOL0     H75174   6.888  -1.045   2.865  1.7743 -0.5208  0.6847
  557MOL0     H75175   5.731  -1.184   2.723  1.4240  1.3711  0.0048
  557MOL0     H75176   5.525  -1.068   2.819  0.1393 -0.4985 -1.2998
  557MOL0     H75177   5.554  -0.543   3.074 -1.0175  0.6468  2.1363
  557MOL0     H75178   5.358  -0.391   2.994 -2.5950  1.3838  0.4093
  557MOL0     H75179   4.333   0.031   4.420  0.8275  1.0795  1.5083
  557MOL0     H75180   4.443   0.194   4.532  0.6195  0.0590  1.3598
  557MOL0     H75181   4.852   0.322   4.792  2.2430  1.7446 -2.1878
  557MOL0     H75182   4.878   0.521   4.957 -0.2308 -0.1872 -1.2434
  557MOL0     H75183   4.795   0.901   5.033  3.5680  1.7178 -2.2625
  557MOL0     H75184   4.674   0.870   4.896 -0.2690 -1.2958 -1.6879
  557MOL0     H75185   4.891   0.967   4.833 -2.3144  1.1379  2.4032
  557MOL0     H75186   4.871   0.796   4.770  0.3958  0.7171  0.8445
  557MOL0     H75187   5.012   0.714   4.963  3.4611 -0.1376 -1.3496
  557MOL0     H75188   5.025   0.878   5.019  3.7070  1.2864 -0.7211
  557MOL0     H75189   5.118   0.948   4.791 -1.0776 -0.0246 -0.8790
  557MOL0     H75190   5.217   0.864   4.907 -1.1924  2.5264  1.3396
  557MOL0     H75191   5.168   0.600   4.562 -2.4821 -0.8029  0.1887
  557MOL0     H75192   4.530   0.701   4.832  0.0970  0.0138  0.1579
  557MOL0     H75193   4.495   0.580   4.506  4.4256 -2.7615 -0.7054
  557MOL0     H75194   4.420   0.457   4.610 -1.6380  1.1292  0.9455
  557MOL0     H75195   4.410   0.623   4.656  1.1675  0.6108  1.6383
  558MOL0     O75196   0.351   7.118   6.216  0.4649 -0.3321 -0.0318
  558MOL0     C75197   0.308   7.045   6.302 -0.7606 -0.1882  0.5472
  558MOL0     O75198   0.381   6.949   6.369  0.3809  0.1776  0.1219
  558MOL0     C75199   0.502   6.904   6.323  0.2805  0.0435 -0.0493
  558MOL0     C75200   0.602   6.878   6.422  0.0577  0.3949 -0.8064
  558MOL0     C75201   0.727   6.819   6.394  0.0427  0.0319  0.0370
  558MOL0     C75202   0.754   6.801   6.264 -0.6259 -0.0367  0.1990
  558MOL0     O75203   0.881   6.751   6.239  0.1931 -0.2377  0.1418
  558MOL0     C75204   0.910   6.684   6.114 -0.5002  0.4629  0.2299
  558MOL0     C75205   1.042   6.611   6.125 -0.1805 -0.2916 -0.9078
  558MOL0     C75206   1.162   6.705   6.118 -0.5433 -0.8096 -0.6541
  558MOL0     C75207   1.286   6.656   6.198 -0.3474  0.0672 -0.5795
  558MOL0     C75208   1.398   6.740   6.150  0.0696 -1.0928  1.0797
  558MOL0     C75209   1.521   6.737   6.236 -0.5852 -0.3889  0.3802
  558MOL0     C75210   1.636   6.820   6.172 -0.1232 -0.1438 -0.4107
  558MOL0     C75211   1.766   6.832   6.248 -0.3276  0.3803 -0.2052
  558MOL0     N75212   1.870   6.749   6.199 -0.0962  0.3198 -0.1786
  558MOL0     C75213   1.961   6.789   6.103 -0.2376 -0.4186  0.6137
  558MOL0     C75214   2.035   6.675   6.088  0.1634  0.6430 -0.5193
  558MOL0     C75215   2.169   6.648   6.016  0.6240  0.1814 -0.6041
  558MOL0     C75216   2.267   6.664   6.129 -0.4604 -0.4030 -0.0298
  558MOL0     C75217   2.405   6.658   6.079  0.0442  0.4386 -0.7619
  558MOL0     C75218   2.495   6.732   6.170  0.5733  0.2356  0.3286
  558MOL0     O75219   2.507   6.667   6.305 -0.0528  0.3317 -0.3265
  558MOL0     C75220   2.598   6.720   6.393  0.2070  0.5823  0.0485
  558MOL0     C75221   2.661   6.850   6.372 -0.1633  0.0986  0.1541
  558MOL0     C75222   2.741   6.902   6.467 -0.7787  0.3406  0.5446
  558MOL0     C75223   2.788   6.815   6.572  0.1233 -0.2108 -0.2863
  558MOL0     C75224   2.863   6.864   6.677  0.9167 -0.4316 -0.2882
  558MOL0     O75225   2.915   6.989   6.671 -0.7047 -0.2793 -0.3055
  558MOL0     C75226   2.991   7.022   6.779 -0.2244  0.0141  0.4211
  558MOL0     C75227   3.132   7.024   6.770 -0.2623  0.3192 -0.7286
  558MOL0     C75228   3.216   7.063   6.876 -0.5032  0.2934  0.5683
  558MOL0     C75229   3.161   7.099   7.002 -0.2033  0.1357  0.1763
  558MOL0     O75230   3.231   7.144   7.115  0.0516  0.4062  0.1269
  558MOL0     C75231   3.351   7.074   7.149  0.3584 -0.3243  0.4150
  558MOL0     C75232   3.395   7.128   7.289 -0.0810 -0.3462 -0.1853
  558MOL0     C75233   3.308   7.109   7.418 -0.2661 -0.2328  0.4587
  558MOL0     C75234   3.216   7.235   7.439  0.3732  0.5422 -0.4180
  558MOL0     C75235   3.269   7.345   7.526  0.2924  0.1836 -0.7289
  558MOL0     C75236   3.144   7.421   7.578  0.2996  0.0525 -0.5398
  558MOL0     C75237   3.039   7.482   7.483  0.2942 -0.1775 -0.4041
  558MOL0     C75238   2.920   7.390   7.449 -0.3587 -0.7388 -0.5097
  558MOL0    Cl75239   2.784   7.489   7.375 -0.0446  0.1276  0.2062
  558MOL0     C75240   3.023   7.087   7.014 -0.2640 -0.2070  0.0905
  558MOL0     C75241   2.946   7.053   6.902 -0.1193 -0.1582 -0.4791
  558MOL0     O75242   2.848   6.804   6.781  0.2263  0.0045 -0.0428
  558MOL0     C75243   2.740   6.680   6.583  0.1364 -0.3184 -0.2421
  558MOL0     C75244   2.647   6.635   6.490  0.4846  0.0074 -0.3968
  558MOL0     N75245   1.971   6.578   6.159  0.3764  0.0487 -0.7551
  558MOL0     N75246   1.880   6.617   6.230  0.5470 -0.0025 -0.0811
  558MOL0     C75247   0.662   6.823   6.164 -0.4445  0.4581 -0.6012
  558MOL0     C75248   0.539   6.881   6.191 -0.0333  0.6158 -0.2890
  558MOL0     C75249   0.167   7.058   6.343  0.1461 -1.6552  0.0447
  558MOL0     C75250   0.110   6.971   6.440  0.8093 -0.2393  0.9728
  558MOL0     C75251  -0.028   6.975   6.472  0.7776  0.5691 -0.7977
  558MOL0     C75252  -0.109   7.073   6.422  0.1688 -0.6382 -0.1436
  558MOL0     O75253  -0.240   7.082   6.455 -0.5652  0.3717 -0.0867
  558MOL0     C75254  -0.318   6.977   6.383  0.7226  0.7734  0.0838
  558MOL0     C75255  -0.453   6.945   6.456 -0.0459  0.2895  0.3106
  558MOL0     C75256  -0.518   6.816   6.418 -0.2584 -0.3835  0.3604
  558MOL0     C75257  -0.662   6.814   6.464  0.0788 -0.2415 -0.3945
  558MOL0     C75258  -0.731   6.915   6.381  0.9325 -0.4314  0.0680
  558MOL0     C75259  -0.784   7.001   6.320 -0.0316 -0.1551 -0.5488
  558MOL0     C75260  -0.054   7.173   6.344 -0.3428 -0.6532 -0.7038
  558MOL0     C75261   0.083   7.167   6.303 -0.0068 -0.8922 -0.3336
  558MOL0     C75262   0.124   7.285   6.221  0.7737  0.1420  0.3817
  558MOL0     H75263   0.574   6.894   6.526  1.1417 -1.9908 -0.0666
  558MOL0     H75264   0.801   6.782   6.464 -0.5716  0.7580  1.1018
  558MOL0     H75265   0.830   6.614   6.088 -0.8144  1.5262 -1.9684
  558MOL0     H75266   0.915   6.759   6.034  0.0655 -0.2950 -0.4692
  558MOL0     H75267   1.047   6.542   6.040 -2.5427  0.4648 -1.7380
  558MOL0     H75268   1.050   6.561   6.222 -1.6717 -0.7289 -0.9792
  558MOL0     H75269   1.138   6.791   6.181  3.6362  0.8590 -1.0426
  558MOL0     H75270   1.177   6.748   6.019  1.6918  0.3291  0.1092
  558MOL0     H75271   1.267   6.684   6.302  1.3362  1.0583 -0.5011
  558MOL0     H75272   1.306   6.548   6.199 -0.7093 -0.0020  0.1388
  558MOL0     H75273   1.416   6.725   6.043 -0.9737 -0.9009  0.8583
  558MOL0     H75274   1.368   6.846   6.154  2.5730 -0.2666  0.0651
  558MOL0     H75275   1.491   6.784   6.330  1.7730  3.2585 -0.4847
  558MOL0     H75276   1.546   6.632   6.254 -3.9963 -1.3003  0.3701
  558MOL0     H75277   1.596   6.921   6.179  0.6825  0.1248  0.4432
  558MOL0     H75278   1.652   6.802   6.065  3.2801 -0.7312  0.0681
  558MOL0     H75279   1.801   6.935   6.246  1.3479 -0.1152  1.2800
  558MOL0     H75280   1.743   6.806   6.352 -1.9593 -0.9105 -0.8338
  558MOL0     H75281   1.966   6.890   6.065 -1.1191 -0.5417  0.1426
  558MOL0     H75282   2.173   6.545   5.979 -1.1737 -2.0539  4.4214
  558MOL0     H75283   2.174   6.719   5.933  1.6989  1.3898  0.4469
  558MOL0     H75284   2.250   6.753   6.190  1.4354  1.6160 -2.2735
  558MOL0     H75285   2.251   6.581   6.198  3.2070 -0.5576  0.8156
  558MOL0     H75286   2.422   6.697   5.979  1.4428  0.1317 -0.6701
  558MOL0     H75287   2.433   6.552   6.072  2.6736  1.0003  0.1719
  558MOL0     H75288   2.451   6.832   6.167  0.8910  0.3615 -2.0934
  558MOL0     H75289   2.595   6.740   6.128  1.2702  1.1721  2.0550
  558MOL0     H75290   2.626   6.913   6.291  2.6841 -1.5541 -2.6042
  558MOL0     H75291   2.776   7.005   6.469 -2.8675  1.2414 -2.4239
  558MOL0     H75292   3.178   7.003   6.674  1.3158 -0.1388  0.0881
  558MOL0     H75293   3.322   7.075   6.858 -0.9780  1.5162 -1.9072
  558MOL0     H75294   3.330   6.967   7.154  1.7525 -0.7966 -1.9892
  558MOL0     H75295   3.432   7.091   7.077 -0.1981 -0.2844 -0.2104
  558MOL0     H75296   3.491   7.080   7.311 -0.7984 -1.7016  0.1311
  558MOL0     H75297   3.408   7.233   7.261  1.9574 -0.9229 -1.7126
  558MOL0     H75298   3.241   7.023   7.411 -0.6124 -0.0762  1.5889
  558MOL0     H75299   3.377   7.106   7.503  2.1737 -2.2787 -1.4281
  558MOL0     H75300   3.123   7.193   7.479  0.8911 -0.0762  0.1797
  558MOL0     H75301   3.185   7.266   7.339  3.3646  1.4278 -1.1570
  558MOL0     H75302   3.332   7.415   7.469 -0.6975  2.4059  0.7846
  558MOL0     H75303   3.327   7.309   7.611 -1.4603 -0.4192  0.2639
  558MOL0     H75304   3.079   7.371   7.650 -1.8301  1.9669 -0.9968
  558MOL0     H75305   3.184   7.503   7.639  1.1101  1.7922 -3.2496
  558MOL0     H75306   3.082   7.523   7.392 -0.4345 -1.2169 -1.2388
  558MOL0     H75307   2.991   7.565   7.535  1.1541  1.4860 -2.1446
  558MOL0     H75308   2.951   7.323   7.368 -1.7158 -0.7104 -1.0841
  558MOL0     H75309   2.888   7.331   7.535  0.9187  0.4000  0.7967
  558MOL0     H75310   2.972   7.119   7.104 -2.5095  1.4480 -1.6497
  558MOL0     H75311   2.838   7.059   6.907 -0.0916  1.3447 -1.1702
  558MOL0     H75312   2.792   6.609   6.646  1.9137  1.3078  0.2091
  558MOL0     H75313   2.612   6.532   6.487  0.6396 -0.1397  1.6029
  558MOL0     H75314   0.696   6.797   6.064  2.0923  0.1555  0.2713
  558MOL0     H75315   0.480   6.908   6.104 -0.1424  0.8108 -0.1559
  558MOL0     H75316   0.166   6.902   6.502  0.8836  0.1740  1.3744
  558MOL0     H75317  -0.084   6.908   6.538 -0.3370 -0.0642 -2.3257
  558MOL0     H75318  -0.266   6.882   6.374 -0.3937  0.2730 -1.6201
  558MOL0     H75319  -0.327   7.010   6.279  1.0115 -0.6712 -0.4195
  558MOL0     H75320  -0.513   7.035   6.441  2.1311  1.8820  0.6632
  558MOL0     H75321  -0.435   6.951   6.564  2.6043  0.5207 -0.0840
  558MOL0     H75322  -0.459   6.733   6.458  0.3911 -1.2219 -2.1646
  558MOL0     H75323  -0.514   6.795   6.310  1.8599 -0.4695  0.4045
  558MOL0     H75324  -0.713   6.717   6.457  2.6591 -1.5375 -4.1959
  558MOL0     H75325  -0.659   6.846   6.569  3.6121 -0.4248 -0.3217
  558MOL0     H75326  -0.838   7.075   6.264 -0.2825  0.0514 -0.0337
  558MOL0     H75327  -0.114   7.260   6.320  1.2049  0.6875  0.0883
  558MOL0     H75328   0.186   7.347   6.286 -1.3669  1.4921  1.2628
  558MOL0     H75329   0.180   7.248   6.135  1.8073 -2.6858  2.1081
  558MOL0     H75330   0.037   7.349   6.202 -0.7089 -1.2869  1.9548
  559MOL0     O75331   4.864  10.129   3.379  0.1480  0.8152 -0.1255
  559MOL0     C75332   4.824  10.016   3.367  0.2189 -0.0358  0.0046
  559MOL0     O75333   4.886   9.905   3.408 -0.7752  0.1173  0.3276
  559MOL0     C75334   5.005   9.912   3.471 -0.6123 -0.3688 -0.2425
  559MOL0     C75335   5.106   9.836   3.412  0.4918  0.2421 -0.4163
  559MOL0     C75336   5.234   9.844   3.464 -0.1293  0.1574 -0.2536
  559MOL0     C75337   5.265   9.928   3.570 -0.0487  0.9191  0.5689
  559MOL0     O75338   5.396   9.935   3.610 -0.4732  0.2845  0.5520
  559MOL0     C75339   5.433   9.959   3.742  0.2067 -0.9665  0.0249
  559MOL0     C75340   5.575   9.920   3.762  0.2556 -0.5956  0.9954
  559MOL0     C75341   5.637   9.964   3.890 -0.2322  1.0159  0.6923
  559MOL0     C75342   5.785   9.955   3.881  0.4519  0.1283 -0.1566
  559MOL0     C75343   5.856   9.976   4.005 -0.3211  0.9898  0.4624
  559MOL0     C75344   5.838  10.115   4.069 -0.3587  0.7173  0.2243
  559MOL0     C75345   5.924  10.124   4.198  0.2475  0.2652 -0.1525
  559MOL0     C75346   6.072  10.150   4.169  1.0418  0.1860 -0.7140
  559MOL0     N75347   6.149  10.164   4.289 -1.0545 -0.4403 -0.0947
  559MOL0     C75348   6.142  10.252   4.395 -0.0945 -0.8128  0.0321
  559MOL0     C75349   6.245  10.225   4.473  0.5718  0.1501 -0.4772
  559MOL0     C75350   6.269  10.312   4.599  0.4895 -0.0977  0.0389
  559MOL0     C75351   6.409  10.376   4.582  0.0925 -0.0031  0.2341
  559MOL0     C75352   6.454  10.433   4.722 -0.1546 -0.4240 -0.2608
  559MOL0     C75353   6.511  10.576   4.708 -0.9064  0.1168  0.0821
  559MOL0     O75354   6.562  10.606   4.839 -0.1100  0.4397  0.1229
  559MOL0     C75355   6.696  10.621   4.854 -0.3040  0.4908 -0.0163
  559MOL0     C75356   6.763  10.733   4.812 -0.7705 -0.2412 -0.3861
  559MOL0     C75357   6.900  10.742   4.826 -0.9061  0.2129 -0.4473
  559MOL0     C75358   6.967  10.643   4.892  0.0955 -0.4702  0.1467
  559MOL0     C75359   7.121  10.657   4.911 -0.4409  0.0095 -0.3604
  559MOL0     O75360   7.193  10.559   4.977 -0.2066 -0.0351 -0.1925
  559MOL0     C75361   7.326  10.575   4.985 -0.6561  0.1626  0.1833
  559MOL0     C75362   7.410  10.626   4.878  0.1198 -0.1426  0.5194
  559MOL0     C75363   7.546  10.641   4.906  0.2340 -0.1643  0.0017
  559MOL0     C75364   7.603  10.601   5.031 -0.7240  0.0851 -0.5498
  559MOL0     O75365   7.739  10.609   5.052  0.3874  0.2347  0.4851
  559MOL0     C75366   7.826  10.604   4.935 -0.2738  0.8282 -1.2576
  559MOL0     C75367   7.965  10.576   4.999 -0.1922  0.6139 -0.0336
  559MOL0     C75368   8.084  10.581   4.904  0.3550 -0.6113 -0.4271
  559MOL0     C75369   8.219  10.553   4.979  0.2870  0.9446  0.4151
  559MOL0     C75370   8.333  10.562   4.878  0.9065  0.1507 -0.4325
  559MOL0     C75371   8.476  10.600   4.932  0.1476 -0.2570  1.0902
  559MOL0     C75372   8.580  10.614   4.819  0.4308  0.0813  0.4173
  559MOL0     C75373   8.727  10.624   4.871  0.0971  0.5558  0.4852
  559MOL0    Cl75374   8.779  10.462   4.917 -0.1207  0.1169 -0.4563
  559MOL0     C75375   7.516  10.562   5.142 -0.1495  0.3887  0.2337
  559MOL0     C75376   7.381  10.547   5.114 -0.0142 -0.8778  0.5983
  559MOL0     O75377   7.165  10.765   4.872 -0.4300  0.3626 -0.4905
  559MOL0     C75378   6.900  10.537   4.942 -0.0546  0.6152  0.0486
  559MOL0     C75379   6.759  10.522   4.928 -0.3970 -0.1625  0.1685
  559MOL0     N75380   6.318  10.120   4.420  0.6468 -0.0620  0.6522
  559MOL0     N75381   6.259  10.085   4.310  0.4545  0.7445  0.0829
  559MOL0     C75382   5.164  10.008   3.625  0.6380 -0.6368  0.0356
  559MOL0     C75383   5.034  10.005   3.576  0.1138  0.6527 -0.1132
  559MOL0     C75384   4.683  10.001   3.308 -0.6271 -0.7170  0.0702
  559MOL0     C75385   4.641   9.876   3.277 -0.1570 -0.9891  0.9458
  559MOL0     C75386   4.520   9.856   3.221 -0.3495 -0.1788  0.1571
  559MOL0     C75387   4.422   9.947   3.207 -0.9863 -0.3234 -0.2166
  559MOL0     O75388   4.309   9.928   3.136 -0.0594  0.6175 -0.0625
  559MOL0     C75389   4.268   9.801   3.086 -0.7212  0.0155  0.2111
  559MOL0     C75390   4.132   9.806   3.018  0.2541  0.4619 -0.8452
  559MOL0     C75391   4.129   9.888   2.891  0.4573  0.0549  0.7426
  559MOL0     C75392   3.978   9.902   2.852  0.5415  0.2416  0.0241
  559MOL0     C75393   3.962   9.989   2.733  0.0192 -0.2411 -1.2340
  559MOL0     C75394   3.975  10.060   2.629  0.7310  0.4400 -0.2225
  559MOL0     C75395   4.451  10.078   3.256  0.3993  0.5102 -0.9061
  559MOL0     C75396   4.581  10.112   3.294 -0.8056  0.5177  0.5361
  559MOL0     C75397   4.591  10.251   3.349 -0.8596  0.5803  0.6773
  559MOL0     H75398   5.079   9.780   3.323  2.8447 -1.4330 -0.1914
  559MOL0     H75399   5.315   9.785   3.422  0.9078  2.5203 -1.7610
  559MOL0     H75400   5.427  10.064   3.771  0.6884 -0.8825 -0.1664
  559MOL0     H75401   5.363   9.900   3.802  0.9372 -2.6572 -0.7207
  559MOL0     H75402   5.630   9.971   3.682 -2.1717 -0.0613 -0.4286
  559MOL0     H75403   5.579   9.811   3.752 -0.9708 -0.6817  1.2201
  559MOL0     H75404   5.601   9.908   3.976  2.6117  2.1611  2.8089
  559MOL0     H75405   5.611  10.068   3.912  1.3042  1.3494  1.0808
  559MOL0     H75406   5.803   9.853   3.846  1.3889 -0.2765  1.3981
  559MOL0     H75407   5.811  10.019   3.796 -1.0282  0.1249 -0.6373
  559MOL0     H75408   5.823   9.896   4.072  1.3773  2.0064  2.6397
  559MOL0     H75409   5.959   9.953   3.975 -0.5865 -1.5657  1.2768
  559MOL0     H75410   5.854  10.189   3.990 -0.7390 -0.5323 -1.0695
  559MOL0     H75411   5.732  10.108   4.095 -1.5259 -1.1512 -4.1524
  559MOL0     H75412   5.913  10.033   4.259 -0.9781 -1.4895 -2.8070
  559MOL0     H75413   5.883  10.204   4.261 -0.6623  3.8834 -4.7954
  559MOL0     H75414   6.121  10.069   4.114  1.1516  0.6053 -1.2380
  559MOL0     H75415   6.078  10.242   4.110  0.0201  1.2307  0.7550
  559MOL0     H75416   6.061  10.324   4.402  1.2525  0.8787 -1.0945
  559MOL0     H75417   6.197  10.394   4.608 -0.0927 -0.7295  1.3320
  559MOL0     H75418   6.247  10.255   4.690 -1.6574  0.2591 -0.2093
  559MOL0     H75419   6.478  10.304   4.537  1.2918  0.8332  0.6832
  559MOL0     H75420   6.392  10.447   4.500  2.3998  0.6904  0.2917
  559MOL0     H75421   6.537  10.371   4.757 -0.8973 -1.2102  0.1235
  559MOL0     H75422   6.365  10.426   4.786  0.5546 -3.4869  0.5171
  559MOL0     H75423   6.436  10.653   4.689 -1.9356 -1.0588 -0.7602
  559MOL0     H75424   6.586  10.588   4.630 -2.0437 -1.7146 -1.3979
  559MOL0     H75425   6.699  10.805   4.760 -0.8976  1.6395  2.1736
  559MOL0     H75426   6.947  10.833   4.790  2.2963 -1.6754 -1.4160
  559MOL0     H75427   7.368  10.652   4.781 -0.1729 -0.8206  0.4554
  559MOL0     H75428   7.606  10.669   4.820 -1.7139 -2.5701 -2.3014
  559MOL0     H75429   7.789  10.524   4.869 -0.1402  0.9565 -1.4879
  559MOL0     H75430   7.838  10.699   4.882 -0.6859  1.2624 -0.5809
  559MOL0     H75431   7.981  10.652   5.076  0.3087 -0.6667  1.1614
  559MOL0     H75432   7.951  10.478   5.044 -3.8041  2.4718  3.5209
  559MOL0     H75433   8.062  10.507   4.826 -2.2245 -2.4455  1.8340
  559MOL0     H75434   8.096  10.680   4.859  0.0260 -0.7199 -0.7606
  559MOL0     H75435   8.221  10.451   5.018  1.8668  1.2781  1.3120
  559MOL0     H75436   8.234  10.622   5.062 -1.1658  1.5189  0.2299
  559MOL0     H75437   8.303  10.640   4.807 -1.5887 -1.6944 -1.5426
  559MOL0     H75438   8.341  10.468   4.823  0.0138 -0.0889 -0.1640
  559MOL0     H75439   8.477  10.694   4.986  1.7567 -0.2709  1.1301
  559MOL0     H75440   8.511  10.523   5.002 -0.9783 -1.2962  0.5615
  559MOL0     H75441   8.556  10.705   4.765  0.4593  1.1907  2.1889
  559MOL0     H75442   8.579  10.522   4.759 -1.3151 -0.2167  0.8252
  559MOL0     H75443   8.791  10.670   4.795  1.5424 -0.3546  1.1228
  559MOL0     H75444   8.735  10.686   4.961  0.9467  0.0716  0.7535
  559MOL0     H75445   7.556  10.542   5.241  0.2700  0.9664  0.1853
  559MOL0     H75446   7.316  10.506   5.190 -1.1982 -0.6143 -0.2533
  559MOL0     H75447   6.956  10.456   4.987 -2.0314 -0.0192  1.5111
  559MOL0     H75448   6.703  10.431   4.945 -2.0893  0.7359 -0.3892
  559MOL0     H75449   5.179  10.072   3.711 -3.4196 -2.1137  2.1037
  559MOL0     H75450   4.965  10.075   3.623 -0.3385  0.6440 -0.7484
  559MOL0     H75451   4.716   9.798   3.285 -0.7471 -2.3219 -3.6346
  559MOL0     H75452   4.520   9.758   3.174  0.1373 -0.3335  0.4627
  559MOL0     H75453   4.271   9.718   3.157 -2.0565 -1.7159 -1.6402
  559MOL0     H75454   4.340   9.775   3.007 -2.6247  1.1077 -1.9963
  559MOL0     H75455   4.058   9.855   3.082 -2.0477 -1.7674 -1.6258
  559MOL0     H75456   4.087   9.711   2.989  0.6270  1.0554 -3.6539
  559MOL0     H75457   4.188   9.841   2.811  0.3401 -0.5191  0.9900
  559MOL0     H75458   4.151   9.995   2.897 -1.1001  0.4294  0.3047
  559MOL0     H75459   3.926   9.810   2.822  1.4296 -0.8601  1.6601
  559MOL0     H75460   3.923   9.946   2.936 -0.6610  1.0699 -1.1504
  559MOL0     H75461   3.983  10.123   2.543 -0.0997  1.4935  0.4350
  559MOL0     H75462   4.375  10.156   3.253  1.1169  1.8519  4.6807
  559MOL0     H75463   4.494  10.298   3.364 -1.4555 -0.0333 -0.9754
  559MOL0     H75464   4.648  10.251   3.442  2.7024 -2.7594 -1.1600
  559MOL0     H75465   4.658  10.300   3.277  0.1959 -2.7897 -0.8888
  560MOL0     O75466   7.124   6.075   9.826 -0.0838  0.8985 -0.0667
  560MOL0     C75467   7.054   6.166   9.873  0.0026  0.4847  0.5297
  560MOL0     O75468   7.094   6.294   9.879  0.6545 -0.2499  0.0258
  560MOL0     C75469   7.212   6.327   9.807  0.6161  0.1618 -1.2432
  560MOL0     C75470   7.223   6.367   9.672  0.1444 -1.4473 -0.3106
  560MOL0     C75471   7.347   6.399   9.615 -1.1866 -0.0155  1.2167
  560MOL0     C75472   7.465   6.397   9.693 -0.3587  0.1755  0.6083
  560MOL0     O75473   7.583   6.443   9.639 -0.1566  0.6511 -0.2452
  560MOL0     C75474   7.691   6.340   9.655 -0.4268 -0.9221  0.3662
  560MOL0     C75475   7.803   6.377   9.562  0.8901 -0.7025 -0.6413
  560MOL0     C75476   7.873   6.497   9.627 -0.0078 -0.1748  0.8126
  560MOL0     C75477   7.991   6.567   9.538  0.0855  0.1426  0.1114
  560MOL0     C75478   8.088   6.667   9.617  0.6128 -0.5339 -0.7481
  560MOL0     C75479   8.224   6.685   9.546 -0.3628  0.0473  0.5177
  560MOL0     C75480   8.317   6.773   9.637 -0.2754  0.2836  0.6231
  560MOL0     C75481   8.468   6.756   9.610  0.7886  0.1770 -0.6010
  560MOL0     N75482   8.495   6.775   9.467  0.4107 -0.7137 -0.0292
  560MOL0     C75483   8.494   6.684   9.360  0.6760  0.0976 -0.2562
  560MOL0     C75484   8.515   6.757   9.248  0.3734 -0.8801 -0.3543
  560MOL0     C75485   8.519   6.697   9.112  0.7822  0.3698  0.0145
  560MOL0     C75486   8.669   6.663   9.074  0.6452 -0.1207  0.6933
  560MOL0     C75487   8.752   6.783   9.014  0.5838 -0.5205 -0.3497
  560MOL0     C75488   8.881   6.735   8.953 -0.4487 -0.1028  0.3122
  560MOL0     O75489   8.974   6.667   9.053 -0.7363  0.6675  0.2285
  560MOL0     C75490   9.110   6.664   9.014  0.0848 -0.3040  0.3043
  560MOL0     C75491   9.141   6.647   8.873  1.3701 -0.8208  0.1092
  560MOL0     C75492   9.274   6.637   8.832 -0.4151  0.2103 -0.5731
  560MOL0     C75493   9.378   6.654   8.928 -0.8906  0.6882  0.2065
  560MOL0     C75494   9.519   6.641   8.884  0.2809  0.6846  0.0349
  560MOL0     O75495   9.545   6.665   8.749  0.0915 -0.2104 -0.2611
  560MOL0     C75496   9.676   6.664   8.712 -0.0491 -0.3541  0.4778
  560MOL0     C75497   9.748   6.783   8.718 -0.1074  0.2860 -0.1949
  560MOL0     C75498   9.886   6.782   8.678  0.7455  0.5364  0.6098
  560MOL0     C75499   9.947   6.668   8.623  0.5255  0.6695  0.2012
  560MOL0     O75500  10.073   6.660   8.574 -0.4515 -0.5292 -0.1138
  560MOL0     C75501  10.091   6.759   8.462 -0.6303 -0.5345  0.0845
  560MOL0     C75502  10.227   6.771   8.398 -0.0643  0.4662 -0.1532
  560MOL0     C75503  10.343   6.758   8.496  0.7336 -0.0286 -0.1472
  560MOL0     C75504  10.478   6.772   8.418 -0.6962 -0.0051  0.5901
  560MOL0     C75505  10.531   6.639   8.377 -0.7702  0.2638 -0.4937
  560MOL0     C75506  10.680   6.629   8.328 -0.1875  0.5207  0.1310
  560MOL0     C75507  10.733   6.486   8.315  0.0108  0.8167  0.4182
  560MOL0     C75508  10.862   6.484   8.244 -0.8005 -0.4710 -0.1094
  560MOL0    Cl75509  11.005   6.536   8.347  0.1717 -0.0183 -0.4515
  560MOL0     C75510   9.874   6.547   8.624 -0.3826 -0.4567  1.1253
  560MOL0     C75511   9.747   6.547   8.670 -0.4815  0.0871  0.1644
  560MOL0     O75512   9.604   6.616   8.975 -1.1748  0.1415  0.4345
  560MOL0     C75513   9.350   6.680   9.060  0.5010 -0.6303 -0.0698
  560MOL0     C75514   9.217   6.683   9.100  0.6922  0.2737  0.3366
  560MOL0     N75515   8.531   6.887   9.287  0.7089 -0.7341 -0.3651
  560MOL0     N75516   8.527   6.894   9.419 -0.2131 -0.0572  0.7848
  560MOL0     C75517   7.454   6.359   9.828  0.0752 -0.0310 -0.7747
  560MOL0     C75518   7.334   6.320   9.884  0.3770 -0.2213 -0.3843
  560MOL0     C75519   6.933   6.122   9.947  0.9043 -0.1670  0.1072
  560MOL0     C75520   6.880   6.211  10.048  0.2765  0.1352  0.4734
  560MOL0     C75521   6.768   6.186  10.124 -0.4985  0.0299  1.4491
  560MOL0     C75522   6.700   6.064  10.103  0.5652 -0.2643 -0.3213
  560MOL0     O75523   6.587   6.051  10.179 -0.5970 -0.1661  0.8197
  560MOL0     C75524   6.512   5.933  10.162 -0.0202  0.1190 -0.2369
  560MOL0     C75525   6.417   5.936  10.044 -1.0317  0.1294 -0.3056
  560MOL0     C75526   6.307   5.836  10.056  0.4086 -0.1406 -0.4371
  560MOL0     C75527   6.193   5.861   9.952 -0.0144  0.0834  0.2651
  560MOL0     C75528   6.250   5.860   9.813  0.0912  0.2342  0.7151
  560MOL0     C75529   6.282   5.867   9.694 -0.1941  0.3971  0.8177
  560MOL0     C75530   6.743   5.974  10.003  0.5551  0.4448 -0.6704
  560MOL0     C75531   6.858   6.003   9.928  0.1786  0.6347  0.4086
  560MOL0     C75532   6.890   5.894   9.819 -1.0667  0.1758 -0.5773
  560MOL0     H75533   7.129   6.396   9.626 -0.1894  1.0359  1.7290
  560MOL0     H75534   7.343   6.426   9.510 -3.0543  1.9559  1.7305
  560MOL0     H75535   7.716   6.332   9.761 -3.7555  1.8554  1.5702
  560MOL0     H75536   7.655   6.246   9.612 -1.2620 -0.0158 -0.9900
  560MOL0     H75537   7.764   6.409   9.465 -0.0509 -0.5908 -0.2324
  560MOL0     H75538   7.864   6.288   9.543 -1.4428 -2.5052 -0.1771
  560MOL0     H75539   7.916   6.463   9.721 -1.1967 -0.4421  1.2782
  560MOL0     H75540   7.797   6.572   9.647 -0.0667 -0.2580  0.9020
  560MOL0     H75541   8.057   6.495   9.489 -0.7827 -0.5916 -0.0011
  560MOL0     H75542   7.939   6.619   9.458 -0.9753 -1.4209 -0.2644
  560MOL0     H75543   8.046   6.768   9.610  1.1255 -0.2774 -0.1792
  560MOL0     H75544   8.107   6.633   9.719 -0.4171 -1.3320 -0.8093
  560MOL0     H75545   8.273   6.591   9.520 -0.1663  0.8311 -2.3865
  560MOL0     H75546   8.205   6.733   9.449  1.5726 -1.4573 -0.6797
  560MOL0     H75547   8.287   6.748   9.739  0.4047  0.7911  0.9497
  560MOL0     H75548   8.285   6.876   9.623  0.8547  0.6277  0.5120
  560MOL0     H75549   8.527   6.827   9.669 -0.0558 -0.1037  0.6307
  560MOL0     H75550   8.492   6.654   9.641 -1.4004 -0.5294 -1.0098
  560MOL0     H75551   8.451   6.584   9.358 -0.3494  0.5362 -1.3667
  560MOL0     H75552   8.473   6.598   9.114  0.6190  0.4406 -0.2681
  560MOL0     H75553   8.470   6.771   9.049 -1.2265  1.5519  2.7498
  560MOL0     H75554   8.729   6.632   9.160  2.9558  1.7511 -0.0972
  560MOL0     H75555   8.666   6.581   9.002 -2.3872 -1.5144  2.2691
  560MOL0     H75556   8.770   6.853   9.096  0.5488 -1.4163  0.4374
  560MOL0     H75557   8.696   6.829   8.933 -0.0473  0.4119  0.5938
  560MOL0     H75558   8.939   6.815   8.905 -0.2115 -1.6131 -2.0590
  560MOL0     H75559   8.854   6.658   8.880  2.4821 -1.5892  0.6283
  560MOL0     H75560   9.066   6.638   8.795  1.9906  1.7714 -0.8685
  560MOL0     H75561   9.307   6.624   8.730 -0.4281 -0.3927 -0.5029
  560MOL0     H75562   9.709   6.873   8.763  0.1161  0.6378 -0.6924
  560MOL0     H75563   9.944   6.873   8.685 -1.3049  1.8626  1.4968
  560MOL0     H75564  10.011   6.748   8.388  0.8970 -1.7549 -1.4719
  560MOL0     H75565  10.078   6.855   8.511  0.9933 -0.1061 -0.2810
  560MOL0     H75566  10.242   6.692   8.324 -3.5287 -0.0963 -0.3940
  560MOL0     H75567  10.239   6.867   8.348  1.1361  0.2927 -0.2374
  560MOL0     H75568  10.330   6.849   8.555 -1.8902  1.1833 -2.3934
  560MOL0     H75569  10.337   6.665   8.555 -1.6642 -0.4962 -1.0253
  560MOL0     H75570  10.543   6.823   8.491  0.9778 -1.2774  0.0623
  560MOL0     H75571  10.476   6.842   8.333 -1.5894  0.5840  1.0786
  560MOL0     H75572  10.465   6.595   8.301 -0.5719 -0.1377 -0.4397
  560MOL0     H75573  10.521   6.580   8.469  0.1824 -1.7073 -1.5812
  560MOL0     H75574  10.684   6.674   8.229  0.9644 -2.1650 -1.1468
  560MOL0     H75575  10.747   6.683   8.396  1.4505 -0.3199 -0.7496
  560MOL0     H75576  10.647   6.432   8.276 -2.3671  2.6469  2.7837
  560MOL0     H75577  10.760   6.446   8.414  2.6597 -0.0074 -0.5447
  560MOL0     H75578  10.871   6.382   8.204 -3.1785 -0.1983 -1.5032
  560MOL0     H75579  10.864   6.545   8.154  1.4952  0.0950  0.2480
  560MOL0     H75580   9.913   6.456   8.579 -0.0733  0.3801 -0.3727
  560MOL0     H75581   9.711   6.445   8.677  2.5270 -1.1246 -0.6518
  560MOL0     H75582   9.429   6.694   9.134 -1.5782  2.5492  1.8137
  560MOL0     H75583   9.198   6.700   9.206 -0.6876  1.5339 -0.0711
  560MOL0     H75584   7.550   6.371   9.877  0.6349  4.3746 -2.4397
  560MOL0     H75585   7.338   6.303   9.991 -0.2262 -1.3279 -0.5227
  560MOL0     H75586   6.922   6.312  10.049  2.2773 -0.5576  4.0715
  560MOL0     H75587   6.715   6.265  10.178 -1.6272  1.3354 -1.3832
  560MOL0     H75588   6.462   5.933  10.259  0.1968  0.2781 -0.1241
  560MOL0     H75589   6.574   5.843  10.171 -1.4614 -0.7226  2.3217
  560MOL0     H75590   6.465   5.923   9.947 -2.1800 -0.2485 -0.8478
  560MOL0     H75591   6.377   6.038  10.044  1.2864  1.1265  1.8220
  560MOL0     H75592   6.252   5.849  10.149  0.3908  0.1229 -0.4834
  560MOL0     H75593   6.340   5.735  10.027  3.1938  1.2522 -2.6226
  560MOL0     H75594   6.112   5.791   9.975  0.9366 -0.0864  3.5667
  560MOL0     H75595   6.164   5.966   9.956  0.2695  0.2487 -1.3062
  560MOL0     H75596   6.318   5.867   9.593  0.1200 -0.2617  0.9221
  560MOL0     H75597   6.686   5.883   9.986  2.4843 -1.3073  1.5543
  560MOL0     H75598   6.935   5.944   9.733 -3.6805  2.8898 -0.4990
  560MOL0     H75599   6.969   5.836   9.867  1.4856  1.7443 -2.6093
  560MOL0     H75600   6.808   5.834   9.780 -1.2811 -1.4418  2.0933
  561MOL0     O75601   8.093   0.393   7.084  0.3946 -0.2829  0.0872
  561MOL0     C75602   8.081   0.516   7.072  0.2736 -1.1314 -0.3349
  561MOL0     O75603   8.181   0.603   7.072  0.8795  0.2492  0.2447
  561MOL0     C75604   8.315   0.575   7.054 -0.4457  0.5685 -0.5139
  561MOL0     C75605   8.396   0.681   7.021 -0.5899 -0.3091  0.7599
  561MOL0     C75606   8.543   0.673   7.027  0.2327  0.4257  1.3828
  561MOL0     C75607   8.600   0.557   7.089 -0.5353 -0.6242  0.5011
  561MOL0     O75608   8.734   0.543   7.112  0.4665  0.1417 -0.5346
  561MOL0     C75609   8.811   0.657   7.082 -0.3147  0.2677 -0.2233
  561MOL0     C75610   8.957   0.631   7.117  0.4172 -0.4012 -0.2152
  561MOL0     C75611   9.028   0.774   7.108  0.2596  0.3161  1.2767
  561MOL0     C75612   9.177   0.766   7.151 -0.6689  0.1521 -0.8420
  561MOL0     C75613   9.186   0.815   7.288 -0.0912  0.5180 -0.5355
  561MOL0     C75614   9.333   0.830   7.333  0.0778 -0.4821  0.0547
  561MOL0     C75615   9.396   0.954   7.278 -0.7794  0.1786  1.0157
  561MOL0     C75616   9.480   1.041   7.378 -0.0331 -0.1233  0.5668
  561MOL0     N75617   9.523   1.170   7.319 -0.1616 -0.7078 -0.7187
  561MOL0     C75618   9.570   1.183   7.199  0.3137  0.2337  0.5293
  561MOL0     C75619   9.572   1.315   7.165 -0.1436  0.1186 -0.1824
  561MOL0     C75620   9.618   1.391   7.032 -0.4229  0.0279  0.9881
  561MOL0     C75621   9.653   1.533   7.063 -0.0272  0.0301 -0.7308
  561MOL0     C75622   9.715   1.601   6.930  0.0760  0.0649 -0.6036
  561MOL0     C75623   9.733   1.755   6.941 -0.4746  0.0614  0.3179
  561MOL0     O75624   9.799   1.822   6.824  0.2290  0.0905 -0.8896
  561MOL0     C75625   9.939   1.830   6.839 -0.8708 -0.5864 -0.1276
  561MOL0     C75626  10.027   1.779   6.742 -0.6413 -0.0244 -0.0832
  561MOL0     C75627  10.169   1.795   6.752  0.3586  0.0853  1.0511
  561MOL0     C75628  10.224   1.869   6.856  0.0921 -1.4583 -0.3470
  561MOL0     C75629  10.370   1.885   6.873 -0.5407 -0.4306  0.6320
  561MOL0     O75630  10.453   1.851   6.767  0.2263  0.9270 -0.5803
  561MOL0     C75631  10.591   1.866   6.772 -0.1965  0.1231 -0.0564
  561MOL0     C75632  10.681   1.760   6.773  0.2134  0.4969  0.1176
  561MOL0     C75633  10.822   1.776   6.786  0.2745  0.1916  0.4099
  561MOL0     C75634  10.874   1.910   6.774  0.1291 -0.5252  0.5193
  561MOL0     O75635  11.005   1.939   6.756 -0.1346  0.6428 -0.7150
  561MOL0     C75636  11.068   2.060   6.795  0.8415 -0.2516 -0.6857
  561MOL0     C75637  11.222   2.044   6.772 -0.5306 -0.2223  0.5351
  561MOL0     C75638  11.297   1.950   6.865  0.5371 -0.1040 -0.1013
  561MOL0     C75639  11.434   1.937   6.812 -0.9524  0.4588  0.0602
  561MOL0     C75640  11.504   1.820   6.885  0.3863  0.0553 -0.4637
  561MOL0     C75641  11.631   1.774   6.821  0.0265 -0.7521 -0.0521
  561MOL0     C75642  11.706   1.681   6.913 -0.3856 -0.1003  0.4396
  561MOL0     C75643  11.830   1.604   6.862 -0.9638  0.4159 -0.6727
  561MOL0    Cl75644  11.773   1.503   6.715  0.4100 -0.1042  0.3601
  561MOL0     C75645  10.786   2.021   6.768 -0.5062  0.2645 -0.3450
  561MOL0     C75646  10.647   1.996   6.762  0.2282  0.7022 -0.2737
  561MOL0     O75647  10.413   1.929   6.979  0.3177  0.2899  0.2548
  561MOL0     C75648  10.137   1.928   6.957  0.4578 -0.1103  1.1171
  561MOL0     C75649   9.996   1.902   6.951  0.2063 -0.3182  0.4662
  561MOL0     N75650   9.515   1.388   7.267 -0.0505  0.2641  1.1236
  561MOL0     N75651   9.484   1.300   7.358 -0.1897  0.4984  0.5920
  561MOL0     C75652   8.516   0.452   7.123  1.1333 -0.2001 -0.0255
  561MOL0     C75653   8.381   0.457   7.097 -0.0205  0.8639  0.0388
  561MOL0     C75654   7.945   0.566   7.056  0.9017  0.1215  0.4407
  561MOL0     C75655   7.942   0.696   7.009  0.2189 -0.2016  0.3665
  561MOL0     C75656   7.817   0.757   6.977 -1.0018  0.2303 -0.7657
  561MOL0     C75657   7.698   0.691   6.987 -0.8788 -0.2140  1.1307
  561MOL0     O75658   7.580   0.747   6.948  0.1007  0.2172 -0.6637
  561MOL0     C75659   7.450   0.687   6.984  0.0950 -0.6501 -0.0048
  561MOL0     C75660   7.390   0.607   6.873  0.2033  0.7258 -0.1579
  561MOL0     C75661   7.249   0.562   6.911  0.2425 -0.0731 -0.5097
  561MOL0     C75662   7.203   0.477   6.795  0.3241  0.3934  0.3304
  561MOL0     C75663   7.080   0.412   6.835  0.1014  0.7526 -0.2082
  561MOL0     C75664   6.981   0.353   6.862 -0.1173 -0.0225  0.2303
  561MOL0     C75665   7.704   0.561   7.037 -0.7206  0.4357 -0.6009
  561MOL0     C75666   7.819   0.501   7.080  0.2022  0.3134  0.7300
  561MOL0     C75667   7.798   0.368   7.149 -0.1582 -0.5886 -0.2070
  561MOL0     H75668   8.359   0.779   6.994  3.3455  0.7577 -1.4280
  561MOL0     H75669   8.600   0.764   7.010  3.0707 -1.5538 -0.5290
  561MOL0     H75670   8.803   0.692   6.979 -0.1736  0.0273 -0.3172
  561MOL0     H75671   8.783   0.730   7.159 -1.1442 -1.6223  1.3618
  561MOL0     H75672   8.992   0.559   7.042 -0.7684 -3.1626  1.7350
  561MOL0     H75673   8.968   0.579   7.212 -1.3337  0.6646  0.6266
  561MOL0     H75674   8.976   0.848   7.170 -2.7314 -0.2490 -0.3522
  561MOL0     H75675   9.027   0.806   7.003 -0.5189 -0.1145  1.1462
  561MOL0     H75676   9.232   0.674   7.126 -1.5022 -1.2754  2.1637
  561MOL0     H75677   9.226   0.852   7.104  1.3795 -0.2617  0.4145
  561MOL0     H75678   9.138   0.911   7.308  3.5335  2.8032 -1.8531
  561MOL0     H75679   9.154   0.734   7.355  0.5440  0.0269 -0.8111
  561MOL0     H75680   9.336   0.830   7.442 -0.7815  0.8814  0.0986
  561MOL0     H75681   9.396   0.748   7.296  1.1459 -0.2480  1.2702
  561MOL0     H75682   9.319   1.025   7.247 -2.2743 -1.1846  1.4442
  561MOL0     H75683   9.451   0.932   7.186 -1.1435 -3.8686  1.5777
  561MOL0     H75684   9.423   1.057   7.470  1.2284  0.3650  1.2857
  561MOL0     H75685   9.574   0.991   7.400 -0.0129  0.1693  1.1758
  561MOL0     H75686   9.593   1.094   7.140  2.6351  0.0742  1.5326
  561MOL0     H75687   9.710   1.346   6.994 -1.4743  0.2596 -2.1506
  561MOL0     H75688   9.541   1.382   6.956 -0.8402 -0.0370  1.4153
  561MOL0     H75689   9.558   1.575   7.099  0.4546  1.4989 -1.0778
  561MOL0     H75690   9.727   1.530   7.143  1.4634  2.8804 -1.8243
  561MOL0     H75691   9.645   1.582   6.848 -0.6220  1.7696 -0.4453
  561MOL0     H75692   9.813   1.554   6.915 -0.7675 -1.9276 -0.0673
  561MOL0     H75693   9.793   1.769   7.031 -3.8971 -1.3162  3.0446
  561MOL0     H75694   9.638   1.804   6.965 -0.5928 -0.0259  0.0352
  561MOL0     H75695   9.984   1.717   6.664  1.5338 -2.5425  0.5687
  561MOL0     H75696  10.239   1.752   6.682  0.6790  0.4475  1.1500
  561MOL0     H75697  10.634   1.662   6.769 -0.6493  0.9315 -1.2034
  561MOL0     H75698  10.881   1.685   6.789  0.4706  0.2088 -1.6522
  561MOL0     H75699  11.030   2.146   6.738  0.3399 -0.0111 -0.0147
  561MOL0     H75700  11.044   2.082   6.900  0.6532 -0.9946 -0.5689
  561MOL0     H75701  11.238   2.018   6.666  1.0797 -2.1983  1.1910
  561MOL0     H75702  11.269   2.139   6.799 -0.3615 -0.8218  2.5196
  561MOL0     H75703  11.306   1.994   6.965 -0.7972 -1.3602  0.6061
  561MOL0     H75704  11.240   1.857   6.870  0.9187 -0.3672 -0.5431
  561MOL0     H75705  11.490   2.031   6.818  1.7302 -1.0399 -0.1243
  561MOL0     H75706  11.423   1.919   6.705  0.1926  0.7065 -0.1115
  561MOL0     H75707  11.445   1.729   6.884  1.7116 -0.8547  0.4265
  561MOL0     H75708  11.514   1.862   6.985 -1.2729  1.6073 -0.8946
  561MOL0     H75709  11.586   1.713   6.743 -1.3820 -0.7780  0.7571
  561MOL0     H75710  11.697   1.848   6.774  2.3090 -2.1834  0.7393
  561MOL0     H75711  11.626   1.613   6.942  0.0237 -0.9229 -0.3218
  561MOL0     H75712  11.740   1.737   7.001  0.4825 -0.3970  0.3046
  561MOL0     H75713  11.913   1.671   6.835  0.2830 -0.4189  0.9103
  561MOL0     H75714  11.870   1.535   6.938 -0.3207 -0.2061 -1.5485
  561MOL0     H75715  10.815   2.125   6.770  1.4040 -0.2243  0.7157
  561MOL0     H75716  10.584   2.085   6.759 -0.6337  0.2300  1.9410
  561MOL0     H75717  10.175   1.992   7.036 -1.2216  2.4531  0.0125
  561MOL0     H75718   9.938   1.953   7.027 -0.3997  1.3858 -1.0484
  561MOL0     H75719   8.564   0.356   7.144  3.0137  0.8729  0.8070
  561MOL0     H75720   8.332   0.365   7.127  2.1172  0.2797  2.0444
  561MOL0     H75721   8.027   0.762   6.994 -0.8192  0.6910 -2.1195
  561MOL0     H75722   7.831   0.863   6.958  2.9245 -0.2164 -1.0887
  561MOL0     H75723   7.376   0.762   7.013 -2.0621 -2.2048 -1.2066
  561MOL0     H75724   7.450   0.629   7.077 -2.6259  1.6349  1.5785
  561MOL0     H75725   7.452   0.518   6.856 -0.6754  0.1787 -0.5162
  561MOL0     H75726   7.388   0.667   6.782  0.8720 -1.3453 -1.5904
  561MOL0     H75727   7.184   0.646   6.936  0.5759  0.2329 -0.6607
  561MOL0     H75728   7.251   0.505   7.005 -0.9536  3.2225  1.7010
  561MOL0     H75729   7.188   0.531   6.700  1.4580  0.2106  0.0345
  561MOL0     H75730   7.273   0.394   6.780  0.7553  0.6436  0.9063
  561MOL0     H75731   6.886   0.310   6.883 -2.1300  3.2118 -1.4862
  561MOL0     H75732   7.614   0.500   7.040 -0.8760  0.6737 -0.3815
  561MOL0     H75733   7.825   0.372   7.255 -0.2129 -1.8017 -0.1333
  561MOL0     H75734   7.691   0.346   7.147 -0.7358  1.4810  2.4994
  561MOL0     H75735   7.864   0.295   7.101  2.9254  1.5856  0.3921
  562MOL0     O75736   3.458  10.411   7.805  0.1006  0.2650  0.5613
  562MOL0     C75737   3.372  10.353   7.871  0.5664 -0.6713 -0.2248
  562MOL0     O75738   3.400  10.274   7.978 -0.0772 -0.1111 -0.0796
  562MOL0     C75739   3.516  10.295   8.042 -0.4003  0.0396 -1.0300
  562MOL0     C75740   3.629  10.203   8.026 -0.7941 -0.0310  0.1752
  562MOL0     C75741   3.754  10.231   8.082  0.3767 -0.1735  0.0370
  562MOL0     C75742   3.766  10.340   8.176  0.4078 -0.0695 -0.4305
  562MOL0     O75743   3.870  10.376   8.256 -0.3726  0.2624 -0.4928
  562MOL0     C75744   3.934  10.257   8.314 -0.3154  0.3058  0.6174
  562MOL0     C75745   4.079  10.276   8.369  0.3361 -0.0429 -0.5285
  562MOL0     C75746   4.143  10.151   8.429  0.4121 -0.5958 -0.2296
  562MOL0     C75747   4.284  10.172   8.477  0.2495  0.3736  0.5374
  562MOL0     C75748   4.361  10.037   8.505 -0.3862 -0.2425 -0.3787
  562MOL0     C75749   4.511  10.068   8.523 -0.4908  0.7452 -0.2181
  562MOL0     C75750   4.558  10.182   8.601  0.1058 -0.3964 -0.3249
  562MOL0     C75751   4.713  10.191   8.637 -0.6646  0.4615 -0.1862
  562MOL0     N75752   4.797  10.218   8.518  0.5914 -0.4312 -0.0328
  562MOL0     C75753   4.846  10.345   8.493  0.0688 -0.4158  0.2358
  562MOL0     C75754   4.938  10.337   8.396  0.3044 -0.8913  0.3228
  562MOL0     C75755   5.010  10.444   8.321 -0.4863 -0.1161 -0.6876
  562MOL0     C75756   5.043  10.571   8.407  1.2564  0.7598  0.0812
  562MOL0     C75757   5.133  10.673   8.335  0.5917  0.8692 -0.2886
  562MOL0     C75758   5.086  10.695   8.188 -0.6013 -1.1353  1.0814
  562MOL0     O75759   5.146  10.820   8.151  0.1614  0.3381  0.1500
  562MOL0     C75760   5.272  10.825   8.095 -0.5613  0.8403  0.4736
  562MOL0     C75761   5.312  10.952   8.051  0.6669 -0.0457  0.2963
  562MOL0     C75762   5.435  10.973   7.992  0.6514  0.1329 -0.0456
  562MOL0     C75763   5.537  10.872   7.980 -0.7769  0.0421  0.6928
  562MOL0     C75764   5.681  10.899   7.930 -0.0539  0.5971  0.4610
  562MOL0     O75765   5.766  10.795   7.964 -0.1609 -0.0740 -0.0585
  562MOL0     C75766   5.902  10.812   7.972  0.6823  0.0939  0.1797
  562MOL0     C75767   5.983  10.922   7.998 -0.1296 -1.3939  0.0188
  562MOL0     C75768   6.117  10.908   8.016  1.1123  0.2780  0.4966
  562MOL0     C75769   6.176  10.783   7.989 -0.0689 -0.8134  0.6333
  562MOL0     O75770   6.310  10.779   7.990 -0.4275 -0.1469 -0.7927
  562MOL0     C75771   6.362  10.799   7.860 -0.4263  0.0404 -0.5963
  562MOL0     C75772   6.508  10.835   7.891  0.3114 -0.1627  0.1265
  562MOL0     C75773   6.582  10.829   7.762  0.9699  0.1246 -0.3262
  562MOL0     C75774   6.724  10.873   7.786  0.1444  0.3333 -0.4308
  562MOL0     C75775   6.799  10.890   7.649 -0.1833 -0.7843 -0.7253
  562MOL0     C75776   6.951  10.896   7.674  0.0628 -0.2403  0.1646
  562MOL0     C75777   7.030  10.963   7.562  0.2115  0.7183 -0.3601
  562MOL0     C75778   6.991  10.926   7.421  0.5675 -0.0110  0.6886
  562MOL0    Cl75779   7.122  10.962   7.301  0.1961  0.0946 -0.0244
  562MOL0     C75780   6.104  10.676   7.962  0.3133  0.1126  0.9276
  562MOL0     C75781   5.969  10.688   7.945  0.5635 -0.7666  0.2176
  562MOL0     O75782   5.713  11.001   7.863 -0.2028  0.3944 -0.2544
  562MOL0     C75783   5.501  10.748   8.030 -0.4852  0.1523 -0.0661
  562MOL0     C75784   5.371  10.722   8.079  0.3657  0.0513 -0.1043
  562MOL0     N75785   4.939  10.208   8.352 -0.4364 -0.3065 -0.3267
  562MOL0     N75786   4.863  10.136   8.436  0.0940  0.6475 -0.1753
  562MOL0     C75787   3.652  10.429   8.183  0.0603  0.2677 -0.3746
  562MOL0     C75788   3.527  10.403   8.122  0.1141  0.1331  0.1494
  562MOL0     C75789   3.238  10.412   7.844 -0.6783 -0.1377 -0.1790
  562MOL0     C75790   3.213  10.454   7.711  0.1513  0.0497 -0.8034
  562MOL0     C75791   3.091  10.503   7.671 -0.3941 -0.2840 -0.2054
  562MOL0     C75792   2.987  10.519   7.768 -0.0490 -0.0940  0.6286
  562MOL0     O75793   2.863  10.548   7.715  0.4075 -0.7273  0.6219
  562MOL0     C75794   2.766  10.587   7.808 -0.2088  0.1816  0.1172
  562MOL0     C75795   2.673  10.688   7.742 -0.5797  0.4072  0.1531
  562MOL0     C75796   2.568  10.733   7.832 -0.2595 -0.2307 -0.8695
  562MOL0     C75797   2.442  10.804   7.779  0.5506 -0.3881  0.3093
  562MOL0     C75798   2.478  10.928   7.714 -0.1129  0.3040  0.4352
  562MOL0     C75799   2.498  11.035   7.663 -0.3472  0.0264  0.1854
  562MOL0     C75800   3.013  10.482   7.899 -0.1992 -0.5870  0.1751
  562MOL0     C75801   3.138  10.425   7.941 -0.3624  0.8983  0.7549
  562MOL0     C75802   3.149  10.376   8.085 -0.2028 -1.0740  0.2043
  562MOL0     H75803   3.612  10.112   7.969  2.9671 -0.6839 -0.1184
  562MOL0     H75804   3.839  10.168   8.059  0.9540  1.0167 -1.2065
  562MOL0     H75805   3.878  10.220   8.400 -0.5067 -2.4323 -0.5797
  562MOL0     H75806   3.932  10.168   8.250  0.6197 -2.4650  4.1360
  562MOL0     H75807   4.078  10.360   8.440  0.3808  0.7896 -1.4938
  562MOL0     H75808   4.146  10.299   8.286  0.2965 -1.5970 -1.0153
  562MOL0     H75809   4.133  10.065   8.363 -1.0866 -2.7935  2.6156
  562MOL0     H75810   4.088  10.116   8.517  0.5120 -0.9924 -0.3231
  562MOL0     H75811   4.340  10.231   8.404 -0.4514  1.2109  0.6470
  562MOL0     H75812   4.272  10.235   8.567 -1.2213 -0.3593  0.8957
  562MOL0     H75813   4.314   9.993   8.593  1.6462  0.7660  1.3125
  562MOL0     H75814   4.351   9.969   8.420  4.5885  0.4021 -1.8022
  562MOL0     H75815   4.548   9.977   8.572 -0.8612 -0.5863 -2.2566
  562MOL0     H75816   4.563  10.067   8.426 -0.1827 -1.3033 -0.0809
  562MOL0     H75817   4.499  10.172   8.693 -1.8536  4.2429 -0.8065
  562MOL0     H75818   4.539  10.277   8.551  1.0500  0.4000  0.7549
  562MOL0     H75819   4.727  10.266   8.715  1.4376 -0.1635  0.0875
  562MOL0     H75820   4.741  10.097   8.687  2.1207  0.8479 -0.8836
  562MOL0     H75821   4.809  10.431   8.548  0.8827  0.2396 -0.2169
  562MOL0     H75822   5.110  10.410   8.290  0.2622  1.1768  0.1808
  562MOL0     H75823   4.952  10.459   8.230 -1.0544 -0.7986 -0.4452
  562MOL0     H75824   4.951  10.628   8.424  2.2922  2.6982 -0.4968
  562MOL0     H75825   5.079  10.544   8.507  0.0151  1.1889  0.6689
  562MOL0     H75826   5.235  10.635   8.342 -0.2107 -1.3921 -0.0624
  562MOL0     H75827   5.126  10.766   8.393  1.1292  0.1315  1.0152
  562MOL0     H75828   4.976  10.693   8.187 -0.6517 -0.1810  2.2809
  562MOL0     H75829   5.116  10.607   8.130 -1.6562 -1.2640  0.7071
  562MOL0     H75830   5.247  11.039   8.060  0.3223 -0.3479  0.7788
  562MOL0     H75831   5.477  11.068   7.962  0.2445  0.1554 -0.5582
  562MOL0     H75832   5.933  11.015   8.023 -1.3257 -2.4008  1.4575
  562MOL0     H75833   6.180  10.996   8.019 -1.0176  1.9517 -0.9232
  562MOL0     H75834   6.351  10.714   7.792 -0.5202 -0.2509 -0.2192
  562MOL0     H75835   6.306  10.879   7.810 -1.1413 -0.3718 -0.4589
  562MOL0     H75836   6.508  10.937   7.930 -3.1368 -0.8200  2.2975
  562MOL0     H75837   6.548  10.754   7.953  2.2933  0.6425 -0.0533
  562MOL0     H75838   6.576  10.732   7.712  0.9080  1.1151 -2.3327
  562MOL0     H75839   6.543  10.899   7.688  1.7929  0.1822 -0.7116
  562MOL0     H75840   6.773  10.795   7.845  2.7427  2.6815  0.7312
  562MOL0     H75841   6.731  10.962   7.849  1.0616 -1.1699  1.7035
  562MOL0     H75842   6.772  10.980   7.593  1.6075 -0.6912 -1.4947
  562MOL0     H75843   6.778  10.802   7.587 -0.5131 -0.4937 -1.0339
  562MOL0     H75844   6.969  10.967   7.756  0.5291  0.8454 -0.8547
  562MOL0     H75845   6.978  10.793   7.698 -0.8358 -0.0517  2.2179
  562MOL0     H75846   7.137  10.949   7.580 -0.3983 -1.0536  2.5613
  562MOL0     H75847   7.019  11.072   7.571 -4.3970  0.3367  1.1429
  562MOL0     H75848   6.964  10.820   7.417 -0.8803  0.3719 -0.0792
  562MOL0     H75849   6.898  10.977   7.395 -1.5394 -2.2983  3.0640
  562MOL0     H75850   6.163  10.588   7.939 -2.4425 -2.0114  1.4378
  562MOL0     H75851   5.911  10.606   7.905  1.9390 -1.3576 -0.6293
  562MOL0     H75852   5.577  10.670   8.026  2.7060  3.0265 -0.4439
  562MOL0     H75853   5.351  10.626   8.125 -3.3406  1.3783  1.4456
  562MOL0     H75854   3.653  10.522   8.239 -2.1580  3.3484 -4.8713
  562MOL0     H75855   3.439  10.460   8.149 -1.0068 -1.3896 -0.1510
  562MOL0     H75856   3.287  10.436   7.634  0.0814 -1.6851 -0.5086
  562MOL0     H75857   3.065  10.520   7.567  0.3405 -0.7075 -0.4661
  562MOL0     H75858   2.812  10.651   7.883  2.6536 -0.5014 -0.9104
  562MOL0     H75859   2.717  10.503   7.857  0.3646 -1.6980 -2.3110
  562MOL0     H75860   2.631  10.643   7.652  2.3838 -1.4821 -0.4115
  562MOL0     H75861   2.740  10.769   7.713 -1.4620  1.9740  2.2382
  562MOL0     H75862   2.622  10.796   7.903  2.2683  0.6301 -3.3600
  562MOL0     H75863   2.543  10.638   7.881  1.8981 -1.6570 -2.3253
  562MOL0     H75864   2.387  10.751   7.701 -3.6049  2.4595  0.9675
  562MOL0     H75865   2.375  10.825   7.862 -2.7252  1.3298 -2.5312
  562MOL0     H75866   2.538  11.128   7.628 -1.2978 -0.1086 -1.2966
  562MOL0     H75867   2.940  10.489   7.979  0.2330  0.4261  0.4999
  562MOL0     H75868   3.201  10.280   8.093  0.9312 -0.4486  0.6178
  562MOL0     H75869   3.203  10.457   8.134 -0.9223 -1.1657  1.1929
  562MOL0     H75870   3.051  10.358   8.131 -0.7297  1.9581  0.5075
  563MOL0     O75871   6.060   9.165   1.361  0.2161  0.4159 -0.5877
  563MOL0     C75872   5.970   9.111   1.294 -0.2706  0.1690  0.0476
  563MOL0     O75873   5.988   9.041   1.169  0.2738 -0.2054 -0.8263
  563MOL0     C75874   6.117   9.048   1.122  0.1081 -0.6016  0.1487
  563MOL0     C75875   6.190   9.171   1.089  0.4929 -0.5524 -0.7575
  563MOL0     C75876   6.323   9.169   1.051  0.2193  0.2639  1.2800
  563MOL0     C75877   6.394   9.044   1.029  0.0267  0.3675  0.2970
  563MOL0     O75878   6.522   9.056   0.975 -0.2091  0.0833 -0.1055
  563MOL0     C75879   6.598   8.933   0.980  0.1687  0.1251  0.3885
  563MOL0     C75880   6.742   8.979   0.949 -1.0628 -0.5006  0.8235
  563MOL0     C75881   6.849   8.873   0.993  0.7673 -0.3437  1.2866
  563MOL0     C75882   6.886   8.785   0.871  0.3922  0.4009  0.6608
  563MOL0     C75883   6.983   8.681   0.913 -0.5789  0.0056 -0.3921
  563MOL0     C75884   7.045   8.615   0.782  0.2675  0.5418 -0.0207
  563MOL0     C75885   7.157   8.506   0.818 -0.0553 -0.4513  0.0637
  563MOL0     C75886   7.182   8.423   0.699 -0.4088  1.3461  0.8316
  563MOL0     N75887   7.288   8.319   0.703 -0.3902 -0.3098  0.1901
  563MOL0     C75888   7.314   8.244   0.815  0.1478 -0.4381 -0.4600
  563MOL0     C75889   7.426   8.169   0.791 -0.7854 -0.4233 -0.2760
  563MOL0     C75890   7.497   8.079   0.890 -0.5995  0.3266  0.1511
  563MOL0     C75891   7.641   8.126   0.931  0.1538  0.3918 -0.1719
  563MOL0     C75892   7.632   8.266   1.010 -1.1786 -0.7340 -0.6669
  563MOL0     C75893   7.746   8.293   1.109  0.4579 -0.0215 -0.1830
  563MOL0     O75894   7.742   8.210   1.222 -0.6862 -0.7565 -0.3594
  563MOL0     C75895   7.842   8.216   1.316  1.1164 -0.3241  0.8325
  563MOL0     C75896   7.835   8.141   1.437  0.3470  0.0088  0.5374
  563MOL0     C75897   7.936   8.134   1.527 -0.8648 -0.5572  0.3050
  563MOL0     C75898   8.060   8.200   1.505 -0.5135 -0.4279 -0.2664
  563MOL0     C75899   8.177   8.180   1.583 -0.1418 -0.2882 -1.0239
  563MOL0     O75900   8.281   8.254   1.564  0.7493 -0.2060 -0.2751
  563MOL0     C75901   8.412   8.228   1.608 -0.2306 -0.1647  0.4054
  563MOL0     C75902   8.449   8.099   1.650 -0.0304 -0.6119  0.8348
  563MOL0     C75903   8.581   8.086   1.695  0.1275 -1.0071 -1.2385
  563MOL0     C75904   8.676   8.196   1.701  0.5500 -0.0624 -0.0894
  563MOL0     O75905   8.807   8.175   1.744 -0.2185 -0.1726 -0.5575
  563MOL0     C75906   8.897   8.279   1.778 -0.1799 -0.2355 -0.4152
  563MOL0     C75907   9.039   8.232   1.808  0.4108 -1.0587  0.3669
  563MOL0     C75908   9.139   8.349   1.834 -0.2785 -0.1272 -1.2252
  563MOL0     C75909   9.272   8.300   1.870 -0.0014  0.1726  0.6663
  563MOL0     C75910   9.372   8.414   1.893  0.2950 -0.0371 -0.2622
  563MOL0     C75911   9.515   8.366   1.902  0.0899  0.1010 -0.4598
  563MOL0     C75912   9.622   8.480   1.935  1.6114 -0.7126 -0.3382
  563MOL0     C75913   9.751   8.467   1.852  0.8360 -0.1717  0.2091
  563MOL0    Cl75914   9.826   8.304   1.863 -0.1024  0.3970 -0.2377
  563MOL0     C75915   8.632   8.319   1.655 -0.0922  0.1588  0.3252
  563MOL0     C75916   8.498   8.338   1.611  0.0499 -0.9195 -0.8845
  563MOL0     O75917   8.173   8.091   1.673 -0.2736 -0.4566  0.0443
  563MOL0     C75918   8.067   8.289   1.390  0.2709  0.2319  0.2540
  563MOL0     C75919   7.967   8.291   1.299 -0.5391  0.2532 -0.2513
  563MOL0     N75920   7.460   8.205   0.661 -0.3715  0.1848 -0.2119
  563MOL0     N75921   7.388   8.303   0.613 -0.2674  0.3414 -0.7497
  563MOL0     C75922   6.325   8.928   1.061  0.3038 -0.3773  0.2310
  563MOL0     C75923   6.190   8.933   1.102  0.3846  0.8016  1.2517
  563MOL0     C75924   5.839   9.113   1.353  0.2978 -0.2499 -0.2445
  563MOL0     C75925   5.734   9.078   1.267 -0.0736 -0.2331  0.6470
  563MOL0     C75926   5.601   9.082   1.304 -0.9112 -0.1163 -0.4939
  563MOL0     C75927   5.570   9.107   1.435  0.2686 -1.0356 -1.1217
  563MOL0     O75928   5.441   9.127   1.485  0.0751  0.1029 -0.1942
  563MOL0     C75929   5.363   9.017   1.515  0.5850 -0.2366 -0.5132
  563MOL0     C75930   5.387   8.959   1.657  0.2585  0.2915  0.6556
  563MOL0     C75931   5.343   9.053   1.765  0.5567  0.7210 -0.8467
  563MOL0     C75932   5.186   9.061   1.757 -0.5546 -0.0613 -0.8273
  563MOL0     C75933   5.138   9.060   1.898  0.2477 -0.0017  0.5467
  563MOL0     C75934   5.090   9.064   2.013 -0.2239 -0.9129 -0.2204
  563MOL0     C75935   5.672   9.150   1.524 -0.0544 -0.5194 -0.6403
  563MOL0     C75936   5.807   9.157   1.486  0.8239  0.0986  0.5123
  563MOL0     C75937   5.906   9.194   1.598  0.2012 -0.2144  0.5069
  563MOL0     H75938   6.127   9.259   1.095 -0.0222 -0.9178 -0.7464
  563MOL0     H75939   6.373   9.263   1.031  0.1200  0.1170  0.2842
  563MOL0     H75940   6.597   8.894   1.082 -1.7381 -0.1967  0.2876
  563MOL0     H75941   6.569   8.861   0.902  0.9226 -1.7933  1.7961
  563MOL0     H75942   6.748   9.073   1.006 -1.3794 -0.0655  0.1504
  563MOL0     H75943   6.747   9.004   0.843 -2.4562  0.6627  0.9974
  563MOL0     H75944   6.811   8.807   1.072 -4.7900  0.0977 -0.5597
  563MOL0     H75945   6.942   8.924   1.018  0.9966 -1.2405  2.3686
  563MOL0     H75946   6.794   8.731   0.848 -1.3005  2.4581  2.2485
  563MOL0     H75947   6.918   8.839   0.781  0.9545 -0.7129  0.1622
  563MOL0     H75948   7.067   8.732   0.961 -1.2772  1.8503 -1.0355
  563MOL0     H75949   6.938   8.601   0.973  3.6944 -2.4750 -0.0896
  563MOL0     H75950   6.960   8.558   0.741  1.0797  0.2481 -1.3705
  563MOL0     H75951   7.080   8.691   0.711  0.9321  0.1170 -0.1510
  563MOL0     H75952   7.110   8.445   0.896 -1.0688  0.3369  0.0807
  563MOL0     H75953   7.252   8.537   0.863 -1.5766  1.8801  1.8845
  563MOL0     H75954   7.093   8.369   0.665  0.8969  0.3919 -1.2651
  563MOL0     H75955   7.203   8.492   0.617  1.8599  1.3939  1.4043
  563MOL0     H75956   7.254   8.252   0.905  1.2879  0.6882  0.2517
  563MOL0     H75957   7.432   8.065   0.976  1.2417 -1.2127  1.3870
  563MOL0     H75958   7.508   7.977   0.851  2.5865  0.8950 -0.8086
  563MOL0     H75959   7.695   8.055   0.995  1.6732  0.8559 -0.9047
  563MOL0     H75960   7.699   8.145   0.840  1.3052 -0.0974  0.4408
  563MOL0     H75961   7.540   8.271   1.069  0.1003 -2.7449  1.7003
  563MOL0     H75962   7.628   8.349   0.939 -2.2221  0.2979  0.5450
  563MOL0     H75963   7.743   8.392   1.155  3.0143 -0.2737  0.6924
  563MOL0     H75964   7.843   8.280   1.061  0.2349  0.2026 -0.7045
  563MOL0     H75965   7.744   8.083   1.451 -0.7378  1.7750  1.1930
  563MOL0     H75966   7.926   8.079   1.620 -0.3962  0.7776  1.1717
  563MOL0     H75967   8.375   8.022   1.632 -1.7926  1.2235 -0.2288
  563MOL0     H75968   8.618   7.990   1.731  0.0362  0.0572  1.9644
  563MOL0     H75969   8.909   8.351   1.696 -0.9354  1.5808  1.0046
  563MOL0     H75970   8.874   8.342   1.865 -0.5181 -0.1417 -0.5719
  563MOL0     H75971   9.044   8.166   1.895  2.8356 -0.8774  0.4228
  563MOL0     H75972   9.069   8.174   1.720  1.0417 -0.3702  0.1224
  563MOL0     H75973   9.141   8.412   1.744 -1.8851 -0.8722 -1.8233
  563MOL0     H75974   9.106   8.409   1.918  0.4981 -0.8466 -0.3870
  563MOL0     H75975   9.311   8.236   1.791 -2.1567 -1.9254  1.2092
  563MOL0     H75976   9.266   8.230   1.954  1.9971 -0.3729  0.3974
  563MOL0     H75977   9.352   8.461   1.989  0.9659  0.1326 -0.2046
  563MOL0     H75978   9.364   8.500   1.825  1.9467  3.0607  3.1427
  563MOL0     H75979   9.532   8.295   1.983 -2.4943 -0.2054 -0.1018
  563MOL0     H75980   9.537   8.323   1.804 -2.5266  3.2805 -2.6635
  563MOL0     H75981   9.644   8.471   2.042 -0.9245  1.4794  0.4667
  563MOL0     H75982   9.577   8.576   1.911  3.9936  0.1742 -1.5599
  563MOL0     H75983   9.730   8.495   1.749  0.1182 -3.4500 -0.6203
  563MOL0     H75984   9.812   8.547   1.896  0.7644  1.4329 -2.3957
  563MOL0     H75985   8.707   8.394   1.633  0.2372 -0.3835 -0.4418
  563MOL0     H75986   8.456   8.436   1.590  2.8079  0.6118  0.2388
  563MOL0     H75987   8.155   8.345   1.360 -0.4161  1.5519  0.6205
  563MOL0     H75988   7.980   8.345   1.206  2.0110  0.1112 -0.0458
  563MOL0     H75989   6.371   8.830   1.058 -1.4797 -1.2834  0.9968
  563MOL0     H75990   6.154   8.835   1.131  0.6104  0.0807 -0.7368
  563MOL0     H75991   5.747   9.050   1.163 -0.3284 -1.5316  0.9366
  563MOL0     H75992   5.528   9.057   1.227 -0.5267 -4.7966  0.3668
  563MOL0     H75993   5.378   8.941   1.438 -1.3176  0.3296 -1.5280
  563MOL0     H75994   5.257   9.043   1.514  0.8526  0.8741 -0.9656
  563MOL0     H75995   5.489   8.926   1.679  0.7733  0.4478 -1.2799
  563MOL0     H75996   5.331   8.865   1.655 -1.0978  1.0741  0.7962
  563MOL0     H75997   5.397   9.147   1.749  0.0252  1.5815  1.7813
  563MOL0     H75998   5.371   9.021   1.866  1.6678  0.2871 -1.2760
  563MOL0     H75999   5.154   9.151   1.705 -1.1201  0.3680  0.2279
  563MOL0     H76000   5.153   8.970   1.706 -1.1614 -1.5796  2.0138
  563MOL0     H76001   5.054   9.066   2.114  0.5842 -1.4928  0.0901
  563MOL0     H76002   5.645   9.173   1.627  0.5641 -0.6096 -0.4569
  563MOL0     H76003   5.860   9.162   1.692 -1.4700  0.4950 -0.0272
  563MOL0     H76004   5.998   9.135   1.592  0.5371  0.3144  0.4259
  563MOL0     H76005   5.938   9.297   1.584  0.0370 -0.2191  0.0729
  564MOL0     O76006   7.049   7.301   3.003 -0.1305  0.2561  0.3311
  564MOL0     C76007   7.000   7.356   2.914  0.3979  0.6872  0.5081
  564MOL0     O76008   7.046   7.471   2.857  0.1241 -0.5714 -0.0509
  564MOL0     C76009   7.155   7.530   2.917  0.1640 -0.5577 -1.3815
  564MOL0     C76010   7.281   7.482   2.873  0.3565  0.1252  0.2343
  564MOL0     C76011   7.402   7.520   2.933 -0.1798 -0.2318 -0.4428
  564MOL0     C76012   7.399   7.610   3.036  0.4251  0.3052 -0.2825
  564MOL0     O76013   7.521   7.637   3.091  0.5755 -0.6075 -0.9418
  564MOL0     C76014   7.567   7.773   3.078 -0.0352 -0.2390  0.4489
  564MOL0     C76015   7.685   7.780   2.978  0.2026  0.2725  0.3615
  564MOL0     C76016   7.786   7.674   2.978 -0.2766 -0.2569  0.4014
  564MOL0     C76017   7.844   7.660   3.119 -0.4797  0.0205  0.7734
  564MOL0     C76018   7.943   7.556   3.116  0.0677  0.4094  0.4144
  564MOL0     C76019   8.036   7.544   3.233  0.1012 -0.2201  0.3303
  564MOL0     C76020   8.120   7.417   3.214  0.1508  0.3988  0.0340
  564MOL0     C76021   8.226   7.383   3.325  0.1399 -0.1375  0.0165
  564MOL0     N76022   8.293   7.251   3.312  0.5801 -0.9286 -0.2421
  564MOL0     C76023   8.351   7.201   3.201 -0.4414  0.6936  0.6069
  564MOL0     C76024   8.403   7.081   3.249 -0.3180 -0.2845  0.3581
  564MOL0     C76025   8.488   6.995   3.162 -0.2420  0.3496  0.1238
  564MOL0     C76026   8.607   7.062   3.097  0.5060  0.2578 -0.4250
  564MOL0     C76027   8.659   6.974   2.987 -0.7818  1.1134 -0.0283
  564MOL0     C76028   8.774   6.885   3.046  1.2395  0.3412 -1.5289
  564MOL0     O76029   8.715   6.795   3.138  0.1071  0.0859  0.5526
  564MOL0     C76030   8.782   6.726   3.239 -0.3917 -0.7873 -0.1156
  564MOL0     C76031   8.919   6.723   3.245  0.5313  0.4826  0.0048
  564MOL0     C76032   8.978   6.643   3.346  0.8279  0.0790 -0.0897
  564MOL0     C76033   8.904   6.567   3.436 -0.4330 -0.7623 -0.1613
  564MOL0     C76034   8.969   6.480   3.538 -0.5353 -0.1601 -0.1837
  564MOL0     O76035   9.090   6.521   3.577  0.3981 -0.4970 -0.5362
  564MOL0     C76036   9.160   6.436   3.667 -0.8289 -0.6228 -0.7361
  564MOL0     C76037   9.128   6.415   3.798 -0.3192  0.4554 -0.4082
  564MOL0     C76038   9.200   6.335   3.885 -0.0285 -0.4614  0.2162
  564MOL0     C76039   9.317   6.272   3.844  0.2616  0.0851 -0.2861
  564MOL0     O76040   9.384   6.195   3.935  0.0095  0.1314 -0.5203
  564MOL0     C76041   9.529   6.176   3.916 -0.0616  0.3038 -0.3259
  564MOL0     C76042   9.582   6.071   4.015  0.1651  0.3056  0.1972
  564MOL0     C76043   9.736   6.091   4.037 -0.1611 -0.1765  0.4646
  564MOL0     C76044   9.813   6.024   3.922  0.6455  0.5424  0.2803
  564MOL0     C76045   9.960   6.029   3.948  0.0394 -0.6290 -0.1454
  564MOL0     C76046  10.043   5.961   3.836 -0.2689 -0.8995  0.6127
  564MOL0     C76047  10.177   5.908   3.885 -0.7632 -0.1395  0.4377
  564MOL0     C76048  10.294   5.916   3.785  0.0879  0.1983 -0.1205
  564MOL0    Cl76049  10.226   5.812   3.660 -0.2051 -0.1178  0.1949
  564MOL0     C76050   9.358   6.293   3.716  0.3816  0.4714 -0.0310
  564MOL0     C76051   9.286   6.377   3.630  0.4714  0.2268 -0.1337
  564MOL0     O76052   8.911   6.379   3.572  0.4090  0.2073 -0.5494
  564MOL0     C76053   8.758   6.571   3.428  0.2920  0.4800  0.2660
  564MOL0     C76054   8.703   6.646   3.321  0.3877 -0.1570  0.9672
  564MOL0     N76055   8.370   7.059   3.386  0.4643  0.3726  0.7587
  564MOL0     N76056   8.300   7.165   3.412 -0.8575 -0.4240  0.0453
  564MOL0     C76057   7.279   7.672   3.081 -0.0973  0.0666  0.0854
  564MOL0     C76058   7.158   7.617   3.030  0.7135  0.6250  0.2391
  564MOL0     C76059   6.882   7.295   2.858  0.1204 -0.6375  0.5776
  564MOL0     C76060   6.860   7.318   2.720  0.4445 -0.1531  0.1391
  564MOL0     C76061   6.762   7.253   2.648  0.1458  0.6858  1.0142
  564MOL0     C76062   6.681   7.153   2.706  1.0268  0.0819  0.0281
  564MOL0     O76063   6.582   7.089   2.634 -0.3774 -0.6334 -0.4300
  564MOL0     C76064   6.577   7.093   2.488  0.0124  0.2586 -0.2521
  564MOL0     C76065   6.441   7.038   2.468 -0.1114 -0.0282 -0.3407
  564MOL0     C76066   6.392   7.032   2.320  0.9594 -0.1080 -0.7170
  564MOL0     C76067   6.344   7.166   2.266 -0.9766  0.1517  0.0709
  564MOL0     C76068   6.210   7.167   2.196 -0.8152  0.2157 -0.0238
  564MOL0     C76069   6.098   7.172   2.153  0.1729  0.2516  0.1792
  564MOL0     C76070   6.704   7.135   2.846  0.7885 -0.2411  0.9400
  564MOL0     C76071   6.798   7.197   2.914 -0.5245 -0.3533  0.2641
  564MOL0     C76072   6.800   7.166   3.061  0.7748 -0.0282  0.5041
  564MOL0     H76073   7.294   7.400   2.802 -2.3554 -0.0124 -0.2172
  564MOL0     H76074   7.491   7.466   2.902 -0.4517 -2.3320  2.0528
  564MOL0     H76075   7.484   7.831   3.036 -3.3104 -3.9619  1.1907
  564MOL0     H76076   7.588   7.823   3.173 -0.4014 -0.7231  0.7872
  564MOL0     H76077   7.732   7.878   2.988  0.2894  0.4691 -1.6019
  564MOL0     H76078   7.646   7.782   2.876  0.8862  0.5711  0.1049
  564MOL0     H76079   7.849   7.704   2.894 -2.5172  0.9951 -0.9425
  564MOL0     H76080   7.746   7.578   2.942 -2.4775  0.5816  0.4174
  564MOL0     H76081   7.900   7.748   3.152 -1.0800  1.1410 -1.0801
  564MOL0     H76082   7.772   7.624   3.193  1.2791 -0.9893  2.0916
  564MOL0     H76083   7.890   7.465   3.088  0.6454 -0.1456  1.1011
  564MOL0     H76084   8.005   7.585   3.030 -2.4999  1.7991 -1.0847
  564MOL0     H76085   8.103   7.630   3.238  0.6170 -0.6869  2.1518
  564MOL0     H76086   7.987   7.526   3.329  1.5118 -0.4618  1.0230
  564MOL0     H76087   8.178   7.423   3.122  1.2877  1.6403  0.7989
  564MOL0     H76088   8.045   7.338   3.202  2.2535 -1.5960 -0.6436
  564MOL0     H76089   8.313   7.449   3.327  0.0725  0.0240  3.5220
  564MOL0     H76090   8.185   7.383   3.426  1.6239 -1.7762  0.6766
  564MOL0     H76091   8.362   7.239   3.100  0.6605  1.3045  0.9403
  564MOL0     H76092   8.517   6.900   3.208 -1.4260 -0.5448 -0.9138
  564MOL0     H76093   8.421   6.966   3.081 -2.5814  0.7410  1.8162
  564MOL0     H76094   8.578   7.155   3.047 -3.7763 -1.3135 -1.3141
  564MOL0     H76095   8.689   7.080   3.167  0.6374 -1.7704 -0.0002
  564MOL0     H76096   8.704   7.039   2.911  0.6096  1.6364  1.1934
  564MOL0     H76097   8.578   6.922   2.935  0.5835 -0.1671 -0.9467
  564MOL0     H76098   8.843   6.958   3.089  0.6424  1.1312 -1.8926
  564MOL0     H76099   8.829   6.822   2.975  1.4918 -0.8561 -0.3198
  564MOL0     H76100   8.994   6.773   3.185 -0.9371  0.2560 -2.1625
  564MOL0     H76101   9.086   6.637   3.360  0.4819 -2.7578  2.7334
  564MOL0     H76102   9.039   6.458   3.845  1.2532  1.5338  1.7888
  564MOL0     H76103   9.168   6.313   3.987  1.0307 -2.0156  0.2396
  564MOL0     H76104   9.555   6.155   3.812  0.9728 -1.7077  0.2992
  564MOL0     H76105   9.586   6.264   3.946  3.1508 -1.1118 -1.7919
  564MOL0     H76106   9.534   6.104   4.108 -1.0916  0.7924 -0.5926
  564MOL0     H76107   9.550   5.970   3.987 -2.9710  1.0536  0.7196
  564MOL0     H76108   9.762   6.197   4.040 -3.2134  0.6739  0.0559
  564MOL0     H76109   9.760   6.053   4.137 -1.4934 -0.7198  0.5956
  564MOL0     H76110   9.800   6.074   3.826 -3.4033  0.5156  0.6768
  564MOL0     H76111   9.774   5.923   3.914  1.0174  0.4278 -0.0924
  564MOL0     H76112   9.978   5.988   4.048 -0.1975  3.7252  1.9639
  564MOL0     H76113   9.997   6.133   3.946  1.2447 -1.0209  0.4952
  564MOL0     H76114   9.988   5.881   3.786  0.7187 -2.2173  1.5797
  564MOL0     H76115  10.064   6.042   3.765  2.1357 -0.3467  1.8535
  564MOL0     H76116  10.165   5.804   3.919 -0.6243 -0.1194  0.5482
  564MOL0     H76117  10.209   5.969   3.970  2.8391 -0.4905 -0.5144
  564MOL0     H76118  10.301   6.020   3.753 -0.8557  0.1866 -0.4017
  564MOL0     H76119  10.393   5.879   3.813  0.7029 -1.2682 -3.6165
  564MOL0     H76120   9.441   6.240   3.671 -0.6789 -1.7427  0.4730
  564MOL0     H76121   9.332   6.377   3.531  0.7104 -3.3503 -0.1665
  564MOL0     H76122   8.693   6.514   3.494  0.3078  1.5184  1.2052
  564MOL0     H76123   8.597   6.659   3.298  0.9335  1.0637 -1.1742
  564MOL0     H76124   7.282   7.754   3.152 -1.1937 -0.0098  0.2457
  564MOL0     H76125   7.068   7.661   3.071  1.4053  2.4990 -0.1610
  564MOL0     H76126   6.916   7.385   2.655 -1.8118 -0.3753 -2.2283
  564MOL0     H76127   6.755   7.286   2.545 -2.9920  0.2474  0.9840
  564MOL0     H76128   6.659   7.034   2.445  0.5683  0.4141  0.5647
  564MOL0     H76129   6.585   7.191   2.440 -1.5585 -0.6949 -2.6184
  564MOL0     H76130   6.371   7.100   2.524  0.2195  0.5038 -0.5074
  564MOL0     H76131   6.436   6.935   2.505  0.8204 -0.7676 -2.1054
  564MOL0     H76132   6.312   6.958   2.310  1.2979 -0.4951 -0.5890
  564MOL0     H76133   6.464   6.996   2.245 -2.0585 -1.6192 -3.0952
  564MOL0     H76134   6.334   7.234   2.352  1.6169 -0.9555  1.3634
  564MOL0     H76135   6.422   7.205   2.201 -0.0885 -2.9946 -0.9095
  564MOL0     H76136   5.997   7.160   2.120  0.7718 -1.0411 -1.3356
  564MOL0     H76137   6.640   7.064   2.898  0.2239 -0.2295  0.2733
  564MOL0     H76138   6.809   7.258   3.120 -4.1957  1.4768 -0.6691
  564MOL0     H76139   6.705   7.123   3.095 -0.6401  0.2338 -2.8029
  564MOL0     H76140   6.880   7.096   3.088 -0.1243 -0.5981  1.8217
  565MOL0     O76141   5.682  10.526   1.566 -0.0885 -0.4873  0.0719
  565MOL0     C76142   5.689  10.649   1.548  0.9260 -0.1446 -0.5966
  565MOL0     O76143   5.795  10.729   1.569 -0.4672 -0.5580 -0.6221
  565MOL0     C76144   5.924  10.692   1.597  0.1317 -0.9092 -0.3187
  565MOL0     C76145   5.979  10.567   1.595  0.2789 -0.0277 -0.4730
  565MOL0     C76146   6.117  10.558   1.605 -0.6554  0.6847 -0.0832
  565MOL0     C76147   6.206  10.666   1.604  0.7083 -0.6220  0.3254
  565MOL0     O76148   6.341  10.655   1.597 -1.1038 -0.2332  0.3865
  565MOL0     C76149   6.401  10.522   1.620 -0.4350  0.2507 -0.7459
  565MOL0     C76150   6.551  10.540   1.631 -0.7425 -0.1519 -0.0433
  565MOL0     C76151   6.627  10.575   1.507  0.0218  0.4983  0.7523
  565MOL0     C76152   6.573  10.701   1.437 -0.9959  0.0494  0.0788
  565MOL0     C76153   6.688  10.751   1.350  0.4041 -0.0344 -0.1387
  565MOL0     C76154   6.807  10.816   1.424  0.0717  0.9179 -0.3682
  565MOL0     C76155   6.918  10.851   1.326 -0.3854  0.3281  0.4206
  565MOL0     C76156   7.012  10.734   1.294 -0.0390 -0.4384 -0.2340
  565MOL0     N76157   7.147  10.784   1.259 -0.0993 -0.3689 -0.0823
  565MOL0     C76158   7.228  10.875   1.330 -0.1030  0.6364 -1.1665
  565MOL0     C76159   7.342  10.897   1.270 -0.0012 -0.2117 -0.2108
  565MOL0     C76160   7.443  10.992   1.331 -0.2656 -0.5442 -0.0626
  565MOL0     C76161   7.575  10.996   1.259  0.8266  0.2684  0.7892
  565MOL0     C76162   7.553  11.060   1.121  0.1056 -0.2339 -0.4418
  565MOL0     C76163   7.684  11.122   1.063  0.9516 -0.2563 -0.8241
  565MOL0     O76164   7.656  11.210   0.947 -0.1369  0.2338  0.2572
  565MOL0     C76165   7.758  11.273   0.879  0.5007  0.5414  1.4041
  565MOL0     C76166   7.878  11.299   0.936 -0.2075  0.2201 -0.1400
  565MOL0     C76167   7.980  11.346   0.853 -0.0044 -0.3051 -0.3544
  565MOL0     C76168   7.962  11.370   0.720 -0.0680 -1.2611 -0.1679
  565MOL0     C76169   8.077  11.433   0.645 -0.3766  0.5907 -0.7203
  565MOL0     O76170   8.190  11.466   0.719  0.6186  0.3462 -0.2932
  565MOL0     C76171   8.289  11.551   0.671  0.1357 -0.0086  0.1423
  565MOL0     C76172   8.420  11.520   0.703 -0.0563  0.3129  0.5985
  565MOL0     C76173   8.530  11.592   0.667  0.1901 -0.1110  0.6160
  565MOL0     C76174   8.509  11.716   0.597  0.4616 -0.3727  0.0950
  565MOL0     O76175   8.607  11.806   0.561  0.2577  0.4078 -0.2102
  565MOL0     C76176   8.737  11.783   0.609  0.3365  0.2968 -0.4359
  565MOL0     C76177   8.803  11.674   0.522 -0.3466 -0.0201 -0.3454
  565MOL0     C76178   8.944  11.644   0.590  0.6713  0.1520  0.2179
  565MOL0     C76179   9.044  11.594   0.477  0.0811 -0.2007 -0.3853
  565MOL0     C76180   9.188  11.575   0.534  0.6067 -0.4066 -0.0056
  565MOL0     C76181   9.284  11.566   0.417 -0.2979 -0.2299 -0.1087
  565MOL0     C76182   9.428  11.562   0.456 -0.3599  0.0820 -0.1530
  565MOL0     C76183   9.531  11.484   0.371 -0.2737 -0.3451  0.3001
  565MOL0    Cl76184   9.689  11.479   0.449  0.0343  0.0689  0.1100
  565MOL0     C76185   8.380  11.746   0.552 -0.5478 -1.3583  0.0672
  565MOL0     C76186   8.269  11.665   0.599 -0.2561  0.4518  1.0031
  565MOL0     O76187   8.063  11.452   0.525  0.3310 -0.2510  0.5005
  565MOL0     C76188   7.837  11.355   0.665 -0.1977  0.9673 -0.2662
  565MOL0     C76189   7.735  11.296   0.741  0.4926 -0.1170 -0.4728
  565MOL0     N76190   7.339  10.816   1.161  0.1758 -0.3681  0.2181
  565MOL0     N76191   7.223  10.757   1.152 -0.0430 -0.5681 -0.2214
  565MOL0     C76192   6.149  10.795   1.604 -0.2976  0.1160  0.2725
  565MOL0     C76193   6.010  10.803   1.602 -0.0008 -0.1635 -0.3866
  565MOL0     C76194   5.564  10.712   1.492  0.0933 -0.1538 -0.4360
  565MOL0     C76195   5.550  10.857   1.506  0.0771  0.9697 -0.1477
  565MOL0     C76196   5.435  10.912   1.469 -0.3692 -0.1734 -0.0596
  565MOL0     C76197   5.330  10.845   1.407  0.1424 -0.2530  0.1428
  565MOL0     O76198   5.215  10.907   1.366  0.4074  0.5721  0.5208
  565MOL0     C76199   5.197  11.038   1.393 -0.6606 -0.6549 -0.1743
  565MOL0     C76200   5.053  11.086   1.379 -0.6047  0.4086  0.4085
  565MOL0     C76201   5.010  11.122   1.231  0.0105  0.1811  0.9357
  565MOL0     C76202   4.866  11.178   1.220  0.0494  0.3155 -0.2429
  565MOL0     C76203   4.808  11.160   1.087  0.3596  0.2805  0.1461
  565MOL0     C76204   4.765  11.155   0.975  0.1442 -0.8657  1.1137
  565MOL0     C76205   5.339  10.701   1.393 -0.1677 -0.4266 -0.2392
  565MOL0     C76206   5.460  10.636   1.432  0.2315 -0.0820 -0.9059
  565MOL0     C76207   5.471  10.495   1.382 -0.0739 -0.3816 -0.3272
  565MOL0     H76208   5.923  10.474   1.601 -1.2318  0.9701  2.1951
  565MOL0     H76209   6.152  10.456   1.591 -1.3866  0.5136 -0.7253
  565MOL0     H76210   6.356  10.481   1.711 -1.9602 -0.3338 -1.7151
  565MOL0     H76211   6.386  10.458   1.533 -2.6143  0.7460 -0.7926
  565MOL0     H76212   6.596  10.452   1.677  2.0068  1.6080  0.9541
  565MOL0     H76213   6.581  10.615   1.705  1.2773 -2.3505  1.5301
  565MOL0     H76214   6.616  10.491   1.438 -0.7425  0.9599  0.2936
  565MOL0     H76215   6.734  10.570   1.531 -0.0761 -0.3207  1.0488
  565MOL0     H76216   6.491  10.672   1.372  0.3222 -0.0707 -1.5927
  565MOL0     H76217   6.551  10.771   1.518  0.0710 -0.6115  0.9667
  565MOL0     H76218   6.713  10.663   1.289 -2.5151  2.0469 -4.8805
  565MOL0     H76219   6.646  10.821   1.277  2.7564  0.9798 -0.5992
  565MOL0     H76220   6.768  10.907   1.472  0.6648  1.2339 -0.4758
  565MOL0     H76221   6.844  10.754   1.506 -0.0254  1.4841  0.1147
  565MOL0     H76222   6.977  10.933   1.367 -2.2210  2.2382 -0.5920
  565MOL0     H76223   6.866  10.882   1.235 -0.2484  1.0474  0.5792
  565MOL0     H76224   7.025  10.658   1.371  4.1802 -1.8748 -2.0929
  565MOL0     H76225   6.968  10.683   1.208 -0.2437 -2.1579  0.8443
  565MOL0     H76226   7.195  10.937   1.412 -1.7903 -0.9293 -0.6002
  565MOL0     H76227   7.407  11.095   1.335  3.2279  0.7875  1.9048
  565MOL0     H76228   7.465  10.965   1.435  0.9132 -1.8248 -0.6263
  565MOL0     H76229   7.652  11.042   1.321  1.1444 -1.1942  1.5276
  565MOL0     H76230   7.592  10.890   1.238  1.6827  0.9465 -2.4844
  565MOL0     H76231   7.475  11.136   1.118  0.1791  0.0883  2.7482
  565MOL0     H76232   7.515  10.990   1.046 -0.8166  0.9374 -1.1002
  565MOL0     H76233   7.745  11.038   1.027 -1.8872 -2.4452 -0.8434
  565MOL0     H76234   7.729  11.184   1.141  0.0952 -0.2615 -0.3158
  565MOL0     H76235   7.909  11.270   1.035  4.0474  2.7481 -0.4879
  565MOL0     H76236   8.077  11.354   0.900  0.6473  0.0883 -1.7155
  565MOL0     H76237   8.447  11.426   0.750  0.7393 -0.2658 -0.9572
  565MOL0     H76238   8.630  11.563   0.696  0.3752  0.5564  0.6672
  565MOL0     H76239   8.794  11.877   0.606  0.1933  0.4817  1.6248
  565MOL0     H76240   8.737  11.762   0.716 -1.2131  1.8726 -0.0764
  565MOL0     H76241   8.742  11.583   0.512 -1.0612  0.2650  1.1597
  565MOL0     H76242   8.819  11.721   0.425 -1.8475  2.5326  0.5565
  565MOL0     H76243   8.988  11.735   0.631 -0.6820  1.3102 -0.8078
  565MOL0     H76244   8.928  11.565   0.664 -2.4456  1.0714  0.6583
  565MOL0     H76245   9.047  11.663   0.393  0.8599  0.2329 -0.0084
  565MOL0     H76246   9.005  11.500   0.436  0.2721 -0.4416 -0.0202
  565MOL0     H76247   9.196  11.495   0.609 -1.0160  2.2309  3.2746
  565MOL0     H76248   9.219  11.661   0.594 -0.2630  0.8974 -1.3735
  565MOL0     H76249   9.254  11.473   0.368 -2.0602 -0.5431  1.4379
  565MOL0     H76250   9.276  11.649   0.347  2.2329 -0.6714 -1.0223
  565MOL0     H76251   9.434  11.506   0.550  1.7107 -2.7102 -1.7841
  565MOL0     H76252   9.461  11.665   0.474  0.3905 -0.0687 -0.6350
  565MOL0     H76253   9.490  11.389   0.336 -0.4608  0.1336 -0.8506
  565MOL0     H76254   9.547  11.542   0.279 -1.1385  1.0203  0.9723
  565MOL0     H76255   8.379  11.840   0.498  0.8448  0.3153  2.6854
  565MOL0     H76256   8.170  11.699   0.571  0.8778  1.3093 -2.5315
  565MOL0     H76257   7.812  11.377   0.562 -0.9271  0.4313 -0.2142
  565MOL0     H76258   7.643  11.260   0.697 -1.2462  2.3949  0.8422
  565MOL0     H76259   6.201  10.889   1.598 -1.0363  0.4535 -1.2863
  565MOL0     H76260   5.958  10.898   1.609  2.0162  1.0178 -0.4329
  565MOL0     H76261   5.626  10.921   1.549  0.3224  0.6112 -0.0439
  565MOL0     H76262   5.432  11.019   1.488 -1.3272 -0.3001  0.6244
  565MOL0     H76263   5.264  11.102   1.336 -0.6193  0.6246  1.2498
  565MOL0     H76264   5.221  11.063   1.497 -0.9210  1.5750 -0.5989
  565MOL0     H76265   5.053  11.178   1.438  4.2403 -0.6200  2.4800
  565MOL0     H76266   4.985  11.010   1.419 -0.4611  0.4612  0.7568
  565MOL0     H76267   5.023  11.033   1.169  1.4829  2.1362 -1.7686
  565MOL0     H76268   5.082  11.197   1.196  0.7344 -0.0341  1.9243
  565MOL0     H76269   4.806  11.118   1.289  1.8317  0.9465  1.9652
  565MOL0     H76270   4.856  11.283   1.250  0.4085  0.2598  0.0783
  565MOL0     H76271   4.706  11.152   0.885  1.6818 -2.2369  0.1064
  565MOL0     H76272   5.253  10.641   1.369 -1.6155  1.0968  0.8736
  565MOL0     H76273   5.444  10.421   1.457 -1.3104 -1.7552 -2.0552
  565MOL0     H76274   5.406  10.490   1.295  0.0322  0.9488 -0.5007
  565MOL0     H76275   5.573  10.476   1.345 -1.1992 -1.9590 -2.9000
  566MOL0     O76276   1.626  10.592   7.068 -0.7062 -0.0121 -0.7321
  566MOL0     C76277   1.610  10.644   7.178  0.2617  0.3928  0.2019
  566MOL0     O76278   1.713  10.663   7.273  0.1758  0.0151  0.4373
  566MOL0     C76279   1.841  10.648   7.224  0.6386  0.0069  0.5133
  566MOL0     C76280   1.896  10.723   7.130  0.3814  0.0295  1.0986
  566MOL0     C76281   2.022  10.696   7.075 -0.0606  0.3078 -0.5600
  566MOL0     C76282   2.105  10.582   7.124 -0.0825 -0.5170 -0.2081
  566MOL0     O76283   2.233  10.570   7.075 -0.0346  0.1909 -0.2311
  566MOL0     C76284   2.289  10.438   7.058  0.7553 -0.0035  0.1410
  566MOL0     C76285   2.222  10.367   6.936  0.4196  0.1166  0.1420
  566MOL0     C76286   2.317  10.267   6.879 -0.6011 -0.6683 -0.1307
  566MOL0     C76287   2.259  10.172   6.775 -0.1252  0.8933 -0.1049
  566MOL0     C76288   2.371  10.117   6.684 -0.2438  0.4000  0.5978
  566MOL0     C76289   2.486  10.042   6.757  0.3465 -0.2731  0.8147
  566MOL0     C76290   2.586  10.011   6.637 -0.3894 -0.0303  0.3108
  566MOL0     C76291   2.684   9.917   6.689 -0.0696  0.2644 -1.4804
  566MOL0     N76292   2.782   9.883   6.589 -0.3994 -0.2633  0.2690
  566MOL0     C76293   2.874   9.975   6.547 -0.6209  0.1223  1.2109
  566MOL0     C76294   2.940   9.910   6.448  0.7453  0.1001 -0.2800
  566MOL0     C76295   3.056   9.958   6.366 -0.4117  0.3952  0.9021
  566MOL0     C76296   3.144  10.074   6.431 -0.8922  0.4623  0.2958
  566MOL0     C76297   3.274  10.097   6.348 -0.1204  0.0799  0.0694
  566MOL0     C76298   3.332  10.233   6.388  0.3479  0.0665 -0.4191
  566MOL0     O76299   3.462  10.253   6.331 -0.4824 -0.0326 -0.3876
  566MOL0     C76300   3.559  10.298   6.406  0.1138  0.2043 -0.1920
  566MOL0     C76301   3.685  10.255   6.365 -0.8375  0.7101 -0.2385
  566MOL0     C76302   3.798  10.281   6.436 -0.4191 -0.4344  0.8672
  566MOL0     C76303   3.795  10.355   6.556  0.2359  1.0590  0.4409
  566MOL0     C76304   3.917  10.379   6.643 -0.4481 -1.1028  0.3440
  566MOL0     O76305   4.033  10.324   6.597  0.1237 -0.5401  0.3130
  566MOL0     C76306   4.147  10.331   6.677  0.5195  0.4739 -0.7512
  566MOL0     C76307   4.207  10.212   6.725  0.2850 -0.1314  0.2280
  566MOL0     C76308   4.326  10.218   6.801  0.2767 -0.0470  0.4940
  566MOL0     C76309   4.390  10.340   6.832  0.5063 -0.2023  0.1384
  566MOL0     O76310   4.506  10.354   6.897  0.1354  0.1022  0.8207
  566MOL0     C76311   4.606  10.251   6.878  0.1294  0.4390  0.1766
  566MOL0     C76312   4.739  10.280   6.955 -0.6744 -0.3642 -0.9417
  566MOL0     C76313   4.802  10.410   6.896  0.3239 -0.3412  0.2284
  566MOL0     C76314   4.931  10.447   6.970  0.2935  0.1476  0.0436
  566MOL0     C76315   5.045  10.339   6.968  0.5977  0.5252  0.4329
  566MOL0     C76316   5.071  10.296   7.113 -0.5967 -0.4922 -0.2681
  566MOL0     C76317   5.207  10.224   7.131  0.0707  0.1294  0.4344
  566MOL0     C76318   5.245  10.123   7.013 -0.4908  0.0570 -0.9778
  566MOL0    Cl76319   5.379  10.027   7.076 -0.1178  0.0813  0.2365
  566MOL0     C76320   4.314  10.450   6.800 -0.1801 -0.8609 -0.0768
  566MOL0     C76321   4.197  10.450   6.722  0.6916 -0.1655 -0.5362
  566MOL0     O76322   3.902  10.449   6.746 -0.3408  0.5511 -0.5263
  566MOL0     C76323   3.667  10.399   6.593 -0.7638  0.9000 -0.0767
  566MOL0     C76324   3.554  10.371   6.524 -0.4493  0.1171 -0.4730
  566MOL0     N76325   2.896   9.779   6.443 -0.7435  0.2650 -0.2594
  566MOL0     N76326   2.797   9.768   6.523  0.4071  0.4602 -0.1819
  566MOL0     C76327   2.043  10.504   7.222 -0.5194  0.5269  0.1521
  566MOL0     C76328   1.915  10.538   7.264  0.3644 -0.4800 -0.4228
  566MOL0     C76329   1.478  10.647   7.243 -0.1929  0.4960 -1.0553
  566MOL0     C76330   1.475  10.638   7.382 -0.2118  1.0685 -0.6765
  566MOL0     C76331   1.354  10.635   7.450  0.0367  0.5366 -0.0421
  566MOL0     C76332   1.236  10.634   7.383 -0.5134 -0.1679  0.0692
  566MOL0     O76333   1.125  10.621   7.463  0.0194 -0.1565 -0.1450
  566MOL0     C76334   0.993  10.598   7.406 -0.2767  0.8320  0.0350
  566MOL0     C76335   0.872  10.600   7.497  0.3133  0.1237  0.5300
  566MOL0     C76336   0.755  10.541   7.417 -0.6554 -0.2406 -0.6295
  566MOL0     C76337   0.644  10.529   7.519 -0.0349  0.1409 -0.0816
  566MOL0     C76338   0.518  10.483   7.459 -0.2285 -0.1285 -0.5584
  566MOL0     C76339   0.405  10.441   7.439  0.3066  0.1081 -1.1558
  566MOL0     C76340   1.232  10.640   7.244  0.5217 -0.3918  0.6020
  566MOL0     C76341   1.354  10.641   7.172  0.0117  0.5608 -0.7445
  566MOL0     C76342   1.348  10.656   7.023  0.6217  0.3808 -0.0376
  566MOL0     H76343   1.837  10.808   7.100 -0.0477  0.2318  2.4189
  566MOL0     H76344   2.060  10.761   6.997  1.2933 -0.3445 -0.4874
  566MOL0     H76345   2.394  10.452   7.032  0.5061  3.0515  0.3741
  566MOL0     H76346   2.288  10.378   7.150 -1.1310 -1.8856 -1.0378
  566MOL0     H76347   2.191  10.436   6.857  0.3308 -0.3239 -0.2108
  566MOL0     H76348   2.133  10.314   6.971  0.2092 -0.4104 -1.1569
  566MOL0     H76349   2.356  10.200   6.956  1.0403  0.2541 -0.1225
  566MOL0     H76350   2.398  10.323   6.832 -0.8985 -1.0693 -1.1478
  566MOL0     H76351   2.206  10.088   6.820  1.8193 -0.0460  0.5665
  566MOL0     H76352   2.192  10.225   6.707  1.8212  1.0689 -2.0092
  566MOL0     H76353   2.316  10.043   6.625 -0.3771 -1.0215  2.4404
  566MOL0     H76354   2.401  10.203   6.623 -2.4294  1.1586  0.5019
  566MOL0     H76355   2.533  10.113   6.826  2.8348 -0.0761 -0.9309
  566MOL0     H76356   2.451   9.952   6.808 -0.3152 -0.6373 -0.2585
  566MOL0     H76357   2.628  10.105   6.599 -3.1632  0.6301 -1.4193
  566MOL0     H76358   2.530   9.963   6.557  0.6098  0.2517 -0.5864
  566MOL0     H76359   2.728   9.971   6.774  0.9396 -2.6415 -0.0229
  566MOL0     H76360   2.626   9.831   6.723 -2.8704  1.4052 -3.0667
  566MOL0     H76361   2.882  10.076   6.585 -0.1046 -0.3862  2.4893
  566MOL0     H76362   3.119   9.871   6.348 -0.4041  0.8493 -1.6075
  566MOL0     H76363   3.016   9.987   6.268 -1.1207  0.0758  1.0907
  566MOL0     H76364   3.082  10.164   6.433 -2.4205 -0.4802 -1.3803
  566MOL0     H76365   3.173  10.037   6.530 -0.7422  1.8898  0.8073
  566MOL0     H76366   3.255  10.085   6.241  1.6631 -1.0588 -0.1478
  566MOL0     H76367   3.340  10.015   6.376 -1.8244 -0.9349  1.2903
  566MOL0     H76368   3.340  10.223   6.496  0.0965 -2.2073 -0.5575
  566MOL0     H76369   3.266  10.316   6.363  1.1577  0.9451  0.2921
  566MOL0     H76370   3.691  10.194   6.276 -1.5371 -0.5676  0.5721
  566MOL0     H76371   3.892  10.235   6.408 -1.5969 -3.1551  0.9998
  566MOL0     H76372   4.168  10.113   6.704  0.9742 -0.8025  2.0096
  566MOL0     H76373   4.380  10.128   6.830  0.7976 -0.1097 -0.6408
  566MOL0     H76374   4.567  10.162   6.928 -0.5090  0.8816  0.4770
  566MOL0     H76375   4.631  10.225   6.775  1.0450 -0.1022  0.5287
  566MOL0     H76376   4.709  10.294   7.059  0.4113 -0.1552 -0.6448
  566MOL0     H76377   4.811  10.200   6.936  0.3617  0.9057 -2.5833
  566MOL0     H76378   4.812  10.392   6.789 -3.0747  0.8911 -0.4006
  566MOL0     H76379   4.727  10.490   6.903 -1.6432 -1.9694 -1.2386
  566MOL0     H76380   4.904  10.475   7.072  0.2741  1.8805 -0.4077
  566MOL0     H76381   4.968  10.538   6.922 -1.2090  0.5906 -0.3072
  566MOL0     H76382   5.138  10.377   6.925  0.2901 -0.2015 -0.9131
  566MOL0     H76383   5.020  10.247   6.916  1.7241  0.6473 -0.3649
  566MOL0     H76384   5.074  10.385   7.176 -0.9652  0.7597 -1.9417
  566MOL0     H76385   4.993  10.231   7.154  1.1545 -2.7368 -0.2560
  566MOL0     H76386   5.200  10.177   7.230 -1.7489 -1.9150 -0.5943
  566MOL0     H76387   5.285  10.300   7.136  0.9489 -0.5477 -1.8557
  566MOL0     H76388   5.160  10.057   6.993  0.8498 -2.3380  0.7010
  566MOL0     H76389   5.279  10.168   6.919  0.8547 -0.4926 -0.7788
  566MOL0     H76390   4.365  10.541   6.829  0.6881 -1.7513  1.2857
  566MOL0     H76391   4.138  10.536   6.692 -2.3815 -1.3358  1.6426
  566MOL0     H76392   3.656  10.458   6.683 -1.1422  1.2655 -0.3608
  566MOL0     H76393   3.455  10.400   6.556 -0.4772 -1.4320  1.0599
  566MOL0     H76394   2.090  10.423   7.276 -0.6093  2.2899  3.1307
  566MOL0     H76395   1.864  10.480   7.341  0.3828 -1.3588 -1.0640
  566MOL0     H76396   1.564  10.616   7.441 -1.3164 -1.6884  0.1370
  566MOL0     H76397   1.351  10.633   7.558 -0.7342  1.2488 -0.0439
  566MOL0     H76398   0.993  10.506   7.346 -2.1357  1.2986 -0.7647
  566MOL0     H76399   0.974  10.675   7.331  4.0245  1.3988 -0.7039
  566MOL0     H76400   0.851  10.706   7.519  1.2084  0.6268 -0.8841
  566MOL0     H76401   0.896  10.536   7.582 -0.6505 -0.2222  0.5543
  566MOL0     H76402   0.778  10.447   7.365  0.0689  0.1465 -1.0232
  566MOL0     H76403   0.727  10.616   7.342 -2.9767  1.2948  1.6026
  566MOL0     H76404   0.678  10.463   7.599  0.0329  2.3131  1.7657
  566MOL0     H76405   0.624  10.617   7.580  0.4063 -0.3409  0.7806
  566MOL0     H76406   0.301  10.415   7.438  0.0245  1.1191 -0.0422
  566MOL0     H76407   1.134  10.647   7.197 -0.1311 -0.2747  1.9436
  566MOL0     H76408   1.252  10.696   6.989 -0.6064 -1.1582  1.4368
  566MOL0     H76409   1.417  10.735   6.993 -0.6236  0.7044 -2.2650
  566MOL0     H76410   1.381  10.559   6.986  0.6647 -0.4324  2.0103
  567MOL0     O76411   7.247   1.839   5.083  0.5651  0.2951 -0.3401
  567MOL0     C76412   7.155   1.769   5.130  0.2489  0.1277  0.3219
  567MOL0     O76413   7.173   1.643   5.184 -0.2696 -0.0237  0.1359
  567MOL0     C76414   7.309   1.615   5.208 -0.3107 -0.5482 -0.0444
  567MOL0     C76415   7.385   1.529   5.125  0.3554  0.4940 -0.2911
  567MOL0     C76416   7.510   1.472   5.164  0.2832 -0.4547 -0.0783
  567MOL0     C76417   7.566   1.519   5.287 -1.0125  0.1250 -0.2422
  567MOL0     O76418   7.697   1.488   5.329  0.7009  0.5236 -1.0326
  567MOL0     C76419   7.753   1.371   5.262  0.9683  0.0057  0.4728
  567MOL0     C76420   7.876   1.328   5.336 -0.2121  0.8270  0.1955
  567MOL0     C76421   7.965   1.235   5.247 -0.2197  0.2936  0.4232
  567MOL0     C76422   8.027   1.127   5.332 -0.8915  0.7537 -0.1540
  567MOL0     C76423   8.129   1.047   5.255  0.1983 -0.4002  0.0343
  567MOL0     C76424   8.128   0.894   5.284  0.0365 -0.3744  0.5251
  567MOL0     C76425   8.175   0.864   5.418 -0.7165  0.3166  0.1200
  567MOL0     C76426   8.313   0.920   5.456 -0.5572 -1.1654 -0.1149
  567MOL0     N76427   8.425   0.866   5.379  0.9524  0.6566 -0.6566
  567MOL0     C76428   8.501   0.762   5.426  0.2919  0.6924 -0.1767
  567MOL0     C76429   8.595   0.748   5.331 -0.4595 -0.3114  0.9226
  567MOL0     C76430   8.690   0.638   5.304 -0.4319  0.4529  0.4967
  567MOL0     C76431   8.752   0.569   5.430 -0.5359  0.2643 -0.2390
  567MOL0     C76432   8.872   0.477   5.395  0.8105 -0.1013  0.2519
  567MOL0     C76433   8.925   0.408   5.525 -0.0210  0.2753  0.3328
  567MOL0     O76434   9.056   0.360   5.492 -0.5841  0.0363 -0.0063
  567MOL0     C76435   9.161   0.455   5.483  0.3813  0.0469 -0.5038
  567MOL0     C76436   9.284   0.406   5.443  0.8191 -0.0153 -0.4332
  567MOL0     C76437   9.399   0.484   5.434  0.4155 -0.5515 -0.2486
  567MOL0     C76438   9.395   0.620   5.476  0.0465  0.3469 -0.6994
  567MOL0     C76439   9.516   0.703   5.472 -0.2652 -0.2004 -0.9609
  567MOL0     O76440   9.617   0.674   5.390 -1.0705 -0.2464  0.4681
  567MOL0     C76441   9.733   0.749   5.378  0.0491  0.6183 -0.0819
  567MOL0     C76442   9.788   0.786   5.253  0.4424  0.2369  0.5107
  567MOL0     C76443   9.920   0.838   5.248 -0.2934 -0.2756  0.1651
  567MOL0     C76444   9.989   0.878   5.366 -0.3205 -1.0215  0.2179
  567MOL0     O76445  10.117   0.934   5.356  0.0640  0.0190  0.3414
  567MOL0     C76446  10.209   0.896   5.454 -0.8408  0.7887 -0.1775
  567MOL0     C76447  10.350   0.935   5.409 -0.5592 -0.0661  0.5971
  567MOL0     C76448  10.442   0.893   5.529  0.0749  0.5596  0.1825
  567MOL0     C76449  10.590   0.951   5.520 -0.4852  0.1655  0.2539
  567MOL0     C76450  10.695   0.878   5.425  0.4100  0.4040 -0.3598
  567MOL0     C76451  10.670   0.912   5.275 -0.0903 -0.6332 -0.6548
  567MOL0     C76452  10.781   0.847   5.194  0.9744  0.0798  0.0039
  567MOL0     C76453  10.773   0.895   5.045 -0.6746 -0.4888 -1.2823
  567MOL0    Cl76454  10.616   0.864   4.982 -0.2715 -0.0356 -0.0605
  567MOL0     C76455   9.923   0.854   5.494 -0.3431 -0.1266  0.4083
  567MOL0     C76456   9.801   0.785   5.498  0.7671 -0.5648  0.2418
  567MOL0     O76457   9.518   0.805   5.547 -0.1524  0.6859  0.1688
  567MOL0     C76458   9.261   0.670   5.502  0.2037 -0.7404 -0.3776
  567MOL0     C76459   9.142   0.589   5.505  0.3085  0.2192 -0.1175
  567MOL0     N76460   8.573   0.843   5.227  1.0917  0.1839  0.5230
  567MOL0     N76461   8.474   0.910   5.257  0.5297 -0.4976 -0.6741
  567MOL0     C76462   7.499   1.620   5.352  0.0074  0.1079  0.1024
  567MOL0     C76463   7.374   1.663   5.320 -0.4780 -0.0436  0.0645
  567MOL0     C76464   7.021   1.819   5.119  0.8523 -0.2774  0.0217
  567MOL0     C76465   6.925   1.745   5.197  0.3448 -0.4197  0.0449
  567MOL0     C76466   6.793   1.790   5.199 -0.1349  0.1035 -0.4910
  567MOL0     C76467   6.755   1.889   5.115  0.2779 -0.3838  0.5968
  567MOL0     O76468   6.628   1.929   5.090 -0.1647  0.7189 -0.1337
  567MOL0     C76469   6.513   1.844   5.110  0.2190  0.6617  0.0876
  567MOL0     C76470   6.451   1.885   5.247  0.9170  0.4397 -1.0274
  567MOL0     C76471   6.364   2.006   5.227  0.0637  0.4957 -0.4817
  567MOL0     C76472   6.234   1.968   5.163  0.8737 -0.3721  0.2132
  567MOL0     C76473   6.138   1.890   5.249 -0.7089 -0.0926  0.1086
  567MOL0     C76474   6.051   1.821   5.309  0.7969 -0.4306 -0.0810
  567MOL0     C76475   6.846   1.958   5.032  0.0602 -0.6284  0.6091
  567MOL0     C76476   6.978   1.927   5.036  0.8284  0.0523  0.5480
  567MOL0     C76477   7.063   2.019   4.953  0.3214 -0.6076  0.0854
  567MOL0     H76478   7.339   1.489   5.035 -2.3293  2.1600  0.2363
  567MOL0     H76479   7.562   1.401   5.100  1.1826  1.2614 -1.3422
  567MOL0     H76480   7.680   1.290   5.256 -1.4478  2.0617  0.2671
  567MOL0     H76481   7.778   1.405   5.161  0.1483  0.3531  0.3759
  567MOL0     H76482   7.838   1.270   5.421 -1.1064  0.4031 -0.4728
  567MOL0     H76483   7.941   1.414   5.356 -0.8696  1.8899 -1.9283
  567MOL0     H76484   8.043   1.297   5.202  0.1685  0.6422  1.5252
  567MOL0     H76485   7.902   1.193   5.168  2.6555 -0.5694 -1.5851
  567MOL0     H76486   8.079   1.175   5.416  0.5588  0.2205 -0.7201
  567MOL0     H76487   7.945   1.062   5.365 -1.3266  1.3516 -0.0572
  567MOL0     H76488   8.110   1.059   5.148  0.6596 -1.6010 -0.2033
  567MOL0     H76489   8.228   1.086   5.279 -0.2974 -0.3127  2.2075
  567MOL0     H76490   8.029   0.847   5.272 -0.5784  1.0069  0.0377
  567MOL0     H76491   8.199   0.851   5.213 -2.5697 -0.7181 -2.0800
  567MOL0     H76492   8.184   0.755   5.428 -0.7782  0.1805 -1.1660
  567MOL0     H76493   8.094   0.891   5.487 -2.8230  2.3528 -2.8767
  567MOL0     H76494   8.322   1.028   5.438  0.4732 -1.3616 -0.8849
  567MOL0     H76495   8.324   0.908   5.564 -1.7326  3.7758  0.8014
  567MOL0     H76496   8.487   0.702   5.516  2.5009 -1.7371 -1.3458
  567MOL0     H76497   8.653   0.569   5.228 -0.7870 -0.3867  1.4100
  567MOL0     H76498   8.771   0.689   5.250  0.0535  1.3397  1.9841
  567MOL0     H76499   8.782   0.645   5.502  0.3623 -0.1291 -0.1838
  567MOL0     H76500   8.689   0.497   5.483  0.4300  1.3503  2.5679
  567MOL0     H76501   8.947   0.542   5.350 -1.6243  0.0338 -4.1974
  567MOL0     H76502   8.852   0.411   5.310 -1.9551 -0.3170  0.9846
  567MOL0     H76503   8.862   0.322   5.550  1.1112 -0.9991 -1.0152
  567MOL0     H76504   8.923   0.489   5.598  3.3820  1.8125 -1.0505
  567MOL0     H76505   9.288   0.298   5.444  0.6567 -0.0625  2.2507
  567MOL0     H76506   9.495   0.441   5.408 -0.7776 -3.8973  0.4026
  567MOL0     H76507   9.738   0.755   5.162  0.7404  0.8615  0.1306
  567MOL0     H76508   9.968   0.864   5.154  1.1860  0.1288  0.9954
  567MOL0     H76509  10.186   0.953   5.544 -1.1923  0.5859 -0.1369
  567MOL0     H76510  10.200   0.788   5.470 -1.1211  0.7040 -0.8786
  567MOL0     H76511  10.375   0.884   5.315 -0.4524  0.7841  0.1502
  567MOL0     H76512  10.352   1.043   5.395  2.7977 -0.1275 -0.0429
  567MOL0     H76513  10.390   0.936   5.615  2.7770  1.1808  1.6045
  567MOL0     H76514  10.438   0.784   5.542  0.4086  0.5073 -0.1349
  567MOL0     H76515  10.629   0.949   5.622 -0.1847  0.0751  0.1372
  567MOL0     H76516  10.580   1.052   5.478  1.1909  0.1589 -0.2339
  567MOL0     H76517  10.680   0.770   5.441  1.3746  0.2235 -0.6273
  567MOL0     H76518  10.792   0.914   5.460 -0.6842  3.5282 -0.2533
  567MOL0     H76519  10.575   0.874   5.236 -1.4490  0.8642  1.0533
  567MOL0     H76520  10.677   1.021   5.271  3.6957 -0.5604  2.4421
  567MOL0     H76521  10.779   0.738   5.194 -0.6757  0.0843 -0.3478
  567MOL0     H76522  10.871   0.894   5.235 -0.0160  2.1344 -0.0354
  567MOL0     H76523  10.790   1.002   5.036  0.0044 -0.5161 -0.4842
  567MOL0     H76524  10.851   0.853   4.980  1.7919  3.2661 -1.0788
  567MOL0     H76525   9.960   0.887   5.590  0.2102  0.3067  0.0523
  567MOL0     H76526   9.766   0.760   5.597  0.2695  0.7479  0.4107
  567MOL0     H76527   9.246   0.776   5.521 -1.3587 -0.8290 -0.9727
  567MOL0     H76528   9.043   0.624   5.533  1.1077  2.8385 -0.3367
  567MOL0     H76529   7.526   1.638   5.456 -4.3581  1.5913  1.1625
  567MOL0     H76530   7.333   1.736   5.389 -2.3327 -0.6146 -0.3835
  567MOL0     H76531   6.955   1.660   5.257  1.1698  0.3929  0.8170
  567MOL0     H76532   6.710   1.733   5.240  0.6418 -1.2538 -0.7626
  567MOL0     H76533   6.552   1.742   5.101  2.5870  1.4425  0.9096
  567MOL0     H76534   6.441   1.862   5.029 -0.4887  4.0331  1.3262
  567MOL0     H76535   6.523   1.895   5.329 -0.3419 -2.7925  0.6320
  567MOL0     H76536   6.391   1.801   5.283  0.7872  0.6858 -0.6580
  567MOL0     H76537   6.431   2.079   5.180  3.0246 -0.9215  1.1995
  567MOL0     H76538   6.333   2.049   5.323 -2.8571  0.0846 -1.1670
  567MOL0     H76539   6.183   2.061   5.136 -1.1239 -1.0345  1.4926
  567MOL0     H76540   6.237   1.915   5.067  1.1952  0.0809 -0.0307
  567MOL0     H76541   5.977   1.759   5.356  1.1668 -1.2575 -0.5736
  567MOL0     H76542   6.799   2.031   4.967 -2.6702 -1.7915  1.1364
  567MOL0     H76543   6.994   2.093   4.911  1.9594  1.3475  0.6787
  567MOL0     H76544   7.132   2.068   5.022 -0.4819  0.5663  0.0976
  567MOL0     H76545   7.124   1.964   4.881 -0.6917 -2.4795  0.6017
  568MOL0     O76546   6.673   9.943   1.389 -0.3480  0.1960 -0.3894
  568MOL0     C76547   6.603  10.023   1.443  0.2634  0.2716 -0.0053
  568MOL0     O76548   6.643  10.151   1.472  0.3440 -0.5382  0.6214
  568MOL0     C76549   6.769  10.192   1.430 -0.1527 -0.0473 -0.7864
  568MOL0     C76550   6.838  10.284   1.512  0.6715  0.4215 -0.4793
  568MOL0     C76551   6.962  10.340   1.473 -0.2951 -1.4727 -0.5663
  568MOL0     C76552   7.014  10.317   1.345 -0.2983 -0.8115 -0.7623
  568MOL0     O76553   7.136  10.364   1.304  1.0316  0.4694  0.3329
  568MOL0     C76554   7.241  10.339   1.396 -0.0054 -0.1927 -0.3173
  568MOL0     C76555   7.370  10.320   1.315 -0.0260 -0.6662  0.1013
  568MOL0     C76556   7.419  10.461   1.252  0.3154  0.3924  0.7889
  568MOL0     C76557   7.573  10.463   1.214 -0.4766  0.3233 -0.3594
  568MOL0     C76558   7.610  10.444   1.068 -0.5206  0.0050  0.5769
  568MOL0     C76559   7.764  10.428   1.048  0.3522  0.0036 -0.3085
  568MOL0     C76560   7.851  10.562   1.069  0.2683  0.6430 -0.3456
  568MOL0     C76561   7.996  10.524   1.059  0.9725  0.8459 -0.0648
  568MOL0     N76562   8.048  10.561   0.929  0.0060  0.0364  0.7003
  568MOL0     C76563   8.053  10.481   0.812 -0.3307 -0.7834  0.4958
  568MOL0     C76564   8.127  10.561   0.724 -0.2127  0.6532 -0.2204
  568MOL0     C76565   8.176  10.513   0.587 -0.2276 -0.2718 -0.0344
  568MOL0     C76566   8.078  10.575   0.483 -0.7112  0.3531  0.7501
  568MOL0     C76567   8.122  10.543   0.337  0.0168 -0.6337  0.1179
  568MOL0     C76568   8.278  10.552   0.308  0.3144  0.4874  0.8686
  568MOL0     O76569   8.331  10.426   0.345 -0.3163 -0.3877  0.4473
  568MOL0     C76570   8.459  10.404   0.316  0.2666  0.2648 -0.2807
  568MOL0     C76571   8.555  10.485   0.248 -0.1121 -0.5219  0.3749
  568MOL0     C76572   8.681  10.435   0.234  0.1512  0.9323  0.9099
  568MOL0     C76573   8.725  10.318   0.284  0.8245  0.1518  0.0443
  568MOL0     C76574   8.866  10.271   0.277 -0.8752 -1.0497 -0.3375
  568MOL0     O76575   8.899  10.150   0.327 -0.0191 -0.6454 -0.4729
  568MOL0     C76576   9.024  10.106   0.340  0.1541  0.4051  0.1275
  568MOL0     C76577   9.048  10.002   0.426 -0.1978  0.1746  0.5299
  568MOL0     C76578   9.178   9.954   0.447  0.2151  0.7660 -0.1029
  568MOL0     C76579   9.292  10.010   0.393 -0.7050  0.0989 -0.2015
  568MOL0     O76580   9.417   9.963   0.425 -0.6329  0.1043 -0.4405
  568MOL0     C76581   9.520   9.967   0.331 -0.2747 -0.7285 -0.5466
  568MOL0     C76582   9.646   9.901   0.382 -0.0829 -0.1623 -0.4493
  568MOL0     C76583   9.756   9.929   0.289  0.6467  0.9823  0.2273
  568MOL0     C76584   9.893   9.866   0.338 -0.3162 -0.4346  0.5095
  568MOL0     C76585  10.008   9.881   0.239  0.2115  0.2968  0.0626
  568MOL0     C76586  10.063  10.030   0.210  0.6222 -0.1852  0.1892
  568MOL0     C76587  10.103  10.099   0.343 -0.1109 -0.1148  0.0586
  568MOL0     C76588  10.216  10.030   0.427 -0.5520 -0.1254 -0.9395
  568MOL0    Cl76589  10.361   9.999   0.322 -0.6175  0.3556  0.1933
  568MOL0     C76590   9.270  10.123   0.319 -0.0691 -0.4388  0.0915
  568MOL0     C76591   9.139  10.172   0.293 -0.5817  0.9512  0.2257
  568MOL0     O76592   8.936  10.343   0.202  0.5651 -0.5349 -0.4288
  568MOL0     C76593   8.639  10.239   0.344  0.6100  0.3464 -0.2421
  568MOL0     C76594   8.503  10.286   0.368 -0.2141 -0.8223 -0.4791
  568MOL0     N76595   8.159  10.679   0.794  0.3706  0.3139  0.2674
  568MOL0     N76596   8.105  10.679   0.909 -0.3511 -0.4448 -0.5080
  568MOL0     C76597   6.929  10.248   1.254 -0.0472 -0.9880 -0.0647
  568MOL0     C76598   6.816  10.171   1.295 -0.2240 -0.1729  0.1909
  568MOL0     C76599   6.467   9.993   1.491  0.0016  0.0210 -0.4324
  568MOL0     C76600   6.391  10.089   1.573 -0.1492  0.1424 -0.7190
  568MOL0     C76601   6.263  10.064   1.618  0.0413  0.3687 -1.0167
  568MOL0     C76602   6.205   9.943   1.591  0.3185  0.0483 -0.9723
  568MOL0     O76603   6.091   9.900   1.651  0.6854 -0.3846 -0.6835
  568MOL0     C76604   6.049   9.965   1.769  0.6984 -0.2425 -0.5210
  568MOL0     C76605   5.916   9.908   1.812  0.4387  0.0517 -0.1212
  568MOL0     C76606   5.806   9.940   1.702 -0.3460  0.1457 -0.3597
  568MOL0     C76607   5.670   9.905   1.756  0.8957  0.4497  0.3565
  568MOL0     C76608   5.564   9.943   1.658 -0.2196 -0.0798  0.3084
  568MOL0     C76609   5.484   9.957   1.567  0.2436  0.4801 -0.3937
  568MOL0     C76610   6.268   9.857   1.505 -0.1284  1.1417 -0.4155
  568MOL0     C76611   6.396   9.880   1.449 -0.4085  0.4831 -1.2024
  568MOL0     C76612   6.463   9.777   1.367  1.0230 -0.2852  0.3318
  568MOL0     H76613   6.799  10.318   1.607 -2.9471  3.8325 -2.8946
  568MOL0     H76614   7.023  10.411   1.527 -0.5643 -1.3073 -0.4758
  568MOL0     H76615   7.258  10.420   1.469  0.5965  0.9343 -1.6571
  568MOL0     H76616   7.229  10.248   1.456  0.0054 -0.4068 -0.6366
  568MOL0     H76617   7.343  10.257   1.230  1.6724 -0.6998 -0.4472
  568MOL0     H76618   7.445  10.272   1.378  1.0616  0.4643 -0.2822
  568MOL0     H76619   7.387  10.541   1.318 -1.5223  0.7470 -0.4651
  568MOL0     H76620   7.371  10.475   1.154  3.3373  0.3656 -0.8375
  568MOL0     H76621   7.619  10.554   1.252  1.7885 -0.0453 -2.0174
  568MOL0     H76622   7.619  10.383   1.273 -0.9317  0.0145 -0.4109
  568MOL0     H76623   7.571  10.343   1.052  0.8908 -0.5993  0.7905
  568MOL0     H76624   7.566  10.513   0.995 -1.2773 -1.7403 -0.6854
  568MOL0     H76625   7.787  10.353   1.124 -2.5222 -2.0498 -1.2524
  568MOL0     H76626   7.783  10.390   0.947  0.3338  1.3967 -0.8470
  568MOL0     H76627   7.833  10.616   1.163 -1.9605  0.8228 -0.8348
  568MOL0     H76628   7.821  10.626   0.986 -1.5233 -0.4574 -0.5934
  568MOL0     H76629   8.057  10.570   1.137  0.1445  1.3225  0.3110
  568MOL0     H76630   8.008  10.416   1.073 -1.4614  0.5453  0.1035
  568MOL0     H76631   8.012  10.382   0.796 -1.0576 -1.3258  4.5506
  568MOL0     H76632   8.281  10.527   0.562 -0.2800  2.1881  0.8941
  568MOL0     H76633   8.166  10.404   0.582  3.4742 -0.6630 -1.7252
  568MOL0     H76634   7.977  10.542   0.508 -1.7435  2.9515  0.3472
  568MOL0     H76635   8.086  10.683   0.503 -1.8599  0.5290  0.3292
  568MOL0     H76636   8.074  10.615   0.271 -2.1278  1.5205  3.7480
  568MOL0     H76637   8.084  10.442   0.315 -0.0057 -0.7104  0.5062
  568MOL0     H76638   8.319  10.639   0.358  0.5898  1.4521 -0.9563
  568MOL0     H76639   8.300  10.565   0.202 -1.1827  2.9460  0.7886
  568MOL0     H76640   8.538  10.582   0.203  0.2925  0.0551  1.4299
  568MOL0     H76641   8.752  10.497   0.180 -0.0802  0.5439  0.1556
  568MOL0     H76642   8.974   9.943   0.480 -0.3557  0.8229  1.0388
  568MOL0     H76643   9.187   9.865   0.508  1.8927  1.6078  0.9317
  568MOL0     H76644   9.489   9.924   0.235 -0.6614  0.5067 -0.9849
  568MOL0     H76645   9.553  10.069   0.309 -0.0067 -0.5537  0.6108
  568MOL0     H76646   9.675   9.939   0.481  1.5126  0.9300 -1.3048
  568MOL0     H76647   9.627   9.793   0.375 -4.8159  0.2516  1.7216
  568MOL0     H76648   9.736   9.884   0.191  1.5202 -0.3032  0.6138
  568MOL0     H76649   9.769  10.037   0.280 -1.9736  1.2912 -0.7652
  568MOL0     H76650   9.877   9.759   0.353 -5.0645 -0.9414 -4.7101
  568MOL0     H76651   9.928   9.906   0.433  0.2612  0.4077 -0.0358
  568MOL0     H76652   9.980   9.829   0.146  2.3918  0.3472 -0.6785
  568MOL0     H76653  10.092   9.831   0.289  1.3810  0.2449 -1.8222
  568MOL0     H76654  10.148  10.019   0.142  1.9380 -2.8843  2.0842
  568MOL0     H76655   9.994  10.098   0.159  1.0197  0.2877  0.2776
  568MOL0     H76656  10.019  10.095   0.412 -2.2262  0.5760 -2.3277
  568MOL0     H76657  10.134  10.201   0.318 -0.9275 -0.0067 -0.5637
  568MOL0     H76658  10.237  10.094   0.513 -3.2358 -0.0068 -0.2971
  568MOL0     H76659  10.184   9.934   0.468  0.1040 -0.0808 -0.3058
  568MOL0     H76660   9.343  10.192   0.279 -0.5987 -0.1201 -0.3455
  568MOL0     H76661   9.147  10.256   0.224  1.0407  1.6968  1.2748
  568MOL0     H76662   8.672  10.145   0.387 -1.6430  0.4194  1.8901
  568MOL0     H76663   8.439  10.220   0.425 -0.8554 -1.1088 -1.5064
  568MOL0     H76664   6.963  10.252   1.151  3.3907  0.8550  0.9817
  568MOL0     H76665   6.766  10.116   1.216  1.8401 -0.1913 -1.1828
  568MOL0     H76666   6.439  10.178   1.611  2.4677 -2.5286  3.0167
  568MOL0     H76667   6.214  10.139   1.680 -0.0442 -0.8481  0.4486
  568MOL0     H76668   6.039  10.072   1.752 -0.4997 -0.5537 -2.0735
  568MOL0     H76669   6.122   9.952   1.850  0.7318 -0.3862 -0.5730
  568MOL0     H76670   5.877   9.956   1.903  0.3231  1.6688 -0.9872
  568MOL0     H76671   5.924   9.801   1.832  0.6169  0.2619  1.0022
  568MOL0     H76672   5.824   9.880   1.613 -1.8429 -3.0071  1.2784
  568MOL0     H76673   5.798  10.046   1.677 -1.5205  0.2921  0.5278
  568MOL0     H76674   5.663   9.797   1.768 -2.2351  0.3731 -1.2675
  568MOL0     H76675   5.659   9.955   1.853  0.6053 -2.2107  1.7713
  568MOL0     H76676   5.397   9.954   1.504 -2.2690  1.9427  2.7265
  568MOL0     H76677   6.214   9.764   1.491  1.1402 -0.2355  2.8629
  568MOL0     H76678   6.545   9.735   1.425 -0.2583 -0.2000  2.3211
  568MOL0     H76679   6.399   9.688   1.362  0.8337 -0.1943  0.9698
  568MOL0     H76680   6.494   9.818   1.270  0.6149 -2.1486 -0.6325
  569MOL0     O76681   3.917   5.223   0.102  0.2952 -0.3799 -0.4945
  569MOL0     C76682   3.811   5.257   0.163  0.1975  0.3052  0.0088
  569MOL0     O76683   3.809   5.343   0.277 -0.0763  0.1383  0.8723
  569MOL0     C76684   3.926   5.355   0.355  0.1920 -0.2575  0.6288
  569MOL0     C76685   3.976   5.486   0.364 -0.2251  0.5408 -0.1339
  569MOL0     C76686   4.105   5.504   0.426 -0.1099 -0.5432 -0.6780
  569MOL0     C76687   4.178   5.397   0.493  0.9063 -0.7214  0.2543
  569MOL0     O76688   4.302   5.406   0.543  0.3550  0.0179  0.3724
  569MOL0     C76689   4.390   5.508   0.491 -0.7378 -0.0120  0.1876
  569MOL0     C76690   4.407   5.614   0.602  0.2244 -1.0765 -0.4146
  569MOL0     C76691   4.483   5.566   0.725  1.0937  0.3833 -0.1110
  569MOL0     C76692   4.564   5.668   0.806  0.1232 -0.4513  0.0930
  569MOL0     C76693   4.716   5.646   0.778 -0.5180 -0.6135  0.3010
  569MOL0     C76694   4.792   5.774   0.799 -0.1890 -0.4295  0.1813
  569MOL0     C76695   4.935   5.787   0.736  0.8708  0.2471  1.1337
  569MOL0     C76696   4.981   5.935   0.754  0.8474  0.3483  0.1884
  569MOL0     N76697   5.123   5.950   0.720  0.3649  0.0787 -0.0282
  569MOL0     C76698   5.163   5.962   0.585 -0.0904 -0.0476  0.2894
  569MOL0     C76699   5.300   5.950   0.581  0.1434 -1.1783 -0.1088
  569MOL0     C76700   5.407   5.964   0.477 -0.0798  0.4401 -0.6611
  569MOL0     C76701   5.405   6.093   0.399 -0.1678 -0.0085 -0.1599
  569MOL0     C76702   5.503   6.105   0.276  0.2502 -0.4729  0.7110
  569MOL0     C76703   5.650   6.104   0.317 -0.0369  0.8973 -0.5984
  569MOL0     O76704   5.679   5.966   0.347  0.3917  0.3275 -0.6858
  569MOL0     C76705   5.793   5.918   0.294 -0.3783  0.2253 -0.0761
  569MOL0     C76706   5.791   5.851   0.174  0.5701 -0.4580  0.0716
  569MOL0     C76707   5.905   5.797   0.119  0.1950 -0.2568  0.6485
  569MOL0     C76708   6.032   5.838   0.161  0.1724 -0.3244 -0.4865
  569MOL0     C76709   6.155   5.798   0.107  0.0540 -0.6273 -0.4781
  569MOL0     O76710   6.268   5.851   0.166  0.4413 -0.6624 -0.5260
  569MOL0     C76711   6.391   5.807   0.139 -0.0822  0.6242  0.4409
  569MOL0     C76712   6.496   5.897   0.166 -0.4606 -0.1997 -0.4995
  569MOL0     C76713   6.626   5.850   0.177  0.4483  0.3548 -0.6387
  569MOL0     C76714   6.662   5.727   0.135 -0.2418  0.9204 -1.3492
  569MOL0     O76715   6.795   5.687   0.114  0.3808 -0.1957 -0.3673
  569MOL0     C76716   6.899   5.764   0.172  0.6573  0.3778  0.2790
  569MOL0     C76717   7.031   5.683   0.154 -0.1546  0.1935 -1.0912
  569MOL0     C76718   7.060   5.659   0.003 -0.1948 -0.3328 -0.5608
  569MOL0     C76719   7.063   5.777  -0.100  0.5126 -0.4992  0.3087
  569MOL0     C76720   7.141   5.747  -0.231  0.2684  0.0010 -0.4318
  569MOL0     C76721   7.083   5.640  -0.312  0.1346  0.2602 -1.3289
  569MOL0     C76722   7.128   5.647  -0.458 -0.7409  0.4106  0.3419
  569MOL0     C76723   7.274   5.601  -0.473  0.2074  0.2504  1.0476
  569MOL0    Cl76724   7.287   5.439  -0.407 -0.0042 -0.3739  0.0407
  569MOL0     C76725   6.557   5.643   0.091 -0.5824 -0.0761  0.5988
  569MOL0     C76726   6.427   5.675   0.096 -0.4525  0.3149  0.3772
  569MOL0     O76727   6.151   5.704   0.030 -0.0287 -0.2905 -0.5034
  569MOL0     C76728   6.030   5.904   0.285 -0.2094  0.0556  0.1694
  569MOL0     C76729   5.914   5.941   0.351 -1.0065  0.2668 -0.0142
  569MOL0     N76730   5.328   5.929   0.712 -0.8587 -0.2086 -0.4905
  569MOL0     N76731   5.222   5.916   0.793 -0.6424  0.2667  0.5056
  569MOL0     C76732   4.114   5.271   0.489 -0.6913  0.5441  0.3060
  569MOL0     C76733   3.992   5.246   0.418 -0.2533 -0.4124 -0.8022
  569MOL0     C76734   3.680   5.206   0.116  0.0274 -0.1989 -0.4745
  569MOL0     C76735   3.665   5.183  -0.025 -0.2892  0.1926 -0.0842
  569MOL0     C76736   3.544   5.144  -0.075  0.1157 -0.3856 -0.2375
  569MOL0     C76737   3.435   5.115   0.001  0.1072  0.7736  0.0132
  569MOL0     O76738   3.337   5.060  -0.064 -0.2779 -0.1026  0.6980
  569MOL0     C76739   3.234   4.986  -0.004  0.1141 -0.7225  0.4511
  569MOL0     C76740   3.169   4.910  -0.116  0.1924  0.5772  0.1475
  569MOL0     C76741   3.082   4.998  -0.192 -0.3328 -0.6263  0.5576
  569MOL0     C76742   3.028   4.940  -0.321  0.0245 -0.4793  0.1989
  569MOL0     C76743   2.900   4.997  -0.356 -0.4514  0.2011  0.1286
  569MOL0     C76744   2.800   5.056  -0.393 -0.0937  0.5499 -1.2102
  569MOL0     C76745   3.440   5.124   0.139  0.4657  0.1612 -0.2147
  569MOL0     C76746   3.564   5.172   0.194  0.3985  0.4281 -0.7999
  569MOL0     C76747   3.563   5.177   0.343 -0.3011  0.4153 -0.1881
  569MOL0     H76748   3.931   5.569   0.310  0.3938  2.8491  2.6576
  569MOL0     H76749   4.155   5.600   0.433 -1.2472  0.1633 -1.7122
  569MOL0     H76750   4.485   5.464   0.461 -0.1495  0.9279  0.6271
  569MOL0     H76751   4.355   5.551   0.397 -0.2042 -3.6033 -1.8446
  569MOL0     H76752   4.310   5.656   0.629  0.6035  0.3809 -1.1901
  569MOL0     H76753   4.476   5.693   0.568 -1.3250  3.1690  4.8996
  569MOL0     H76754   4.548   5.489   0.683 -1.7103 -1.5817 -1.1426
  569MOL0     H76755   4.422   5.507   0.794 -1.2149 -2.1751 -3.9924
  569MOL0     H76756   4.525   5.763   0.767 -2.0235 -2.0657 -1.9331
  569MOL0     H76757   4.541   5.674   0.913 -1.0913  0.5971 -0.2003
  569MOL0     H76758   4.752   5.567   0.844  2.1295  0.5561  0.3889
  569MOL0     H76759   4.736   5.608   0.678  0.6935 -1.3354  0.8013
  569MOL0     H76760   4.738   5.857   0.752 -1.9406 -0.2842  2.2901
  569MOL0     H76761   4.798   5.800   0.905 -0.5313  1.7376 -0.2762
  569MOL0     H76762   4.942   5.753   0.632  1.5598 -0.5033  1.4130
  569MOL0     H76763   4.994   5.716   0.795  0.3621  0.7486  2.2746
  569MOL0     H76764   4.922   6.001   0.690 -0.2343  1.0667  1.8712
  569MOL0     H76765   4.960   5.974   0.854  2.5245  2.1393 -0.1017
  569MOL0     H76766   5.100   5.972   0.497 -2.9429  0.6602  2.2863
  569MOL0     H76767   5.504   5.953   0.526 -1.7045  0.0188  2.7476
  569MOL0     H76768   5.398   5.880   0.407  1.6401 -0.4544  0.1187
  569MOL0     H76769   5.299   6.111   0.377 -0.0537  1.7365  0.5652
  569MOL0     H76770   5.432   6.173   0.468 -0.4515 -0.2599  0.2466
  569MOL0     H76771   5.487   6.200   0.225  0.4727  0.3718  2.1680
  569MOL0     H76772   5.480   6.030   0.199  0.9564 -0.3941  0.4143
  569MOL0     H76773   5.665   6.162   0.409  2.0092  0.9365 -0.9157
  569MOL0     H76774   5.715   6.145   0.239  1.2459  0.7985  0.3744
  569MOL0     H76775   5.695   5.825   0.131 -0.5552  1.9800  0.9144
  569MOL0     H76776   5.891   5.727   0.037  2.7874  0.2676 -0.3316
  569MOL0     H76777   6.477   6.003   0.177 -0.0255 -0.0281 -1.3191
  569MOL0     H76778   6.693   5.923   0.221 -1.6762  1.6142  0.6928
  569MOL0     H76779   6.913   5.861   0.122  2.9855 -0.2387 -0.3847
  569MOL0     H76780   6.885   5.786   0.278 -1.6656  3.2533 -0.4843
  569MOL0     H76781   7.116   5.734   0.201  0.0656 -1.2542  0.1638
  569MOL0     H76782   7.024   5.585   0.201  0.0970  0.4988 -0.4041
  569MOL0     H76783   7.158   5.610  -0.002 -0.3376 -0.5783 -1.0343
  569MOL0     H76784   6.979   5.597  -0.037  0.3145 -1.9479  0.8003
  569MOL0     H76785   7.117   5.859  -0.051  1.0574 -0.6935  0.0511
  569MOL0     H76786   6.963   5.808  -0.129  0.6101 -0.4097  0.0605
  569MOL0     H76787   7.242   5.718  -0.200 -1.4127 -4.0029  2.1288
  569MOL0     H76788   7.147   5.839  -0.290 -0.8990 -0.0606 -0.6751
  569MOL0     H76789   7.105   5.542  -0.268 -1.2539  0.6781  0.4059
  569MOL0     H76790   6.974   5.639  -0.316 -0.1129 -4.4589  0.4759
  569MOL0     H76791   7.122   5.750  -0.495 -1.8072 -0.4220 -1.9526
  569MOL0     H76792   7.074   5.569  -0.511  0.4617 -1.9975  2.4319
  569MOL0     H76793   7.296   5.593  -0.580 -3.8727  1.4958 -0.0355
  569MOL0     H76794   7.347   5.675  -0.438 -0.2253  0.8332  0.7171
  569MOL0     H76795   6.587   5.542   0.065 -2.1463 -0.5460  0.5342
  569MOL0     H76796   6.352   5.602   0.068 -0.6831  0.6166  0.1991
  569MOL0     H76797   6.123   5.916   0.339 -0.3817 -0.1922  0.5278
  569MOL0     H76798   5.920   5.972   0.455  1.2147  1.0535 -0.3276
  569MOL0     H76799   4.171   5.183   0.519  0.9281  0.5333 -2.4854
  569MOL0     H76800   3.949   5.146   0.411 -1.8650  0.2055 -0.2742
  569MOL0     H76801   3.745   5.193  -0.098 -2.1238  0.7738 -2.1247
  569MOL0     H76802   3.525   5.130  -0.181  2.6980  1.8257 -1.1091
  569MOL0     H76803   3.159   5.057   0.031 -0.8585 -0.5435 -1.8157
  569MOL0     H76804   3.267   4.916   0.073  0.7306 -0.0018  0.8546
  569MOL0     H76805   3.108   4.830  -0.073  0.0364  0.0042 -1.1173
  569MOL0     H76806   3.244   4.862  -0.179 -0.7002 -1.3528  0.4727
  569MOL0     H76807   3.141   5.081  -0.232 -1.0737 -0.0696  0.5999
  569MOL0     H76808   2.996   5.032  -0.134 -0.9156 -1.4020  0.1776
  569MOL0     H76809   3.100   4.956  -0.402 -1.0795  0.5271 -0.6047
  569MOL0     H76810   3.018   4.832  -0.313  1.1530 -0.7335 -1.3403
  569MOL0     H76811   2.713   5.106  -0.430 -0.9274 -0.1813 -0.3034
  569MOL0     H76812   3.358   5.101   0.206  1.5889 -1.1512  0.7772
  569MOL0     H76813   3.542   5.272   0.393 -0.2668  0.8599 -1.0150
  569MOL0     H76814   3.479   5.118   0.381  0.3011 -0.8303 -0.7596
  569MOL0     H76815   3.650   5.131   0.391 -0.2325 -2.5551 -2.8467
  570MOL0     O76816  10.249   2.154   7.746  0.0054 -0.0591  0.0687
  570MOL0     C76817  10.242   2.036   7.780 -0.8390 -0.6372  0.0176
  570MOL0     O76818  10.346   1.975   7.840  0.2962 -0.1229 -1.1382
  570MOL0     C76819  10.479   2.012   7.825  0.1405 -0.0198 -0.4817
  570MOL0     C76820  10.518   2.078   7.707 -0.5261 -0.1911 -0.0953
  570MOL0     C76821  10.652   2.115   7.695 -0.6530 -0.1688 -0.2934
  570MOL0     C76822  10.748   2.088   7.795  0.0688  0.6868  0.0082
  570MOL0     O76823  10.878   2.112   7.798 -0.2384  0.0934 -0.2627
  570MOL0     C76824  10.930   2.167   7.677 -0.0948 -0.3452 -0.4261
  570MOL0     C76825  11.080   2.164   7.682  0.0200 -0.4785 -0.3293
  570MOL0     C76826  11.156   2.234   7.567  0.0207 -0.1975 -0.2577
  570MOL0     C76827  11.285   2.307   7.626 -0.2154  0.5606  0.3398
  570MOL0     C76828  11.359   2.394   7.518  0.1301  0.3947 -1.0431
  570MOL0     C76829  11.490   2.462   7.569  0.4352  0.1242 -0.2429
  570MOL0     C76830  11.517   2.589   7.484  0.5810  0.6657  0.3672
  570MOL0     C76831  11.633   2.668   7.535 -1.0496  0.1145 -0.7612
  570MOL0     N76832  11.631   2.795   7.462 -0.4629 -0.3488 -0.0376
  570MOL0     C76833  11.722   2.844   7.373 -0.1701 -0.0424 -0.2485
  570MOL0     C76834  11.677   2.965   7.335  0.5465  0.0809  1.0890
  570MOL0     C76835  11.747   3.036   7.218  0.6651 -0.0470  0.5504
  570MOL0     C76836  11.906   3.035   7.218 -0.0691 -0.0530  0.2932
  570MOL0     C76837  11.966   3.147   7.125  0.4829  0.6604  0.5332
  570MOL0     C76838  12.118   3.121   7.104  0.2539  0.6146  0.1865
  570MOL0     O76839  12.149   3.218   7.012 -0.7674  0.4241  0.2164
  570MOL0     C76840  12.276   3.248   6.994 -0.2064  0.8310  0.2578
  570MOL0     C76841  12.379   3.167   7.026 -0.2087 -0.4422 -0.2069
  570MOL0     C76842  12.508   3.216   7.013 -0.2198 -0.3531  0.6261
  570MOL0     C76843  12.545   3.337   6.958  0.4374 -0.8144  1.0151
  570MOL0     C76844  12.682   3.385   6.949  0.0480  0.8994  0.6115
  570MOL0     O76845  12.768   3.342   7.044  0.2776 -0.1501  0.2703
  570MOL0     C76846  12.895   3.380   7.036  0.1167 -0.4332  1.3800
  570MOL0     C76847  12.982   3.277   7.057 -1.2128  0.2269 -0.1721
  570MOL0     C76848  13.117   3.294   7.067  0.6672 -0.4762 -0.4859
  570MOL0     C76849  13.164   3.424   7.079 -0.4658  0.0175  0.4413
  570MOL0     O76850  13.298   3.461   7.104  0.2360  0.6705 -0.4257
  570MOL0     C76851  13.392   3.354   7.097 -0.1882 -0.4004  0.2931
  570MOL0     C76852  13.511   3.417   7.166 -0.7982  0.1548  0.4980
  570MOL0     C76853  13.640   3.337   7.160  0.1427  0.5186  0.9602
  570MOL0     C76854  13.753   3.380   7.249 -0.7934 -0.5413  0.8615
  570MOL0     C76855  13.885   3.293   7.240  0.1945  0.3290  0.6930
  570MOL0     C76856  13.941   3.260   7.099 -0.2336 -0.1846 -0.0962
  570MOL0     C76857  14.074   3.192   7.110 -0.2852  0.2605 -0.6495
  570MOL0     C76858  14.126   3.114   6.988  0.5701  0.7078 -0.5845
  570MOL0    Cl76859  14.302   3.090   6.993 -0.5528  0.1911 -0.4790
  570MOL0     C76860  13.077   3.534   7.061  0.7953  0.7905  0.9974
  570MOL0     C76861  12.942   3.506   7.039  0.7649  0.0792  0.4838
  570MOL0     O76862  12.713   3.448   6.845 -0.0661 -0.4680 -0.1846
  570MOL0     C76863  12.435   3.408   6.908 -0.1495 -0.3486 -0.4677
  570MOL0     C76864  12.300   3.367   6.928 -0.0933  0.2261  0.4068
  570MOL0     N76865  11.566   2.994   7.401  0.0538  0.5136 -0.3431
  570MOL0     N76866  11.539   2.890   7.483  0.3176  0.2952  0.2379
  570MOL0     C76867  10.708   2.028   7.910 -0.1486 -0.2598 -0.1824
  570MOL0     C76868  10.579   1.984   7.919 -0.1989  0.0876  0.2999
  570MOL0     C76869  10.116   1.966   7.750  0.2141  0.6121  0.1593
  570MOL0     C76870  10.000   2.036   7.724  0.2675  0.4077  0.6167
  570MOL0     C76871   9.878   1.971   7.687 -0.9523 -0.1167 -0.3317
  570MOL0     C76872   9.874   1.837   7.683  0.2219  0.1580 -0.1302
  570MOL0     O76873   9.761   1.778   7.640 -0.9209  0.7173  0.1338
  570MOL0     C76874   9.692   1.689   7.737  0.3110  0.1462 -1.2948
  570MOL0     C76875   9.557   1.649   7.678  0.1314 -1.2021 -0.1789
  570MOL0     C76876   9.471   1.567   7.784  0.0958 -0.8081  0.7624
  570MOL0     C76877   9.537   1.446   7.845  0.2767  0.1310 -0.3237
  570MOL0     C76878   9.576   1.352   7.736 -0.0993 -0.4757 -0.3374
  570MOL0     C76879   9.625   1.267   7.660  0.0336  0.0359  0.5296
  570MOL0     C76880   9.984   1.761   7.716  0.4850 -0.4976 -0.4777
  570MOL0     C76881  10.107   1.824   7.743 -0.7253 -0.2882  0.7222
  570MOL0     C76882  10.226   1.737   7.784  0.4209 -0.8245  0.3555
  570MOL0     H76883  10.445   2.116   7.636 -1.5214  0.4950  1.2322
  570MOL0     H76884  10.680   2.151   7.597  1.0589 -0.3216  0.1057
  570MOL0     H76885  10.896   2.122   7.584  0.9844 -0.6559 -0.6932
  570MOL0     H76886  10.901   2.272   7.663  0.0813 -0.1171  0.7964
  570MOL0     H76887  11.106   2.058   7.678 -1.1287 -0.7643 -0.5327
  570MOL0     H76888  11.108   2.199   7.782  4.0157  2.7156 -2.2569
  570MOL0     H76889  11.092   2.303   7.512 -1.0403  0.9792  2.3191
  570MOL0     H76890  11.202   2.154   7.509  0.1098  0.1182 -0.6222
  570MOL0     H76891  11.255   2.366   7.713 -1.2225  0.6229 -0.0279
  570MOL0     H76892  11.358   2.235   7.663  1.7848  0.7876 -2.7210
  570MOL0     H76893  11.384   2.331   7.433  2.1298  0.4205 -0.5148
  570MOL0     H76894  11.299   2.476   7.476  0.3244  1.1734  0.1480
  570MOL0     H76895  11.491   2.480   7.677  1.3047  0.0009 -0.2252
  570MOL0     H76896  11.578   2.399   7.553  1.1734  1.3474 -1.2209
  570MOL0     H76897  11.428   2.651   7.495  2.0509  2.6706  1.9029
  570MOL0     H76898  11.539   2.567   7.379  2.5134  0.7497  0.7110
  570MOL0     H76899  11.616   2.680   7.642  1.1923 -1.2239 -0.1843
  570MOL0     H76900  11.723   2.607   7.521 -1.7343 -0.8675 -1.0148
  570MOL0     H76901  11.815   2.798   7.343  0.6289  1.0300  0.4898
  570MOL0     H76902  11.708   3.000   7.123 -1.0287 -0.4614  1.3607
  570MOL0     H76903  11.705   3.137   7.228 -0.2261 -0.3103 -0.3908
  570MOL0     H76904  11.936   3.060   7.320  1.3941 -0.5971  0.0233
  570MOL0     H76905  11.938   2.932   7.197 -1.3476 -0.3556 -0.2996
  570MOL0     H76906  11.945   3.244   7.170 -2.6049  0.7827 -0.8889
  570MOL0     H76907  11.908   3.146   7.033 -0.8122 -1.5058  1.2822
  570MOL0     H76908  12.124   3.021   7.060 -1.3444  0.8424 -0.6315
  570MOL0     H76909  12.165   3.118   7.202 -1.7915 -2.5539  1.2397
  570MOL0     H76910  12.366   3.073   7.079 -0.1420  0.3534  1.2624
  570MOL0     H76911  12.589   3.152   7.046 -0.8730 -0.4551  2.0798
  570MOL0     H76912  12.949   3.176   7.075 -0.7874  0.2571  0.8406
  570MOL0     H76913  13.186   3.212   7.080 -1.4053 -1.9201  2.4125
  570MOL0     H76914  13.361   3.261   7.146 -2.7346 -0.5931 -1.4545
  570MOL0     H76915  13.401   3.337   6.989  2.0525 -0.2666  0.4155
  570MOL0     H76916  13.531   3.519   7.133 -1.5784  0.2712  0.3642
  570MOL0     H76917  13.479   3.423   7.270 -1.0123 -0.0406  0.4441
  570MOL0     H76918  13.624   3.230   7.180 -1.0490  0.2345 -1.2164
  570MOL0     H76919  13.673   3.345   7.056 -3.7258  0.8188 -0.3824
  570MOL0     H76920  13.711   3.387   7.350  0.8072 -0.0247  1.5319
  570MOL0     H76921  13.789   3.480   7.223  3.3176 -0.7264  4.6519
  570MOL0     H76922  13.870   3.197   7.290  0.5956 -0.1342 -0.0632
  570MOL0     H76923  13.963   3.348   7.294  1.1716  0.0713 -0.4215
  570MOL0     H76924  13.874   3.190   7.050 -0.5491  1.1845 -1.7366
  570MOL0     H76925  13.961   3.350   7.039  0.6538  0.2482  0.8131
  570MOL0     H76926  14.065   3.125   7.196 -1.1028  0.9674 -0.1713
  570MOL0     H76927  14.154   3.264   7.131  0.4939  0.0276 -2.6435
  570MOL0     H76928  14.077   3.016   6.983  2.0640 -0.2684  1.7696
  570MOL0     H76929  14.094   3.167   6.899 -3.6754  0.4699  0.5678
  570MOL0     H76930  13.118   3.634   7.069 -1.0102  1.4515  2.9296
  570MOL0     H76931  12.871   3.587   7.048 -1.9570 -2.0689 -0.2137
  570MOL0     H76932  12.449   3.500   6.852 -0.9857  2.1077  3.0713
  570MOL0     H76933  12.211   3.419   6.893 -2.8004 -4.4517 -0.4380
  570MOL0     H76934  10.780   1.998   7.986 -0.8188  1.3622  1.1670
  570MOL0     H76935  10.554   1.926   8.007 -0.9571  1.4673  1.0408
  570MOL0     H76936  10.007   2.144   7.733  0.2423  0.5699 -1.0147
  570MOL0     H76937   9.786   2.026   7.671 -1.1264 -0.5064 -0.6904
  570MOL0     H76938   9.676   1.746   7.829 -2.9497 -0.4678 -1.3635
  570MOL0     H76939   9.756   1.605   7.764  3.6738  2.8824  0.0937
  570MOL0     H76940   9.563   1.598   7.581 -2.4975  0.0133 -1.0779
  570MOL0     H76941   9.499   1.740   7.661  1.2761  0.5298  4.0729
  570MOL0     H76942   9.382   1.529   7.734 -0.6063  2.1861 -0.4731
  570MOL0     H76943   9.437   1.646   7.851 -0.1972  2.0622 -2.4797
  570MOL0     H76944   9.626   1.473   7.902  1.4594 -1.0754 -1.5251
  570MOL0     H76945   9.474   1.391   7.915 -0.7750 -0.6966 -1.8492
  570MOL0     H76946   9.636   1.184   7.594  0.0141  0.1716  0.3540
  570MOL0     H76947   9.971   1.654   7.705 -1.0291 -0.2495 -1.5416
  570MOL0     H76948  10.211   1.633   7.755  1.5657 -0.4433 -1.8603
  570MOL0     H76949  10.315   1.769   7.728  0.4157 -1.4493 -0.0183
  570MOL0     H76950  10.239   1.754   7.891 -1.2899 -1.7622  0.7415
  571MOL0     O76951   4.900   0.694   8.701 -0.9784 -0.3858 -0.3549
  571MOL0     C76952   4.900   0.819   8.696  0.3852  0.2983 -0.5629
  571MOL0     O76953   4.999   0.898   8.740  0.4652 -0.3141 -0.0298
  571MOL0     C76954   5.108   0.828   8.787 -0.4272  0.9388 -0.2051
  571MOL0     C76955   5.183   0.740   8.711 -0.1746  0.4112 -0.2565
  571MOL0     C76956   5.287   0.665   8.765  0.4457  0.3910 -0.1819
  571MOL0     C76957   5.329   0.681   8.893 -0.5861 -0.1715 -0.3325
  571MOL0     O76958   5.438   0.607   8.930  0.3770 -0.3001 -0.5935
  571MOL0     C76959   5.541   0.669   8.997 -0.3814 -0.6555  0.1243
  571MOL0     C76960   5.665   0.591   8.967  0.4630  0.3507 -0.2360
  571MOL0     C76961   5.692   0.578   8.816 -0.9003  0.0536 -0.1392
  571MOL0     C76962   5.839   0.546   8.785 -0.3716 -0.3875  0.0227
  571MOL0     C76963   5.922   0.677   8.814  0.3852 -0.0349 -0.3196
  571MOL0     C76964   6.038   0.697   8.717  0.3899 -0.3397 -0.1527
  571MOL0     C76965   6.127   0.820   8.747  0.0432  0.6804  0.0452
  571MOL0     C76966   6.099   0.940   8.641  0.2528 -0.4229 -0.1968
  571MOL0     N76967   6.094   1.076   8.700  0.6421  0.2423 -0.4987
  571MOL0     C76968   5.979   1.131   8.753  0.0784 -0.6833  0.1924
  571MOL0     C76969   6.028   1.223   8.844  0.0900 -0.4082 -0.2336
  571MOL0     C76970   5.957   1.324   8.931 -0.7311 -0.0181  0.0104
  571MOL0     C76971   5.961   1.263   9.076  0.0571 -0.9814  0.9875
  571MOL0     C76972   5.884   1.351   9.179  0.3563  0.2612  0.2295
  571MOL0     C76973   5.947   1.336   9.311  0.6492 -0.0721 -0.1695
  571MOL0     O76974   6.082   1.379   9.309  0.3994 -0.2163  0.2709
  571MOL0     C76975   6.156   1.367   9.421 -0.2257 -0.0883 -0.5631
  571MOL0     C76976   6.282   1.415   9.413 -0.3718  0.4177 -0.5932
  571MOL0     C76977   6.376   1.390   9.521 -1.1430 -0.7087 -0.0692
  571MOL0     C76978   6.335   1.330   9.642 -0.6531 -0.3505  0.4413
  571MOL0     C76979   6.419   1.329   9.767 -0.2010 -0.3064  0.6446
  571MOL0     O76980   6.524   1.416   9.778 -0.2553  0.3032 -0.1514
  571MOL0     C76981   6.615   1.393   9.876  0.9103 -0.0889  0.5575
  571MOL0     C76982   6.626   1.287   9.966 -0.0071 -0.8161  0.3710
  571MOL0     C76983   6.720   1.291  10.076  0.1997  0.1993 -0.0881
  571MOL0     C76984   6.805   1.399  10.092 -0.5090 -0.0058 -0.8360
  571MOL0     O76985   6.897   1.412  10.193  0.6883 -0.3018  0.3737
  571MOL0     C76986   6.979   1.298  10.217  0.2563 -0.3293  0.2195
  571MOL0     C76987   7.122   1.348  10.252  0.4633  0.5298 -0.9954
  571MOL0     C76988   7.235   1.240  10.229 -0.0846  0.1615  1.4093
  571MOL0     C76989   7.219   1.139  10.109 -0.6509  0.0483  0.0939
  571MOL0     C76990   7.350   1.059  10.101 -0.7059 -0.7924  0.7548
  571MOL0     C76991   7.468   1.144  10.031  0.2968 -0.3453  0.7892
  571MOL0     C76992   7.599   1.066  10.036 -0.0386 -0.4190 -0.3413
  571MOL0     C76993   7.714   1.150  10.001  0.1195 -0.3493 -0.3178
  571MOL0    Cl76994   7.859   1.058   9.949 -0.0186  0.2504  0.1234
  571MOL0     C76995   6.797   1.495  10.001  0.0890  0.1505  0.2723
  571MOL0     C76996   6.712   1.496   9.886 -0.1326 -0.3586 -0.4518
  571MOL0     O76997   6.376   1.252   9.854 -0.2093  0.1088 -0.8324
  571MOL0     C76998   6.197   1.295   9.647  0.7977  0.8272 -0.2285
  571MOL0     C76999   6.111   1.314   9.539 -0.4253  0.1290 -0.1755
  571MOL0     N77000   6.166   1.216   8.846  0.0830 -0.6127 -0.0552
  571MOL0     N77001   6.203   1.134   8.753 -0.2972 -0.7805 -0.2496
  571MOL0     C77002   5.270   0.793   8.966  0.6477  0.2769 -0.1787
  571MOL0     C77003   5.166   0.860   8.917  0.1127 -0.5664  0.5409
  571MOL0     C77004   4.768   0.882   8.673  0.3691 -0.6669 -0.2153
  571MOL0     C77005   4.691   0.821   8.576 -0.3689  0.1377 -0.2255
  571MOL0     C77006   4.567   0.865   8.527  0.0947 -0.4366 -0.4152
  571MOL0     C77007   4.509   0.968   8.593  0.5331 -0.9680 -0.0024
  571MOL0     O77008   4.383   0.995   8.552 -0.0906  0.2288 -0.3532
  571MOL0     C77009   4.282   1.063   8.631 -0.9000  0.6187 -0.1444
  571MOL0     C77010   4.148   1.006   8.589 -0.3322  0.0699 -0.3643
  571MOL0     C77011   4.031   1.039   8.685 -0.5129 -0.5331  0.4339
  571MOL0     C77012   4.009   1.193   8.708 -0.2214  1.0833  0.8390
  571MOL0     C77013   4.003   1.261   8.578 -0.5077  0.1816  0.4856
  571MOL0     C77014   3.981   1.323   8.478 -1.0877  0.3324  0.6615
  571MOL0     C77015   4.578   1.038   8.697 -0.4516  0.1442 -0.2402
  571MOL0     C77016   4.704   0.991   8.743 -0.9635 -0.1558  0.0694
  571MOL0     C77017   4.763   1.050   8.865 -0.3388 -0.0255  0.3173
  571MOL0     H77018   5.157   0.722   8.607 -2.6159  0.5143  0.2917
  571MOL0     H77019   5.342   0.595   8.703  1.0074  1.7625 -1.3052
  571MOL0     H77020   5.565   0.774   8.974  0.4660 -0.6686  0.8987
  571MOL0     H77021   5.526   0.657   9.104  0.0531  1.7538  0.5274
  571MOL0     H77022   5.652   0.493   9.015  1.1057  0.6273  0.5316
  571MOL0     H77023   5.750   0.643   9.013  2.8038 -2.9560 -0.4313
  571MOL0     H77024   5.652   0.666   8.766 -3.2700 -1.5481 -1.2308
  571MOL0     H77025   5.628   0.495   8.785 -1.5180  0.3041  0.4389
  571MOL0     H77026   5.866   0.455   8.839 -2.6163 -2.2741 -1.7913
  571MOL0     H77027   5.850   0.521   8.679  0.0782 -0.1445  0.0074
  571MOL0     H77028   5.859   0.765   8.799  1.1585  0.5808 -0.0526
  571MOL0     H77029   5.965   0.685   8.914  1.6178  2.6902 -0.9768
  571MOL0     H77030   6.109   0.614   8.720  0.0416 -0.6282  0.2711
  571MOL0     H77031   5.991   0.716   8.620 -0.6169  2.7284  0.8024
  571MOL0     H77032   6.234   0.796   8.745  0.0996  0.8913 -1.7270
  571MOL0     H77033   6.105   0.863   8.845 -1.1413 -1.2530  0.6745
  571MOL0     H77034   6.185   0.937   8.574  0.8339 -1.6498  0.5527
  571MOL0     H77035   6.008   0.916   8.585  1.4734 -1.7385 -1.7497
  571MOL0     H77036   5.878   1.105   8.722  0.2966  0.3012 -1.5065
  571MOL0     H77037   5.998   1.423   8.911 -1.3380  0.1093 -0.6046
  571MOL0     H77038   5.854   1.322   8.894 -1.5196 -0.5312  2.1063
  571MOL0     H77039   5.907   1.168   9.071 -1.1911 -0.2272 -1.9995
  571MOL0     H77040   6.065   1.253   9.107  0.4025  1.0704  0.5801
  571MOL0     H77041   5.779   1.320   9.187  0.1610  0.7648 -0.2866
  571MOL0     H77042   5.878   1.457   9.152  0.8495  0.5408  1.1856
  571MOL0     H77043   5.928   1.234   9.347  2.2464 -0.4707 -0.3542
  571MOL0     H77044   5.900   1.394   9.391  0.0181 -1.8779  0.8318
  571MOL0     H77045   6.324   1.466   9.326  1.2840  0.5973  0.2672
  571MOL0     H77046   6.479   1.418   9.504 -1.5463 -0.2078 -1.9197
  571MOL0     H77047   6.562   1.199   9.970  0.4452 -1.1085  1.3744
  571MOL0     H77048   6.721   1.206  10.145 -0.4776 -2.6246 -3.2805
  571MOL0     H77049   6.940   1.238  10.299  1.7095 -0.5767  0.7646
  571MOL0     H77050   6.979   1.239  10.125  1.4298  0.9084 -0.6269
  571MOL0     H77051   7.153   1.434  10.190 -3.8513  2.9581 -0.1469
  571MOL0     H77052   7.109   1.392  10.351 -1.7639 -2.3598  0.1459
  571MOL0     H77053   7.331   1.293  10.220  0.3895 -0.5850  1.9795
  571MOL0     H77054   7.240   1.173  10.315 -0.4363  0.6381  1.8143
  571MOL0     H77055   7.197   1.192  10.016  1.8180 -0.0586 -0.6146
  571MOL0     H77056   7.137   1.067  10.124  0.6064 -1.2112  1.1700
  571MOL0     H77057   7.326   0.970  10.042 -1.8175  0.0922 -0.1973
  571MOL0     H77058   7.379   1.018  10.198 -2.2158 -1.0294  1.1379
  571MOL0     H77059   7.432   1.161   9.929  0.5626  0.7755  0.8717
  571MOL0     H77060   7.475   1.236  10.089  1.4723  1.2716 -1.7331
  571MOL0     H77061   7.593   0.982   9.966  1.0517 -1.3670  0.6566
  571MOL0     H77062   7.621   1.031  10.137 -0.0714 -1.4478 -0.6843
  571MOL0     H77063   7.681   1.221   9.924  1.5336 -0.4065 -0.9934
  571MOL0     H77064   7.743   1.212  10.086  0.8786  1.5354 -1.8754
  571MOL0     H77065   6.874   1.571  10.003  1.1170 -0.7215 -1.9887
  571MOL0     H77066   6.710   1.579   9.815  0.1596  0.2746  0.2621
  571MOL0     H77067   6.150   1.248   9.733  3.4190  0.6215  1.1999
  571MOL0     H77068   6.008   1.286   9.559 -0.1466 -1.7061 -1.0765
  571MOL0     H77069   5.313   0.820   9.062 -0.3303  1.2875 -0.0032
  571MOL0     H77070   5.116   0.941   8.968 -3.4578 -2.8323  0.9721
  571MOL0     H77071   4.732   0.736   8.523  0.7508  0.9330 -0.6606
  571MOL0     H77072   4.527   0.805   8.446 -2.7680  0.2792  0.3412
  571MOL0     H77073   4.297   1.171   8.622  1.0069  0.3284 -0.7148
  571MOL0     H77074   4.293   1.041   8.738 -0.2769 -2.8601 -0.8061
  571MOL0     H77075   4.144   0.897   8.581 -1.0598  0.0302  0.4783
  571MOL0     H77076   4.129   1.048   8.490  2.1536 -1.7454 -1.7329
  571MOL0     H77077   4.048   0.993   8.783  0.3478  1.3052  1.2106
  571MOL0     H77078   3.936   1.001   8.646 -0.4368  0.1890 -0.4849
  571MOL0     H77079   3.919   1.218   8.764  0.9924  2.0556  2.4528
  571MOL0     H77080   4.095   1.221   8.769 -0.3720  2.3095  0.5128
  571MOL0     H77081   3.953   1.383   8.394 -1.8808 -0.3148  0.4482
  571MOL0     H77082   4.538   1.127   8.746 -1.3683 -0.6519  0.4924
  571MOL0     H77083   4.825   0.971   8.908  1.0923  0.1731 -1.2748
  571MOL0     H77084   4.820   1.140   8.839 -0.8225  0.0955 -0.3711
  571MOL0     H77085   4.695   1.088   8.941  0.8378  1.0196  0.8794
  572MOL0     O77086   7.736   1.823   1.193  1.1041 -0.1895  0.7109
  572MOL0     C77087   7.686   1.804   1.079 -0.6173 -0.7717 -0.3091
  572MOL0     O77088   7.753   1.802   0.963 -0.4652 -0.0985  0.6116
  572MOL0     C77089   7.867   1.878   0.956  0.6809  0.5167 -0.9253
  572MOL0     C77090   7.864   2.023   0.957 -0.7932  0.4125  0.6204
  572MOL0     C77091   7.990   2.102   0.956 -0.4411  0.6549 -1.2111
  572MOL0     C77092   8.114   2.026   0.955  0.1984 -0.4032  0.7428
  572MOL0     O77093   8.240   2.078   0.953 -0.0669  0.1845  0.3017
  572MOL0     C77094   8.258   2.218   0.977  0.2507  0.1185 -0.2378
  572MOL0     C77095   8.407   2.246   0.964 -0.2420  0.4499 -0.3106
  572MOL0     C77096   8.483   2.153   1.056 -0.8897 -0.6001  0.7821
  572MOL0     C77097   8.627   2.194   1.074  0.1770  0.1307  0.1763
  572MOL0     C77098   8.722   2.099   1.145  0.4328 -0.2429  0.0400
  572MOL0     C77099   8.868   2.142   1.151  0.4927 -0.1574 -0.9209
  572MOL0     C77100   8.955   2.049   1.233  0.0849 -0.1125 -0.1174
  572MOL0     C77101   8.962   2.086   1.382  0.3667  0.8618 -0.0606
  572MOL0     N77102   9.048   1.998   1.463  0.9526  0.1555 -0.3043
  572MOL0     C77103   9.004   1.935   1.577  0.4107 -0.0071  0.0235
  572MOL0     C77104   9.113   1.906   1.641  0.3627 -0.5492 -0.7780
  572MOL0     C77105   9.136   1.839   1.775 -0.1129 -0.0503  0.2553
  572MOL0     C77106   9.071   1.701   1.786  0.0631 -0.1088 -0.3862
  572MOL0     C77107   9.141   1.605   1.891 -0.1684  0.3238  0.1930
  572MOL0     C77108   9.137   1.654   2.034 -0.5028  0.1498 -0.0657
  572MOL0     O77109   9.232   1.756   2.061 -0.4626 -0.9720 -0.0940
  572MOL0     C77110   9.343   1.735   2.139  0.9426 -1.3056 -0.4379
  572MOL0     C77111   9.407   1.861   2.163  0.2904 -0.5913 -0.3694
  572MOL0     C77112   9.530   1.870   2.227 -0.6927  0.0560 -0.0379
  572MOL0     C77113   9.588   1.751   2.276  0.1802 -0.0288  0.1484
  572MOL0     C77114   9.713   1.750   2.349  0.3249  0.5981 -0.6017
  572MOL0     O77115   9.744   1.875   2.375  1.0883 -0.1938 -0.1486
  572MOL0     C77116   9.855   1.908   2.449  1.2668  0.2835 -0.3725
  572MOL0     C77117   9.848   1.994   2.563  0.3930  0.5785 -0.8834
  572MOL0     C77118   9.960   2.020   2.645 -0.5380  0.4254 -0.3716
  572MOL0     C77119  10.088   1.980   2.598  0.0413  1.1815 -0.0420
  572MOL0     O77120  10.200   2.009   2.667  0.1276 -0.9077 -0.1953
  572MOL0     C77121  10.188   2.023   2.808  0.1636  0.4167 -0.0523
  572MOL0     C77122  10.328   2.027   2.871  0.0536  0.6043  0.6328
  572MOL0     C77123  10.408   2.157   2.828  0.6701  0.0309  0.1313
  572MOL0     C77124  10.556   2.132   2.858  0.0944  0.1922  0.5652
  572MOL0     C77125  10.654   2.248   2.860 -0.9642  0.3242  0.1108
  572MOL0     C77126  10.797   2.203   2.891  0.3159  0.1070  0.7854
  572MOL0     C77127  10.869   2.122   2.780  0.0272 -0.0927 -0.1344
  572MOL0     C77128  10.936   2.208   2.676  0.5898 -0.0642  0.1566
  572MOL0    Cl77129  11.070   2.299   2.750  0.0484  0.3715  0.2011
  572MOL0     C77130  10.103   1.908   2.479 -0.9944 -0.8447 -0.0268
  572MOL0     C77131   9.979   1.863   2.414 -0.4087 -0.3220 -0.4408
  572MOL0     O77132   9.774   1.646   2.368 -0.0511 -0.1786 -0.8837
  572MOL0     C77133   9.521   1.631   2.247 -0.1724  0.7329 -0.0658
  572MOL0     C77134   9.400   1.620   2.181 -0.2839  0.0921 -0.4854
  572MOL0     N77135   9.225   1.947   1.571  0.1415 -0.1818  0.6400
  572MOL0     N77136   9.181   1.999   1.461 -0.2059 -0.7226 -0.3625
  572MOL0     C77137   8.110   1.883   0.952 -0.1817 -0.1832 -0.1176
  572MOL0     C77138   7.988   1.809   0.953 -0.5685 -0.9553  0.0279
  572MOL0     C77139   7.544   1.755   1.066  1.0217  0.3580 -0.5851
  572MOL0     C77140   7.496   1.678   0.959  0.4090  0.5057  0.1881
  572MOL0     C77141   7.368   1.631   0.945  0.2042 -0.5932 -1.2643
  572MOL0     C77142   7.272   1.678   1.029  0.0555  0.5966 -0.4165
  572MOL0     O77143   7.139   1.634   1.005  1.0820 -0.7020 -0.3462
  572MOL0     C77144   7.043   1.666   1.112 -0.2135 -0.3410  0.5824
  572MOL0     C77145   6.908   1.596   1.091  0.7494  0.7771  0.8127
  572MOL0     C77146   6.806   1.613   1.208  0.4983  0.3774 -0.2094
  572MOL0     C77147   6.666   1.551   1.173  0.5410 -0.9466  0.5710
  572MOL0     C77148   6.670   1.412   1.129 -0.1348  0.4625 -0.2976
  572MOL0     C77149   6.664   1.295   1.094 -0.3206  0.1474  0.1919
  572MOL0     C77150   7.307   1.766   1.128 -0.6760  0.1262  0.6180
  572MOL0     C77151   7.443   1.804   1.149 -0.1000  0.3451 -0.1072
  572MOL0     C77152   7.466   1.900   1.256  0.5419 -0.2964 -0.0880
  572MOL0     H77153   7.770   2.070   0.982 -0.9241  0.6667 -0.2923
  572MOL0     H77154   7.989   2.211   0.954 -1.5655  0.7554  1.1184
  572MOL0     H77155   8.203   2.290   0.915 -0.4963  2.4548  2.8566
  572MOL0     H77156   8.223   2.241   1.078  2.1081 -3.0115  1.2346
  572MOL0     H77157   8.428   2.349   0.992  1.6277  0.6100 -2.0597
  572MOL0     H77158   8.439   2.242   0.860  1.2415  1.9458  0.0396
  572MOL0     H77159   8.475   2.047   1.030  2.8625 -1.5661  2.8555
  572MOL0     H77160   8.438   2.177   1.153 -2.6417  1.1859 -0.4044
  572MOL0     H77161   8.667   2.211   0.974 -1.6154  2.4880 -0.2341
  572MOL0     H77162   8.630   2.288   1.130 -0.5126 -0.6949  1.6362
  572MOL0     H77163   8.685   2.072   1.244 -0.4437 -1.0143 -0.4808
  572MOL0     H77164   8.730   2.005   1.089  1.3261 -1.7332  2.5253
  572MOL0     H77165   8.911   2.146   1.050 -0.3573 -0.0967 -1.2892
  572MOL0     H77166   8.861   2.240   1.199 -0.1802 -0.0593 -1.2055
  572MOL0     H77167   9.061   2.058   1.209  0.3092 -2.6285 -0.3802
  572MOL0     H77168   8.926   1.945   1.214  3.5341 -1.7834  2.5198
  572MOL0     H77169   8.995   2.190   1.386 -1.5505  1.4931  0.3527
  572MOL0     H77170   8.860   2.083   1.420  1.3924  3.0004  3.2592
  572MOL0     H77171   8.900   1.930   1.606  0.8496 -1.6728  1.5137
  572MOL0     H77172   9.244   1.828   1.786 -0.0492 -0.1203 -0.4443
  572MOL0     H77173   9.094   1.909   1.848 -1.2503 -1.0043  0.5547
  572MOL0     H77174   8.967   1.718   1.815 -0.3215  1.0283 -2.2732
  572MOL0     H77175   9.071   1.656   1.686  2.3591 -1.7738  0.2583
  572MOL0     H77176   9.243   1.599   1.851 -0.1094  0.9504  0.2396
  572MOL0     H77177   9.097   1.505   1.878  1.2197 -0.2522 -0.2614
  572MOL0     H77178   9.147   1.565   2.098 -2.2747 -0.4832 -0.5989
  572MOL0     H77179   9.038   1.693   2.060 -0.6815 -0.5318  0.3121
  572MOL0     H77180   9.363   1.941   2.104 -1.0966 -1.5645 -0.6868
  572MOL0     H77181   9.578   1.966   2.242  0.3379 -0.6050  1.0609
  572MOL0     H77182   9.758   2.042   2.600  0.4234 -0.6077  0.8978
  572MOL0     H77183   9.949   2.082   2.734  1.5502 -0.4413  0.5655
  572MOL0     H77184  10.145   2.118   2.840 -0.8443 -0.5403  1.5521
  572MOL0     H77185  10.134   1.939   2.852  2.0703 -1.7509 -1.6312
  572MOL0     H77186  10.325   2.025   2.981  1.3548 -1.3006  0.6894
  572MOL0     H77187  10.385   1.939   2.839  1.8323  1.5258  1.0911
  572MOL0     H77188  10.388   2.183   2.723 -1.1656  1.9439  0.8917
  572MOL0     H77189  10.373   2.243   2.885 -1.1684  0.5955 -1.7114
  572MOL0     H77190  10.585   2.061   2.780  0.6417  1.0995 -0.0876
  572MOL0     H77191  10.559   2.096   2.961  1.3149  1.3402  0.9597
  572MOL0     H77192  10.629   2.320   2.938 -0.9639  0.4735 -0.0288
  572MOL0     H77193  10.654   2.306   2.768  0.1979 -2.3343 -1.6696
  572MOL0     H77194  10.850   2.295   2.919  1.1423  0.0531 -0.5277
  572MOL0     H77195  10.787   2.140   2.979 -0.8170 -3.1974 -1.5246
  572MOL0     H77196  10.794   2.056   2.735 -1.6959  2.4221 -1.2030
  572MOL0     H77197  10.936   2.054   2.833  1.8318  1.2699 -0.5830
  572MOL0     H77198  10.982   2.153   2.592  0.1571 -0.4416  0.1658
  572MOL0     H77199  10.858   2.281   2.653  0.4259  0.5041  2.3835
  572MOL0     H77200  10.202   1.880   2.445 -0.3085  0.9235  0.4099
  572MOL0     H77201   9.987   1.796   2.329  1.6988 -1.1225  0.3233
  572MOL0     H77202   9.555   1.535   2.285  0.2336  0.1739 -1.7503
  572MOL0     H77203   9.358   1.522   2.160  1.7596 -0.4137 -2.6278
  572MOL0     H77204   8.206   1.833   0.954  0.6930  1.1876 -3.0410
  572MOL0     H77205   7.958   1.706   0.944  1.3439 -1.4956 -0.5543
  572MOL0     H77206   7.568   1.645   0.885 -0.1073  0.4870 -0.3106
  572MOL0     H77207   7.348   1.571   0.856  1.6674  0.9824 -2.7347
  572MOL0     H77208   7.029   1.774   1.112  3.2759  0.2435  0.4089
  572MOL0     H77209   7.078   1.641   1.213  0.5644 -0.8534  0.1934
  572MOL0     H77210   6.927   1.489   1.077 -0.9420  0.2696  2.0566
  572MOL0     H77211   6.876   1.645   0.999  0.4202  2.6043  1.8590
  572MOL0     H77212   6.794   1.721   1.222 -2.1550  0.1860 -0.4562
  572MOL0     H77213   6.838   1.561   1.299 -1.5916  1.8457  1.4648
  572MOL0     H77214   6.603   1.550   1.262  1.1032 -1.3934  0.9655
  572MOL0     H77215   6.616   1.609   1.095  0.6147 -2.4219 -0.6299
  572MOL0     H77216   6.656   1.199   1.048 -1.6364 -0.3910  1.4469
  572MOL0     H77217   7.233   1.823   1.183  0.4283  3.2024 -0.8339
  572MOL0     H77218   7.528   1.864   1.338  2.3121  0.4484 -1.0525
  572MOL0     H77219   7.528   1.983   1.220  2.8284 -1.3148  1.2982
  572MOL0     H77220   7.374   1.938   1.303  0.1703  1.6138 -2.1984
  573MOL0     O77221   6.335   6.069   5.888  0.1811 -0.0260 -0.5241
  573MOL0     C77222   6.322   6.061   6.007  0.1606 -0.3132 -0.7399
  573MOL0     O77223   6.427   6.082   6.093 -0.0834  0.1707 -0.0576
  573MOL0     C77224   6.549   6.032   6.046 -0.9245 -0.0604  0.9346
  573MOL0     C77225   6.625   6.111   5.962  0.2964  0.6826 -0.4572
  573MOL0     C77226   6.758   6.071   5.920  0.7227 -0.0740 -0.2581
  573MOL0     C77227   6.814   5.960   5.965 -0.2292  0.5294  0.2313
  573MOL0     O77228   6.936   5.931   5.911 -1.1852  0.7298  0.9606
  573MOL0     C77229   7.006   5.815   5.966  0.6383  0.2830  0.0502
  573MOL0     C77230   7.141   5.793   5.917 -0.5540  0.6270  0.9383
  573MOL0     C77231   7.238   5.902   5.954  0.6197  0.1265 -0.8326
  573MOL0     C77232   7.329   5.867   6.081 -0.0746 -0.1440  0.6581
  573MOL0     C77233   7.439   5.773   6.050 -0.2081  0.7690  0.8561
  573MOL0     C77234   7.543   5.754   6.171 -0.2519 -0.3148  0.2700
  573MOL0     C77235   7.664   5.671   6.117 -0.1306  0.0335  0.4231
  573MOL0     C77236   7.776   5.660   6.221  0.6795  0.6345  0.2208
  573MOL0     N77237   7.891   5.607   6.147  0.2465  0.6366 -0.0272
  573MOL0     C77238   7.895   5.484   6.078  0.1283  0.2146  0.1069
  573MOL0     C77239   8.024   5.477   6.046 -1.4372  0.2472 -0.4164
  573MOL0     C77240   8.082   5.365   5.964 -0.6345 -0.0616  0.3116
  573MOL0     C77241   8.206   5.308   6.027  1.0324 -0.0074 -0.1677
  573MOL0     C77242   8.233   5.160   5.988 -0.0460 -0.4421 -0.9213
  573MOL0     C77243   8.335   5.104   6.072 -0.5838  0.8905  0.1871
  573MOL0     O77244   8.463   5.170   6.050  0.0465  0.7772  0.0965
  573MOL0     C77245   8.581   5.107   6.045 -0.5593 -0.2344  0.2487
  573MOL0     C77246   8.611   4.974   6.075  0.1663  0.0110  0.4370
  573MOL0     C77247   8.743   4.936   6.073  0.3521 -0.4266 -0.3132
  573MOL0     C77248   8.843   5.015   6.028  0.2651 -0.4506 -0.4972
  573MOL0     C77249   8.988   4.979   6.024  1.3098  0.3792 -0.7407
  573MOL0     O77250   9.079   5.078   5.983 -0.2873 -0.3797  0.2265
  573MOL0     C77251   9.205   5.035   5.963  0.7036  0.4077  0.3395
  573MOL0     C77252   9.275   4.964   6.064 -0.2022  0.1654  0.2753
  573MOL0     C77253   9.410   4.941   6.041  0.6791  0.1990 -0.1681
  573MOL0     C77254   9.477   4.980   5.935 -0.4530  1.0917  0.5948
  573MOL0     O77255   9.614   4.954   5.937  1.0592 -0.8730  0.0468
  573MOL0     C77256   9.692   4.999   5.830  0.9300  0.3288 -0.0955
  573MOL0     C77257   9.841   4.975   5.865  0.1422  0.7519 -0.5384
  573MOL0     C77258   9.920   5.009   5.739 -0.2075 -0.1556 -0.4795
  573MOL0     C77259  10.072   4.989   5.769  0.2892 -0.3424 -0.5300
  573MOL0     C77260  10.159   5.004   5.649 -0.5840 -0.0602  0.3052
  573MOL0     C77261  10.301   4.960   5.661 -0.1255  0.7669  0.2304
  573MOL0     C77262  10.354   4.895   5.528 -0.2968 -0.0326 -0.1659
  573MOL0     C77263  10.481   4.822   5.555  0.2366  0.0990  0.7335
  573MOL0    Cl77264  10.451   4.643   5.589 -0.3960 -0.3353  0.3624
  573MOL0     C77265   9.404   5.034   5.831  0.8624  0.3641 -0.2719
  573MOL0     C77266   9.268   5.066   5.851  0.5450 -0.4703  0.1461
  573MOL0     O77267   9.007   4.854   6.020 -0.0088  0.3766  0.2537
  573MOL0     C77268   8.818   5.157   6.000  0.6872  0.1745  0.5379
  573MOL0     C77269   8.685   5.204   6.015  0.2002 -0.1527 -0.4774
  573MOL0     N77270   8.093   5.580   6.100 -0.5193  0.0278 -0.0832
  573MOL0     N77271   8.010   5.655   6.169 -0.3753  0.3337 -0.5316
  573MOL0     C77272   6.738   5.880   6.056  0.1906  0.2972  0.8216
  573MOL0     C77273   6.612   5.919   6.096 -0.3367  0.5098 -0.4132
  573MOL0     C77274   6.191   6.037   6.057 -0.2291  0.0356 -0.6179
  573MOL0     C77275   6.088   6.030   5.963  0.5895  0.0344 -0.3816
  573MOL0     C77276   5.955   5.985   6.001  0.3559  0.3389 -0.0688
  573MOL0     C77277   5.918   5.971   6.132 -0.3179 -0.1756 -0.0895
  573MOL0     O77278   5.801   5.921   6.190 -0.0775 -0.2262 -0.5072
  573MOL0     C77279   5.683   5.952   6.115  0.1548 -0.6133  0.0970
  573MOL0     C77280   5.556   5.893   6.180  0.4084  0.9655 -0.1143
  573MOL0     C77281   5.552   5.933   6.327  0.3564  0.7775 -0.8069
  573MOL0     C77282   5.405   5.956   6.373  0.4545 -0.2549 -0.3907
  573MOL0     C77283   5.402   6.018   6.512  1.2166 -0.2647  0.6045
  573MOL0     C77284   5.400   6.091   6.614  0.4502 -0.0180 -0.7085
  573MOL0     C77285   6.022   5.987   6.225  0.1706 -0.2733 -0.7700
  573MOL0     C77286   6.152   6.019   6.194  0.4091 -0.4754  0.6736
  573MOL0     C77287   6.251   6.021   6.313 -0.1413 -0.4373 -0.4912
  573MOL0     H77288   6.577   6.196   5.916  0.6074  0.7937 -0.5819
  573MOL0     H77289   6.816   6.127   5.847  3.4196 -0.8884  1.1030
  573MOL0     H77290   7.024   5.822   6.073  1.6705 -0.6730 -0.0384
  573MOL0     H77291   6.950   5.727   5.935 -1.1826  2.3571 -3.1643
  573MOL0     H77292   7.140   5.786   5.808 -0.1340  3.1603  0.7174
  573MOL0     H77293   7.180   5.697   5.953 -1.0551  0.3582  0.7755
  573MOL0     H77294   7.183   5.995   5.969  1.1296  0.8010 -2.7505
  573MOL0     H77295   7.305   5.918   5.869 -0.8045 -0.3605 -2.0944
  573MOL0     H77296   7.371   5.961   6.118 -0.2179 -0.3123  1.2706
  573MOL0     H77297   7.261   5.829   6.158  1.1377 -0.2884  1.6945
  573MOL0     H77298   7.399   5.673   6.030 -0.9399  1.6866 -3.3458
  573MOL0     H77299   7.478   5.806   5.953  2.0389 -1.0291  1.0524
  573MOL0     H77300   7.581   5.851   6.206 -1.3772  0.0853  0.4177
  573MOL0     H77301   7.497   5.703   6.256  0.1005 -0.5378  0.3278
  573MOL0     H77302   7.704   5.717   6.026 -2.3100 -1.4968 -1.4012
  573MOL0     H77303   7.623   5.573   6.092 -0.9830  0.8171 -1.4126
  573MOL0     H77304   7.793   5.766   6.243 -1.0132  1.2100 -0.9662
  573MOL0     H77305   7.751   5.605   6.312  1.0900 -2.1179 -1.2240
  573MOL0     H77306   7.810   5.422   6.051  2.6401 -2.8296 -1.3751
  573MOL0     H77307   8.008   5.284   5.953  0.3119 -0.8965 -0.0861
  573MOL0     H77308   8.092   5.397   5.860 -1.5393  2.3882  0.9082
  573MOL0     H77309   8.297   5.366   6.008  0.0682  1.2351 -1.1917
  573MOL0     H77310   8.181   5.310   6.134 -2.0924  0.8652 -0.8222
  573MOL0     H77311   8.255   5.149   5.882 -2.0532 -2.3718 -1.2051
  573MOL0     H77312   8.141   5.105   6.009 -0.8151  1.7263  2.2062
  573MOL0     H77313   8.343   4.998   6.046 -0.0056  0.5852  1.5341
  573MOL0     H77314   8.306   5.112   6.177 -2.8191  1.8781 -0.4403
  573MOL0     H77315   8.534   4.901   6.094 -0.2462 -0.9717 -3.8654
  573MOL0     H77316   8.760   4.831   6.092 -1.4299 -0.6053  0.5677
  573MOL0     H77317   9.227   4.935   6.157 -0.4927  1.0642  0.4194
  573MOL0     H77318   9.451   4.888   6.127 -3.5944 -1.6435  1.0188
  573MOL0     H77319   9.671   4.940   5.740  1.7018  2.1760 -1.5698
  573MOL0     H77320   9.676   5.102   5.798 -0.7492 -0.1792 -1.0235
  573MOL0     H77321   9.862   5.040   5.951  0.9054 -2.5406  1.9755
  573MOL0     H77322   9.856   4.872   5.900  4.8585  0.3807 -2.8062
  573MOL0     H77323   9.907   4.945   5.651 -1.2280  1.7818 -1.8087
  573MOL0     H77324   9.908   5.111   5.703 -2.1837  0.1853  1.0088
  573MOL0     H77325  10.084   4.891   5.816 -1.9212  0.1665  1.3075
  573MOL0     H77326  10.100   5.059   5.849 -0.4031 -0.2950 -0.3140
  573MOL0     H77327  10.159   5.103   5.604  2.7989 -0.7910 -1.6215
  573MOL0     H77328  10.110   4.943   5.572 -1.0452 -0.2091  0.7138
  573MOL0     H77329  10.359   5.049   5.687  0.6042  0.6384 -0.9146
  573MOL0     H77330  10.313   4.884   5.739  0.2583  0.1227 -0.4497
  573MOL0     H77331  10.361   4.970   5.448 -0.5640 -0.6595 -0.7875
  573MOL0     H77332  10.281   4.820   5.496  1.4675 -1.9589  0.0950
  573MOL0     H77333  10.547   4.844   5.471  0.1039  0.6667  0.7760
  573MOL0     H77334  10.531   4.862   5.644  1.7620  0.2161 -0.1400
  573MOL0     H77335   9.436   5.059   5.730  2.8513 -1.3480 -0.1219
  573MOL0     H77336   9.208   5.112   5.773  1.4567  0.4787 -0.0290
  573MOL0     H77337   8.896   5.230   5.981  0.2105  1.2188  2.3670
  573MOL0     H77338   8.659   5.300   5.972 -0.2024 -1.2418 -2.8683
  573MOL0     H77339   6.773   5.786   6.100  0.9251  0.6526  1.0125
  573MOL0     H77340   6.551   5.857   6.161 -1.7621  1.0143 -1.2110
  573MOL0     H77341   6.105   6.032   5.856  0.4435  0.8223 -0.3902
  573MOL0     H77342   5.885   5.970   5.919 -0.4107 -0.0756  0.6511
  573MOL0     H77343   5.679   5.915   6.012  2.3047  1.7391 -0.9340
  573MOL0     H77344   5.683   6.061   6.105  3.1737 -0.5095  0.5645
  573MOL0     H77345   5.547   5.784   6.170  0.4336  0.9306  0.2130
  573MOL0     H77346   5.466   5.932   6.134 -1.6056 -2.9137  0.1160
  573MOL0     H77347   5.603   6.029   6.339 -1.8856  2.0717 -1.0870
  573MOL0     H77348   5.603   5.862   6.393  1.4624  3.3411  1.2954
  573MOL0     H77349   5.350   6.020   6.303 -0.4072 -1.2643 -0.6524
  573MOL0     H77350   5.359   5.857   6.379  1.1386 -0.5079  0.8619
  573MOL0     H77351   5.381   6.151   6.701 -2.4369 -0.2105 -1.1017
  573MOL0     H77352   6.004   5.964   6.330  0.2111 -0.8375 -0.8866
  573MOL0     H77353   6.318   5.935   6.302  0.6304  0.0075  0.6014
  573MOL0     H77354   6.314   6.110   6.319  1.6258 -1.4660 -2.4493
  573MOL0     H77355   6.199   6.015   6.409 -0.7135  1.7216 -0.6117
  574MOL0     O77356   0.619  11.119   7.047 -0.3573  0.5753  0.2956
  574MOL0     C77357   0.504  11.141   7.024  0.1835 -0.1420 -0.2015
  574MOL0     O77358   0.440  11.109   6.898 -0.8260 -0.0274  0.3079
  574MOL0     C77359   0.507  11.030   6.807 -0.4425 -0.4129  0.1215
  574MOL0     C77360   0.641  11.056   6.772 -0.1167  0.3301 -0.0482
  574MOL0     C77361   0.708  10.955   6.698  0.9218 -0.2388 -0.4743
  574MOL0     C77362   0.633  10.846   6.644 -0.5698  0.2400 -0.5510
  574MOL0     O77363   0.699  10.755   6.560  0.0796  0.6393  0.5948
  574MOL0     C77364   0.811  10.802   6.482 -0.1984 -0.1371 -0.7435
  574MOL0     C77365   0.765  10.811   6.338 -0.2113  0.1046  0.4552
  574MOL0     C77366   0.869  10.878   6.247 -0.6420 -0.4357  0.0372
  574MOL0     C77367   0.831  10.892   6.099 -0.2817 -0.0792 -0.0096
  574MOL0     C77368   0.934  10.962   6.021  0.4848  0.1355 -0.2167
  574MOL0     C77369   0.932  11.109   6.036  0.2221 -0.6713 -0.1307
  574MOL0     C77370   1.054  11.169   5.968 -1.2129 -0.5295  0.3648
  574MOL0     C77371   1.065  11.320   5.968  0.0103 -0.2221  0.0593
  574MOL0     N77372   1.202  11.367   5.924  0.3020  0.6107 -0.0493
  574MOL0     C77373   1.280  11.325   5.812 -1.0929  0.4476  0.1508
  574MOL0     C77374   1.381  11.410   5.805 -0.7663 -1.5494  0.9975
  574MOL0     C77375   1.482  11.413   5.690 -0.7394  0.3422 -0.0820
  574MOL0     C77376   1.493  11.541   5.610  0.0347 -0.0409  0.3496
  574MOL0     C77377   1.604  11.515   5.506  0.3108 -0.4438  0.7391
  574MOL0     C77378   1.648  11.651   5.450  0.1484  0.7251 -0.1689
  574MOL0     O77379   1.679  11.757   5.545 -0.2205  0.0689 -0.2104
  574MOL0     C77380   1.813  11.773   5.582  0.0511 -0.2561  0.5140
  574MOL0     C77381   1.907  11.671   5.577  0.3400  0.8026 -0.4890
  574MOL0     C77382   2.040  11.701   5.623  0.2121 -0.5640  0.0247
  574MOL0     C77383   2.080  11.826   5.683  0.4241  0.1676  0.2357
  574MOL0     C77384   2.204  11.840   5.753 -1.1687  0.1979  0.3764
  574MOL0     O77385   2.308  11.761   5.719  0.1207  0.3280  0.1265
  574MOL0     C77386   2.425  11.776   5.793 -0.0981  0.8115  0.2473
  574MOL0     C77387   2.441  11.784   5.933 -0.1613 -0.1202  0.2097
  574MOL0     C77388   2.570  11.794   5.989  0.5875  0.3571  0.1975
  574MOL0     C77389   2.679  11.805   5.903  0.7046 -0.9467 -0.3358
  574MOL0     O77390   2.811  11.817   5.928 -0.1999  0.3613  0.2060
  574MOL0     C77391   2.857  11.800   6.065 -0.2815  0.5936 -0.3712
  574MOL0     C77392   2.879  11.938   6.131 -0.8061  0.3800 -0.5861
  574MOL0     C77393   2.763  12.040   6.126  0.7910 -0.3620 -0.3060
  574MOL0     C77394   2.810  12.186   6.143 -1.1215 -0.9365 -0.3194
  574MOL0     C77395   2.699  12.286   6.176  0.5519  0.1790  0.5474
  574MOL0     C77396   2.762  12.418   6.216 -0.6478  0.3036  0.1726
  574MOL0     C77397   2.659  12.531   6.234  0.7860  1.0582 -0.4418
  574MOL0     C77398   2.716  12.647   6.311  0.1439 -0.0296  0.1204
  574MOL0    Cl77399   2.754  12.596   6.473 -0.2526  0.0871 -0.2468
  574MOL0     C77400   2.659  11.816   5.766  0.1001  0.2340  0.4397
  574MOL0     C77401   2.533  11.789   5.708  1.2545 -0.4309  0.2970
  574MOL0     O77402   2.216  11.943   5.818  0.3057  0.0408 -0.7213
  574MOL0     C77403   1.973  11.919   5.681  0.6139 -0.4140 -0.5248
  574MOL0     C77404   1.850  11.897   5.627 -0.1924 -0.2625 -0.5707
  574MOL0     N77405   1.367  11.504   5.900  0.3338 -0.6034  0.2135
  574MOL0     N77406   1.268  11.472   5.972 -1.1351 -0.1638 -0.0863
  574MOL0     C77407   0.499  10.821   6.685 -0.2327  0.1340  0.3171
  574MOL0     C77408   0.433  10.918   6.767  0.3185 -0.2346 -0.5721
  574MOL0     C77409   0.414  11.190   7.136  0.6091 -0.4562  0.1606
  574MOL0     C77410   0.275  11.187   7.116  0.5618  0.2089  0.2187
  574MOL0     C77411   0.187  11.203   7.215 -0.0549 -0.6366  0.3342
  574MOL0     C77412   0.235  11.270   7.331 -1.1459  0.6956 -0.2843
  574MOL0     O77413   0.150  11.319   7.433 -0.2734  0.2224  0.1988
  574MOL0     C77414   0.026  11.373   7.410 -0.9156 -0.0451 -0.5302
  574MOL0     C77415   0.053  11.530   7.403 -0.5792 -0.0313  0.9773
  574MOL0     C77416  -0.076  11.601   7.368  0.1237 -0.4159 -0.7780
  574MOL0     C77417  -0.158  11.637   7.496 -0.3392 -0.3792  0.5568
  574MOL0     C77418  -0.268  11.723   7.456  0.2174  0.1851  0.3370
  574MOL0     C77419  -0.365  11.788   7.423  0.7747 -0.1068  0.2862
  574MOL0     C77420   0.372  11.304   7.347  0.4931 -0.0164 -0.0822
  574MOL0     C77421   0.459  11.255   7.252  0.8473 -0.3766 -0.2469
  574MOL0     C77422   0.606  11.278   7.280 -0.0988  0.4407 -0.5301
  574MOL0     H77423   0.681  11.150   6.808 -1.1712  1.3062 -1.3131
  574MOL0     H77424   0.814  10.978   6.692  0.3999  2.1259 -1.9357
  574MOL0     H77425   0.856  10.897   6.512 -0.1776 -0.7736  1.3907
  574MOL0     H77426   0.895  10.733   6.497 -1.6046 -1.2036  3.9668
  574MOL0     H77427   0.673  10.870   6.344  1.3096  2.5340  1.5888
  574MOL0     H77428   0.742  10.708   6.308 -0.4297  0.2549  0.0991
  574MOL0     H77429   0.965  10.826   6.251 -1.6103 -2.2338  0.8407
  574MOL0     H77430   0.881  10.981   6.282  2.0019 -1.3453  2.1085
  574MOL0     H77431   0.828  10.790   6.062  0.8276 -0.3995  0.7270
  574MOL0     H77432   0.731  10.934   6.085 -0.8307  0.1562  3.5309
  574MOL0     H77433   1.034  10.929   6.052  1.0356  2.8417  1.2215
  574MOL0     H77434   0.935  10.937   5.914  0.5510 -0.4577 -0.0797
  574MOL0     H77435   0.843  11.148   5.985  0.1778 -0.8987 -0.2301
  574MOL0     H77436   0.928  11.127   6.144 -5.2930 -1.7087  0.1463
  574MOL0     H77437   1.042  11.139   5.863 -1.8703  0.9453 -0.0028
  574MOL0     H77438   1.147  11.131   6.011 -1.3408 -1.1501  0.1151
  574MOL0     H77439   0.980  11.358   5.911  0.3841 -0.8960 -0.9781
  574MOL0     H77440   1.065  11.364   6.068 -0.2278 -1.4184  0.6080
  574MOL0     H77441   1.255  11.249   5.738 -0.8424  0.1557  0.3674
  574MOL0     H77442   1.576  11.395   5.744 -1.2177  0.1020  0.6896
  574MOL0     H77443   1.468  11.330   5.621  0.7571  0.5817 -0.7080
  574MOL0     H77444   1.400  11.573   5.562  0.4639  2.2553  0.9432
  574MOL0     H77445   1.522  11.620   5.679 -1.4742  0.1539  0.7948
  574MOL0     H77446   1.582  11.459   5.415  0.9867  0.1196  0.2168
  574MOL0     H77447   1.693  11.468   5.549  0.9922  0.8263  0.7776
  574MOL0     H77448   1.564  11.686   5.388 -0.7994 -2.4415 -0.8791
  574MOL0     H77449   1.722  11.642   5.370 -0.6744 -0.4399 -0.8343
  574MOL0     H77450   1.879  11.571   5.547 -1.5277  2.0875 -3.4817
  574MOL0     H77451   2.120  11.629   5.633 -0.3403 -0.9750  1.8980
  574MOL0     H77452   2.356  11.782   6.000  0.5702  2.2218  1.3169
  574MOL0     H77453   2.585  11.806   6.096 -1.6222  1.9315  0.4141
  574MOL0     H77454   2.782  11.742   6.120 -1.1187  0.8002 -1.2540
  574MOL0     H77455   2.946  11.738   6.083 -2.2362 -2.4347 -0.3549
  574MOL0     H77456   2.917  11.924   6.233 -0.9805  3.5204 -0.0044
  574MOL0     H77457   2.962  11.980   6.074  2.1169 -3.8885  0.0476
  574MOL0     H77458   2.704  12.033   6.034 -1.0960 -0.2029  0.8405
  574MOL0     H77459   2.691  12.015   6.204 -0.1695  0.8791 -0.7524
  574MOL0     H77460   2.861  12.210   6.049  0.7732 -2.0956  0.3659
  574MOL0     H77461   2.882  12.180   6.224  1.9048 -0.7975 -2.8246
  574MOL0     H77462   2.636  12.239   6.252 -0.0699  1.5927  0.9346
  574MOL0     H77463   2.647  12.303   6.081  0.1651  1.1833  0.9298
  574MOL0     H77464   2.824  12.402   6.305 -2.4029 -1.6262  1.1617
  574MOL0     H77465   2.831  12.440   6.134 -0.6482  1.3898  0.4478
  574MOL0     H77466   2.575  12.497   6.295  1.4096  4.1530  2.4720
  574MOL0     H77467   2.623  12.568   6.137  0.1328  1.3808 -0.0883
  574MOL0     H77468   2.809  12.674   6.259  1.1040 -5.5027 -1.6914
  574MOL0     H77469   2.646  12.731   6.319 -0.8781 -0.6863 -1.3537
  574MOL0     H77470   2.737  11.840   5.695 -2.2115  1.6439 -1.7927
  574MOL0     H77471   2.525  11.778   5.600 -2.1182  0.2741  0.3622
  574MOL0     H77472   1.989  12.020   5.717 -0.4080 -0.3014 -0.3675
  574MOL0     H77473   1.774  11.974   5.619 -0.8702 -0.8430  0.1454
  574MOL0     H77474   0.441  10.737   6.649 -0.2606  0.6038 -0.7718
  574MOL0     H77475   0.333  10.899   6.805  0.9169 -2.2769  0.1113
  574MOL0     H77476   0.234  11.138   7.028  0.4471  1.0562 -0.2076
  574MOL0     H77477   0.082  11.183   7.199  0.5459 -2.5443 -1.6157
  574MOL0     H77478  -0.030  11.353   7.501 -0.8331  5.1702  0.9712
  574MOL0     H77479  -0.022  11.334   7.319 -1.5562 -1.1763  0.2691
  574MOL0     H77480   0.117  11.533   7.314  0.2655  0.9188  1.5978
  574MOL0     H77481   0.098  11.576   7.491 -1.5181  1.1312  0.8711
  574MOL0     H77482  -0.144  11.536   7.312 -0.3290  0.7400 -1.6062
  574MOL0     H77483  -0.061  11.691   7.308  0.7495 -0.6686 -1.0079
  574MOL0     H77484  -0.199  11.551   7.548  1.3046 -1.7249 -0.2689
  574MOL0     H77485  -0.090  11.691   7.563 -0.0413  1.8317 -1.3842
  574MOL0     H77486  -0.454  11.832   7.381 -0.3093 -1.7122  0.8147
  574MOL0     H77487   0.395  11.352   7.441 -1.7366  1.6054 -0.2718
  574MOL0     H77488   0.647  11.349   7.207 -1.3406  0.9278 -0.7881
  574MOL0     H77489   0.612  11.319   7.381  1.3673 -0.8510 -0.0549
  574MOL0     H77490   0.659  11.183   7.281  1.5092  1.3053 -0.8133
  575MOL0     O77491   5.034   2.000  10.640  0.8669  0.4507 -0.0700
  575MOL0     C77492   4.923   2.015  10.584 -0.3644 -0.5098 -0.2595
  575MOL0     O77493   4.848   2.131  10.595  0.0614 -0.3385 -0.2950
  575MOL0     C77494   4.919   2.236  10.650  1.0714 -0.4627 -0.3720
  575MOL0     C77495   5.029   2.284  10.577 -1.0369 -0.1219  0.1725
  575MOL0     C77496   5.118   2.382  10.633 -0.4473  0.4352 -0.9535
  575MOL0     C77497   5.094   2.438  10.761  0.4394  0.5605  0.3933
  575MOL0     O77498   5.177   2.538  10.796  0.5336  0.2825 -0.1257
  575MOL0     C77499   5.187   2.566  10.942  0.3882 -0.4277 -0.5672
  575MOL0     C77500   5.277   2.681  10.974 -0.0503 -1.0704  0.2638
  575MOL0     C77501   5.428   2.650  10.937  0.6839 -1.1228 -0.1832
  575MOL0     C77502   5.536   2.756  10.976 -0.0455 -0.0507 -0.1250
  575MOL0     C77503   5.622   2.721  11.096  0.5758  1.0730  0.7566
  575MOL0     C77504   5.553   2.713  11.233  0.0756  0.0746 -0.2431
  575MOL0     C77505   5.644   2.728  11.357  0.6700  0.1608  0.3983
  575MOL0     C77506   5.569   2.680  11.479  0.3128 -0.6040 -0.6546
  575MOL0     N77507   5.447   2.763  11.503 -0.0487  0.3031  0.0463
  575MOL0     C77508   5.446   2.870  11.584 -0.3470  0.2616  0.3620
  575MOL0     C77509   5.316   2.898  11.594  0.1490  0.7270 -0.6224
  575MOL0     C77510   5.253   3.003  11.683  0.4871  0.3416  0.1366
  575MOL0     C77511   5.301   3.145  11.655 -0.1691  0.1087 -0.5318
  575MOL0     C77512   5.222   3.251  11.740 -1.1785  0.6218 -0.1599
  575MOL0     C77513   5.080   3.279  11.708  0.0104  0.0653 -0.7343
  575MOL0     O77514   5.028   3.394  11.780 -0.2457  0.1199 -0.9635
  575MOL0     C77515   4.895   3.414  11.780  0.3171 -0.2340 -0.7419
  575MOL0     C77516   4.851   3.518  11.860 -0.1199 -0.3059 -0.8814
  575MOL0     C77517   4.713   3.547  11.874  0.2268  1.2483  0.3561
  575MOL0     C77518   4.623   3.470  11.798  0.1949  0.2249  0.1538
  575MOL0     C77519   4.480   3.496  11.812  0.3740 -0.8885  0.1421
  575MOL0     O77520   4.399   3.413  11.741 -1.2751  0.3580 -0.1366
  575MOL0     C77521   4.268   3.433  11.720 -0.3155  0.2554 -0.2508
  575MOL0     C77522   4.183   3.540  11.747 -0.2526 -0.5932 -0.1845
  575MOL0     C77523   4.047   3.533  11.733  0.7461 -0.0184 -0.2302
  575MOL0     C77524   3.978   3.418  11.693  0.0382  0.7056  1.4800
  575MOL0     O77525   3.843   3.408  11.690  0.4431 -0.0785  0.4205
  575MOL0     C77526   3.773   3.522  11.640  0.9133  0.1511 -0.3427
  575MOL0     C77527   3.623   3.477  11.635  0.4315 -0.1246  0.4657
  575MOL0     C77528   3.535   3.598  11.604  0.1641  1.0201 -0.5518
  575MOL0     C77529   3.584   3.678  11.482  0.3757 -0.1793  0.6785
  575MOL0     C77530   3.478   3.797  11.450  0.0067  0.5163 -0.4506
  575MOL0     C77531   3.533   3.896  11.344  0.3183 -0.7208  0.3434
  575MOL0     C77532   3.449   4.012  11.318 -1.6219 -0.4653  0.6009
  575MOL0     C77533   3.416   4.095  11.438  0.2159  0.3633  0.8812
  575MOL0    Cl77534   3.305   4.232  11.397 -0.1836  0.3046 -0.2654
  575MOL0     C77535   4.063   3.313  11.662 -0.1022 -0.5171  0.2869
  575MOL0     C77536   4.202   3.317  11.680 -0.1554  0.8706  0.2700
  575MOL0     O77537   4.443   3.580  11.887 -0.0349 -0.1911 -0.7417
  575MOL0     C77538   4.671   3.372  11.711  0.8777  0.3020  0.1130
  575MOL0     C77539   4.801   3.343  11.710  0.2215  0.3190  0.0493
  575MOL0     N77540   5.240   2.822  11.510 -0.1373 -0.5829  0.5876
  575MOL0     N77541   5.322   2.738  11.454 -0.2726  0.8167 -0.3280
  575MOL0     C77542   4.975   2.396  10.832  0.2040 -0.4676  0.7964
  575MOL0     C77543   4.894   2.291  10.778 -0.4055  0.2976  0.2348
  575MOL0     C77544   4.868   1.908  10.495 -0.4411  0.9574  0.0147
  575MOL0     C77545   4.748   1.923  10.434  0.5830  0.3548 -0.6236
  575MOL0     C77546   4.686   1.827  10.352  0.1883  0.4701 -0.1140
  575MOL0     C77547   4.753   1.713  10.321  0.0410  0.1380 -0.0854
  575MOL0     O77548   4.670   1.627  10.245  0.1032 -0.0838 -0.1309
  575MOL0     C77549   4.724   1.502  10.202  0.9016  0.0262 -0.4880
  575MOL0     C77550   4.613   1.427  10.122  0.4749 -0.0837 -0.1085
  575MOL0     C77551   4.602   1.274  10.141 -0.4489 -0.0095 -0.7080
  575MOL0     C77552   4.700   1.189  10.060 -0.2684  0.2507  0.5416
  575MOL0     C77553   4.840   1.219  10.100  0.1852  0.9729  0.9082
  575MOL0     C77554   4.958   1.254  10.128  0.0381 -1.1118  0.2266
  575MOL0     C77555   4.880   1.684  10.378  0.1714  0.7402 -0.2233
  575MOL0     C77556   4.941   1.781  10.459  0.1031 -0.2375  0.5826
  575MOL0     C77557   5.086   1.755  10.505  0.7805 -0.1897 -0.2668
  575MOL0     H77558   5.057   2.246  10.479  1.3087  1.9465 -0.0623
  575MOL0     H77559   5.204   2.420  10.579  0.0642 -0.8882 -1.1093
  575MOL0     H77560   5.090   2.588  10.988  0.6561  0.0036 -0.1992
  575MOL0     H77561   5.224   2.475  10.991  2.4616 -0.5814 -2.2986
  575MOL0     H77562   5.269   2.719  11.076 -1.5310  2.5484 -1.0262
  575MOL0     H77563   5.233   2.761  10.913  0.6919 -1.6677 -1.1012
  575MOL0     H77564   5.433   2.626  10.830  0.3421 -4.4498  0.4240
  575MOL0     H77565   5.442   2.561  10.999 -2.8730 -0.4100  1.9177
  575MOL0     H77566   5.604   2.754  10.891  0.3852  1.1428  0.1666
  575MOL0     H77567   5.493   2.857  10.978 -1.9863 -0.7832 -1.9020
  575MOL0     H77568   5.682   2.631  11.077 -1.4332  0.4063 -3.6680
  575MOL0     H77569   5.698   2.800  11.098  1.3766  0.3408  0.3138
  575MOL0     H77570   5.486   2.799  11.235  1.0019  0.8593 -1.5377
  575MOL0     H77571   5.488   2.625  11.232 -0.3180  0.3667 -0.4415
  575MOL0     H77572   5.672   2.833  11.363  2.7893 -0.4260  2.2006
  575MOL0     H77573   5.732   2.663  11.349 -1.1151 -2.3593 -0.0558
  575MOL0     H77574   5.559   2.571  11.470  1.9912 -0.8295 -0.1358
  575MOL0     H77575   5.636   2.702  11.562 -1.6248  0.8288  0.6131
  575MOL0     H77576   5.526   2.914  11.644 -0.0919 -0.5628  0.6359
  575MOL0     H77577   5.144   3.008  11.676  0.5719  2.4060 -0.3753
  575MOL0     H77578   5.276   2.980  11.787 -0.0256  0.6095  0.3141
  575MOL0     H77579   5.408   3.147  11.674  0.4538 -2.0905 -3.2035
  575MOL0     H77580   5.284   3.164  11.549 -2.3178 -0.7024 -0.3867
  575MOL0     H77581   5.284   3.341  11.732  1.3396 -0.9993 -0.3381
  575MOL0     H77582   5.241   3.225  11.844  1.6062 -0.4779 -0.8457
  575MOL0     H77583   5.016   3.194  11.733  1.5145 -1.3060 -1.3283
  575MOL0     H77584   5.067   3.304  11.602 -0.2768  0.3467 -0.6352
  575MOL0     H77585   4.925   3.582  11.907  1.1644 -0.8743 -2.0514
  575MOL0     H77586   4.681   3.634  11.931 -2.6332 -0.7063  1.9807
  575MOL0     H77587   4.229   3.632  11.782  1.3232 -0.9902 -1.0821
  575MOL0     H77588   3.985   3.617  11.760  0.6137  1.8985 -5.3940
  575MOL0     H77589   3.787   3.608  11.706 -0.3756 -0.2198  0.4525
  575MOL0     H77590   3.798   3.542  11.535 -1.6038 -2.5015 -1.6047
  575MOL0     H77591   3.614   3.403  11.555  4.5134  1.1639 -1.4553
  575MOL0     H77592   3.594   3.442  11.735  1.4174  1.4535  1.3444
  575MOL0     H77593   3.431   3.567  11.599 -0.1347  2.1304 -1.8412
  575MOL0     H77594   3.535   3.674  11.683  0.2198  1.9972 -1.4750
  575MOL0     H77595   3.587   3.616  11.392 -1.9055  1.6948 -0.8011
  575MOL0     H77596   3.679   3.726  11.506 -0.6220  2.2696  0.0345
  575MOL0     H77597   3.465   3.837  11.551  0.8036  0.5899 -0.3680
  575MOL0     H77598   3.380   3.759  11.420 -1.0948  1.1151  2.1271
  575MOL0     H77599   3.631   3.932  11.375 -0.2828  0.0270  1.4355
  575MOL0     H77600   3.536   3.841  11.249 -1.3003  0.1963 -0.2953
  575MOL0     H77601   3.353   3.979  11.276 -1.8049  1.3344 -0.5200
  575MOL0     H77602   3.493   4.070  11.237 -0.4955 -1.8152  0.2107
  575MOL0     H77603   3.356   4.025  11.496 -3.6409  0.7201 -2.2104
  575MOL0     H77604   3.505   4.132  11.489 -0.6428  1.3621  1.6954
  575MOL0     H77605   4.015   3.220  11.634  0.3206 -0.0563 -2.1594
  575MOL0     H77606   4.250   3.219  11.678  0.9667  1.4024 -0.3113
  575MOL0     H77607   4.597   3.331  11.643  1.1962  0.9684 -0.6580
  575MOL0     H77608   4.830   3.262  11.644 -0.7629  1.4393 -1.8583
  575MOL0     H77609   4.956   2.431  10.933  0.5654 -1.3202  1.1807
  575MOL0     H77610   4.806   2.247  10.823 -0.6514 -2.3417 -2.5431
  575MOL0     H77611   4.680   2.007  10.447  1.3462  0.8216  0.5182
  575MOL0     H77612   4.586   1.841  10.311  0.5264 -0.1283 -1.1760
  575MOL0     H77613   4.768   1.441  10.282  2.0221  0.0652 -1.0473
  575MOL0     H77614   4.812   1.508  10.137  1.6846 -2.7567  0.1802
  575MOL0     H77615   4.613   1.449  10.015 -4.0187 -1.5379 -0.6182
  575MOL0     H77616   4.517   1.475  10.145  0.9865  0.6616  0.5317
  575MOL0     H77617   4.500   1.237  10.126  0.3022 -2.2941 -0.5685
  575MOL0     H77618   4.617   1.251  10.246 -1.4633 -0.4322 -0.6479
  575MOL0     H77619   4.677   1.085  10.083  0.8076 -0.1695 -0.2347
  575MOL0     H77620   4.676   1.206   9.954 -0.4880 -0.5762  0.4541
  575MOL0     H77621   5.056   1.293  10.150  0.2113 -1.2333 -0.3162
  575MOL0     H77622   4.923   1.585  10.366 -2.4991 -0.6168  0.4894
  575MOL0     H77623   5.142   1.841  10.467 -0.8082  1.9713  1.9169
  575MOL0     H77624   5.088   1.766  10.614  1.3849  3.5777 -0.5215
  575MOL0     H77625   5.127   1.658  10.475  2.7394  0.9100 -1.3376
  576MOL0     O77626   0.624   3.839  10.345  0.2667 -0.1869 -0.1049
  576MOL0     C77627   0.678   3.941  10.300  0.2442 -1.3092  0.5972
  576MOL0     O77628   0.775   3.944  10.203  0.0020  0.1044 -0.3202
  576MOL0     C77629   0.830   3.834  10.137 -0.8526  1.1547  0.1054
  576MOL0     C77630   0.758   3.711  10.120 -0.2549 -0.0974 -0.6025
  576MOL0     C77631   0.825   3.599  10.057  0.4811 -0.1050  0.0335
  576MOL0     C77632   0.950   3.608  10.003 -0.3112 -0.4972  0.5252
  576MOL0     O77633   0.993   3.492   9.947 -0.1880 -0.0436 -0.2185
  576MOL0     C77634   1.134   3.488   9.897  0.3683 -0.7477  0.0369
  576MOL0     C77635   1.178   3.341   9.867 -0.2129 -0.8335 -1.0427
  576MOL0     C77636   1.187   3.263   9.998  0.3400  0.2579  0.0073
  576MOL0     C77637   1.222   3.109   9.982  0.1436  0.2251 -0.1324
  576MOL0     C77638   1.213   3.035  10.110  0.0919  0.1085 -0.3381
  576MOL0     C77639   1.210   2.885  10.094 -0.1790 -0.7836  0.6967
  576MOL0     C77640   1.160   2.810  10.220  0.6551  0.4466 -0.1668
  576MOL0     C77641   1.192   2.659  10.231 -0.1017 -0.6796 -0.2673
  576MOL0     N77642   1.330   2.634  10.248 -0.5337  0.3620 -0.1743
  576MOL0     C77643   1.406   2.541  10.185  0.2675  0.2307 -0.2250
  576MOL0     C77644   1.533   2.548  10.239 -0.4072 -0.6306  0.0363
  576MOL0     C77645   1.652   2.467  10.199 -0.1512 -0.9047  0.0470
  576MOL0     C77646   1.700   2.492  10.056 -0.5378 -0.1893  0.0382
  576MOL0     C77647   1.755   2.641  10.048 -0.1409  0.4900 -0.4909
  576MOL0     C77648   1.772   2.673   9.895 -0.0841 -0.5583 -1.0556
  576MOL0     O77649   1.864   2.586   9.832 -0.1002  0.3777  0.2165
  576MOL0     C77650   1.987   2.640   9.823  0.0043  0.4207 -0.3428
  576MOL0     C77651   2.005   2.738   9.730 -0.3129 -1.2914 -0.3994
  576MOL0     C77652   2.135   2.774   9.712  0.3116 -0.5071  0.9221
  576MOL0     C77653   2.248   2.735   9.788 -0.1078  0.7281 -0.6270
  576MOL0     C77654   2.383   2.791   9.767 -0.0559  0.1482 -0.0820
  576MOL0     O77655   2.488   2.744   9.842  0.0752  0.3066  0.3293
  576MOL0     C77656   2.620   2.789   9.841  0.3747 -0.1042  0.9881
  576MOL0     C77657   2.684   2.813   9.722  0.8633  0.6508 -0.0128
  576MOL0     C77658   2.815   2.864   9.715  0.0721 -0.3548  0.1911
  576MOL0     C77659   2.884   2.894   9.838 -0.5610 -0.3075  1.1582
  576MOL0     O77660   3.019   2.950   9.841  0.0390 -0.1818 -0.3572
  576MOL0     C77661   3.117   2.856   9.897  1.0165  0.5817 -1.3271
  576MOL0     C77662   3.260   2.905   9.874 -0.0895  0.3660 -0.2980
  576MOL0     C77663   3.275   3.043   9.943 -0.3707 -0.3951  0.1549
  576MOL0     C77664   3.416   3.086   9.962  0.2409  0.1414 -0.4778
  576MOL0     C77665   3.493   3.017  10.076  0.0046  0.3715  0.1253
  576MOL0     C77666   3.637   3.077  10.097 -0.7256 -0.1799 -0.4905
  576MOL0     C77667   3.718   2.992  10.204 -0.0375  0.4309  0.2755
  576MOL0     C77668   3.868   3.045  10.219  0.1116 -0.0639  0.1476
  576MOL0    Cl77669   3.959   3.020  10.061 -0.5953  0.0059 -0.0639
  576MOL0     C77670   2.819   2.869   9.952  0.2752  0.5093  0.5017
  576MOL0     C77671   2.690   2.819   9.961  0.1943 -0.1540 -0.1759
  576MOL0     O77672   2.394   2.882   9.688 -0.4228  0.3952  0.9015
  576MOL0     C77673   2.223   2.639   9.882 -0.6568 -0.2063  0.0007
  576MOL0     C77674   2.091   2.593   9.907  0.4208 -0.9603  0.4480
  576MOL0     N77675   1.536   2.643  10.332 -0.1194 -0.1710 -0.0082
  576MOL0     N77676   1.411   2.675  10.346 -0.0427 -0.2802  0.1875
  576MOL0     C77677   1.018   3.729  10.014  0.3137 -0.8338  0.4138
  576MOL0     C77678   0.954   3.842  10.077  0.2581  0.3595  0.0427
  576MOL0     C77679   0.640   4.071  10.361  0.0305 -0.8741 -0.1620
  576MOL0     C77680   0.560   4.058  10.484 -0.3595 -0.7666 -0.8959
  576MOL0     C77681   0.516   4.177  10.556 -0.0637  0.0999  0.5221
  576MOL0     C77682   0.573   4.299  10.528 -0.1083 -0.1928  0.5896
  576MOL0     O77683   0.551   4.399  10.618 -0.5964  0.4460 -0.4361
  576MOL0     C77684   0.630   4.517  10.603 -0.0890  0.5455  0.0192
  576MOL0     C77685   0.610   4.609  10.721 -0.0598  0.1723  0.1726
  576MOL0     C77686   0.599   4.559  10.863 -0.8141  0.1434 -0.0797
  576MOL0     C77687   0.735   4.500  10.906 -0.6137  0.2550 -0.7614
  576MOL0     C77688   0.835   4.603  10.936 -0.7215 -0.6055 -0.2750
  576MOL0     C77689   0.915   4.692  10.977  0.3061  0.9629 -0.3229
  576MOL0     C77690   0.653   4.311  10.410  0.1034 -0.1269  0.5062
  576MOL0     C77691   0.685   4.200  10.329 -0.4370 -0.1029 -0.1944
  576MOL0     C77692   0.774   4.231  10.209  0.3097 -0.4430  0.9900
  576MOL0     H77693   0.657   3.697  10.156  0.1108  0.9883  0.9370
  576MOL0     H77694   0.774   3.503  10.052  2.9312 -1.5274  0.4681
  576MOL0     H77695   1.123   3.541   9.802  0.0263  0.1296  0.5559
  576MOL0     H77696   1.213   3.533   9.958  1.0742 -2.5203  0.5030
  576MOL0     H77697   1.277   3.339   9.820  1.1244  0.6056  1.4649
  576MOL0     H77698   1.106   3.287   9.806  0.3758 -2.7542 -0.1470
  576MOL0     H77699   1.086   3.255  10.040 -0.0750  2.8044 -0.3765
  576MOL0     H77700   1.260   3.307  10.066  1.1231  1.2716 -1.4500
  576MOL0     H77701   1.141   3.066   9.923  2.7250 -5.6063 -0.1080
  576MOL0     H77702   1.321   3.090   9.940  1.1185 -0.7913  2.4617
  576MOL0     H77703   1.283   3.080  10.181 -0.9230  1.2492 -0.0321
  576MOL0     H77704   1.117   3.061  10.155  1.4804  2.7622  1.2878
  576MOL0     H77705   1.135   2.864  10.017 -0.9444 -0.1413  1.2469
  576MOL0     H77706   1.309   2.851  10.061 -0.3252  1.2851 -2.3114
  576MOL0     H77707   1.054   2.807  10.195  0.5712  0.5538  0.1724
  576MOL0     H77708   1.179   2.877  10.303 -0.4805  0.3335  0.1974
  576MOL0     H77709   1.145   2.623  10.323 -0.2599  0.2612  0.0411
  576MOL0     H77710   1.153   2.604  10.145 -2.0350 -0.3048  0.3175
  576MOL0     H77711   1.372   2.473  10.107 -1.4278  0.6565  0.1002
  576MOL0     H77712   1.730   2.502  10.267 -0.5509 -1.9354  1.0754
  576MOL0     H77713   1.633   2.360  10.213 -1.0960 -0.8282 -0.5529
  576MOL0     H77714   1.780   2.420  10.037 -2.1439 -2.6258  1.8872
  576MOL0     H77715   1.619   2.466   9.986 -1.6793 -0.1587  1.3026
  576MOL0     H77716   1.853   2.637  10.096 -0.8324 -0.0678  0.9487
  576MOL0     H77717   1.693   2.712  10.103  0.5848  1.3242 -0.7356
  576MOL0     H77718   1.808   2.776   9.893  0.2111 -0.6010  0.4676
  576MOL0     H77719   1.674   2.657   9.850 -0.6751 -0.9075  0.2949
  576MOL0     H77720   1.932   2.774   9.658  1.4123  2.7979 -0.3727
  576MOL0     H77721   2.153   2.846   9.633  1.1350  0.0291  1.5821
  576MOL0     H77722   2.639   2.788   9.626  1.8226 -1.2575 -0.0113
  576MOL0     H77723   2.865   2.881   9.620  1.1078 -0.1830  0.7530
  576MOL0     H77724   3.097   2.837  10.003  0.5470  0.1735 -1.4816
  576MOL0     H77725   3.101   2.768   9.834 -2.0194 -1.3095  1.7450
  576MOL0     H77726   3.328   2.831   9.917  0.8548  0.2955 -1.8360
  576MOL0     H77727   3.278   2.897   9.767  1.6678 -1.2452  0.0627
  576MOL0     H77728   3.213   3.108   9.881  0.5625  0.6483  0.2846
  576MOL0     H77729   3.234   3.051  10.044 -1.2914  2.6536 -0.3484
  576MOL0     H77730   3.409   3.193   9.983  0.9419  0.0060  0.5164
  576MOL0     H77731   3.479   3.083   9.872  2.2365  2.0296  0.7563
  576MOL0     H77732   3.488   2.912  10.047 -0.6638  0.3591  0.2549
  576MOL0     H77733   3.432   3.031  10.166 -2.6307  1.3909 -1.6555
  576MOL0     H77734   3.690   3.078  10.001  0.0024 -0.1825 -0.0956
  576MOL0     H77735   3.629   3.177  10.141 -1.2005  1.2881 -3.6619
  576MOL0     H77736   3.716   2.886  10.178  1.1761  0.5460 -0.3538
  576MOL0     H77737   3.669   2.999  10.301 -1.1107 -1.4061 -0.0817
  576MOL0     H77738   3.867   3.152  10.244  3.0323 -0.3036  1.6594
  576MOL0     H77739   3.928   2.999  10.298  0.4515  1.4347  0.8179
  576MOL0     H77740   2.861   2.904  10.046 -0.5087  3.7130 -0.2317
  576MOL0     H77741   2.638   2.823  10.056  2.5628 -1.6977  1.2907
  576MOL0     H77742   2.306   2.598   9.940 -1.3401 -1.3206  0.2356
  576MOL0     H77743   2.081   2.518   9.984  0.2473 -0.9212  0.4657
  576MOL0     H77744   1.120   3.748   9.982 -0.2005  0.5312 -0.5759
  576MOL0     H77745   1.020   3.929  10.081  1.6759 -0.6132 -1.1767
  576MOL0     H77746   0.526   3.960  10.516  0.9754 -0.1609  2.9297
  576MOL0     H77747   0.444   4.163  10.637  1.5063 -0.8430  1.8019
  576MOL0     H77748   0.605   4.563  10.507 -1.1847 -2.1124 -1.0809
  576MOL0     H77749   0.738   4.498  10.596 -0.1693  0.7155 -4.1729
  576MOL0     H77750   0.520   4.667  10.698  0.0989  0.8948  1.3089
  576MOL0     H77751   0.695   4.677  10.717  0.5243 -0.5209  0.6815
  576MOL0     H77752   0.522   4.484  10.881 -0.0721 -0.3766  1.0219
  576MOL0     H77753   0.566   4.644  10.924 -2.1837 -0.1447 -0.3939
  576MOL0     H77754   0.724   4.442  10.998  0.1230  4.2469  2.0944
  576MOL0     H77755   0.776   4.438  10.825 -0.8352  1.1907 -1.6006
  576MOL0     H77756   0.982   4.765  11.018  0.6470  0.2091  0.5241
  576MOL0     H77757   0.688   4.411  10.386  1.2992  0.4166  3.9710
  576MOL0     H77758   0.879   4.207  10.227  0.5996  0.9148  1.1831
  576MOL0     H77759   0.732   4.173  10.125 -2.7396  1.6405  0.9297
  576MOL0     H77760   0.769   4.337  10.181  0.6939 -0.5011  0.6994
  577MOL0     O77761   9.668   9.572  10.912 -0.1417  0.0422  0.0560
  577MOL0     C77762   9.576   9.501  10.868 -1.1365  0.1268 -0.3533
  577MOL0     O77763   9.602   9.373  10.825  0.3641  0.5202 -0.1895
  577MOL0     C77764   9.734   9.321  10.823 -0.4490 -0.6986  0.1600
  577MOL0     C77765   9.853   9.396  10.795 -0.3908  0.1524 -0.0885
  577MOL0     C77766   9.973   9.330  10.788 -0.6905  0.0973 -0.0717
  577MOL0     C77767   9.977   9.187  10.797 -0.3996 -0.2023 -0.0151
  577MOL0     O77768  10.095   9.112  10.800  0.7561  0.8335  0.1216
  577MOL0     C77769  10.214   9.191  10.792  0.0794 -0.2050  0.7888
  577MOL0     C77770  10.349   9.120  10.800  0.0362 -0.5151 -0.2202
  577MOL0     C77771  10.365   9.032  10.924 -0.0257 -0.4200 -0.3901
  577MOL0     C77772  10.394   9.113  11.056 -0.2425 -0.2424 -0.1922
  577MOL0     C77773  10.465   9.029  11.164 -0.3340  0.1373  0.0590
  577MOL0     C77774  10.488   9.089  11.302  0.1265 -0.2718 -0.5565
  577MOL0     C77775  10.593   9.014  11.395 -1.1021  0.3864  0.8867
  577MOL0     C77776  10.543   8.866  11.420 -0.2532  0.0349  0.0451
  577MOL0     N77777  10.640   8.799  11.503 -0.0597  0.5218 -0.2035
  577MOL0     C77778  10.760   8.759  11.452 -0.0024 -0.6727 -0.4530
  577MOL0     C77779  10.823   8.688  11.544 -1.1790  0.0126 -0.3016
  577MOL0     C77780  10.957   8.619  11.526 -0.5519 -0.6478 -0.5809
  577MOL0     C77781  10.952   8.527  11.404 -0.3225 -0.7601 -0.2431
  577MOL0     C77782  11.068   8.440  11.390  0.5242  0.7599  0.1051
  577MOL0     C77783  11.196   8.523  11.421 -0.2145  0.3314  0.3459
  577MOL0     O77784  11.307   8.448  11.360  0.4681  0.5655  0.4136
  577MOL0     C77785  11.427   8.514  11.347  0.3648 -0.4625 -0.1504
  577MOL0     C77786  11.502   8.491  11.234  0.0606  0.3371  0.5287
  577MOL0     C77787  11.623   8.554  11.208 -0.0427  0.0179  0.1876
  577MOL0     C77788  11.670   8.665  11.289 -0.0588  1.0660  0.0838
  577MOL0     C77789  11.805   8.723  11.266 -0.4777 -0.5795 -0.0143
  577MOL0     O77790  11.906   8.650  11.207 -0.0509 -0.9684  0.8902
  577MOL0     C77791  12.022   8.718  11.169  0.0584  0.3215 -0.1235
  577MOL0     C77792  12.097   8.811  11.252 -0.1861 -0.2580  0.1602
  577MOL0     C77793  12.222   8.860  11.203  0.0565  0.3683 -0.5087
  577MOL0     C77794  12.269   8.820  11.072  0.7150  0.4303 -0.0620
  577MOL0     O77795  12.373   8.876  11.010  0.2113 -0.1520 -0.7797
  577MOL0     C77796  12.421   9.007  11.048 -1.0582 -0.2779  0.0384
  577MOL0     C77797  12.540   9.001  11.144 -0.2085  0.1513  0.4343
  577MOL0     C77798  12.604   9.142  11.178 -0.1604  0.6684  0.3236
  577MOL0     C77799  12.750   9.142  11.135 -1.2419  0.0124  0.8469
  577MOL0     C77800  12.822   9.274  11.183  0.8645  1.0789 -0.4385
  577MOL0     C77801  12.976   9.257  11.205  0.5608  0.4344 -0.6000
  577MOL0     C77802  13.036   9.372  11.276 -0.6540 -0.2180  0.0654
  577MOL0     C77803  13.090   9.480  11.180  0.6647 -0.8333  0.1488
  577MOL0    Cl77804  13.272   9.475  11.179 -0.0815  0.2804 -0.1577
  577MOL0     C77805  12.192   8.727  10.995  0.3966 -0.2815  0.3798
  577MOL0     C77806  12.075   8.677  11.044  0.3595 -0.0075  0.6355
  577MOL0     O77807  11.817   8.835  11.306 -0.0666 -0.2412 -0.1651
  577MOL0     C77808  11.591   8.692  11.407  0.3490 -0.4988  0.6649
  577MOL0     C77809  11.480   8.616  11.433  0.9760  0.6759 -0.9013
  577MOL0     N77810  10.739   8.676  11.652  0.0897  0.1156 -0.8003
  577MOL0     N77811  10.629   8.733  11.626 -0.0673 -0.2036  0.4576
  577MOL0     C77812   9.860   9.114  10.808  0.1533  0.3643 -0.6923
  577MOL0     C77813   9.737   9.180  10.823  0.0390 -0.4086  0.1802
  577MOL0     C77814   9.435   9.547  10.878 -0.1853  0.1615  0.0674
  577MOL0     C77815   9.339   9.457  10.819 -0.0219 -0.5170  0.7034
  577MOL0     C77816   9.203   9.477  10.824 -0.4195 -0.3692  0.0316
  577MOL0     C77817   9.155   9.586  10.901 -0.2750 -0.0332  0.1895
  577MOL0     O77818   9.013   9.596  10.916  0.0783 -0.2768 -1.0396
  577MOL0     C77819   8.951   9.716  10.962 -0.1748  0.1320  0.2674
  577MOL0     C77820   8.918   9.803  10.839  0.5213  0.9273  0.3705
  577MOL0     C77821   8.796   9.896  10.854  0.1625  0.2543  0.5030
  577MOL0     C77822   8.664   9.829  10.881  0.1409 -0.6181 -0.2606
  577MOL0     C77823   8.590   9.775  10.768 -0.2872 -0.2271 -0.3399
  577MOL0     C77824   8.533   9.736  10.668 -0.3427  0.9322  0.0577
  577MOL0     C77825   9.251   9.673  10.960  0.2270  0.5073  0.1567
  577MOL0     C77826   9.387   9.658  10.953 -0.8114  0.5086  0.1856
  577MOL0     C77827   9.468   9.753  11.037 -0.4808  0.2893  0.8091
  577MOL0     H77828   9.851   9.503  10.776 -1.3584  0.5137  1.8518
  577MOL0     H77829  10.067   9.383  10.771 -0.4351 -0.8071 -1.6008
  577MOL0     H77830  10.219   9.236  10.693  0.9853 -0.5758  0.6481
  577MOL0     H77831  10.217   9.262  10.875  1.7493  0.2278  0.4062
  577MOL0     H77832  10.433   9.189  10.803  0.5191 -1.1114  2.7185
  577MOL0     H77833  10.354   9.069  10.703 -1.5657 -0.0573 -0.5721
  577MOL0     H77834  10.455   8.974  10.902 -0.1223 -1.0466  0.7669
  577MOL0     H77835  10.274   8.977  10.951 -0.2139  1.0672  2.3637
  577MOL0     H77836  10.455   9.198  11.025 -0.2600 -0.3285 -0.4653
  577MOL0     H77837  10.302   9.153  11.101 -0.2588 -1.0543  0.5230
  577MOL0     H77838  10.410   8.936  11.178 -1.7196  0.8235 -0.6437
  577MOL0     H77839  10.565   9.014  11.120 -0.2575  1.8650 -0.4490
  577MOL0     H77840  10.526   9.191  11.290  1.4243 -0.7263 -0.4850
  577MOL0     H77841  10.392   9.104  11.351  1.1117 -0.8481  1.6544
  577MOL0     H77842  10.613   9.070  11.488  1.1093 -0.5647  1.0553
  577MOL0     H77843  10.690   9.016  11.346 -0.7220  0.5912  1.6215
  577MOL0     H77844  10.445   8.867  11.468 -0.8155  1.1170 -1.0631
  577MOL0     H77845  10.543   8.820  11.320  0.9887  1.4872 -0.6682
  577MOL0     H77846  10.790   8.768  11.348 -0.3482  1.3398 -0.4147
  577MOL0     H77847  11.029   8.700  11.513 -1.9567  0.4789 -1.6288
  577MOL0     H77848  10.972   8.558  11.615 -2.0325 -0.2332 -0.0166
  577MOL0     H77849  10.858   8.473  11.419 -0.6409 -0.0020  0.6013
  577MOL0     H77850  10.943   8.586  11.313 -0.7446  0.5967  0.6433
  577MOL0     H77851  11.073   8.395  11.290  2.3452 -0.0546  0.5164
  577MOL0     H77852  11.051   8.353  11.454 -3.6910 -1.2790 -3.2339
  577MOL0     H77853  11.195   8.511  11.530  0.0307 -0.2325  0.2890
  577MOL0     H77854  11.189   8.626  11.386 -0.9443 -0.5716 -2.4336
  577MOL0     H77855  11.464   8.412  11.169  2.5324 -0.7007  0.2592
  577MOL0     H77856  11.696   8.520  11.135 -1.4081 -0.4783 -0.9855
  577MOL0     H77857  12.067   8.837  11.353  2.6669  0.6680  0.8624
  577MOL0     H77858  12.276   8.927  11.269  0.8091 -2.2949  1.7668
  577MOL0     H77859  12.468   9.052  10.960 -0.9483 -0.8881 -0.2175
  577MOL0     H77860  12.357   9.086  11.090  0.0425  1.1300 -0.8469
  577MOL0     H77861  12.507   8.962  11.241 -0.3672  0.3582  0.4625
  577MOL0     H77862  12.619   8.937  11.103  1.8816  2.4392  0.6477
  577MOL0     H77863  12.556   9.218  11.116 -1.8364 -0.1252  0.5983
  577MOL0     H77864  12.592   9.166  11.284 -4.7854  1.6813 -0.2011
  577MOL0     H77865  12.751   9.127  11.026  1.9618  1.0203  0.6219
  577MOL0     H77866  12.801   9.054  11.173 -1.2109  0.3336  1.5694
  577MOL0     H77867  12.769   9.302  11.274 -0.5964 -0.8307 -0.6325
  577MOL0     H77868  12.806   9.353  11.108 -0.5069  3.2358  1.9955
  577MOL0     H77869  12.994   9.168  11.266 -0.0913  0.9380  0.3642
  577MOL0     H77870  13.032   9.235  11.114  2.7007 -2.0358  1.1679
  577MOL0     H77871  13.114   9.338  11.345 -1.7205  3.7041  3.6549
  577MOL0     H77872  12.968   9.425  11.343 -0.4186 -0.2911  0.3646
  577MOL0     H77873  13.052   9.465  11.079 -1.8375 -0.0152  0.8938
  577MOL0     H77874  13.047   9.574  11.215  1.7008 -0.1408 -0.3665
  577MOL0     H77875  12.219   8.699  10.894 -0.5015  1.6672 -0.4435
  577MOL0     H77876  12.004   8.606  11.002  0.3146  0.5332 -0.2209
  577MOL0     H77877  11.634   8.755  11.484  1.0931  0.8167 -0.7794
  577MOL0     H77878  11.432   8.635  11.529 -1.9043  1.1674 -2.3155
  577MOL0     H77879   9.863   9.006  10.820  0.3737  0.5390  1.0345
  577MOL0     H77880   9.640   9.131  10.834  1.4440 -2.8942  2.8313
  577MOL0     H77881   9.380   9.379  10.756 -0.4461 -1.4044  1.4916
  577MOL0     H77882   9.140   9.408  10.770 -0.4602 -0.4611  0.1953
  577MOL0     H77883   9.015   9.773  11.030  0.1053  0.4902 -0.2820
  577MOL0     H77884   8.855   9.697  11.011  0.1898  1.6930  1.6642
  577MOL0     H77885   8.913   9.737  10.752 -0.0183  0.9669  0.3635
  577MOL0     H77886   9.001   9.870  10.818  0.0430  1.6922  0.8575
  577MOL0     H77887   8.787   9.955  10.763  1.1169  0.0246  0.2467
  577MOL0     H77888   8.832   9.966  10.930  3.5493 -1.6348  0.8375
  577MOL0     H77889   8.669   9.744  10.949 -0.7746  1.3218  2.4282
  577MOL0     H77890   8.606   9.898  10.944 -1.5510 -0.2872 -2.1048
  577MOL0     H77891   8.486   9.694  10.581  0.2328 -0.8350  0.5604
  577MOL0     H77892   9.211   9.754  11.021  0.6589  0.9234 -0.0991
  577MOL0     H77893   9.491   9.721  11.139 -0.9146 -0.1626  0.7689
  577MOL0     H77894   9.567   9.767  10.993 -0.3487 -1.0305  0.6264
  577MOL0     H77895   9.421   9.851  11.043 -4.0384 -1.0775 -1.2455
  578MOL0     O77896   2.853   7.652   8.196 -0.0043 -0.0232  0.0214
  578MOL0     C77897   2.765   7.735   8.218  0.0629  0.0132  0.6055
  578MOL0     O77898   2.775   7.833   8.325  0.8285 -0.1475  0.9483
  578MOL0     C77899   2.887   7.833   8.396  0.6362  0.3790  0.0407
  578MOL0     C77900   3.002   7.893   8.363  0.1788  0.5547 -0.8652
  578MOL0     C77901   3.115   7.896   8.452  0.1306  0.4994  0.5649
  578MOL0     C77902   3.100   7.872   8.591 -0.3913 -0.6140  0.1423
  578MOL0     O77903   3.202   7.909   8.674  0.3932 -0.1011  0.1086
  578MOL0     C77904   3.167   7.949   8.806 -0.4773 -0.2219  0.0925
  578MOL0     C77905   3.271   8.041   8.871  0.8068 -0.3275  0.6893
  578MOL0     C77906   3.290   8.156   8.769  0.4480 -0.5008  0.8466
  578MOL0     C77907   3.329   8.283   8.846 -0.4703 -0.0072  0.4278
  578MOL0     C77908   3.390   8.385   8.754 -0.6356  0.3887  0.1195
  578MOL0     C77909   3.458   8.485   8.844 -0.9389  0.0545  0.0768
  578MOL0     C77910   3.369   8.555   8.950  0.2184 -0.2907  0.1342
  578MOL0     C77911   3.414   8.698   8.982  0.7756 -0.1740 -0.7356
  578MOL0     N77912   3.552   8.700   9.038  0.4384 -0.0347 -0.5621
  578MOL0     C77913   3.585   8.713   9.165 -0.5908  0.3989 -0.0185
  578MOL0     C77914   3.717   8.727   9.173 -0.6612  0.5096  0.2826
  578MOL0     C77915   3.790   8.745   9.301  0.1944  0.4327 -0.1021
  578MOL0     C77916   3.942   8.759   9.286  0.3206 -0.1879  0.6586
  578MOL0     C77917   3.980   8.901   9.233  0.0948  0.1647  0.9588
  578MOL0     C77918   4.112   8.967   9.271 -0.6425 -0.8168  0.0711
  578MOL0     O77919   4.145   8.959   9.412  0.1852 -0.1416 -0.2259
  578MOL0     C77920   4.248   9.040   9.465  0.5714 -0.3453 -0.1807
  578MOL0     C77921   4.266   9.022   9.603 -0.0202  0.5571  0.2456
  578MOL0     C77922   4.369   9.092   9.664  0.4633 -0.0547 -0.4468
  578MOL0     C77923   4.449   9.183   9.602 -0.0845 -0.3841 -0.3269
  578MOL0     C77924   4.557   9.261   9.659 -0.4366 -0.5291 -0.0048
  578MOL0     O77925   4.587   9.236   9.788  0.1936 -0.5005 -0.9165
  578MOL0     C77926   4.698   9.293   9.849 -0.0560 -0.0836  0.8859
  578MOL0     C77927   4.833   9.305   9.794 -0.2987 -0.1891  0.3905
  578MOL0     C77928   4.933   9.371   9.870  0.0884  0.1886  0.0971
  578MOL0     C77929   4.902   9.420  10.002 -1.1116 -1.1968  0.0301
  578MOL0     O77930   4.995   9.475  10.095  0.1192  0.1994  0.3372
  578MOL0     C77931   5.135   9.462  10.059 -0.1900  0.2971  0.7031
  578MOL0     C77932   5.214   9.576  10.107 -0.9112 -0.3400  0.9376
  578MOL0     C77933   5.366   9.565  10.072  0.9318 -0.1476  0.2086
  578MOL0     C77934   5.433   9.669  10.159  0.2101 -0.1278  0.1120
  578MOL0     C77935   5.583   9.675  10.125 -0.6917 -0.0692  0.3231
  578MOL0     C77936   5.661   9.544  10.163  0.2838 -0.0580 -0.6404
  578MOL0     C77937   5.811   9.586  10.163 -0.7423 -0.4713 -0.0642
  578MOL0     C77938   5.893   9.458  10.188  0.3863  0.2650 -0.3235
  578MOL0    Cl77939   5.913   9.353  10.042  0.2053 -0.3516  0.3622
  578MOL0     C77940   4.777   9.408  10.047 -0.8766  0.3298  0.1945
  578MOL0     C77941   4.669   9.344   9.982 -0.2519  0.5313  0.1779
  578MOL0     O77942   4.607   9.352   9.593  0.7755  1.0236 -0.1299
  578MOL0     C77943   4.419   9.206   9.467 -0.5489  0.1471  0.1307
  578MOL0     C77944   4.322   9.133   9.406  0.6528  0.4773  1.1751
  578MOL0     N77945   3.765   8.717   9.038 -0.7317 -0.0172 -0.3216
  578MOL0     N77946   3.663   8.704   8.963  0.1812  0.3718 -0.2654
  578MOL0     C77947   2.976   7.816   8.632 -0.7915 -0.8744  0.4244
  578MOL0     C77948   2.878   7.796   8.531  0.3749  0.5535 -0.2880
  578MOL0     C77949   2.647   7.739   8.126 -0.1038  1.0012 -0.3154
  578MOL0     C77950   2.627   7.631   8.038  0.2871  0.5257  0.3948
  578MOL0     C77951   2.515   7.624   7.948  0.1182  0.0889  0.5569
  578MOL0     C77952   2.434   7.727   7.955 -0.0653  0.1081 -0.5308
  578MOL0     O77953   2.337   7.719   7.860  0.3690  0.3036  0.8330
  578MOL0     C77954   2.219   7.796   7.877  0.3180 -0.1658  0.9825
  578MOL0     C77955   2.111   7.724   7.796  0.5439  1.1610  0.8941
  578MOL0     C77956   2.086   7.585   7.851  0.1428  0.1671 -0.6247
  578MOL0     C77957   1.957   7.522   7.804 -0.6035  0.0023 -0.5053
  578MOL0     C77958   1.962   7.483   7.662  0.3895  0.3547 -0.3065
  578MOL0     C77959   1.956   7.447   7.548  0.4099 -0.5841  0.9881
  578MOL0     C77960   2.450   7.834   8.038 -0.6651  0.7196  0.6681
  578MOL0     C77961   2.549   7.844   8.132 -0.7832  0.4210  0.6257
  578MOL0     C77962   2.547   7.966   8.219 -0.0277  0.4614  0.5021
  578MOL0     H77963   3.013   7.927   8.260  3.2295 -0.6233 -1.0314
  578MOL0     H77964   3.211   7.934   8.419  0.1872 -1.6702 -2.0666
  578MOL0     H77965   3.076   8.010   8.800  1.0469  2.5825  2.8136
  578MOL0     H77966   3.161   7.859   8.869  0.9654 -1.6943 -1.7319
  578MOL0     H77967   3.362   7.984   8.890  0.7761  0.1148  2.2667
  578MOL0     H77968   3.232   8.087   8.962  0.5788  2.5479 -0.7282
  578MOL0     H77969   3.194   8.166   8.718  1.5729 -0.3248 -1.3051
  578MOL0     H77970   3.361   8.135   8.689 -0.2443 -2.3412  0.6541
  578MOL0     H77971   3.232   8.319   8.883  0.4658  2.9757  0.2850
  578MOL0     H77972   3.395   8.260   8.931  3.4264  2.4907 -1.6062
  578MOL0     H77973   3.465   8.341   8.687 -0.1006  3.3176 -1.3519
  578MOL0     H77974   3.322   8.446   8.694 -0.3310 -1.3724 -2.1284
  578MOL0     H77975   3.534   8.430   8.899 -0.2549  2.3633  1.6029
  578MOL0     H77976   3.511   8.558   8.782 -0.0324  1.0734  1.9819
  578MOL0     H77977   3.380   8.492   9.039  1.2004 -0.9144 -0.4120
  578MOL0     H77978   3.262   8.549   8.925 -0.2366  1.0984  1.6020
  578MOL0     H77979   3.414   8.757   8.890 -3.0478  1.6859  0.2257
  578MOL0     H77980   3.352   8.744   9.060  1.9392 -0.0845  0.1724
  578MOL0     H77981   3.513   8.699   9.245 -2.4231 -2.6995 -2.0233
  578MOL0     H77982   3.755   8.839   9.344  2.3243  0.7637  1.0676
  578MOL0     H77983   3.769   8.662   9.370  0.6405 -0.9210 -1.5313
  578MOL0     H77984   3.987   8.750   9.385  2.4108  2.6501  0.1226
  578MOL0     H77985   3.985   8.682   9.222  0.7254  0.9963 -0.5563
  578MOL0     H77986   3.909   8.978   9.265 -1.3847 -0.3905 -0.8325
  578MOL0     H77987   3.971   8.904   9.124 -1.1528  2.0482  1.0769
  578MOL0     H77988   4.090   9.069   9.239 -0.9032 -1.4474 -1.9514
  578MOL0     H77989   4.194   8.929   9.209  0.7126  0.9215  0.7128
  578MOL0     H77990   4.217   8.942   9.658 -1.6691  0.5854 -1.0973
  578MOL0     H77991   4.401   9.066   9.764  0.5435  2.7919  0.3496
  578MOL0     H77992   4.855   9.285   9.690 -0.1535 -1.3426  0.6307
  578MOL0     H77993   5.031   9.392   9.829  0.5957  1.0068  1.6357
  578MOL0     H77994   5.174   9.368  10.100 -0.8904 -1.3576 -2.1221
  578MOL0     H77995   5.154   9.467   9.952 -2.6464 -0.3696  0.1665
  578MOL0     H77996   5.171   9.662  10.056 -0.8423 -0.9452 -0.1835
  578MOL0     H77997   5.210   9.583  10.216  0.1377 -1.6237  1.0907
  578MOL0     H77998   5.401   9.463  10.089 -0.7373 -1.0308 -1.2853
  578MOL0     H77999   5.374   9.584   9.965  1.5048 -1.0480  0.0829
  578MOL0     H78000   5.418   9.628  10.259 -1.6181  1.5245  0.5696
  578MOL0     H78001   5.383   9.766  10.155  1.9674  0.7968 -0.5206
  578MOL0     H78002   5.616   9.758  10.188 -0.1723 -1.6006  2.1768
  578MOL0     H78003   5.594   9.693  10.018  3.2437 -2.8786  0.0749
  578MOL0     H78004   5.647   9.525  10.269  2.8140  3.2337  0.4627
  578MOL0     H78005   5.626   9.470  10.091 -2.9023  1.8992 -1.2898
  578MOL0     H78006   5.836   9.662  10.237  3.1765 -1.1244 -0.5437
  578MOL0     H78007   5.849   9.624  10.068 -2.6021  0.7129 -0.4041
  578MOL0     H78008   5.990   9.488  10.229  2.2608 -4.6305 -0.4092
  578MOL0     H78009   5.847   9.399  10.268  0.0403  0.6812 -0.2129
  578MOL0     H78010   4.753   9.439  10.149 -2.2319 -0.6640  0.2050
  578MOL0     H78011   4.568   9.322  10.012  0.3649 -0.9937  1.2843
  578MOL0     H78012   4.475   9.274   9.402 -1.7980  1.0734 -0.0110
  578MOL0     H78013   4.312   9.154   9.300  1.1449  0.4602  1.1226
  578MOL0     H78014   2.954   7.784   8.734  1.8074  0.0857  1.3471
  578MOL0     H78015   2.782   7.753   8.558 -1.1541  3.7640 -0.1515
  578MOL0     H78016   2.700   7.551   8.033 -0.7150 -0.8692  4.4358
  578MOL0     H78017   2.504   7.538   7.883  1.7064  0.2194  0.0662
  578MOL0     H78018   2.232   7.900   7.846  5.2597 -0.4527  1.2316
  578MOL0     H78019   2.195   7.786   7.983 -1.5964 -1.3547  0.4890
  578MOL0     H78020   2.140   7.711   7.691 -0.3996 -3.6126  0.9920
  578MOL0     H78021   2.016   7.779   7.795  0.6253  1.5584 -3.2321
  578MOL0     H78022   2.072   7.607   7.957 -2.6500  0.6388 -1.0081
  578MOL0     H78023   2.169   7.521   7.820  0.2571  0.4797 -0.9741
  578MOL0     H78024   1.942   7.431   7.863 -0.3068  0.8997  1.0013
  578MOL0     H78025   1.877   7.595   7.818 -2.9656 -2.5521  0.1086
  578MOL0     H78026   1.943   7.419   7.446 -1.0158  2.1207  0.3345
  578MOL0     H78027   2.380   7.916   8.021  1.5824  2.6365  0.1507
  578MOL0     H78028   2.515   7.938   8.319  2.2780 -2.2460  0.5935
  578MOL0     H78029   2.646   8.012   8.227  1.0086 -1.2895 -1.2758
  578MOL0     H78030   2.492   8.044   8.166 -0.7380  0.5247  1.3127
  579MOL0     O78031   7.173   2.612   2.945 -0.4787 -0.1314 -0.1139
  579MOL0     C78032   7.073   2.618   2.875  0.3288 -0.0641 -0.1850
  579MOL0     O78033   7.069   2.552   2.753  0.1505 -0.0388  0.2232
  579MOL0     C78034   7.172   2.476   2.707 -0.0497  0.7211  0.5076
  579MOL0     C78035   7.292   2.534   2.666 -0.4289  0.2711  0.1598
  579MOL0     C78036   7.397   2.457   2.606  0.5889  0.0988 -0.7242
  579MOL0     C78037   7.377   2.331   2.568  0.6867  0.1291  0.2048
  579MOL0     O78038   7.474   2.265   2.504 -0.6125  0.4953 -0.3384
  579MOL0     C78039   7.457   2.255   2.360  0.2900  0.6437  0.1343
  579MOL0     C78040   7.539   2.140   2.302 -0.4430 -0.5785  0.6382
  579MOL0     C78041   7.691   2.175   2.314  0.3513  0.0880 -1.0176
  579MOL0     C78042   7.785   2.052   2.292  0.6025 -0.7000 -0.0038
  579MOL0     C78043   7.923   2.085   2.350 -0.3672 -0.3459 -0.5686
  579MOL0     C78044   8.024   1.979   2.287 -1.7129  0.5439  0.3199
  579MOL0     C78045   8.164   2.040   2.300  0.1317 -0.4664 -0.1430
  579MOL0     C78046   8.266   1.952   2.232  0.8457 -0.2126  0.6473
  579MOL0     N78047   8.393   2.016   2.230  0.1344  0.2884 -0.3436
  579MOL0     C78048   8.480   2.032   2.334  0.3764 -0.5708  0.5710
  579MOL0     C78049   8.583   2.105   2.284 -0.4361  0.5656 -0.1345
  579MOL0     C78050   8.702   2.143   2.366 -0.1696 -0.6573 -0.0035
  579MOL0     C78051   8.808   2.042   2.359  0.2853 -0.1134 -0.8249
  579MOL0     C78052   8.784   1.918   2.457  0.4461 -0.1551  0.1961
  579MOL0     C78053   8.899   1.823   2.461 -0.1984 -0.4271  0.0209
  579MOL0     O78054   9.011   1.893   2.532 -0.4191 -0.1963  1.0848
  579MOL0     C78055   9.113   1.812   2.570 -0.4248 -0.6905 -0.0565
  579MOL0     C78056   9.117   1.779   2.703 -0.2156 -0.9318  0.3733
  579MOL0     C78057   9.239   1.729   2.752  0.6242  0.5492 -0.2866
  579MOL0     C78058   9.348   1.706   2.672 -0.2025  0.9673  0.1568
  579MOL0     C78059   9.479   1.666   2.733 -0.4050 -0.1205  0.2500
  579MOL0     O78060   9.572   1.599   2.649 -0.3425 -0.0231  0.4088
  579MOL0     C78061   9.685   1.551   2.710 -0.3100 -0.4654 -0.9719
  579MOL0     C78062   9.680   1.450   2.800  0.0878  0.8695 -0.3919
  579MOL0     C78063   9.797   1.414   2.885 -0.2269  0.7366  0.9850
  579MOL0     C78064   9.922   1.480   2.857  0.1074  0.9519 -0.1034
  579MOL0     O78065  10.041   1.446   2.920  0.2079  0.0130  0.4472
  579MOL0     C78066  10.099   1.335   2.857 -0.2181 -0.2765 -0.6086
  579MOL0     C78067  10.247   1.320   2.863 -0.3663  0.5203 -0.2988
  579MOL0     C78068  10.318   1.435   2.788  0.1377  0.0403 -1.1484
  579MOL0     C78069  10.274   1.436   2.647 -0.1742  0.2041  0.5669
  579MOL0     C78070  10.387   1.495   2.553  0.3041  0.3747  0.1601
  579MOL0     C78071  10.395   1.646   2.565 -0.1032 -0.0162 -0.1994
  579MOL0     C78072  10.530   1.700   2.515  0.4737 -0.2084 -0.0426
  579MOL0     C78073  10.546   1.847   2.554 -0.0991  0.1255  0.1639
  579MOL0    Cl78074  10.690   1.917   2.483 -0.1408 -0.0873 -0.1843
  579MOL0     C78075   9.926   1.588   2.764 -0.8752 -0.2633  0.7489
  579MOL0     C78076   9.806   1.626   2.694 -0.0145  0.4431  0.2726
  579MOL0     O78077   9.487   1.672   2.854  0.1098  0.3993 -0.0851
  579MOL0     C78078   9.332   1.724   2.533 -0.3755  0.7562 -0.0868
  579MOL0     C78079   9.216   1.784   2.490 -0.0450 -0.4809  0.4641
  579MOL0     N78080   8.549   2.133   2.154  0.0616  0.8787  0.2771
  579MOL0     N78081   8.434   2.084   2.121 -0.0150 -0.7240 -0.0930
  579MOL0     C78082   7.254   2.269   2.614 -0.1867  0.0883  0.2971
  579MOL0     C78083   7.158   2.342   2.685 -0.0837 -0.6231  0.0238
  579MOL0     C78084   6.955   2.689   2.932 -0.1972  0.1358 -0.0686
  579MOL0     C78085   6.849   2.692   2.836 -0.9868  0.2676  0.5821
  579MOL0     C78086   6.723   2.737   2.872  0.6454 -0.4028 -0.1540
  579MOL0     C78087   6.703   2.798   2.993  0.0836 -0.5311  0.1021
  579MOL0     O78088   6.583   2.856   3.032 -0.0929 -0.2446  0.3727
  579MOL0     C78089   6.473   2.855   2.944  0.5860 -0.2409 -0.0004
  579MOL0     C78090   6.347   2.891   3.024  0.4435 -0.7054 -0.1281
  579MOL0     C78091   6.208   2.870   2.960 -0.0731 -0.3288 -0.1719
  579MOL0     C78092   6.092   2.935   3.027  0.3723 -0.1891 -0.2938
  579MOL0     C78093   5.966   2.925   2.948 -0.4898 -0.0473  0.4927
  579MOL0     C78094   5.863   2.925   2.886 -0.6555 -1.2663  0.6107
  579MOL0     C78095   6.802   2.790   3.087 -0.4386 -0.0089 -0.1964
  579MOL0     C78096   6.931   2.737   3.063  0.3017 -0.1908 -0.0030
  579MOL0     C78097   7.015   2.710   3.183 -0.0014 -0.5371 -1.0945
  579MOL0     H78098   7.318   2.638   2.683  0.3085  0.2790 -0.9477
  579MOL0     H78099   7.491   2.511   2.595  0.4586  0.9738  1.8318
  579MOL0     H78100   7.352   2.230   2.343  0.8402 -1.2734 -0.7440
  579MOL0     H78101   7.471   2.351   2.308  1.8425  0.3122 -0.1338
  579MOL0     H78102   7.510   2.130   2.197  0.2224  0.7117  0.3024
  579MOL0     H78103   7.525   2.043   2.350  0.8050 -1.0626  0.0681
  579MOL0     H78104   7.724   2.228   2.404 -0.2797 -1.6203  0.2931
  579MOL0     H78105   7.703   2.237   2.225  0.4512  0.7527 -0.5454
  579MOL0     H78106   7.748   1.967   2.349 -0.6514  0.4197  0.9291
  579MOL0     H78107   7.787   2.017   2.189 -1.2275 -1.5996  0.2179
  579MOL0     H78108   7.950   2.185   2.315 -1.2910  0.0247 -0.2824
  579MOL0     H78109   7.924   2.099   2.459  0.5887  1.6699 -0.8058
  579MOL0     H78110   8.031   1.883   2.339  0.0653  1.2007  1.3646
  579MOL0     H78111   8.006   1.966   2.180 -1.4955  0.0714  0.3388
  579MOL0     H78112   8.183   2.053   2.407 -2.1695 -1.5080  0.4481
  579MOL0     H78113   8.166   2.138   2.252 -1.4336 -0.2908  0.0827
  579MOL0     H78114   8.256   1.863   2.295 -2.5844 -0.4753 -0.0661
  579MOL0     H78115   8.230   1.924   2.133  1.0981  2.1571 -0.1811
  579MOL0     H78116   8.462   2.002   2.436 -1.0129  0.0672  0.5370
  579MOL0     H78117   8.740   2.235   2.322  0.6210 -0.6617  0.6565
  579MOL0     H78118   8.659   2.166   2.464  3.0997  0.8704  1.2251
  579MOL0     H78119   8.826   2.012   2.255  2.7277 -0.3163 -0.4006
  579MOL0     H78120   8.899   2.095   2.387 -0.0835  1.5529 -2.6222
  579MOL0     H78121   8.696   1.854   2.441  0.6763 -0.5738  0.5873
  579MOL0     H78122   8.764   1.960   2.557 -2.5328  1.8579 -1.0997
  579MOL0     H78123   8.918   1.793   2.358  1.0744  0.5640 -0.0626
  579MOL0     H78124   8.868   1.740   2.525 -2.0026  1.9074  2.4600
  579MOL0     H78125   9.040   1.805   2.775  0.9641 -0.2438  1.4420
  579MOL0     H78126   9.247   1.714   2.859  0.0067  2.9353  0.1508
  579MOL0     H78127   9.583   1.407   2.822  0.4194 -0.0655 -0.6722
  579MOL0     H78128   9.797   1.346   2.969  2.0009  0.3486  0.7257
  579MOL0     H78129  10.048   1.250   2.904 -0.6879 -1.1901 -2.6533
  579MOL0     H78130  10.068   1.325   2.753 -0.0513  0.9729 -0.7942
  579MOL0     H78131  10.286   1.321   2.966 -2.9880 -0.2347  0.7801
  579MOL0     H78132  10.280   1.226   2.818  2.9126  1.5016 -0.2329
  579MOL0     H78133  10.284   1.528   2.835 -1.1638 -1.1701  0.4074
  579MOL0     H78134  10.426   1.422   2.799 -0.1494 -1.5599  0.0501
  579MOL0     H78135  10.187   1.501   2.636 -0.9328 -0.6718  1.2524
  579MOL0     H78136  10.260   1.336   2.605 -3.1215  0.1189  1.5348
  579MOL0     H78137  10.356   1.469   2.451  1.4789 -0.7822  0.0717
  579MOL0     H78138  10.483   1.448   2.572  0.9233  1.5083 -0.0563
  579MOL0     H78139  10.308   1.679   2.507  0.0522 -2.2158 -1.7908
  579MOL0     H78140  10.385   1.680   2.668  2.0987  1.6701 -0.4549
  579MOL0     H78141  10.534   1.687   2.407  0.0370 -2.1516  0.1478
  579MOL0     H78142  10.618   1.646   2.553 -0.0336  0.0673  1.6178
  579MOL0     H78143  10.455   1.894   2.514  1.1439  4.0118  1.4326
  579MOL0     H78144  10.551   1.854   2.663 -3.9409 -1.5396  0.6134
  579MOL0     H78145  10.018   1.646   2.762 -1.3620  0.5376  0.8329
  579MOL0     H78146   9.802   1.722   2.642 -1.8084 -1.1052 -2.7098
  579MOL0     H78147   9.408   1.706   2.459 -2.6885  0.9227 -2.6663
  579MOL0     H78148   9.213   1.825   2.389 -0.5819  1.3727  1.1861
  579MOL0     H78149   7.251   2.164   2.589  5.4189 -0.8842  2.2842
  579MOL0     H78150   7.063   2.305   2.722  0.0902 -1.2330 -0.1379
  579MOL0     H78151   6.867   2.660   2.734  0.4190  1.7027  0.3354
  579MOL0     H78152   6.645   2.736   2.797 -0.4949  2.1585  0.8479
  579MOL0     H78153   6.458   2.760   2.891  1.2985  0.5561 -1.7201
  579MOL0     H78154   6.494   2.934   2.871  0.8259 -0.7633 -0.5059
  579MOL0     H78155   6.358   2.995   3.058 -2.5734  0.3586 -1.9903
  579MOL0     H78156   6.349   2.828   3.113  2.8750 -0.6503 -0.0709
  579MOL0     H78157   6.191   2.762   2.969  0.2609 -0.3511  0.1905
  579MOL0     H78158   6.222   2.889   2.853  0.3280  0.2159 -0.0259
  579MOL0     H78159   6.073   2.902   3.130  1.5090 -0.9401 -0.2971
  579MOL0     H78160   6.129   3.038   3.024  0.8213 -0.3685 -2.1384
  579MOL0     H78161   5.771   2.920   2.832  0.2376  2.0798 -1.5366
  579MOL0     H78162   6.774   2.844   3.177 -2.2721  1.5405 -1.6178
  579MOL0     H78163   7.114   2.752   3.161  1.3878 -2.5313  0.9441
  579MOL0     H78164   6.974   2.761   3.271  2.3872 -0.4477  0.0504
  579MOL0     H78165   7.023   2.604   3.207  1.6017 -0.2517 -0.1646
  580MOL0     O78166   1.343   3.627   0.935 -0.5662 -0.4510 -0.1290
  580MOL0     C78167   1.282   3.613   0.825 -0.3949  0.5135 -0.2994
  580MOL0     O78168   1.303   3.688   0.717  0.2764 -0.0884 -0.2298
  580MOL0     C78169   1.400   3.785   0.704 -0.2420 -0.5733  1.2113
  580MOL0     C78170   1.382   3.887   0.606  0.0386  0.2359 -0.0108
  580MOL0     C78171   1.480   3.987   0.594  0.4111  0.5282 -0.3316
  580MOL0     C78172   1.607   3.988   0.656 -0.0143 -0.3899 -0.0763
  580MOL0     O78173   1.701   4.084   0.622 -0.2610 -0.0875  0.1916
  580MOL0     C78174   1.656   4.216   0.653 -0.0017 -0.2103 -0.1224
  580MOL0     C78175   1.770   4.317   0.662 -0.1571  0.4673 -0.4165
  580MOL0     C78176   1.846   4.298   0.799  0.0386 -0.2272 -0.6728
  580MOL0     C78177   1.774   4.364   0.912 -0.1799  0.4584 -0.3580
  580MOL0     C78178   1.797   4.296   1.048  0.1997 -0.0708 -0.1371
  580MOL0     C78179   1.726   4.382   1.151  0.0085 -0.6253  0.1165
  580MOL0     C78180   1.730   4.309   1.286 -0.0860 -0.0422  0.4419
  580MOL0     C78181   1.639   4.376   1.385  0.3669 -0.4556 -0.8567
  580MOL0     N78182   1.703   4.485   1.461 -0.0488 -0.1028  0.6146
  580MOL0     C78183   1.818   4.474   1.531  1.1806 -1.1315  0.2295
  580MOL0     C78184   1.848   4.592   1.590  0.3836 -0.2866  0.4486
  580MOL0     C78185   1.980   4.638   1.649  0.1535 -0.5258  0.0286
  580MOL0     C78186   1.970   4.768   1.734  0.4135 -0.1424 -0.3332
  580MOL0     C78187   2.100   4.827   1.786 -0.6465 -0.4206 -0.7400
  580MOL0     C78188   2.183   4.892   1.676 -1.2837 -0.3251  0.5940
  580MOL0     O78189   2.216   5.030   1.712  0.4627  0.2148 -0.0986
  580MOL0     C78190   2.322   5.053   1.798  0.1660 -0.1883  1.5658
  580MOL0     C78191   2.421   4.969   1.850  1.0126  0.2465 -0.4913
  580MOL0     C78192   2.535   5.010   1.917 -0.0633  0.2170 -0.6514
  580MOL0     C78193   2.540   5.146   1.945  0.0675 -0.2066 -0.5885
  580MOL0     C78194   2.658   5.205   2.017 -0.3508  0.3474  0.9023
  580MOL0     O78195   2.699   5.331   1.981  0.3605 -0.4083  0.7041
  580MOL0     C78196   2.830   5.384   1.999  0.2391 -0.4675  1.0761
  580MOL0     C78197   2.886   5.458   1.895 -0.7644  0.3748  0.0765
  580MOL0     C78198   3.009   5.508   1.908 -1.3828  0.0726 -0.2472
  580MOL0     C78199   3.083   5.491   2.026 -0.3534  0.4948 -0.3782
  580MOL0     O78200   3.210   5.535   2.049  0.3674  0.2803  0.0441
  580MOL0     C78201   3.263   5.617   1.941 -0.0159  0.3824  0.2229
  580MOL0     C78202   3.390   5.686   1.970 -0.5790  0.2173  0.6462
  580MOL0     C78203   3.462   5.715   1.832  0.7037 -0.6292 -0.0287
  580MOL0     C78204   3.577   5.808   1.848  0.1134  0.3799  0.1048
  580MOL0     C78205   3.533   5.955   1.852 -0.9806  0.2197  0.0776
  580MOL0     C78206   3.673   6.032   1.835  0.5424 -0.2570 -0.9407
  580MOL0     C78207   3.656   6.178   1.814  0.1740 -0.3159 -0.3062
  580MOL0     C78208   3.790   6.234   1.761 -0.6039 -0.0934 -0.4245
  580MOL0    Cl78209   3.766   6.377   1.658 -0.1862 -0.1442  0.2285
  580MOL0     C78210   3.026   5.420   2.134 -0.0343 -0.5683 -0.4549
  580MOL0     C78211   2.894   5.371   2.130  0.2958  0.0576 -0.2091
  580MOL0     O78212   2.714   5.143   2.104  0.3999  0.1400 -0.3024
  580MOL0     C78213   2.432   5.237   1.911 -0.0302 -0.3883  1.1737
  580MOL0     C78214   2.328   5.192   1.828  0.2267 -0.0949 -0.4328
  580MOL0     N78215   1.746   4.674   1.560 -0.1229  0.8733  0.3215
  580MOL0     N78216   1.657   4.613   1.486 -0.1040 -0.7198  0.1038
  580MOL0     C78217   1.623   3.884   0.750 -0.6048  0.9502  0.1205
  580MOL0     C78218   1.528   3.779   0.765  1.0227 -0.0105  0.0300
  580MOL0     C78219   1.173   3.516   0.832  0.1236  0.5603  0.7697
  580MOL0     C78220   1.098   3.492   0.953  0.0804  0.6774 -0.6669
  580MOL0     C78221   0.993   3.396   0.956  0.7982  0.2316  0.0674
  580MOL0     C78222   0.962   3.321   0.847  0.4590 -0.7838 -0.2096
  580MOL0     O78223   0.859   3.229   0.853  0.5946 -0.3594  0.1141
  580MOL0     C78224   0.726   3.274   0.806  0.8614 -0.7476 -0.0637
  580MOL0     C78225   0.695   3.266   0.651  0.1745 -0.3811  0.2853
  580MOL0     C78226   0.578   3.354   0.604 -0.7421  0.0165 -0.7358
  580MOL0     C78227   0.508   3.303   0.474  0.7624  0.2350 -0.3533
  580MOL0     C78228   0.414   3.395   0.425  0.7743  0.5292  0.9812
  580MOL0     C78229   0.326   3.458   0.368  0.5296  0.2965 -0.3943
  580MOL0     C78230   1.019   3.353   0.726  0.1519 -0.2701  0.2478
  580MOL0     C78231   1.120   3.445   0.715 -0.3641 -0.8585  0.6131
  580MOL0     C78232   1.165   3.467   0.571  0.1427 -0.2680 -0.0456
  580MOL0     H78233   1.287   3.885   0.553 -1.3096  1.4258  2.1894
  580MOL0     H78234   1.452   4.065   0.524 -4.3434 -1.7263 -1.3960
  580MOL0     H78235   1.586   4.250   0.576  1.7869 -0.4474 -1.9402
  580MOL0     H78236   1.605   4.221   0.750 -2.4494  0.6953 -1.3504
  580MOL0     H78237   1.739   4.422   0.659 -3.3057 -0.1834  2.6031
  580MOL0     H78238   1.847   4.301   0.586 -0.4287 -2.8312 -0.1314
  580MOL0     H78239   1.948   4.339   0.794 -0.2192  0.6022  0.6354
  580MOL0     H78240   1.866   4.192   0.819 -0.8363 -0.1646  0.6739
  580MOL0     H78241   1.814   4.466   0.921  0.8353 -0.0478  1.0548
  580MOL0     H78242   1.667   4.371   0.890 -0.0131  1.7494 -0.8495
  580MOL0     H78243   1.751   4.198   1.032  0.8106 -0.2447 -0.8947
  580MOL0     H78244   1.903   4.291   1.075  0.4848  0.5626 -1.1119
  580MOL0     H78245   1.777   4.478   1.153  0.9657 -1.0859 -0.8649
  580MOL0     H78246   1.621   4.391   1.120  0.1341 -1.6563 -0.6670
  580MOL0     H78247   1.831   4.314   1.327  0.1648 -0.0483 -0.1549
  580MOL0     H78248   1.688   4.210   1.267 -3.6011  1.4343 -0.3016
  580MOL0     H78249   1.543   4.409   1.344  1.2738  0.9680 -1.9312
  580MOL0     H78250   1.616   4.290   1.449  0.9347 -0.3983 -0.5699
  580MOL0     H78251   1.892   4.395   1.536  2.1036 -0.2872  0.2620
  580MOL0     H78252   2.022   4.558   1.711  1.3826 -0.8451 -1.1440
  580MOL0     H78253   2.058   4.649   1.573  0.3955 -1.0963  0.1891
  580MOL0     H78254   1.922   4.848   1.677 -2.2482 -1.9779 -0.8396
  580MOL0     H78255   1.902   4.736   1.814  0.6179 -0.4145 -0.2686
  580MOL0     H78256   2.154   4.756   1.850 -0.6005  1.8009  1.8463
  580MOL0     H78257   2.079   4.904   1.861  4.7526  0.4734  0.2851
  580MOL0     H78258   2.131   4.895   1.580  1.7405  2.3734 -1.1303
  580MOL0     H78259   2.278   4.840   1.668 -0.4849  1.0481  0.8760
  580MOL0     H78260   2.409   4.862   1.831  0.5952  0.3989 -1.1029
  580MOL0     H78261   2.604   4.940   1.963  1.0799  1.1679 -0.8656
  580MOL0     H78262   2.842   5.483   1.799  1.6422  2.8043 -0.5527
  580MOL0     H78263   3.054   5.575   1.836 -2.0055  2.1908  1.2244
  580MOL0     H78264   3.266   5.555   1.850  0.4519  1.5478 -0.5771
  580MOL0     H78265   3.193   5.697   1.913  1.0784  2.0037  1.8978
  580MOL0     H78266   3.373   5.779   2.025 -1.1353  0.4437  0.1088
  580MOL0     H78267   3.451   5.619   2.031 -1.4856 -2.0056 -0.7565
  580MOL0     H78268   3.509   5.622   1.800  1.2242 -0.5460  0.4769
  580MOL0     H78269   3.388   5.741   1.756 -0.5480  2.7015  2.0743
  580MOL0     H78270   3.650   5.776   1.773  1.3660  1.0934  0.9742
  580MOL0     H78271   3.634   5.788   1.940  0.6222 -1.1578 -0.5140
  580MOL0     H78272   3.493   5.986   1.948  1.2435 -1.0796  1.5193
  580MOL0     H78273   3.459   5.985   1.777 -0.4014 -0.5512 -0.8452
  580MOL0     H78274   3.741   6.015   1.919  1.4266  0.7882 -1.4286
  580MOL0     H78275   3.717   5.994   1.743  1.1016 -0.6926 -0.5007
  580MOL0     H78276   3.632   6.218   1.913  2.6116 -1.9226  1.0241
  580MOL0     H78277   3.574   6.201   1.746 -0.5989 -0.1061  0.6650
  580MOL0     H78278   3.850   6.257   1.849 -2.1424  0.4068  0.5439
  580MOL0     H78279   3.854   6.157   1.719 -0.7704 -1.3773  1.5625
  580MOL0     H78280   3.085   5.414   2.225  0.8596  1.1776 -0.8608
  580MOL0     H78281   2.847   5.330   2.218  1.9360 -0.9393  0.2572
  580MOL0     H78282   2.427   5.342   1.934  3.0450  0.2058 -0.3880
  580MOL0     H78283   2.254   5.262   1.791  0.3435  0.3289  0.1050
  580MOL0     H78284   1.714   3.865   0.805 -0.1681  0.5074 -0.7250
  580MOL0     H78285   1.550   3.693   0.827 -0.8161 -0.6233 -0.1208
  580MOL0     H78286   1.136   3.543   1.041  1.6505  0.0660 -0.9546
  580MOL0     H78287   0.924   3.392   1.040 -0.6631 -0.3813 -1.1364
  580MOL0     H78288   0.718   3.379   0.833  4.1188  0.1896 -2.0542
  580MOL0     H78289   0.652   3.211   0.856 -0.2181  0.2065 -0.4228
  580MOL0     H78290   0.676   3.162   0.623  1.9644  0.0532 -3.1106
  580MOL0     H78291   0.781   3.297   0.590 -0.5066 -1.9390 -1.5761
  580MOL0     H78292   0.610   3.457   0.585  1.9643  0.0162  2.8334
  580MOL0     H78293   0.515   3.349   0.693  1.4206  5.1273  1.4339
  580MOL0     H78294   0.578   3.286   0.392 -0.3412 -1.0165 -1.0674
  580MOL0     H78295   0.456   3.209   0.491 -0.1716  1.1393  2.4175
  580MOL0     H78296   0.240   3.520   0.352 -1.8420 -2.4696  0.8595
  580MOL0     H78297   1.000   3.297   0.635  2.6944  0.2394 -0.6689
  580MOL0     H78298   1.125   3.394   0.499  3.4074 -2.2728  0.0176
  580MOL0     H78299   1.140   3.568   0.536 -1.4975 -0.4586  0.4810
  580MOL0     H78300   1.271   3.444   0.570 -0.0781 -1.4734  1.3720
  581MOL0     O78301   9.336   8.092  10.846  0.0908 -0.5324 -0.2899
  581MOL0     C78302   9.332   8.088  10.965  0.2433  0.8994 -0.2009
  581MOL0     O78303   9.401   8.159  11.054  0.1485 -0.9554 -0.4058
  581MOL0     C78304   9.503   8.246  11.018  0.0994 -0.7562 -0.4737
  581MOL0     C78305   9.485   8.385  11.037 -0.5914 -0.2751 -0.7440
  581MOL0     C78306   9.595   8.468  11.021  0.3344  0.0628  0.7056
  581MOL0     C78307   9.716   8.416  10.982  0.4518 -1.1410  0.0187
  581MOL0     O78308   9.827   8.496  10.948  0.0609 -0.0929 -0.8727
  581MOL0     C78309   9.832   8.632  10.995  0.5038 -1.0396 -0.7313
  581MOL0     C78310   9.960   8.711  10.960 -0.7703 -0.0030 -0.1289
  581MOL0     C78311  10.079   8.661  11.037  0.2694 -0.1457 -0.1461
  581MOL0     C78312  10.171   8.596  10.935 -0.4159  0.0083  0.0634
  581MOL0     C78313  10.285   8.517  10.998  0.0211 -0.0976 -0.8315
  581MOL0     C78314  10.399   8.601  11.040 -0.8007 -0.1653  0.4852
  581MOL0     C78315  10.510   8.487  11.081  0.2105 -0.0816 -0.3404
  581MOL0     C78316  10.631   8.539  11.168  0.2354 -0.6817  0.9660
  581MOL0     N78317  10.701   8.643  11.091 -0.5268 -0.3644  0.2004
  581MOL0     C78318  10.788   8.636  10.983 -0.3215  0.2209  0.3115
  581MOL0     C78319  10.827   8.759  10.946  0.3361  0.4717 -0.3112
  581MOL0     C78320  10.939   8.797  10.857  0.2216  0.5382  0.7812
  581MOL0     C78321  11.032   8.901  10.906 -0.2738  0.3771  0.7697
  581MOL0     C78322  11.143   8.939  10.805 -0.0810 -0.7838 -0.1240
  581MOL0     C78323  11.236   9.050  10.861  0.2676  0.6786  0.4384
  581MOL0     O78324  11.149   9.158  10.906 -0.1108  0.2300  0.0549
  581MOL0     C78325  11.205   9.273  10.957 -0.1687 -0.1116 -0.4652
  581MOL0     C78326  11.124   9.347  11.044 -0.1025  0.0793 -0.3864
  581MOL0     C78327  11.168   9.462  11.106  0.1945  0.6982 -0.6057
  581MOL0     C78328  11.302   9.502  11.088  0.1023 -0.6814 -0.3856
  581MOL0     C78329  11.343   9.639  11.142  0.1820 -0.0487 -0.0348
  581MOL0     O78330  11.470   9.678  11.132 -0.0994  0.7955 -0.7575
  581MOL0     C78331  11.500   9.808  11.171  0.1450  0.3680  0.9742
  581MOL0     C78332  11.428   9.925  11.125 -0.2219 -0.1247  0.2427
  581MOL0     C78333  11.470  10.049  11.158 -0.4759 -1.7666  0.1890
  581MOL0     C78334  11.581  10.076  11.231 -0.1931 -0.3680 -0.1598
  581MOL0     O78335  11.599  10.208  11.259 -0.4612 -0.0069 -0.0729
  581MOL0     C78336  11.731  10.248  11.297 -0.5325 -0.1472 -0.4654
  581MOL0     C78337  11.830  10.274  11.184 -0.5583 -0.3485 -0.9940
  581MOL0     C78338  11.976  10.298  11.234 -0.3161  0.8481  0.2266
  581MOL0     C78339  12.057  10.364  11.124 -0.4308 -0.0978  0.2572
  581MOL0     C78340  12.189  10.409  11.176  0.3391  0.0427 -0.3757
  581MOL0     C78341  12.296  10.306  11.200 -1.3873  0.3514  0.8565
  581MOL0     C78342  12.428  10.381  11.201 -0.3644  0.4096 -0.3461
  581MOL0     C78343  12.535  10.306  11.269 -0.4043  0.0387  0.2228
  581MOL0    Cl78344  12.688  10.384  11.247 -0.5678 -0.0507  0.0799
  581MOL0     C78345  11.659   9.966  11.267 -0.3628 -0.0634 -0.6223
  581MOL0     C78346  11.623   9.837  11.227  0.1195 -0.7188 -0.7374
  581MOL0     O78347  11.258   9.705  11.193 -0.1440  0.6769  0.3091
  581MOL0     C78348  11.383   9.425  11.014 -0.6942  0.4804 -0.0106
  581MOL0     C78349  11.332   9.313  10.943 -0.3594  0.3973  0.1592
  581MOL0     N78350  10.752   8.846  11.018  0.5897  0.2849 -0.4369
  581MOL0     N78351  10.682   8.776  11.105 -0.2037 -0.0621 -0.3148
  581MOL0     C78352   9.728   8.287  10.965 -0.2581  0.3606 -0.0656
  581MOL0     C78353   9.623   8.204  10.990  0.3719  0.5109  0.7000
  581MOL0     C78354   9.224   7.988  11.009 -0.4066  0.2773 -1.1195
  581MOL0     C78355   9.143   7.927  10.909 -0.1010 -0.3142  0.1961
  581MOL0     C78356   9.055   7.824  10.944 -0.2269 -0.6074 -0.2710
  581MOL0     C78357   9.046   7.778  11.080  0.1695 -0.3423  0.2434
  581MOL0     O78358   8.968   7.671  11.110  0.3995  0.1015  0.6331
  581MOL0     C78359   8.841   7.665  11.033  0.2327 -0.2772 -0.1738
  581MOL0     C78360   8.737   7.605  11.116  0.0789 -0.8016  0.0013
  581MOL0     C78361   8.615   7.567  11.036 -0.5819 -0.1785  0.4731
  581MOL0     C78362   8.491   7.521  11.109  0.3878  1.1044 -0.6817
  581MOL0     C78363   8.505   7.384  11.163 -0.3687 -0.1218 -0.3891
  581MOL0     C78364   8.523   7.272  11.202 -1.1116 -0.7444  0.1900
  581MOL0     C78365   9.117   7.840  11.174  0.0668  0.0247  0.4406
  581MOL0     C78366   9.204   7.949  11.151  0.5464 -0.2564  0.2980
  581MOL0     C78367   9.269   8.014  11.266 -0.4148  0.1348  0.0835
  581MOL0     H78368   9.386   8.416  11.070 -0.3045 -2.9856  3.3538
  581MOL0     H78369   9.578   8.573  11.044 -0.0141  0.0159  0.6536
  581MOL0     H78370   9.743   8.687  10.961  0.2293 -0.7792  0.3523
  581MOL0     H78371   9.822   8.633  11.104 -0.0385 -0.6518 -0.7772
  581MOL0     H78372   9.945   8.817  10.979  0.3549  0.4685 -1.7468
  581MOL0     H78373   9.979   8.698  10.853  3.3255  0.5648  0.3964
  581MOL0     H78374  10.062   8.584  11.113 -0.2970 -1.2878 -1.4016
  581MOL0     H78375  10.130   8.749  11.078 -1.0932  0.4136  0.4122
  581MOL0     H78376  10.117   8.529  10.868 -0.7896  2.4624 -2.2196
  581MOL0     H78377  10.217   8.669  10.868  0.9160 -0.7811  0.0680
  581MOL0     H78378  10.241   8.455  11.076  1.7260 -2.5438 -1.6857
  581MOL0     H78379  10.323   8.459  10.914  0.4357 -1.4575  0.2538
  581MOL0     H78380  10.431   8.660  10.954  0.4419 -2.2214 -0.5351
  581MOL0     H78381  10.380   8.678  11.116  1.8101  2.8907 -1.6356
  581MOL0     H78382  10.553   8.443  10.990 -0.6449  2.1639 -1.9102
  581MOL0     H78383  10.452   8.410  11.133 -2.0576  1.2347 -0.7976
  581MOL0     H78384  10.601   8.579  11.266 -2.9132 -1.5169  0.4565
  581MOL0     H78385  10.695   8.453  11.190  0.2315 -1.2466 -1.0243
  581MOL0     H78386  10.828   8.542  10.944 -1.8159 -0.5835  0.6593
  581MOL0     H78387  10.996   8.708  10.831  0.7211  0.5296  1.8240
  581MOL0     H78388  10.904   8.836  10.761  0.4699  0.2372  0.5661
  581MOL0     H78389  10.973   8.991  10.927  1.8571  2.6607 -2.1509
  581MOL0     H78390  11.085   8.873  10.998 -1.2379 -2.8737  0.4639
  581MOL0     H78391  11.095   8.969  10.711  0.3220 -0.8590 -0.3567
  581MOL0     H78392  11.210   8.855  10.786  2.5008  1.2074 -0.3190
  581MOL0     H78393  11.302   9.067  10.776 -2.1563 -0.6941 -1.8752
  581MOL0     H78394  11.290   9.007  10.946  1.9584  0.0098 -0.9088
  581MOL0     H78395  11.020   9.319  11.056 -0.3632  1.3889  0.5914
  581MOL0     H78396  11.098   9.527  11.158  1.8358  1.9247  0.1477
  581MOL0     H78397  11.343   9.903  11.061 -0.8623 -2.2600  1.7121
  581MOL0     H78398  11.419  10.136  11.117 -1.2463 -1.9948  0.6385
  581MOL0     H78399  11.735  10.345  11.348  0.7835 -0.1690 -0.5003
  581MOL0     H78400  11.779  10.176  11.364 -0.9639 -1.0831 -1.1451
  581MOL0     H78401  11.829  10.186  11.120 -1.7210  1.1846 -3.2169
  581MOL0     H78402  11.792  10.352  11.118 -4.3617 -2.2988 -1.3920
  581MOL0     H78403  11.974  10.356  11.326  2.7159  0.5972  0.5549
  581MOL0     H78404  12.014  10.198  11.258 -0.6069  1.2665  2.6923
  581MOL0     H78405  12.001  10.448  11.082 -0.6635 -0.0376  0.6832
  581MOL0     H78406  12.065  10.285  11.049  1.9212  1.3870 -1.1911
  581MOL0     H78407  12.174  10.461  11.272 -0.6588  0.7482 -0.8926
  581MOL0     H78408  12.230  10.485  11.109 -0.5316 -0.0794 -1.0741
  581MOL0     H78409  12.278  10.230  11.276  1.4618 -0.5445  0.7543
  581MOL0     H78410  12.305  10.249  11.107  0.4955  0.5885  0.8607
  581MOL0     H78411  12.419  10.484  11.235  1.9495  1.3176 -2.2591
  581MOL0     H78412  12.459  10.400  11.098 -0.6837  2.1402 -0.1423
  581MOL0     H78413  12.520  10.306  11.378 -1.2335 -1.0966  0.1294
  581MOL0     H78414  12.537  10.198  11.251  1.3212 -0.0640  0.8078
  581MOL0     H78415  11.744   9.972  11.334 -1.4773  2.1577  0.6846
  581MOL0     H78416  11.684   9.748  11.239 -2.4639 -2.8401 -2.3107
  581MOL0     H78417  11.484   9.463  11.008 -1.1608  1.8219  0.2549
  581MOL0     H78418  11.408   9.258  10.888 -0.0793 -1.6546  2.4318
  581MOL0     H78419   9.822   8.253  10.922 -1.3903 -1.9009 -0.9102
  581MOL0     H78420   9.639   8.097  10.979 -0.5515  0.5502 -1.3769
  581MOL0     H78421   9.149   7.958  10.805 -4.1723  1.4439  0.2610
  581MOL0     H78422   8.995   7.775  10.868 -2.0320  0.3528  0.4796
  581MOL0     H78423   8.870   7.600  10.950  3.1492 -0.1081  0.6091
  581MOL0     H78424   8.812   7.765  10.997 -0.2222 -0.1782  0.4546
  581MOL0     H78425   8.713   7.685  11.187 -0.8955 -0.3012 -0.8640
  581MOL0     H78426   8.775   7.513  11.162 -0.3430 -0.7885  0.3893
  581MOL0     H78427   8.640   7.497  10.955 -1.3053  1.7115 -1.5042
  581MOL0     H78428   8.583   7.658  10.986 -3.0926 -1.8987 -1.2757
  581MOL0     H78429   8.466   7.593  11.188 -1.0746  0.6909 -0.7426
  581MOL0     H78430   8.399   7.517  11.050 -0.8178 -0.5557  1.1819
  581MOL0     H78431   8.552   7.172  11.229  1.9046 -0.1256 -0.3096
  581MOL0     H78432   9.101   7.801  11.274  1.3762  1.2372  1.1679
  581MOL0     H78433   9.226   8.114  11.275 -1.5666 -0.0764 -2.2646
  581MOL0     H78434   9.240   7.962  11.358 -0.3425 -1.4973 -0.7810
  581MOL0     H78435   9.377   8.027  11.256  0.0396 -2.6968  0.5557
  582MOL0     O78436   5.118   4.108   5.068 -0.2701 -0.1063  0.0843
  582MOL0     C78437   5.065   4.010   5.008 -0.3779  0.2334 -0.5333
  582MOL0     O78438   5.136   3.915   4.947 -0.4920 -0.4680 -0.2470
  582MOL0     C78439   5.269   3.924   4.921  0.1130 -0.3393  0.0842
  582MOL0     C78440   5.336   4.044   4.879 -0.7075  0.3666  0.1026
  582MOL0     C78441   5.467   4.035   4.826 -0.5282 -0.1014  0.7648
  582MOL0     C78442   5.528   3.904   4.825  0.5282  0.2356  0.4574
  582MOL0     O78443   5.650   3.871   4.777 -0.3351  0.0898 -0.2555
  582MOL0     C78444   5.726   3.956   4.685  0.2089 -0.2164  0.2271
  582MOL0     C78445   5.848   4.035   4.749 -0.9807 -0.0935  0.2379
  582MOL0     C78446   5.871   4.164   4.666  0.2723 -0.6484 -0.4124
  582MOL0     C78447   5.971   4.260   4.738 -0.5830  0.4067  0.8937
  582MOL0     C78448   6.019   4.376   4.651 -0.2500 -0.0786 -0.4773
  582MOL0     C78449   6.085   4.497   4.722 -0.1209  0.3533  0.7740
  582MOL0     C78450   6.237   4.470   4.737 -0.5363 -0.4631 -0.1578
  582MOL0     C78451   6.304   4.592   4.788  0.7713  0.3748  0.4708
  582MOL0     N78452   6.451   4.587   4.769  0.4525  0.3364 -0.4888
  582MOL0     C78453   6.540   4.544   4.857 -0.5696  0.0814 -0.2284
  582MOL0     C78454   6.662   4.552   4.793 -0.0508 -0.3761 -0.1208
  582MOL0     C78455   6.799   4.500   4.839 -1.1019 -0.3755  0.3561
  582MOL0     C78456   6.892   4.501   4.723 -0.7213  0.0805 -0.3785
  582MOL0     C78457   7.036   4.464   4.771  0.5273 -0.0460 -0.3002
  582MOL0     C78458   7.143   4.476   4.667 -0.1713  0.2258 -0.7479
  582MOL0     O78459   7.273   4.445   4.724  0.1225  0.4739  0.3694
  582MOL0     C78460   7.380   4.498   4.655  0.5920  0.3814  0.0530
  582MOL0     C78461   7.401   4.633   4.654 -0.2654 -0.5208  0.4056
  582MOL0     C78462   7.522   4.682   4.586 -0.0226 -1.3516  0.5808
  582MOL0     C78463   7.616   4.586   4.522  0.6042  0.0737  0.6281
  582MOL0     C78464   7.750   4.619   4.463  0.2231 -1.5186  0.2234
  582MOL0     O78465   7.793   4.534   4.371  0.2221  0.5191 -0.1209
  582MOL0     C78466   7.929   4.531   4.322 -0.3649 -0.6069 -1.2231
  582MOL0     C78467   8.038   4.590   4.395 -0.0663 -0.2202  0.1033
  582MOL0     C78468   8.162   4.590   4.346  0.5729  0.9880  0.4032
  582MOL0     C78469   8.197   4.535   4.224 -0.2345 -0.8072 -0.3856
  582MOL0     O78470   8.329   4.523   4.187 -0.1314  0.1478  0.4500
  582MOL0     C78471   8.405   4.644   4.171  0.5580  0.3699  0.0834
  582MOL0     C78472   8.535   4.625   4.090 -0.7571 -0.1960 -0.8085
  582MOL0     C78473   8.513   4.554   3.954  0.3918  0.1131 -0.4101
  582MOL0     C78474   8.612   4.608   3.855  0.0436  0.7544  0.2559
  582MOL0     C78475   8.598   4.566   3.712 -0.0693  0.4350 -0.6525
  582MOL0     C78476   8.712   4.625   3.624  0.2344 -0.2844  0.0878
  582MOL0     C78477   8.860   4.609   3.664  0.5345  0.0179 -0.1399
  582MOL0     C78478   8.889   4.469   3.700 -0.3878 -0.2629 -0.2758
  582MOL0    Cl78479   9.068   4.450   3.709  0.0755  0.2428  0.3466
  582MOL0     C78480   8.093   4.467   4.152 -0.3231  0.7151  0.0737
  582MOL0     C78481   7.957   4.467   4.202 -0.5279 -0.7091 -0.0451
  582MOL0     O78482   7.809   4.722   4.508  0.9579  0.2786  0.4608
  582MOL0     C78483   7.595   4.448   4.540  1.0075  0.4466  0.1854
  582MOL0     C78484   7.479   4.410   4.608  0.0573 -0.6253 -0.3256
  582MOL0     N78485   6.637   4.611   4.667  0.6058  1.1941 -0.9592
  582MOL0     N78486   6.509   4.622   4.659 -0.0366  0.1059 -0.1907
  582MOL0     C78487   5.461   3.794   4.869 -0.4444  0.6864  0.2972
  582MOL0     C78488   5.335   3.801   4.917 -0.1269  0.4645 -0.2098
  582MOL0     C78489   4.918   3.985   5.004 -0.2402  0.3804 -0.3888
  582MOL0     C78490   4.855   3.871   4.953 -0.6731 -0.3437 -0.3167
  582MOL0     C78491   4.717   3.848   4.947 -0.7085  0.0113 -0.9612
  582MOL0     C78492   4.635   3.952   4.983  0.0668 -0.8564  0.9525
  582MOL0     O78493   4.505   3.936   4.951  0.1240  0.7337 -0.0598
  582MOL0     C78494   4.408   4.036   4.988  0.1251  0.1569 -0.4399
  582MOL0     C78495   4.292   4.023   4.895  0.5490  1.0137 -0.4325
  582MOL0     C78496   4.214   3.888   4.897  0.1907 -0.2979 -0.9074
  582MOL0     C78497   4.287   3.780   4.827  0.7948  0.3380  0.1809
  582MOL0     C78498   4.196   3.674   4.774 -0.2992  0.0842 -0.1748
  582MOL0     C78499   4.132   3.576   4.751  0.5631  0.0683 -1.0576
  582MOL0     C78500   4.693   4.068   5.032 -0.2132 -0.0434 -0.4418
  582MOL0     C78501   4.829   4.083   5.049 -0.1631 -0.1258  0.2081
  582MOL0     C78502   4.865   4.215   5.115 -0.0575  0.3902 -0.0281
  582MOL0     H78503   5.297   4.145   4.882  2.8179  1.8858  3.8631
  582MOL0     H78504   5.511   4.127   4.789 -0.3298  0.3901  2.1408
  582MOL0     H78505   5.761   3.889   4.606 -0.7946 -5.5154  3.7702
  582MOL0     H78506   5.655   4.021   4.633 -0.4977  0.0374  1.4623
  582MOL0     H78507   5.940   3.976   4.746 -0.2341  0.8745  2.3746
  582MOL0     H78508   5.812   4.048   4.852 -1.8471 -2.2007  0.2634
  582MOL0     H78509   5.774   4.211   4.650  0.1383 -0.6421  0.3736
  582MOL0     H78510   5.909   4.137   4.567  0.9833 -1.0153 -0.0523
  582MOL0     H78511   5.923   4.301   4.828 -0.5828 -1.2669  1.7021
  582MOL0     H78512   6.060   4.206   4.773 -0.7052 -2.2267 -2.3895
  582MOL0     H78513   6.095   4.331   4.587  1.7380  1.3561  0.7518
  582MOL0     H78514   5.934   4.409   4.591 -2.7121 -2.5035  1.4336
  582MOL0     H78515   6.073   4.584   4.658  1.5339 -0.2075 -0.3676
  582MOL0     H78516   6.020   4.521   4.806 -4.7804 -1.2850 -2.0128
  582MOL0     H78517   6.283   4.442   4.642 -1.6292 -0.2085 -0.7783
  582MOL0     H78518   6.254   4.386   4.805  1.3217 -0.0314 -0.0405
  582MOL0     H78519   6.268   4.677   4.729  2.0013  0.4786 -0.1641
  582MOL0     H78520   6.287   4.621   4.892  1.4925 -0.9011  0.9653
  582MOL0     H78521   6.507   4.493   4.947  1.9287 -1.5142 -0.1328
  582MOL0     H78522   6.838   4.562   4.920 -0.3880  1.0339 -1.0225
  582MOL0     H78523   6.767   4.402   4.877 -1.7139 -0.7482 -1.0659
  582MOL0     H78524   6.866   4.427   4.647  1.5046 -0.3615 -0.7947
  582MOL0     H78525   6.892   4.603   4.683 -0.2088  0.7559  1.2700
  582MOL0     H78526   7.023   4.357   4.792  0.1418  0.0184 -0.1954
  582MOL0     H78527   7.069   4.525   4.856  1.3113 -3.3291  1.9499
  582MOL0     H78528   7.134   4.576   4.624  2.9735  0.3296 -1.4498
  582MOL0     H78529   7.133   4.401   4.587  0.0814 -2.7383  1.7912
  582MOL0     H78530   7.336   4.715   4.682  1.3990  0.4754  1.5235
  582MOL0     H78531   7.540   4.788   4.572  1.4229 -1.4798  1.3689
  582MOL0     H78532   8.023   4.639   4.490  1.1242  0.6681 -0.1427
  582MOL0     H78533   8.236   4.630   4.414 -1.2580  2.7373  1.4645
  582MOL0     H78534   8.343   4.722   4.124 -3.9625 -1.4075  2.4174
  582MOL0     H78535   8.441   4.682   4.266  1.9526 -0.5192 -0.0553
  582MOL0     H78536   8.570   4.726   4.067  0.0949 -0.2462  0.1784
  582MOL0     H78537   8.600   4.567   4.156  0.1283  0.5447 -1.0199
  582MOL0     H78538   8.526   4.446   3.969  1.0715  0.0172 -1.5890
  582MOL0     H78539   8.411   4.570   3.919  1.1665 -0.2380 -3.0101
  582MOL0     H78540   8.710   4.581   3.895 -0.5887  1.3464  2.3621
  582MOL0     H78541   8.617   4.717   3.858  0.4043  0.8698 -2.3658
  582MOL0     H78542   8.503   4.604   3.673  0.3685  0.7242 -1.4564
  582MOL0     H78543   8.597   4.459   3.688  2.0061  0.3722 -0.6748
  582MOL0     H78544   8.700   4.575   3.527  2.3955 -1.9308  0.5811
  582MOL0     H78545   8.688   4.732   3.626 -0.3709 -0.4225  2.6461
  582MOL0     H78546   8.881   4.672   3.751 -5.8188  0.2369  1.7443
  582MOL0     H78547   8.923   4.626   3.576  0.5217  4.0056  0.4147
  582MOL0     H78548   8.848   4.448   3.799  1.3463  0.3063  0.5901
  582MOL0     H78549   8.848   4.398   3.627  0.6544 -2.4581  1.1721
  582MOL0     H78550   8.115   4.413   4.061  0.3924 -0.4916  0.9341
  582MOL0     H78551   7.879   4.420   4.143  0.6710  1.7228 -3.8867
  582MOL0     H78552   7.664   4.369   4.512  2.2906  1.7117 -0.3346
  582MOL0     H78553   7.469   4.306   4.638 -0.8869  0.3353  3.1893
  582MOL0     H78554   5.507   3.697   4.856  1.4619  1.7030 -0.9923
  582MOL0     H78555   5.279   3.711   4.941  0.5611  0.1634  0.2893
  582MOL0     H78556   4.906   3.780   4.922 -1.2190 -1.1834  1.1344
  582MOL0     H78557   4.676   3.754   4.913 -1.2548 -0.5108  1.0169
  582MOL0     H78558   4.448   4.136   4.971 -2.1560  1.4545  1.1540
  582MOL0     H78559   4.381   4.024   5.094 -0.9294  0.7320 -0.6261
  582MOL0     H78560   4.315   4.044   4.791 -1.0755 -0.0415 -1.0576
  582MOL0     H78561   4.224   4.092   4.947  1.0364 -0.0928  1.8380
  582MOL0     H78562   4.119   3.902   4.844 -2.1616  2.2353  3.3821
  582MOL0     H78563   4.190   3.854   4.998  0.6636  3.4686  0.6385
  582MOL0     H78564   4.345   3.823   4.745 -3.5595  1.0971 -2.8671
  582MOL0     H78565   4.357   3.736   4.898  0.7203 -5.1503 -2.5909
  582MOL0     H78566   4.088   3.481   4.729 -0.9673 -0.4737  3.3626
  582MOL0     H78567   4.627   4.149   5.060 -1.1945 -0.2741 -1.9855
  582MOL0     H78568   4.927   4.199   5.204  0.6159 -0.2306 -0.5954
  582MOL0     H78569   4.928   4.274   5.048  0.1533 -1.0816 -1.1750
  582MOL0     H78570   4.776   4.271   5.143 -1.5307 -1.8269 -0.0142
  583MOL0     O78571   6.365   8.007   4.207  0.7034 -0.2489 -0.0822
  583MOL0     C78572   6.348   8.013   4.327  0.6378 -0.8906  0.0321
  583MOL0     O78573   6.440   7.977   4.426  0.5281 -0.4242  1.0494
  583MOL0     C78574   6.555   7.912   4.381  0.0051 -0.1744  0.2385
  583MOL0     C78575   6.567   7.770   4.377  0.1077 -0.1602 -0.2051
  583MOL0     C78576   6.689   7.718   4.338 -0.5992 -0.8292 -0.1108
  583MOL0     C78577   6.800   7.798   4.311 -0.0125  0.9919  1.1338
  583MOL0     O78578   6.923   7.751   4.285  0.0181 -0.0174  0.0543
  583MOL0     C78579   6.938   7.723   4.145  0.0417 -0.1515  0.3361
  583MOL0     C78580   7.079   7.670   4.117  0.4655  0.2419 -0.0562
  583MOL0     C78581   7.186   7.777   4.130 -0.3366  0.3063 -0.5445
  583MOL0     C78582   7.298   7.726   4.216  0.9322  0.0743  0.3527
  583MOL0     C78583   7.413   7.828   4.254  0.1761  0.1624  0.2846
  583MOL0     C78584   7.404   7.875   4.398 -0.7731 -0.6723 -0.4142
  583MOL0     C78585   7.395   7.765   4.506  0.3128 -0.4744  0.4600
  583MOL0     C78586   7.519   7.678   4.498  0.3813  0.8610 -0.6436
  583MOL0     N78587   7.542   7.592   4.613 -0.4241 -0.0187 -0.1834
  583MOL0     C78588   7.446   7.506   4.675  0.2541 -0.4988  0.0328
  583MOL0     C78589   7.517   7.461   4.783  0.6308 -0.6844 -0.7136
  583MOL0     C78590   7.447   7.359   4.877 -0.4373 -0.4515  0.3829
  583MOL0     C78591   7.539   7.239   4.899  0.1108 -0.2201  0.5560
  583MOL0     C78592   7.602   7.158   4.782 -0.0395 -0.7619 -0.4694
  583MOL0     C78593   7.699   7.045   4.847 -0.3643  0.3495  0.7516
  583MOL0     O78594   7.810   7.105   4.930  0.1605  1.1062 -0.3193
  583MOL0     C78595   7.935   7.119   4.885 -0.2722 -0.3124 -0.3336
  583MOL0     C78596   8.010   7.038   4.789  0.1867  0.5050 -0.6536
  583MOL0     C78597   8.145   7.052   4.768  0.7438 -0.8881  0.4355
  583MOL0     C78598   8.220   7.147   4.837 -0.6729 -1.0154 -0.5369
  583MOL0     C78599   8.362   7.156   4.809 -0.9281 -0.5087  0.5156
  583MOL0     O78600   8.428   7.250   4.881  0.0382 -0.7708  0.0848
  583MOL0     C78601   8.570   7.254   4.883  0.3713 -0.5269  0.4478
  583MOL0     C78602   8.626   7.372   4.903  0.0279 -0.5435 -0.4439
  583MOL0     C78603   8.764   7.382   4.934 -0.1187 -0.0200 -0.0444
  583MOL0     C78604   8.836   7.265   4.960 -0.3482 -1.3531 -0.2027
  583MOL0     O78605   8.968   7.257   5.004  0.5492 -0.0826  0.4398
  583MOL0     C78606   9.053   7.377   5.002 -0.0420  0.3536 -0.4417
  583MOL0     C78607   9.196   7.338   5.018 -0.6758  0.3238 -0.2012
  583MOL0     C78608   9.263   7.267   4.902  0.1642 -0.9042 -1.0293
  583MOL0     C78609   9.405   7.244   4.932 -0.4535  0.5429  0.1823
  583MOL0     C78610   9.473   7.124   4.866  0.2009  0.0561  0.2188
  583MOL0     C78611   9.505   7.152   4.714 -0.2140  0.5548 -1.2148
  583MOL0     C78612   9.603   7.045   4.660 -0.4570 -0.5881 -0.1909
  583MOL0     C78613   9.670   7.069   4.525  0.4072 -0.4467 -0.5377
  583MOL0    Cl78614   9.851   7.062   4.535  0.0342  0.3067  0.4827
  583MOL0     C78615   8.779   7.144   4.923  0.5189  0.0655  0.1461
  583MOL0     C78616   8.645   7.138   4.889 -0.3560  0.8395 -0.1914
  583MOL0     O78617   8.408   7.071   4.733 -0.2174 -0.3563 -0.3720
  583MOL0     C78618   8.158   7.220   4.933 -0.6808 -0.1020 -0.0109
  583MOL0     C78619   8.018   7.204   4.958 -0.5295  0.7920 -0.4663
  583MOL0     N78620   7.646   7.503   4.785 -0.7961 -0.7591  0.3359
  583MOL0     N78621   7.661   7.587   4.687  0.0401  0.4498 -0.6871
  583MOL0     C78622   6.781   7.940   4.298 -0.2991  0.7590  0.0872
  583MOL0     C78623   6.651   7.989   4.332 -0.8678 -0.4899 -0.1360
  583MOL0     C78624   6.224   8.069   4.386 -0.5081 -0.4904 -0.2530
  583MOL0     C78625   6.225   8.160   4.497 -0.4544 -0.1401 -0.5277
  583MOL0     C78626   6.108   8.223   4.541 -0.0970  0.0779 -0.3256
  583MOL0     C78627   5.987   8.180   4.498  0.6556  0.1702  0.8580
  583MOL0     O78628   5.869   8.236   4.543 -0.0411  0.2261  0.0735
  583MOL0     C78629   5.864   8.327   4.646  0.1750 -0.4309  0.2553
  583MOL0     C78630   5.714   8.356   4.643 -0.1318  0.1143 -0.0504
  583MOL0     C78631   5.695   8.463   4.756 -0.5367  0.6410  0.5459
  583MOL0     C78632   5.553   8.513   4.740  1.0126  0.1747  0.4453
  583MOL0     C78633   5.467   8.410   4.777 -0.2944  0.4154 -0.3889
  583MOL0     C78634   5.401   8.315   4.805  0.4263  0.2526 -0.0037
  583MOL0     C78635   5.978   8.084   4.397 -0.6898 -0.1344  0.2049
  583MOL0     C78636   6.091   8.037   4.331 -0.4864  0.3581 -0.6061
  583MOL0     C78637   6.083   7.938   4.219 -0.1768 -0.6295  0.2178
  583MOL0     H78638   6.491   7.702   4.414 -0.3161 -0.3815 -1.4519
  583MOL0     H78639   6.701   7.610   4.333 -0.2837 -0.7765 -0.6860
  583MOL0     H78640   6.862   7.652   4.111 -2.1756  2.0087  0.5441
  583MOL0     H78641   6.931   7.818   4.092 -2.5280 -1.6172 -2.2702
  583MOL0     H78642   7.076   7.623   4.019  1.0693 -2.5670  1.1612
  583MOL0     H78643   7.111   7.594   4.189  2.1224 -0.7435 -1.7476
  583MOL0     H78644   7.148   7.874   4.163  1.4435  1.0037 -0.4265
  583MOL0     H78645   7.232   7.789   4.031  0.2323 -0.0381 -0.3262
  583MOL0     H78646   7.251   7.689   4.308 -0.2990  0.4865 -0.0944
  583MOL0     H78647   7.339   7.639   4.164  0.4472 -0.0020  0.0898
  583MOL0     H78648   7.505   7.771   4.240 -0.1951  0.0771 -2.6224
  583MOL0     H78649   7.405   7.911   4.184 -0.9115 -0.0107  0.1823
  583MOL0     H78650   7.488   7.943   4.413 -0.7167 -0.9884  0.7541
  583MOL0     H78651   7.312   7.935   4.399  0.5113  1.3837 -0.6627
  583MOL0     H78652   7.306   7.701   4.505 -0.5348  0.6657 -0.9699
  583MOL0     H78653   7.407   7.814   4.604  0.4414 -0.7443  0.5801
  583MOL0     H78654   7.503   7.614   4.411 -1.4097  1.6093 -0.9106
  583MOL0     H78655   7.611   7.737   4.490 -0.3798  1.8566 -3.1073
  583MOL0     H78656   7.348   7.475   4.641  0.3411 -1.8917  0.9699
  583MOL0     H78657   7.418   7.413   4.968 -1.0723  2.0462 -1.2070
  583MOL0     H78658   7.353   7.317   4.841  0.9210 -2.0771 -1.5380
  583MOL0     H78659   7.626   7.278   4.954 -0.5830  2.5118 -0.1033
  583MOL0     H78660   7.491   7.173   4.971 -2.2811  0.6651 -0.1318
  583MOL0     H78661   7.657   7.216   4.708 -0.2948 -0.9869 -0.8391
  583MOL0     H78662   7.523   7.106   4.726 -0.6495 -0.1863 -0.1539
  583MOL0     H78663   7.738   6.979   4.769  1.2903  0.7001  1.2529
  583MOL0     H78664   7.638   6.979   4.909  1.4914 -0.8283  1.3717
  583MOL0     H78665   7.955   6.966   4.729 -0.2419  0.5671 -0.3419
  583MOL0     H78666   8.187   6.985   4.694  0.5166 -0.8173  0.2415
  583MOL0     H78667   8.565   7.459   4.926 -1.7148 -2.2666  1.9657
  583MOL0     H78668   8.797   7.477   4.977  2.1971 -0.2261 -1.2457
  583MOL0     H78669   9.026   7.430   4.910 -0.0722  0.0850 -0.5904
  583MOL0     H78670   9.029   7.445   5.084  1.6464  1.6498 -0.9664
  583MOL0     H78671   9.260   7.423   5.042  1.2511 -2.1499  4.6711
  583MOL0     H78672   9.201   7.272   5.105 -1.4977  1.3489  0.6514
  583MOL0     H78673   9.209   7.173   4.885 -0.5959 -0.4942 -0.8806
  583MOL0     H78674   9.259   7.320   4.806 -0.9131 -0.2613 -0.6318
  583MOL0     H78675   9.424   7.238   5.040  0.6538 -2.7142 -0.0790
  583MOL0     H78676   9.447   7.339   4.898  0.9928  0.6221  2.0106
  583MOL0     H78677   9.407   7.037   4.871 -2.1246  1.7649  1.3210
  583MOL0     H78678   9.564   7.099   4.920  0.0115  1.8022  1.4259
  583MOL0     H78679   9.415   7.170   4.655 -0.2997  5.6460 -0.0539
  583MOL0     H78680   9.555   7.249   4.707 -2.2261  1.6152 -1.7276
  583MOL0     H78681   9.558   6.946   4.647 -1.4388  0.1036 -2.6198
  583MOL0     H78682   9.680   7.048   4.737 -1.2103  0.4710  0.5529
  583MOL0     H78683   9.624   7.000   4.453 -0.8323 -0.2734  0.0615
  583MOL0     H78684   9.648   7.167   4.480 -1.1811 -0.2030  0.6582
  583MOL0     H78685   8.835   7.052   4.930 -0.2070 -0.3349  0.7284
  583MOL0     H78686   8.599   7.040   4.881  1.2191  0.1224 -0.7122
  583MOL0     H78687   8.204   7.301   4.989  0.5976 -0.1854 -0.9013
  583MOL0     H78688   7.959   7.272   5.019 -4.1579  0.1147 -2.8814
  583MOL0     H78689   6.861   8.009   4.274 -1.1276  1.1147 -1.8208
  583MOL0     H78690   6.633   8.095   4.318  2.7966  0.3556  0.3373
  583MOL0     H78691   6.322   8.180   4.541 -0.4880  0.0859 -0.5551
  583MOL0     H78692   6.114   8.291   4.625 -0.7301  1.8455 -1.6600
  583MOL0     H78693   5.921   8.419   4.627  1.7418 -0.8698  2.4824
  583MOL0     H78694   5.897   8.275   4.736 -2.1971 -1.2445  0.7302
  583MOL0     H78695   5.665   8.260   4.660  1.4170 -0.6329  0.3914
  583MOL0     H78696   5.679   8.391   4.546  1.4490 -0.4516 -0.8593
  583MOL0     H78697   5.757   8.547   4.724 -1.2837  1.2371  0.6215
  583MOL0     H78698   5.725   8.438   4.858 -2.0553 -1.4302  0.5409
  583MOL0     H78699   5.536   8.595   4.811 -1.3519  1.0972 -1.0472
  583MOL0     H78700   5.537   8.552   4.639  0.7625 -3.7086 -1.1713
  583MOL0     H78701   5.337   8.236   4.836  1.2908  0.2752  1.9873
  583MOL0     H78702   5.877   8.048   4.383 -0.6751  0.7958 -3.2413
  583MOL0     H78703   5.987   7.886   4.214  0.6922 -2.3355  0.2313
  583MOL0     H78704   6.101   7.997   4.129 -0.3310  0.7357  1.0629
  583MOL0     H78705   6.158   7.862   4.243  1.4849  0.8473 -0.1311
  584MOL0     O78706   6.268   2.626   2.724 -0.6092 -0.7106 -0.2891
  584MOL0     C78707   6.219   2.513   2.735  0.0190  0.5093  0.1514
  584MOL0     O78708   6.281   2.405   2.799  0.5370 -0.3989 -0.2931
  584MOL0     C78709   6.414   2.405   2.823 -0.2105  0.2298 -0.2430
  584MOL0     C78710   6.465   2.369   2.942 -0.0347  0.1029  0.2133
  584MOL0     C78711   6.599   2.336   2.961 -0.7400 -0.5601 -0.5920
  584MOL0     C78712   6.693   2.336   2.857 -0.2608 -0.0784 -0.2580
  584MOL0     O78713   6.830   2.304   2.865  0.0005  0.3793 -0.0854
  584MOL0     C78714   6.886   2.282   2.992 -0.0613 -0.5503 -0.8504
  584MOL0     C78715   6.937   2.138   2.989 -0.4854 -0.1872  0.4751
  584MOL0     C78716   7.040   2.114   3.102  0.0556 -0.0133 -0.7118
  584MOL0     C78717   7.075   1.967   3.094 -0.3400  0.0382 -0.3273
  584MOL0     C78718   7.129   1.934   3.241 -0.9402 -0.4721  0.1413
  584MOL0     C78719   7.166   1.790   3.257 -0.1230  0.2762  0.1022
  584MOL0     C78720   7.305   1.758   3.192 -0.6125 -0.3438 -0.2315
  584MOL0     C78721   7.340   1.608   3.214 -1.0073 -0.5201  0.6619
  584MOL0     N78722   7.481   1.576   3.180  0.1658 -0.0905 -0.9122
  584MOL0     C78723   7.542   1.604   3.067 -0.0770  0.4420  0.6183
  584MOL0     C78724   7.658   1.540   3.082 -0.3138 -0.0317 -0.5400
  584MOL0     C78725   7.779   1.572   2.994 -0.1161  0.2443 -0.8541
  584MOL0     C78726   7.830   1.436   2.943 -0.2780  0.0605  0.1553
  584MOL0     C78727   7.947   1.445   2.845 -0.5345 -0.1531 -0.3416
  584MOL0     C78728   8.079   1.505   2.897 -0.5258  0.3556 -0.1087
  584MOL0     O78729   8.118   1.452   3.029 -0.1424 -0.3661  0.0851
  584MOL0     C78730   8.227   1.503   3.097  1.0077  0.7747 -0.3212
  584MOL0     C78731   8.259   1.458   3.224 -0.1605  0.5768 -0.7124
  584MOL0     C78732   8.367   1.512   3.298  0.2881 -0.2452 -0.0096
  584MOL0     C78733   8.447   1.614   3.248  1.1178  0.4361 -0.1693
  584MOL0     C78734   8.555   1.684   3.325  1.0065  0.2253 -0.3494
  584MOL0     O78735   8.635   1.773   3.259 -0.4273  0.0363  0.8595
  584MOL0     C78736   8.732   1.838   3.330 -0.2220 -0.3493 -0.7455
  584MOL0     C78737   8.703   1.924   3.435 -0.0887  0.7128  0.0698
  584MOL0     C78738   8.805   1.996   3.510  0.5977  0.3158  0.1017
  584MOL0     C78739   8.938   1.990   3.470 -0.2378  0.4265 -0.5845
  584MOL0     O78740   9.038   2.073   3.521 -0.0293  0.0497  0.0197
  584MOL0     C78741   9.025   2.126   3.654 -0.2730  0.0492  0.7702
  584MOL0     C78742   9.165   2.128   3.715 -0.2815  0.5801  0.0355
  584MOL0     C78743   9.162   2.173   3.861 -0.1378 -0.5031 -0.2564
  584MOL0     C78744   9.306   2.210   3.898  0.8017  0.2170 -0.6743
  584MOL0     C78745   9.309   2.239   4.048  0.3058  0.5943  0.5197
  584MOL0     C78746   9.447   2.274   4.101  0.4533 -0.6392 -0.3627
  584MOL0     C78747   9.446   2.284   4.254 -0.4562  0.4929 -0.3483
  584MOL0     C78748   9.431   2.435   4.311 -0.1631  0.6325 -1.5992
  584MOL0    Cl78749   9.445   2.424   4.497  0.0019  0.1189 -0.6852
  584MOL0     C78750   8.970   1.898   3.371 -0.1704  0.1205  1.0647
  584MOL0     C78751   8.868   1.822   3.301 -0.4204 -0.2368 -0.0280
  584MOL0     O78752   8.564   1.655   3.441 -0.1696 -0.5699 -1.0389
  584MOL0     C78753   8.428   1.655   3.113  0.3953  0.7326 -0.2685
  584MOL0     C78754   8.314   1.599   3.046 -0.6728  1.6223 -0.1526
  584MOL0     N78755   7.659   1.472   3.204  0.4306 -0.1963  0.0357
  584MOL0     N78756   7.554   1.506   3.265 -0.4286 -0.0383 -0.0447
  584MOL0     C78757   6.640   2.374   2.737 -0.2254 -0.9118  1.1302
  584MOL0     C78758   6.503   2.402   2.716 -0.6783  0.0347  0.4664
  584MOL0     C78759   6.082   2.508   2.691 -0.0840  0.4820  0.4677
  584MOL0     C78760   6.012   2.625   2.692  0.6061  0.4155 -1.0614
  584MOL0     C78761   5.869   2.630   2.672 -0.1208 -0.1491  0.5319
  584MOL0     C78762   5.800   2.517   2.648 -0.4359  0.6331  0.6779
  584MOL0     O78763   5.669   2.529   2.605 -0.7689  0.0843  0.2795
  584MOL0     C78764   5.583   2.417   2.582  0.4411  0.4506  0.6188
  584MOL0     C78765   5.442   2.466   2.557  1.0030 -0.1587  1.5485
  584MOL0     C78766   5.437   2.558   2.428 -0.4046 -0.1082 -0.7400
  584MOL0     C78767   5.304   2.615   2.384  0.2462 -0.3541 -0.3439
  584MOL0     C78768   5.204   2.511   2.344  0.6570  0.0209  0.1879
  584MOL0     C78769   5.127   2.426   2.307  0.0790  0.0431 -0.3005
  584MOL0     C78770   5.864   2.397   2.649 -1.3093 -1.1402  0.6827
  584MOL0     C78771   6.009   2.389   2.667  0.4433 -0.0488  1.0766
  584MOL0     C78772   6.072   2.249   2.668  0.1260 -0.4330 -0.1741
  584MOL0     H78773   6.401   2.366   3.030  0.6175  0.4930  0.7177
  584MOL0     H78774   6.614   2.291   3.059 -0.6366 -0.6931 -0.6688
  584MOL0     H78775   6.968   2.354   3.004  0.2887 -1.0464 -0.1174
  584MOL0     H78776   6.826   2.300   3.082  1.2325  3.5240 -0.5939
  584MOL0     H78777   6.997   2.124   2.899  0.7095 -0.1415  1.2390
  584MOL0     H78778   6.850   2.071   2.992 -0.6970  0.1139  1.8442
  584MOL0     H78779   6.983   2.142   3.192 -0.9897  2.4285 -2.0397
  584MOL0     H78780   7.128   2.178   3.085  1.9994 -2.3711 -0.0209
  584MOL0     H78781   6.979   1.917   3.076 -0.1445 -0.6050  0.3829
  584MOL0     H78782   7.152   1.948   3.019 -0.8755  3.1191 -1.8513
  584MOL0     H78783   7.207   2.000   3.280  0.9963 -2.5763  0.0665
  584MOL0     H78784   7.053   1.959   3.315 -1.3153  0.4787 -0.5411
  584MOL0     H78785   7.169   1.758   3.361  1.6675 -2.9836 -0.8162
  584MOL0     H78786   7.085   1.728   3.216 -0.1974  1.4316 -1.6127
  584MOL0     H78787   7.381   1.816   3.245 -0.3370 -1.8372  1.0536
  584MOL0     H78788   7.313   1.783   3.086  0.6533 -0.6629 -0.2263
  584MOL0     H78789   7.316   1.575   3.315  0.2631  0.5413  1.3279
  584MOL0     H78790   7.274   1.551   3.147  2.8489 -3.6638 -0.8442
  584MOL0     H78791   7.501   1.660   2.984 -2.0114  1.9694  2.4915
  584MOL0     H78792   7.748   1.639   2.913  0.5104 -0.6968 -1.9099
  584MOL0     H78793   7.857   1.622   3.051  0.0973 -1.5304  0.4981
  584MOL0     H78794   7.855   1.368   3.025  0.3130 -1.5492 -1.2944
  584MOL0     H78795   7.753   1.395   2.877 -0.4205 -0.8341  0.8743
  584MOL0     H78796   7.899   1.513   2.773 -2.2695 -0.4451  0.4960
  584MOL0     H78797   7.959   1.340   2.817  0.2902 -1.3422  3.8997
  584MOL0     H78798   8.074   1.615   2.895 -2.3480  0.2997 -1.4734
  584MOL0     H78799   8.159   1.491   2.824 -1.5272  0.6770 -1.3022
  584MOL0     H78800   8.205   1.375   3.268 -0.1236  1.8663  1.9676
  584MOL0     H78801   8.380   1.464   3.394 -0.8264 -2.6911 -0.9938
  584MOL0     H78802   8.601   1.943   3.466  0.5326  0.5006  2.4427
  584MOL0     H78803   8.778   2.064   3.590  2.4772 -0.1065  1.1533
  584MOL0     H78804   8.981   2.226   3.657 -0.9996 -0.2151 -0.4056
  584MOL0     H78805   8.949   2.062   3.701 -1.5058  1.6252  0.9904
  584MOL0     H78806   9.211   2.029   3.709 -0.5563  0.4585 -0.0710
  584MOL0     H78807   9.236   2.189   3.658 -0.5689  1.5017  0.6403
  584MOL0     H78808   9.098   2.262   3.861 -0.7572 -0.9053  1.2411
  584MOL0     H78809   9.121   2.103   3.935  2.0834 -2.0052 -0.3594
  584MOL0     H78810   9.335   2.292   3.832 -2.3197  0.7835 -1.5193
  584MOL0     H78811   9.370   2.126   3.869  1.1418  0.5559 -0.8998
  584MOL0     H78812   9.269   2.161   4.114  1.4217  2.0390  3.0715
  584MOL0     H78813   9.241   2.323   4.062  0.7660  1.0230  0.2011
  584MOL0     H78814   9.508   2.187   4.076  1.0294 -0.9392  1.8779
  584MOL0     H78815   9.471   2.367   4.047  2.0309 -1.1036 -0.5231
  584MOL0     H78816   9.543   2.244   4.282 -0.8538  0.1642  0.6055
  584MOL0     H78817   9.373   2.216   4.300 -0.4282  1.1767  0.7486
  584MOL0     H78818   9.505   2.497   4.259 -0.2404  1.7214 -0.4624
  584MOL0     H78819   9.334   2.474   4.281 -1.0715  0.3899  0.8017
  584MOL0     H78820   9.071   1.891   3.331 -1.1378 -4.5240 -1.3257
  584MOL0     H78821   8.887   1.763   3.212  0.9017 -1.2611  0.8892
  584MOL0     H78822   8.494   1.723   3.060  0.5974  0.7038 -0.0512
  584MOL0     H78823   8.313   1.644   2.947  0.5647 -2.1179 -2.0542
  584MOL0     H78824   6.710   2.378   2.654  0.0625 -2.3175  1.2731
  584MOL0     H78825   6.461   2.407   2.616 -1.0697 -1.9168  0.4728
  584MOL0     H78826   6.054   2.720   2.724  0.8641  0.5364 -1.7527
  584MOL0     H78827   5.825   2.728   2.683  0.2752 -0.1373  2.3550
  584MOL0     H78828   5.584   2.361   2.676 -1.0421  0.7096  0.8066
  584MOL0     H78829   5.616   2.360   2.494  0.7229  0.7468  0.5307
  584MOL0     H78830   5.406   2.516   2.647  1.4907  0.8828  1.1774
  584MOL0     H78831   5.386   2.373   2.542  1.8542 -0.3197 -1.1853
  584MOL0     H78832   5.470   2.495   2.345  0.5332  1.3697 -1.5481
  584MOL0     H78833   5.501   2.646   2.439 -3.5176  2.5076 -1.7669
  584MOL0     H78834   5.269   2.670   2.472 -1.4906  0.3335 -1.4270
  584MOL0     H78835   5.323   2.681   2.299  2.3175 -1.3775 -0.7243
  584MOL0     H78836   5.060   2.351   2.271 -0.2182 -0.1884  0.7163
  584MOL0     H78837   5.807   2.307   2.632 -1.8976 -0.6794  0.1905
  584MOL0     H78838   6.097   2.222   2.771  1.2136  1.1009 -0.0064
  584MOL0     H78839   6.005   2.172   2.630  0.3355 -1.1359  0.8323
  584MOL0     H78840   6.170   2.264   2.622 -0.5316 -1.1637 -1.8811
  585MOL0     O78841   1.698   5.714   9.413 -0.4771  0.7933  0.0414
  585MOL0     C78842   1.702   5.815   9.340  0.3052 -0.5760 -0.0137
  585MOL0     O78843   1.815   5.891   9.314  0.2880  0.1311  0.1017
  585MOL0     C78844   1.924   5.883   9.399  0.3839  0.0335 -0.6396
  585MOL0     C78845   1.906   5.888   9.538 -0.3627  1.0670  0.1451
  585MOL0     C78846   2.022   5.878   9.616  0.9591  0.3036  0.7747
  585MOL0     C78847   2.152   5.877   9.572 -0.1050 -0.2312 -0.4253
  585MOL0     O78848   2.264   5.861   9.650 -0.0008  0.3999 -0.1443
  585MOL0     C78849   2.239   5.818   9.783  1.1188 -0.4575 -0.3129
  585MOL0     C78850   2.364   5.785   9.864  0.0504 -0.7376  0.4181
  585MOL0     C78851   2.467   5.684   9.807 -0.3511 -0.0200 -0.0339
  585MOL0     C78852   2.419   5.538   9.835  0.4490  0.2556 -0.5374
  585MOL0     C78853   2.529   5.429   9.806  0.6365  0.0888 -0.3249
  585MOL0     C78854   2.579   5.447   9.662 -0.3791  0.4475  0.2466
  585MOL0     C78855   2.674   5.329   9.623 -0.1702  0.5099  0.2034
  585MOL0     C78856   2.806   5.333   9.700 -0.3020  0.1400  0.6245
  585MOL0     N78857   2.875   5.455   9.665  0.1787  0.1262 -0.0050
  585MOL0     C78858   2.918   5.493   9.540  0.3873 -0.3456  0.1073
  585MOL0     C78859   2.986   5.609   9.558 -0.1539  0.0797 -0.5813
  585MOL0     C78860   3.061   5.679   9.449  0.0282  0.3478 -0.1848
  585MOL0     C78861   3.190   5.743   9.503  0.5285 -0.2506  0.0547
  585MOL0     C78862   3.277   5.797   9.390  0.1472  0.2811  0.4317
  585MOL0     C78863   3.400   5.853   9.466  0.7135  0.0510 -0.0034
  585MOL0     O78864   3.495   5.753   9.504 -0.4550 -0.4366  0.2208
  585MOL0     C78865   3.611   5.780   9.569 -0.1075 -0.2909 -0.8457
  585MOL0     C78866   3.642   5.908   9.620 -0.2559  0.2876  0.3875
  585MOL0     C78867   3.760   5.940   9.677  0.1139 -0.1788 -0.7821
  585MOL0     C78868   3.857   5.839   9.699 -0.9783  0.6998 -0.1496
  585MOL0     C78869   3.980   5.881   9.762 -0.1434  0.0801  0.1971
  585MOL0     O78870   4.018   6.013   9.735 -0.2444  0.9207  0.5484
  585MOL0     C78871   4.146   6.042   9.765 -1.1377 -0.5335  0.7490
  585MOL0     C78872   4.249   6.013   9.675  0.4115 -1.0632  0.1786
  585MOL0     C78873   4.379   6.053   9.694  0.2932 -0.0797  0.0738
  585MOL0     C78874   4.422   6.126   9.810  0.3018 -0.0637  0.3686
  585MOL0     O78875   4.553   6.173   9.819 -0.0495 -0.4086 -0.4143
  585MOL0     C78876   4.583   6.290   9.906 -0.5635 -0.3586  0.0021
  585MOL0     C78877   4.718   6.338   9.848 -0.0420 -0.0459 -1.0066
  585MOL0     C78878   4.835   6.249   9.893  0.1196 -0.9999 -0.6422
  585MOL0     C78879   4.960   6.276   9.801  0.4845 -0.4284 -0.2803
  585MOL0     C78880   5.089   6.184   9.833 -0.2398 -0.4045  0.3080
  585MOL0     C78881   5.184   6.181   9.713  0.4842 -0.1222  1.2319
  585MOL0     C78882   5.292   6.070   9.716 -0.2451  0.4391 -0.8016
  585MOL0     C78883   5.431   6.128   9.667  0.2775 -0.1461  0.6531
  585MOL0    Cl78884   5.418   6.184   9.504  0.4957  0.3528 -0.0492
  585MOL0     C78885   4.323   6.150   9.905 -0.2430 -0.5180  0.3955
  585MOL0     C78886   4.191   6.113   9.881  0.6050 -0.2875  0.6048
  585MOL0     O78887   4.045   5.803   9.824 -0.3072  0.7899 -0.5673
  585MOL0     C78888   3.827   5.712   9.656 -0.5811 -0.2068  0.4602
  585MOL0     C78889   3.706   5.677   9.589  0.3713 -0.1410 -0.4990
  585MOL0     N78890   2.987   5.637   9.692  0.2667 -0.4467 -0.4179
  585MOL0     N78891   2.910   5.553   9.755 -0.9840 -0.6910 -0.1632
  585MOL0     C78892   2.165   5.878   9.432 -0.2293 -0.0887 -0.4163
  585MOL0     C78893   2.056   5.874   9.339 -0.1933 -0.5219 -0.1612
  585MOL0     C78894   1.576   5.871   9.280  0.1680  0.5868 -1.1672
  585MOL0     C78895   1.568   6.004   9.242 -0.8230  0.6190  0.7503
  585MOL0     C78896   1.445   6.050   9.192 -0.8478 -1.1722  0.9454
  585MOL0     C78897   1.328   5.978   9.188  0.1614  0.1078  0.6852
  585MOL0     O78898   1.225   6.053   9.133 -0.0591 -0.0753 -0.1567
  585MOL0     C78899   1.095   5.993   9.129  0.0038 -0.9327  0.3425
  585MOL0     C78900   0.991   6.076   9.052  0.0780 -0.0897  0.5348
  585MOL0     C78901   0.849   6.006   9.058 -0.1516  0.4789  0.0440
  585MOL0     C78902   0.746   6.067   8.962  0.2330  0.9909 -0.3443
  585MOL0     C78903   0.717   6.204   9.009 -0.0567 -0.3599  0.2532
  585MOL0     C78904   0.687   6.314   9.041  0.2197 -0.4452 -0.4536
  585MOL0     C78905   1.337   5.845   9.227  1.0294 -0.1189 -0.1355
  585MOL0     C78906   1.459   5.787   9.271  0.8631  0.3845 -0.5624
  585MOL0     C78907   1.449   5.632   9.297 -0.2147  0.3512  0.5467
  585MOL0     H78908   1.809   5.900   9.585 -1.0699 -0.6788 -0.7738
  585MOL0     H78909   2.003   5.884   9.723 -2.9484  1.8450  0.1672
  585MOL0     H78910   2.177   5.890   9.836 -0.3513 -1.3368 -0.7599
  585MOL0     H78911   2.185   5.723   9.779  6.3158 -3.7994 -0.9163
  585MOL0     H78912   2.329   5.738   9.957  1.1473 -0.4182  0.9976
  585MOL0     H78913   2.413   5.880   9.885 -1.6240 -0.3174  2.9268
  585MOL0     H78914   2.572   5.696   9.837 -0.3006  1.6033 -0.7380
  585MOL0     H78915   2.479   5.712   9.702  0.5623 -0.8558 -0.1748
  585MOL0     H78916   2.399   5.529   9.942 -0.9042  0.6985 -0.7369
  585MOL0     H78917   2.329   5.520   9.776 -0.4277  0.0726  0.8128
  585MOL0     H78918   2.615   5.449   9.871  1.4315  1.3016 -1.6954
  585MOL0     H78919   2.502   5.325   9.829  0.0284  0.2091 -0.4822
  585MOL0     H78920   2.491   5.434   9.598 -0.3884 -1.1435  0.5299
  585MOL0     H78921   2.637   5.538   9.647  0.0579 -0.0622 -1.3520
  585MOL0     H78922   2.709   5.316   9.520  1.2269 -2.5054  0.9441
  585MOL0     H78923   2.619   5.241   9.656  2.9511 -0.1670  4.5332
  585MOL0     H78924   2.794   5.338   9.808 -1.7014 -2.5568  0.6597
  585MOL0     H78925   2.867   5.244   9.681 -1.4831 -1.0329  2.1111
  585MOL0     H78926   2.912   5.433   9.450 -1.3077 -0.0543 -0.0079
  585MOL0     H78927   3.094   5.603   9.377  1.6534  0.0342  0.8323
  585MOL0     H78928   2.991   5.755   9.413  0.4017  1.5254  1.4648
  585MOL0     H78929   3.162   5.820   9.575  0.3449  0.1262 -0.4113
  585MOL0     H78930   3.238   5.667   9.565 -0.7615 -0.4227  0.8838
  585MOL0     H78931   3.230   5.882   9.341  1.1229  0.0417 -0.9750
  585MOL0     H78932   3.307   5.709   9.331  3.0071  1.0302  0.6040
  585MOL0     H78933   3.369   5.915   9.550 -1.5229  0.7523 -1.2665
  585MOL0     H78934   3.448   5.931   9.405 -0.0238 -0.8808 -1.8656
  585MOL0     H78935   3.570   5.988   9.612  2.0019  2.4655  0.4789
  585MOL0     H78936   3.787   6.043   9.701 -1.6375  0.6200 -1.9759
  585MOL0     H78937   4.222   5.961   9.584 -1.7342  0.4239 -0.1108
  585MOL0     H78938   4.454   6.021   9.622 -1.0523 -2.4767 -0.3659
  585MOL0     H78939   4.510   6.371   9.901  1.4240  1.7382  2.2741
  585MOL0     H78940   4.584   6.267  10.013 -2.5492  2.7449  0.8361
  585MOL0     H78941   4.699   6.342   9.741  0.1088  1.2383 -0.9995
  585MOL0     H78942   4.743   6.439   9.882  1.4777  0.1944 -2.6927
  585MOL0     H78943   4.862   6.270   9.998  0.3560 -0.3928 -0.8188
  585MOL0     H78944   4.813   6.142   9.885  1.4636 -1.3405 -0.1681
  585MOL0     H78945   4.985   6.381   9.813 -0.7027  0.2667 -3.1126
  585MOL0     H78946   4.922   6.249   9.702 -0.1960 -0.1716 -0.0983
  585MOL0     H78947   5.061   6.086   9.871 -2.0789  0.8888  2.6140
  585MOL0     H78948   5.141   6.239   9.913 -0.4515 -2.2814  1.8002
  585MOL0     H78949   5.128   6.139   9.628  1.8111  0.7471 -0.1132
  585MOL0     H78950   5.216   6.282   9.686 -2.1426  0.0945 -1.6836
  585MOL0     H78951   5.262   5.984   9.656  1.2386  0.9101 -2.2868
  585MOL0     H78952   5.315   6.034   9.817 -0.2381 -0.1192 -0.9958
  585MOL0     H78953   5.466   6.214   9.726  0.2731 -0.0806  0.5596
  585MOL0     H78954   5.506   6.049   9.662  1.4369  0.9435 -4.4596
  585MOL0     H78955   4.349   6.199   9.998  1.6045 -1.5889  0.4806
  585MOL0     H78956   4.113   6.143   9.950 -0.6945  1.1317 -1.3729
  585MOL0     H78957   3.896   5.631   9.676  1.4677  1.4262  0.3161
  585MOL0     H78958   3.691   5.577   9.550  1.1845 -0.4618  0.0039
  585MOL0     H78959   2.267   5.867   9.394 -0.4645 -3.2080 -0.3693
  585MOL0     H78960   2.072   5.880   9.232 -1.1531  3.3563 -0.2297
  585MOL0     H78961   1.648   6.074   9.260  0.2763 -0.7054  1.2164
  585MOL0     H78962   1.459   6.146   9.143  0.8188 -1.6786  0.3758
  585MOL0     H78963   1.055   5.993   9.231  3.0166  1.8226  1.6909
  585MOL0     H78964   1.098   5.900   9.071 -1.0120 -1.1316  0.5890
  585MOL0     H78965   1.011   6.072   8.944 -0.9850 -0.3638  0.3356
  585MOL0     H78966   0.984   6.180   9.083  0.6534  1.2399 -3.2330
  585MOL0     H78967   0.816   6.011   9.163 -0.0114  1.9948  0.0299
  585MOL0     H78968   0.869   5.902   9.031 -1.0843 -0.4832  2.7174
  585MOL0     H78969   0.779   6.053   8.858 -1.7363  0.1575 -0.9013
  585MOL0     H78970   0.656   6.006   8.976  1.2057 -0.5209 -0.4272
  585MOL0     H78971   0.646   6.412   9.048 -0.5480 -0.4738 -3.2860
  585MOL0     H78972   1.242   5.792   9.230  0.8007 -0.3954 -4.6302
  585MOL0     H78973   1.438   5.616   9.405 -1.0829  3.3642  0.9858
  585MOL0     H78974   1.366   5.594   9.236 -0.0548 -0.2046  0.6704
  585MOL0     H78975   1.531   5.581   9.246 -1.2911 -0.3652 -0.5214
  586MOL0     O78976   6.504   8.078   0.718  0.2005  0.0386  0.1451
  586MOL0     C78977   6.418   7.993   0.720 -0.6712  0.0307  0.0610
  586MOL0     O78978   6.444   7.863   0.739 -0.2006 -0.5630  0.0268
  586MOL0     C78979   6.567   7.812   0.775 -0.7352  0.4386 -1.2251
  586MOL0     C78980   6.644   7.860   0.885 -0.6596 -0.3285 -0.1753
  586MOL0     C78981   6.768   7.809   0.922  0.1978  0.2716  0.5901
  586MOL0     C78982   6.817   7.695   0.863  0.3610 -0.2810  0.4110
  586MOL0     O78983   6.925   7.633   0.922  0.1902 -0.6693  0.1471
  586MOL0     C78984   6.944   7.497   0.890  0.2455  1.1019  0.3259
  586MOL0     C78985   7.041   7.443   0.988  0.5401 -0.0466  0.1651
  586MOL0     C78986   7.127   7.335   0.926 -0.5177 -0.7221 -0.6070
  586MOL0     C78987   7.233   7.283   1.024 -0.0347  0.0934  0.4505
  586MOL0     C78988   7.345   7.205   0.952 -0.1342  0.2018 -1.0686
  586MOL0     C78989   7.449   7.292   0.876 -0.7951 -0.7655  0.6771
  586MOL0     C78990   7.567   7.210   0.815  0.4383  0.8055 -0.1343
  586MOL0     C78991   7.626   7.249   0.680 -0.9346  0.0365 -0.0603
  586MOL0     N78992   7.682   7.381   0.674  0.1604  0.1381  0.3390
  586MOL0     C78993   7.621   7.502   0.692  0.8548  0.0799 -0.9799
  586MOL0     C78994   7.726   7.586   0.702 -0.0040 -0.1271 -0.7890
  586MOL0     C78995   7.706   7.731   0.717 -0.5336  0.5149  0.3660
  586MOL0     C78996   7.720   7.805   0.580  0.2044 -0.0969 -0.2480
  586MOL0     C78997   7.823   7.925   0.556  0.1496 -0.5050 -0.1236
  586MOL0     C78998   7.965   7.886   0.594 -0.3604 -0.0372 -0.7174
  586MOL0     O78999   8.058   7.993   0.559  0.1679  0.0299 -0.4355
  586MOL0     C79000   8.192   7.964   0.575 -0.5150  0.0579 -0.2761
  586MOL0     C79001   8.248   7.933   0.700 -0.6963  0.1646 -0.2469
  586MOL0     C79002   8.386   7.930   0.700 -0.4235  0.4861  0.3072
  586MOL0     C79003   8.465   7.934   0.586 -0.1303  0.7744  0.1980
  586MOL0     C79004   8.616   7.922   0.594  0.3294  0.7691  0.1839
  586MOL0     O79005   8.692   7.955   0.487 -0.0700  0.0829 -0.1224
  586MOL0     C79006   8.825   7.951   0.482 -0.4909  0.4258  0.3761
  586MOL0     C79007   8.898   8.052   0.410  0.0873 -0.7720  0.5177
  586MOL0     C79008   9.037   8.032   0.395 -0.2156  0.1154  0.7747
  586MOL0     C79009   9.107   7.917   0.438 -0.2026  0.4003 -0.6587
  586MOL0     O79010   9.237   7.896   0.417 -0.2596 -0.1332  0.0843
  586MOL0     C79011   9.314   7.835   0.523 -0.2723 -0.1612  0.1628
  586MOL0     C79012   9.392   7.949   0.594  0.3883  0.0743  0.1281
  586MOL0     C79013   9.302   8.066   0.639 -0.8790  0.6547 -0.2095
  586MOL0     C79014   9.384   8.158   0.722  0.2085  0.0195  0.2100
  586MOL0     C79015   9.301   8.265   0.798  0.8406 -0.6023  0.6418
  586MOL0     C79016   9.394   8.372   0.855 -0.1898  0.1306  0.1420
  586MOL0     C79017   9.309   8.479   0.915  0.3926 -1.0274  0.1979
  586MOL0     C79018   9.399   8.586   0.977 -1.0767 -0.6499 -0.1042
  586MOL0    Cl79019   9.459   8.700   0.847 -0.0862  0.4249  0.0850
  586MOL0     C79020   9.031   7.813   0.495  0.5283 -0.3891 -0.0255
  586MOL0     C79021   8.896   7.831   0.522  0.2829  0.9766  0.6248
  586MOL0     O79022   8.666   7.886   0.702 -0.0486  0.5007  0.0255
  586MOL0     C79023   8.410   7.966   0.467 -0.0976 -0.4165 -0.0220
  586MOL0     C79024   8.266   7.984   0.464  0.2008  0.0344  0.4744
  586MOL0     N79025   7.845   7.519   0.704 -0.3497 -0.2393  0.0927
  586MOL0     N79026   7.816   7.397   0.679  0.1907 -0.6995  0.6703
  586MOL0     C79027   6.742   7.645   0.758  0.3737  0.6397  0.0536
  586MOL0     C79028   6.624   7.698   0.723  0.2339  0.9498  0.2045
  586MOL0     C79029   6.276   8.033   0.689 -0.4066 -0.3674 -0.7316
  586MOL0     C79030   6.182   7.984   0.778 -0.1597 -0.0545  0.4199
  586MOL0     C79031   6.050   8.004   0.770 -0.5785 -0.0814  0.9438
  586MOL0     C79032   6.008   8.086   0.664  0.1120  0.4721  0.1315
  586MOL0     O79033   5.880   8.140   0.639 -0.0194 -0.3063  0.4960
  586MOL0     C79034   5.772   8.091   0.709  0.4780  0.8721  0.8092
  586MOL0     C79035   5.629   8.127   0.662 -0.1947 -0.7807 -0.3835
  586MOL0     C79036   5.526   8.056   0.749  0.1867 -0.8650 -0.0036
  586MOL0     C79037   5.414   8.007   0.653 -0.2604 -0.4273  0.1244
  586MOL0     C79038   5.302   7.931   0.705  0.4200  0.1207 -0.1171
  586MOL0     C79039   5.195   7.882   0.748 -0.2467 -0.1893  1.3262
  586MOL0     C79040   6.102   8.139   0.580  0.4277  0.7474 -0.0744
  586MOL0     C79041   6.239   8.121   0.585  1.1857  0.6428  0.5921
  586MOL0     C79042   6.340   8.182   0.484 -0.3230 -0.6982  0.0095
  586MOL0     H79043   6.597   7.947   0.931 -0.4398 -0.2701 -0.0570
  586MOL0     H79044   6.818   7.866   0.999  0.8953  0.2832  0.1313
  586MOL0     H79045   6.851   7.440   0.889  1.1198 -0.3709 -0.2292
  586MOL0     H79046   6.995   7.494   0.793  2.3789  1.9665  1.3584
  586MOL0     H79047   6.988   7.416   1.080 -1.4563  0.3804 -0.7959
  586MOL0     H79048   7.113   7.523   1.009  0.3737  0.7495 -2.0854
  586MOL0     H79049   7.183   7.370   0.839  0.9265  0.8716  0.9032
  586MOL0     H79050   7.063   7.260   0.878  1.4869 -2.4742 -0.6750
  586MOL0     H79051   7.281   7.369   1.072  0.1364  1.3720 -1.8356
  586MOL0     H79052   7.195   7.220   1.104  0.4263 -1.3405 -0.4029
  586MOL0     H79053   7.391   7.144   1.030 -0.9916 -0.8632 -1.3797
  586MOL0     H79054   7.304   7.130   0.883 -2.5254  0.6105 -0.1830
  586MOL0     H79055   7.400   7.332   0.787  0.3380  0.2597  0.4841
  586MOL0     H79056   7.481   7.380   0.932  0.0954 -1.3131  1.0519
  586MOL0     H79057   7.530   7.109   0.793  2.4339  0.3159 -1.5653
  586MOL0     H79058   7.643   7.205   0.894 -1.5728 -0.2459  1.8517
  586MOL0     H79059   7.702   7.177   0.648 -0.5613 -0.5477  1.9798
  586MOL0     H79060   7.543   7.254   0.609 -1.4484 -3.8413  0.0663
  586MOL0     H79061   7.514   7.516   0.703  0.6827  0.1585 -2.5321
  586MOL0     H79062   7.607   7.753   0.759 -0.5130 -1.1224  1.3498
  586MOL0     H79063   7.777   7.769   0.791 -2.2702  1.3740  1.6746
  586MOL0     H79064   7.744   7.729   0.505  0.2083  0.0864 -0.4332
  586MOL0     H79065   7.624   7.838   0.540  0.2814 -0.1615 -0.4881
  586MOL0     H79066   7.795   8.015   0.612 -1.6999  0.3144 -2.1816
  586MOL0     H79067   7.824   7.956   0.451  2.2013 -1.4144 -0.4188
  586MOL0     H79068   8.002   7.798   0.542 -1.7172 -0.4068 -1.0937
  586MOL0     H79069   7.969   7.873   0.703 -0.3080  0.9476 -0.5886
  586MOL0     H79070   8.189   7.925   0.792 -0.7558 -0.9162 -0.3718
  586MOL0     H79071   8.429   7.903   0.796  0.3554 -1.8889 -0.6256
  586MOL0     H79072   8.871   8.144   0.359  0.2926 -0.9289  0.1266
  586MOL0     H79073   9.089   8.109   0.339  0.2977 -0.9698 -0.3015
  586MOL0     H79074   9.252   7.793   0.602 -0.8057  0.8854  0.3244
  586MOL0     H79075   9.384   7.765   0.477 -0.0362  0.2209 -0.0678
  586MOL0     H79076   9.435   7.918   0.690 -0.7331  0.7086  0.8534
  586MOL0     H79077   9.460   7.996   0.522  0.3142  1.0882  0.7043
  586MOL0     H79078   9.254   8.126   0.561 -1.9306 -0.3284 -0.3404
  586MOL0     H79079   9.223   8.013   0.693 -1.3460 -1.5555 -2.8360
  586MOL0     H79080   9.447   8.206   0.648  0.0308 -0.2318 -0.1050
  586MOL0     H79081   9.445   8.102   0.793  0.0248 -0.2519  0.1560
  586MOL0     H79082   9.249   8.209   0.877 -0.8553  0.6623  0.4814
  586MOL0     H79083   9.227   8.308   0.730  0.5326 -2.5782 -0.3501
  586MOL0     H79084   9.452   8.318   0.930 -0.7707 -1.0887 -0.2746
  586MOL0     H79085   9.466   8.405   0.779 -0.5991  1.6328  0.3584
  586MOL0     H79086   9.242   8.443   0.994  0.4195  1.0338  1.2222
  586MOL0     H79087   9.242   8.520   0.839  0.4226  2.5642  1.9097
  586MOL0     H79088   9.331   8.632   1.050 -0.7547  0.0806 -0.2584
  586MOL0     H79089   9.486   8.542   1.028  0.4494  2.1815 -0.0783
  586MOL0     H79090   9.076   7.716   0.510  0.1538 -0.9906 -2.4440
  586MOL0     H79091   8.833   7.751   0.561 -0.3112  0.7415 -0.7648
  586MOL0     H79092   8.462   7.985   0.374 -0.9598  1.7999 -0.0945
  586MOL0     H79093   8.219   8.037   0.382 -0.8928 -0.3449  0.8419
  586MOL0     H79094   6.781   7.564   0.697  2.1156  1.3636  0.1338
  586MOL0     H79095   6.579   7.649   0.637 -0.1322  1.3605  0.1561
  586MOL0     H79096   6.207   7.912   0.855  0.1023 -0.4711 -0.0470
  586MOL0     H79097   5.980   7.978   0.849 -0.2810 -2.0948  0.5950
  586MOL0     H79098   5.786   8.112   0.816  1.1750 -0.3617  0.9775
  586MOL0     H79099   5.766   7.983   0.701 -3.1144  1.0017 -0.0274
  586MOL0     H79100   5.624   8.085   0.561 -1.7926  0.3084 -0.7823
  586MOL0     H79101   5.614   8.235   0.660 -1.6500 -0.8118  2.9490
  586MOL0     H79102   5.482   8.125   0.821 -0.7019  0.3990 -1.6704
  586MOL0     H79103   5.568   7.980   0.815  0.6332 -0.6650 -0.0525
  586MOL0     H79104   5.375   8.101   0.612 -1.5212 -1.3381 -0.8417
  586MOL0     H79105   5.457   7.955   0.567  0.7495  0.1756  0.2407
  586MOL0     H79106   5.111   7.827   0.785 -3.0252  2.2083 -0.9628
  586MOL0     H79107   6.074   8.211   0.504 -1.5865  2.0140  1.7527
  586MOL0     H79108   6.410   8.252   0.531 -2.6562  2.6249 -1.0983
  586MOL0     H79109   6.400   8.108   0.431  0.2298 -0.2378 -0.0164
  586MOL0     H79110   6.285   8.242   0.410 -1.8509 -2.2757 -0.1866
  587MOL0     O79111   2.021   5.459   7.481  1.1817 -0.4066 -0.0425
  587MOL0     C79112   1.911   5.408   7.462 -0.1226  0.1389 -0.5873
  587MOL0     O79113   1.884   5.280   7.439 -0.0888  0.5582  0.6583
  587MOL0     C79114   1.982   5.182   7.444 -1.0650 -0.1790 -0.1853
  587MOL0     C79115   1.971   5.084   7.342  0.8315 -0.4140 -0.5089
  587MOL0     C79116   2.055   4.976   7.320 -0.6123 -0.0177  0.1807
  587MOL0     C79117   2.171   4.962   7.405  0.8445 -0.1204  0.9048
  587MOL0     O79118   2.264   4.869   7.381 -0.3291  0.5080 -0.0373
  587MOL0     C79119   2.261   4.784   7.266  0.2921  1.1493  0.8781
  587MOL0     C79120   2.388   4.707   7.246  0.5410  0.6684 -0.3151
  587MOL0     C79121   2.521   4.783   7.236  0.1825  0.5527 -0.5831
  587MOL0     C79122   2.530   4.862   7.105 -0.2387  0.7942  0.0858
  587MOL0     C79123   2.658   4.942   7.073  1.1113  0.5242  0.5890
  587MOL0     C79124   2.663   5.079   7.146  1.1991 -0.2156 -0.2072
  587MOL0     C79125   2.783   5.168   7.122  0.0945 -0.3280 -0.0447
  587MOL0     C79126   2.795   5.241   6.978 -0.7106  0.3385 -0.5810
  587MOL0     N79127   2.677   5.254   6.903  0.4619  0.2914  0.4317
  587MOL0     C79128   2.604   5.373   6.899  0.2288 -0.6126 -0.2170
  587MOL0     C79129   2.515   5.367   6.795 -0.0210 -0.5468  0.5488
  587MOL0     C79130   2.411   5.471   6.759  0.8072 -0.0314 -0.2184
  587MOL0     C79131   2.370   5.472   6.613  0.0695 -0.3781 -0.2384
  587MOL0     C79132   2.255   5.372   6.579  0.0495  0.4406  1.4171
  587MOL0     C79133   2.222   5.391   6.433 -0.3002  0.5678 -0.0998
  587MOL0     O79134   2.153   5.507   6.406  0.1586  0.1919  0.5010
  587MOL0     C79135   2.013   5.510   6.424  0.1781  0.6402 -0.2190
  587MOL0     C79136   1.929   5.417   6.489  0.2431  0.2618 -0.5928
  587MOL0     C79137   1.789   5.416   6.466 -0.0493 -0.9453 -0.8977
  587MOL0     C79138   1.723   5.513   6.391 -0.3132  0.3618 -0.1304
  587MOL0     C79139   1.578   5.519   6.384  0.2437  0.0369  0.2016
  587MOL0     O79140   1.526   5.578   6.276  0.5822  0.0616  0.3774
  587MOL0     C79141   1.395   5.624   6.285 -0.8235 -0.1950 -0.7407
  587MOL0     C79142   1.298   5.557   6.215 -0.2387  0.2798  0.2451
  587MOL0     C79143   1.171   5.609   6.215  0.1858 -0.4499  0.3819
  587MOL0     C79144   1.143   5.723   6.297  0.5375 -0.5058  0.0417
  587MOL0     O79145   1.017   5.783   6.311  0.5504  0.8839  0.5072
  587MOL0     C79146   0.909   5.722   6.238  0.1067  0.3536  0.1531
  587MOL0     C79147   0.795   5.799   6.291  0.0638  0.2913 -0.4811
  587MOL0     C79148   0.678   5.769   6.198  0.4430  0.5770 -0.4806
  587MOL0     C79149   0.549   5.830   6.262  0.5920 -0.0150  0.2165
  587MOL0     C79150   0.429   5.812   6.171 -0.7832  0.2842  0.7997
  587MOL0     C79151   0.290   5.868   6.223 -0.2420 -0.8989  0.7882
  587MOL0     C79152   0.176   5.828   6.122  0.5209 -0.0075 -0.0996
  587MOL0     C79153   0.047   5.902   6.168  0.3320  0.0059 -0.1127
  587MOL0    Cl79154  -0.092   5.841   6.074  0.0521  0.2622 -0.0280
  587MOL0     C79155   1.240   5.782   6.369 -0.5902 -0.3191 -0.0084
  587MOL0     C79156   1.369   5.739   6.357 -0.0768 -0.0922 -0.1254
  587MOL0     O79157   1.516   5.476   6.484  0.4556  0.5876  0.3319
  587MOL0     C79158   1.807   5.613   6.333 -0.2759 -0.0212  0.4645
  587MOL0     C79159   1.949   5.601   6.345 -0.0902  0.0125 -0.4284
  587MOL0     N79160   2.552   5.248   6.726 -0.1949 -0.2032  0.5290
  587MOL0     N79161   2.652   5.190   6.788  0.3431 -0.9808 -0.0891
  587MOL0     C79162   2.191   5.069   7.501 -0.0198  0.7128  0.2832
  587MOL0     C79163   2.104   5.176   7.518  0.4364  0.5876 -0.3933
  587MOL0     C79164   1.805   5.510   7.472  0.4480  0.4746 -0.2294
  587MOL0     C79165   1.703   5.480   7.384  0.9801 -0.3202 -0.4670
  587MOL0     C79166   1.579   5.543   7.416 -0.3172 -0.7909  0.2993
  587MOL0     C79167   1.570   5.645   7.513  0.0752 -0.5376  0.0412
  587MOL0     O79168   1.456   5.709   7.546  0.5897  0.0645 -0.0949
  587MOL0     C79169   1.334   5.670   7.480 -0.6143  0.5053  0.8750
  587MOL0     C79170   1.321   5.751   7.350  0.1766  0.3816  0.2820
  587MOL0     C79171   1.216   5.683   7.257  0.2409  0.1873 -0.0852
  587MOL0     C79172   1.087   5.643   7.331 -0.5232 -0.1607  0.2347
  587MOL0     C79173   0.986   5.586   7.238 -0.1680  0.1258 -0.8243
  587MOL0     C79174   0.915   5.545   7.149 -0.8319 -0.0699 -0.7107
  587MOL0     C79175   1.675   5.674   7.598  0.5827  0.5217 -0.2941
  587MOL0     C79176   1.799   5.604   7.578 -0.1429 -0.2236  0.4115
  587MOL0     C79177   1.915   5.637   7.669 -0.0468 -0.2269 -0.2002
  587MOL0     H79178   1.886   5.097   7.275  1.9102 -1.9953 -2.2679
  587MOL0     H79179   2.032   4.905   7.241 -1.7045  0.4942  0.0233
  587MOL0     H79180   2.176   4.716   7.272  1.0207 -0.0905 -1.6954
  587MOL0     H79181   2.241   4.835   7.172 -2.3776 -0.0441  0.7059
  587MOL0     H79182   2.375   4.649   7.154  0.2116  0.2753 -0.0221
  587MOL0     H79183   2.397   4.642   7.333 -0.4138  1.6563  0.5666
  587MOL0     H79184   2.596   4.703   7.232 -0.9805 -0.7217  1.3223
  587MOL0     H79185   2.533   4.844   7.326  3.4649 -2.6610  1.4581
  587MOL0     H79186   2.518   4.789   7.024 -1.5825  0.2974  0.7102
  587MOL0     H79187   2.448   4.934   7.102 -1.4509 -0.4991  1.0062
  587MOL0     H79188   2.752   4.891   7.098  1.1616  1.5828  2.7863
  587MOL0     H79189   2.662   4.959   6.965  0.6235  0.7581  0.6071
  587MOL0     H79190   2.571   5.133   7.122  0.5054 -0.4421  1.7581
  587MOL0     H79191   2.660   5.054   7.252 -1.5112 -1.2476 -0.4509
  587MOL0     H79192   2.875   5.109   7.132  1.5847  1.4263 -2.5156
  587MOL0     H79193   2.781   5.243   7.202  2.5161  0.5783 -0.7664
  587MOL0     H79194   2.847   5.337   6.986  2.3918 -1.3616  1.8632
  587MOL0     H79195   2.874   5.186   6.927  0.9686  2.9564 -1.0122
  587MOL0     H79196   2.603   5.448   6.977 -2.7870  0.0679 -0.7820
  587MOL0     H79197   2.323   5.464   6.824  0.4445 -0.6274 -0.7735
  587MOL0     H79198   2.447   5.573   6.781  0.2658 -0.1996  1.6946
  587MOL0     H79199   2.332   5.570   6.584 -0.3469 -0.4771 -0.0322
  587MOL0     H79200   2.454   5.461   6.544  0.4620 -2.1284  0.4635
  587MOL0     H79201   2.166   5.384   6.641  0.1939 -1.5298  2.0579
  587MOL0     H79202   2.279   5.267   6.595  1.0548 -0.0215 -2.1397
  587MOL0     H79203   2.170   5.300   6.401 -0.1224  0.5153 -0.2473
  587MOL0     H79204   2.311   5.389   6.368  0.1866  1.6065  0.5129
  587MOL0     H79205   1.955   5.330   6.548 -0.7366  0.4422  0.1273
  587MOL0     H79206   1.724   5.349   6.520 -1.7444  2.4777  1.7475
  587MOL0     H79207   1.336   5.473   6.159  2.5648  1.3270  0.3877
  587MOL0     H79208   1.098   5.575   6.143  1.1207 -1.5839 -0.0497
  587MOL0     H79209   0.912   5.722   6.129  0.8026 -0.6137  0.1562
  587MOL0     H79210   0.897   5.619   6.271 -1.7135  0.1240 -1.0669
  587MOL0     H79211   0.774   5.773   6.395  0.5305 -0.0880 -0.4777
  587MOL0     H79212   0.803   5.908   6.281  0.5183  0.2547 -0.5248
  587MOL0     H79213   0.692   5.804   6.096  0.1664 -0.7680 -1.0043
  587MOL0     H79214   0.667   5.660   6.188  1.8388  0.5087 -1.4485
  587MOL0     H79215   0.569   5.937   6.274  4.2094 -0.5118 -0.1887
  587MOL0     H79216   0.526   5.782   6.358  0.2166  0.3526  0.3115
  587MOL0     H79217   0.409   5.704   6.165  0.7652 -0.0076  0.4039
  587MOL0     H79218   0.450   5.843   6.068  0.4310 -2.4192  0.1508
  587MOL0     H79219   0.259   5.821   6.316 -3.4669 -2.0641 -0.7399
  587MOL0     H79220   0.289   5.977   6.222 -0.1157 -0.8948  1.0241
  587MOL0     H79221   0.154   5.721   6.128 -1.1535  0.3623  3.5849
  587MOL0     H79222   0.204   5.848   6.019 -2.1878  0.7954 -0.7555
  587MOL0     H79223   0.028   5.896   6.276  0.4667 -2.5336 -0.1571
  587MOL0     H79224   0.066   6.003   6.133  2.3297 -0.7538 -1.3916
  587MOL0     H79225   1.228   5.868   6.435  0.8458 -0.5034  0.5305
  587MOL0     H79226   1.457   5.782   6.405  1.3965 -2.6889 -0.2799
  587MOL0     H79227   1.768   5.675   6.254 -0.4141 -3.7987 -2.7400
  587MOL0     H79228   2.002   5.684   6.299  1.8137  0.2869  2.0777
  587MOL0     H79229   2.278   5.055   7.564  0.2195 -1.3259 -0.4130
  587MOL0     H79230   2.130   5.241   7.600  0.0777  0.0483  0.1535
  587MOL0     H79231   1.724   5.398   7.316  1.8430  0.3249 -0.9928
  587MOL0     H79232   1.495   5.496   7.366  0.4128 -1.9586  0.1290
  587MOL0     H79233   1.246   5.696   7.541 -1.2011 -2.3067  1.3575
  587MOL0     H79234   1.321   5.562   7.473 -0.1124  0.4434  0.8496
  587MOL0     H79235   1.423   5.766   7.312  0.5129  2.9747  1.9629
  587MOL0     H79236   1.289   5.853   7.372 -2.4675 -0.3493  0.1558
  587MOL0     H79237   1.259   5.590   7.217  4.0143  0.5909  2.5038
  587MOL0     H79238   1.192   5.751   7.175  1.9729 -1.1387 -1.7887
  587MOL0     H79239   1.110   5.576   7.415 -1.3938  1.1650  1.5846
  587MOL0     H79240   1.043   5.733   7.376 -0.8226 -0.4693  0.5679
  587MOL0     H79241   0.848   5.515   7.071 -0.7574  1.5287 -1.4467
  587MOL0     H79242   1.659   5.743   7.680 -0.5294 -1.3232  1.1291
  587MOL0     H79243   1.937   5.549   7.730  3.4280  1.1512  0.7647
  587MOL0     H79244   2.009   5.655   7.615  0.2563  0.0182  0.3990
  587MOL0     H79245   1.909   5.724   7.735  2.2310  0.4237 -0.7542
  588MOL0     O79246   5.030   5.415   1.365  0.2377 -0.0706  0.3583
  588MOL0     C79247   4.943   5.389   1.280 -0.2704 -0.8057 -0.4917
  588MOL0     O79248   4.970   5.370   1.146  0.6092 -0.3037 -0.1659
  588MOL0     C79249   5.099   5.405   1.107  1.1624  0.7542  0.0750
  588MOL0     C79250   5.207   5.316   1.120  0.3400  0.8873  0.7686
  588MOL0     C79251   5.333   5.343   1.069  0.4583  0.8193 -1.1388
  588MOL0     C79252   5.361   5.458   0.996  0.4006 -0.0325  0.0841
  588MOL0     O79253   5.483   5.487   0.940 -0.2573  0.3809  0.6863
  588MOL0     C79254   5.592   5.395   0.961  0.5702 -0.7041  0.4288
  588MOL0     C79255   5.717   5.434   0.878  0.7631  0.2592  0.5049
  588MOL0     C79256   5.826   5.332   0.890  0.1004 -0.0243  0.8552
  588MOL0     C79257   5.944   5.398   0.818 -0.7526 -0.1645  0.9653
  588MOL0     C79258   6.074   5.310   0.825 -0.1945  0.3877 -0.7771
  588MOL0     C79259   6.207   5.379   0.786  0.4548 -0.6564  0.8389
  588MOL0     C79260   6.324   5.278   0.765  0.5786 -0.6889  0.0521
  588MOL0     C79261   6.424   5.335   0.669 -1.2160  0.6774  0.3831
  588MOL0     N79262   6.514   5.233   0.624  0.1784  0.1697 -1.2696
  588MOL0     C79263   6.649   5.255   0.655 -0.3520  0.2204 -0.6170
  588MOL0     C79264   6.707   5.158   0.584  0.1584  0.0759  0.0261
  588MOL0     C79265   6.849   5.128   0.583  0.3483  0.4123  0.3208
  588MOL0     C79266   6.925   5.223   0.493  0.0467  1.1788 -0.0828
  588MOL0     C79267   6.887   5.210   0.342 -0.9024 -0.2564 -1.1570
  588MOL0     C79268   6.968   5.292   0.250 -0.5093  0.2862  0.1509
  588MOL0     O79269   7.114   5.290   0.266 -0.0836  0.0513  0.2098
  588MOL0     C79270   7.197   5.240   0.170  0.4742  0.3997  0.3153
  588MOL0     C79271   7.336   5.252   0.188 -0.4466  0.1704 -0.2019
  588MOL0     C79272   7.425   5.203   0.103  0.7203 -0.0927  0.1183
  588MOL0     C79273   7.383   5.130  -0.012 -0.0528  0.8712 -0.6222
  588MOL0     C79274   7.489   5.087  -0.102  0.0254 -0.5629  0.4151
  588MOL0     O79275   7.624   5.118  -0.075  0.1756 -0.5075  0.1556
  588MOL0     C79276   7.729   5.097  -0.156 -0.2209 -0.3063 -0.3218
  588MOL0     C79277   7.846   5.040  -0.109  0.1585  0.6247 -0.4757
  588MOL0     C79278   7.953   5.001  -0.192  0.4325 -0.2557 -0.1838
  588MOL0     C79279   7.947   5.040  -0.319  0.6118 -0.1788  0.8183
  588MOL0     O79280   8.042   4.998  -0.413  0.3157  0.8437  0.1678
  588MOL0     C79281   8.174   5.036  -0.366 -0.0817 -0.4572  0.6478
  588MOL0     C79282   8.271   5.078  -0.480 -0.6636 -0.3485 -0.4190
  588MOL0     C79283   8.410   5.096  -0.433 -0.2724 -0.3845  0.6010
  588MOL0     C79284   8.504   5.108  -0.547  0.4223 -0.0146  0.4611
  588MOL0     C79285   8.648   5.117  -0.499 -0.1820  0.0615  0.1086
  588MOL0     C79286   8.746   5.114  -0.617 -0.0878 -1.2992 -0.5921
  588MOL0     C79287   8.879   5.170  -0.572  0.4562  0.4708  0.1966
  588MOL0     C79288   8.984   5.110  -0.662 -0.1844  0.2516 -0.0514
  588MOL0    Cl79289   8.953   5.166  -0.823  0.0322 -0.0776  0.2956
  588MOL0     C79290   7.832   5.096  -0.372  0.6154  0.4798 -0.0242
  588MOL0     C79291   7.723   5.133  -0.292 -0.5069  0.0014 -0.2758
  588MOL0     O79292   7.445   5.037  -0.209 -0.1551 -0.0406 -0.4118
  588MOL0     C79293   7.237   5.122  -0.042 -0.5635 -0.2601  0.8127
  588MOL0     C79294   7.147   5.190   0.044 -0.4648  0.0763  0.6374
  588MOL0     N79295   6.613   5.080   0.512 -0.6236  0.3863  0.5511
  588MOL0     N79296   6.493   5.130   0.539 -0.6193  0.2024 -0.9450
  588MOL0     C79297   5.257   5.549   0.985 -0.4229  0.7263  0.7938
  588MOL0     C79298   5.128   5.524   1.044 -1.0300 -0.2959  0.9049
  588MOL0     C79299   4.797   5.379   1.331 -1.1438  0.2787 -0.4487
  588MOL0     C79300   4.778   5.364   1.469 -0.7203  0.1002  0.1984
  588MOL0     C79301   4.646   5.361   1.521 -0.4234  0.1601 -0.5164
  588MOL0     C79302   4.532   5.352   1.432  0.5171 -0.2348 -0.6594
  588MOL0     O79303   4.395   5.339   1.469  0.0469 -0.7597  0.3435
  588MOL0     C79304   4.351   5.327   1.605  0.5956 -0.2314  0.5666
  588MOL0     C79305   4.207   5.361   1.604 -0.3103 -1.1080 -0.3046
  588MOL0     C79306   4.117   5.238   1.569  0.5631 -0.0848 -0.5577
  588MOL0     C79307   3.985   5.259   1.637 -0.5966 -0.4351 -0.1009
  588MOL0     C79308   3.899   5.150   1.612  0.3867 -0.6773 -0.3320
  588MOL0     C79309   3.841   5.049   1.566  0.8539  0.0624  0.7792
  588MOL0     C79310   4.552   5.364   1.297 -0.4096 -0.1170  0.3699
  588MOL0     C79311   4.681   5.378   1.243 -0.5699 -0.0530  0.2962
  588MOL0     C79312   4.682   5.392   1.085 -0.4995 -0.5204  0.3663
  588MOL0     H79313   5.183   5.218   1.159 -1.5431  0.5169 -1.1286
  588MOL0     H79314   5.404   5.266   1.098 -0.5160 -0.0056 -0.9034
  588MOL0     H79315   5.623   5.381   1.065  0.0975  0.3046  0.7133
  588MOL0     H79316   5.564   5.297   0.920  0.4184 -0.1752 -0.7780
  588MOL0     H79317   5.749   5.537   0.895  0.6477  0.1409  1.5300
  588MOL0     H79318   5.677   5.441   0.777 -2.8035 -1.2217  1.6360
  588MOL0     H79319   5.807   5.235   0.844  0.8117 -0.1339  0.7865
  588MOL0     H79320   5.844   5.322   0.997  3.0523  0.6861  0.5151
  588MOL0     H79321   5.922   5.419   0.713  0.9573  0.1227  0.6462
  588MOL0     H79322   5.961   5.495   0.864  1.1720 -0.7878  1.6553
  588MOL0     H79323   6.083   5.268   0.926 -3.2133  1.1210 -0.1066
  588MOL0     H79324   6.062   5.222   0.761 -1.9786 -3.1701  3.8214
  588MOL0     H79325   6.198   5.442   0.697 -1.8006  0.2229  1.6043
  588MOL0     H79326   6.227   5.456   0.861 -1.3395  2.0261 -1.2198
  588MOL0     H79327   6.286   5.185   0.723  1.8780 -0.4059 -1.8767
  588MOL0     H79328   6.361   5.259   0.866 -0.0354  1.0989  0.6466
  588MOL0     H79329   6.377   5.378   0.580 -0.7883 -0.3832 -0.3832
  588MOL0     H79330   6.478   5.415   0.719 -0.3427  0.2175  0.1949
  588MOL0     H79331   6.704   5.330   0.711  0.2822 -1.1560  0.6816
  588MOL0     H79332   6.887   5.151   0.683 -0.0040 -1.7184  0.9874
  588MOL0     H79333   6.869   5.023   0.561  0.6364  0.2773  1.1895
  588MOL0     H79334   6.904   5.323   0.531  1.0851  0.3153  3.0966
  588MOL0     H79335   7.033   5.218   0.511  0.3809 -0.8118 -2.1396
  588MOL0     H79336   6.782   5.231   0.322 -1.0269 -1.2433 -1.6190
  588MOL0     H79337   6.897   5.105   0.312 -1.5322 -0.2834 -1.2798
  588MOL0     H79338   6.942   5.397   0.268  1.0701  0.5952  0.7552
  588MOL0     H79339   6.936   5.274   0.147 -0.3747  1.2080 -0.0587
  588MOL0     H79340   7.375   5.304   0.276  2.5061  2.2712 -2.5415
  588MOL0     H79341   7.531   5.211   0.122  0.7543  0.7791 -0.4056
  588MOL0     H79342   7.850   5.036  -0.000  0.0124  1.0173 -0.4534
  588MOL0     H79343   8.043   4.953  -0.156  0.0199 -0.5435  0.4765
  588MOL0     H79344   8.164   5.130  -0.311  1.6879  1.2442 -1.7595
  588MOL0     H79345   8.212   4.949  -0.312 -1.6783 -0.3282  2.0634
  588MOL0     H79346   8.270   5.003  -0.559 -0.1807 -0.7980 -0.0023
  588MOL0     H79347   8.224   5.170  -0.516 -1.0432 -0.3450  0.0732
  588MOL0     H79348   8.402   5.191  -0.379  1.4945 -0.7293  1.5411
  588MOL0     H79349   8.435   5.011  -0.369 -0.6101 -0.8441  0.1326
  588MOL0     H79350   8.484   5.199  -0.606 -1.4130  1.3300  2.9664
  588MOL0     H79351   8.490   5.024  -0.616 -2.0334  1.1268 -0.5525
  588MOL0     H79352   8.681   5.027  -0.448  1.1796 -1.1436 -2.7163
  588MOL0     H79353   8.662   5.207  -0.438 -2.8268  0.5323  0.1637
  588MOL0     H79354   8.745   5.019  -0.671 -3.6039  0.0113 -3.1474
  588MOL0     H79355   8.709   5.184  -0.692  0.1116  0.1282  0.5956
  588MOL0     H79356   8.908   5.153  -0.468  4.5615 -0.0016 -0.8618
  588MOL0     H79357   8.866   5.278  -0.582 -2.6223  0.1683 -0.2242
  588MOL0     H79358   9.081   5.154  -0.637  0.5277  0.2392 -2.5133
  588MOL0     H79359   9.002   5.003  -0.652 -2.1311 -0.0944  0.1488
  588MOL0     H79360   7.821   5.107  -0.480  1.1049  1.0794 -0.0204
  588MOL0     H79361   7.634   5.170  -0.341 -0.8991 -0.6064 -0.0363
  588MOL0     H79362   7.205   5.068  -0.130 -3.4944 -0.8540  2.1108
  588MOL0     H79363   7.045   5.197   0.006 -0.9258  0.2702  1.8659
  588MOL0     H79364   5.270   5.641   0.928 -0.4942 -0.2717 -0.9003
  588MOL0     H79365   5.044   5.590   1.027 -1.0220 -0.9478 -2.2751
  588MOL0     H79366   4.865   5.361   1.534 -0.3373 -0.6612 -0.3470
  588MOL0     H79367   4.627   5.382   1.625 -1.2990  3.0704 -1.1436
  588MOL0     H79368   4.414   5.399   1.658  0.9672  0.2727 -0.5476
  588MOL0     H79369   4.361   5.225   1.643  1.3771 -1.4056 -2.5270
  588MOL0     H79370   4.185   5.446   1.538 -2.5823 -1.3319  0.1064
  588MOL0     H79371   4.174   5.391   1.703 -0.6118 -0.3950 -0.6157
  588MOL0     H79372   4.160   5.140   1.596  0.8645  0.3247  0.5284
  588MOL0     H79373   4.106   5.228   1.461 -0.1081 -0.5197 -0.4511
  588MOL0     H79374   4.003   5.260   1.744 -3.1365  0.0611  0.3889
  588MOL0     H79375   3.946   5.358   1.609 -2.2951 -1.4638 -1.6595
  588MOL0     H79376   3.808   4.956   1.525  0.7045 -0.3316  1.7694
  588MOL0     H79377   4.470   5.366   1.227  2.9501  0.7396 -4.0054
  588MOL0     H79378   4.692   5.295   1.036 -1.8646  0.0134 -1.0262
  588MOL0     H79379   4.588   5.433   1.048  0.0361  1.3251  0.9418
  588MOL0     H79380   4.754   5.470   1.055 -0.6585 -0.2939  0.5700
  589MOL0     O79381   3.556   1.276   4.891  0.7150 -0.0168 -0.6691
  589MOL0     C79382   3.467   1.220   4.953  0.0370  0.8062 -0.1191
  589MOL0     O79383   3.489   1.111   5.027 -0.4060  0.4398 -0.4271
  589MOL0     C79384   3.597   1.034   4.994 -0.1606  0.2037  0.0803
  589MOL0     C79385   3.718   1.056   5.049 -0.4847 -0.5132 -1.1881
  589MOL0     C79386   3.829   0.973   5.026 -0.2265 -0.1103  0.1786
  589MOL0     C79387   3.818   0.864   4.940  0.3900  0.1516  0.1372
  589MOL0     O79388   3.932   0.794   4.943 -0.2795  1.3558 -0.0666
  589MOL0     C79389   3.919   0.658   4.899 -0.3205  0.0203  0.1835
  589MOL0     C79390   3.928   0.651   4.742  0.6248 -0.1417  0.6782
  589MOL0     C79391   4.040   0.557   4.696  0.7435 -0.3709 -0.8247
  589MOL0     C79392   4.007   0.520   4.551  0.3272 -0.1921 -0.6697
  589MOL0     C79393   4.121   0.444   4.492 -0.5484 -0.0916 -0.2029
  589MOL0     C79394   4.083   0.392   4.356 -0.9018  0.5867  0.4917
  589MOL0     C79395   4.217   0.357   4.288 -1.0807  0.3848 -0.1232
  589MOL0     C79396   4.212   0.271   4.157  0.4806  0.4144  0.2056
  589MOL0     N79397   4.341   0.261   4.088  0.4857 -0.2688 -0.4079
  589MOL0     C79398   4.461   0.224   4.154  0.3957 -0.3057  1.0610
  589MOL0     C79399   4.549   0.205   4.052 -0.1661 -0.0522  0.3255
  589MOL0     C79400   4.685   0.141   4.082 -0.1234 -0.2911 -0.2208
  589MOL0     C79401   4.780   0.248   4.149 -0.5063  0.1877 -0.0660
  589MOL0     C79402   4.915   0.180   4.185  0.1791 -0.1079  0.1609
  589MOL0     C79403   4.969   0.226   4.322  0.1564 -1.1824  0.0472
  589MOL0     O79404   5.070   0.142   4.374 -0.3132  0.0971  0.2125
  589MOL0     C79405   5.139   0.187   4.484 -0.3536 -0.2358 -0.3957
  589MOL0     C79406   5.077   0.276   4.577 -1.1149  0.6368 -0.4019
  589MOL0     C79407   5.149   0.337   4.685  0.7711 -1.1857  0.3343
  589MOL0     C79408   5.283   0.311   4.707  0.3635 -0.1140 -0.1882
  589MOL0     C79409   5.364   0.372   4.818 -0.3301  0.7887  0.3680
  589MOL0     O79410   5.298   0.441   4.912 -0.0235 -0.0745 -0.0914
  589MOL0     C79411   5.378   0.502   5.008  0.3636 -0.0751 -0.0307
  589MOL0     C79412   5.444   0.621   4.974 -0.4637 -0.3291  0.0624
  589MOL0     C79413   5.534   0.684   5.061 -0.6919 -0.5675  0.3312
  589MOL0     C79414   5.544   0.630   5.188  0.4354  0.5029 -0.6887
  589MOL0     O79415   5.645   0.686   5.270 -0.0583  0.5407  0.2190
  589MOL0     C79416   5.748   0.594   5.305  0.3746  0.5278 -0.6369
  589MOL0     C79417   5.856   0.671   5.380 -0.0543 -0.2842 -0.4850
  589MOL0     C79418   5.943   0.781   5.307  0.1096 -0.4317  0.2390
  589MOL0     C79419   5.893   0.924   5.340  0.8288 -0.4690 -0.3384
  589MOL0     C79420   5.943   1.045   5.256  0.8668  0.6226 -0.7323
  589MOL0     C79421   6.044   1.127   5.329 -0.0616  0.1687  0.8118
  589MOL0     C79422   6.179   1.059   5.332 -0.0555  0.8144 -0.1151
  589MOL0     C79423   6.296   1.153   5.340 -0.1450 -0.4195  0.4263
  589MOL0    Cl79424   6.446   1.057   5.368  0.0855 -0.5045  0.0195
  589MOL0     C79425   5.474   0.510   5.223  0.1131 -0.2196  0.3877
  589MOL0     C79426   5.391   0.447   5.129 -0.4189 -0.6449 -0.7925
  589MOL0     O79427   5.486   0.354   4.810  0.1824  0.1465  0.0865
  589MOL0     C79428   5.339   0.206   4.627 -0.1711  0.6456 -0.0595
  589MOL0     C79429   5.273   0.147   4.517  0.4072  0.3392 -0.4131
  589MOL0     N79430   4.485   0.240   3.928  0.0096  0.0267  0.2608
  589MOL0     N79431   4.357   0.264   3.952 -0.5757  0.0969 -0.8773
  589MOL0     C79432   3.699   0.849   4.870 -0.2397  0.0606  0.2536
  589MOL0     C79433   3.597   0.935   4.898  0.5182  0.2746 -0.3017
  589MOL0     C79434   3.333   1.287   4.963  0.5212 -0.5317 -0.2199
  589MOL0     C79435   3.257   1.268   5.077  0.0653 -0.1641  0.3733
  589MOL0     C79436   3.142   1.337   5.102 -0.5536 -0.5468 -0.3407
  589MOL0     C79437   3.095   1.421   5.004  1.7913 -0.0054 -0.4023
  589MOL0     O79438   2.973   1.491   5.022  0.2656 -0.1510 -0.1740
  589MOL0     C79439   2.853   1.413   4.999  0.8358  0.3945  0.5289
  589MOL0     C79440   2.804   1.416   4.850 -0.4769 -0.1031  1.1731
  589MOL0     C79441   2.654   1.389   4.825 -0.1231 -0.5667 -0.2898
  589MOL0     C79442   2.561   1.503   4.877  0.1689 -1.3175 -0.1617
  589MOL0     C79443   2.425   1.497   4.819  1.0130 -0.1820 -0.0302
  589MOL0     C79444   2.312   1.501   4.773 -0.1425 -0.0917  0.0103
  589MOL0     C79445   3.166   1.442   4.888 -0.5011 -0.4141 -0.3271
  589MOL0     C79446   3.286   1.383   4.862  0.1885  0.4954 -0.1197
  589MOL0     C79447   3.376   1.413   4.742  0.1330 -0.5686  0.4691
  589MOL0     H79448   3.725   1.137   5.121 -1.6996 -0.7462 -0.7848
  589MOL0     H79449   3.928   0.997   5.062  1.3881 -0.4626 -3.5303
  589MOL0     H79450   4.002   0.595   4.934 -0.2422 -0.1797 -0.3482
  589MOL0     H79451   3.828   0.609   4.935  0.0884 -0.3300  0.7615
  589MOL0     H79452   3.948   0.753   4.707 -2.4958 -0.0474 -1.2058
  589MOL0     H79453   3.832   0.630   4.693  0.0898  1.6590  0.9074
  589MOL0     H79454   4.036   0.460   4.746  3.6127 -0.6759 -1.0336
  589MOL0     H79455   4.140   0.594   4.719 -0.2462  0.2102  3.1834
  589MOL0     H79456   3.910   0.470   4.547 -0.5975  1.5758 -1.6260
  589MOL0     H79457   3.995   0.618   4.503 -1.4548  1.4960  2.7868
  589MOL0     H79458   4.198   0.522   4.484 -0.8839  0.2903  0.2138
  589MOL0     H79459   4.153   0.361   4.555 -0.2478  0.7293  0.7485
  589MOL0     H79460   4.021   0.302   4.366  0.5603 -0.3795  1.3595
  589MOL0     H79461   4.033   0.469   4.298 -0.6319  1.6749  1.6593
  589MOL0     H79462   4.280   0.303   4.360 -1.5718 -0.0812 -0.0417
  589MOL0     H79463   4.271   0.452   4.279 -2.4348  1.3831  1.5105
  589MOL0     H79464   4.186   0.170   4.191 -1.1268  1.2219  1.5911
  589MOL0     H79465   4.129   0.309   4.097 -0.2279  0.4962  1.2004
  589MOL0     H79466   4.471   0.202   4.260  0.4808  1.2753  1.4047
  589MOL0     H79467   4.670   0.051   4.142 -0.0402 -1.2655 -1.6154
  589MOL0     H79468   4.734   0.107   3.990 -0.0451  1.0339 -0.7005
  589MOL0     H79469   4.787   0.330   4.076 -0.9684  1.2170  1.0152
  589MOL0     H79470   4.727   0.286   4.237  0.5424  1.8483 -0.1004
  589MOL0     H79471   4.989   0.207   4.109 -0.2110  2.9391  0.7314
  589MOL0     H79472   4.897   0.073   4.192 -1.2747  0.1841  1.4886
  589MOL0     H79473   4.881   0.233   4.386 -1.4907  0.6769 -2.2551
  589MOL0     H79474   5.015   0.326   4.316 -0.2361 -0.9902  0.2462
  589MOL0     H79475   4.982   0.323   4.551 -1.3068 -0.6376 -2.2410
  589MOL0     H79476   5.090   0.406   4.745  1.4184  1.2905 -1.6878
  589MOL0     H79477   5.433   0.663   4.875 -0.5689  0.2665  0.3273
  589MOL0     H79478   5.596   0.771   5.044 -0.5949 -0.7672 -0.3637
  589MOL0     H79479   5.717   0.509   5.366 -1.5120  0.2173 -1.9602
  589MOL0     H79480   5.799   0.556   5.215  0.1136  3.5810 -2.1905
  589MOL0     H79481   5.801   0.710   5.466  0.5544  1.2619 -0.7596
  589MOL0     H79482   5.935   0.608   5.421  0.9674  1.2071 -0.0915
  589MOL0     H79483   6.047   0.766   5.340  0.7193 -1.0785 -1.8022
  589MOL0     H79484   5.942   0.753   5.201 -0.6637 -0.1405  0.1627
  589MOL0     H79485   5.905   0.936   5.448  0.9016 -0.2717 -0.3684
  589MOL0     H79486   5.786   0.911   5.323  0.6672  1.1843 -0.6903
  589MOL0     H79487   5.861   1.116   5.245  1.5807  2.2576  3.0502
  589MOL0     H79488   5.966   1.004   5.157  2.8681 -0.0898 -0.0260
  589MOL0     H79489   6.042   1.226   5.282 -4.1304 -0.7421 -1.3953
  589MOL0     H79490   6.005   1.149   5.429  2.6413 -1.6090  2.3835
  589MOL0     H79491   6.195   0.991   5.247 -2.1836  0.8633 -0.6107
  589MOL0     H79492   6.178   0.992   5.418  0.5465  1.3756  0.3357
  589MOL0     H79493   6.294   1.207   5.245  2.1303 -0.8058  0.0994
  589MOL0     H79494   6.285   1.219   5.427 -0.5750 -2.4830  2.0232
  589MOL0     H79495   5.483   0.478   5.326 -1.4261  0.2605  0.6993
  589MOL0     H79496   5.322   0.368   5.157 -1.2289 -0.3265 -1.8411
  589MOL0     H79497   5.443   0.175   4.636 -0.4093 -0.7186 -1.4798
  589MOL0     H79498   5.331   0.080   4.454 -1.6064 -1.3791 -0.5731
  589MOL0     H79499   3.698   0.774   4.791  2.5549 -0.3555  0.4864
  589MOL0     H79500   3.507   0.922   4.838 -1.0973 -0.2138  2.0891
  589MOL0     H79501   3.288   1.189   5.144  0.9986 -1.4551 -1.4997
  589MOL0     H79502   3.087   1.314   5.192 -2.3233  1.3290 -0.8643
  589MOL0     H79503   2.767   1.445   5.059 -0.0048 -2.8249  1.2267
  589MOL0     H79504   2.874   1.310   5.029 -1.0274 -0.0472  0.4732
  589MOL0     H79505   2.859   1.341   4.792  1.0348  0.4600  1.8225
  589MOL0     H79506   2.830   1.513   4.806  1.0000 -1.7370 -1.8074
  589MOL0     H79507   2.614   1.293   4.857 -0.2596 -0.1407  0.8327
  589MOL0     H79508   2.642   1.392   4.716  0.1666  5.1241 -0.4644
  589MOL0     H79509   2.547   1.502   4.985 -3.3159  0.0250 -0.4628
  589MOL0     H79510   2.605   1.595   4.835 -0.7792 -0.2909  1.0139
  589MOL0     H79511   2.210   1.510   4.742  0.7282  4.0465 -2.3253
  589MOL0     H79512   3.134   1.516   4.815 -2.3200 -1.7925 -0.9736
  589MOL0     H79513   3.299   1.464   4.682 -2.2905 -0.9172  3.0519
  589MOL0     H79514   3.457   1.479   4.775 -1.1820  1.0664  0.5865
  589MOL0     H79515   3.419   1.328   4.689 -0.0588 -2.1348  2.6996
  590MOL0     O79516   5.154   3.128   7.026 -0.3645  0.0302 -0.1781
  590MOL0     C79517   5.109   3.071   7.122  0.0759 -0.3208 -0.1415
  590MOL0     O79518   5.175   3.034   7.239  0.3901  0.0033 -0.0924
  590MOL0     C79519   5.312   3.046   7.244 -0.3758  0.0489 -0.4857
  590MOL0     C79520   5.376   3.136   7.330  0.2381  0.9564  0.2503
  590MOL0     C79521   5.514   3.158   7.308  0.0539  0.5512 -0.9025
  590MOL0     C79522   5.588   3.083   7.221  0.4048 -0.1268 -0.1569
  590MOL0     O79523   5.721   3.108   7.214 -0.0415  0.0985 -0.5094
  590MOL0     C79524   5.798   2.992   7.262 -0.6901 -1.4400  0.0952
  590MOL0     C79525   5.897   2.937   7.154 -0.0692 -0.1537 -0.3509
  590MOL0     C79526   5.983   3.042   7.097 -0.7093  0.3264 -0.3253
  590MOL0     C79527   6.051   2.986   6.967 -0.4293 -0.1113  0.0365
  590MOL0     C79528   6.138   3.097   6.905 -0.9523 -0.5333  0.4173
  590MOL0     C79529   6.276   3.114   6.969 -0.2947  0.3617  0.5806
  590MOL0     C79530   6.339   3.240   6.932 -0.0253 -0.2525 -0.1673
  590MOL0     C79531   6.395   3.263   6.790  0.6948 -0.3588 -0.2768
  590MOL0     N79532   6.425   3.401   6.760 -0.4546 -0.3895  0.5285
  590MOL0     C79533   6.453   3.443   6.632  0.7289  0.7600 -0.8402
  590MOL0     C79534   6.504   3.566   6.649 -0.2147  0.7695  0.9792
  590MOL0     C79535   6.545   3.650   6.538 -0.8267  1.1000 -0.4921
  590MOL0     C79536   6.695   3.643   6.497  0.7911 -0.3549  0.3788
  590MOL0     C79537   6.756   3.506   6.460  0.1102  0.0550 -0.2092
  590MOL0     C79538   6.907   3.520   6.442 -0.4211 -0.4024  0.8718
  590MOL0     O79539   6.972   3.484   6.567  0.1262 -0.1879  0.0366
  590MOL0     C79540   7.105   3.514   6.585  0.0498 -0.9648  0.7748
  590MOL0     C79541   7.191   3.552   6.488 -0.2568 -0.0673  0.7636
  590MOL0     C79542   7.325   3.570   6.508 -0.5923  0.5561  0.5825
  590MOL0     C79543   7.370   3.566   6.640  1.9390  0.0940  0.9623
  590MOL0     C79544   7.508   3.596   6.675 -0.2447  1.2864  0.6119
  590MOL0     O79545   7.591   3.625   6.579 -0.0815  0.5457  0.1612
  590MOL0     C79546   7.716   3.668   6.605 -0.6709 -0.0823  0.3813
  590MOL0     C79547   7.739   3.775   6.698 -0.0424 -0.4061  0.6281
  590MOL0     C79548   7.868   3.822   6.727 -0.3058  0.0372  0.5217
  590MOL0     C79549   7.978   3.760   6.668 -1.3378 -0.5926  0.3051
  590MOL0     O79550   8.093   3.834   6.669  1.3558  0.3036  0.5032
  590MOL0     C79551   8.173   3.830   6.783  0.4835 -0.3443 -0.2811
  590MOL0     C79552   8.248   3.704   6.796 -0.2971  0.1612 -0.5278
  590MOL0     C79553   8.371   3.688   6.715 -0.6589 -0.8992  0.0102
  590MOL0     C79554   8.434   3.559   6.723  0.1179  0.5840  0.5724
  590MOL0     C79555   8.561   3.545   6.630 -0.1866 -0.1270 -0.6748
  590MOL0     C79556   8.592   3.395   6.603  0.0388  0.2721 -0.7165
  590MOL0     C79557   8.722   3.369   6.530  0.8369  0.4418 -0.1346
  590MOL0     C79558   8.762   3.223   6.529  0.4557  0.7773  0.3740
  590MOL0    Cl79559   8.807   3.157   6.690 -0.0719 -0.1206  0.1957
  590MOL0     C79560   7.964   3.658   6.573 -0.5741  0.2450 -0.2991
  590MOL0     C79561   7.837   3.610   6.549  0.2304  0.5310  0.2616
  590MOL0     O79562   7.537   3.581   6.793  0.0742  0.2360 -0.0429
  590MOL0     C79563   7.280   3.533   6.740 -0.2324 -0.2497 -0.4450
  590MOL0     C79564   7.150   3.517   6.712 -0.1461  0.5831  0.3493
  590MOL0     N79565   6.497   3.601   6.786  0.2862 -0.1241  0.4760
  590MOL0     N79566   6.451   3.501   6.851 -1.3374  0.2227 -0.9732
  590MOL0     C79567   5.520   2.991   7.139 -0.6717  0.2822  0.3627
  590MOL0     C79568   5.384   2.970   7.150  0.1977 -0.4898 -0.0065
  590MOL0     C79569   4.964   3.062   7.129  0.5360  0.5653  0.2759
  590MOL0     C79570   4.908   2.973   7.223  0.3371 -0.1635 -0.0339
  590MOL0     C79571   4.766   2.955   7.237 -0.5279 -0.0849 -0.4477
  590MOL0     C79572   4.680   3.024   7.151  0.5949  0.7938 -0.1260
  590MOL0     O79573   4.546   3.004   7.137 -0.0748  0.0165 -0.1402
  590MOL0     C79574   4.481   2.911   7.229 -0.5038 -0.3420 -0.8569
  590MOL0     C79575   4.329   2.923   7.228  0.3895 -0.1880 -0.1240
  590MOL0     C79576   4.276   2.883   7.081  0.7257  0.5803  0.0094
  590MOL0     C79577   4.125   2.857   7.068  0.4212  0.0285 -0.8789
  590MOL0     C79578   4.086   2.840   6.931 -0.7355 -0.5838 -0.2128
  590MOL0     C79579   4.049   2.793   6.823  0.0969 -0.0827 -1.1446
  590MOL0     C79580   4.739   3.104   7.059 -0.6539 -0.3657 -0.2243
  590MOL0     C79581   4.876   3.133   7.046 -0.7626  0.5350 -0.4431
  590MOL0     C79582   4.919   3.234   6.939  0.0333  0.2352 -0.4023
  590MOL0     H79583   5.319   3.182   7.410  2.6678 -0.1017  2.7814
  590MOL0     H79584   5.565   3.230   7.371  0.1542 -1.7280  1.8810
  590MOL0     H79585   5.857   3.033   7.345 -0.8136  0.5679 -0.7576
  590MOL0     H79586   5.749   2.909   7.314  0.2177 -1.6062  0.7143
  590MOL0     H79587   5.838   2.888   7.077  3.2643 -2.0139 -1.9355
  590MOL0     H79588   5.959   2.863   7.204  0.4300 -0.0796 -0.8511
  590MOL0     H79589   6.060   3.055   7.173 -1.4588 -1.4998  0.8176
  590MOL0     H79590   5.934   3.140   7.088  0.8423  1.1848  0.2541
  590MOL0     H79591   6.110   2.896   6.985 -0.8556 -0.1770  1.1523
  590MOL0     H79592   5.977   2.952   6.894 -0.6440 -0.9169  0.6248
  590MOL0     H79593   6.155   3.075   6.799 -0.6301 -0.0713  0.3713
  590MOL0     H79594   6.086   3.193   6.909 -1.9566 -1.0543  0.0874
  590MOL0     H79595   6.266   3.104   7.078  1.3083  1.8431  0.9089
  590MOL0     H79596   6.336   3.029   6.936 -0.2833  0.1513  1.1340
  590MOL0     H79597   6.410   3.263   7.011 -2.4507  1.4356  1.6953
  590MOL0     H79598   6.270   3.324   6.948  0.5726  0.2372 -0.1242
  590MOL0     H79599   6.487   3.204   6.780  1.0664  0.2518 -0.4491
  590MOL0     H79600   6.312   3.232   6.726 -1.3266  0.1509  1.9269
  590MOL0     H79601   6.457   3.381   6.543 -2.0619 -0.2741 -0.3374
  590MOL0     H79602   6.492   3.621   6.447  0.2952 -1.7663 -0.3253
  590MOL0     H79603   6.516   3.753   6.561 -1.3526  0.9453 -0.4299
  590MOL0     H79604   6.714   3.710   6.413  0.3912 -0.7712 -0.0525
  590MOL0     H79605   6.754   3.681   6.581  3.2253 -1.5415 -0.6671
  590MOL0     H79606   6.712   3.480   6.364 -0.6263  4.8441 -1.4254
  590MOL0     H79607   6.744   3.420   6.526  1.5725 -1.1210 -1.4224
  590MOL0     H79608   6.923   3.625   6.417  2.0563 -0.3341  2.4824
  590MOL0     H79609   6.930   3.454   6.358 -0.5961 -0.6174  0.9897
  590MOL0     H79610   7.158   3.544   6.385  2.1195 -2.3708  0.0898
  590MOL0     H79611   7.396   3.594   6.430 -1.0705 -0.9768 -0.3572
  590MOL0     H79612   7.656   3.820   6.752 -0.7914 -0.5857 -0.3504
  590MOL0     H79613   7.902   3.899   6.794  2.5037 -0.2383 -0.4477
  590MOL0     H79614   8.237   3.918   6.782  0.8461 -0.5786  1.0464
  590MOL0     H79615   8.107   3.847   6.869  2.1323  1.8624  0.6334
  590MOL0     H79616   8.279   3.699   6.901  2.1634 -0.6746 -1.2316
  590MOL0     H79617   8.193   3.611   6.779  2.0694 -1.1068 -1.7863
  590MOL0     H79618   8.352   3.714   6.610  1.9661 -2.2548 -0.8946
  590MOL0     H79619   8.444   3.761   6.752 -0.5170 -1.1013  0.1286
  590MOL0     H79620   8.365   3.474   6.719  1.0739 -0.2657  1.6366
  590MOL0     H79621   8.477   3.546   6.823  1.4328  0.5103  0.0093
  590MOL0     H79622   8.640   3.593   6.688 -0.1877 -2.0385  1.0325
  590MOL0     H79623   8.543   3.603   6.539  0.0042  0.1862 -0.5127
  590MOL0     H79624   8.609   3.350   6.702 -2.0290 -0.0453 -0.4602
  590MOL0     H79625   8.502   3.346   6.564 -1.0745 -0.5096  2.4557
  590MOL0     H79626   8.804   3.424   6.577  0.5283 -0.2240  1.2143
  590MOL0     H79627   8.700   3.396   6.426  2.6161 -1.9515 -1.2228
  590MOL0     H79628   8.685   3.165   6.479  2.2262 -2.2019  0.8562
  590MOL0     H79629   8.848   3.210   6.461  0.8287 -0.0258  0.9885
  590MOL0     H79630   8.046   3.601   6.529 -0.7626 -0.5137  0.3069
  590MOL0     H79631   7.827   3.538   6.468 -2.7145  1.8620 -0.6920
  590MOL0     H79632   7.314   3.533   6.843 -1.3615  2.2743 -0.0048
  590MOL0     H79633   7.081   3.482   6.788  0.2829 -3.6889 -0.9613
  590MOL0     H79634   5.586   2.931   7.077  1.2137  1.0031  1.6164
  590MOL0     H79635   5.318   2.917   7.083 -0.0586  2.8765 -2.6656
  590MOL0     H79636   4.969   2.909   7.286  0.3383  3.0626  3.5781
  590MOL0     H79637   4.738   2.884   7.314 -1.7342  0.6813 -0.1597
  590MOL0     H79638   4.516   2.915   7.333  5.3563 -3.7563 -2.2195
  590MOL0     H79639   4.513   2.811   7.199  0.8928  0.0321 -0.7075
  590MOL0     H79640   4.299   3.023   7.263 -0.4202  0.4402 -2.4512
  590MOL0     H79641   4.292   2.844   7.294  1.0715 -1.2774 -1.0260
  590MOL0     H79642   4.319   2.787   7.050 -1.8877 -0.0237 -2.1541
  590MOL0     H79643   4.299   2.959   7.005 -1.7561 -0.5093 -1.9637
  590MOL0     H79644   4.106   2.765   7.124 -0.8987  0.2660 -0.9168
  590MOL0     H79645   4.077   2.939   7.123 -1.0735 -2.0843  1.1722
  590MOL0     H79646   4.021   2.752   6.728 -2.7680 -0.4822 -0.2375
  590MOL0     H79647   4.676   3.151   6.985 -0.5654 -1.6636 -1.1487
  590MOL0     H79648   4.839   3.294   6.893 -0.1701 -0.3086 -0.7706
  590MOL0     H79649   4.995   3.307   6.967  1.2591 -0.5700 -1.5202
  590MOL0     H79650   4.955   3.171   6.858 -0.9556 -2.1939  0.9480
  591MOL0     O79651   6.742   8.990   6.439 -0.2575  0.5545  0.2917
  591MOL0     C79652   6.760   8.871   6.452 -0.3572 -0.1579  0.0097
  591MOL0     O79653   6.859   8.796   6.397  0.2152  0.2387  1.0332
  591MOL0     C79654   6.922   8.859   6.295  0.0734  0.2229 -0.1797
  591MOL0     C79655   6.892   8.820   6.165 -0.0857 -0.3517  0.0153
  591MOL0     C79656   6.977   8.856   6.062 -0.3991 -0.7500  0.8476
  591MOL0     C79657   7.090   8.939   6.075 -0.0466 -0.7372  0.6773
  591MOL0     O79658   7.167   8.968   5.970 -0.1142 -0.5338  0.2900
  591MOL0     C79659   7.307   8.975   5.993  0.0667 -0.2204 -0.1859
  591MOL0     C79660   7.362   8.977   5.847 -0.8586 -0.8827  0.1457
  591MOL0     C79661   7.516   8.980   5.847 -0.2239 -0.7024 -0.9597
  591MOL0     C79662   7.583   9.021   5.717  0.5417 -0.7067 -0.3533
  591MOL0     C79663   7.733   8.994   5.739  0.0052  0.8552 -0.7019
  591MOL0     C79664   7.813   9.044   5.620  0.3975  0.1466 -0.8026
  591MOL0     C79665   7.958   9.002   5.608  1.0001  0.1232 -0.1146
  591MOL0     C79666   8.035   8.993   5.744  0.1041 -0.1643 -0.7205
  591MOL0     N79667   8.167   8.946   5.725 -0.5924 -0.2830 -0.4360
  591MOL0     C79668   8.247   8.888   5.824 -0.0472  0.0364 -0.2745
  591MOL0     C79669   8.345   8.811   5.761  0.4732 -0.1686 -0.2366
  591MOL0     C79670   8.461   8.741   5.835  0.6606 -0.3732 -0.7396
  591MOL0     C79671   8.554   8.852   5.885  0.9698 -0.0857 -0.4914
  591MOL0     C79672   8.678   8.796   5.946 -0.4433 -0.9078  0.1156
  591MOL0     C79673   8.786   8.898   5.963 -0.5349 -0.1618  0.0102
  591MOL0     O79674   8.879   8.861   6.070 -0.4195 -0.6079  0.0187
  591MOL0     C79675   9.013   8.831   6.056 -0.3738  0.7979  0.5946
  591MOL0     C79676   9.093   8.808   6.167 -1.0576  0.1857  0.2470
  591MOL0     C79677   9.235   8.783   6.159 -0.4257 -1.0383 -0.2455
  591MOL0     C79678   9.299   8.784   6.031  1.0143 -0.2696 -0.3811
  591MOL0     C79679   9.442   8.767   6.007  0.4561  0.7508  0.2990
  591MOL0     O79680   9.511   8.732   6.123 -0.1617 -0.0117 -0.2046
  591MOL0     C79681   9.646   8.742   6.120 -0.0503 -0.0328  0.5065
  591MOL0     C79682   9.704   8.620   6.110 -1.5274  0.1001 -0.1068
  591MOL0     C79683   9.843   8.614   6.132  0.8591 -0.3639 -0.4010
  591MOL0     C79684   9.919   8.730   6.155  0.4230 -0.3440  0.1610
  591MOL0     O79685  10.058   8.713   6.158  0.5609 -0.0319 -0.3218
  591MOL0     C79686  10.136   8.828   6.143 -0.0276 -0.1655  0.3219
  591MOL0     C79687  10.276   8.785   6.164 -0.8586 -0.0097  1.0238
  591MOL0     C79688  10.375   8.904   6.188 -0.3066  0.3282 -0.4376
  591MOL0     C79689  10.513   8.863   6.229  0.6587  0.3863 -0.1758
  591MOL0     C79690  10.626   8.965   6.201  0.1755 -0.1761  0.1611
  591MOL0     C79691  10.717   8.982   6.324 -0.2541  0.3438  0.1109
  591MOL0     C79692  10.656   9.069   6.433  0.2230 -0.9605 -0.0780
  591MOL0     C79693  10.746   9.109   6.555  0.1860 -0.0020  0.1801
  591MOL0    Cl79694  10.862   9.224   6.499 -0.1049 -0.4848  0.0423
  591MOL0     C79695   9.854   8.853   6.169  0.0500  0.0789 -0.1692
  591MOL0     C79696   9.713   8.863   6.160  1.4452  0.3868  0.2053
  591MOL0     O79697   9.490   8.767   5.895 -0.6884 -0.3909 -0.0824
  591MOL0     C79698   9.209   8.797   5.924 -0.3323  0.5520  0.5245
  591MOL0     C79699   9.072   8.810   5.931 -0.8887  0.5764  0.2442
  591MOL0     N79700   8.328   8.830   5.620 -0.2383  0.4280 -0.4344
  591MOL0     N79701   8.228   8.917   5.607 -0.3518 -0.6416  0.1859
  591MOL0     C79702   7.116   8.981   6.210  0.3573  0.2330  0.4661
  591MOL0     C79703   7.036   8.935   6.315 -0.5311  0.0250  0.0135
  591MOL0     C79704   6.655   8.804   6.533 -0.1118  0.1979 -0.5330
  591MOL0     C79705   6.547   8.882   6.576 -0.7009 -0.2086  0.3123
  591MOL0     C79706   6.444   8.822   6.639  0.6671 -0.5081 -0.1805
  591MOL0     C79707   6.424   8.689   6.663 -0.6913  0.9672  0.4655
  591MOL0     O79708   6.306   8.644   6.715 -0.0522  0.0298  0.5360
  591MOL0     C79709   6.272   8.504   6.738 -0.6684 -0.9420 -0.3925
  591MOL0     C79710   6.134   8.499   6.804 -0.4068  0.1677  0.7938
  591MOL0     C79711   6.017   8.534   6.703 -0.3825  0.2554  0.9405
  591MOL0     C79712   5.885   8.551   6.780  0.2824 -0.0250  0.8280
  591MOL0     C79713   5.843   8.434   6.851  0.1381 -0.3251 -0.6594
  591MOL0     C79714   5.818   8.325   6.905 -0.1316  1.2194  0.0424
  591MOL0     C79715   6.534   8.612   6.624  0.0066  0.4614 -0.0864
  591MOL0     C79716   6.654   8.666   6.574 -0.6459  0.8244 -0.4833
  591MOL0     C79717   6.772   8.575   6.588 -0.6692  0.2397  0.0337
  591MOL0     H79718   6.817   8.742   6.151  0.6436 -0.9380 -0.6968
  591MOL0     H79719   6.963   8.818   5.961 -2.4382 -0.1427  0.8566
  591MOL0     H79720   7.336   9.063   6.052  1.6637 -0.8544  0.0466
  591MOL0     H79721   7.350   8.887   6.041  0.6525 -0.9434 -1.9778
  591MOL0     H79722   7.349   9.075   5.801  3.1723  1.6211  3.6465
  591MOL0     H79723   7.322   8.897   5.784  0.1419 -1.3987  0.1313
  591MOL0     H79724   7.538   8.876   5.875  0.7945 -0.6061 -1.3469
  591MOL0     H79725   7.553   9.041   5.930 -1.0487 -1.5426  0.0443
  591MOL0     H79726   7.562   8.965   5.626 -1.4420  0.0637 -0.4032
  591MOL0     H79727   7.564   9.126   5.695  0.3663 -0.4802  0.8008
  591MOL0     H79728   7.766   9.051   5.827  2.3945 -0.7558 -0.4655
  591MOL0     H79729   7.753   8.892   5.771 -3.6979  0.4796  0.9459
  591MOL0     H79730   7.764   9.008   5.530 -3.9435 -0.4298  1.5583
  591MOL0     H79731   7.811   9.153   5.626 -0.5734  0.0395  1.5318
  591MOL0     H79732   8.004   9.085   5.553 -1.4646  2.0395  0.5542
  591MOL0     H79733   7.978   8.905   5.562  0.3534 -0.8777  1.6168
  591MOL0     H79734   8.027   9.087   5.800 -0.9474 -0.1536 -0.8766
  591MOL0     H79735   7.990   8.917   5.809 -2.8745  2.3913  0.5069
  591MOL0     H79736   8.242   8.906   5.931  0.1671 -0.6761 -0.1428
  591MOL0     H79737   8.434   8.692   5.929  1.2028 -0.2596 -0.5224
  591MOL0     H79738   8.515   8.670   5.773 -0.9093  0.4635 -3.2535
  591MOL0     H79739   8.570   8.921   5.802 -0.6196  1.7660  0.6453
  591MOL0     H79740   8.515   8.921   5.961  3.7013 -1.3245  2.2605
  591MOL0     H79741   8.712   8.714   5.881  2.1142  0.1054  0.0787
  591MOL0     H79742   8.652   8.743   6.039  3.2451 -2.9455  0.1809
  591MOL0     H79743   8.740   8.996   5.980  1.0497  0.3429  1.7398
  591MOL0     H79744   8.838   8.899   5.866 -0.6351  2.1514 -0.0746
  591MOL0     H79745   9.044   8.802   6.264  1.2715  1.2288  1.5513
  591MOL0     H79746   9.291   8.772   6.251  0.3837  0.7974 -0.4774
  591MOL0     H79747   9.645   8.533   6.085 -1.5987 -0.3261  1.4325
  591MOL0     H79748   9.892   8.519   6.114  0.9779 -0.4713  0.4526
  591MOL0     H79749  10.120   8.886   6.052  1.9117  1.8906  1.1936
  591MOL0     H79750  10.111   8.889   6.231 -0.4677 -0.5729  0.4828
  591MOL0     H79751  10.285   8.720   6.252 -0.4873 -1.4155 -0.0206
  591MOL0     H79752  10.318   8.735   6.076  4.1253 -0.7925  3.4926
  591MOL0     H79753  10.373   8.979   6.109  2.4021  0.3654 -0.5588
  591MOL0     H79754  10.343   8.967   6.271  1.9412  1.1989 -0.1582
  591MOL0     H79755  10.536   8.779   6.164 -0.6019 -1.2996  1.4395
  591MOL0     H79756  10.515   8.825   6.332  0.3547  1.4265  0.2287
  591MOL0     H79757  10.607   9.069   6.174  1.0481  0.4670  1.8984
  591MOL0     H79758  10.684   8.932   6.114  0.4181  2.1552 -0.6305
  591MOL0     H79759  10.741   8.886   6.371  1.0554  0.5812 -0.0620
  591MOL0     H79760  10.809   9.034   6.297 -0.3203  0.8265  0.7767
  591MOL0     H79761  10.566   9.018   6.468 -1.1602  2.2716  1.5204
  591MOL0     H79762  10.617   9.153   6.375  2.0224 -0.9575 -1.3718
  591MOL0     H79763  10.683   9.148   6.635 -0.4946 -0.8405  0.0728
  591MOL0     H79764  10.776   9.022   6.615 -2.6228 -0.6652  0.7735
  591MOL0     H79765   9.899   8.947   6.201 -0.6525  0.5250 -0.4696
  591MOL0     H79766   9.659   8.954   6.184  1.8568  1.0429 -1.2559
  591MOL0     H79767   9.241   8.800   5.820 -0.8038 -0.5021  0.3311
  591MOL0     H79768   9.017   8.799   5.839 -1.1181  0.4754  0.3937
  591MOL0     H79769   7.200   9.042   6.241  0.7413 -0.6773  1.2524
  591MOL0     H79770   7.074   8.966   6.412 -3.5302  0.5401  1.1252
  591MOL0     H79771   6.545   8.989   6.560  1.1073 -0.2981 -0.8394
  591MOL0     H79772   6.361   8.891   6.648  0.0325 -1.2427 -0.2215
  591MOL0     H79773   6.343   8.457   6.808 -0.4333 -0.3244 -0.2096
  591MOL0     H79774   6.273   8.452   6.642  0.4354 -0.2399 -0.7847
  591MOL0     H79775   6.146   8.566   6.889  2.1056 -0.9136  1.3768
  591MOL0     H79776   6.116   8.396   6.834  1.1408 -0.6454 -0.8704
  591MOL0     H79777   6.006   8.444   6.641  3.0685  0.5353 -0.2805
  591MOL0     H79778   6.032   8.624   6.643 -1.5434  0.4145  0.8596
  591MOL0     H79779   5.865   8.639   6.841 -2.3786  1.8902 -2.4925
  591MOL0     H79780   5.808   8.549   6.703  0.5116  0.1667  0.5952
  591MOL0     H79781   5.811   8.223   6.936  0.8896  1.6751  1.9133
  591MOL0     H79782   6.532   8.509   6.655  0.4914  0.8560  1.3072
  591MOL0     H79783   6.821   8.583   6.685 -1.2420  1.7639  0.2188
  591MOL0     H79784   6.745   8.471   6.564  0.1470 -0.2956  1.3209
  591MOL0     H79785   6.845   8.592   6.508 -0.4751  0.5760  0.2817
  592MOL0     O79786   8.775  10.917   9.474  0.6230 -0.1672  0.2951
  592MOL0     C79787   8.710  10.827   9.410  0.1567 -0.3889 -0.8541
  592MOL0     O79788   8.765  10.717   9.353  0.1667 -0.7148 -0.2644
  592MOL0     C79789   8.904  10.706   9.367  0.3076  0.0666  0.4448
  592MOL0     C79790   9.007  10.777   9.304 -0.0040 -0.4253  0.1674
  592MOL0     C79791   9.144  10.745   9.338  0.0931 -0.1725  0.2155
  592MOL0     C79792   9.178  10.660   9.437  1.2730  1.1519 -0.4219
  592MOL0     O79793   9.305  10.659   9.478  0.3568  0.1715 -0.5072
  592MOL0     C79794   9.345  10.574   9.587  0.2702  1.2810 -0.2941
  592MOL0     C79795   9.496  10.601   9.627 -1.1363  0.0609 -0.4831
  592MOL0     C79796   9.602  10.571   9.519  0.0209  0.1573  0.0175
  592MOL0     C79797   9.747  10.617   9.546 -0.6899  0.0677 -0.6189
  592MOL0     C79798   9.833  10.600   9.421 -0.4200 -0.7533 -0.3224
  592MOL0     C79799   9.973  10.652   9.444 -0.6759 -0.7470  1.3256
  592MOL0     C79800  10.047  10.672   9.308  0.2393  0.0195  0.1046
  592MOL0     C79801  10.195  10.665   9.345 -0.3887 -0.0246  0.2478
  592MOL0     N79802  10.263  10.796   9.328 -0.0314  0.4560  0.0191
  592MOL0     C79803  10.284  10.854   9.209  0.6194 -0.8404  0.1559
  592MOL0     C79804  10.364  10.956   9.250 -1.3127  0.3714 -0.2726
  592MOL0     C79805  10.408  11.064   9.150  0.2627  0.0612 -0.0031
  592MOL0     C79806  10.561  11.079   9.175  0.0356 -0.2271  0.0990
  592MOL0     C79807  10.635  10.947   9.142 -0.1579  0.2519 -0.5281
  592MOL0     C79808  10.788  10.952   9.159 -0.7955  0.9771  1.1951
  592MOL0     O79809  10.860  10.831   9.130  0.0702  0.0627 -0.1570
  592MOL0     C79810  10.995  10.837   9.150  0.2600  0.3878  0.6398
  592MOL0     C79811  11.078  10.952   9.158 -0.1978  1.0983  0.2682
  592MOL0     C79812  11.215  10.929   9.165 -0.7339  0.5792 -0.3675
  592MOL0     C79813  11.263  10.800   9.188  0.7039 -0.4866  0.1224
  592MOL0     C79814  11.404  10.784   9.209  0.3740 -0.0170 -0.2781
  592MOL0     O79815  11.478  10.881   9.148 -0.3813  0.0950 -0.3738
  592MOL0     C79816  11.617  10.886   9.156 -0.2553 -0.0119 -0.1095
  592MOL0     C79817  11.699  10.830   9.262 -0.0469  0.3980 -0.4771
  592MOL0     C79818  11.835  10.850   9.276 -0.4233 -0.4139 -0.5376
  592MOL0     C79819  11.898  10.917   9.168 -0.8584 -0.2637  0.7715
  592MOL0     O79820  12.034  10.937   9.149 -0.5568 -0.1082 -0.2152
  592MOL0     C79821  12.111  10.880   9.253  0.5344 -0.1388  0.3967
  592MOL0     C79822  12.249  10.938   9.242 -0.2882  0.1082 -0.9426
  592MOL0     C79823  12.340  10.872   9.347 -0.4884  0.4351  0.1191
  592MOL0     C79824  12.491  10.887   9.324  0.1176 -0.3364 -0.4565
  592MOL0     C79825  12.571  10.859   9.445  0.3279 -0.0113  0.1637
  592MOL0     C79826  12.586  10.983   9.536  0.0662  0.3158  1.2082
  592MOL0     C79827  12.666  10.962   9.661  0.2849  0.9987  0.1098
  592MOL0     C79828  12.707  11.080   9.734  0.4564  0.4588  0.6814
  592MOL0    Cl79829  12.776  11.049   9.895 -0.1934 -0.1180 -0.1981
  592MOL0     C79830  11.825  10.968   9.053 -1.1504  0.6318 -0.0468
  592MOL0     C79831  11.686  10.958   9.057 -0.1307 -0.1488 -0.1325
  592MOL0     O79832  11.450  10.681   9.258  0.0002 -0.1723 -0.3242
  592MOL0     C79833  11.178  10.691   9.184  0.1375  0.6088 -0.6748
  592MOL0     C79834  11.040  10.716   9.161 -0.9548  0.0744  0.0190
  592MOL0     N79835  10.396  10.946   9.389 -0.1694 -0.3857 -0.7126
  592MOL0     N79836  10.326  10.852   9.430  0.2681 -0.4176 -0.3798
  592MOL0     C79837   9.076  10.581   9.491  0.1571 -0.4599 -0.2043
  592MOL0     C79838   8.942  10.605   9.452 -0.3346  0.0234  0.6638
  592MOL0     C79839   8.571  10.851   9.385  0.5499 -0.1097 -0.5749
  592MOL0     C79840   8.529  10.863   9.255  0.5228 -0.4043 -0.6436
  592MOL0     C79841   8.396  10.881   9.221  0.8085  0.1839 -0.0958
  592MOL0     C79842   8.302  10.896   9.327  0.4808  0.0061  0.0357
  592MOL0     O79843   8.179  10.903   9.274 -0.6641  0.1297  0.0112
  592MOL0     C79844   8.066  10.961   9.348 -0.3797 -1.2494  0.1575
  592MOL0     C79845   7.936  10.911   9.288 -0.4674  0.1072 -0.2110
  592MOL0     C79846   7.806  10.952   9.363 -0.4265  0.3435 -0.2819
  592MOL0     C79847   7.798  11.102   9.395  0.6302  0.2209 -0.1302
  592MOL0     C79848   7.684  11.140   9.477 -0.3422 -1.5614 -0.8080
  592MOL0     C79849   7.594  11.181   9.557 -0.7732  0.5080  1.0254
  592MOL0     C79850   8.348  10.892   9.460  0.3238 -0.0989  0.5221
  592MOL0     C79851   8.473  10.863   9.491  0.0728 -0.4568 -0.2019
  592MOL0     C79852   8.514  10.863   9.637  0.1511  0.0194 -0.9355
  592MOL0     H79853   8.990  10.846   9.222 -0.1110 -1.2210 -0.5040
  592MOL0     H79854   9.230  10.799   9.301  0.1946 -1.8165 -2.1944
  592MOL0     H79855   9.285  10.587   9.677 -0.2306 -2.5372  0.1022
  592MOL0     H79856   9.333  10.469   9.560 -0.2368  1.2266  0.1490
  592MOL0     H79857   9.527  10.542   9.713 -0.0325  1.7520  0.3562
  592MOL0     H79858   9.508  10.704   9.663  2.0827 -1.2769  3.0342
  592MOL0     H79859   9.563  10.608   9.423  0.3757 -1.4333 -0.7583
  592MOL0     H79860   9.615  10.463   9.520 -2.7101 -0.2741 -1.2822
  592MOL0     H79861   9.749  10.722   9.579  0.6818 -0.3718  0.8861
  592MOL0     H79862   9.793  10.559   9.627  2.8148  1.4778 -1.3945
  592MOL0     H79863   9.843  10.493   9.399  3.1143 -1.1467  2.2651
  592MOL0     H79864   9.785  10.657   9.341 -1.7962  1.0150  1.6556
  592MOL0     H79865   9.967  10.745   9.500 -1.1083 -0.1291  0.2888
  592MOL0     H79866  10.030  10.576   9.499  1.9063 -0.2939 -0.5236
  592MOL0     H79867  10.019  10.765   9.257  0.7287  1.4742  2.3393
  592MOL0     H79868  10.022  10.586   9.245  1.0195 -0.8514  0.9416
  592MOL0     H79869  10.215  10.631   9.447 -0.8982  0.8456  0.6522
  592MOL0     H79870  10.233  10.591   9.273  1.2581  1.0072  0.0266
  592MOL0     H79871  10.241  10.832   9.111  1.2146 -0.7288 -0.1349
  592MOL0     H79872  10.384  11.040   9.045  1.0992  0.0502 -0.1957
  592MOL0     H79873  10.354  11.155   9.175 -0.7149 -0.0770 -1.4380
  592MOL0     H79874  10.598  11.158   9.110 -1.8557 -0.8988 -1.9382
  592MOL0     H79875  10.576  11.119   9.275  0.6957  2.2145 -0.9163
  592MOL0     H79876  10.604  10.919   9.040 -2.6569  1.1457 -0.0928
  592MOL0     H79877  10.594  10.870   9.207  2.4425 -0.9123 -0.1465
  592MOL0     H79878  10.821  10.986   9.257  2.2300  2.3471 -0.1773
  592MOL0     H79879  10.820  11.032   9.092  0.7086  1.3268  2.2896
  592MOL0     H79880  11.038  11.050   9.133 -2.9636 -0.0995 -0.4709
  592MOL0     H79881  11.282  11.014   9.152 -0.6717  0.6344  0.2872
  592MOL0     H79882  11.648  10.790   9.349  1.1564 -0.1095  0.0163
  592MOL0     H79883  11.877  10.803   9.364 -2.9711 -2.9855 -0.5388
  592MOL0     H79884  12.073  10.891   9.355 -1.6766 -1.4410 -0.2218
  592MOL0     H79885  12.118  10.771   9.246  0.2387 -0.1187 -0.3052
  592MOL0     H79886  12.288  10.917   9.142  0.8434 -1.9764 -0.1178
  592MOL0     H79887  12.241  11.046   9.260 -3.0612 -0.3889  1.7132
  592MOL0     H79888  12.329  10.919   9.445 -3.3046  1.0709 -0.4282
  592MOL0     H79889  12.312  10.767   9.357  0.6792 -0.2207 -2.4910
  592MOL0     H79890  12.503  10.985   9.279 -3.5816  0.8393  0.7457
  592MOL0     H79891  12.520  10.808   9.254  1.0862 -2.5699  2.2340
  592MOL0     H79892  12.670  10.825   9.413  0.3993 -1.4395  1.7040
  592MOL0     H79893  12.531  10.775   9.503  0.4696  1.3212  2.2944
  592MOL0     H79894  12.634  11.059   9.474 -0.3846  0.3130  0.8509
  592MOL0     H79895  12.492  11.027   9.567  1.7826  4.6021  0.9725
  592MOL0     H79896  12.760  10.912   9.635  1.9867  3.0091  2.0173
  592MOL0     H79897  12.602  10.898   9.722  0.6875 -1.9938 -2.3177
  592MOL0     H79898  12.775  11.139   9.672 -0.4691  1.6157  0.7324
  592MOL0     H79899  12.618  11.144   9.744  0.3286 -0.0159  3.3977
  592MOL0     H79900  11.889  11.010   8.975  1.8767  0.0233  1.9205
  592MOL0     H79901  11.625  10.991   8.973  0.8518 -0.2807 -0.9133
  592MOL0     H79902  11.217  10.590   9.189 -1.5710 -0.2455 -2.7302
  592MOL0     H79903  10.979  10.629   9.142  1.2584 -1.7360  0.7105
  592MOL0     H79904   9.100  10.503   9.562 -1.8345  0.0757  1.1385
  592MOL0     H79905   8.864  10.540   9.489  0.5740  0.3422  3.3501
  592MOL0     H79906   8.601  10.843   9.176  1.1678 -0.2807 -0.0951
  592MOL0     H79907   8.371  10.884   9.116  1.5445  0.9024 -0.2702
  592MOL0     H79908   8.056  11.069   9.333  1.7186 -0.1862  4.8047
  592MOL0     H79909   8.075  10.954   9.456  0.1347 -0.0689  0.2123
  592MOL0     H79910   7.934  10.803   9.298 -0.3109  0.2626  1.9845
  592MOL0     H79911   7.939  10.939   9.182  0.9222 -1.7869 -0.7157
  592MOL0     H79912   7.802  10.900   9.459  0.0759 -0.5379 -0.7241
  592MOL0     H79913   7.720  10.922   9.301 -0.0001 -1.9602  0.1585
  592MOL0     H79914   7.879  11.130   9.463  0.9152  0.4922 -0.5789
  592MOL0     H79915   7.801  11.170   9.309 -1.4615 -0.3150 -0.6795
  592MOL0     H79916   7.537  11.213   9.642  0.0540  1.0544  1.3815
  592MOL0     H79917   8.275  10.910   9.538 -1.1106 -1.4076 -0.4504
  592MOL0     H79918   8.584  10.781   9.655 -1.5085 -0.7832  2.6781
  592MOL0     H79919   8.567  10.954   9.667  0.1459 -0.3574  0.2518
  592MOL0     H79920   8.431  10.839   9.704  0.6791 -3.8102 -1.4240
  593MOL0     O79921   5.967   3.323   9.183 -0.8800  0.3948 -0.2918
  593MOL0     C79922   5.930   3.380   9.082 -0.8394 -0.1930 -0.2171
  593MOL0     O79923   5.971   3.499   9.033 -0.7951 -0.1791  0.2667
  593MOL0     C79924   6.091   3.550   9.092 -0.4232  0.1734 -0.2308
  593MOL0     C79925   6.113   3.652   9.186  0.5856  0.1435  0.5124
  593MOL0     C79926   6.237   3.684   9.229  0.3805 -0.9158 -0.2899
  593MOL0     C79927   6.342   3.598   9.204 -0.0514 -0.4312 -0.1863
  593MOL0     O79928   6.468   3.606   9.256  0.0256 -0.1329  0.0324
  593MOL0     C79929   6.498   3.712   9.349  0.6750  0.4874  0.4009
  593MOL0     C79930   6.631   3.700   9.412 -0.5250 -0.3146 -0.4538
  593MOL0     C79931   6.739   3.745   9.316  0.7843 -0.4745 -0.8315
  593MOL0     C79932   6.870   3.677   9.356  0.5236 -0.5157 -0.0454
  593MOL0     C79933   6.986   3.733   9.276 -0.8925 -0.4158  0.4359
  593MOL0     C79934   6.980   3.717   9.111 -0.3949 -0.4255 -0.6923
  593MOL0     C79935   7.122   3.722   9.048 -0.0332  0.6468  0.6587
  593MOL0     C79936   7.175   3.583   9.056  0.1970  0.0050 -0.2981
  593MOL0     N79937   7.311   3.582   9.007 -0.0079  0.3539  0.0328
  593MOL0     C79938   7.398   3.476   9.043  0.2826 -0.4365  0.3282
  593MOL0     C79939   7.516   3.519   8.982 -0.9701  1.0024  0.5344
  593MOL0     C79940   7.640   3.438   8.984  0.9473 -0.0140 -0.8482
  593MOL0     C79941   7.723   3.430   8.856 -0.1135 -0.0308 -0.2931
  593MOL0     C79942   7.654   3.359   8.740 -0.7824 -0.4756  0.5250
  593MOL0     C79943   7.606   3.219   8.765  0.8516 -0.2717  0.3424
  593MOL0     O79944   7.637   3.140   8.649 -0.3656  0.2340 -0.2177
  593MOL0     C79945   7.605   3.006   8.639  0.3411 -1.2274 -0.2604
  593MOL0     C79946   7.519   2.942   8.730 -0.4834 -0.0709 -0.9595
  593MOL0     C79947   7.503   2.804   8.722  0.5335 -0.2939 -0.9617
  593MOL0     C79948   7.557   2.723   8.619 -0.4534  0.0707  0.1940
  593MOL0     C79949   7.520   2.584   8.601 -0.5602  0.5204  0.0485
  593MOL0     O79950   7.478   2.518   8.712  0.7047  0.1907  0.1045
  593MOL0     C79951   7.444   2.383   8.694  0.1842  0.0737  0.1858
  593MOL0     C79952   7.330   2.335   8.627  0.6769  0.3306 -0.1210
  593MOL0     C79953   7.305   2.203   8.633  0.6990  0.2344  0.2674
  593MOL0     C79954   7.386   2.111   8.694  0.3787 -1.0490  0.7978
  593MOL0     O79955   7.358   1.979   8.696 -0.3355 -0.7639 -0.4399
  593MOL0     C79956   7.410   1.898   8.590 -0.7031  0.1473  1.3860
  593MOL0     C79957   7.349   1.942   8.456  0.2573 -0.6726  0.0926
  593MOL0     C79958   7.349   1.835   8.349  0.2360 -0.3248 -0.1299
  593MOL0     C79959   7.248   1.723   8.369 -0.0944 -0.2616  1.0912
  593MOL0     C79960   7.277   1.596   8.284  0.9062  0.5512 -0.1121
  593MOL0     C79961   7.247   1.600   8.134  0.0192  0.2156 -0.0709
  593MOL0     C79962   7.263   1.473   8.046 -0.2065  0.5521 -0.1423
  593MOL0     C79963   7.387   1.401   8.087 -0.5467 -0.2109 -0.0302
  593MOL0    Cl79964   7.439   1.264   7.972  0.2859 -0.2788 -0.0523
  593MOL0     C79965   7.498   2.156   8.768 -0.2363 -0.3877 -0.8370
  593MOL0     C79966   7.520   2.293   8.771 -0.2952 -0.1243 -0.8557
  593MOL0     O79967   7.531   2.529   8.490 -0.1993  0.4613 -1.1042
  593MOL0     C79968   7.638   2.786   8.529 -0.6406 -0.5964 -0.3895
  593MOL0     C79969   7.665   2.926   8.544  0.1452  0.4724 -0.2590
  593MOL0     N79970   7.499   3.628   8.903 -0.1737  0.7553  0.2957
  593MOL0     N79971   7.378   3.664   8.922 -0.0485 -0.0600  0.1107
  593MOL0     C79972   6.329   3.500   9.110 -0.1894  0.1086  0.3087
  593MOL0     C79973   6.203   3.479   9.054 -0.6315  0.6172 -0.9063
  593MOL0     C79974   5.832   3.303   9.006  0.3267 -0.7685  0.6877
  593MOL0     C79975   5.707   3.282   9.064 -1.1824  0.0903  0.3808
  593MOL0     C79976   5.609   3.219   8.991  0.4394  0.4148  0.3844
  593MOL0     C79977   5.621   3.187   8.853 -0.0410 -0.0527 -0.2834
  593MOL0     O79978   5.521   3.132   8.776  1.1221 -0.6294  0.3467
  593MOL0     C79979   5.379   3.154   8.807  0.7753  0.0596  0.4575
  593MOL0     C79980   5.293   3.038   8.747 -0.4061 -0.4183 -0.2810
  593MOL0     C79981   5.238   3.057   8.598  0.2965  0.0280  0.0345
  593MOL0     C79982   5.142   2.950   8.559  0.1289  0.5270  0.3566
  593MOL0     C79983   5.108   2.990   8.421 -0.2971 -0.4826  0.0865
  593MOL0     C79984   5.105   3.024   8.305 -0.6598  0.1745 -0.4580
  593MOL0     C79985   5.748   3.207   8.800  0.1995  0.4522 -0.4566
  593MOL0     C79986   5.850   3.270   8.874  0.5141 -0.0376  0.1298
  593MOL0     C79987   5.979   3.293   8.792 -0.3206  0.4073 -0.0445
  593MOL0     H79988   6.031   3.717   9.216 -0.4941 -1.1434  0.4257
  593MOL0     H79989   6.248   3.767   9.298 -2.5722 -1.6130  1.1616
  593MOL0     H79990   6.497   3.811   9.301 -2.0983  1.4545  2.1665
  593MOL0     H79991   6.426   3.711   9.431 -0.8367  2.7904 -0.7598
  593MOL0     H79992   6.650   3.598   9.446  1.2494 -0.4084 -1.6373
  593MOL0     H79993   6.629   3.767   9.498 -0.5199 -0.1847 -0.5536
  593MOL0     H79994   6.743   3.855   9.314  1.2665 -0.4635  0.0916
  593MOL0     H79995   6.703   3.705   9.221  0.6843 -0.4341 -0.8099
  593MOL0     H79996   6.890   3.685   9.463  3.2946  0.9037 -0.5647
  593MOL0     H79997   6.853   3.571   9.335 -1.7030  0.1016 -1.8064
  593MOL0     H79998   7.002   3.839   9.298  4.3983 -0.4460 -1.7601
  593MOL0     H79999   7.071   3.670   9.300  1.0110 -0.0835 -4.2431
  593MOL0     H80000   6.926   3.623   9.098 -2.3127  0.4494  0.4766
  593MOL0     H80001   6.919   3.801   9.075  0.5172  1.6406  2.1674
  593MOL0     H80002   7.180   3.801   9.096 -0.0829  0.2096  1.4552
  593MOL0     H80003   7.120   3.742   8.941 -1.4757 -2.0123  0.0972
  593MOL0     H80004   7.171   3.535   9.154  1.9920 -3.2233 -1.6735
  593MOL0     H80005   7.119   3.512   8.995  0.1679 -1.7471  1.6792
  593MOL0     H80006   7.376   3.398   9.116 -1.0750  1.0129  1.5450
  593MOL0     H80007   7.703   3.488   9.058 -0.6130  0.3538  0.2786
  593MOL0     H80008   7.623   3.336   9.020  1.4988  0.1025 -0.2423
  593MOL0     H80009   7.751   3.532   8.828 -2.3200  0.4927 -0.7420
  593MOL0     H80010   7.817   3.379   8.880 -0.3969 -0.5342 -0.2377
  593MOL0     H80011   7.724   3.360   8.655 -1.5916  0.5319 -0.1497
  593MOL0     H80012   7.581   3.434   8.709  1.2173  1.1117 -0.5907
  593MOL0     H80013   7.498   3.220   8.776  0.8304  0.3299  0.1168
  593MOL0     H80014   7.661   3.185   8.853  1.5543  1.4980  0.6478
  593MOL0     H80015   7.480   2.972   8.826 -0.8432 -0.6864 -0.9163
  593MOL0     H80016   7.444   2.750   8.796  0.1082 -0.4738 -1.4192
  593MOL0     H80017   7.260   2.396   8.571 -3.1778 -4.2738 -0.9458
  593MOL0     H80018   7.217   2.154   8.591  1.3289 -1.5212  0.8972
  593MOL0     H80019   7.519   1.903   8.585 -0.7262  1.2311  1.6606
  593MOL0     H80020   7.378   1.796   8.615  1.3820 -0.0174  3.8972
  593MOL0     H80021   7.242   1.960   8.470  0.4262 -0.8338  1.7337
  593MOL0     H80022   7.394   2.033   8.415  0.3915 -0.8452 -0.1476
  593MOL0     H80023   7.328   1.887   8.256  2.9193  5.4161  1.9952
  593MOL0     H80024   7.447   1.787   8.339  0.1125 -0.3074 -1.5288
  593MOL0     H80025   7.146   1.760   8.358  0.2207  0.9858  2.1190
  593MOL0     H80026   7.250   1.680   8.470  1.7542  0.6377  1.4739
  593MOL0     H80027   7.201   1.526   8.319  2.2456 -0.7933  0.1975
  593MOL0     H80028   7.379   1.558   8.295  0.7302 -0.2708 -1.1369
  593MOL0     H80029   7.148   1.643   8.120 -0.5321 -1.1458 -0.5448
  593MOL0     H80030   7.330   1.663   8.099  1.8812 -0.6860  2.4493
  593MOL0     H80031   7.267   1.493   7.938 -1.3422  0.9708 -0.1224
  593MOL0     H80032   7.179   1.404   8.056  0.4351 -0.3803 -0.9710
  593MOL0     H80033   7.464   1.479   8.092 -1.0284  0.2578  0.2297
  593MOL0     H80034   7.366   1.348   8.181  0.3408 -1.6167 -0.5950
  593MOL0     H80035   7.551   2.085   8.831 -0.7883 -1.8232 -1.9484
  593MOL0     H80036   7.596   2.335   8.837 -2.7397  1.7497  0.9505
  593MOL0     H80037   7.680   2.744   8.438  1.8363  0.4942  0.1735
  593MOL0     H80038   7.729   2.968   8.467  0.6928  0.0075 -0.0664
  593MOL0     H80039   6.415   3.442   9.079 -0.4222 -0.0368 -0.0742
  593MOL0     H80040   6.206   3.411   8.969 -0.9488 -2.1871  1.1742
  593MOL0     H80041   5.698   3.319   9.165  0.2890  0.6896  0.3088
  593MOL0     H80042   5.512   3.196   9.033  0.5263  0.0811  0.4061
  593MOL0     H80043   5.345   3.246   8.759 -1.2616 -1.0255 -0.2973
  593MOL0     H80044   5.352   3.156   8.913  0.7734 -1.3097  0.5074
  593MOL0     H80045   5.205   3.038   8.812  0.6483  1.4456  1.2369
  593MOL0     H80046   5.344   2.944   8.769  3.2409  1.5699  0.6010
  593MOL0     H80047   5.324   3.041   8.531  1.1650 -2.6285  1.6470
  593MOL0     H80048   5.190   3.155   8.590  0.7390  0.4681  2.1841
  593MOL0     H80049   5.191   2.853   8.551  1.7431  1.4092 -1.6286
  593MOL0     H80050   5.054   2.946   8.624  1.7037  0.2866  2.5689
  593MOL0     H80051   5.096   3.054   8.203  1.6310 -0.0740 -0.7798
  593MOL0     H80052   5.775   3.182   8.697  3.5516 -0.5259  0.5458
  593MOL0     H80053   6.007   3.396   8.769  3.8270 -0.9958 -2.2306
  593MOL0     H80054   6.063   3.255   8.851  1.5705  1.3830 -1.9855
  593MOL0     H80055   5.980   3.228   8.704 -1.0885 -0.1502  0.3389
  594MOL0     O80056   8.817   5.571   5.771  0.7491 -0.2104 -1.0596
  594MOL0     C80057   8.716   5.583   5.852 -0.7763  0.0787  0.2897
  594MOL0     O80058   8.728   5.643   5.981 -0.1206  0.3217  0.7303
  594MOL0     C80059   8.854   5.677   6.025 -0.7924  0.7009  0.2689
  594MOL0     C80060   8.929   5.588   6.102  0.1887  0.0010  0.6507
  594MOL0     C80061   9.057   5.628   6.139 -0.5532 -0.4987 -0.1217
  594MOL0     C80062   9.115   5.754   6.102 -0.6702  0.8557  0.0998
  594MOL0     O80063   9.238   5.780   6.166  0.4546 -0.5209 -0.8059
  594MOL0     C80064   9.298   5.903   6.127  0.6219  0.6148  0.3138
  594MOL0     C80065   9.444   5.912   6.170 -0.5179  0.5784  0.3936
  594MOL0     C80066   9.537   5.792   6.118 -0.1303  0.2265  0.5879
  594MOL0     C80067   9.691   5.810   6.155 -0.2436  0.2570  0.2001
  594MOL0     C80068   9.775   5.696   6.094  0.4550  0.5742  0.5902
  594MOL0     C80069   9.921   5.741   6.095  0.6270  0.2618  0.1562
  594MOL0     C80070   9.947   5.825   5.973 -0.5521 -0.0776  0.5443
  594MOL0     C80071  10.058   5.918   5.999 -0.1404 -0.5642  0.7990
  594MOL0     N80072  10.181   5.838   6.015 -0.2001 -0.4985 -0.0331
  594MOL0     C80073  10.254   5.788   5.906 -0.2788 -0.1885  0.7312
  594MOL0     C80074  10.360   5.736   5.965 -0.2506  1.3378 -0.9848
  594MOL0     C80075  10.475   5.664   5.891 -0.7431 -0.3415  0.4631
  594MOL0     C80076  10.615   5.724   5.909 -0.6105 -0.0802  0.1155
  594MOL0     C80077  10.727   5.658   5.829 -0.3947 -0.2644  0.0576
  594MOL0     C80078  10.869   5.653   5.888  0.5694  0.0520  0.3593
  594MOL0     O80079  10.952   5.547   5.833 -0.2529 -0.0277  0.1114
  594MOL0     C80080  11.064   5.517   5.907 -0.0142 -0.7058  0.3425
  594MOL0     C80081  11.081   5.531   6.047 -0.3906  0.4401 -0.0859
  594MOL0     C80082  11.202   5.492   6.106 -0.1866  0.4710 -0.2224
  594MOL0     C80083  11.309   5.439   6.030 -0.1199  0.0081  0.0796
  594MOL0     C80084  11.430   5.399   6.100  0.2376  0.1657 -0.4301
  594MOL0     O80085  11.534   5.369   6.017 -0.6646 -0.0797  0.0200
  594MOL0     C80086  11.651   5.315   6.063 -0.1500 -0.4669 -0.2051
  594MOL0     C80087  11.697   5.188   6.010  0.4809 -0.2222 -0.7319
  594MOL0     C80088  11.818   5.131   6.048  0.4528 -0.5319  0.4147
  594MOL0     C80089  11.893   5.206   6.134 -0.3080 -0.1186 -0.5583
  594MOL0     O80090  12.009   5.160   6.173  0.6941  0.6346  0.0299
  594MOL0     C80091  12.015   5.041   6.247 -0.3613 -1.1631 -1.1446
  594MOL0     C80092  12.053   5.068   6.397 -0.9011 -0.3409 -0.7492
  594MOL0     C80093  12.208   5.111   6.403 -0.0113 -0.3128  0.4424
  594MOL0     C80094  12.244   5.208   6.522  0.4551  0.1922 -0.6238
  594MOL0     C80095  12.397   5.245   6.519 -0.3901  0.0488  0.6037
  594MOL0     C80096  12.498   5.123   6.533  0.6537 -0.2581 -0.3559
  594MOL0     C80097  12.632   5.172   6.559  0.6650  0.5340 -0.5165
  594MOL0     C80098  12.710   5.043   6.591 -0.2605 -0.0824  0.0294
  594MOL0    Cl80099  12.878   5.083   6.592 -0.0282  0.8377  0.1614
  594MOL0     C80100  11.843   5.322   6.201  0.5914  0.6383 -0.5092
  594MOL0     C80101  11.727   5.379   6.159  0.9190 -0.4983 -0.1832
  594MOL0     O80102  11.436   5.410   6.221 -0.5589 -0.5016  0.0827
  594MOL0     C80103  11.289   5.424   5.889 -0.4515  0.2848 -0.3605
  594MOL0     C80104  11.167   5.457   5.827  0.1709 -0.5714 -0.8707
  594MOL0     N80105  10.355   5.752   6.103 -0.2225  0.4607 -1.0861
  594MOL0     N80106  10.250   5.809   6.130  0.0806 -0.1812 -0.5313
  594MOL0     C80107   9.032   5.841   6.024 -0.1983  0.6776 -0.0169
  594MOL0     C80108   8.899   5.802   5.989  0.2093  0.2579  0.2984
  594MOL0     C80109   8.574   5.558   5.807 -0.1175 -0.6677 -0.3690
  594MOL0     C80110   8.471   5.641   5.856 -0.5423  0.6422 -0.0424
  594MOL0     C80111   8.337   5.629   5.819  0.7354  0.1499 -0.6821
  594MOL0     C80112   8.302   5.527   5.723 -0.3259 -0.1001 -0.2856
  594MOL0     O80113   8.184   5.508   5.655 -0.2180 -0.3890 -0.0909
  594MOL0     C80114   8.084   5.604   5.663  0.2808  1.0796 -0.2728
  594MOL0     C80115   8.085   5.730   5.585  0.5404 -0.8704 -0.0504
  594MOL0     C80116   7.954   5.806   5.597  0.4275 -0.4655  0.4904
  594MOL0     C80117   7.857   5.786   5.720  0.7464 -0.1552 -0.3231
  594MOL0     C80118   7.757   5.889   5.740 -0.4866 -0.9962 -0.1964
  594MOL0     C80119   7.669   5.964   5.771  0.0958 -0.6713  0.3448
  594MOL0     C80120   8.400   5.452   5.671 -0.4696  1.0993 -0.1994
  594MOL0     C80121   8.533   5.457   5.713  0.0363  0.2291 -0.0189
  594MOL0     C80122   8.626   5.351   5.661  0.2790  0.7906 -1.2620
  594MOL0     H80123   8.886   5.494   6.133  0.8280  0.3939  2.8709
  594MOL0     H80124   9.119   5.563   6.200 -2.5493 -0.2222  2.3582
  594MOL0     H80125   9.297   5.906   6.018 -1.3335 -2.4176  0.1351
  594MOL0     H80126   9.233   5.984   6.163  0.3203 -0.4048  2.1785
  594MOL0     H80127   9.451   5.912   6.279  3.9326 -0.3647  0.2886
  594MOL0     H80128   9.481   6.007   6.130 -0.0768 -0.4865 -1.9109
  594MOL0     H80129   9.512   5.775   6.013 -0.8284  2.1576  0.4001
  594MOL0     H80130   9.513   5.694   6.160  5.2732 -2.8273 -2.2450
  594MOL0     H80131   9.722   5.907   6.115 -0.9647  0.4146  0.0129
  594MOL0     H80132   9.695   5.804   6.264  2.1323 -0.9260  0.1168
  594MOL0     H80133   9.764   5.602   6.148  2.8741 -1.6750 -2.5101
  594MOL0     H80134   9.742   5.667   5.994 -1.6092 -0.0188  1.3926
  594MOL0     H80135   9.936   5.789   6.192  1.3857 -0.0256  0.1852
  594MOL0     H80136   9.983   5.651   6.087  1.6752  0.2046  5.2013
  594MOL0     H80137   9.858   5.884   5.949  0.0777  0.6319 -0.0939
  594MOL0     H80138   9.971   5.769   5.882 -0.8017  0.4661  0.1358
  594MOL0     H80139  10.063   5.982   5.911 -0.9865 -0.6699  0.6591
  594MOL0     H80140  10.053   5.981   6.089 -0.2436 -0.3269  0.6278
  594MOL0     H80141  10.231   5.780   5.800  0.2424 -2.6668  0.7352
  594MOL0     H80142  10.483   5.565   5.938  0.6825 -1.0641 -1.1881
  594MOL0     H80143  10.463   5.652   5.783  1.9143  2.0136 -0.2047
  594MOL0     H80144  10.621   5.832   5.894 -1.7687  0.4744  2.8750
  594MOL0     H80145  10.631   5.710   6.017 -2.3263  0.6040  0.4778
  594MOL0     H80146  10.738   5.713   5.735  2.7790  1.5078  1.2938
  594MOL0     H80147  10.695   5.554   5.825  2.4557 -1.1662 -2.0873
  594MOL0     H80148  10.853   5.642   5.996 -2.1322 -0.9320 -0.0682
  594MOL0     H80149  10.924   5.745   5.869  0.2024  0.0846 -0.6023
  594MOL0     H80150  11.011   5.582   6.112 -0.1780  1.6005 -0.7331
  594MOL0     H80151  11.210   5.509   6.213  0.9972 -1.5319  0.0651
  594MOL0     H80152  11.620   5.136   5.954  0.8327 -1.5315 -0.0422
  594MOL0     H80153  11.850   5.041   5.996  0.7563 -1.4718  2.1502
  594MOL0     H80154  11.917   4.993   6.243 -0.0426 -1.9918  0.4042
  594MOL0     H80155  12.090   4.974   6.203  2.6761  1.1200  0.2062
  594MOL0     H80156  11.999   5.157   6.430 -1.8846 -1.0429 -0.4389
  594MOL0     H80157  12.027   4.989   6.468  2.3032  0.7382  1.8373
  594MOL0     H80158  12.278   5.027   6.412 -0.1189 -0.2489  2.1922
  594MOL0     H80159  12.237   5.168   6.314 -2.6312  0.0774 -0.2616
  594MOL0     H80160  12.227   5.155   6.617 -0.0574  1.8027  0.2077
  594MOL0     H80161  12.176   5.293   6.519  0.9254  0.6139  0.2472
  594MOL0     H80162  12.422   5.313   6.601  2.1996 -0.3623  0.2271
  594MOL0     H80163  12.418   5.296   6.425  1.0543  1.9727  1.8914
  594MOL0     H80164  12.465   5.045   6.602 -1.6102  0.3774 -0.6102
  594MOL0     H80165  12.498   5.070   6.437 -2.1320 -1.0090 -0.0323
  594MOL0     H80166  12.620   5.228   6.653 -2.1818  1.8787 -1.5507
  594MOL0     H80167  12.671   5.236   6.479  1.0733  1.9846  0.7849
  594MOL0     H80168  12.682   4.996   6.686 -1.6987 -1.1242 -0.8605
  594MOL0     H80169  12.685   4.961   6.523  1.4228  0.7193 -1.6424
  594MOL0     H80170  11.906   5.361   6.281  0.7843  0.6746 -0.6771
  594MOL0     H80171  11.711   5.479   6.199  1.6698  0.2510 -1.6530
  594MOL0     H80172  11.367   5.366   5.840  1.6774  1.9750  0.8182
  594MOL0     H80173  11.158   5.447   5.719 -0.1257  0.4659 -0.9566
  594MOL0     H80174   9.079   5.934   5.996  3.9206 -1.7199 -1.9903
  594MOL0     H80175   8.833   5.866   5.931 -1.7891  0.4755  2.6956
  594MOL0     H80176   8.495   5.721   5.925 -0.2553 -1.2998  2.2132
  594MOL0     H80177   8.254   5.687   5.858 -0.8759 -2.4380  0.0392
  594MOL0     H80178   8.079   5.618   5.771  1.3283 -1.7211  0.2223
  594MOL0     H80179   7.997   5.550   5.624  1.6824 -1.3156 -0.2474
  594MOL0     H80180   8.116   5.706   5.483 -0.2669  0.6976 -0.7101
  594MOL0     H80181   8.155   5.801   5.630  0.1394  0.2501 -1.1285
  594MOL0     H80182   7.900   5.780   5.506  1.3224 -4.1272  0.8737
  594MOL0     H80183   7.973   5.913   5.587  0.6087 -0.4852  0.6135
  594MOL0     H80184   7.803   5.693   5.700 -1.4998  1.5731 -2.9058
  594MOL0     H80185   7.925   5.776   5.805  2.7200  0.9590 -1.6844
  594MOL0     H80186   7.598   6.038   5.800 -0.6764 -1.2534 -0.0393
  594MOL0     H80187   8.363   5.379   5.600 -0.9271  1.7731 -0.6668
  594MOL0     H80188   8.566   5.271   5.617  2.9558 -1.7125 -0.7027
  594MOL0     H80189   8.697   5.374   5.581  0.8061  1.2070 -0.6815
  594MOL0     H80190   8.677   5.298   5.742  2.4115 -1.5131 -3.8982
  595MOL0     O80191   1.525   5.656   1.399  0.0575  0.5489 -0.4567
  595MOL0     C80192   1.592   5.568   1.352 -0.9953  0.1647  0.0573
  595MOL0     O80193   1.546   5.454   1.297 -0.3102  0.2330  0.2815
  595MOL0     C80194   1.422   5.462   1.250  0.0277  0.1008 -0.1877
  595MOL0     C80195   1.304   5.478   1.331 -1.1446  0.3206 -0.5543
  595MOL0     C80196   1.179   5.489   1.266  0.4743 -0.4480  0.4106
  595MOL0     C80197   1.159   5.485   1.130 -1.0522  0.7014 -0.6647
  595MOL0     O80198   1.034   5.491   1.078 -0.2425 -0.0603 -0.3082
  595MOL0     C80199   1.013   5.602   0.985  0.1119  0.7106 -0.3342
  595MOL0     C80200   1.000   5.749   1.029 -0.4842  0.2084  0.4645
  595MOL0     C80201   0.914   5.745   1.158 -0.8078  0.1542 -0.3151
  595MOL0     C80202   0.887   5.890   1.208  0.0895  0.3091 -0.1419
  595MOL0     C80203   0.798   5.879   1.340 -0.2944 -0.4510 -0.9935
  595MOL0     C80204   0.822   5.999   1.431 -0.1904  0.4083 -0.6347
  595MOL0     C80205   0.765   5.974   1.571  0.0613  0.1398  0.4658
  595MOL0     C80206   0.733   6.107   1.644 -0.7166  0.4445  0.0379
  595MOL0     N80207   0.844   6.178   1.706  0.4207  0.2108  0.8985
  595MOL0     C80208   0.975   6.137   1.716 -0.6215  1.1368 -1.0780
  595MOL0     C80209   1.021   6.219   1.808 -0.2835  0.1353  0.1984
  595MOL0     C80210   1.158   6.207   1.860 -0.3976 -0.5371 -0.1071
  595MOL0     C80211   1.151   6.223   2.012  1.0301  0.4343 -0.4977
  595MOL0     C80212   1.291   6.199   2.063 -0.0172  0.8227  0.1791
  595MOL0     C80213   1.403   6.309   2.029  0.3946  1.1711 -0.0438
  595MOL0     O80214   1.387   6.437   2.099  0.3628 -0.0976  0.3275
  595MOL0     C80215   1.493   6.521   2.095  0.4468  0.3249 -0.0928
  595MOL0     C80216   1.607   6.521   2.004 -0.4892 -0.5975  0.3672
  595MOL0     C80217   1.710   6.613   2.016  0.2607 -0.0238  0.4816
  595MOL0     C80218   1.706   6.709   2.120  0.6524 -0.2405  0.3670
  595MOL0     C80219   1.806   6.806   2.127 -0.3175 -0.2611 -0.5291
  595MOL0     O80220   1.908   6.803   2.036  0.1682 -0.7483 -0.7193
  595MOL0     C80221   2.016   6.891   2.028 -0.0090  0.1065  0.9937
  595MOL0     C80222   2.067   6.983   2.118 -0.1450  0.3112 -1.0019
  595MOL0     C80223   2.171   7.069   2.083  0.4653  0.9223 -0.2762
  595MOL0     C80224   2.229   7.062   1.955 -0.7969 -0.1748 -0.1700
  595MOL0     O80225   2.321   7.155   1.925  0.1995  0.2495 -0.7655
  595MOL0     C80226   2.414   7.130   1.823  0.0520  0.1891  0.2001
  595MOL0     C80227   2.534   7.218   1.848 -1.0511 -1.0820 -0.3518
  595MOL0     C80228   2.641   7.175   1.953 -0.3043  0.5904  0.4480
  595MOL0     C80229   2.733   7.292   1.990 -1.0333 -0.0682 -0.4275
  595MOL0     C80230   2.878   7.250   2.008 -0.1837 -0.2862  0.1314
  595MOL0     C80231   2.965   7.375   2.040  0.0424  0.1943 -0.8010
  595MOL0     C80232   3.116   7.361   2.012  0.0871  0.3285  0.5798
  595MOL0     C80233   3.197   7.293   2.131  0.5570 -0.1706 -0.3129
  595MOL0    Cl80234   3.357   7.250   2.066 -0.5334 -0.0518  0.5115
  595MOL0     C80235   2.170   6.973   1.865  0.7423 -0.0986  0.9205
  595MOL0     C80236   2.068   6.880   1.901 -0.2970  0.0527 -0.2605
  595MOL0     O80237   1.802   6.890   2.216 -0.2120  0.2714 -0.3715
  595MOL0     C80238   1.597   6.709   2.206  0.6985 -0.8324 -0.4968
  595MOL0     C80239   1.495   6.621   2.189  0.0532  0.1863  0.3135
  595MOL0     N80240   0.922   6.322   1.830 -0.2911 -0.0404  0.6675
  595MOL0     N80241   0.819   6.291   1.770 -0.2500 -0.3216 -0.4733
  595MOL0     C80242   1.274   5.467   1.052 -0.3041 -0.1230 -0.1253
  595MOL0     C80243   1.398   5.447   1.112  0.0399 -0.6524 -0.2287
  595MOL0     C80244   1.747   5.581   1.350  0.7186 -0.2252  0.4662
  595MOL0     C80245   1.822   5.507   1.266  0.4213 -0.5698  0.5124
  595MOL0     C80246   1.961   5.520   1.252  0.2527 -0.4796  0.0402
  595MOL0     C80247   2.037   5.608   1.334  0.0387 -0.3979  0.6782
  595MOL0     O80248   2.174   5.606   1.320 -0.0531 -0.4794  0.0315
  595MOL0     C80249   2.243   5.716   1.374  0.0118 -0.6661 -0.1236
  595MOL0     C80250   2.395   5.731   1.327 -0.0517 -0.4354  0.3438
  595MOL0     C80251   2.454   5.871   1.371 -0.0596 -0.6856  0.8017
  595MOL0     C80252   2.503   5.868   1.513 -0.4411  0.6264  0.0717
  595MOL0     C80253   2.406   5.876   1.617  0.7655 -0.3747 -0.2159
  595MOL0     C80254   2.329   5.884   1.713  0.8136  0.1956  0.2346
  595MOL0     C80255   1.958   5.675   1.428  0.1794  0.2641 -0.1054
  595MOL0     C80256   1.817   5.664   1.438 -0.5552  0.5331 -0.0792
  595MOL0     C80257   1.750   5.756   1.548 -0.1942  0.2186 -0.4594
  595MOL0     H80258   1.326   5.491   1.436  1.6778  0.4603 -1.0962
  595MOL0     H80259   1.104   5.527   1.335  0.3342  0.8423 -0.4093
  595MOL0     H80260   1.087   5.591   0.906 -0.6299  0.3317 -0.9968
  595MOL0     H80261   0.916   5.572   0.943  2.3684 -1.9740 -4.2802
  595MOL0     H80262   0.960   5.806   0.944  1.7313  0.3088 -0.6022
  595MOL0     H80263   1.100   5.793   1.042  0.8499 -2.4793  0.0254
  595MOL0     H80264   0.955   5.693   1.245 -0.4899  2.6433  1.1450
  595MOL0     H80265   0.819   5.701   1.126 -0.7026 -1.2308  1.1561
  595MOL0     H80266   0.981   5.937   1.239 -0.3945  1.4604 -0.3635
  595MOL0     H80267   0.842   5.956   1.133  2.6976 -0.6041 -2.6870
  595MOL0     H80268   0.691   5.874   1.319 -0.3005 -0.0969 -1.0392
  595MOL0     H80269   0.832   5.789   1.394 -1.2639  0.3140  1.0055
  595MOL0     H80270   0.922   6.043   1.438  0.3820 -0.6763 -1.5920
  595MOL0     H80271   0.759   6.077   1.387  0.9284  1.4404 -0.4638
  595MOL0     H80272   0.841   5.914   1.622 -0.5204 -0.6031  0.4748
  595MOL0     H80273   0.670   5.920   1.565 -0.4396  0.4086  4.1147
  595MOL0     H80274   0.676   6.172   1.577 -1.2566 -1.3610 -1.3362
  595MOL0     H80275   0.684   6.070   1.734  0.6891  1.1882  1.1492
  595MOL0     H80276   1.035   6.050   1.692  0.4822  1.2015  1.1961
  595MOL0     H80277   1.204   6.111   1.833 -0.0669 -1.0312  2.0272
  595MOL0     H80278   1.218   6.285   1.813 -3.2083  2.1469  0.4269
  595MOL0     H80279   1.107   6.314   2.054  0.3403 -1.1178  2.4054
  595MOL0     H80280   1.085   6.145   2.050  1.6500 -1.0300 -2.3047
  595MOL0     H80281   1.329   6.110   2.013  0.3560  1.4322 -0.6548
  595MOL0     H80282   1.285   6.182   2.171 -2.3443  2.1184  0.3206
  595MOL0     H80283   1.407   6.331   1.922  0.9282  2.9436  0.3025
  595MOL0     H80284   1.497   6.261   2.058  0.7006  0.7389 -1.6635
  595MOL0     H80285   1.615   6.449   1.923  0.2665 -1.8388  1.5216
  595MOL0     H80286   1.785   6.615   1.938 -1.9185 -2.3650 -1.8745
  595MOL0     H80287   2.024   6.990   2.218  0.1797 -0.3714 -0.8076
  595MOL0     H80288   2.205   7.139   2.158 -2.1423  0.2199  1.7342
  595MOL0     H80289   2.456   7.029   1.811  5.4019  2.0285  0.6867
  595MOL0     H80290   2.363   7.152   1.728 -3.1146 -1.2725  1.4285
  595MOL0     H80291   2.582   7.239   1.752 -1.9959 -0.0608 -0.6173
  595MOL0     H80292   2.491   7.316   1.869 -1.3306 -0.8844 -1.7561
  595MOL0     H80293   2.587   7.137   2.040 -2.8880 -1.3781 -1.8433
  595MOL0     H80294   2.696   7.093   1.905 -2.5149 -0.2841 -0.7341
  595MOL0     H80295   2.697   7.331   2.086 -1.1858  0.2655 -0.6215
  595MOL0     H80296   2.731   7.366   1.910  0.2231 -0.7586 -1.1380
  595MOL0     H80297   2.898   7.196   1.915 -0.9283  0.7594 -0.6567
  595MOL0     H80298   2.875   7.174   2.087 -4.3650  1.6688  2.1562
  595MOL0     H80299   2.931   7.469   1.996 -1.0465  0.8972  1.3900
  595MOL0     H80300   2.939   7.392   2.144  3.2533 -1.6749  0.4648
  595MOL0     H80301   3.164   7.456   1.987 -4.0755  2.4757 -0.0390
  595MOL0     H80302   3.126   7.311   1.916 -0.1590  2.3321 -0.5303
  595MOL0     H80303   3.214   7.368   2.208 -0.0665 -0.7994  0.4581
  595MOL0     H80304   3.143   7.209   2.175 -0.1853  1.9209  3.0964
  595MOL0     H80305   2.207   6.963   1.763  1.7140  0.3426  1.2182
  595MOL0     H80306   2.034   6.814   1.821 -2.7207  1.5624 -0.5971
  595MOL0     H80307   1.593   6.774   2.293 -0.9825 -0.7882 -0.5800
  595MOL0     H80308   1.410   6.622   2.257  1.7768 -1.1274  2.6457
  595MOL0     H80309   1.261   5.469   0.944 -0.4569 -1.2548 -0.1383
  595MOL0     H80310   1.482   5.440   1.044  1.3519  0.0309  1.2506
  595MOL0     H80311   1.769   5.457   1.186  0.1723  0.6217 -0.0986
  595MOL0     H80312   2.011   5.467   1.172 -0.2077 -2.6660  1.1213
  595MOL0     H80313   2.245   5.716   1.483 -1.6082 -0.6839 -0.0699
  595MOL0     H80314   2.183   5.806   1.356 -1.5277 -1.2845  1.7131
  595MOL0     H80315   2.405   5.728   1.218  0.4527 -1.8978  0.4051
  595MOL0     H80316   2.458   5.649   1.362  2.4000  1.5391  0.8738
  595MOL0     H80317   2.373   5.944   1.357  0.8534  0.0741 -0.7726
  595MOL0     H80318   2.530   5.905   1.301  0.8355  1.0271  2.5222
  595MOL0     H80319   2.556   5.775   1.534  0.0279  0.8735 -0.0149
  595MOL0     H80320   2.575   5.949   1.530  3.1111 -2.0246 -1.3119
  595MOL0     H80321   2.253   5.895   1.788  1.3630 -1.8081  1.1514
  595MOL0     H80322   2.011   5.730   1.505  0.0428  0.7286 -0.3422
  595MOL0     H80323   1.821   5.828   1.590  0.6659 -1.2528  0.7161
  595MOL0     H80324   1.669   5.817   1.509 -0.0227  2.0387  1.8213
  595MOL0     H80325   1.705   5.699   1.630 -0.6424 -0.9705 -1.5010
  596MOL0     O80326   6.164   8.588   5.274 -0.1692  0.2926 -0.2142
  596MOL0     C80327   6.104   8.616   5.379 -0.1043 -0.7453  1.0165
  596MOL0     O80328   5.978   8.667   5.392 -0.4076  0.4485 -0.3294
  596MOL0     C80329   5.923   8.723   5.281  0.3871 -0.0686 -0.7309
  596MOL0     C80330   5.961   8.845   5.242  0.3561  0.0787  0.5157
  596MOL0     C80331   5.910   8.901   5.118 -0.2985 -0.1031 -0.3526
  596MOL0     C80332   5.810   8.833   5.048 -0.4196 -0.2579 -1.0923
  596MOL0     O80333   5.739   8.886   4.945  0.2722  0.0192 -0.1574
  596MOL0     C80334   5.799   8.980   4.856 -0.0216 -0.1035 -0.2337
  596MOL0     C80335   5.884   8.910   4.753 -0.8977 -0.3711 -0.1403
  596MOL0     C80336   5.952   9.019   4.670 -0.0773 -0.1075  0.2881
  596MOL0     C80337   6.079   8.977   4.590  0.9363  0.2316 -0.3596
  596MOL0     C80338   6.211   8.973   4.674  0.5014  0.3615 -0.1860
  596MOL0     C80339   6.336   8.943   4.580  0.1278 -0.3026 -0.1936
  596MOL0     C80340   6.349   8.799   4.541  0.1209  0.0716 -0.3859
  596MOL0     C80341   6.349   8.700   4.650  0.1682  0.0122 -0.7912
  596MOL0     N80342   6.443   8.587   4.629 -0.0429  0.1116 -0.8842
  596MOL0     C80343   6.582   8.597   4.608  0.2693  0.0767 -0.3723
  596MOL0     C80344   6.612   8.476   4.554 -0.4161 -0.5512  0.1242
  596MOL0     C80345   6.751   8.433   4.508 -0.0016  0.3697  0.1483
  596MOL0     C80346   6.844   8.547   4.462  0.1022 -0.8484 -0.8949
  596MOL0     C80347   6.807   8.601   4.320  0.1983 -0.6658 -0.1293
  596MOL0     C80348   6.919   8.684   4.263  0.1888 -0.4268  0.0204
  596MOL0     O80349   7.034   8.607   4.248  0.2402 -0.2885 -0.5669
  596MOL0     C80350   7.152   8.679   4.251  0.0525 -0.4809 -0.1628
  596MOL0     C80351   7.265   8.590   4.255  0.3003  0.5048 -0.6806
  596MOL0     C80352   7.396   8.629   4.240  1.0767  0.3158 -1.0717
  596MOL0     C80353   7.422   8.765   4.239 -0.2017  0.1112 -0.1498
  596MOL0     C80354   7.563   8.818   4.221  1.0700 -1.1011  0.7133
  596MOL0     O80355   7.666   8.723   4.219  0.4825  0.1639  0.2133
  596MOL0     C80356   7.795   8.759   4.251  0.1005 -0.1903  0.3582
  596MOL0     C80357   7.825   8.870   4.330 -0.5086  0.0936 -0.4968
  596MOL0     C80358   7.962   8.906   4.348  0.7415 -0.7195 -0.4850
  596MOL0     C80359   8.062   8.826   4.285 -0.5098  0.1385  0.1308
  596MOL0     O80360   8.193   8.858   4.317  0.0516  0.3502 -0.7748
  596MOL0     C80361   8.305   8.774   4.259  0.7398 -0.4902  0.3413
  596MOL0     C80362   8.423   8.854   4.305 -0.1005 -0.2634  0.4605
  596MOL0     C80363   8.549   8.774   4.311 -0.5101  0.3785 -0.4123
  596MOL0     C80364   8.650   8.838   4.402  0.5008  0.6050  0.4990
  596MOL0     C80365   8.784   8.767   4.393 -0.2575 -0.1627 -0.0076
  596MOL0     C80366   8.869   8.808   4.514  0.2920  1.1369 -0.3521
  596MOL0     C80367   9.016   8.769   4.513 -0.1064  0.2174  0.1373
  596MOL0     C80368   9.097   8.829   4.633  0.6158  0.5551  1.2209
  596MOL0    Cl80369   9.103   9.001   4.629 -0.2091 -0.0761  0.0549
  596MOL0     C80370   8.032   8.715   4.200  0.7860  0.5358  0.2499
  596MOL0     C80371   7.895   8.690   4.186 -0.0561 -0.3401  0.6044
  596MOL0     O80372   7.571   8.939   4.211  0.3485  0.1552  0.0102
  596MOL0     C80373   7.317   8.860   4.246 -0.5649  0.3372 -0.8185
  596MOL0     C80374   7.187   8.816   4.242 -0.1092  0.1816 -0.1694
  596MOL0     N80375   6.501   8.398   4.552 -0.0738 -0.8879 -0.0992
  596MOL0     N80376   6.400   8.466   4.587 -0.6657  0.7333  0.3666
  596MOL0     C80377   5.760   8.710   5.099 -0.2654 -0.7252  0.8624
  596MOL0     C80378   5.822   8.658   5.213  0.0631 -0.4640  0.2008
  596MOL0     C80379   6.180   8.575   5.504 -0.3661 -0.0676 -0.3279
  596MOL0     C80380   6.105   8.535   5.619  0.5284 -0.5867 -0.0785
  596MOL0     C80381   6.172   8.503   5.737  0.7047 -0.7672  0.1448
  596MOL0     C80382   6.310   8.493   5.752  0.2674 -0.5306  1.0167
  596MOL0     O80383   6.352   8.467   5.882  0.1233  0.4420 -0.0081
  596MOL0     C80384   6.492   8.467   5.916 -0.3354  0.3782  0.4372
  596MOL0     C80385   6.495   8.511   6.066  0.1952 -0.1519  0.6969
  596MOL0     C80386   6.636   8.510   6.123  0.6922  0.1830  0.4571
  596MOL0     C80387   6.642   8.516   6.274  0.8039 -0.0901 -0.6013
  596MOL0     C80388   6.595   8.393   6.343 -0.1300  0.3337  0.4205
  596MOL0     C80389   6.556   8.296   6.403  0.3406  0.1146  0.2155
  596MOL0     C80390   6.385   8.534   5.639 -0.2020 -0.2887 -0.9873
  596MOL0     C80391   6.326   8.571   5.516 -0.2567  0.4781 -0.6021
  596MOL0     C80392   6.414   8.610   5.392 -0.1148 -0.5279  0.1949
  596MOL0     H80393   6.029   8.909   5.297  0.0864 -1.0557  2.2265
  596MOL0     H80394   5.935   9.001   5.085 -0.7254 -0.6097 -2.3517
  596MOL0     H80395   5.718   9.032   4.805 -0.0523  1.4856  1.3366
  596MOL0     H80396   5.856   9.056   4.910 -1.2366  0.4624  0.2742
  596MOL0     H80397   5.816   8.849   4.693 -0.4278 -2.3945  1.2803
  596MOL0     H80398   5.961   8.855   4.808  0.9721  1.7857 -0.4388
  596MOL0     H80399   5.988   9.103   4.731 -3.7746  1.1958  0.9646
  596MOL0     H80400   5.878   9.050   4.595 -0.8164 -1.1045  0.5863
  596MOL0     H80401   6.060   8.882   4.541 -0.1668  1.0237 -1.5002
  596MOL0     H80402   6.088   9.055   4.514 -2.2651 -0.2804 -1.4191
  596MOL0     H80403   6.227   9.070   4.723  2.2964  0.3464 -0.6549
  596MOL0     H80404   6.190   8.892   4.743 -5.7055  3.7310  2.6243
  596MOL0     H80405   6.335   9.008   4.493  1.5546 -2.0786 -1.6226
  596MOL0     H80406   6.422   8.968   4.643 -0.6841  0.1655  0.7540
  596MOL0     H80407   6.444   8.785   4.489 -0.7637 -3.4723 -1.3108
  596MOL0     H80408   6.273   8.776   4.466 -1.1514  0.0993  0.8488
  596MOL0     H80409   6.374   8.748   4.745  1.7971  2.3034 -2.2703
  596MOL0     H80410   6.248   8.659   4.662  0.2109  0.4970  1.9921
  596MOL0     H80411   6.648   8.681   4.629 -0.0474  0.9040 -2.4605
  596MOL0     H80412   6.807   8.380   4.585 -1.6369  0.9474  1.8312
  596MOL0     H80413   6.725   8.368   4.424  1.3871 -0.0071 -0.0137
  596MOL0     H80414   6.846   8.630   4.532  1.2289 -0.0004 -1.9048
  596MOL0     H80415   6.947   8.512   4.465  0.4684  0.2570  0.4896
  596MOL0     H80416   6.715   8.661   4.321  1.1192  0.7910  0.0855
  596MOL0     H80417   6.810   8.512   4.257  2.4422  0.6025 -1.9572
  596MOL0     H80418   6.932   8.766   4.334  2.1631  1.1974 -2.0952
  596MOL0     H80419   6.886   8.735   4.172  0.8093 -1.1834 -0.6485
  596MOL0     H80420   7.239   8.485   4.260 -0.9374  0.8590  1.9707
  596MOL0     H80421   7.477   8.558   4.224  2.3019  0.6503  2.7557
  596MOL0     H80422   7.751   8.928   4.383  1.4376  2.6488 -0.4087
  596MOL0     H80423   7.991   8.987   4.413  1.3923  1.3802 -3.1848
  596MOL0     H80424   8.311   8.667   4.284 -2.8816 -0.9699 -0.3132
  596MOL0     H80425   8.304   8.773   4.150 -0.0686 -0.3812  0.3386
  596MOL0     H80426   8.437   8.947   4.249  2.0874 -0.4706  0.5882
  596MOL0     H80427   8.408   8.889   4.408 -1.8452  2.7867 -0.7093
  596MOL0     H80428   8.534   8.672   4.348 -0.8661  0.3943 -0.5066
  596MOL0     H80429   8.587   8.765   4.208  2.6795 -1.0957  0.7488
  596MOL0     H80430   8.614   8.841   4.505  4.2634  2.6193  1.9329
  596MOL0     H80431   8.670   8.943   4.378  0.6201  0.1657 -1.5334
  596MOL0     H80432   8.838   8.809   4.308  1.4721  2.5152  2.2586
  596MOL0     H80433   8.784   8.658   4.384  2.3736 -0.3046  0.9831
  596MOL0     H80434   8.860   8.917   4.527 -0.2190  1.1800 -0.9687
  596MOL0     H80435   8.827   8.755   4.600 -0.8790 -1.1545 -2.2037
  596MOL0     H80436   9.058   8.817   4.424 -5.2735  2.2388 -1.5744
  596MOL0     H80437   9.025   8.660   4.503  2.2940  0.4051 -0.4959
  596MOL0     H80438   9.048   8.802   4.727  1.3007  0.7658  1.6419
  596MOL0     H80439   9.202   8.798   4.631 -0.0792 -1.9795 -0.2229
  596MOL0     H80440   8.106   8.662   4.141  1.5603  0.7726  0.9852
  596MOL0     H80441   7.856   8.603   4.133 -0.8959  1.5267 -2.0785
  596MOL0     H80442   7.326   8.968   4.234 -0.4872  0.5001  0.5507
  596MOL0     H80443   7.117   8.897   4.233  1.9468  2.0326 -0.3721
  596MOL0     H80444   5.677   8.661   5.050 -0.8203 -1.8460  2.8176
  596MOL0     H80445   5.800   8.558   5.249 -0.2724  0.2313  2.0218
  596MOL0     H80446   5.996   8.534   5.615  0.5184  1.2734 -2.6875
  596MOL0     H80447   6.114   8.484   5.826 -1.2268 -4.8927 -1.7290
  596MOL0     H80448   6.557   8.533   5.858 -0.2279 -0.7490 -0.7623
  596MOL0     H80449   6.533   8.366   5.910 -1.6323 -0.2822  1.7878
  596MOL0     H80450   6.428   8.446   6.125 -2.6150  1.3339 -0.6496
  596MOL0     H80451   6.463   8.614   6.080 -2.0632 -0.8721  1.4161
  596MOL0     H80452   6.695   8.598   6.097  2.0756 -0.6537  0.6365
  596MOL0     H80453   6.690   8.423   6.084 -5.0853 -3.2103 -1.3263
  596MOL0     H80454   6.743   8.546   6.301  1.1784  1.2219 -3.1518
  596MOL0     H80455   6.586   8.605   6.307  4.0187  1.1677  1.9777
  596MOL0     H80456   6.501   8.209   6.434 -0.6524  0.1435 -1.3409
  596MOL0     H80457   6.491   8.552   5.650 -0.2661 -0.6923  0.4220
  596MOL0     H80458   6.509   8.650   5.428 -0.9833 -0.1025  2.1654
  596MOL0     H80459   6.432   8.534   5.315  1.0189  2.0283 -2.2227
  596MOL0     H80460   6.376   8.695   5.334 -0.4262  0.1542  1.3672
  597MOL0     O80461   2.811   4.765   1.910  0.2144 -0.1167 -0.0526
  597MOL0     C80462   2.864   4.676   1.971 -0.8712  0.4702  0.0010
  597MOL0     O80463   2.995   4.677   2.016  0.4287 -0.1071 -0.3643
  597MOL0     C80464   3.043   4.799   2.067  0.3631 -0.1144 -0.4201
  597MOL0     C80465   2.972   4.911   2.110  0.6458  0.1283  0.0356
  597MOL0     C80466   3.037   5.026   2.142 -0.0962 -0.3924  0.0436
  597MOL0     C80467   3.180   5.029   2.157 -0.3318  0.8881 -0.1960
  597MOL0     O80468   3.234   5.145   2.202  0.3386  0.4755 -0.1865
  597MOL0     C80469   3.370   5.164   2.243 -0.4084 -0.0368 -0.8083
  597MOL0     C80470   3.388   5.095   2.389  0.4381  0.1255  0.1812
  597MOL0     C80471   3.519   5.127   2.461  0.7492 -0.5846  0.4853
  597MOL0     C80472   3.642   5.086   2.391  0.4656 -0.3788  0.0051
  597MOL0     C80473   3.768   5.156   2.451 -0.0407  0.5166 -0.4016
  597MOL0     C80474   3.777   5.306   2.423  0.6368 -1.3189  0.2400
  597MOL0     C80475   3.914   5.358   2.449 -0.8187 -0.0705 -0.1606
  597MOL0     C80476   3.908   5.510   2.429  1.0961  0.1730 -0.7092
  597MOL0     N80477   4.051   5.557   2.417 -0.1647  0.1219  0.9702
  597MOL0     C80478   4.142   5.545   2.524 -0.8522  0.0169  0.3272
  597MOL0     C80479   4.258   5.584   2.467 -0.4071  0.0349 -0.0759
  597MOL0     C80480   4.396   5.574   2.527 -0.3130 -0.3860 -0.3716
  597MOL0     C80481   4.499   5.646   2.444  0.5256  0.2380  0.8393
  597MOL0     C80482   4.623   5.661   2.539  0.8043  0.2290 -0.0251
  597MOL0     C80483   4.744   5.704   2.459  0.5260  0.3705 -0.3276
  597MOL0     O80484   4.862   5.687   2.541  0.4709  0.2691  0.3963
  597MOL0     C80485   4.983   5.741   2.511  0.8979 -0.2903  1.3190
  597MOL0     C80486   5.089   5.675   2.573 -0.1779  0.3490 -0.4535
  597MOL0     C80487   5.219   5.699   2.531  0.1450  0.2938 -0.3965
  597MOL0     C80488   5.251   5.803   2.440 -0.6302 -0.2072 -0.2892
  597MOL0     C80489   5.392   5.842   2.422  0.9921 -0.9746 -0.1130
  597MOL0     O80490   5.412   5.937   2.323 -0.0400  0.1051  0.4079
  597MOL0     C80491   5.554   5.958   2.306  0.2758  0.6533 -0.5513
  597MOL0     C80492   5.619   5.863   2.232 -0.9330 -0.7072  0.2813
  597MOL0     C80493   5.757   5.886   2.191  0.2977  0.4058  0.3885
  597MOL0     C80494   5.820   5.999   2.237 -0.2082  0.5721 -0.4648
  597MOL0     O80495   5.943   6.041   2.187  0.1839  0.2334 -0.9575
  597MOL0     C80496   6.003   5.988   2.069  0.1194  0.5166 -0.2647
  597MOL0     C80497   6.123   6.078   2.040 -0.5323  0.0684  0.1417
  597MOL0     C80498   6.231   6.081   2.155  0.0747 -0.1685  0.2434
  597MOL0     C80499   6.354   6.157   2.115 -0.1491  0.5519  0.1237
  597MOL0     C80500   6.470   6.157   2.222 -0.2969 -0.9777  0.7349
  597MOL0     C80501   6.417   6.229   2.348 -0.8361 -0.1626  0.3481
  597MOL0     C80502   6.528   6.292   2.431  0.1722 -0.0449 -0.0094
  597MOL0     C80503   6.467   6.355   2.557 -0.5789  0.7169  0.1551
  597MOL0    Cl80504   6.449   6.228   2.680  0.1574 -0.2062 -0.0240
  597MOL0     C80505   5.757   6.080   2.331  0.8696  0.2078  0.8617
  597MOL0     C80506   5.620   6.054   2.371 -0.0573 -0.1436 -0.4991
  597MOL0     O80507   5.484   5.788   2.484  0.8134 -0.3440  0.3772
  597MOL0     C80508   5.145   5.861   2.372  0.3301  0.3731 -0.1341
  597MOL0     C80509   5.013   5.828   2.408  0.2048 -0.4895  0.4146
  597MOL0     N80510   4.236   5.623   2.339  0.1158  0.5043  0.9254
  597MOL0     N80511   4.116   5.606   2.312 -0.2295  0.1466  0.1598
  597MOL0     C80512   3.248   4.910   2.137 -0.2106 -0.1354 -0.0720
  597MOL0     C80513   3.183   4.799   2.087 -0.3082 -0.1884 -0.0919
  597MOL0     C80514   2.792   4.545   1.981 -0.2736  0.1007 -0.0039
  597MOL0     C80515   2.867   4.430   2.010  0.5022 -0.1383  0.0183
  597MOL0     C80516   2.815   4.300   2.020 -0.5338  0.1709 -0.3156
  597MOL0     C80517   2.678   4.277   2.001 -0.3566  0.6237  0.2900
  597MOL0     O80518   2.617   4.153   2.011 -0.6158 -0.0485  0.1810
  597MOL0     C80519   2.691   4.043   1.978 -0.8579  0.9141 -0.2128
  597MOL0     C80520   2.582   3.934   1.972 -0.4206 -0.0204 -0.0193
  597MOL0     C80521   2.538   3.921   1.819  1.1565  0.1616 -0.7859
  597MOL0     C80522   2.416   3.828   1.786  0.6415 -0.2634 -0.2583
  597MOL0     C80523   2.409   3.794   1.640 -0.6907  0.0003 -0.3808
  597MOL0     C80524   2.409   3.755   1.526  0.1411  0.5274 -0.3950
  597MOL0     C80525   2.603   4.396   1.972  0.0522  0.2204 -0.1448
  597MOL0     C80526   2.652   4.529   1.966  0.2961  0.2922 -0.1655
  597MOL0     C80527   2.556   4.643   1.967  1.0175 -0.2628 -0.1681
  597MOL0     H80528   2.866   4.930   2.101  0.6524  0.1317 -0.0362
  597MOL0     H80529   2.980   5.114   2.171 -1.1268 -0.1563 -2.4966
  597MOL0     H80530   3.449   5.126   2.177  0.8338  0.2222  0.4860
  597MOL0     H80531   3.380   5.273   2.253 -2.0366  0.1398 -0.7521
  597MOL0     H80532   3.376   4.986   2.394 -0.2564  0.1866 -0.1461
  597MOL0     H80533   3.309   5.126   2.457 -1.1112 -2.6554 -0.1972
  597MOL0     H80534   3.526   5.081   2.560  0.1748 -0.0178  0.7933
  597MOL0     H80535   3.518   5.235   2.478 -0.8990 -0.5204  0.1578
  597MOL0     H80536   3.655   4.977   2.400 -1.0449 -0.6119 -0.2571
  597MOL0     H80537   3.635   5.108   2.285  0.6594  0.2405  0.1195
  597MOL0     H80538   3.792   5.132   2.555  0.7448 -0.2589 -0.7511
  597MOL0     H80539   3.850   5.109   2.395  1.0352  0.7618  0.9117
  597MOL0     H80540   3.756   5.330   2.318  3.2161  2.2661  0.3574
  597MOL0     H80541   3.698   5.366   2.469  1.4243  0.1002 -0.1907
  597MOL0     H80542   3.983   5.308   2.380  1.1576  0.6301  1.2236
  597MOL0     H80543   3.941   5.327   2.551  2.5131 -1.6962 -1.4060
  597MOL0     H80544   3.855   5.536   2.337  1.1546 -0.7102 -1.0024
  597MOL0     H80545   3.863   5.555   2.518 -1.8345  0.2115 -2.0832
  597MOL0     H80546   4.126   5.499   2.621  1.7174 -4.3697 -1.0125
  597MOL0     H80547   4.391   5.622   2.625  0.8721  0.4865 -0.7137
  597MOL0     H80548   4.411   5.466   2.531  1.5461 -0.1237  0.4310
  597MOL0     H80549   4.516   5.600   2.346 -0.8585  1.6411 -0.1096
  597MOL0     H80550   4.463   5.744   2.413 -0.4953 -0.2591  0.4113
  597MOL0     H80551   4.650   5.572   2.595 -2.6043  0.0933  1.6404
  597MOL0     H80552   4.601   5.741   2.611 -0.9440 -1.1952  1.1055
  597MOL0     H80553   4.737   5.809   2.427 -3.0698  0.4598  0.3354
  597MOL0     H80554   4.761   5.645   2.369  1.4836 -0.7061  0.5337
  597MOL0     H80555   5.070   5.614   2.661  1.4285 -1.8439 -1.5241
  597MOL0     H80556   5.293   5.640   2.584 -0.5227 -0.1765  0.0351
  597MOL0     H80557   5.559   5.786   2.184 -0.2189 -0.5085 -0.9777
  597MOL0     H80558   5.795   5.833   2.104  1.0628 -0.3475  1.1566
  597MOL0     H80559   6.027   5.883   2.087  1.9830  0.3782 -3.0193
  597MOL0     H80560   5.926   5.988   1.991  0.8836 -0.6585 -1.0510
  597MOL0     H80561   6.169   6.044   1.947 -0.5346 -2.0632  0.8607
  597MOL0     H80562   6.085   6.178   2.016  0.3247  0.3600 -0.0302
  597MOL0     H80563   6.189   6.121   2.249  1.9346  2.3490  0.1051
  597MOL0     H80564   6.252   5.976   2.179 -0.6262 -0.3370  0.1564
  597MOL0     H80565   6.328   6.259   2.087  0.3884  1.0881  1.4880
  597MOL0     H80566   6.398   6.111   2.026  1.5360  3.5783 -0.7386
  597MOL0     H80567   6.560   6.204   2.182  0.4955  0.6185  4.0925
  597MOL0     H80568   6.494   6.054   2.250  0.3697 -1.0850 -0.1947
  597MOL0     H80569   6.345   6.302   2.312 -2.1517 -0.8727  1.4484
  597MOL0     H80570   6.361   6.161   2.413 -0.4812  0.3772  1.2232
  597MOL0     H80571   6.591   6.370   2.388  0.7828  0.8120  2.3077
  597MOL0     H80572   6.597   6.212   2.460  1.3571  0.9501  0.0127
  597MOL0     H80573   6.529   6.441   2.582  2.7918 -0.3580 -3.4939
  597MOL0     H80574   6.365   6.388   2.536 -1.7648 -0.6359  3.1368
  597MOL0     H80575   5.808   6.163   2.378  1.3165 -0.5825  1.7855
  597MOL0     H80576   5.586   6.121   2.450 -0.5487  1.5937 -2.1020
  597MOL0     H80577   5.159   5.936   2.294 -0.7313 -0.5520 -1.2596
  597MOL0     H80578   4.937   5.890   2.360  2.4179 -0.3338 -3.2769
  597MOL0     H80579   3.356   4.908   2.144 -0.1178  1.6308 -0.4801
  597MOL0     H80580   3.251   4.718   2.064  5.0527  2.4857  4.0822
  597MOL0     H80581   2.972   4.446   2.029  0.8129  0.5713 -2.0236
  597MOL0     H80582   2.882   4.221   2.053  0.1791  0.1839 -1.6434
  597MOL0     H80583   2.755   4.029   2.065 -3.5247  1.2786  1.9376
  597MOL0     H80584   2.736   4.052   1.879  1.9566 -1.5092  0.7167
  597MOL0     H80585   2.492   3.957   2.031 -0.2438 -2.1176  1.1580
  597MOL0     H80586   2.631   3.846   2.014  0.9057  0.8944  0.4156
  597MOL0     H80587   2.622   3.892   1.755  3.2789  3.0819  0.4782
  597MOL0     H80588   2.508   4.023   1.793  3.3587  0.9418 -0.5095
  597MOL0     H80589   2.418   3.746   1.859 -0.9159  1.6959  2.1779
  597MOL0     H80590   2.325   3.883   1.812  0.9026 -0.2162  0.5867
  597MOL0     H80591   2.431   3.723   1.427 -1.8845  1.8146 -1.3420
  597MOL0     H80592   2.496   4.383   1.964 -0.2889  2.9845 -1.3372
  597MOL0     H80593   2.456   4.600   1.969  1.8916 -2.3938  0.6586
  597MOL0     H80594   2.564   4.699   2.061 -2.2236  2.3365 -1.2153
  597MOL0     H80595   2.561   4.708   1.879 -2.3726  4.4433  2.5767
  598MOL0     O80596   7.901   5.238  10.577  0.1159  0.4012  0.2238
  598MOL0     C80597   7.826   5.162  10.517 -0.0835 -0.1337  0.0008
  598MOL0     O80598   7.857   5.090  10.406 -0.6251 -0.8347  0.6336
  598MOL0     C80599   7.988   5.074  10.362  0.6827 -0.2009  0.4539
  598MOL0     C80600   8.107   5.089  10.433 -0.2482 -0.1575  0.1144
  598MOL0     C80601   8.232   5.070  10.374 -0.3085 -0.4798  0.0360
  598MOL0     C80602   8.249   5.038  10.241 -0.2465  0.4620  0.3059
  598MOL0     O80603   8.378   5.029  10.197 -0.9119 -0.1010 -0.2582
  598MOL0     C80604   8.387   4.992  10.057 -0.4293 -0.2784 -0.0989
  598MOL0     C80605   8.530   5.017  10.000  0.1202 -0.3599 -0.8877
  598MOL0     C80606   8.629   4.937  10.094  0.3410  0.2862  0.2821
  598MOL0     C80607   8.770   4.959  10.033 -0.1950  0.2534 -0.3514
  598MOL0     C80608   8.874   4.894  10.129  0.3081  0.1657  0.7278
  598MOL0     C80609   9.011   4.971  10.113 -0.9456 -0.5284 -0.1543
  598MOL0     C80610   9.115   4.903  10.199 -0.6247  0.8617  0.3756
  598MOL0     C80611   9.234   4.991  10.237  0.2510 -1.0381 -0.1027
  598MOL0     N80612   9.324   5.021  10.126  0.6213 -1.2783  0.5167
  598MOL0     C80613   9.409   4.927  10.071 -0.3607 -0.5329 -0.7571
  598MOL0     C80614   9.491   4.994   9.987 -1.0838  0.3555  0.5148
  598MOL0     C80615   9.608   4.934   9.906  0.5730 -0.1216  0.1311
  598MOL0     C80616   9.702   4.887  10.019  0.2558 -0.1624 -0.2746
  598MOL0     C80617   9.826   4.819   9.958 -0.2248  0.2715 -0.3673
  598MOL0     C80618   9.931   4.759  10.067 -0.1623  0.4379 -0.5205
  598MOL0     O80619   9.962   4.862  10.156  0.0858  0.0010 -0.3784
  598MOL0     C80620  10.043   4.840  10.270  0.0753 -0.3530  0.6296
  598MOL0     C80621  10.018   4.925  10.380  0.3835 -0.0788 -0.2625
  598MOL0     C80622  10.111   4.927  10.486 -0.1815 -0.1018 -0.7719
  598MOL0     C80623  10.225   4.847  10.491  0.3230  0.8816  0.0552
  598MOL0     C80624  10.312   4.858  10.601  0.0560  0.5682  1.0068
  598MOL0     O80625  10.266   4.919  10.717 -0.2297 -0.4685 -0.0864
  598MOL0     C80626  10.356   4.934  10.818 -0.5778  0.1584 -0.6425
  598MOL0     C80627  10.307   4.905  10.949  0.5506 -0.0705 -0.7756
  598MOL0     C80628  10.393   4.924  11.058  0.1557  0.2990  0.2178
  598MOL0     C80629  10.521   4.966  11.046  0.9270 -0.3896 -0.5790
  598MOL0     O80630  10.579   4.984  11.171  0.4115 -0.3301  0.5969
  598MOL0     C80631  10.722   4.989  11.174 -0.6445  0.7148  0.2465
  598MOL0     C80632  10.766   5.004  11.315 -0.1136 -0.5173  1.1950
  598MOL0     C80633  10.918   4.976  11.327 -0.8769 -0.6226  0.2648
  598MOL0     C80634  10.973   5.017  11.467 -0.1958 -0.2755  0.3301
  598MOL0     C80635  11.079   4.912  11.516  0.7313  0.5955  0.4180
  598MOL0     C80636  11.183   4.960  11.618 -0.4288  0.2620 -0.2308
  598MOL0     C80637  11.256   4.843  11.678 -0.0854  0.0901 -0.2003
  598MOL0     C80638  11.347   4.881  11.793 -0.2756 -0.2303  0.2079
  598MOL0    Cl80639  11.444   5.037  11.752 -0.2627 -0.0910  0.2964
  598MOL0     C80640  10.571   4.993  10.917  0.3738  0.6780 -0.3837
  598MOL0     C80641  10.489   4.981  10.807  0.2505  0.1108  1.5394
  598MOL0     O80642  10.427   4.804  10.583 -0.1642  0.2816 -0.3492
  598MOL0     C80643  10.241   4.752  10.390  0.1107  0.2977 -0.9666
  598MOL0     C80644  10.152   4.752  10.275  0.8134 -0.1349 -0.2582
  598MOL0     N80645   9.447   5.122   9.979 -0.2614  0.6577 -1.0551
  598MOL0     N80646   9.350   5.138  10.063  0.4625  0.1083 -0.6782
  598MOL0     C80647   8.125   5.015  10.167 -0.3856  0.5823 -0.2482
  598MOL0     C80648   7.997   5.035  10.227  0.4047 -0.1045  0.2236
  598MOL0     C80649   7.684   5.140  10.552  0.1752 -0.0336  0.8224
  598MOL0     C80650   7.617   5.024  10.505  0.8442  0.7078 -0.9797
  598MOL0     C80651   7.477   5.003  10.545 -0.4039 -0.9374  0.2196
  598MOL0     C80652   7.413   5.096  10.625 -0.7502 -0.1800  0.3131
  598MOL0     O80653   7.286   5.068  10.662  0.0827  0.1469  0.5653
  598MOL0     C80654   7.230   5.152  10.766  0.1768 -0.5020  0.3922
  598MOL0     C80655   7.092   5.093  10.825  0.5634 -0.0508 -0.1904
  598MOL0     C80656   7.016   5.208  10.889  0.0699 -0.3608  0.9113
  598MOL0     C80657   6.884   5.164  10.967 -0.3692  0.5027  1.4768
  598MOL0     C80658   6.840   5.283  11.036  0.5219 -1.0092  0.4498
  598MOL0     C80659   6.792   5.373  11.107  0.3776 -0.4138  1.0038
  598MOL0     C80660   7.483   5.208  10.661  0.3936  0.0343  0.5953
  598MOL0     C80661   7.613   5.241  10.621  0.4862 -0.4410 -0.9476
  598MOL0     C80662   7.685   5.356  10.684  0.6194  0.2860 -0.6131
  598MOL0     H80663   8.107   5.118  10.538  1.5953  1.6463 -0.3216
  598MOL0     H80664   8.321   5.090  10.432  1.7902 -2.1246 -2.3706
  598MOL0     H80665   8.366   4.886  10.047  2.3588 -0.9371  0.2163
  598MOL0     H80666   8.315   5.057  10.006  1.0780  1.0702 -0.5922
  598MOL0     H80667   8.553   5.123  10.007  0.6271 -0.5262  0.2033
  598MOL0     H80668   8.526   4.985   9.895  0.6752 -0.0893 -0.9956
  598MOL0     H80669   8.601   4.832  10.096 -1.6942  0.7153 -1.7748
  598MOL0     H80670   8.631   4.980  10.195  1.4048 -0.2591  0.5092
  598MOL0     H80671   8.790   4.908   9.938  1.1512  0.6338 -0.2947
  598MOL0     H80672   8.788   5.066  10.023 -3.1732  0.6799 -2.2401
  598MOL0     H80673   8.847   4.915  10.233 -0.2238  1.7263  0.3141
  598MOL0     H80674   8.883   4.787  10.110 -0.2435  0.4888 -1.6567
  598MOL0     H80675   9.048   4.973  10.010  1.2741 -0.0971  0.5877
  598MOL0     H80676   9.005   5.077  10.139 -0.0294 -0.8047  1.2830
  598MOL0     H80677   9.144   4.817  10.138 -2.3470 -0.3034  1.1222
  598MOL0     H80678   9.066   4.869  10.290  1.1208 -0.0750  1.0135
  598MOL0     H80679   9.194   5.084  10.280  2.6147 -0.5828  1.3376
  598MOL0     H80680   9.288   4.932  10.312  1.4120 -2.3328 -1.8877
  598MOL0     H80681   9.420   4.824  10.104  0.4466  0.5348  2.8397
  598MOL0     H80682   9.569   4.859   9.838  0.8148  0.2815 -0.4642
  598MOL0     H80683   9.661   5.008   9.845  1.9422 -0.0540  1.3279
  598MOL0     H80684   9.735   4.973  10.077 -1.2799 -0.4938  1.1557
  598MOL0     H80685   9.640   4.823  10.083  1.4924 -1.1056  0.0205
  598MOL0     H80686   9.882   4.897   9.905  2.6804 -1.1861  0.3157
  598MOL0     H80687   9.801   4.738   9.888 -1.4410  1.0400 -0.8427
  598MOL0     H80688  10.018   4.722  10.013  0.1604  0.7773 -0.2333
  598MOL0     H80689   9.888   4.678  10.127  1.9786  0.7432  1.5519
  598MOL0     H80690   9.932   4.991  10.376  1.2008  1.5197  3.9271
  598MOL0     H80691  10.086   5.000  10.562 -0.4251  0.8295 -1.7203
  598MOL0     H80692  10.207   4.867  10.967  0.8604 -0.5348 -0.0085
  598MOL0     H80693  10.363   4.905  11.161  1.3588 -1.2015  0.3253
  598MOL0     H80694  10.765   4.894  11.142  0.1266  1.0292  0.3144
  598MOL0     H80695  10.756   5.065  11.103 -0.1930  0.9621  0.7253
  598MOL0     H80696  10.743   5.105  11.351 -0.3127 -0.5179  1.0676
  598MOL0     H80697  10.708   4.932  11.372 -0.0186 -1.6557 -0.0953
  598MOL0     H80698  10.934   4.869  11.315 -3.2079 -1.2568  1.9087
  598MOL0     H80699  10.969   5.038  11.253  2.2901 -2.3449  0.8430
  598MOL0     H80700  10.888   5.024  11.535  0.7681  0.6164  1.4870
  598MOL0     H80701  11.010   5.119  11.451 -1.4038 -0.2632 -3.3836
  598MOL0     H80702  11.138   4.889  11.427 -1.2298  0.8794 -1.0101
  598MOL0     H80703  11.018   4.826  11.545 -0.2892  1.0337 -0.3756
  598MOL0     H80704  11.254   5.028  11.570  0.6713 -0.7880 -0.1503
  598MOL0     H80705  11.131   5.002  11.705 -0.4089 -1.8516  0.8780
  598MOL0     H80706  11.318   4.790  11.604  0.9162  0.1016  0.5968
  598MOL0     H80707  11.190   4.766  11.719  3.4867 -3.3305 -0.2008
  598MOL0     H80708  11.276   4.915  11.868 -0.1492 -0.5414  0.4696
  598MOL0     H80709  11.406   4.800  11.834 -0.0633 -0.8129 -1.1866
  598MOL0     H80710  10.671   5.031  10.897  0.5916  0.0687 -0.4891
  598MOL0     H80711  10.530   5.003  10.709  0.8198 -1.4332  1.4108
  598MOL0     H80712  10.319   4.678  10.401  0.9098  1.3724  1.3553
  598MOL0     H80713  10.172   4.680  10.197 -0.8736 -0.3038 -0.5726
  598MOL0     H80714   8.123   4.988  10.061 -0.2608 -1.4647  0.2147
  598MOL0     H80715   7.902   5.020  10.176  0.1696  1.4757  0.1325
  598MOL0     H80716   7.661   4.947  10.443  0.3465 -0.3231 -0.0842
  598MOL0     H80717   7.422   4.920  10.501  0.2001  0.0827 -2.6714
  598MOL0     H80718   7.204   5.250  10.724 -1.7872  0.3799  3.3433
  598MOL0     H80719   7.308   5.164  10.842 -1.3692  1.2154  1.8414
  598MOL0     H80720   7.121   5.018  10.898  1.1849  1.5384  1.2653
  598MOL0     H80721   7.034   5.038  10.750  1.6627  0.2512 -1.3113
  598MOL0     H80722   6.987   5.290  10.823 -0.8603 -1.1777  0.2758
  598MOL0     H80723   7.090   5.251  10.958  1.1881  1.1409 -1.1357
  598MOL0     H80724   6.810   5.121  10.899  1.7261 -1.1467  0.0804
  598MOL0     H80725   6.904   5.085  11.039 -2.2867 -1.3331  0.1085
  598MOL0     H80726   6.751   5.459  11.156  0.6551  0.7383 -0.7055
  598MOL0     H80727   7.446   5.274  10.739 -2.3800  0.1804 -0.7578
  598MOL0     H80728   7.746   5.419  10.619  2.5551  2.6694  3.1192
  598MOL0     H80729   7.617   5.435  10.719  0.9309  1.1897 -1.9692
  598MOL0     H80730   7.757   5.321  10.758  0.2164 -0.6235 -0.6434
  599MOL0     O80731   5.279   7.968   8.317  0.4627  0.3874 -0.4165
  599MOL0     C80732   5.162   7.948   8.299  0.0229 -0.4652  0.2679
  599MOL0     O80733   5.090   7.844   8.353  0.2689  0.1311  0.5445
  599MOL0     C80734   5.149   7.754   8.439  0.1820 -0.5915 -0.1119
  599MOL0     C80735   5.081   7.734   8.554  0.8024  0.1912 -0.9759
  599MOL0     C80736   5.148   7.660   8.664 -0.3520  0.2855 -0.3185
  599MOL0     C80737   5.279   7.600   8.653 -0.2185  0.1962 -0.8534
  599MOL0     O80738   5.324   7.535   8.763 -0.6293 -0.7065 -0.0301
  599MOL0     C80739   5.469   7.534   8.779 -0.0878 -0.1398 -0.8529
  599MOL0     C80740   5.494   7.434   8.892 -1.2591 -0.2420  1.1266
  599MOL0     C80741   5.643   7.400   8.890  0.3765  0.1188  0.0260
  599MOL0     C80742   5.666   7.311   9.016  0.1259  0.1823  0.8882
  599MOL0     C80743   5.808   7.301   9.051 -0.3020  0.0918  0.3425
  599MOL0     C80744   5.890   7.217   8.954 -0.2832 -0.4605 -0.2466
  599MOL0     C80745   6.039   7.221   8.984 -0.0851 -0.3153  0.0975
  599MOL0     C80746   6.116   7.344   8.930 -0.5903 -0.2456  0.0152
  599MOL0     N80747   6.254   7.346   8.983  0.0470 -0.4031 -0.2796
  599MOL0     C80748   6.348   7.439   8.959 -0.0056 -1.1444  0.4344
  599MOL0     C80749   6.455   7.414   9.044 -0.3981 -0.1398 -0.0697
  599MOL0     C80750   6.587   7.483   9.069 -0.2034 -0.3256 -0.2379
  599MOL0     C80751   6.685   7.428   8.970 -0.6254 -0.1832  0.2304
  599MOL0     C80752   6.827   7.484   9.003  0.2791 -0.3248 -0.0807
  599MOL0     C80753   6.846   7.615   8.926  0.0978  0.9541  0.4968
  599MOL0     O80754   6.858   7.574   8.787 -0.2563 -0.4510 -0.5123
  599MOL0     C80755   6.980   7.577   8.725 -0.2376  0.7519 -0.0286
  599MOL0     C80756   6.988   7.583   8.586  0.5212  0.7134 -0.0293
  599MOL0     C80757   7.107   7.589   8.520  0.2517  0.0040 -0.0894
  599MOL0     C80758   7.230   7.586   8.590  0.6771 -0.3750  0.9151
  599MOL0     C80759   7.356   7.601   8.515  0.5541  0.3522 -0.6760
  599MOL0     O80760   7.471   7.612   8.584 -0.5587 -0.2705  0.1648
  599MOL0     C80761   7.575   7.677   8.521 -0.0886 -0.3170  0.0311
  599MOL0     C80762   7.580   7.811   8.493  0.2702 -0.9794  0.3017
  599MOL0     C80763   7.692   7.871   8.439  0.4168 -0.4591  0.5070
  599MOL0     C80764   7.806   7.796   8.413  0.5768 -0.1413  0.2423
  599MOL0     O80765   7.911   7.862   8.360 -0.1740  0.1202  0.1630
  599MOL0     C80766   8.004   7.785   8.280  0.3210  0.0007 -0.4078
  599MOL0     C80767   8.124   7.862   8.221  0.3296  0.1788  0.8486
  599MOL0     C80768   8.236   7.765   8.168  0.5262  1.0924 -0.5338
  599MOL0     C80769   8.337   7.824   8.069 -0.5610 -0.1133  0.0564
  599MOL0     C80770   8.477   7.760   8.081  0.0199  0.3935 -0.4573
  599MOL0     C80771   8.577   7.839   8.005 -0.4125 -0.4880  0.2716
  599MOL0     C80772   8.711   7.769   8.026  0.3293  0.6301  0.4968
  599MOL0     C80773   8.824   7.829   7.957  0.5903  0.5085  0.0961
  599MOL0    Cl80774   8.983   7.738   8.000 -0.0563  0.2616  0.7728
  599MOL0     C80775   7.807   7.656   8.443  0.1045  0.1620 -0.2585
  599MOL0     C80776   7.688   7.594   8.489  0.5578 -1.1163  0.7413
  599MOL0     O80777   7.347   7.603   8.395 -0.0959 -0.3829 -0.3073
  599MOL0     C80778   7.226   7.571   8.731  0.5324  0.0884  0.1436
  599MOL0     C80779   7.105   7.569   8.800  0.3179  0.1686  0.4487
  599MOL0     N80780   6.432   7.295   9.105 -0.2888  0.3117 -0.3742
  599MOL0     N80781   6.306   7.257   9.078 -0.4524 -0.4153  0.4743
  599MOL0     C80782   5.334   7.621   8.523  0.7849  0.9553  0.5335
  599MOL0     C80783   5.271   7.692   8.424  0.0687 -0.2271  0.7833
  599MOL0     C80784   5.089   8.041   8.208  0.3307  0.1959 -0.7803
  599MOL0     C80785   4.971   7.997   8.144  0.2221 -0.5832  0.5915
  599MOL0     C80786   4.900   8.077   8.050 -0.2114  0.4130  0.2585
  599MOL0     C80787   4.936   8.216   8.030  0.0573 -0.8903 -0.2617
  599MOL0     O80788   4.862   8.283   7.934  0.5512  0.8830 -0.0318
  599MOL0     C80789   4.885   8.419   7.905  0.1297  0.0466 -0.7023
  599MOL0     C80790   4.788   8.461   7.793 -1.0646  0.4164  0.3037
  599MOL0     C80791   4.761   8.618   7.802 -0.1710  0.2164 -0.2659
  599MOL0     C80792   4.689   8.662   7.681  0.3390  0.3169 -0.5091
  599MOL0     C80793   4.769   8.693   7.565 -0.7270  0.0856 -0.3195
  599MOL0     C80794   4.834   8.722   7.462  0.4429  1.3877 -0.9921
  599MOL0     C80795   5.053   8.261   8.104 -0.4605  0.6546 -0.1512
  599MOL0     C80796   5.125   8.176   8.192 -0.3507 -0.0030  0.4790
  599MOL0     C80797   5.236   8.242   8.267  0.0022  0.8061 -0.0659
  599MOL0     H80798   4.987   7.780   8.582 -0.9891 -3.1405 -0.9998
  599MOL0     H80799   5.091   7.655   8.756  2.2564  2.1428  1.5501
  599MOL0     H80800   5.528   7.507   8.691 -0.2031 -2.8632 -0.1925
  599MOL0     H80801   5.508   7.632   8.808 -0.3991 -0.3730  0.4268
  599MOL0     H80802   5.432   7.347   8.872 -1.9431  0.1791  1.3546
  599MOL0     H80803   5.464   7.463   8.993 -2.2289  0.5786  0.6183
  599MOL0     H80804   5.708   7.487   8.900 -0.6263  1.0920 -1.5596
  599MOL0     H80805   5.668   7.350   8.796 -1.4682  0.9653 -0.9714
  599MOL0     H80806   5.604   7.347   9.099 -1.7045  1.4227 -0.9374
  599MOL0     H80807   5.637   7.209   8.990  1.2605 -0.0422  0.4508
  599MOL0     H80808   5.842   7.404   9.065 -1.0632  0.2098  1.4252
  599MOL0     H80809   5.812   7.258   9.151 -1.8374  1.8217  1.2150
  599MOL0     H80810   5.850   7.116   8.968 -1.9534  0.2639  0.5177
  599MOL0     H80811   5.867   7.245   8.851 -0.8392  1.9994  0.4862
  599MOL0     H80812   6.088   7.134   8.938 -1.0081  0.1098 -1.7825
  599MOL0     H80813   6.042   7.212   9.093 -1.7686 -0.4136  0.1491
  599MOL0     H80814   6.103   7.340   8.821  0.4103 -2.5972 -0.0823
  599MOL0     H80815   6.072   7.431   8.978  0.8708 -0.1630  1.2992
  599MOL0     H80816   6.339   7.529   8.899  1.3244 -0.4864  1.1751
  599MOL0     H80817   6.577   7.591   9.056  4.9021  0.6311  1.3204
  599MOL0     H80818   6.620   7.473   9.173  0.7299  2.1130 -0.2341
  599MOL0     H80819   6.703   7.320   8.976  1.9263  0.2825  3.0376
  599MOL0     H80820   6.648   7.451   8.869 -1.1004  0.8836  0.6392
  599MOL0     H80821   6.897   7.411   8.962  0.8392 -0.8655  1.7479
  599MOL0     H80822   6.846   7.508   9.108  2.9426 -1.8190 -0.1238
  599MOL0     H80823   6.932   7.675   8.959  0.5368  1.5898 -1.6365
  599MOL0     H80824   6.752   7.670   8.935 -1.2804 -1.4678  2.2460
  599MOL0     H80825   6.903   7.587   8.518  0.1470  2.6629  0.5050
  599MOL0     H80826   7.112   7.606   8.413  0.6736  3.2168  0.3482
  599MOL0     H80827   7.496   7.868   8.531 -1.6705 -2.0528 -2.0239
  599MOL0     H80828   7.706   7.979   8.432  0.1255 -0.3899  0.9929
  599MOL0     H80829   8.052   7.714   8.348  0.2037  2.6667  2.6824
  599MOL0     H80830   7.960   7.739   8.191 -2.3218  1.3498  0.1025
  599MOL0     H80831   8.081   7.921   8.140  1.1299 -1.0667 -0.5309
  599MOL0     H80832   8.164   7.932   8.296  0.6742 -0.5590  1.3662
  599MOL0     H80833   8.290   7.740   8.260 -0.1269  1.5040 -0.0298
  599MOL0     H80834   8.190   7.685   8.111  2.2033  0.7170 -1.4246
  599MOL0     H80835   8.349   7.931   8.089 -1.1049  0.4050 -2.1223
  599MOL0     H80836   8.296   7.815   7.968 -0.3791  0.6788 -0.1003
  599MOL0     H80837   8.473   7.659   8.039 -0.6189  1.0796 -2.1422
  599MOL0     H80838   8.494   7.773   8.188  0.8038 -0.3103 -0.4748
  599MOL0     H80839   8.544   7.827   7.901  0.4079 -1.1181  0.0740
  599MOL0     H80840   8.578   7.943   8.039  1.3555  0.0625 -1.2976
  599MOL0     H80841   8.714   7.665   7.992 -0.5974  0.4290  1.0093
  599MOL0     H80842   8.735   7.771   8.133  1.2529 -1.9401  0.4029
  599MOL0     H80843   8.802   7.860   7.855 -1.7532 -0.4291  0.2635
  599MOL0     H80844   8.836   7.925   8.010 -1.5632 -0.1460  1.9464
  599MOL0     H80845   7.902   7.603   8.442 -1.4958 -2.9520  0.4913
  599MOL0     H80846   7.680   7.493   8.528  0.4331 -0.9515  1.1445
  599MOL0     H80847   7.318   7.558   8.787  0.0481 -2.7714  0.4249
  599MOL0     H80848   7.104   7.546   8.906 -0.9373 -0.5883  0.2975
  599MOL0     H80849   5.427   7.572   8.497 -0.7482 -1.1562 -1.3398
  599MOL0     H80850   5.323   7.698   8.329  1.5625 -0.1409  1.5818
  599MOL0     H80851   4.956   7.891   8.165 -1.5509 -0.3848  0.4991
  599MOL0     H80852   4.812   8.036   8.002 -1.8928  1.8022  1.9990
  599MOL0     H80853   4.987   8.439   7.871  0.4322 -1.1535 -0.5439
  599MOL0     H80854   4.869   8.475   7.998  1.6387  2.2070 -1.6655
  599MOL0     H80855   4.697   8.401   7.802 -0.4321 -0.6305 -0.2229
  599MOL0     H80856   4.839   8.433   7.701 -0.3585  0.1044  0.7864
  599MOL0     H80857   4.851   8.679   7.814  0.8108 -1.4154  1.0865
  599MOL0     H80858   4.692   8.635   7.885  1.1267 -0.0183  0.8988
  599MOL0     H80859   4.620   8.582   7.651 -2.7763  2.8703 -0.6507
  599MOL0     H80860   4.633   8.751   7.710  4.1861  1.8281  3.2192
  599MOL0     H80861   4.895   8.733   7.375  0.6784  1.1623 -0.8558
  599MOL0     H80862   5.087   8.362   8.086  2.0539 -0.0862  0.0197
  599MOL0     H80863   5.219   8.350   8.279  1.3445  1.1355 -0.9159
  599MOL0     H80864   5.245   8.204   8.369 -1.6114 -0.5720 -0.3955
  599MOL0     H80865   5.335   8.218   8.228 -0.2925 -2.4205  0.9174
  600MOL0     O80866   3.955  11.278   3.344  0.0126 -0.1640  0.8240
  600MOL0     C80867   3.914  11.246   3.230 -0.2153 -0.0612 -0.2994
  600MOL0     O80868   3.980  11.271   3.109 -0.2002 -0.1521  0.4252
  600MOL0     C80869   4.112  11.303   3.114 -0.1732  0.3580 -0.3240
  600MOL0     C80870   4.168  11.414   3.044  0.0924 -0.4380 -0.0568
  600MOL0     C80871   4.313  11.432   3.033  0.4156  0.5710 -1.5658
  600MOL0     C80872   4.399  11.333   3.095 -0.2305 -0.0245  0.4706
  600MOL0     O80873   4.530  11.355   3.088  1.1339 -0.7730  0.8811
  600MOL0     C80874   4.603  11.249   3.040 -0.0377  0.6353 -0.0930
  600MOL0     C80875   4.734  11.318   3.005 -0.1610 -0.0318  0.3438
  600MOL0     C80876   4.814  11.358   3.125  0.5875  0.6857 -0.4428
  600MOL0     C80877   4.892  11.241   3.196  0.0740 -0.3500  0.8206
  600MOL0     C80878   4.961  11.298   3.320 -0.1973 -0.3958 -0.7896
  600MOL0     C80879   4.986  11.189   3.423 -0.8166  0.1978 -0.0089
  600MOL0     C80880   5.074  11.223   3.554 -0.4572  0.3047 -0.4682
  600MOL0     C80881   5.060  11.111   3.656 -0.1739 -0.3857  0.2634
  600MOL0     N80882   5.110  10.984   3.607 -0.0523 -0.9540 -0.5618
  600MOL0     C80883   5.227  10.970   3.527  0.9608  0.5165 -0.3146
  600MOL0     C80884   5.219  10.840   3.489 -0.2221 -0.4109 -0.1226
  600MOL0     C80885   5.329  10.771   3.418 -0.2689 -0.0073  0.1210
  600MOL0     C80886   5.475  10.794   3.468  1.2979  0.1672  0.1727
  600MOL0     C80887   5.575  10.728   3.384 -0.3658  0.0847  1.0305
  600MOL0     C80888   5.715  10.705   3.444  0.7846  0.0852 -0.6457
  600MOL0     O80889   5.757  10.799   3.538 -0.2156  0.4975  0.2861
  600MOL0     C80890   5.829  10.739   3.640 -0.9205 -0.1374 -0.8352
  600MOL0     C80891   5.786  10.631   3.719 -0.6171  0.3724 -0.3433
  600MOL0     C80892   5.864  10.575   3.831  0.5234 -0.2201 -0.1254
  600MOL0     C80893   5.994  10.624   3.845  0.3299  0.4687 -0.1090
  600MOL0     C80894   6.096  10.564   3.946 -0.4138  0.2986  0.2817
  600MOL0     O80895   6.212  10.634   3.965 -0.0259 -0.5326  0.5487
  600MOL0     C80896   6.317  10.585   4.034 -0.0107  0.7404 -0.0784
  600MOL0     C80897   6.436  10.625   3.984 -0.2104  0.1825  0.8308
  600MOL0     C80898   6.551  10.567   4.041  0.1962 -0.4739 -0.6705
  600MOL0     C80899   6.546  10.488   4.157  0.1176  0.1671  0.7265
  600MOL0     O80900   6.650  10.429   4.223 -0.0204 -0.1987  0.4628
  600MOL0     C80901   6.775  10.412   4.155 -0.4767 -0.2253 -0.1610
  600MOL0     C80902   6.859  10.331   4.250  0.4482 -0.1196  0.4691
  600MOL0     C80903   6.976  10.271   4.164  0.1574  0.1925  0.1589
  600MOL0     C80904   7.089  10.208   4.233 -1.3852  0.7289 -0.2321
  600MOL0     C80905   7.182  10.130   4.133  0.0807  0.0594 -0.4316
  600MOL0     C80906   7.321  10.113   4.175  0.7168  0.1347  0.0885
  600MOL0     C80907   7.325  10.086   4.330 -0.5336  0.7029 -0.2214
  600MOL0     C80908   7.465  10.051   4.368  0.5781 -0.1145 -0.0431
  600MOL0    Cl80909   7.470   9.948   4.525  0.0911 -0.1854  0.2819
  600MOL0     C80910   6.425  10.459   4.209 -1.1108  0.3617 -0.1570
  600MOL0     C80911   6.311  10.506   4.148 -0.2694  0.6839 -1.2092
  600MOL0     O80912   6.066  10.459   4.006 -0.0043 -0.0907  0.3378
  600MOL0     C80913   6.035  10.732   3.770 -0.5434  0.0095  0.6445
  600MOL0     C80914   5.961  10.790   3.673  0.7349 -0.0025  0.7257
  600MOL0     N80915   5.098  10.787   3.519  0.5594 -0.4945 -0.1822
  600MOL0     N80916   5.034  10.877   3.591 -0.0568 -0.2328 -0.2067
  600MOL0     C80917   4.343  11.231   3.170  0.4905  0.7068  0.1106
  600MOL0     C80918   4.209  11.215   3.178  0.6313  0.8063  0.0176
  600MOL0     C80919   3.797  11.160   3.229  0.0930 -0.4488  0.5162
  600MOL0     C80920   3.802  11.057   3.131 -0.3351  0.7447  0.1512
  600MOL0     C80921   3.691  10.979   3.119  0.4711 -0.6635  0.1094
  600MOL0     C80922   3.582  10.986   3.208  1.1189 -0.8777 -0.0643
  600MOL0     O80923   3.474  10.897   3.190  0.0609  0.6442 -0.4887
  600MOL0     C80924   3.464  10.804   3.297  0.1104  0.2572  0.5745
  600MOL0     C80925   3.596  10.710   3.303  0.7044  0.2436 -0.3292
  600MOL0     C80926   3.613  10.623   3.176 -0.0318  0.0585 -0.3102
  600MOL0     C80927   3.694  10.497   3.197  0.1447  0.5730  0.0671
  600MOL0     C80928   3.830  10.540   3.215 -0.6789 -0.0364 -0.1559
  600MOL0     C80929   3.942  10.567   3.215 -0.1367 -0.3382  0.4454
  600MOL0     C80930   3.584  11.075   3.319 -0.6375 -0.4972 -0.2342
  600MOL0     C80931   3.690  11.163   3.321  0.8270  0.7202  0.6886
  600MOL0     C80932   3.687  11.252   3.444  0.0208  0.9939 -0.2308
  600MOL0     H80933   4.111  11.487   2.988  0.7891  1.4395  1.5530
  600MOL0     H80934   4.349  11.514   2.972 -0.3812  2.8064  0.7776
  600MOL0     H80935   4.631  11.175   3.116  0.8953 -0.1199 -1.1404
  600MOL0     H80936   4.548  11.200   2.959 -3.0170 -0.0669  2.1451
  600MOL0     H80937   4.698  11.404   2.947 -2.7641 -1.4864 -0.3647
  600MOL0     H80938   4.802  11.253   2.948 -0.6511  0.3303 -0.6806
  600MOL0     H80939   4.745  11.412   3.190  0.1239  0.7999 -1.0266
  600MOL0     H80940   4.887  11.434   3.097 -0.0363  1.0603 -1.0756
  600MOL0     H80941   4.820  11.163   3.223  0.2124 -1.1486 -0.9782
  600MOL0     H80942   4.969  11.197   3.133 -1.7365 -1.7707 -0.5150
  600MOL0     H80943   5.051  11.350   3.285 -1.4821  1.3875 -1.6443
  600MOL0     H80944   4.896  11.370   3.371  1.3105 -0.4637  1.3734
  600MOL0     H80945   4.885  11.165   3.457 -0.3764  0.5846  1.6627
  600MOL0     H80946   5.025  11.098   3.376 -0.1755  0.4997 -0.0824
  600MOL0     H80947   5.046  11.319   3.599  1.0591  1.0664 -1.0704
  600MOL0     H80948   5.181  11.233   3.533  0.0954 -0.5537  1.6798
  600MOL0     H80949   5.109  11.134   3.751 -0.4827  2.3383 -0.1383
  600MOL0     H80950   4.956  11.104   3.688  0.3930  0.0598  2.3345
  600MOL0     H80951   5.295  11.052   3.508 -0.2178  1.7634  0.5750
  600MOL0     H80952   5.315  10.663   3.425  1.4417 -0.1928  1.5538
  600MOL0     H80953   5.322  10.798   3.312 -0.4124  1.4160  0.4594
  600MOL0     H80954   5.500  10.900   3.476  0.0276  0.6235 -1.5297
  600MOL0     H80955   5.483  10.755   3.570  0.3480  1.5859  0.8275
  600MOL0     H80956   5.590  10.796   3.299 -0.7718  0.5468  1.3206
  600MOL0     H80957   5.533  10.632   3.355  0.1474 -0.0350  0.6653
  600MOL0     H80958   5.785  10.711   3.360  0.7649  0.2702 -0.6509
  600MOL0     H80959   5.715  10.602   3.480  0.1131  1.2290  3.1944
  600MOL0     H80960   5.686  10.590   3.721 -0.4976  0.0314 -1.1304
  600MOL0     H80961   5.812  10.511   3.901 -0.5157  0.0460 -0.6267
  600MOL0     H80962   6.443  10.681   3.891  2.8563 -1.6556 -0.2001
  600MOL0     H80963   6.646  10.598   3.998  0.1352  0.4020 -0.1895
  600MOL0     H80964   6.759  10.348   4.068 -2.5723 -0.1146  0.1040
  600MOL0     H80965   6.825  10.501   4.114 -3.7368  0.2979 -3.4921
  600MOL0     H80966   6.899  10.397   4.328 -1.9479 -0.1193  1.8055
  600MOL0     H80967   6.807  10.246   4.296 -1.6296  1.4676  1.2241
  600MOL0     H80968   6.939  10.201   4.089  1.1898  1.2809 -1.4406
  600MOL0     H80969   7.032  10.347   4.108  0.4654 -0.2065 -0.0778
  600MOL0     H80970   7.050  10.136   4.306 -1.2604  0.4757 -0.4112
  600MOL0     H80971   7.147  10.278   4.295 -1.4645 -0.4301  1.2152
  600MOL0     H80972   7.172  10.176   4.034 -1.0030  0.1058 -0.3117
  600MOL0     H80973   7.145  10.027   4.127 -1.4580  0.6762 -3.5719
  600MOL0     H80974   7.376  10.041   4.113  3.2252 -0.1478  2.4637
  600MOL0     H80975   7.368  10.210   4.158 -0.0504  0.1750 -2.1732
  600MOL0     H80976   7.266   9.998   4.357  0.5293 -0.1388 -0.5848
  600MOL0     H80977   7.292  10.170   4.391  1.5777  1.3513  0.1246
  600MOL0     H80978   7.513  10.001   4.284  0.7763  0.5652 -0.3444
  600MOL0     H80979   7.521  10.143   4.389  1.0072  0.2113 -2.4164
  600MOL0     H80980   6.421  10.395   4.297  1.6465 -0.2054 -0.3396
  600MOL0     H80981   6.212  10.477   4.182  0.4076 -0.4534 -0.0986
  600MOL0     H80982   6.137  10.766   3.789 -1.1809  1.6233  1.3573
  600MOL0     H80983   5.993  10.865   3.602  0.0916 -0.6766 -0.3112
  600MOL0     H80984   4.398  11.141   3.194  1.7974  1.3533 -0.3520
  600MOL0     H80985   4.179  11.125   3.232  1.4176 -0.6279 -1.8079
  600MOL0     H80986   3.888  11.054   3.066  0.1760  2.0765  0.7277
  600MOL0     H80987   3.681  10.923   3.026 -0.0411  1.7660 -1.3841
  600MOL0     H80988   3.378  10.738   3.281  2.9426 -3.2921 -1.7694
  600MOL0     H80989   3.451  10.869   3.384  1.5225  1.9919 -0.4620
  600MOL0     H80990   3.595  10.645   3.390  0.5380  0.5165 -0.1268
  600MOL0     H80991   3.682  10.778   3.304  1.6794 -0.9102  1.9606
  600MOL0     H80992   3.654  10.692   3.101 -2.1330  0.6502 -0.9735
  600MOL0     H80993   3.513  10.591   3.146  0.3539 -0.2821 -1.3006
  600MOL0     H80994   3.655  10.433   3.276 -0.5430  0.4730 -0.3391
  600MOL0     H80995   3.694  10.432   3.109  1.5083 -0.6947  0.9787
  600MOL0     H80996   4.047  10.588   3.220 -0.0062  0.0553 -2.2042
  600MOL0     H80997   3.506  11.075   3.395 -1.0803 -2.9951 -0.6157
  600MOL0     H80998   3.719  11.197   3.534 -2.0396 -0.7544 -0.4680
  600MOL0     H80999   3.743  11.345   3.439  1.9385 -0.1317 -0.6904
  600MOL0     H81000   3.586  11.290   3.459 -1.0998 -1.6519 -0.4726
  601MOL0     O81001   7.281   6.221   0.960 -0.3735  0.0318  0.6487
  601MOL0     C81002   7.220   6.158   1.044  0.8041 -0.5476 -1.5576
  601MOL0     O81003   7.272   6.105   1.158 -0.0423 -0.3223  0.3562
  601MOL0     C81004   7.406   6.075   1.173  0.6297  0.0979  0.5241
  601MOL0     C81005   7.494   6.038   1.067  0.4678  0.6516  0.2676
  601MOL0     C81006   7.627   5.998   1.099  0.2930 -0.5554  0.6571
  601MOL0     C81007   7.670   5.998   1.231 -0.5966  0.3821  0.1662
  601MOL0     O81008   7.788   5.952   1.273 -0.0035  0.2475  0.5497
  601MOL0     C81009   7.846   5.849   1.195  0.5454  0.2338 -0.7019
  601MOL0     C81010   7.970   5.804   1.266 -0.2384 -0.4736 -0.1775
  601MOL0     C81011   8.050   5.709   1.182  0.9345  0.7532 -0.6544
  601MOL0     C81012   8.192   5.698   1.248  0.4060  1.4862  0.8513
  601MOL0     C81013   8.268   5.597   1.153 -0.6098 -0.3847  0.0102
  601MOL0     C81014   8.412   5.581   1.200  0.4227 -1.0898  1.1280
  601MOL0     C81015   8.489   5.496   1.092  0.4616  0.3746 -0.0452
  601MOL0     C81016   8.638   5.458   1.126  0.2988 -0.9853  0.0686
  601MOL0     N81017   8.721   5.582   1.107  0.0735  0.0088  1.0710
  601MOL0     C81018   8.809   5.596   1.004  0.0265  0.3778  0.3128
  601MOL0     C81019   8.880   5.701   1.025 -1.0762  0.2364 -1.2745
  601MOL0     C81020   8.977   5.773   0.937 -0.2113 -0.2606  0.2200
  601MOL0     C81021   9.122   5.780   0.990  0.5235 -0.4434  0.2105
  601MOL0     C81022   9.234   5.842   0.894  0.7322  0.4511 -0.5925
  601MOL0     C81023   9.355   5.898   0.963 -0.0471 -0.2582  0.4105
  601MOL0     O81024   9.406   5.799   1.060 -0.1570 -0.7986  0.8257
  601MOL0     C81025   9.522   5.832   1.129  0.1796  0.1841 -0.0867
  601MOL0     C81026   9.612   5.940   1.116 -1.1721  0.3918  0.2896
  601MOL0     C81027   9.736   5.947   1.185  0.0653  0.2234 -0.1081
  601MOL0     C81028   9.767   5.845   1.275  0.2046 -0.0276 -0.3284
  601MOL0     C81029   9.889   5.860   1.362 -0.5656 -1.3672 -0.1361
  601MOL0     O81030   9.942   5.990   1.362  0.4210 -0.1380  0.9394
  601MOL0     C81031  10.021   6.038   1.466 -0.5417  0.3448 -0.1124
  601MOL0     C81032  10.023   5.993   1.596 -1.3053  0.0612 -0.7657
  601MOL0     C81033  10.112   6.063   1.693 -0.4568 -0.2710  0.3697
  601MOL0     C81034  10.186   6.178   1.652 -0.0804  0.7145 -0.6990
  601MOL0     O81035  10.263   6.252   1.735 -0.3217 -0.1615  0.2053
  601MOL0     C81036  10.372   6.186   1.811  0.2300  0.0403  0.0466
  601MOL0     C81037  10.369   6.234   1.951 -0.2089 -0.6247  0.1442
  601MOL0     C81038  10.243   6.184   2.032  0.0153 -0.4219 -0.1625
  601MOL0     C81039  10.261   6.221   2.181  0.0347 -0.0048  0.2068
  601MOL0     C81040  10.171   6.147   2.275  0.5129  0.0808 -0.1537
  601MOL0     C81041  10.027   6.163   2.247  0.0079  0.2343 -0.1885
  601MOL0     C81042   9.930   6.080   2.340  0.4154 -0.9648 -0.0084
  601MOL0     C81043   9.785   6.116   2.319 -1.0980  0.1821 -0.2421
  601MOL0    Cl81044   9.692   5.995   2.402 -0.0641 -0.2162 -0.3811
  601MOL0     C81045  10.176   6.223   1.520 -0.2195 -0.2988  1.0099
  601MOL0     C81046  10.094   6.155   1.432 -0.0301  0.3618 -0.0336
  601MOL0     O81047   9.926   5.771   1.434 -0.2183 -0.0606 -0.0331
  601MOL0     C81048   9.681   5.730   1.286  0.3545  0.5046  0.4010
  601MOL0     C81049   9.560   5.734   1.220 -0.4822 -0.1663  0.5232
  601MOL0     N81050   8.836   5.758   1.144  0.6440 -1.0276 -0.2555
  601MOL0     N81051   8.738   5.686   1.192 -0.1993  0.9911 -0.3648
  601MOL0     C81052   7.575   6.020   1.339  0.7847 -0.7066  0.4571
  601MOL0     C81053   7.444   6.060   1.305 -0.3753 -0.6096 -0.0483
  601MOL0     C81054   7.072   6.152   1.034 -0.1937  0.5234  1.1164
  601MOL0     C81055   6.988   6.156   1.143  0.1703 -0.7359  0.6810
  601MOL0     C81056   6.848   6.146   1.132  0.3547  0.0356  0.2135
  601MOL0     C81057   6.785   6.144   1.006 -0.4126  0.6458  0.0079
  601MOL0     O81058   6.649   6.131   0.995  0.6680 -0.4152  0.3578
  601MOL0     C81059   6.565   6.194   1.090 -0.5986 -0.3661 -0.0104
  601MOL0     C81060   6.497   6.089   1.172 -0.6378  0.3220  0.3160
  601MOL0     C81061   6.372   6.126   1.255  0.2833 -0.1891 -0.0978
  601MOL0     C81062   6.289   6.000   1.283 -0.0024 -0.2641 -0.5245
  601MOL0     C81063   6.206   6.016   1.400 -0.7501  0.4411  0.6660
  601MOL0     C81064   6.133   6.008   1.495  0.5598  0.5767 -0.8180
  601MOL0     C81065   6.866   6.132   0.892 -0.3235  0.3466  0.3330
  601MOL0     C81066   7.008   6.137   0.906 -0.5773 -0.1580  0.1888
  601MOL0     C81067   7.075   6.142   0.774 -0.0085 -1.3814  0.0174
  601MOL0     H81068   7.463   6.046   0.963 -0.0570  2.2299  0.5155
  601MOL0     H81069   7.691   5.973   1.015 -1.4114 -4.2119  0.2678
  601MOL0     H81070   7.779   5.766   1.171 -0.1540  0.3396  0.7880
  601MOL0     H81071   7.881   5.896   1.102  0.7995 -0.0398 -0.7449
  601MOL0     H81072   7.947   5.759   1.363  1.1961 -2.7646 -0.8223
  601MOL0     H81073   8.025   5.895   1.292 -1.0510 -0.1076  0.3051
  601MOL0     H81074   8.061   5.754   1.082  0.3342  0.9069 -0.6507
  601MOL0     H81075   8.010   5.608   1.180  0.1121  0.8666  3.1002
  601MOL0     H81076   8.237   5.798   1.259 -0.1708  2.0676 -1.5286
  601MOL0     H81077   8.175   5.645   1.342  2.8930  0.7149  0.9522
  601MOL0     H81078   8.214   5.504   1.137  1.8506 -1.5546 -2.5136
  601MOL0     H81079   8.265   5.637   1.051 -0.0835 -0.1684  0.0740
  601MOL0     H81080   8.464   5.677   1.207 -1.3024 -0.0745  0.5585
  601MOL0     H81081   8.412   5.531   1.297  2.4263 -2.8216  0.3329
  601MOL0     H81082   8.492   5.554   0.999 -0.7590  0.5386 -0.0010
  601MOL0     H81083   8.441   5.398   1.080 -1.2657  0.9173  1.8333
  601MOL0     H81084   8.645   5.420   1.229 -0.1407  0.1857  0.5482
  601MOL0     H81085   8.672   5.382   1.054 -0.8283 -1.3368 -0.1135
  601MOL0     H81086   8.799   5.536   0.913  2.3805 -0.8486  0.7886
  601MOL0     H81087   8.982   5.728   0.837 -0.9666 -0.6315  0.3461
  601MOL0     H81088   8.928   5.870   0.921  0.8752 -0.0164 -2.0000
  601MOL0     H81089   9.115   5.843   1.079 -1.8616  0.0648 -0.2591
  601MOL0     H81090   9.161   5.679   1.002 -0.5351 -1.0036 -0.9185
  601MOL0     H81091   9.197   5.916   0.821 -0.5212 -0.3046 -0.7618
  601MOL0     H81092   9.268   5.761   0.830  1.6933 -2.1272  2.9043
  601MOL0     H81093   9.336   5.996   1.009  2.1734  0.8113 -0.7655
  601MOL0     H81094   9.428   5.924   0.885 -1.0297  1.4379 -0.0031
  601MOL0     H81095   9.591   6.029   1.056  2.5817  0.6131 -0.9119
  601MOL0     H81096   9.801   6.033   1.177  2.2216 -1.1703  1.2844
  601MOL0     H81097   9.968   5.905   1.629  0.2052 -0.6329  0.0144
  601MOL0     H81098  10.112   6.027   1.796 -1.0615  0.3446  0.5950
  601MOL0     H81099  10.348   6.079   1.811 -2.7429  0.5061 -3.6339
  601MOL0     H81100  10.468   6.205   1.763  0.3546  0.6135  0.5203
  601MOL0     H81101  10.452   6.189   2.006 -1.4923  0.2436  2.9767
  601MOL0     H81102  10.377   6.342   1.963 -1.4940 -0.5409  0.4484
  601MOL0     H81103  10.152   6.226   1.988  0.7079 -1.1650 -2.4320
  601MOL0     H81104  10.241   6.075   2.027  2.9591 -0.7398  2.2562
  601MOL0     H81105  10.253   6.328   2.200 -0.4940  0.0161 -0.1101
  601MOL0     H81106  10.359   6.188   2.216 -0.5953 -1.1717  0.9204
  601MOL0     H81107  10.191   6.171   2.379 -0.0894  0.2307 -0.0674
  601MOL0     H81108  10.195   6.041   2.264  0.0076  0.0235 -0.8228
  601MOL0     H81109  10.005   6.270   2.258  0.3314  0.4597 -1.5295
  601MOL0     H81110  10.020   6.118   2.147 -5.0015 -0.5380  0.2203
  601MOL0     H81111   9.960   6.094   2.445 -2.9016 -0.4203  0.9888
  601MOL0     H81112   9.934   5.973   2.319  2.2062 -0.8234 -0.5705
  601MOL0     H81113   9.769   6.215   2.364 -1.0775  0.3799 -0.6715
  601MOL0     H81114   9.752   6.118   2.215  0.1280  0.9180 -0.6300
  601MOL0     H81115  10.223   6.310   1.474 -1.2071  0.8841  2.1576
  601MOL0     H81116  10.073   6.184   1.329 -0.7416 -1.0931 -0.3329
  601MOL0     H81117   9.714   5.643   1.341  1.9213  1.3542  0.8529
  601MOL0     H81118   9.501   5.644   1.235  0.3547 -1.2645 -2.0750
  601MOL0     H81119   7.610   6.004   1.441  0.9564  0.7771  0.6605
  601MOL0     H81120   7.369   6.071   1.383 -0.1369  3.2310 -0.1868
  601MOL0     H81121   7.010   6.171   1.249 -3.9881  2.0629  1.4017
  601MOL0     H81122   6.787   6.135   1.222  0.2008 -2.3891 -0.1095
  601MOL0     H81123   6.491   6.251   1.034  0.2923  0.4051 -0.4255
  601MOL0     H81124   6.612   6.262   1.161 -3.1227  0.2003  1.2250
  601MOL0     H81125   6.575   6.057   1.241 -1.1127 -2.1457 -0.2007
  601MOL0     H81126   6.486   6.000   1.109 -3.1302  0.4866  0.4233
  601MOL0     H81127   6.315   6.199   1.198  1.3663  1.1192  0.4326
  601MOL0     H81128   6.401   6.178   1.347 -2.6476  0.4769  0.5316
  601MOL0     H81129   6.229   5.985   1.193  1.9290  1.7275 -2.2983
  601MOL0     H81130   6.358   5.917   1.302  2.5592  1.9702  0.6837
  601MOL0     H81131   6.065   6.004   1.578 -0.3940 -1.5411 -1.6207
  601MOL0     H81132   6.813   6.125   0.798  0.2826  1.8428 -0.1454
  601MOL0     H81133   7.184   6.130   0.767  0.0366 -0.7147 -0.5787
  601MOL0     H81134   7.022   6.077   0.703 -0.1371  1.5237 -2.7505
  601MOL0     H81135   7.065   6.243   0.733 -0.6624 -1.1861  0.6509
  602MOL0     O81136   0.420  10.920   6.004 -0.4025  0.4618  0.6572
  602MOL0     C81137   0.327  10.925   5.923  0.5781  0.0872  0.3091
  602MOL0     O81138   0.338  10.961   5.793  0.2439 -1.0106  0.0797
  602MOL0     C81139   0.454  10.983   5.732 -0.8207 -0.2153  0.3340
  602MOL0     C81140   0.445  10.981   5.593  0.9297 -0.4356 -0.5636
  602MOL0     C81141   0.555  11.010   5.506 -0.3569 -0.0899 -0.9184
  602MOL0     C81142   0.682  11.028   5.560 -0.6822  0.2186 -0.2365
  602MOL0     O81143   0.788  11.028   5.477 -0.1198 -0.0167  0.0579
  602MOL0     C81144   0.924  11.033   5.528  0.1158  0.2683  0.1359
  602MOL0     C81145   1.034  11.015   5.422 -0.1403  0.1648  0.3408
  602MOL0     C81146   1.009  10.918   5.308  0.3697 -0.6922  0.0894
  602MOL0     C81147   1.141  10.863   5.257 -1.4378 -0.3353  1.3700
  602MOL0     C81148   1.120  10.781   5.123 -0.8250  0.1781  0.3193
  602MOL0     C81149   1.058  10.856   5.008 -0.1368  0.4754  0.2373
  602MOL0     C81150   1.055  10.773   4.867 -0.0888  0.0285 -0.0765
  602MOL0     C81151   1.189  10.735   4.810  0.3888 -0.2526  0.3644
  602MOL0     N81152   1.269  10.853   4.779 -0.2532  0.2463 -0.0942
  602MOL0     C81153   1.344  10.918   4.870 -0.2227 -0.4667 -0.8262
  602MOL0     C81154   1.406  11.019   4.811  0.1438 -0.3935 -0.2824
  602MOL0     C81155   1.505  11.121   4.863 -0.4490 -0.5148  0.1435
  602MOL0     C81156   1.658  11.096   4.836  0.5899 -0.1143  0.4964
  602MOL0     C81157   1.727  11.004   4.932 -0.6354  0.1710  0.5034
  602MOL0     C81158   1.775  11.059   5.071  0.0083  0.5983  0.4203
  602MOL0     O81159   1.658  11.127   5.131 -0.0424 -0.4679 -0.4026
  602MOL0     C81160   1.592  11.081   5.237 -0.6338 -0.1578  0.0193
  602MOL0     C81161   1.507  11.156   5.306  0.7851 -0.1783 -0.3833
  602MOL0     C81162   1.431  11.102   5.413 -0.2763 -0.7798  0.3039
  602MOL0     C81163   1.451  10.974   5.457  0.4766  0.3107 -0.2334
  602MOL0     C81164   1.385  10.927   5.580 -0.4005  0.1038 -0.7778
  602MOL0     O81165   1.374  10.791   5.604 -0.2872 -0.5412 -0.3160
  602MOL0     C81166   1.311  10.744   5.718 -0.2768  0.1146  0.0656
  602MOL0     C81167   1.372  10.668   5.822 -0.3815  0.3626  1.2423
  602MOL0     C81168   1.286  10.606   5.915 -0.4561  0.4099 -0.0032
  602MOL0     C81169   1.143  10.627   5.923 -0.8778  0.4780  0.0432
  602MOL0     O81170   1.062  10.575   6.020 -0.0412  0.0092 -0.2408
  602MOL0     C81171   1.116  10.470   6.100 -0.5549  0.3041  0.6457
  602MOL0     C81172   1.013  10.407   6.177  0.7009  0.2440  0.3660
  602MOL0     C81173   0.911  10.492   6.262 -1.0384 -0.9375 -0.5967
  602MOL0     C81174   0.830  10.403   6.369  0.3766 -0.4839  0.1641
  602MOL0     C81175   0.908  10.374   6.498 -0.0952 -0.4463 -0.6006
  602MOL0     C81176   0.847  10.254   6.572 -0.1961  0.5994  0.7811
  602MOL0     C81177   0.853  10.118   6.496  0.5206 -0.1260 -0.0412
  602MOL0     C81178   0.991  10.059   6.469 -0.0864  0.5795 -0.1185
  602MOL0    Cl81179   1.070  10.020   6.628 -0.0388 -0.2343  0.1522
  602MOL0     C81180   1.091  10.715   5.825 -0.0816 -0.0371 -0.0712
  602MOL0     C81181   1.171  10.757   5.723 -0.4363 -0.3523  0.4930
  602MOL0     O81182   1.358  11.009   5.671  0.0282  0.3476 -0.0832
  602MOL0     C81183   1.544  10.897   5.387  0.2070 -0.1550 -0.8603
  602MOL0     C81184   1.613  10.949   5.281  0.3980  0.4936  0.3471
  602MOL0     N81185   1.379  11.009   4.676 -0.2196  0.2487 -0.2409
  602MOL0     N81186   1.305  10.908   4.660  0.1806 -0.0914  0.1088
  602MOL0     C81187   0.688  11.033   5.697 -0.3323 -0.6890 -0.0174
  602MOL0     C81188   0.587  11.012   5.786  0.6452  0.7540 -0.9979
  602MOL0     C81189   0.188  10.889   5.972  0.0708 -0.0073  0.0060
  602MOL0     C81190   0.173  10.752   6.020 -0.4457  0.1530  0.0597
  602MOL0     C81191   0.052  10.714   6.079 -0.4050  0.3604  0.2444
  602MOL0     C81192  -0.056  10.803   6.098  0.5285  0.0018  0.7612
  602MOL0     O81193  -0.171  10.752   6.167  0.2538  1.4488 -0.4973
  602MOL0     C81194  -0.285  10.835   6.168 -0.1882 -0.3192 -0.1356
  602MOL0     C81195  -0.407  10.747   6.194 -0.5124  0.4641  0.9574
  602MOL0     C81196  -0.447  10.714   6.341  0.0587  0.4231  0.3616
  602MOL0     C81197  -0.542  10.811   6.399  0.1219  0.7839  0.2741
  602MOL0     C81198  -0.684  10.781   6.369  0.2501 -0.0219 -0.8333
  602MOL0     C81199  -0.798  10.769   6.329 -0.9682 -0.0951  0.0350
  602MOL0     C81200  -0.044  10.932   6.042 -0.2697 -0.0862  0.7176
  602MOL0     C81201   0.079  10.976   5.976  0.0289 -0.8394  0.3244
  602MOL0     C81202   0.082  11.108   5.898 -0.7199 -0.1293  0.3435
  602MOL0     H81203   0.348  10.960   5.549 -1.2893  5.6955  0.5169
  602MOL0     H81204   0.543  11.015   5.398  1.5754  1.8108 -1.1200
  602MOL0     H81205   0.937  11.131   5.575 -0.3628  0.2953  0.2150
  602MOL0     H81206   0.930  10.954   5.604 -2.5412  0.3169  0.4736
  602MOL0     H81207   1.126  10.989   5.476 -0.0466  1.5907  0.9035
  602MOL0     H81208   1.056  11.114   5.381 -0.6473  1.2987  2.6572
  602MOL0     H81209   0.948  10.976   5.237 -0.7019 -0.6598  1.0020
  602MOL0     H81210   0.943  10.838   5.343 -0.5000 -0.3115 -0.6356
  602MOL0     H81211   1.219  10.938   5.244  1.0389 -2.9433 -0.0725
  602MOL0     H81212   1.189  10.802   5.334  2.0112  2.0791  1.3236
  602MOL0     H81213   1.214  10.738   5.090 -0.8307 -0.6162  1.2798
  602MOL0     H81214   1.058  10.695   5.151  1.0152 -1.8805 -1.5811
  602MOL0     H81215   0.953  10.875   5.030 -0.8600  0.6343 -2.8895
  602MOL0     H81216   1.097  10.957   4.995 -2.7077  1.8549  2.3208
  602MOL0     H81217   1.005  10.843   4.800  0.6979  1.2387  0.5591
  602MOL0     H81218   1.000  10.679   4.879 -1.0603  0.4535 -1.0786
  602MOL0     H81219   1.229  10.657   4.875  0.6664  1.8994  2.9706
  602MOL0     H81220   1.178  10.696   4.708  3.1397  1.5368 -0.7603
  602MOL0     H81221   1.346  10.894   4.975  0.1734 -0.1552 -0.7597
  602MOL0     H81222   1.484  11.225   4.834  3.5037  0.5263  0.3503
  602MOL0     H81223   1.491  11.120   4.972 -0.0486 -2.1278  0.1978
  602MOL0     H81224   1.675  11.055   4.736  2.5090 -1.6917  1.3872
  602MOL0     H81225   1.704  11.195   4.839 -0.6734  0.4643  1.6758
  602MOL0     H81226   1.818  10.969   4.883 -0.3978 -0.8308  1.6118
  602MOL0     H81227   1.659  10.919   4.935 -1.0276  0.4971  1.1839
  602MOL0     H81228   1.848  11.139   5.053 -0.6652  0.7134 -2.1452
  602MOL0     H81229   1.828  10.990   5.138  0.4039  1.9556  1.5710
  602MOL0     H81230   1.501  11.259   5.271 -1.8271 -0.0137  0.3539
  602MOL0     H81231   1.357  11.162   5.465 -1.6837 -2.4968  0.3902
  602MOL0     H81232   1.479  10.654   5.828 -0.4692  0.0554  2.3810
  602MOL0     H81233   1.342  10.547   5.986  1.6200 -1.6639 -3.1053
  602MOL0     H81234   1.174  10.401   6.038  3.1514  0.5057  3.4765
  602MOL0     H81235   1.188  10.517   6.169  2.2899  0.9771 -2.5355
  602MOL0     H81236   0.946  10.356   6.107 -0.5287 -2.6279  3.3940
  602MOL0     H81237   1.054  10.337   6.250  0.2551 -0.8825 -0.4411
  602MOL0     H81238   0.963  10.562   6.328 -1.6908 -1.3551  0.3773
  602MOL0     H81239   0.851  10.538   6.183  1.1080  1.0802 -1.1586
  602MOL0     H81240   0.783  10.318   6.319 -2.0401  1.2160 -0.6070
  602MOL0     H81241   0.738  10.456   6.395 -1.3398 -3.6839  1.0912
  602MOL0     H81242   0.922  10.459   6.565  0.9661  0.6310 -2.1288
  602MOL0     H81243   1.012  10.342   6.481 -0.0683 -0.9861  0.4936
  602MOL0     H81244   0.903  10.236   6.664 -0.4500 -0.3299  0.7707
  602MOL0     H81245   0.742  10.272   6.594 -0.6520  0.1304 -0.8326
  602MOL0     H81246   0.793  10.116   6.405 -2.8111  0.3649  1.9527
  602MOL0     H81247   0.794  10.044   6.551 -2.1659  1.6785 -0.3072
  602MOL0     H81248   0.962   9.970   6.411 -0.1303  1.5504 -1.6563
  602MOL0     H81249   1.054  10.120   6.404  0.3791  0.1138 -0.1078
  602MOL0     H81250   0.984  10.736   5.823 -0.3067 -1.1345 -0.9344
  602MOL0     H81251   1.120  10.797   5.636 -0.9812  0.2562  1.0875
  602MOL0     H81252   1.558  10.797   5.428  0.4025 -0.4117 -1.5365
  602MOL0     H81253   1.682  10.878   5.236 -0.7089 -0.5207  0.1823
  602MOL0     H81254   0.784  11.052   5.744  0.8525 -0.8132 -2.2313
  602MOL0     H81255   0.600  11.018   5.894  1.4185 -0.6800 -0.9935
  602MOL0     H81256   0.258  10.684   6.022 -0.2284  0.3382 -1.5982
  602MOL0     H81257   0.035  10.611   6.109 -0.2431 -0.2115 -1.5000
  602MOL0     H81258  -0.289  10.881   6.069  4.3641 -1.3022 -1.0254
  602MOL0     H81259  -0.265  10.914   6.240  2.3067 -0.3527 -0.7111
  602MOL0     H81260  -0.394  10.659   6.131 -1.5170  0.2583  1.0253
  602MOL0     H81261  -0.494  10.800   6.156 -1.0416 -1.0934 -0.0754
  602MOL0     H81262  -0.351  10.704   6.392 -0.1018 -2.6462  0.2520
  602MOL0     H81263  -0.486  10.612   6.345  1.1982  0.0073  3.6633
  602MOL0     H81264  -0.517  10.809   6.505 -0.2454 -0.7280  0.3616
  602MOL0     H81265  -0.520  10.910   6.359 -2.3500  0.2634 -2.7683
  602MOL0     H81266  -0.898  10.768   6.292 -0.9376  3.3977 -0.4267
  602MOL0     H81267  -0.120  11.006   6.064 -1.7826  0.1416 -4.2169
  602MOL0     H81268   0.161  11.161   5.952  0.9882 -0.3523 -1.7849
  602MOL0     H81269   0.113  11.104   5.793  1.0224 -0.2436  0.8257
  602MOL0     H81270  -0.013  11.161   5.901  0.1517  1.5395 -0.0455
  603MOL0     O81271   4.899   2.589   9.033 -0.8110  0.2006 -0.6330
  603MOL0     C81272   4.876   2.502   8.957  0.3423  0.5021  0.5829
  603MOL0     O81273   4.971   2.429   8.886  0.2848 -0.1417  0.4106
  603MOL0     C81274   5.103   2.472   8.895  0.3822 -0.1189 -0.0078
  603MOL0     C81275   5.191   2.430   8.994  0.0170 -0.2366  0.5601
  603MOL0     C81276   5.322   2.470   9.010 -0.3096 -0.6139  0.3185
  603MOL0     C81277   5.374   2.568   8.921  0.2006 -0.2850 -0.4817
  603MOL0     O81278   5.502   2.625   8.933  0.2848 -0.0472 -0.3716
  603MOL0     C81279   5.505   2.740   9.011  0.2148  0.4545  0.5408
  603MOL0     C81280   5.630   2.804   8.968 -0.0788  0.0829  0.5334
  603MOL0     C81281   5.755   2.701   8.974 -0.3794 -0.6904  0.0198
  603MOL0     C81282   5.883   2.780   8.919  0.5835  0.0823 -0.4291
  603MOL0     C81283   5.951   2.856   9.033 -0.1106  0.4349 -0.4175
  603MOL0     C81284   6.063   2.934   8.983 -0.0207 -0.2821  0.1066
  603MOL0     C81285   6.154   2.982   9.088 -0.0913 -0.2080 -0.1982
  603MOL0     C81286   6.258   3.090   9.040 -0.8897  0.0655 -0.9335
  603MOL0     N81287   6.364   3.110   9.145 -0.2418  0.3568  0.1305
  603MOL0     C81288   6.347   3.154   9.273 -0.2524  0.1559 -0.0071
  603MOL0     C81289   6.463   3.133   9.348 -0.4892  0.4893  0.0455
  603MOL0     C81290   6.504   3.173   9.488 -0.1444 -0.4898  0.1806
  603MOL0     C81291   6.611   3.288   9.482 -0.1248 -0.9294 -0.2751
  603MOL0     C81292   6.747   3.265   9.425 -0.5834 -0.6998  0.4664
  603MOL0     C81293   6.819   3.148   9.497 -0.4564  0.2565 -0.6029
  603MOL0     O81294   6.950   3.137   9.462  0.6537 -0.1702 -0.9117
  603MOL0     C81295   7.035   3.052   9.524  0.5321  0.9760  0.7856
  603MOL0     C81296   7.172   3.062   9.498 -0.0788  0.1866 -0.2591
  603MOL0     C81297   7.265   2.979   9.568 -0.3047 -0.1209 -0.0222
  603MOL0     C81298   7.223   2.875   9.651 -0.1553  0.1524 -0.1421
  603MOL0     C81299   7.313   2.766   9.690 -0.0793 -0.0165  0.3163
  603MOL0     O81300   7.443   2.784   9.665 -0.0881 -0.1354 -0.4507
  603MOL0     C81301   7.539   2.685   9.658  0.0952 -0.6255 -0.5043
  603MOL0     C81302   7.505   2.546   9.657  0.0005  0.1805  0.7683
  603MOL0     C81303   7.610   2.461   9.660 -0.1489  0.1114 -0.1535
  603MOL0     C81304   7.746   2.495   9.657 -0.1870  0.2477  0.0871
  603MOL0     O81305   7.836   2.390   9.671  0.3357  0.8665 -0.1413
  603MOL0     C81306   7.968   2.419   9.725  0.5626  0.2508 -0.5582
  603MOL0     C81307   8.081   2.384   9.627  0.7408  0.4592 -0.0455
  603MOL0     C81308   8.040   2.248   9.543  0.5261  0.0438  0.1714
  603MOL0     C81309   7.995   2.132   9.636  0.0101 -1.0249  0.0357
  603MOL0     C81310   8.019   1.998   9.565  0.0768  0.2392 -0.8050
  603MOL0     C81311   7.984   1.877   9.655 -0.3238  0.1435  0.0501
  603MOL0     C81312   7.933   1.762   9.561  0.4381 -0.0982 -0.5214
  603MOL0     C81313   7.867   1.643   9.639  0.2273 -0.7305  1.4880
  603MOL0    Cl81314   7.748   1.709   9.738 -0.1524  0.1793 -0.5751
  603MOL0     C81315   7.776   2.626   9.648  0.0095 -1.3109 -0.1159
  603MOL0     C81316   7.673   2.720   9.634  0.1948 -0.2690 -1.0440
  603MOL0     O81317   7.271   2.686   9.773 -0.2535  0.0008  0.3058
  603MOL0     C81318   7.085   2.868   9.678  0.2293  0.0301  0.0163
  603MOL0     C81319   6.993   2.949   9.615 -0.4396  0.1804 -0.7290
  603MOL0     N81320   6.549   3.076   9.251 -0.2654 -0.0052  0.3806
  603MOL0     N81321   6.495   3.075   9.132 -0.5008  0.1379  0.7204
  603MOL0     C81322   5.295   2.603   8.810  0.8947  0.4882  0.1951
  603MOL0     C81323   5.165   2.548   8.789  0.2437 -1.0418  0.0751
  603MOL0     C81324   4.734   2.488   8.929  0.0018  0.6110  0.3430
  603MOL0     C81325   4.640   2.566   9.008 -0.2387  0.6899  0.4319
  603MOL0     C81326   4.502   2.539   8.993 -0.0691 -0.2668 -0.2953
  603MOL0     C81327   4.444   2.452   8.901 -0.2317 -0.3228  0.7502
  603MOL0     O81328   4.306   2.446   8.895 -0.1521  0.7518 -0.1891
  603MOL0     C81329   4.245   2.381   8.780 -0.3850 -0.4678  0.7273
  603MOL0     C81330   4.102   2.353   8.806  1.0973 -0.3551  0.2449
  603MOL0     C81331   4.018   2.478   8.831 -0.6691 -0.1627  0.1239
  603MOL0     C81332   3.865   2.448   8.864 -0.1705 -0.3396 -0.2036
  603MOL0     C81333   3.798   2.403   8.741  0.1375  0.6445  0.2050
  603MOL0     C81334   3.734   2.350   8.651 -0.2724 -1.1642 -1.3808
  603MOL0     C81335   4.532   2.395   8.812 -0.8582  0.2847 -0.0270
  603MOL0     C81336   4.679   2.408   8.827  0.2048 -0.1166 -0.8438
  603MOL0     C81337   4.766   2.316   8.751  0.5323  0.4835  0.6012
  603MOL0     H81338   5.147   2.358   9.062 -1.5907  0.5034  0.3555
  603MOL0     H81339   5.386   2.452   9.096 -0.4018 -0.3937  0.4342
  603MOL0     H81340   5.417   2.802   8.990 -2.9437 -4.0199 -0.8842
  603MOL0     H81341   5.502   2.721   9.119 -1.3759 -0.1868  0.4118
  603MOL0     H81342   5.650   2.889   9.035  1.1199  0.8660 -0.7485
  603MOL0     H81343   5.607   2.835   8.866  0.3308 -2.4977 -0.4094
  603MOL0     H81344   5.732   2.613   8.913  0.3048 -1.1695  0.4307
  603MOL0     H81345   5.776   2.676   9.079 -1.0037  2.6119  1.0394
  603MOL0     H81346   5.949   2.697   8.892  1.8765  0.5939  1.0110
  603MOL0     H81347   5.861   2.837   8.829 -0.1939  1.0663  0.3583
  603MOL0     H81348   5.876   2.921   9.079  0.0253  0.6728 -0.5296
  603MOL0     H81349   6.001   2.791   9.106  2.7755  2.4409 -0.4442
  603MOL0     H81350   6.125   2.873   8.917 -1.5630 -1.0141 -0.7314
  603MOL0     H81351   6.027   3.020   8.925  3.4798  0.8200 -0.6648
  603MOL0     H81352   6.205   2.894   9.130 -0.1237  1.3219  3.3833
  603MOL0     H81353   6.097   3.019   9.173  0.3652  1.4088 -0.5616
  603MOL0     H81354   6.315   3.051   8.955  0.9292 -1.6668  0.9744
  603MOL0     H81355   6.208   3.186   9.023  1.8510  1.4515 -1.7321
  603MOL0     H81356   6.254   3.200   9.307 -0.3257  0.3635 -0.4832
  603MOL0     H81357   6.421   3.198   9.555  0.6847 -3.0682  2.3434
  603MOL0     H81358   6.541   3.088   9.546  0.3779 -1.1338 -1.0624
  603MOL0     H81359   6.577   3.377   9.428  3.1027  0.9410  0.5143
  603MOL0     H81360   6.624   3.324   9.585  0.0718  1.3693 -1.0357
  603MOL0     H81361   6.810   3.354   9.437  1.8422 -2.4036  1.4235
  603MOL0     H81362   6.747   3.253   9.317 -1.5762  1.5459  0.1597
  603MOL0     H81363   6.762   3.057   9.477 -0.8230  0.5921 -1.0986
  603MOL0     H81364   6.818   3.160   9.606 -1.3756 -1.4132 -0.3901
  603MOL0     H81365   7.213   3.132   9.426  1.0551 -1.3105 -1.1128
  603MOL0     H81366   7.369   2.997   9.543 -0.6164  0.1042 -1.2163
  603MOL0     H81367   7.410   2.493   9.657  0.1438 -0.1896 -1.7374
  603MOL0     H81368   7.577   2.359   9.681  2.4546 -0.5214  1.4026
  603MOL0     H81369   7.985   2.519   9.766  2.3162 -1.1677  2.5988
  603MOL0     H81370   7.972   2.358   9.816  1.2290  0.3696 -0.5050
  603MOL0     H81371   8.119   2.467   9.566  1.6101 -1.7897 -2.7544
  603MOL0     H81372   8.164   2.353   9.692  0.0763  0.4026  0.7898
  603MOL0     H81373   7.956   2.266   9.475  1.5058  2.1107 -0.5752
  603MOL0     H81374   8.125   2.214   9.484  0.4926 -0.3329  0.3348
  603MOL0     H81375   7.890   2.141   9.666 -0.4085 -0.8879 -1.4085
  603MOL0     H81376   8.063   2.126   9.722 -2.0594 -3.2888  1.6740
  603MOL0     H81377   8.124   1.987   9.535  0.0987 -3.2564  0.1448
  603MOL0     H81378   7.945   1.996   9.484 -1.3301  1.3487  0.4141
  603MOL0     H81379   8.072   1.848   9.714 -1.3668 -0.7895  1.2009
  603MOL0     H81380   7.903   1.915   9.718 -0.4611 -1.1592  0.6955
  603MOL0     H81381   8.017   1.727   9.501  0.8371 -0.3765  0.1857
  603MOL0     H81382   7.865   1.797   9.483  1.0257  0.4970 -0.7793
  603MOL0     H81383   7.818   1.576   9.567 -0.0343  1.0395 -0.0736
  603MOL0     H81384   7.940   1.587   9.698  1.9262  1.0873  1.2204
  603MOL0     H81385   7.878   2.661   9.658 -0.3094 -1.1299  4.3112
  603MOL0     H81386   7.695   2.826   9.632 -0.1304 -0.0428  2.0266
  603MOL0     H81387   7.050   2.796   9.752 -0.7948 -0.8099 -1.2421
  603MOL0     H81388   6.891   2.944   9.653 -0.7585 -0.5582 -1.6317
  603MOL0     H81389   5.331   2.675   8.736  0.1009 -1.2080 -1.9537
  603MOL0     H81390   5.117   2.577   8.696  1.9369  0.6762 -0.3265
  603MOL0     H81391   4.689   2.626   9.085  0.2954 -1.5659  1.9459
  603MOL0     H81392   4.425   2.584   9.055 -1.2218 -3.3913  0.7133
  603MOL0     H81393   4.300   2.286   8.770  1.1044  0.3803  0.5359
  603MOL0     H81394   4.254   2.435   8.685  1.6624 -1.7929  0.1107
  603MOL0     H81395   4.091   2.281   8.888 -1.0431 -0.3611  0.0015
  603MOL0     H81396   4.065   2.301   8.717  0.4979  0.7636 -0.1711
  603MOL0     H81397   4.030   2.549   8.749 -2.9751 -0.8647 -0.9027
  603MOL0     H81398   4.051   2.537   8.917  0.6442 -0.5099 -0.1128
  603MOL0     H81399   3.849   2.368   8.937  0.0988 -1.0842 -0.9372
  603MOL0     H81400   3.805   2.535   8.890 -0.9222 -1.7372  3.2355
  603MOL0     H81401   3.678   2.296   8.577 -2.5444  0.0222 -0.6364
  603MOL0     H81402   4.492   2.329   8.735  0.1737  0.2087 -0.5213
  603MOL0     H81403   4.834   2.365   8.680 -0.7758 -1.6987 -2.3837
  603MOL0     H81404   4.833   2.260   8.817  1.9313  2.6436  1.1263
  603MOL0     H81405   4.710   2.245   8.690 -1.0392  1.0131  1.3711
  604MOL0     O81406   0.506   1.918   0.520 -0.3437 -0.3357  0.7693
  604MOL0     C81407   0.488   1.816   0.582 -0.2942  0.6608  0.0037
  604MOL0     O81408   0.576   1.708   0.594  0.3176  0.8798 -0.0179
  604MOL0     C81409   0.686   1.713   0.505 -0.3203  0.3126 -0.2584
  604MOL0     C81410   0.807   1.770   0.547 -0.3074  0.2553  0.8689
  604MOL0     C81411   0.920   1.759   0.466  0.3893  0.1794  0.1511
  604MOL0     C81412   0.917   1.710   0.344 -0.8561  1.1762  0.4911
  604MOL0     O81413   1.036   1.691   0.269 -0.1074  0.0229 -0.1169
  604MOL0     C81414   1.165   1.734   0.314 -0.5193 -0.4956 -1.0052
  604MOL0     C81415   1.263   1.706   0.194  0.3037  0.6049 -0.5526
  604MOL0     C81416   1.397   1.727   0.256 -0.8350  0.5789 -1.0235
  604MOL0     C81417   1.518   1.684   0.180  0.2595  0.1935 -0.4329
  604MOL0     C81418   1.637   1.746   0.247  0.2298 -0.0088 -0.7382
  604MOL0     C81419   1.770   1.686   0.186 -1.0626 -0.5667  0.2224
  604MOL0     C81420   1.897   1.763   0.230  0.8758 -0.2022  0.4779
  604MOL0     C81421   2.029   1.739   0.147 -0.3280 -0.2227  0.0699
  604MOL0     N81422   2.090   1.607   0.161 -0.3406 -0.3589 -0.4161
  604MOL0     C81423   2.215   1.570   0.230  0.4229 -0.3475  0.0385
  604MOL0     C81424   2.225   1.435   0.211 -0.6878 -0.3297 -0.5164
  604MOL0     C81425   2.330   1.345   0.261 -0.7561  0.0981 -0.2621
  604MOL0     C81426   2.422   1.308   0.142 -0.7787 -0.2091 -0.4483
  604MOL0     C81427   2.551   1.236   0.186 -0.0001  0.2654  0.1060
  604MOL0     C81428   2.623   1.198   0.062 -0.5778  0.0370 -0.1072
  604MOL0     O81429   2.752   1.136   0.084 -0.0986 -0.5410 -0.0561
  604MOL0     C81430   2.858   1.210   0.124 -0.5882 -0.2568  0.6362
  604MOL0     C81431   2.976   1.140   0.141  0.5332  0.0955  0.1293
  604MOL0     C81432   3.097   1.201   0.160 -0.4214  0.6330  1.3313
  604MOL0     C81433   3.105   1.335   0.177  0.0254  0.1384 -0.4890
  604MOL0     C81434   3.230   1.399   0.210 -0.7428  0.4935  0.2226
  604MOL0     O81435   3.226   1.534   0.193 -0.3035  0.7879  0.1662
  604MOL0     C81436   3.316   1.604   0.269  0.5278 -0.0744 -1.2387
  604MOL0     C81437   3.318   1.607   0.412 -0.3257  0.0259  0.9252
  604MOL0     C81438   3.410   1.687   0.478  0.2536 -0.8231 -0.2456
  604MOL0     C81439   3.499   1.765   0.402  0.6846  0.2456 -0.1292
  604MOL0     O81440   3.594   1.850   0.452 -0.9001 -0.7948 -0.2497
  604MOL0     C81441   3.663   1.838   0.581 -0.3523  0.0231  0.5498
  604MOL0     C81442   3.802   1.913   0.575 -0.2007  0.4985 -0.3391
  604MOL0     C81443   3.800   2.061   0.543 -0.4446  0.3904  0.9085
  604MOL0     C81444   3.935   2.125   0.578 -0.1565  0.4340 -1.0365
  604MOL0     C81445   3.934   2.276   0.584 -0.4424  0.0121 -0.3951
  604MOL0     C81446   3.917   2.344   0.455 -0.0613  0.6520  0.1683
  604MOL0     C81447   3.890   2.488   0.469  0.1510 -0.3404  0.4403
  604MOL0     C81448   3.763   2.511   0.383  0.3371  0.3046  0.3781
  604MOL0    Cl81449   3.753   2.688   0.397 -0.2115 -0.1216  0.2210
  604MOL0     C81450   3.491   1.770   0.262  0.7760 -0.2793 -0.2763
  604MOL0     C81451   3.400   1.687   0.198  0.8035 -0.0508 -0.5779
  604MOL0     O81452   3.326   1.337   0.254  0.3982  1.0506  0.4474
  604MOL0     C81453   2.988   1.411   0.170 -0.2423  0.3868  0.2109
  604MOL0     C81454   2.873   1.345   0.141 -0.0047 -0.4621 -1.0428
  604MOL0     N81455   2.116   1.397   0.136  0.5332  0.1976  0.5716
  604MOL0     N81456   2.026   1.492   0.127  0.3113  0.7287 -0.4310
  604MOL0     C81457   0.803   1.641   0.299  0.3234  0.8794 -0.2534
  604MOL0     C81458   0.684   1.651   0.373 -0.3617 -0.4594 -1.4003
  604MOL0     C81459   0.372   1.810   0.665  0.4135  0.4876  0.3714
  604MOL0     C81460   0.392   1.776   0.797 -1.0229 -0.9498  0.2430
  604MOL0     C81461   0.298   1.812   0.887 -1.5508 -0.4765  0.7875
  604MOL0     C81462   0.174   1.867   0.853 -0.1251 -1.1278  0.2426
  604MOL0     O81463   0.072   1.888   0.950 -0.5343  0.7619  0.3760
  604MOL0     C81464   0.114   1.964   1.068  0.4676  0.2991 -0.7191
  604MOL0     C81465   0.145   2.107   1.031  0.5035 -0.2608  0.0766
  604MOL0     C81466   0.212   2.188   1.139 -0.0508 -0.1841 -0.7264
  604MOL0     C81467   0.260   2.322   1.078  0.8451  0.0108 -0.7208
  604MOL0     C81468   0.142   2.411   1.089  0.2818 -0.7973  0.3584
  604MOL0     C81469   0.044   2.490   1.094 -0.7444 -0.0107 -0.0080
  604MOL0     C81470   0.147   1.878   0.713 -0.4268  0.2528 -0.7456
  604MOL0     C81471   0.249   1.848   0.615 -0.7109 -0.1058 -0.5004
  604MOL0     C81472   0.214   1.904   0.478 -0.3742 -0.0049  0.1355
  604MOL0     H81473   0.821   1.816   0.644  1.3271  1.0544  0.2829
  604MOL0     H81474   1.010   1.807   0.503 -0.6570  0.0268  3.1781
  604MOL0     H81475   1.178   1.838   0.346 -3.6020 -0.3584  0.1849
  604MOL0     H81476   1.181   1.674   0.404  0.6178  1.2151  0.0018
  604MOL0     H81477   1.267   1.773   0.108 -0.4596 -0.1111 -1.1649
  604MOL0     H81478   1.258   1.601   0.161  0.7554  0.4540 -0.1549
  604MOL0     H81479   1.402   1.668   0.348  0.3021  1.0237 -0.7919
  604MOL0     H81480   1.413   1.834   0.277 -1.0590  1.3953 -4.4224
  604MOL0     H81481   1.535   1.576   0.177 -0.4363 -0.0247  1.8205
  604MOL0     H81482   1.507   1.718   0.077  2.0013  3.1011  0.2271
  604MOL0     H81483   1.638   1.855   0.247  0.4439  0.0083  0.7926
  604MOL0     H81484   1.624   1.723   0.353 -4.3029  1.6611 -0.7074
  604MOL0     H81485   1.783   1.585   0.228 -1.0678 -0.8784 -0.5070
  604MOL0     H81486   1.769   1.680   0.077  1.2111 -0.1921  0.1450
  604MOL0     H81487   1.919   1.742   0.335 -3.4544 -0.9048  1.4633
  604MOL0     H81488   1.878   1.871   0.229  2.2928  0.0692  0.9247
  604MOL0     H81489   2.005   1.762   0.043 -2.2669  1.6740  0.8641
  604MOL0     H81490   2.096   1.811   0.194 -1.4116 -0.4339  2.0593
  604MOL0     H81491   2.290   1.631   0.279  1.6889 -0.1056 -2.0756
  604MOL0     H81492   2.390   1.389   0.341  0.3055 -2.6577  0.5806
  604MOL0     H81493   2.277   1.255   0.294 -1.4141  0.5385 -0.1076
  604MOL0     H81494   2.376   1.239   0.070 -0.3401 -0.3766 -0.5734
  604MOL0     H81495   2.441   1.406   0.097 -2.4063  0.5442  0.4182
  604MOL0     H81496   2.533   1.150   0.251 -1.3698  1.0178  0.7774
  604MOL0     H81497   2.611   1.303   0.248  0.1936  0.2670 -0.0834
  604MOL0     H81498   2.634   1.285  -0.004  1.8476  1.2369  1.7331
  604MOL0     H81499   2.563   1.130   0.000 -3.5451  0.8687  1.6814
  604MOL0     H81500   2.978   1.035   0.115  2.1473  0.4017 -1.1902
  604MOL0     H81501   3.194   1.152   0.154  1.5805  3.6892  4.7507
  604MOL0     H81502   3.255   1.542   0.472 -2.4688  0.4131 -0.8090
  604MOL0     H81503   3.406   1.687   0.587  0.1538 -1.3060 -0.2456
  604MOL0     H81504   3.602   1.866   0.667 -0.4973  0.1217  0.4146
  604MOL0     H81505   3.684   1.731   0.586 -0.7746 -0.0921 -0.1180
  604MOL0     H81506   3.859   1.891   0.665  0.1519  1.9847 -0.1826
  604MOL0     H81507   3.862   1.872   0.493  2.5476 -0.2018  1.8768
  604MOL0     H81508   3.779   2.070   0.436  1.0037 -0.2186  0.5540
  604MOL0     H81509   3.714   2.109   0.590 -0.2036  1.9304 -0.1106
  604MOL0     H81510   4.008   2.083   0.508  2.4269 -0.9539  2.2172
  604MOL0     H81511   3.975   2.085   0.672  2.3624 -1.4814 -2.7520
  604MOL0     H81512   4.023   2.312   0.636 -1.9589  1.2734  1.4245
  604MOL0     H81513   3.845   2.305   0.640  1.4184  0.4159  2.5365
  604MOL0     H81514   4.014   2.333   0.406  0.9670  1.1979  1.9716
  604MOL0     H81515   3.838   2.295   0.398  1.0920 -0.9160 -0.1308
  604MOL0     H81516   3.965   2.558   0.430 -1.2970  2.2082  1.9917
  604MOL0     H81517   3.878   2.511   0.575  1.1886 -0.5584  0.6208
  604MOL0     H81518   3.790   2.494   0.278  0.4854 -3.6672  0.8924
  604MOL0     H81519   3.668   2.470   0.419  1.3021 -0.4092  2.2503
  604MOL0     H81520   3.561   1.829   0.204  0.7995  0.2025  0.2228
  604MOL0     H81521   3.408   1.665   0.092  4.1846  1.6194 -0.8027
  604MOL0     H81522   2.980   1.517   0.188 -1.0556  0.2079  1.0097
  604MOL0     H81523   2.785   1.409   0.130  1.6427  2.1422 -0.1305
  604MOL0     H81524   0.805   1.585   0.206  2.6166  1.0063 -0.3325
  604MOL0     H81525   0.595   1.611   0.324 -0.1770 -0.8637 -1.4104
  604MOL0     H81526   0.487   1.732   0.829  0.1338  1.2493  0.0472
  604MOL0     H81527   0.323   1.796   0.992 -2.5812 -2.9968  0.7200
  604MOL0     H81528   0.211   1.925   1.100 -0.1111 -0.3944  0.2589
  604MOL0     H81529   0.042   1.956   1.149  2.2564  0.3245  0.9522
  604MOL0     H81530   0.051   2.156   1.006  0.7467  0.6923  0.9564
  604MOL0     H81531   0.212   2.100   0.945 -1.2388  1.4470 -1.5039
  604MOL0     H81532   0.304   2.136   1.166  0.5421  0.5408 -1.3258
  604MOL0     H81533   0.146   2.202   1.224  1.5842 -1.1745  0.7757
  604MOL0     H81534   0.341   2.368   1.135 -0.4682 -0.6663  1.8357
  604MOL0     H81535   0.287   2.311   0.973  2.3794  2.4542 -0.6486
  604MOL0     H81536  -0.039   2.558   1.086 -2.6121 -2.1400  0.1357
  604MOL0     H81537   0.049   1.907   0.677 -1.1743 -0.7981  0.3315
  604MOL0     H81538   0.268   1.860   0.394 -2.5672 -2.7101 -0.0389
  604MOL0     H81539   0.110   1.887   0.448 -1.1187 -0.4756  2.7423
  604MOL0     H81540   0.228   2.011   0.491  1.1642 -0.1193 -0.4329
  605MOL0     O81541  10.649   7.130   1.182 -0.0197  0.4913  0.4084
  605MOL0     C81542  10.754   7.190   1.216  0.6840  0.0116  0.4035
  605MOL0     O81543  10.757   7.285   1.329 -0.1637  0.7005  0.1327
  605MOL0     C81544  10.637   7.308   1.390  0.5116 -0.1108 -0.8325
  605MOL0     C81545  10.628   7.305   1.530  1.2021 -0.4475 -0.5709
  605MOL0     C81546  10.509   7.348   1.597  0.2815 -0.1475 -0.4683
  605MOL0     C81547  10.398   7.391   1.525  0.0602 -0.0808 -0.8192
  605MOL0     O81548  10.293   7.436   1.602 -0.1755  0.2374 -0.1857
  605MOL0     C81549  10.163   7.478   1.543 -0.0044  0.4422  1.0199
  605MOL0     C81550  10.166   7.614   1.466 -0.7655 -0.5877 -1.3113
  605MOL0     C81551  10.193   7.724   1.565 -0.2876  0.4655  0.5944
  605MOL0     C81552  10.171   7.861   1.497 -0.2588 -1.7058 -1.0151
  605MOL0     C81553  10.113   7.955   1.604  0.3960  0.2221  0.3589
  605MOL0     C81554  10.196   7.975   1.729 -0.1058  0.7405 -0.8701
  605MOL0     C81555  10.345   8.026   1.688  0.3514 -0.8016  0.3010
  605MOL0     C81556  10.409   8.111   1.800  0.3352 -0.5617 -0.8148
  605MOL0     N81557  10.512   8.201   1.757  0.1808 -0.1098  0.3115
  605MOL0     C81558  10.489   8.309   1.677 -0.3995 -0.6401  0.1211
  605MOL0     C81559  10.605   8.384   1.672  1.0018 -0.3547  0.1389
  605MOL0     C81560  10.609   8.519   1.594 -0.3982  0.2514  0.8652
  605MOL0     C81561  10.668   8.613   1.695  0.2388 -0.2161 -0.8188
  605MOL0     C81562  10.699   8.748   1.629  0.1056 -0.0256  0.2606
  605MOL0     C81563  10.717   8.859   1.726  0.3700  0.4639  1.0945
  605MOL0     O81564  10.767   8.976   1.663  0.6680  0.2607  0.3117
  605MOL0     C81565  10.902   8.996   1.642  0.4698  0.5562  0.5659
  605MOL0     C81566  11.008   8.909   1.673 -0.3226  0.0814  0.5669
  605MOL0     C81567  11.145   8.946   1.653  0.0473 -0.9808 -0.3102
  605MOL0     C81568  11.179   9.079   1.615  0.6357 -0.0895 -0.0708
  605MOL0     C81569  11.321   9.116   1.586 -0.0729 -0.1719  0.9850
  605MOL0     O81570  11.353   9.253   1.574  0.3274  0.1562  0.5161
  605MOL0     C81571  11.477   9.294   1.588 -0.2068  0.8026  0.2023
  605MOL0     C81572  11.526   9.409   1.529  0.6393  0.3952  0.1593
  605MOL0     C81573  11.648   9.459   1.562 -0.8469  0.4989  0.3266
  605MOL0     C81574  11.743   9.394   1.638  0.5579 -0.2827 -1.7531
  605MOL0     O81575  11.863   9.461   1.654  0.6375 -0.4849 -0.0133
  605MOL0     C81576  11.954   9.421   1.755 -0.8718  0.1761  0.6699
  605MOL0     C81577  12.083   9.505   1.752 -0.4578  0.9903 -0.8567
  605MOL0     C81578  12.183   9.465   1.862  0.3553 -0.0601 -1.1330
  605MOL0     C81579  12.319   9.507   1.811  0.2719 -0.0628 -0.2185
  605MOL0     C81580  12.429   9.449   1.896  0.3114 -0.1917 -0.1744
  605MOL0     C81581  12.558   9.545   1.872  0.6353 -0.4522 -0.0018
  605MOL0     C81582  12.688   9.463   1.883 -0.2545 -0.0461  0.6183
  605MOL0     C81583  12.758   9.458   2.022 -0.4818  0.5204 -0.1363
  605MOL0    Cl81584  12.798   9.621   2.084  0.2129 -0.2948 -0.2481
  605MOL0     C81585  11.692   9.273   1.701  0.2744 -0.5761 -0.2266
  605MOL0     C81586  11.563   9.231   1.679  0.2260 -0.1431  0.8650
  605MOL0     O81587  11.398   9.028   1.553 -0.0886 -0.5524 -0.0854
  605MOL0     C81588  11.076   9.171   1.592 -0.1314  0.2705 -0.1942
  605MOL0     C81589  10.942   9.120   1.604 -0.1029 -0.4226  0.1454
  605MOL0     N81590  10.700   8.298   1.723 -0.6151 -0.4663 -0.2501
  605MOL0     N81591  10.644   8.202   1.787 -0.1298  0.3199 -0.5139
  605MOL0     C81592  10.399   7.373   1.387 -0.8681  0.0287 -0.4829
  605MOL0     C81593  10.514   7.335   1.318 -1.5889 -0.1215  0.3782
  605MOL0     C81594  10.867   7.169   1.128  0.4633  0.1370  0.6176
  605MOL0     C81595  10.965   7.271   1.140 -0.5227 -0.2474 -0.5434
  605MOL0     C81596  11.084   7.262   1.069  0.3828  0.1201 -0.8698
  605MOL0     C81597  11.117   7.153   0.987  0.0177 -0.5800 -0.7599
  605MOL0     O81598  11.244   7.150   0.926 -0.1540 -0.1823 -0.4234
  605MOL0     C81599  11.285   7.027   0.860  0.3443  0.1217  0.3263
  605MOL0     C81600  11.428   7.025   0.848 -0.9866 -0.6431 -0.2052
  605MOL0     C81601  11.497   6.991   0.985  1.1645  0.8931 -0.6827
  605MOL0     C81602  11.649   7.006   0.985  0.3832  0.3553  0.9983
  605MOL0     C81603  11.708   6.932   1.101  0.1799  0.4366  0.0966
  605MOL0     C81604  11.759   6.860   1.189  0.1182  0.0435 -1.0775
  605MOL0     C81605  11.024   7.050   0.976 -0.1029  0.0309  0.0333
  605MOL0     C81606  10.900   7.060   1.040  0.5067  0.5785  0.1247
  605MOL0     C81607  10.816   6.937   1.052  0.0677 -0.4698  1.1754
  605MOL0     H81608  10.712   7.274   1.592  1.7426 -0.7673 -1.4415
  605MOL0     H81609  10.519   7.345   1.705  1.6469  0.5691 -0.5558
  605MOL0     H81610  10.136   7.403   1.469  1.1218  0.7306  0.2870
  605MOL0     H81611  10.087   7.476   1.621 -0.0908  1.8297  0.9952
  605MOL0     H81612  10.069   7.631   1.418 -0.4630  0.7656 -1.4853
  605MOL0     H81613  10.241   7.606   1.386  1.0387 -0.4120  0.2981
  605MOL0     H81614  10.297   7.708   1.597  0.1615  0.2637 -0.8924
  605MOL0     H81615  10.135   7.719   1.657 -3.0175 -0.2058 -1.0582
  605MOL0     H81616  10.263   7.895   1.450  1.0131  0.4905  2.7108
  605MOL0     H81617  10.090   7.855   1.423 -0.0240  1.7296 -1.7055
  605MOL0     H81618  10.095   8.053   1.559 -0.1502 -0.5443 -1.1384
  605MOL0     H81619  10.015   7.915   1.633 -0.3987  0.7517 -1.4541
  605MOL0     H81620  10.151   8.038   1.806  0.9185 -0.8958  1.1747
  605MOL0     H81621  10.198   7.876   1.777 -1.5563  0.5254 -1.2065
  605MOL0     H81622  10.334   8.084   1.596 -2.4770  0.5054  1.3396
  605MOL0     H81623  10.402   7.936   1.666  0.8444 -0.5648  0.5826
  605MOL0     H81624  10.329   8.160   1.857  0.9240  0.5815 -0.9318
  605MOL0     H81625  10.455   8.050   1.877 -1.7379  0.3276  1.2655
  605MOL0     H81626  10.396   8.334   1.628 -0.8127  1.0273  1.6335
  605MOL0     H81627  10.661   8.499   1.500 -1.4680  0.0629  0.3012
  605MOL0     H81628  10.507   8.541   1.563  0.4069  1.0946 -1.4015
  605MOL0     H81629  10.594   8.627   1.774 -0.9740  0.2732 -2.0079
  605MOL0     H81630  10.759   8.567   1.735  0.7320  1.7636  0.4639
  605MOL0     H81631  10.616   8.765   1.559 -0.2852 -2.7640 -0.0718
  605MOL0     H81632  10.782   8.739   1.559 -1.1475 -3.3055 -1.0150
  605MOL0     H81633  10.787   8.832   1.805  0.1536  0.2635  1.2189
  605MOL0     H81634  10.624   8.878   1.781  0.4064  0.5226  1.1345
  605MOL0     H81635  10.987   8.809   1.708  1.8617  0.0346  1.9120
  605MOL0     H81636  11.228   8.878   1.660  1.1685  0.0481 -2.5564
  605MOL0     H81637  11.455   9.457   1.462  1.0658  1.2905  0.3332
  605MOL0     H81638  11.683   9.557   1.529  0.3965 -0.5721 -1.8118
  605MOL0     H81639  11.924   9.427   1.860 -0.5307  0.5937  0.7463
  605MOL0     H81640  11.982   9.317   1.735 -1.0510  0.2298  0.1174
  605MOL0     H81641  12.129   9.484   1.655  2.7489  1.1316  0.4978
  605MOL0     H81642  12.053   9.610   1.752  0.5570  1.2962 -1.5195
  605MOL0     H81643  12.164   9.531   1.947 -0.5572 -1.1832 -0.4236
  605MOL0     H81644  12.171   9.359   1.888 -3.6897 -0.2270 -3.0375
  605MOL0     H81645  12.331   9.616   1.816  0.3303 -0.1112  2.2290
  605MOL0     H81646  12.334   9.465   1.712 -2.5864 -1.0339 -0.3251
  605MOL0     H81647  12.457   9.347   1.865  0.1404 -0.3941  0.3276
  605MOL0     H81648  12.405   9.438   2.002  1.9665 -1.6036  0.1185
  605MOL0     H81649  12.547   9.587   1.771  1.6553 -1.1081 -0.4005
  605MOL0     H81650  12.561   9.627   1.944 -1.1069 -0.2410 -0.1340
  605MOL0     H81651  12.770   9.498   1.820  2.4033 -0.9880  3.3193
  605MOL0     H81652  12.666   9.359   1.857 -0.7689 -0.1258  1.3525
  605MOL0     H81653  12.690   9.404   2.088 -0.7610  0.4442 -0.4813
  605MOL0     H81654  12.854   9.406   2.016  0.4980  2.3878 -3.7921
  605MOL0     H81655  11.765   9.221   1.762 -0.0298 -0.5605  0.1611
  605MOL0     H81656  11.532   9.153   1.748 -1.1377 -0.2070  0.2108
  605MOL0     H81657  11.093   9.270   1.551 -0.2862  0.4914  0.2707
  605MOL0     H81658  10.859   9.189   1.595 -0.9678 -1.4840 -0.3096
  605MOL0     H81659  10.319   7.394   1.316 -0.0185  1.8868 -0.9600
  605MOL0     H81660  10.515   7.322   1.210 -1.9464  1.5077  0.1499
  605MOL0     H81661  10.942   7.358   1.200 -0.1717 -2.0229  2.3568
  605MOL0     H81662  11.149   7.349   1.069  0.2694  0.2136 -0.1654
  605MOL0     H81663  11.235   7.026   0.763  3.1886 -0.6051 -1.2297
  605MOL0     H81664  11.254   6.942   0.922 -1.0659  0.6810  0.4142
  605MOL0     H81665  11.467   7.119   0.806  0.0161  0.0209  2.0309
  605MOL0     H81666  11.456   6.947   0.778 -0.9960  0.7374 -1.8136
  605MOL0     H81667  11.473   6.885   0.998  0.3575  1.2134  0.5600
  605MOL0     H81668  11.447   7.039   1.069 -0.9437 -0.8384 -0.8678
  605MOL0     H81669  11.679   6.963   0.888 -3.3429  0.4469 -0.3412
  605MOL0     H81670  11.674   7.112   0.991 -0.8835  0.6150  2.0417
  605MOL0     H81671  11.799   6.800   1.268 -2.0482 -0.9184 -0.6229
  605MOL0     H81672  11.050   6.964   0.915 -1.8660 -0.6473  0.1805
  605MOL0     H81673  10.721   6.954   1.000  1.6749  0.4617 -1.6877
  605MOL0     H81674  10.865   6.851   1.005 -1.1203 -0.6001  0.1230
  605MOL0     H81675  10.792   6.915   1.156 -2.1799 -0.3681  0.7320
  606MOL0     O81676   1.353   1.648   2.095  0.4548 -0.3687 -0.2779
  606MOL0     C81677   1.326   1.531   2.091 -0.3121  0.0117  0.3012
  606MOL0     O81678   1.382   1.433   2.172  0.3121 -0.4447  0.3411
  606MOL0     C81679   1.493   1.466   2.243 -0.0653  0.1905 -0.3207
  606MOL0     C81680   1.597   1.559   2.213 -0.0389  0.2626 -0.1288
  606MOL0     C81681   1.712   1.578   2.294 -0.3507  0.4017 -0.0725
  606MOL0     C81682   1.734   1.493   2.405  0.2638  0.0209  0.1944
  606MOL0     O81683   1.839   1.496   2.496  0.5226  0.2015  0.3627
  606MOL0     C81684   1.963   1.546   2.450 -0.3787 -0.3095 -0.1483
  606MOL0     C81685   2.061   1.485   2.554 -0.3821  0.3241  0.4770
  606MOL0     C81686   2.103   1.345   2.507  0.1656  0.1693  0.4845
  606MOL0     C81687   2.236   1.294   2.565  0.2926 -0.3175 -0.0922
  606MOL0     C81688   2.359   1.367   2.490 -0.2083 -0.2016  0.1392
  606MOL0     C81689   2.494   1.315   2.527 -0.3711  0.5761  0.2524
  606MOL0     C81690   2.607   1.381   2.458 -0.4960 -0.2780 -1.3570
  606MOL0     C81691   2.745   1.338   2.505 -0.3519  0.1751 -0.1353
  606MOL0     N81692   2.859   1.366   2.409 -0.2938  0.0523 -0.4939
  606MOL0     C81693   2.987   1.321   2.428 -0.4152  0.3526 -0.0588
  606MOL0     C81694   3.071   1.406   2.368  0.3233 -0.4158 -0.4615
  606MOL0     C81695   3.218   1.422   2.371  1.2919 -0.1871 -0.8977
  606MOL0     C81696   3.292   1.314   2.300  0.2184  0.4255  0.2545
  606MOL0     C81697   3.370   1.231   2.405 -0.3504 -0.4230  0.7081
  606MOL0     C81698   3.486   1.297   2.477 -0.3988 -0.3242 -0.6361
  606MOL0     O81699   3.589   1.314   2.388 -0.3561 -0.5943 -0.3429
  606MOL0     C81700   3.721   1.328   2.437 -0.3945 -0.5378 -0.6366
  606MOL0     C81701   3.823   1.313   2.346  0.7926 -0.1965 -0.6540
  606MOL0     C81702   3.957   1.321   2.385  0.5493  0.5920 -0.0815
  606MOL0     C81703   3.994   1.349   2.510  0.2738  0.5001 -0.2381
  606MOL0     C81704   4.134   1.371   2.547  0.5882  0.6013 -0.1032
  606MOL0     O81705   4.167   1.398   2.681  0.7965  0.2872 -0.1712
  606MOL0     C81706   4.292   1.362   2.737  0.5683  0.7911  0.7567
  606MOL0     C81707   4.312   1.401   2.871  0.0193 -0.4331 -0.4903
  606MOL0     C81708   4.429   1.373   2.938  0.1346  0.1862 -0.1821
  606MOL0     C81709   4.545   1.326   2.872 -0.2106  0.1272 -0.2724
  606MOL0     O81710   4.664   1.317   2.933  0.1423 -0.5381  1.1640
  606MOL0     C81711   4.680   1.285   3.067  0.4635 -0.7406 -0.9617
  606MOL0     C81712   4.795   1.185   3.079 -0.3371  0.2794 -0.1877
  606MOL0     C81713   4.895   1.237   3.184 -0.9258  0.1258 -0.0016
  606MOL0     C81714   4.986   1.127   3.245 -0.1228  0.3526  0.3154
  606MOL0     C81715   5.094   1.066   3.154 -0.9938 -0.2570  0.2810
  606MOL0     C81716   5.168   0.950   3.232 -0.0219  0.0797  0.1272
  606MOL0     C81717   5.259   0.881   3.136  0.1325 -0.3757 -0.3423
  606MOL0     C81718   5.392   0.957   3.114 -0.0959 -0.7793  0.3864
  606MOL0    Cl81719   5.494   0.996   3.255 -0.3000 -0.1980  0.0164
  606MOL0     C81720   4.533   1.284   2.743  0.6127 -0.0960  0.5678
  606MOL0     C81721   4.409   1.301   2.672  0.5813  0.0807 -0.6422
  606MOL0     O81722   4.217   1.352   2.456  0.0186  0.1806 -0.1740
  606MOL0     C81723   3.892   1.362   2.601 -0.1374 -0.4046 -0.8264
  606MOL0     C81724   3.758   1.349   2.574  0.8006  0.3477 -0.2769
  606MOL0     N81725   2.984   1.490   2.300 -0.3511  0.9233 -0.6365
  606MOL0     N81726   2.865   1.468   2.325  0.1607 -0.0094 -0.2489
  606MOL0     C81727   1.636   1.399   2.428  1.0511 -0.3908  0.0668
  606MOL0     C81728   1.515   1.388   2.353 -0.6317  0.6168 -0.0795
  606MOL0     C81729   1.218   1.493   1.995 -0.5486 -0.3101 -0.2881
  606MOL0     C81730   1.149   1.372   2.013 -0.4861  0.2776  0.1177
  606MOL0     C81731   1.050   1.324   1.928  0.2120 -0.0463  0.4439
  606MOL0     C81732   1.012   1.407   1.818  0.0207 -0.1718 -0.9911
  606MOL0     O81733   0.927   1.358   1.724 -0.0620  0.3040 -0.3987
  606MOL0     C81734   0.803   1.416   1.729  0.7185 -0.2816  0.1222
  606MOL0     C81735   0.718   1.359   1.615 -0.3692 -0.4027  0.3848
  606MOL0     C81736   0.691   1.206   1.625 -0.3113 -0.3035 -0.3591
  606MOL0     C81737   0.601   1.170   1.746 -0.2490 -0.3149  0.0920
  606MOL0     C81738   0.567   1.031   1.724 -0.5744 -0.6288 -0.5062
  606MOL0     C81739   0.537   0.913   1.702 -0.4324 -0.1333  0.1393
  606MOL0     C81740   1.073   1.529   1.795  0.3116 -0.3805 -1.0909
  606MOL0     C81741   1.180   1.570   1.879 -0.7754 -0.6202  0.1736
  606MOL0     C81742   1.277   1.669   1.819  0.0397 -0.7412 -0.1111
  606MOL0     H81743   1.586   1.616   2.121 -2.0739  0.2297  0.0336
  606MOL0     H81744   1.781   1.658   2.269 -0.3835  1.0093  1.6544
  606MOL0     H81745   1.985   1.515   2.347  1.2746 -1.8420  0.6018
  606MOL0     H81746   1.974   1.654   2.463 -0.6813 -0.3191  0.1874
  606MOL0     H81747   2.025   1.490   2.657  1.6364 -1.8307  1.3732
  606MOL0     H81748   2.153   1.543   2.570  0.2701 -0.2540 -0.9697
  606MOL0     H81749   2.115   1.343   2.398 -0.6946 -1.9647  0.3803
  606MOL0     H81750   2.029   1.271   2.539  0.2557 -1.3555 -2.4244
  606MOL0     H81751   2.241   1.312   2.673  0.0172  2.1681 -0.4491
  606MOL0     H81752   2.241   1.186   2.545  0.0984 -0.2853 -0.3049
  606MOL0     H81753   2.350   1.362   2.381  1.8564  1.8208 -0.1856
  606MOL0     H81754   2.352   1.472   2.520 -0.5151  0.0720 -0.8563
  606MOL0     H81755   2.513   1.308   2.635  2.6959  1.3359 -0.1519
  606MOL0     H81756   2.488   1.210   2.497  0.5732  1.6933 -4.6767
  606MOL0     H81757   2.597   1.486   2.484 -0.8885 -1.1160  2.4258
  606MOL0     H81758   2.596   1.365   2.350  4.2664  0.9375 -2.2754
  606MOL0     H81759   2.770   1.387   2.599 -1.7471 -1.2630  1.0205
  606MOL0     H81760   2.737   1.232   2.531 -1.6292  0.9936  3.2418
  606MOL0     H81761   3.017   1.237   2.488  1.4498 -0.0901 -1.5089
  606MOL0     H81762   3.247   1.519   2.330 -0.7560  0.8633 -0.0080
  606MOL0     H81763   3.240   1.421   2.478  0.0351  2.2663 -0.5409
  606MOL0     H81764   3.221   1.257   2.239  0.6389 -0.3256  0.4511
  606MOL0     H81765   3.364   1.354   2.228 -1.0664  0.8700 -0.8136
  606MOL0     H81766   3.406   1.139   2.358 -0.7001 -1.6370  2.6779
  606MOL0     H81767   3.302   1.188   2.479  0.7337 -1.3852  1.1869
  606MOL0     H81768   3.523   1.231   2.556 -0.7794  1.8054  1.4393
  606MOL0     H81769   3.446   1.392   2.515 -2.1877 -2.1252  2.4349
  606MOL0     H81770   3.794   1.303   2.242  0.0995  0.7159 -0.5554
  606MOL0     H81771   4.025   1.300   2.303  0.7868  1.8494 -0.2256
  606MOL0     H81772   4.236   1.456   2.926  2.7047 -0.6299  3.8848
  606MOL0     H81773   4.435   1.402   3.043 -0.4271 -3.1896  0.9065
  606MOL0     H81774   4.697   1.369   3.134  2.1646 -1.0648 -0.9422
  606MOL0     H81775   4.588   1.238   3.102 -1.4177  2.5117 -1.2159
  606MOL0     H81776   4.757   1.086   3.108  0.8844  0.4266  2.1869
  606MOL0     H81777   4.838   1.181   2.979  0.1773  2.5874 -0.1108
  606MOL0     H81778   4.955   1.312   3.131 -3.1921  0.9366 -1.5980
  606MOL0     H81779   4.840   1.284   3.267  1.9159 -1.1059  2.7844
  606MOL0     H81780   4.928   1.038   3.272 -0.0172 -0.7708 -2.7977
  606MOL0     H81781   5.043   1.156   3.334  1.3023  0.9212 -0.7487
  606MOL0     H81782   5.171   1.141   3.132 -0.4718  0.1502  3.0886
  606MOL0     H81783   5.037   1.021   3.072 -1.0710  1.6484 -0.7652
  606MOL0     H81784   5.225   0.982   3.320 -1.1086  1.2384  0.4356
  606MOL0     H81785   5.092   0.877   3.261 -1.6105  1.0955 -1.2790
  606MOL0     H81786   5.198   0.869   3.046 -2.4483 -1.0223  1.3780
  606MOL0     H81787   5.289   0.785   3.179  0.3744  0.1091  0.5933
  606MOL0     H81788   5.450   0.903   3.039  0.3735  1.9998 -1.3830
  606MOL0     H81789   5.365   1.052   3.067 -0.4692 -1.4821 -0.8491
  606MOL0     H81790   4.612   1.227   2.694 -0.0993 -0.7779  0.2016
  606MOL0     H81791   4.406   1.281   2.566 -1.5932 -2.8137 -0.1812
  606MOL0     H81792   3.927   1.386   2.701  0.8508 -0.1791 -1.2121
  606MOL0     H81793   3.680   1.363   2.647  0.6480  0.3008 -0.4299
  606MOL0     H81794   1.650   1.323   2.504 -0.8168 -1.3956 -0.5082
  606MOL0     H81795   1.449   1.307   2.383 -0.4559  0.6479  0.3899
  606MOL0     H81796   1.177   1.316   2.102  2.5125 -3.2401 -2.7310
  606MOL0     H81797   0.996   1.233   1.952 -0.3415 -0.0393 -0.7117
  606MOL0     H81798   0.811   1.523   1.710  0.7701 -0.3570 -0.2924
  606MOL0     H81799   0.763   1.400   1.830  1.4205 -1.3856  0.2509
  606MOL0     H81800   0.773   1.389   1.526  4.2676  0.6173  3.2071
  606MOL0     H81801   0.622   1.412   1.616  0.0171  0.3477 -0.5429
  606MOL0     H81802   0.785   1.151   1.623 -1.0279 -1.5949 -0.2863
  606MOL0     H81803   0.635   1.165   1.540  0.9688 -1.5190 -0.6436
  606MOL0     H81804   0.647   1.180   1.845 -1.6294 -1.0933  0.8390
  606MOL0     H81805   0.510   1.230   1.741 -1.8534 -2.4797  1.5756
  606MOL0     H81806   0.511   0.811   1.683  0.3049 -0.2007 -0.5640
  606MOL0     H81807   1.049   1.572   1.698  0.5060 -2.0380 -1.9143
  606MOL0     H81808   1.273   1.767   1.866  0.4078  0.7265 -2.9214
  606MOL0     H81809   1.380   1.632   1.823  0.2245 -0.7824 -2.9103
  606MOL0     H81810   1.254   1.681   1.713 -1.3648  0.7482  0.3295
  607MOL0     O81811   2.653   1.009  10.897 -0.2323  0.5881  0.3107
  607MOL0     C81812   2.537   0.991  10.888  0.4971  0.3511 -0.2603
  607MOL0     O81813   2.463   1.021  10.782 -0.4945 -0.3526  0.3138
  607MOL0     C81814   2.528   1.057  10.667 -0.8167 -0.0814 -0.6622
  607MOL0     C81815   2.631   1.156  10.654  0.4191 -0.7761  0.0331
  607MOL0     C81816   2.691   1.188  10.530 -0.2175  0.0408 -1.2033
  607MOL0     C81817   2.653   1.115  10.417 -0.1199  0.4653 -0.1403
  607MOL0     O81818   2.706   1.141  10.295 -0.5463 -0.1386  0.0401
  607MOL0     C81819   2.854   1.148  10.289  0.3362  0.2595  0.4460
  607MOL0     C81820   2.904   1.164  10.144 -0.5154  1.1094  0.6549
  607MOL0     C81821   2.905   1.302  10.084  0.2655 -0.0818  0.9065
  607MOL0     C81822   3.012   1.396  10.140  0.0083 -0.2792  0.5290
  607MOL0     C81823   2.976   1.544  10.111 -0.7353 -0.1094  0.1081
  607MOL0     C81824   3.010   1.576   9.963  0.4524 -0.2870 -0.4014
  607MOL0     C81825   2.971   1.725   9.930  0.0757 -0.3461  0.4029
  607MOL0     C81826   3.045   1.825  10.012 -0.2147 -0.4968  0.0916
  607MOL0     N81827   3.194   1.798  10.001  0.0052 -0.1071 -0.3205
  607MOL0     C81828   3.288   1.808  10.102  0.3251 -0.1465 -0.0477
  607MOL0     C81829   3.408   1.759  10.064  0.4765  1.0322 -0.1699
  607MOL0     C81830   3.528   1.721  10.157  0.7695  0.7177  0.0906
  607MOL0     C81831   3.489   1.592  10.246  0.0194 -0.5300 -0.7533
  607MOL0     C81832   3.489   1.456  10.177 -1.3399 -0.3550  0.6656
  607MOL0     C81833   3.597   1.421  10.083 -0.6610 -0.2433 -0.3233
  607MOL0     O81834   3.718   1.404  10.156 -0.0982  0.3682 -0.5119
  607MOL0     C81835   3.839   1.373  10.100 -0.5967  0.8830 -0.3622
  607MOL0     C81836   3.861   1.356   9.964 -0.6650 -0.0148  0.7051
  607MOL0     C81837   3.994   1.346   9.917 -0.3776 -0.2441 -0.0886
  607MOL0     C81838   4.092   1.323  10.007 -0.9483 -0.9803 -0.7000
  607MOL0     C81839   4.218   1.292   9.949 -0.0377 -0.3390 -0.3943
  607MOL0     O81840   4.257   1.354   9.828  0.4599  0.3082 -0.3332
  607MOL0     C81841   4.385   1.357   9.787 -0.4490 -0.8999  0.1726
  607MOL0     C81842   4.465   1.473   9.798  0.5043 -0.0766 -0.3491
  607MOL0     C81843   4.602   1.467   9.761 -0.3594 -0.4527 -0.0333
  607MOL0     C81844   4.664   1.345   9.723 -0.4373 -1.3407  0.3049
  607MOL0     O81845   4.797   1.353   9.675 -0.1313  0.0533 -0.4435
  607MOL0     C81846   4.875   1.230   9.675 -0.6267 -0.3751 -0.9666
  607MOL0     C81847   5.018   1.272   9.655 -0.1204 -0.0865  0.0720
  607MOL0     C81848   5.086   1.331   9.786  0.1252 -0.5535 -0.2903
  607MOL0     C81849   5.226   1.390   9.760  0.0521 -0.4949 -0.2786
  607MOL0     C81850   5.292   1.455   9.877  0.1133  0.3516  0.2583
  607MOL0     C81851   5.330   1.349   9.979  0.4893 -0.3969 -0.2047
  607MOL0     C81852   5.378   1.419  10.102  0.3565  0.2087 -0.3104
  607MOL0     C81853   5.430   1.325  10.207 -0.6020 -0.0555  0.2256
  607MOL0    Cl81854   5.595   1.248  10.159  0.2172 -0.3299 -0.0746
  607MOL0     C81855   4.578   1.234   9.712 -0.3288  0.6119 -0.0037
  607MOL0     C81856   4.443   1.236   9.741  0.5334 -0.9817 -0.4555
  607MOL0     O81857   4.288   1.224  10.020 -0.3594  0.1430  0.3825
  607MOL0     C81858   4.064   1.329  10.142 -0.6678 -0.0004 -0.9864
  607MOL0     C81859   3.942   1.360  10.189 -0.0210  0.2642  0.2159
  607MOL0     N81860   3.388   1.738   9.921 -0.2189  0.7412 -0.1646
  607MOL0     N81861   3.262   1.751   9.890 -0.6827  0.3421  0.3427
  607MOL0     C81862   2.552   1.013  10.434 -0.5203  0.4047  0.2860
  607MOL0     C81863   2.495   0.977  10.556 -0.0829 -0.1781 -0.1977
  607MOL0     C81864   2.469   0.954  11.011 -1.0861 -0.1013  0.0008
  607MOL0     C81865   2.340   1.002  11.033  0.5141 -0.4450  0.2270
  607MOL0     C81866   2.283   1.017  11.158  0.0283  0.6279 -0.5920
  607MOL0     C81867   2.346   0.959  11.269  0.8412  0.6261 -0.2572
  607MOL0     O81868   2.295   0.947  11.394  0.3577  0.5781  0.1927
  607MOL0     C81869   2.158   0.977  11.421 -0.3936  0.1507  0.4614
  607MOL0     C81870   2.130   0.965  11.573  0.3492  0.0171  0.1894
  607MOL0     C81871   1.987   1.013  11.599 -0.8046  0.0258 -0.2863
  607MOL0     C81872   1.882   0.922  11.530 -0.1597  0.6173  0.2756
  607MOL0     C81873   1.746   0.965  11.574 -1.1755 -0.6079 -0.7665
  607MOL0     C81874   1.633   1.001  11.599 -0.2058  0.5813 -0.9476
  607MOL0     C81875   2.463   0.892  11.245 -0.6957  0.3963 -0.9539
  607MOL0     C81876   2.533   0.893  11.127  0.6275 -0.6943  0.4328
  607MOL0     C81877   2.667   0.837  11.111 -1.5817 -0.1142  0.2013
  607MOL0     H81878   2.663   1.217  10.738 -4.2846 -2.1114  3.1657
  607MOL0     H81879   2.758   1.272  10.518  0.4137 -0.4873 -1.4038
  607MOL0     H81880   2.884   1.227  10.359  0.1133 -0.4118  1.3094
  607MOL0     H81881   2.905   1.056  10.318  0.2605  0.4482  1.1925
  607MOL0     H81882   2.864   1.086  10.078 -2.7029  0.5310  2.5263
  607MOL0     H81883   3.011   1.144  10.133 -0.9935 -0.4323 -2.7382
  607MOL0     H81884   2.805   1.334  10.115 -0.5269 -1.0305 -0.5360
  607MOL0     H81885   2.909   1.301   9.975  0.0790  2.0001  0.8265
  607MOL0     H81886   3.019   1.377  10.248  0.8750 -4.3318 -0.0686
  607MOL0     H81887   3.113   1.376  10.104 -0.8251 -2.5657 -0.7668
  607MOL0     H81888   2.868   1.549  10.127 -0.7618 -0.4403  0.0334
  607MOL0     H81889   3.029   1.605  10.184  0.0490 -1.3805  0.6275
  607MOL0     H81890   3.116   1.551   9.953  0.6321 -1.3459  3.0181
  607MOL0     H81891   2.953   1.514   9.893  0.0723 -0.0635 -0.2924
  607MOL0     H81892   2.865   1.736   9.952 -0.1661  0.4226 -1.0285
  607MOL0     H81893   2.983   1.745   9.823 -2.0911  0.5606  0.2898
  607MOL0     H81894   3.031   1.923   9.966  0.4293 -0.8936 -0.9734
  607MOL0     H81895   3.001   1.829  10.112  2.7275 -0.2151  1.4958
  607MOL0     H81896   3.262   1.847  10.201  0.0245 -0.2479 -0.0855
  607MOL0     H81897   3.612   1.689  10.096 -0.2562 -3.5166  0.5729
  607MOL0     H81898   3.543   1.806  10.224 -1.0431  0.6787  0.6100
  607MOL0     H81899   3.563   1.579  10.326  0.4873 -3.1636 -1.5151
  607MOL0     H81900   3.393   1.609  10.295 -0.5865 -3.9497 -0.5621
  607MOL0     H81901   3.399   1.448  10.115  0.3554 -0.7552 -1.8611
  607MOL0     H81902   3.478   1.382  10.257 -0.6819 -0.8621  0.2919
  607MOL0     H81903   3.598   1.496  10.003  0.5086  0.8283  0.6656
  607MOL0     H81904   3.567   1.329  10.031 -2.5678 -0.4614  1.0789
  607MOL0     H81905   3.778   1.367   9.895 -2.7786  2.4925  3.3789
  607MOL0     H81906   4.021   1.341   9.812  1.4400  0.6010  0.3001
  607MOL0     H81907   4.422   1.569   9.825  1.3515  0.6448 -1.4468
  607MOL0     H81908   4.664   1.556   9.766 -0.3395 -0.5263  1.2936
  607MOL0     H81909   4.885   1.187   9.775 -0.4729  0.5745 -0.5621
  607MOL0     H81910   4.843   1.161   9.596 -0.2029 -0.4005 -1.1199
  607MOL0     H81911   5.068   1.179   9.629 -1.7695 -0.3818 -2.4188
  607MOL0     H81912   5.035   1.338   9.569  1.1692 -0.0373  0.3411
  607MOL0     H81913   5.031   1.411   9.837  0.9630  0.4441 -0.9048
  607MOL0     H81914   5.093   1.252   9.861 -1.0203  0.6522  1.1514
  607MOL0     H81915   5.210   1.458   9.676  0.1238 -0.6266 -0.3991
  607MOL0     H81916   5.289   1.310   9.720  0.3466 -1.0119  1.1927
  607MOL0     H81917   5.226   1.530   9.920 -0.5426  0.6778 -1.2447
  607MOL0     H81918   5.380   1.515   9.850 -1.9270  4.3514  1.6178
  607MOL0     H81919   5.253   1.280  10.016  1.2270 -1.2284 -0.1797
  607MOL0     H81920   5.406   1.285   9.933  0.3906 -1.6033  1.2132
  607MOL0     H81921   5.287   1.471  10.135  1.9975  2.8885  0.3185
  607MOL0     H81922   5.455   1.493  10.079  0.7949 -0.2564 -0.3629
  607MOL0     H81923   5.459   1.386  10.293 -0.6401 -0.6311  0.6503
  607MOL0     H81924   5.351   1.255  10.235 -0.9792  0.2401 -0.0773
  607MOL0     H81925   4.618   1.136   9.687 -0.0817  0.8094 -0.4002
  607MOL0     H81926   4.382   1.148   9.757 -0.5340  0.2124  2.8474
  607MOL0     H81927   4.134   1.317  10.224  0.2672  1.5484 -1.5132
  607MOL0     H81928   3.911   1.382  10.290 -3.1313 -0.2146 -0.5358
  607MOL0     H81929   2.525   0.959  10.344 -2.2074  0.0001  1.0047
  607MOL0     H81930   2.414   0.905  10.564 -0.0442 -0.3082 -0.9256
  607MOL0     H81931   2.287   1.034  10.944  1.0975  0.5713  0.2253
  607MOL0     H81932   2.189   1.069  11.174 -1.6716 -1.9958 -1.3189
  607MOL0     H81933   2.089   0.915  11.362  1.3515 -0.2636 -1.2529
  607MOL0     H81934   2.137   1.077  11.380  0.5744 -0.8996 -2.9330
  607MOL0     H81935   2.203   1.026  11.627  0.0448  0.4656  0.0934
  607MOL0     H81936   2.143   0.860  11.602 -0.5443 -0.3483 -0.6795
  607MOL0     H81937   1.971   1.120  11.586  0.4252  0.2567 -0.0617
  607MOL0     H81938   1.978   1.001  11.708  0.6005  1.9584  0.0972
  607MOL0     H81939   1.882   0.941  11.423 -0.9320  1.8207  0.4673
  607MOL0     H81940   1.900   0.815  11.549  0.1356  0.2155 -2.0290
  607MOL0     H81941   1.533   1.026  11.630 -0.8851 -0.4618 -2.2188
  607MOL0     H81942   2.515   0.855  11.332  2.1159  0.5748 -2.4359
  607MOL0     H81943   2.675   0.796  11.010  0.1658  2.1703 -0.6803
  607MOL0     H81944   2.735   0.922  11.119  0.7371 -2.0057  2.5485
  607MOL0     H81945   2.696   0.774  11.196 -1.1542  1.2083  1.0727
  608MOL0     O81946   9.197   2.963   3.801 -0.4120 -0.6236 -0.3191
  608MOL0     C81947   9.145   3.064   3.754 -0.1300  0.4903  0.7136
  608MOL0     O81948   9.213   3.179   3.728  0.4038 -0.6542  0.2392
  608MOL0     C81949   9.351   3.170   3.728  0.0916  0.3530  0.3202
  608MOL0     C81950   9.410   3.149   3.607  0.0833  0.7328 -0.9190
  608MOL0     C81951   9.552   3.128   3.600 -0.0664  0.4137 -0.6366
  608MOL0     C81952   9.623   3.135   3.720  0.3870  0.7132 -0.7121
  608MOL0     O81953   9.754   3.122   3.712 -1.0927 -0.1110  0.4949
  608MOL0     C81954   9.839   3.145   3.823 -0.0849  0.1600  0.1740
  608MOL0     C81955   9.973   3.172   3.762  1.1036 -0.0955 -0.7247
  608MOL0     C81956  10.080   3.149   3.854 -0.2686 -0.3313  0.3364
  608MOL0     C81957  10.219   3.187   3.795 -0.8361 -0.1446 -0.3126
  608MOL0     C81958  10.326   3.148   3.898 -0.1047 -0.2707  0.0559
  608MOL0     C81959  10.467   3.175   3.839  0.4095  0.4221 -0.3011
  608MOL0     C81960  10.583   3.094   3.899 -0.1718  0.3995 -0.8640
  608MOL0     C81961  10.721   3.135   3.848  0.2208  0.1095  0.5402
  608MOL0     N81962  10.763   3.256   3.916 -0.1055 -0.0639  0.3512
  608MOL0     C81963  10.793   3.265   4.045  0.4080  0.4760 -0.3147
  608MOL0     C81964  10.825   3.393   4.074  0.6254 -0.4985 -0.2657
  608MOL0     C81965  10.862   3.462   4.197 -0.2877  0.8404 -0.9670
  608MOL0     C81966  11.012   3.438   4.230  0.4531 -0.1723 -0.3527
  608MOL0     C81967  11.097   3.459   4.106 -0.3084  0.9771  0.3851
  608MOL0     C81968  11.247   3.423   4.129 -1.0797  0.1469 -0.1156
  608MOL0     O81969  11.280   3.461   4.265 -0.2465 -0.2172  0.7843
  608MOL0     C81970  11.414   3.463   4.298 -0.0353  0.3202  0.3078
  608MOL0     C81971  11.507   3.375   4.244 -0.5048 -0.4827  0.1111
  608MOL0     C81972  11.647   3.390   4.277 -0.7652 -0.5741 -0.3950
  608MOL0     C81973  11.683   3.487   4.367 -0.1918 -0.3765  0.6547
  608MOL0     C81974  11.823   3.484   4.406 -0.2557 -0.6147 -0.4291
  608MOL0     O81975  11.897   3.372   4.364  0.2578 -0.1510 -0.4633
  608MOL0     C81976  12.028   3.372   4.382  0.1970  0.4174 -0.2546
  608MOL0     C81977  12.088   3.292   4.481  0.6929 -0.6527 -0.2782
  608MOL0     C81978  12.223   3.292   4.493  0.2254  0.3433  0.1415
  608MOL0     C81979  12.309   3.364   4.407  0.7205 -0.4483 -0.8800
  608MOL0     O81980  12.442   3.375   4.428 -0.0510 -0.2871 -0.8345
  608MOL0     C81981  12.502   3.295   4.533 -0.1667 -0.1470 -0.1368
  608MOL0     C81982  12.652   3.327   4.524 -0.2760  0.3293  0.1508
  608MOL0     C81983  12.739   3.256   4.626 -0.1195  0.7495  0.2293
  608MOL0     C81984  12.886   3.269   4.594 -0.0610  0.0926  0.2983
  608MOL0     C81985  12.969   3.208   4.701 -0.5015 -0.7053 -0.3624
  608MOL0     C81986  13.120   3.236   4.672 -0.1995 -0.0573  0.7727
  608MOL0     C81987  13.226   3.165   4.757 -0.3404 -0.5418  0.1630
  608MOL0     C81988  13.370   3.154   4.690  0.8430  0.0251  0.0072
  608MOL0    Cl81989  13.345   3.070   4.526 -0.2811 -0.1482 -0.2355
  608MOL0     C81990  12.250   3.455   4.314  0.2227  0.6821  0.3260
  608MOL0     C81991  12.109   3.454   4.304  0.1966 -0.1416  0.5808
  608MOL0     O81992  11.876   3.579   4.467 -0.0395 -0.2410  0.4256
  608MOL0     C81993  11.585   3.568   4.429  0.0570 -0.4713 -0.4993
  608MOL0     C81994  11.456   3.561   4.389  0.0490 -0.4224  0.2004
  608MOL0     N81995  10.825   3.459   3.950  0.3851 -0.2199  0.1070
  608MOL0     N81996  10.798   3.374   3.858 -0.6241  0.2312  1.3223
  608MOL0     C81997   9.560   3.154   3.840  0.3742 -0.0216 -0.6628
  608MOL0     C81998   9.423   3.172   3.847 -0.0931 -0.0140 -0.4987
  608MOL0     C81999   8.995   3.052   3.734  0.4970  0.3604 -0.0911
  608MOL0     C82000   8.923   2.950   3.809 -0.0997 -0.3107  0.2828
  608MOL0     C82001   8.789   2.924   3.780  0.5711  0.6585  0.3774
  608MOL0     C82002   8.723   3.007   3.684 -0.0951  0.3521 -0.6396
  608MOL0     O82003   8.595   2.988   3.647 -0.0736  1.3948  0.0050
  608MOL0     C82004   8.531   2.865   3.685 -0.0238  0.1445  0.1701
  608MOL0     C82005   8.395   2.868   3.621 -0.1701 -1.0079 -0.5539
  608MOL0     C82006   8.296   2.778   3.690 -0.2155 -0.1919 -0.1158
  608MOL0     C82007   8.163   2.785   3.621  0.9078  0.0715  0.0320
  608MOL0     C82008   8.051   2.735   3.703  0.1023  0.7418  0.4555
  608MOL0     C82009   7.971   2.681   3.768  0.7152  0.9122  0.2397
  608MOL0     C82010   8.795   3.106   3.610  0.8957 -0.0831 -0.1617
  608MOL0     C82011   8.927   3.126   3.635  0.7556  1.0327 -0.9034
  608MOL0     C82012   8.999   3.230   3.551  0.1790 -0.6325  0.4289
  608MOL0     H82013   9.347   3.141   3.518 -1.8085 -3.5148  0.5098
  608MOL0     H82014   9.603   3.119   3.505  0.6919  2.3700 -0.4790
  608MOL0     H82015   9.814   3.236   3.877 -0.0385 -0.7299  1.7400
  608MOL0     H82016   9.846   3.054   3.883  3.0620  1.4179  1.9579
  608MOL0     H82017   9.978   3.277   3.732  2.4669 -0.0194 -0.2916
  608MOL0     H82018   9.981   3.109   3.673  1.8557  0.2699 -0.9188
  608MOL0     H82019  10.094   3.045   3.885  1.1967 -0.3699 -0.3812
  608MOL0     H82020  10.060   3.204   3.947 -0.7587  0.9393 -0.4945
  608MOL0     H82021  10.231   3.142   3.696 -0.2317 -0.5570 -0.0607
  608MOL0     H82022  10.226   3.295   3.777  2.1205 -0.3542 -1.0298
  608MOL0     H82023  10.312   3.216   3.982  1.1199  2.3849 -1.7474
  608MOL0     H82024  10.310   3.044   3.928  0.5240  0.1464  1.9952
  608MOL0     H82025  10.461   3.150   3.733  3.4882  1.6262 -0.8582
  608MOL0     H82026  10.483   3.283   3.848 -0.2253  0.4440  0.8400
  608MOL0     H82027  10.558   2.989   3.886  1.0892  0.1308 -1.2741
  608MOL0     H82028  10.582   3.096   4.008 -0.5858  0.2427 -0.8653
  608MOL0     H82029  10.788   3.050   3.865  2.1444  1.7322  1.3614
  608MOL0     H82030  10.717   3.157   3.741 -0.3089  0.8290  0.7001
  608MOL0     H82031  10.784   3.176   4.106 -1.0078 -1.4991 -3.1581
  608MOL0     H82032  10.838   3.569   4.190 -3.4878  0.1965 -1.3484
  608MOL0     H82033  10.804   3.412   4.275  4.3620 -1.3941  1.4762
  608MOL0     H82034  11.047   3.509   4.306 -1.8433  1.0516 -0.3522
  608MOL0     H82035  11.022   3.332   4.256 -1.3092 -0.1618  0.4842
  608MOL0     H82036  11.105   3.561   4.067  0.6317  0.1755 -1.6745
  608MOL0     H82037  11.067   3.387   4.029  2.4284 -0.2080  0.3219
  608MOL0     H82038  11.316   3.483   4.068  0.0062  0.2414  1.1597
  608MOL0     H82039  11.269   3.316   4.120  2.3499  0.8853 -2.1941
  608MOL0     H82040  11.472   3.296   4.178 -2.8197  1.0104 -0.5823
  608MOL0     H82041  11.713   3.323   4.223 -0.4374 -1.1817  0.7386
  608MOL0     H82042  12.038   3.214   4.537  2.0656 -1.8445 -0.6485
  608MOL0     H82043  12.261   3.228   4.571  0.4701  0.2442 -0.0590
  608MOL0     H82044  12.458   3.324   4.629  0.6076 -1.8608  0.7906
  608MOL0     H82045  12.482   3.188   4.520  2.9798 -0.6469 -1.9780
  608MOL0     H82046  12.684   3.291   4.426  1.0066  2.1828 -0.1732
  608MOL0     H82047  12.678   3.432   4.542  1.2497  0.0070 -0.0363
  608MOL0     H82048  12.704   3.289   4.725 -2.8662 -0.1006 -0.3693
  608MOL0     H82049  12.717   3.150   4.613 -0.0135  0.8958 -1.2326
  608MOL0     H82050  12.917   3.370   4.568  2.5964 -1.2241 -2.2263
  608MOL0     H82051  12.901   3.205   4.507 -1.9058 -0.0450  0.0491
  608MOL0     H82052  12.948   3.102   4.714  0.7979 -1.1135 -1.4318
  608MOL0     H82053  12.939   3.254   4.795 -0.1212  0.9442 -1.0114
  608MOL0     H82054  13.143   3.224   4.566  1.4912  3.6946  0.5696
  608MOL0     H82055  13.125   3.345   4.679  1.6600  0.0241 -0.9884
  608MOL0     H82056  13.206   3.060   4.780  1.7634 -1.6014 -2.3242
  608MOL0     H82057  13.237   3.211   4.855  0.5477 -0.0395 -0.1612
  608MOL0     H82058  13.427   3.244   4.666  0.2623 -0.1843 -2.3610
  608MOL0     H82059  13.435   3.088   4.748  0.8581  0.2321  0.2269
  608MOL0     H82060  12.315   3.507   4.245  2.5141 -1.5126  0.6637
  608MOL0     H82061  12.059   3.527   4.241  2.3201  0.6866 -0.2410
  608MOL0     H82062  11.615   3.641   4.504  0.6112 -1.8586  0.6676
  608MOL0     H82063  11.380   3.624   4.434  1.0703  1.4829 -0.6092
  608MOL0     H82064   9.616   3.154   3.933 -2.1230 -2.7735  1.0277
  608MOL0     H82065   9.361   3.185   3.936  0.8619 -2.1613  0.5515
  608MOL0     H82066   8.978   2.885   3.876  0.6438 -0.0452 -0.0538
  608MOL0     H82067   8.740   2.847   3.838 -2.6227  1.0710 -1.5303
  608MOL0     H82068   8.513   2.865   3.793 -1.3980  0.3772 -0.0466
  608MOL0     H82069   8.586   2.773   3.663 -0.6672 -0.2534  0.2045
  608MOL0     H82070   8.407   2.843   3.515 -0.4297 -3.5182 -0.0647
  608MOL0     H82071   8.366   2.971   3.640  2.9983 -0.4044  1.9071
  608MOL0     H82072   8.291   2.795   3.798 -1.8478 -1.0188 -0.0383
  608MOL0     H82073   8.332   2.675   3.687 -2.4401 -1.0058 -0.6058
  608MOL0     H82074   8.149   2.892   3.607 -2.2711  0.0239  1.9224
  608MOL0     H82075   8.168   2.739   3.522  2.7662  2.5089 -1.1168
  608MOL0     H82076   7.913   2.606   3.817  0.4724  1.0973  0.2368
  608MOL0     H82077   8.745   3.171   3.539 -0.6483  1.8096  2.4552
  608MOL0     H82078   9.084   3.195   3.491  1.3767  1.8840  0.5007
  608MOL0     H82079   8.933   3.275   3.476  0.6295 -1.0769 -0.2448
  608MOL0     H82080   9.034   3.308   3.619 -1.7073  1.0560 -0.4246
  609MOL0     O82081  10.247   0.795   9.919  0.4529  0.0774  0.0759
  609MOL0     C82082  10.153   0.862   9.963  0.8493  0.3461 -0.7715
  609MOL0     O82083  10.172   0.973  10.027 -0.3172 -0.9036 -0.0249
  609MOL0     C82084  10.303   1.005  10.059 -0.4130  0.1070  0.2962
  609MOL0     C82085  10.354   0.977  10.184  0.8207 -1.0626 -0.0281
  609MOL0     C82086  10.490   0.980  10.205 -0.3589 -1.3026 -0.0926
  609MOL0     C82087  10.573   1.032  10.109 -1.0072  0.1045  0.2130
  609MOL0     O82088  10.710   1.039  10.128 -1.0370  1.3618 -0.4125
  609MOL0     C82089  10.773   0.990  10.248 -0.6997  0.5927  0.4375
  609MOL0     C82090  10.916   1.033  10.236 -0.2888  1.0741  0.4763
  609MOL0     C82091  10.994   0.988  10.370  0.2548 -1.0356  0.1780
  609MOL0     C82092  11.115   1.080  10.380 -0.8176 -0.2866 -0.6627
  609MOL0     C82093  11.183   1.040  10.509 -0.1979 -0.4765 -0.3863
  609MOL0     C82094  11.317   1.118  10.526  0.5455  0.3759  0.2671
  609MOL0     C82095  11.398   1.067  10.645 -0.2876 -0.0039  0.6095
  609MOL0     C82096  11.518   1.158  10.673  0.5898 -0.0640  0.6466
  609MOL0     N82097  11.615   1.122  10.567 -0.0367 -0.4349 -0.3979
  609MOL0     C82098  11.654   1.213  10.464 -0.0791  0.5644  0.4552
  609MOL0     C82099  11.746   1.137  10.397  0.0600  0.0841  0.0538
  609MOL0     C82100  11.817   1.193  10.286 -0.7748 -0.3361 -0.0807
  609MOL0     C82101  11.963   1.228  10.303 -0.3086 -0.6728 -0.3776
  609MOL0     C82102  11.997   1.315  10.175  0.0917  0.1296 -0.2136
  609MOL0     C82103  12.147   1.335  10.170  0.3778  0.0437 -0.0414
  609MOL0     O82104  12.164   1.469  10.127 -0.4418 -0.0595 -0.1987
  609MOL0     C82105  12.283   1.516  10.088 -0.3050  0.5168 -0.2140
  609MOL0     C82106  12.399   1.445  10.091 -0.1626 -0.1234  0.1475
  609MOL0     C82107  12.510   1.487  10.027  0.5300  0.4501  0.3754
  609MOL0     C82108  12.522   1.613   9.968  0.5200  0.3597  0.2568
  609MOL0     C82109  12.644   1.672   9.919 -0.2803  0.1137  0.7360
  609MOL0     O82110  12.758   1.595   9.938 -0.3374 -0.2745 -0.2678
  609MOL0     C82111  12.887   1.639   9.894 -0.1936 -0.3337  0.3919
  609MOL0     C82112  12.997   1.650   9.977 -0.0133 -0.1443 -1.5722
  609MOL0     C82113  13.121   1.685   9.927  0.7035 -0.3380 -0.2041
  609MOL0     C82114  13.143   1.707   9.790  0.2918  0.4337  0.0653
  609MOL0     O82115  13.268   1.748   9.745 -0.4315  0.6254  0.5815
  609MOL0     C82116  13.385   1.691   9.793  1.0433  0.5291  0.0079
  609MOL0     C82117  13.395   1.530   9.763 -0.1362 -0.2568 -0.9237
  609MOL0     C82118  13.414   1.499   9.610  0.0295  0.4655  0.6690
  609MOL0     C82119  13.501   1.378   9.598  0.7883  0.2618 -0.1752
  609MOL0     C82120  13.556   1.354   9.462 -0.6633 -0.6546  0.6165
  609MOL0     C82121  13.625   1.217   9.450 -0.2709 -0.0037 -0.4060
  609MOL0     C82122  13.686   1.197   9.307  0.2183  0.0706 -1.0108
  609MOL0     C82123  13.782   1.084   9.305  0.2686 -0.7037 -0.4976
  609MOL0    Cl82124  13.919   1.094   9.194 -0.1193 -0.0855  0.2432
  609MOL0     C82125  13.040   1.690   9.701  0.2959 -0.6699 -0.4430
  609MOL0     C82126  12.914   1.654   9.749  0.8106  0.7173 -0.1805
  609MOL0     O82127  12.645   1.777   9.859  0.2947 -0.0905  0.1305
  609MOL0     C82128  12.404   1.689   9.961 -0.2091 -0.2363  0.4527
  609MOL0     C82129  12.295   1.640  10.028  0.5392  0.4432 -0.5480
  609MOL0     N82130  11.770   1.020  10.465 -0.1064 -0.2088 -0.2516
  609MOL0     N82131  11.686   1.007  10.562 -0.3674 -0.0965  0.2304
  609MOL0     C82132  10.523   1.083   9.990  0.0820 -0.1747 -0.0235
  609MOL0     C82133  10.385   1.061   9.958 -0.2283  0.1996  0.0808
  609MOL0     C82134  10.008   0.822   9.952 -0.3611  0.5423 -0.0316
  609MOL0     C82135   9.907   0.911  10.001  0.2531  0.3047 -0.2564
  609MOL0     C82136   9.766   0.880   9.993  0.5165  0.7599 -0.0628
  609MOL0     C82137   9.727   0.750   9.945 -0.1809  0.5003 -0.0512
  609MOL0     O82138   9.597   0.707   9.941  0.0229 -0.1658  0.1289
  609MOL0     C82139   9.497   0.788  10.006 -0.5284 -0.1893  0.1453
  609MOL0     C82140   9.371   0.711  10.024  0.2869  0.1380 -0.0378
  609MOL0     C82141   9.292   0.767  10.145  0.3861 -0.0964  0.1613
  609MOL0     C82142   9.154   0.700  10.162  0.1961  0.5140  0.5132
  609MOL0     C82143   9.080   0.777  10.265  0.0391  0.3978  0.5741
  609MOL0     C82144   9.024   0.825  10.363  0.5590 -0.4900  0.4569
  609MOL0     C82145   9.823   0.672   9.899 -0.6860 -0.2571  0.7974
  609MOL0     C82146   9.961   0.697   9.897 -0.3864 -0.4146 -0.5285
  609MOL0     C82147  10.060   0.596   9.829 -0.3107 -1.2209 -0.1856
  609MOL0     H82148  10.280   0.942  10.257  0.5024  0.7639  0.5840
  609MOL0     H82149  10.537   0.967  10.302  1.4241  0.6389 -0.6121
  609MOL0     H82150  10.721   1.043  10.328  0.9544  0.9166  1.3313
  609MOL0     H82151  10.763   0.883  10.269 -2.3772  0.4173 -0.9404
  609MOL0     H82152  10.921   1.141  10.222  1.6548  0.9870  0.2521
  609MOL0     H82153  10.954   0.983  10.146 -1.8410  3.9943 -1.9781
  609MOL0     H82154  11.041   0.890  10.369  0.7546 -0.8976 -3.1262
  609MOL0     H82155  10.922   1.011  10.449 -0.9827 -0.5801 -1.0227
  609MOL0     H82156  11.185   1.071  10.297  1.3753  1.6679  0.8507
  609MOL0     H82157  11.071   1.180  10.376 -1.3617 -0.5071 -0.3108
  609MOL0     H82158  11.118   1.067  10.592 -1.7264 -0.2711 -1.5924
  609MOL0     H82159  11.191   0.931  10.509  1.7048 -0.4340 -2.4491
  609MOL0     H82160  11.370   1.122  10.431 -2.5347  0.4264 -1.5693
  609MOL0     H82161  11.299   1.224  10.544 -2.1000  0.0047  0.2167
  609MOL0     H82162  11.421   0.963  10.620 -1.8634 -0.2383  0.0156
  609MOL0     H82163  11.338   1.066  10.736  1.7159 -2.3018  2.0317
  609MOL0     H82164  11.492   1.263  10.660  1.0017  0.0473  0.6963
  609MOL0     H82165  11.561   1.153  10.774 -0.2385 -2.7224  0.9409
  609MOL0     H82166  11.618   1.314  10.448 -0.6938  1.0418  4.1461
  609MOL0     H82167  11.821   1.123  10.202  1.5352 -1.5133  0.9246
  609MOL0     H82168  11.763   1.285  10.261 -1.1440 -0.0110  1.8303
  609MOL0     H82169  11.981   1.292  10.391  0.2834  1.4317 -1.9539
  609MOL0     H82170  12.025   1.138  10.314 -1.2026 -1.1670  0.8756
  609MOL0     H82171  11.938   1.406  10.192 -1.4519 -0.9652  0.4499
  609MOL0     H82172  11.964   1.271  10.081 -0.3723 -0.4962  0.2390
  609MOL0     H82173  12.178   1.254  10.103 -3.5600 -1.3433 -0.4540
  609MOL0     H82174  12.202   1.334  10.264  0.4425 -2.7117 -0.0397
  609MOL0     H82175  12.395   1.347  10.139  0.5282 -1.0806 -1.6762
  609MOL0     H82176  12.601   1.428  10.025  0.5262  0.4120  1.1606
  609MOL0     H82177  12.981   1.622  10.081  0.7169 -1.2288 -1.7390
  609MOL0     H82178  13.207   1.684   9.994  0.9523 -2.0496 -0.4862
  609MOL0     H82179  13.469   1.749   9.752  1.4223  0.0083  0.0257
  609MOL0     H82180  13.398   1.728   9.895  1.6278  0.5705 -0.0784
  609MOL0     H82181  13.486   1.503   9.817  0.4581  1.1602 -1.1536
  609MOL0     H82182  13.306   1.484   9.805 -1.6635  1.7650 -1.7411
  609MOL0     H82183  13.318   1.470   9.565  1.3255 -0.2251 -1.8335
  609MOL0     H82184  13.453   1.588   9.559 -1.6231  1.8711  1.7479
  609MOL0     H82185  13.430   1.295   9.602  2.4737 -1.2432  0.0472
  609MOL0     H82186  13.574   1.370   9.679 -1.1113 -0.1390  1.5489
  609MOL0     H82187  13.632   1.430   9.441 -1.3987 -0.1440 -0.2432
  609MOL0     H82188  13.481   1.373   9.386  0.9252  2.3339 -0.3634
  609MOL0     H82189  13.711   1.219   9.518  0.6895 -0.4247 -1.5700
  609MOL0     H82190  13.560   1.134   9.481 -1.0404 -0.8575 -3.8791
  609MOL0     H82191  13.731   1.290   9.272  0.0455  0.8381  0.6867
  609MOL0     H82192  13.605   1.176   9.237 -2.0678 -1.7689  1.9315
  609MOL0     H82193  13.834   1.074   9.401 -1.0887 -0.6991  0.2623
  609MOL0     H82194  13.726   0.992   9.286 -0.3128 -0.7299  1.1474
  609MOL0     H82195  13.055   1.710   9.596 -0.4909 -0.7030 -0.5748
  609MOL0     H82196  12.829   1.658   9.681  0.9971  0.1888 -0.4580
  609MOL0     H82197  12.393   1.772   9.892  1.9945 -0.1163  0.1474
  609MOL0     H82198  12.208   1.704  10.017  1.3556  1.8751  0.8949
  609MOL0     H82199  10.582   1.124   9.908  0.7858 -1.3196 -0.1068
  609MOL0     H82200  10.342   1.098   9.866 -0.1179  0.7798  0.2589
  609MOL0     H82201   9.930   1.001  10.057 -0.8431  2.5001 -3.0532
  609MOL0     H82202   9.696   0.955  10.028 -1.0125 -1.1650  1.2592
  609MOL0     H82203   9.481   0.883   9.955 -1.5171 -0.2668  0.2915
  609MOL0     H82204   9.535   0.823  10.103  2.9451  0.7724 -1.4086
  609MOL0     H82205   9.405   0.611  10.054 -0.7923  0.1134  1.1811
  609MOL0     H82206   9.310   0.716   9.934 -2.7470 -0.3263  1.8423
  609MOL0     H82207   9.274   0.874  10.133  0.8120  0.5581  4.0014
  609MOL0     H82208   9.340   0.768  10.243 -0.5255  1.1145  0.6150
  609MOL0     H82209   9.090   0.704  10.074 -0.3487 -0.8313  0.8291
  609MOL0     H82210   9.157   0.597  10.199 -0.8399  0.3764  0.2378
  609MOL0     H82211   8.973   0.869  10.446 -0.3542 -3.9243  1.8815
  609MOL0     H82212   9.796   0.572   9.867 -2.0606  0.6467 -1.0634
  609MOL0     H82213  10.005   0.528   9.763  1.6244 -1.8581 -1.2004
  609MOL0     H82214  10.129   0.638   9.756 -0.9732 -1.2776 -0.8614
  609MOL0     H82215  10.108   0.537   9.907 -0.9926 -1.0285  0.3979
  610MOL0     O82216   2.206   7.699   5.973  0.1765 -0.1076 -0.0007
  610MOL0     C82217   2.137   7.782   6.029  0.9507 -0.3306  1.4138
  610MOL0     O82218   2.187   7.894   6.100 -0.5120  1.1085  0.1734
  610MOL0     C82219   2.323   7.909   6.123  0.7124  0.1611 -0.1586
  610MOL0     C82220   2.380   7.844   6.238 -0.3244  1.1332 -1.0083
  610MOL0     C82221   2.516   7.846   6.254  0.2881 -0.2379 -0.3526
  610MOL0     C82222   2.598   7.931   6.173  0.2370 -0.0106  0.5627
  610MOL0     O82223   2.729   7.920   6.192 -0.3920 -0.2169  0.0694
  610MOL0     C82224   2.817   8.025   6.135 -0.1504 -0.4039 -0.2558
  610MOL0     C82225   2.955   8.007   6.196 -0.9735  0.2193  0.0113
  610MOL0     C82226   3.052   8.100   6.121 -0.5010 -0.8445 -0.8982
  610MOL0     C82227   3.197   8.065   6.147  0.8588 -0.1422 -0.4469
  610MOL0     C82228   3.249   8.112   6.291 -0.0715 -0.3997  0.0835
  610MOL0     C82229   3.399   8.113   6.298  0.7404  0.3807 -0.6872
  610MOL0     C82230   3.442   8.156   6.441 -0.2529  0.2676 -1.1052
  610MOL0     C82231   3.591   8.166   6.443  0.6828  0.0579 -0.0165
  610MOL0     N82232   3.633   8.164   6.581 -0.1478  0.4130  0.4533
  610MOL0     C82233   3.635   8.267   6.669  0.1801 -0.6087 -0.2070
  610MOL0     C82234   3.706   8.219   6.774 -0.2940  0.1612  0.0251
  610MOL0     C82235   3.738   8.278   6.908 -0.1053 -0.5806 -0.6063
  610MOL0     C82236   3.893   8.281   6.936  0.0574  0.6682 -0.6042
  610MOL0     C82237   3.975   8.370   6.844  0.3163  0.0695  0.7570
  610MOL0     C82238   4.122   8.363   6.885  0.1347 -0.1593  0.2853
  610MOL0     O82239   4.197   8.432   6.788 -0.4024 -0.7226 -0.8839
  610MOL0     C82240   4.335   8.404   6.802  0.3936 -0.5024 -0.1943
  610MOL0     C82241   4.408   8.461   6.697  0.4130  0.8867  0.7313
  610MOL0     C82242   4.543   8.432   6.690  0.3125 -0.7320  0.1653
  610MOL0     C82243   4.616   8.366   6.795  0.4333 -1.2718 -0.4772
  610MOL0     C82244   4.764   8.361   6.794 -0.0440  0.1470 -0.8976
  610MOL0     O82245   4.827   8.366   6.918 -0.4605  0.2762  0.6962
  610MOL0     C82246   4.957   8.411   6.918  0.2980 -0.3827  0.0476
  610MOL0     C82247   5.063   8.324   6.951 -0.2625 -0.2205  0.6545
  610MOL0     C82248   5.183   8.383   6.948 -0.0889  0.1191 -0.3415
  610MOL0     C82249   5.210   8.508   6.903  0.9231 -0.3785  0.6997
  610MOL0     O82250   5.340   8.552   6.899 -0.1738  0.2301  0.5385
  610MOL0     C82251   5.375   8.689   6.933  0.0223  0.3606 -0.6333
  610MOL0     C82252   5.528   8.698   6.943 -0.8101  0.3234  0.7627
  610MOL0     C82253   5.585   8.608   7.042 -0.3660  0.8703 -0.5977
  610MOL0     C82254   5.711   8.664   7.115 -0.0243 -0.2090 -0.4470
  610MOL0     C82255   5.792   8.562   7.200 -0.0954  0.0521  0.0875
  610MOL0     C82256   5.935   8.604   7.214  0.0909  0.6162  0.4706
  610MOL0     C82257   6.018   8.530   7.327  0.3221 -0.2287  0.6251
  610MOL0     C82258   6.174   8.531   7.318 -0.3615 -0.5912  1.6185
  610MOL0    Cl82259   6.214   8.449   7.166  0.6751 -0.0923 -0.0988
  610MOL0     C82260   5.111   8.580   6.846  0.9453  0.2519 -0.2542
  610MOL0     C82261   4.982   8.537   6.859  0.0780 -0.7352 -0.1866
  610MOL0     O82262   4.821   8.358   6.686 -0.3870  0.0570 -0.6066
  610MOL0     C82263   4.544   8.324   6.906  0.6819  0.2285 -0.3033
  610MOL0     C82264   4.407   8.338   6.904  1.1454 -0.0703 -0.3423
  610MOL0     N82265   3.730   8.088   6.765 -0.5570 -0.5852 -0.4393
  610MOL0     N82266   3.685   8.048   6.647 -0.2484  0.2791 -0.1882
  610MOL0     C82267   2.539   7.997   6.058 -0.2852  0.2376  0.2528
  610MOL0     C82268   2.400   7.996   6.046 -0.2570 -0.6037  0.9134
  610MOL0     C82269   1.980   7.770   6.037 -0.1230 -0.1602 -0.4101
  610MOL0     C82270   1.900   7.866   6.099  0.2366  0.0012 -0.3954
  610MOL0     C82271   1.764   7.866   6.111  0.3757  0.9250  1.0436
  610MOL0     C82272   1.691   7.758   6.049 -0.0697  0.0172 -0.1408
  610MOL0     O82273   1.556   7.763   6.074  0.1075 -0.2908  0.9026
  610MOL0     C82274   1.483   7.649   6.044 -1.1187  0.6098 -0.6617
  610MOL0     C82275   1.343   7.686   6.077 -0.1290  0.0408  0.0382
  610MOL0     C82276   1.258   7.556   6.060 -0.0558 -0.0833 -0.1324
  610MOL0     C82277   1.115   7.577   6.096 -0.1668 -0.5224  0.4528
  610MOL0     C82278   1.093   7.604   6.236 -0.6867  0.4240  0.1514
  610MOL0     C82279   1.078   7.638   6.353  0.1631 -0.0026  1.1299
  610MOL0     C82280   1.765   7.655   5.994  0.0190 -0.5975 -0.4863
  610MOL0     C82281   1.907   7.664   5.979  0.1120  0.4200  0.5347
  610MOL0     C82282   1.974   7.553   5.904  0.5951 -0.4513  0.7087
  610MOL0     H82283   2.325   7.803   6.322  1.7543 -0.3107 -0.2715
  610MOL0     H82284   2.571   7.799   6.334  1.1873  0.2331 -0.6889
  610MOL0     H82285   2.839   8.000   6.031 -0.0230 -0.6330 -0.1755
  610MOL0     H82286   2.785   8.129   6.148 -1.7182 -1.0031  1.0152
  610MOL0     H82287   2.984   7.902   6.189 -0.3360  0.4850 -1.9341
  610MOL0     H82288   2.955   8.033   6.303 -4.0679 -0.0381  0.1419
  610MOL0     H82289   3.028   8.197   6.165 -0.1444 -0.1719 -2.1243
  610MOL0     H82290   3.032   8.108   6.013 -1.6432  1.6781 -0.5757
  610MOL0     H82291   3.213   7.960   6.121  0.7536 -0.0024 -1.1034
  610MOL0     H82292   3.255   8.127   6.078  0.3434  2.2188  1.1235
  610MOL0     H82293   3.206   8.211   6.309  0.0257 -0.6506  1.9173
  610MOL0     H82294   3.214   8.047   6.372 -0.6324  2.9125  2.7424
  610MOL0     H82295   3.445   8.015   6.286  0.4381 -0.4880  3.6751
  610MOL0     H82296   3.446   8.186   6.231  0.0451  2.3058  0.8057
  610MOL0     H82297   3.411   8.076   6.509  1.4354 -0.5769 -1.2626
  610MOL0     H82298   3.388   8.248   6.466 -3.0859 -1.4889 -0.2189
  610MOL0     H82299   3.628   8.073   6.399  0.9110  1.4145 -2.9660
  610MOL0     H82300   3.632   8.252   6.389 -2.1578 -0.4679 -3.4515
  610MOL0     H82301   3.600   8.368   6.651  0.7374  0.1242  2.4274
  610MOL0     H82302   3.698   8.379   6.916  1.2063  0.0168 -1.2171
  610MOL0     H82303   3.694   8.220   6.990 -0.6160  1.9440  1.0004
  610MOL0     H82304   3.902   8.315   7.040 -1.1675 -0.6982 -0.0222
  610MOL0     H82305   3.919   8.175   6.930  0.8285  0.6309  2.2706
  610MOL0     H82306   3.938   8.473   6.853  1.4975  0.6277 -0.4197
  610MOL0     H82307   3.967   8.343   6.738 -0.4985 -2.7852  1.4652
  610MOL0     H82308   4.162   8.262   6.900  3.9054  1.5255  3.0687
  610MOL0     H82309   4.123   8.415   6.981  0.0532 -0.1382  0.2753
  610MOL0     H82310   4.349   8.517   6.625 -2.6210  1.7888  3.7029
  610MOL0     H82311   4.594   8.469   6.602 -0.9967  0.0075 -0.3042
  610MOL0     H82312   5.051   8.226   6.997 -2.4756  0.5025  1.8044
  610MOL0     H82313   5.270   8.322   6.968  0.9055  1.6632  0.2034
  610MOL0     H82314   5.341   8.761   6.858 -0.4296  0.0446 -0.7323
  610MOL0     H82315   5.325   8.711   7.028 -0.0048 -1.7687 -0.1123
  610MOL0     H82316   5.570   8.673   6.845  1.5291 -0.2935  1.8450
  610MOL0     H82317   5.567   8.798   6.963 -0.1664  0.3556 -0.5328
  610MOL0     H82318   5.513   8.606   7.125  0.9247 -0.1418  0.5344
  610MOL0     H82319   5.606   8.507   7.005 -2.2976 -0.0818  0.7010
  610MOL0     H82320   5.673   8.745   7.178 -0.5395 -1.6458  1.1936
  610MOL0     H82321   5.767   8.717   7.037 -1.4020  0.4946 -0.9812
  610MOL0     H82322   5.790   8.466   7.146  0.4380  0.5816 -0.9130
  610MOL0     H82323   5.756   8.555   7.303 -1.9337  0.1469 -0.5088
  610MOL0     H82324   5.980   8.580   7.117 -0.9667  2.1993 -0.4617
  610MOL0     H82325   5.946   8.711   7.230  0.2933  0.2513  3.3379
  610MOL0     H82326   5.998   8.423   7.330  2.7453 -0.7969 -0.4284
  610MOL0     H82327   5.994   8.583   7.420 -1.7868  0.7134 -0.4017
  610MOL0     H82328   6.205   8.634   7.337 -3.1740  0.0636  3.2971
  610MOL0     H82329   6.211   8.482   7.409 -0.7906 -0.4067  1.8979
  610MOL0     H82330   5.145   8.676   6.809  0.6220 -0.0020 -1.2267
  610MOL0     H82331   4.904   8.609   6.837 -1.0639 -1.9131 -0.1289
  610MOL0     H82332   4.601   8.290   6.992  0.8260 -3.0772 -1.5637
  610MOL0     H82333   4.360   8.287   6.987  2.4278 -0.3153  0.2538
  610MOL0     H82334   2.605   8.044   5.985  1.3433 -1.6969  0.3774
  610MOL0     H82335   2.344   8.044   5.966 -2.0679 -0.7883  2.0176
  610MOL0     H82336   1.955   7.948   6.145 -1.8163  1.0170  0.3551
  610MOL0     H82337   1.723   7.950   6.165 -0.8888 -1.1434  3.5147
  610MOL0     H82338   1.522   7.563   6.099 -0.4899  1.5312  0.3721
  610MOL0     H82339   1.500   7.621   5.939  1.2017 -2.2453  0.3218
  610MOL0     H82340   1.309   7.762   6.006  1.6488 -0.3433 -1.2976
  610MOL0     H82341   1.338   7.713   6.182  1.7086 -3.3505  1.1697
  610MOL0     H82342   1.297   7.473   6.120  1.9330  2.8303  2.9672
  610MOL0     H82343   1.261   7.528   5.955 -0.8475  3.0874 -1.1180
  610MOL0     H82344   1.084   7.659   6.029  0.9928  0.9374  1.6319
  610MOL0     H82345   1.062   7.488   6.062 -0.5508  0.3215 -1.3101
  610MOL0     H82346   1.055   7.663   6.455  1.1233 -1.0925  1.6306
  610MOL0     H82347   1.715   7.562   5.970 -2.9879  0.7846  0.0085
  610MOL0     H82348   2.055   7.588   5.839  3.6467 -2.2107  3.2649
  610MOL0     H82349   2.027   7.493   5.979  3.2050  1.2754  0.4004
  610MOL0     H82350   1.908   7.489   5.844  1.5028 -1.0576  0.3127
  611MOL0     O82351   7.937   6.598  10.046 -0.1767 -0.0934 -0.5757
  611MOL0     C82352   7.911   6.475  10.051  0.5946 -1.3419 -0.1399
  611MOL0     O82353   7.987   6.371  10.027  0.1345 -0.2654  0.0163
  611MOL0     C82354   8.104   6.386   9.961 -0.9091  0.0960 -0.1744
  611MOL0     C82355   8.213   6.455  10.028 -1.0799 -0.2850 -0.1020
  611MOL0     C82356   8.346   6.456   9.972  0.1222  0.5234 -0.7694
  611MOL0     C82357   8.370   6.388   9.850  0.1346 -0.1286 -0.9490
  611MOL0     O82358   8.480   6.373   9.781  0.2505  0.1925  0.3542
  611MOL0     C82359   8.605   6.390   9.848 -0.5689  0.2754  0.5359
  611MOL0     C82360   8.725   6.393   9.751  0.3556 -0.1872 -0.4159
  611MOL0     C82361   8.771   6.534   9.709  0.1481  0.0001  0.1729
  611MOL0     C82362   8.910   6.511   9.634 -0.5653  0.6298 -0.8682
  611MOL0     C82363   8.979   6.650   9.619 -0.3508 -0.6720 -0.1055
  611MOL0     C82364   8.900   6.742   9.528 -0.2569 -0.3194 -0.1229
  611MOL0     C82365   8.988   6.870   9.500  0.0998 -0.3829  0.1962
  611MOL0     C82366   8.886   6.961   9.428  0.8458  0.3458 -0.7142
  611MOL0     N82367   8.958   7.059   9.338  0.2470 -0.3628  0.5043
  611MOL0     C82368   9.067   7.128   9.378  0.3406 -0.5749  0.0854
  611MOL0     C82369   9.106   7.187   9.266  0.2974  0.1227  0.3033
  611MOL0     C82370   9.238   7.259   9.252  0.1351 -0.4497 -0.2994
  611MOL0     C82371   9.358   7.155   9.233  0.5256  0.4556  0.3282
  611MOL0     C82372   9.396   7.126   9.088 -0.7076  0.0285 -0.2785
  611MOL0     C82373   9.506   7.019   9.069  0.1928  0.3538 -0.8955
  611MOL0     O82374   9.627   7.094   9.093 -0.3049 -0.0206 -0.3941
  611MOL0     C82375   9.752   7.035   9.088 -0.1790 -0.1124 -0.1829
  611MOL0     C82376   9.777   6.902   9.055 -0.4975  0.3327 -0.5530
  611MOL0     C82377   9.913   6.866   9.046  0.7717  0.8105 -0.3182
  611MOL0     C82378  10.020   6.952   9.065  0.4700 -0.5385 -0.0232
  611MOL0     C82379  10.162   6.913   9.062 -0.7789  0.4085 -0.3369
  611MOL0     O82380  10.193   6.799   8.999  1.2883 -0.6345 -0.0250
  611MOL0     C82381  10.319   6.768   8.968 -0.7638  0.9604 -0.5311
  611MOL0     C82382  10.380   6.842   8.870  1.2378 -0.9973  0.4005
  611MOL0     C82383  10.508   6.809   8.828 -0.3587  0.1025  0.0444
  611MOL0     C82384  10.576   6.710   8.893 -0.6445  0.8990 -0.4107
  611MOL0     O82385  10.704   6.674   8.870 -0.0632  0.8970 -0.0567
  611MOL0     C82386  10.787   6.739   8.776  0.0299 -0.2581 -0.4533
  611MOL0     C82387  10.917   6.664   8.747  0.2009  0.0070 -0.0324
  611MOL0     C82388  11.010   6.651   8.874  0.6254 -0.2626  0.4027
  611MOL0     C82389  11.158   6.610   8.830  0.4833  0.3075  0.1634
  611MOL0     C82390  11.230   6.547   8.956 -0.2518  0.5757 -0.0329
  611MOL0     C82391  11.363   6.478   8.898 -0.1459 -1.0482 -0.0078
  611MOL0     C82392  11.454   6.411   8.999 -0.3991 -0.8032  0.4079
  611MOL0     C82393  11.593   6.383   8.943 -0.0920 -0.3816  0.6798
  611MOL0    Cl82394  11.575   6.250   8.823  0.3841 -0.2057  0.4336
  611MOL0     C82395  10.517   6.635   8.988  0.5089  0.2370  0.1405
  611MOL0     C82396  10.383   6.662   9.027 -0.0260  0.4353  0.2261
  611MOL0     O82397  10.240   6.997   9.110 -0.4329  0.7161 -0.5384
  611MOL0     C82398   9.986   7.083   9.103 -0.0519  0.3896  0.0248
  611MOL0     C82399   9.857   7.122   9.107  0.2517 -0.1478 -0.4844
  611MOL0     N82400   9.024   7.152   9.158  0.1330 -0.1637  0.4588
  611MOL0     N82401   8.931   7.074   9.205  0.2832  0.0661 -0.3594
  611MOL0     C82402   8.257   6.333   9.792  0.7067  0.0983  0.2267
  611MOL0     C82403   8.132   6.322   9.842 -0.9124 -0.3141  0.8544
  611MOL0     C82404   7.773   6.453  10.098 -0.4521  0.4336 -0.5376
  611MOL0     C82405   7.752   6.343  10.180 -0.8939 -1.2590  0.0543
  611MOL0     C82406   7.625   6.314  10.222 -0.1343  0.2386  0.2596
  611MOL0     C82407   7.519   6.397  10.207 -0.3623 -0.2282 -0.5228
  611MOL0     O82408   7.397   6.363  10.268 -0.2897 -0.5766  0.6406
  611MOL0     C82409   7.285   6.454  10.233 -0.2085  0.0797  0.6784
  611MOL0     C82410   7.159   6.409  10.306  0.5727  0.2187  0.0871
  611MOL0     C82411   7.040   6.508  10.286 -0.7424 -0.4674 -0.2769
  611MOL0     C82412   6.926   6.460  10.378  0.0192 -0.1569  0.3681
  611MOL0     C82413   6.811   6.542  10.341 -0.7593 -1.1928  0.0197
  611MOL0     C82414   6.699   6.586  10.316 -0.0747  0.3304 -0.3309
  611MOL0     C82415   7.538   6.511  10.122 -0.0195 -0.1144  0.4760
  611MOL0     C82416   7.660   6.535  10.064 -1.5895 -0.5031  0.0533
  611MOL0     C82417   7.673   6.655   9.967 -0.3951  0.0779 -0.1643
  611MOL0     H82418   8.188   6.506  10.120  0.7524 -2.4935  1.7176
  611MOL0     H82419   8.429   6.507  10.021  0.8426 -2.1328  0.9972
  611MOL0     H82420   8.621   6.484   9.901  2.9423  1.4138 -2.1410
  611MOL0     H82421   8.624   6.305   9.915 -0.1570 -0.4587 -0.4834
  611MOL0     H82422   8.706   6.320   9.671  2.1270 -2.3236  0.9928
  611MOL0     H82423   8.813   6.351   9.801  1.9178  1.0008 -2.0098
  611MOL0     H82424   8.778   6.601   9.795  1.0648 -1.8431  1.5904
  611MOL0     H82425   8.699   6.578   9.638  0.1529  0.2496  0.3205
  611MOL0     H82426   8.978   6.442   9.686  1.5202  1.3334 -2.4887
  611MOL0     H82427   8.887   6.464   9.538  0.2667 -2.1496  0.1741
  611MOL0     H82428   8.999   6.689   9.720  1.7220  1.0358 -1.1059
  611MOL0     H82429   9.074   6.630   9.569  0.0238  2.8185 -1.0527
  611MOL0     H82430   8.876   6.688   9.436 -1.6088  0.6232 -0.3493
  611MOL0     H82431   8.808   6.768   9.580 -0.3353 -3.0260  1.2553
  611MOL0     H82432   9.072   6.839   9.437  1.2614 -1.8534  2.3246
  611MOL0     H82433   9.023   6.916   9.593 -3.2956 -0.0331  1.4293
  611MOL0     H82434   8.813   6.894   9.380 -1.0919  0.6248  1.6593
  611MOL0     H82435   8.820   7.019   9.492  0.6098 -1.2131  0.5057
  611MOL0     H82436   9.113   7.137   9.476  0.9647  4.4902 -0.4358
  611MOL0     H82437   9.228   7.333   9.171  1.2274  1.5568  1.2907
  611MOL0     H82438   9.258   7.325   9.337  2.0497  1.2252 -1.9288
  611MOL0     H82439   9.437   7.196   9.297  1.5595  0.5808 -0.9881
  611MOL0     H82440   9.322   7.062   9.278 -0.6348  0.5297 -0.4021
  611MOL0     H82441   9.431   7.218   9.042  0.4101 -0.3979 -0.3229
  611MOL0     H82442   9.310   7.091   9.030 -0.9924  0.5866 -0.2037
  611MOL0     H82443   9.498   6.983   8.966  0.7214 -2.0169 -0.1645
  611MOL0     H82444   9.496   6.940   9.143  1.7116  0.5573 -0.4382
  611MOL0     H82445   9.708   6.822   9.034 -0.3969  0.0028  0.3496
  611MOL0     H82446   9.940   6.764   9.023  1.7263  1.0192 -0.1474
  611MOL0     H82447  10.330   6.927   8.825  3.5014  0.6019  0.7456
  611MOL0     H82448  10.559   6.869   8.755 -0.0153 -0.0371  0.1673
  611MOL0     H82449  10.741   6.750   8.677  1.3088 -1.3633 -1.2031
  611MOL0     H82450  10.818   6.839   8.808  4.6845 -1.4509 -0.6430
  611MOL0     H82451  10.885   6.569   8.702 -1.3997  0.1086  0.8378
  611MOL0     H82452  10.972   6.725   8.675 -0.8463 -0.4320 -1.2385
  611MOL0     H82453  11.015   6.744   8.930  0.1669 -0.2419  0.4067
  611MOL0     H82454  10.958   6.578   8.937  0.5838 -2.3760 -1.9083
  611MOL0     H82455  11.213   6.694   8.788  3.1299 -1.2200  0.3575
  611MOL0     H82456  11.156   6.532   8.753 -1.0222 -2.5694  2.8437
  611MOL0     H82457  11.162   6.482   9.012 -2.8214  0.4034 -3.0664
  611MOL0     H82458  11.250   6.635   9.018 -4.1263  2.8810 -1.6381
  611MOL0     H82459  11.340   6.406   8.820 -1.2598  0.0753 -0.7676
  611MOL0     H82460  11.416   6.559   8.846 -0.8821  0.7380  1.8545
  611MOL0     H82461  11.410   6.321   9.042 -0.4125  0.5404  3.4553
  611MOL0     H82462  11.460   6.472   9.089 -1.1242 -0.7065  0.3938
  611MOL0     H82463  11.638   6.468   8.890  1.3950 -1.5851 -0.0684
  611MOL0     H82464  11.662   6.354   9.023 -0.6324 -0.6969  1.0337
  611MOL0     H82465  10.572   6.552   9.033 -1.5127 -0.7993  0.8497
  611MOL0     H82466  10.345   6.585   9.094 -1.0017 -1.2373 -2.0854
  611MOL0     H82467  10.055   7.161   9.133 -1.7514  2.1511 -0.4252
  611MOL0     H82468   9.834   7.224   9.137  1.8912 -0.1239  0.8273
  611MOL0     H82469   8.272   6.286   9.695  0.8055 -1.4077  0.9488
  611MOL0     H82470   8.045   6.277   9.794  0.7180  0.7321 -3.4653
  611MOL0     H82471   7.826   6.269  10.210 -0.6909 -0.8627  0.5558
  611MOL0     H82472   7.600   6.228  10.283  1.9660 -0.6851 -0.0782
  611MOL0     H82473   7.255   6.455  10.127  1.5049  0.5850  0.1706
  611MOL0     H82474   7.311   6.557  10.259  0.5766  0.3349 -0.9907
  611MOL0     H82475   7.192   6.408  10.410 -0.6908 -1.2108  0.5114
  611MOL0     H82476   7.120   6.317  10.260  3.0541  0.7255 -3.4952
  611MOL0     H82477   7.016   6.496  10.180  1.5586  1.4603 -1.1073
  611MOL0     H82478   7.064   6.611  10.313 -3.0577 -0.5261  2.4875
  611MOL0     H82479   6.901   6.355  10.361 -2.1433  0.3008  0.4272
  611MOL0     H82480   6.952   6.475  10.483 -0.3816  2.2850  0.1854
  611MOL0     H82481   6.602   6.627  10.294 -1.3074 -2.1384  0.2011
  611MOL0     H82482   7.471   6.594  10.101  0.9071  0.5020 -0.1048
  611MOL0     H82483   7.709   6.742  10.023  1.2815 -0.1865 -0.7806
  611MOL0     H82484   7.747   6.640   9.888 -0.9427  0.1716 -0.7025
  611MOL0     H82485   7.575   6.671   9.923 -0.0274  2.3422 -0.2813
  612MOL0     O82486   8.697   5.043   8.442  0.2165  0.0562  0.5721
  612MOL0     C82487   8.685   5.108   8.547 -1.4367  0.2706  0.1893
  612MOL0     O82488   8.793   5.151   8.624  1.0839 -0.0211  0.1371
  612MOL0     C82489   8.922   5.107   8.593 -0.7212 -0.4109  0.6211
  612MOL0     C82490   8.956   4.973   8.577  0.2305  0.1600 -0.8416
  612MOL0     C82491   9.087   4.931   8.546  0.6977 -0.1268 -0.2007
  612MOL0     C82492   9.189   5.026   8.532  1.1375  0.2274  0.3421
  612MOL0     O82493   9.314   4.979   8.507  0.3223  0.0809  0.2707
  612MOL0     C82494   9.404   5.070   8.443  1.3375  0.1198 -0.3864
  612MOL0     C82495   9.542   5.017   8.410 -0.3698 -0.2409  0.3885
  612MOL0     C82496   9.612   5.119   8.321 -0.2526  0.2806 -0.0517
  612MOL0     C82497   9.761   5.096   8.304  0.2712 -0.4850  0.2593
  612MOL0     C82498   9.844   5.130   8.424 -0.1074  0.2008 -0.4319
  612MOL0     C82499   9.853   5.282   8.438 -0.1224  1.0528 -0.6354
  612MOL0     C82500   9.958   5.333   8.534  0.5276 -0.9609  0.0765
  612MOL0     C82501  10.103   5.287   8.498 -0.8097 -0.4543  0.3132
  612MOL0     N82502  10.205   5.342   8.584  0.4901 -0.1351 -0.4518
  612MOL0     C82503  10.328   5.278   8.614  0.2757  0.8182  0.3729
  612MOL0     C82504  10.396   5.355   8.691 -0.9195 -0.2158  0.0316
  612MOL0     C82505  10.534   5.316   8.738 -0.4453  1.0763  0.4146
  612MOL0     C82506  10.546   5.345   8.895  0.3743 -0.1104  0.5112
  612MOL0     C82507  10.694   5.376   8.924 -0.1055 -0.1342  0.2766
  612MOL0     C82508  10.713   5.453   9.060 -0.4953 -0.1542 -0.4477
  612MOL0     O82509  10.668   5.363   9.165 -0.4101  0.3909 -0.2611
  612MOL0     C82510  10.759   5.286   9.239 -0.1529 -0.7091 -0.3241
  612MOL0     C82511  10.889   5.255   9.193 -0.4876 -0.2232 -0.1824
  612MOL0     C82512  10.980   5.184   9.272 -0.4389 -0.8230 -0.2696
  612MOL0     C82513  10.939   5.145   9.406  0.8952 -0.2119 -0.0539
  612MOL0     C82514  11.039   5.094   9.505 -0.6713 -1.2289 -0.4336
  612MOL0     O82515  10.985   5.031   9.610 -0.1505 -0.5716 -0.3800
  612MOL0     C82516  11.056   4.976   9.706 -0.1130  0.7558 -0.5048
  612MOL0     C82517  11.001   4.871   9.783  0.0147  0.1590  0.0941
  612MOL0     C82518  11.075   4.822   9.892  0.3488  0.8083 -0.1714
  612MOL0     C82519  11.206   4.860   9.923  0.1127  1.4646  1.0662
  612MOL0     O82520  11.289   4.806  10.023  0.0308 -0.5519  0.7417
  612MOL0     C82521  11.233   4.739  10.132  0.0734 -0.3996  0.5839
  612MOL0     C82522  11.349   4.655  10.188 -0.5406 -0.5784 -0.0315
  612MOL0     C82523  11.456   4.750  10.251 -0.2690 -0.1390 -0.2856
  612MOL0     C82524  11.426   4.783  10.401 -0.4255  0.2547 -0.3066
  612MOL0     C82525  11.509   4.889  10.449 -0.4425 -0.3800  0.3009
  612MOL0     C82526  11.659   4.872  10.427 -0.3559  0.3249  0.0832
  612MOL0     C82527  11.739   4.946  10.533 -0.0668  0.1511 -0.3745
  612MOL0     C82528  11.897   4.949  10.499  0.0814 -0.4595  0.1055
  612MOL0    Cl82529  11.969   5.010  10.642 -0.0350  0.0343 -0.2299
  612MOL0     C82530  11.261   4.953   9.832 -0.2787 -0.2514 -0.5802
  612MOL0     C82531  11.192   5.014   9.732 -0.8979 -0.5120  0.4633
  612MOL0     O82532  11.155   5.091   9.469 -0.3810 -0.0982 -0.2868
  612MOL0     C82533  10.805   5.166   9.442 -0.5026  0.3226  0.7184
  612MOL0     C82534  10.723   5.243   9.363 -0.3642  0.0633 -0.4760
  612MOL0     N82535  10.313   5.454   8.723 -0.2829  0.0306  0.4577
  612MOL0     N82536  10.208   5.458   8.662  0.2659  1.1270  0.5202
  612MOL0     C82537   9.152   5.159   8.535  1.6579  0.3176 -0.6256
  612MOL0     C82538   9.023   5.202   8.577  0.5418  0.8106 -0.6225
  612MOL0     C82539   8.551   5.151   8.594  0.0791  0.5873  0.2679
  612MOL0     C82540   8.533   5.252   8.688 -0.7701 -0.7583  0.3339
  612MOL0     C82541   8.416   5.288   8.736  0.5245 -0.5518 -0.8652
  612MOL0     C82542   8.293   5.233   8.679 -0.0772 -0.4570  0.0814
  612MOL0     O82543   8.175   5.285   8.726  1.0891  0.1502 -0.7396
  612MOL0     C82544   8.162   5.362   8.850 -0.0023 -0.1564  0.6974
  612MOL0     C82545   8.007   5.369   8.901  0.4498  0.0698 -0.5147
  612MOL0     C82546   7.941   5.233   8.942 -0.9139 -0.0424 -0.2884
  612MOL0     C82547   7.898   5.147   8.828 -0.5651  0.2015 -0.1669
  612MOL0     C82548   7.770   5.190   8.763  0.1197 -0.0723  0.3306
  612MOL0     C82549   7.681   5.224   8.694  0.3516 -0.7029  0.5394
  612MOL0     C82550   8.305   5.139   8.585 -0.4469  0.0701 -0.2996
  612MOL0     C82551   8.431   5.092   8.540  0.3426 -0.1357  0.0339
  612MOL0     C82552   8.424   4.976   8.446  0.7089  0.0611  0.4159
  612MOL0     H82553   8.885   4.892   8.586 -2.0513  2.0630 -0.7453
  612MOL0     H82554   9.109   4.825   8.543 -2.7986 -1.1449  2.4506
  612MOL0     H82555   9.355   5.093   8.349 -1.8826 -0.2434  1.0582
  612MOL0     H82556   9.426   5.158   8.504  0.6615  1.5408 -2.1239
  612MOL0     H82557   9.528   4.926   8.350  0.4658  0.3921 -0.8259
  612MOL0     H82558   9.601   5.001   8.501 -0.9681  1.6352  1.1395
  612MOL0     H82559   9.591   5.213   8.372 -1.7984  0.4288 -0.9095
  612MOL0     H82560   9.571   5.125   8.220  0.8193 -0.9410 -0.5899
  612MOL0     H82561   9.781   4.992   8.278 -4.4618 -1.1450 -1.8263
  612MOL0     H82562   9.798   5.163   8.225 -2.5296  0.9983  0.0639
  612MOL0     H82563   9.797   5.087   8.513 -0.3590 -1.3766 -1.2897
  612MOL0     H82564   9.940   5.079   8.410 -0.4399 -1.4492  2.4651
  612MOL0     H82565   9.884   5.331   8.345  0.4851  1.0412 -0.4469
  612MOL0     H82566   9.755   5.321   8.465 -0.7952 -1.2864  0.5560
  612MOL0     H82567   9.937   5.303   8.637 -0.5304  1.4095  0.6268
  612MOL0     H82568   9.962   5.442   8.521 -0.0438 -1.0425 -0.8701
  612MOL0     H82569  10.126   5.181   8.512  1.1339 -0.0664  0.3480
  612MOL0     H82570  10.123   5.301   8.391  0.1081  0.2483  0.5613
  612MOL0     H82571  10.355   5.181   8.571  1.0787  1.4133 -0.5105
  612MOL0     H82572  10.557   5.212   8.716 -2.7364  0.5885  0.0328
  612MOL0     H82573  10.609   5.375   8.686 -1.8576  2.2426 -0.3907
  612MOL0     H82574  10.484   5.434   8.911  2.8705  1.8150  0.1106
  612MOL0     H82575  10.509   5.262   8.956  0.1012  0.6398  1.4061
  612MOL0     H82576  10.729   5.435   8.838 -1.2275  0.4941  0.2235
  612MOL0     H82577  10.754   5.285   8.932  0.1998  0.1808  1.8061
  612MOL0     H82578  10.659   5.547   9.059 -2.4497 -1.2173  0.1679
  612MOL0     H82579  10.818   5.483   9.062 -0.2930 -0.8590  1.5051
  612MOL0     H82580  10.911   5.295   9.095 -0.7389  1.3792  0.3840
  612MOL0     H82581  11.083   5.166   9.242  0.6751  2.1960  1.3785
  612MOL0     H82582  10.900   4.839   9.764 -0.6823  2.3434 -0.1956
  612MOL0     H82583  11.025   4.757   9.964  0.6202  1.5425  0.6979
  612MOL0     H82584  11.196   4.807  10.209  0.4775  0.7178 -0.1962
  612MOL0     H82585  11.152   4.671  10.103 -0.5532  0.6522 -0.1976
  612MOL0     H82586  11.315   4.579  10.259  2.1187 -1.9546 -0.1046
  612MOL0     H82587  11.400   4.605  10.106  1.4562  1.1951  0.0498
  612MOL0     H82588  11.552   4.698  10.250  0.5732  1.3676 -0.5776
  612MOL0     H82589  11.471   4.837  10.188  3.9519  0.3471  1.0434
  612MOL0     H82590  11.441   4.692  10.460  0.8081 -1.6224 -3.2950
  612MOL0     H82591  11.322   4.811  10.419 -0.5876 -0.7200  0.3289
  612MOL0     H82592  11.472   4.902  10.551 -0.7322  0.0787  0.1420
  612MOL0     H82593  11.486   4.980  10.393  0.8094  0.3264  0.9061
  612MOL0     H82594  11.687   4.767  10.436  1.0369  0.8088  1.7758
  612MOL0     H82595  11.680   4.913  10.327  0.4219  1.3828  0.6642
  612MOL0     H82596  11.726   4.895  10.628  0.2934 -1.6521 -1.2607
  612MOL0     H82597  11.698   5.047  10.548  1.8180  0.5718  2.6690
  612MOL0     H82598  11.936   4.847  10.486  2.4157  0.7298 -4.0476
  612MOL0     H82599  11.914   5.016  10.415 -0.3311  0.8236  1.0252
  612MOL0     H82600  11.367   4.969   9.849  0.2904 -2.5923 -1.5634
  612MOL0     H82601  11.246   5.091   9.677 -1.6637  0.1228  0.5746
  612MOL0     H82602  10.762   5.133   9.536 -1.9362 -0.2927 -0.1131
  612MOL0     H82603  10.621   5.250   9.400 -0.5038 -0.2616 -0.7812
  612MOL0     H82604   9.219   5.240   8.505 -1.1616  2.5669 -1.2907
  612MOL0     H82605   8.991   5.305   8.581 -2.4915 -0.0458  2.5422
  612MOL0     H82606   8.614   5.305   8.737 -2.1675  0.7779  1.0794
  612MOL0     H82607   8.417   5.361   8.816 -1.8740  0.7958 -1.9409
  612MOL0     H82608   8.192   5.467   8.840 -1.9326  0.3193 -0.7282
  612MOL0     H82609   8.221   5.315   8.929  0.8091  0.6586  0.6013
  612MOL0     H82610   7.948   5.424   8.828  0.1984  3.8826  2.2480
  612MOL0     H82611   8.012   5.426   8.995  0.2368 -0.9270  0.1131
  612MOL0     H82612   7.845   5.265   8.984 -2.5815 -1.4005 -2.7999
  612MOL0     H82613   8.012   5.175   9.003 -0.2268  0.9652 -0.1053
  612MOL0     H82614   7.981   5.137   8.759  0.9356  2.3900  1.1801
  612MOL0     H82615   7.890   5.042   8.859  1.6762  0.1103  0.3086
  612MOL0     H82616   7.612   5.276   8.631  0.5404 -0.0299  0.8833
  612MOL0     H82617   8.210   5.102   8.548  0.6936 -0.9605 -2.4261
  612MOL0     H82618   8.324   4.944   8.418  0.4723 -0.8447  2.1601
  612MOL0     H82619   8.474   4.998   8.351  1.4052  2.7002  1.3043
  612MOL0     H82620   8.466   4.881   8.480  0.1196 -1.2078 -2.1757
  613MOL0     O82621   4.004   9.132   8.952 -0.1148 -1.4731  0.3356
  613MOL0     C82622   4.000   9.106   8.830  0.0784 -0.0308  0.5326
  613MOL0     O82623   4.098   9.042   8.758  0.3703  0.1318  0.4653
  613MOL0     C82624   4.203   8.993   8.827  0.0395  1.2922  0.1340
  613MOL0     C82625   4.308   9.077   8.842 -0.6630 -0.2166  0.0070
  613MOL0     C82626   4.418   9.020   8.915  0.5513  0.4842  0.1294
  613MOL0     C82627   4.405   8.899   8.984 -0.6491 -0.6492 -0.0425
  613MOL0     O82628   4.509   8.855   9.059 -0.0709 -0.8897 -0.0453
  613MOL0     C82629   4.596   8.759   8.992  0.1019  0.0815  0.3837
  613MOL0     C82630   4.732   8.755   9.059 -0.0318  0.4376  0.0091
  613MOL0     C82631   4.737   8.712   9.206  0.1804 -0.6480  0.0785
  613MOL0     C82632   4.882   8.675   9.252  0.3682 -0.2738 -0.1311
  613MOL0     C82633   4.968   8.789   9.272 -0.3051 -0.2233 -0.3606
  613MOL0     C82634   5.114   8.744   9.290  0.5770 -0.2143 -0.9810
  613MOL0     C82635   5.206   8.857   9.326 -0.4860 -0.0550  0.7675
  613MOL0     C82636   5.351   8.823   9.283  1.2217  0.2493 -0.5029
  613MOL0     N82637   5.428   8.942   9.291  0.1663 -0.4864  0.1669
  613MOL0     C82638   5.520   8.991   9.382 -0.7343  0.5494 -0.2034
  613MOL0     C82639   5.584   9.090   9.316  0.1686  0.5878  0.4283
  613MOL0     C82640   5.699   9.166   9.379  0.0051  0.5963 -0.1764
  613MOL0     C82641   5.836   9.091   9.347 -0.5066  0.6362 -0.4343
  613MOL0     C82642   5.859   9.085   9.198 -0.2352  0.4433  0.4158
  613MOL0     C82643   6.009   9.046   9.166  0.9338 -0.6231 -0.6069
  613MOL0     O82644   6.085   9.146   9.227 -0.3121 -0.4778 -0.5103
  613MOL0     C82645   6.209   9.172   9.171 -0.1383  0.6088  0.3251
  613MOL0     C82646   6.265   9.297   9.216 -0.2528 -0.7764 -0.2566
  613MOL0     C82647   6.398   9.331   9.175  0.7334 -0.4077  0.1142
  613MOL0     C82648   6.465   9.244   9.084 -0.2957  0.7992 -0.2328
  613MOL0     C82649   6.582   9.283   9.019 -0.6121 -1.2710  0.1418
  613MOL0     O82650   6.611   9.229   8.899  1.1751  0.4903  0.2365
  613MOL0     C82651   6.730   9.266   8.843  0.3186 -0.4328 -0.6112
  613MOL0     C82652   6.734   9.386   8.759 -0.3418 -0.0326  0.8088
  613MOL0     C82653   6.870   9.426   8.710  0.9232 -0.6524 -0.6277
  613MOL0     C82654   6.981   9.350   8.756 -0.1075  0.2127  1.1107
  613MOL0     O82655   7.109   9.376   8.724  0.0666  0.6896 -0.3110
  613MOL0     C82656   7.148   9.474   8.633  0.1619  0.7237  0.1596
  613MOL0     C82657   7.299   9.466   8.623 -0.8514 -0.3787 -0.5260
  613MOL0     C82658   7.360   9.591   8.552 -0.2950 -1.1446  0.4264
  613MOL0     C82659   7.365   9.573   8.399  0.2368 -0.0425 -0.1118
  613MOL0     C82660   7.378   9.711   8.338  0.5936 -0.7044  0.0726
  613MOL0     C82661   7.527   9.758   8.347  0.6418 -0.6693  0.1263
  613MOL0     C82662   7.530   9.916   8.318 -0.2227  0.8699  0.3655
  613MOL0     C82663   7.647   9.975   8.400 -0.0223  0.4794 -0.7817
  613MOL0    Cl82664   7.813   9.934   8.337  0.1177  0.1348  0.4174
  613MOL0     C82665   6.971   9.229   8.830  0.1565 -0.4929  0.5846
  613MOL0     C82666   6.843   9.197   8.881 -0.1000 -0.1621 -0.3075
  613MOL0     O82667   6.637   9.384   9.070  0.5541 -0.5270 -0.1870
  613MOL0     C82668   6.412   9.117   9.056  0.3065  0.2456 -0.0338
  613MOL0     C82669   6.285   9.086   9.096  0.2649  0.0223  0.0750
  613MOL0     N82670   5.536   9.108   9.191  0.1139 -0.4924 -0.3179
  613MOL0     N82671   5.441   9.025   9.183 -0.6868 -0.0863 -0.2318
  613MOL0     C82672   4.290   8.818   8.971  0.0768  0.2619 -0.3864
  613MOL0     C82673   4.188   8.867   8.893 -0.2047  0.7858  0.6604
  613MOL0     C82674   3.885   9.155   8.761 -0.1350 -0.1000 -0.5368
  613MOL0     C82675   3.758   9.123   8.811 -0.3698 -0.6210 -0.2366
  613MOL0     C82676   3.645   9.180   8.748  0.0447 -1.2251 -0.1665
  613MOL0     C82677   3.656   9.273   8.645 -0.6237 -0.0743  0.5572
  613MOL0     O82678   3.544   9.335   8.601 -0.2461 -0.4233 -0.7656
  613MOL0     C82679   3.567   9.462   8.531 -0.6331 -0.2712 -0.7052
  613MOL0     C82680   3.441   9.551   8.521 -0.6227 -0.1138  0.8697
  613MOL0     C82681   3.327   9.482   8.452  0.1962 -0.1494 -0.3875
  613MOL0     C82682   3.193   9.565   8.461 -0.0077  0.3148 -0.2324
  613MOL0     C82683   3.094   9.491   8.378 -0.4238 -0.2366 -0.1631
  613MOL0     C82684   3.010   9.444   8.301  0.2046  0.0898 -0.0439
  613MOL0     C82685   3.788   9.297   8.600  1.0306  0.1971  0.8500
  613MOL0     C82686   3.902   9.239   8.651  0.5725 -0.7893 -0.5452
  613MOL0     C82687   4.034   9.274   8.595  0.0043 -0.5724 -0.1943
  613MOL0     H82688   4.312   9.173   8.791  0.0777 -0.6868 -0.8435
  613MOL0     H82689   4.505   9.079   8.939  2.7129 -2.4195 -0.0045
  613MOL0     H82690   4.543   8.663   8.987  0.1897 -0.1743  2.9288
  613MOL0     H82691   4.617   8.797   8.892 -1.6593  1.8992  0.6432
  613MOL0     H82692   4.777   8.854   9.055  1.2021 -0.1393 -2.5074
  613MOL0     H82693   4.793   8.687   8.998 -0.3059 -0.3147  0.5454
  613MOL0     H82694   4.682   8.618   9.218  0.4183 -0.8538 -0.3847
  613MOL0     H82695   4.691   8.785   9.273 -0.3687  0.4919 -1.4782
  613MOL0     H82696   4.866   8.629   9.350 -1.6425  1.1039  0.2409
  613MOL0     H82697   4.935   8.604   9.187  0.8224 -2.2851  2.2647
  613MOL0     H82698   4.953   8.860   9.190  0.8962  0.8610  0.3333
  613MOL0     H82699   4.932   8.839   9.362  2.9047 -1.6505  1.9004
  613MOL0     H82700   5.111   8.677   9.377 -1.1428  3.1433  1.8044
  613MOL0     H82701   5.145   8.696   9.197  2.4962 -0.3103 -0.3255
  613MOL0     H82702   5.207   8.888   9.431  1.3349  2.6530  0.0750
  613MOL0     H82703   5.165   8.944   9.272 -0.5844 -0.4664  0.1717
  613MOL0     H82704   5.382   8.738   9.344 -1.1718 -0.7179 -0.5298
  613MOL0     H82705   5.356   8.795   9.177 -0.5374  0.1854 -0.6013
  613MOL0     H82706   5.546   8.957   9.482  1.2391 -0.6632 -1.0601
  613MOL0     H82707   5.716   9.267   9.341  0.9066  0.4868 -0.0829
  613MOL0     H82708   5.677   9.169   9.487 -1.8979  0.0473 -0.4949
  613MOL0     H82709   5.911   9.145   9.405  0.3067 -2.3242  1.4885
  613MOL0     H82710   5.844   8.989   9.387  1.1946  0.7276 -0.4867
  613MOL0     H82711   5.821   9.178   9.155 -1.5793  0.0956  0.8025
  613MOL0     H82712   5.806   8.999   9.155 -0.6229  1.2897 -0.8168
  613MOL0     H82713   6.012   9.058   9.057 -1.7380  0.0173 -0.6921
  613MOL0     H82714   6.031   8.941   9.188 -0.4841 -1.0004 -0.8579
  613MOL0     H82715   6.196   9.356   9.275 -1.5097 -1.4224 -1.0368
  613MOL0     H82716   6.446   9.422   9.209 -0.0751 -0.7042  2.1679
  613MOL0     H82717   6.646   9.444   8.733  0.7444  1.2141 -0.2831
  613MOL0     H82718   6.880   9.515   8.649  0.2317  0.7754  1.2158
  613MOL0     H82719   7.106   9.462   8.533  3.9382 -2.8523 -1.2672
  613MOL0     H82720   7.125   9.578   8.660 -1.9262  0.1509  0.8234
  613MOL0     H82721   7.343   9.462   8.724  3.2322  2.2332 -1.9698
  613MOL0     H82722   7.319   9.372   8.571 -0.5147 -1.0031  0.6872
  613MOL0     H82723   7.300   9.677   8.584  0.5076 -0.1105 -0.7757
  613MOL0     H82724   7.461   9.603   8.591 -0.1362  0.4051 -0.3549
  613MOL0     H82725   7.273   9.530   8.358  0.9206 -1.5011 -0.1716
  613MOL0     H82726   7.444   9.501   8.376 -0.6823 -2.2150  2.7886
  613MOL0     H82727   7.312   9.785   8.383  1.2622 -1.0516  1.6764
  613MOL0     H82728   7.345   9.714   8.233  1.3657 -0.2368 -0.1604
  613MOL0     H82729   7.571   9.731   8.443  5.2308 -0.1262 -1.5605
  613MOL0     H82730   7.575   9.708   8.262  1.4216  1.6284 -0.8859
  613MOL0     H82731   7.442   9.979   8.334  1.3482  3.2103  0.2950
  613MOL0     H82732   7.552   9.930   8.212  1.5186  0.3457  0.6252
  613MOL0     H82733   7.649  10.084   8.394 -1.5236  0.5400 -0.3801
  613MOL0     H82734   7.634   9.947   8.505  0.4192  1.9584 -0.3187
  613MOL0     H82735   7.049   9.165   8.868  0.7573 -0.7858 -1.0467
  613MOL0     H82736   6.835   9.128   8.965  3.7413  0.9398  1.1896
  613MOL0     H82737   6.465   9.044   8.995 -1.5970  0.3877 -1.9357
  613MOL0     H82738   6.242   8.995   9.055 -0.6142 -0.1878  1.3981
  613MOL0     H82739   4.279   8.727   9.029  0.3484 -2.0152 -3.6535
  613MOL0     H82740   4.091   8.822   8.874  1.1116 -1.7981 -0.4012
  613MOL0     H82741   3.750   9.064   8.901 -0.6793  2.9416  2.3089
  613MOL0     H82742   3.552   9.140   8.788  0.2863 -0.6717  0.9814
  613MOL0     H82743   3.610   9.447   8.432  1.3010 -0.0132  0.0503
  613MOL0     H82744   3.643   9.525   8.577  0.2066 -0.6203 -1.5884
  613MOL0     H82745   3.476   9.639   8.465 -0.5794 -1.1748 -0.8459
  613MOL0     H82746   3.413   9.566   8.626  0.5744 -1.2140  1.3662
  613MOL0     H82747   3.303   9.388   8.501 -0.7941 -1.0698 -2.5059
  613MOL0     H82748   3.364   9.454   8.353  1.2096 -0.0359 -0.0525
  613MOL0     H82749   3.156   9.578   8.563 -1.1210 -2.2430 -0.2437
  613MOL0     H82750   3.215   9.666   8.427  0.6500  1.1722  2.4715
  613MOL0     H82751   2.938   9.397   8.236 -1.7993  0.9448  1.4368
  613MOL0     H82752   3.797   9.372   8.522 -1.6972  3.3897  3.2928
  613MOL0     H82753   4.026   9.367   8.537 -2.2810 -1.4290 -1.4033
  613MOL0     H82754   4.100   9.292   8.680 -2.5287  0.4203  1.7096
  613MOL0     H82755   4.079   9.205   8.523  0.0674  0.1567 -0.8680
  614MOL0     O82756  10.411   1.927  10.529 -0.1199  0.2568 -0.0856
  614MOL0     C82757  10.379   1.849  10.441  0.1682 -0.2035  0.9523
  614MOL0     O82758  10.470   1.781  10.361  0.9592  0.3863  0.2936
  614MOL0     C82759  10.604   1.808  10.360 -0.8719 -0.2513  0.5275
  614MOL0     C82760  10.689   1.704  10.351 -0.7317 -0.0745  0.1468
  614MOL0     C82761  10.829   1.717  10.327 -0.6758  0.2341 -0.3578
  614MOL0     C82762  10.886   1.847  10.328  0.2541 -0.0004 -0.8173
  614MOL0     O82763  11.016   1.876  10.309 -0.2342  0.0448  0.0702
  614MOL0     C82764  11.088   1.794  10.211  0.5285  0.3257 -0.6194
  614MOL0     C82765  11.214   1.863  10.173 -1.0224  0.6277  0.3249
  614MOL0     C82766  11.320   1.896  10.283  0.6393  0.5559  0.4728
  614MOL0     C82767  11.446   1.938  10.221  0.4734  0.3605  0.4782
  614MOL0     C82768  11.556   1.949  10.320  0.0563  0.8954 -0.0209
  614MOL0     C82769  11.684   2.000  10.258 -0.3637 -0.2949 -1.0111
  614MOL0     C82770  11.800   2.039  10.352 -0.7369 -0.7784 -0.4769
  614MOL0     C82771  11.902   2.142  10.298 -0.5120 -0.0596 -0.6128
  614MOL0     N82772  11.837   2.264  10.256  0.2425 -0.2891  0.0750
  614MOL0     C82773  11.826   2.380  10.335  0.4314 -0.0885 -0.2374
  614MOL0     C82774  11.771   2.477  10.256  0.1972 -0.7448  1.0845
  614MOL0     C82775  11.756   2.619  10.313 -0.3059 -0.1200  0.4411
  614MOL0     C82776  11.622   2.634  10.377 -0.2852 -0.6242 -0.3079
  614MOL0     C82777  11.641   2.741  10.492 -0.0370 -0.5545 -0.8358
  614MOL0     C82778  11.517   2.803  10.547  0.6448 -0.5518  0.1149
  614MOL0     O82779  11.413   2.822  10.444  0.2093  0.0305  0.3153
  614MOL0     C82780  11.323   2.922  10.475  0.4033 -0.4648 -0.6816
  614MOL0     C82781  11.272   2.947  10.603 -0.3976  0.4392  0.9821
  614MOL0     C82782  11.153   3.021  10.612 -0.4576  0.8329 -0.1929
  614MOL0     C82783  11.088   3.086  10.505  0.2598  0.4551  0.1904
  614MOL0     C82784  10.958   3.163  10.532 -0.2400  0.2585  0.5466
  614MOL0     O82785  10.905   3.169  10.659  0.4777 -0.3168 -0.5851
  614MOL0     C82786  10.799   3.259  10.672 -0.8004  0.2448 -0.0540
  614MOL0     C82787  10.820   3.397  10.679 -0.5171 -0.3641  0.0235
  614MOL0     C82788  10.707   3.480  10.680 -0.2303 -0.2577  0.2625
  614MOL0     C82789  10.576   3.429  10.691 -0.0957 -0.3546 -0.1382
  614MOL0     O82790  10.467   3.508  10.709 -0.3732 -0.0814 -0.0299
  614MOL0     C82791  10.448   3.639  10.646  0.5565  0.3278  0.7229
  614MOL0     C82792  10.304   3.692  10.670  0.1267 -0.4374 -0.2135
  614MOL0     C82793  10.198   3.589  10.658 -0.6047  0.2141 -0.4160
  614MOL0     C82794  10.180   3.546  10.515 -0.0227 -0.6905  0.0058
  614MOL0     C82795  10.029   3.514  10.500 -0.1967  0.1720 -0.2476
  614MOL0     C82796   9.996   3.509  10.351  0.8427 -0.1585 -0.4371
  614MOL0     C82797   9.848   3.489  10.327  0.4148  0.1710 -1.2172
  614MOL0     C82798   9.823   3.455  10.177  0.1019  0.2367 -0.1167
  614MOL0    Cl82799   9.874   3.579  10.063 -0.3971  0.1001 -0.5739
  614MOL0     C82800  10.558   3.292  10.686  0.1544 -0.7939  0.2119
  614MOL0     C82801  10.669   3.208  10.673  0.2375 -0.0644 -0.4138
  614MOL0     O82802  10.907   3.213  10.429  0.7154  0.3255 -0.4268
  614MOL0     C82803  11.149   3.070  10.381 -0.9878 -0.0065  0.3269
  614MOL0     C82804  11.262   2.985  10.364  0.6540  0.3334  0.7573
  614MOL0     N82805  11.738   2.422  10.129 -1.0499  1.0462 -0.7434
  614MOL0     N82806  11.782   2.297  10.132  0.4685 -0.1205  0.5062
  614MOL0     C82807  10.800   1.954  10.360 -0.5734 -0.8231  0.1989
  614MOL0     C82808  10.667   1.940  10.375  0.7156  0.0951 -0.1285
  614MOL0     C82809  10.234   1.812  10.417  0.0081 -0.8708  0.6172
  614MOL0     C82810  10.204   1.745  10.297 -0.8819  0.0931 -0.8498
  614MOL0     C82811  10.074   1.714  10.270 -0.7376 -0.1636  0.1458
  614MOL0     C82812   9.963   1.735  10.358  0.1368 -0.2985  0.2903
  614MOL0     O82813   9.835   1.702  10.337  0.6900  0.0147 -0.0181
  614MOL0     C82814   9.798   1.600  10.237  0.4444 -1.1128 -0.4775
  614MOL0     C82815   9.642   1.607  10.218 -0.4386  1.0073  0.2495
  614MOL0     C82816   9.572   1.548  10.349  0.0857 -0.1749 -0.1872
  614MOL0     C82817   9.443   1.622  10.371 -0.2121  0.1924 -0.3243
  614MOL0     C82818   9.393   1.570  10.500 -0.4446  0.3273 -0.2143
  614MOL0     C82819   9.349   1.506  10.589  0.1863  0.7587 -0.3349
  614MOL0     C82820   9.994   1.792  10.478  0.3511  0.8704 -0.5411
  614MOL0     C82821  10.124   1.840  10.508  0.1297 -0.3554 -0.1439
  614MOL0     C82822  10.135   1.940  10.619  0.3035 -0.3948 -0.1196
  614MOL0     H82823  10.646   1.605  10.341  2.1497 -1.2557 -1.6443
  614MOL0     H82824  10.890   1.634  10.292  0.6051  1.1005 -0.2287
  614MOL0     H82825  11.106   1.699  10.261 -2.7650 -0.3885 -0.5457
  614MOL0     H82826  11.020   1.764  10.131 -1.3728 -0.0498  1.0505
  614MOL0     H82827  11.190   1.949  10.109  0.8744  1.5839  0.8338
  614MOL0     H82828  11.257   1.791  10.102  2.7362  1.1532  1.8256
  614MOL0     H82829  11.336   1.804  10.340 -1.3723 -0.7365 -0.8888
  614MOL0     H82830  11.280   1.975  10.347  0.0566  0.6690 -0.0237
  614MOL0     H82831  11.475   1.857  10.154 -1.7443 -0.3716  0.3214
  614MOL0     H82832  11.445   2.023  10.152 -0.1081  1.4813  1.8039
  614MOL0     H82833  11.538   2.033  10.387  1.5022  1.2829 -0.0758
  614MOL0     H82834  11.556   1.853  10.372  2.1525 -0.5384 -2.4116
  614MOL0     H82835  11.721   1.934  10.178 -0.5824 -1.7579  0.0637
  614MOL0     H82836  11.649   2.088  10.204  0.5865  0.9190  0.2851
  614MOL0     H82837  11.841   1.943  10.385 -1.6498 -1.9659 -2.5882
  614MOL0     H82838  11.763   2.077  10.448  2.4694  0.2785  0.4720
  614MOL0     H82839  11.969   2.164  10.382 -1.1982  0.9096 -0.3067
  614MOL0     H82840  11.961   2.105  10.214  1.5671  1.3923  0.1298
  614MOL0     H82841  11.849   2.404  10.438  0.4532  3.0712 -0.8542
  614MOL0     H82842  11.841   2.621  10.382  0.0450 -1.8136  0.0975
  614MOL0     H82843  11.765   2.695  10.235  0.7553 -0.7833 -0.1177
  614MOL0     H82844  11.558   2.679  10.302 -0.4011  2.6712  1.5855
  614MOL0     H82845  11.584   2.536  10.408  2.0221 -0.4155  3.8947
  614MOL0     H82846  11.704   2.825  10.463 -2.5905  1.8766  0.2357
  614MOL0     H82847  11.694   2.682  10.568 -0.7824  0.0432  0.1641
  614MOL0     H82848  11.551   2.895  10.595  0.7709 -0.3648 -0.3239
  614MOL0     H82849  11.474   2.744  10.628 -0.4138 -0.2624 -0.2067
  614MOL0     H82850  11.311   2.883  10.681  2.2597  0.5305 -0.1753
  614MOL0     H82851  11.095   3.021  10.704  2.1640 -0.3397  1.5514
  614MOL0     H82852  10.922   3.434  10.683 -0.2151 -1.2560  1.1705
  614MOL0     H82853  10.730   3.586  10.683  0.5838 -0.4216  0.0947
  614MOL0     H82854  10.525   3.712  10.674 -0.4264  0.8667  2.1877
  614MOL0     H82855  10.452   3.624  10.538  0.5268  2.9707  0.2676
  614MOL0     H82856  10.302   3.732  10.772 -0.3861 -3.3965  1.0360
  614MOL0     H82857  10.282   3.779  10.606 -0.6293  1.0730  1.9933
  614MOL0     H82858  10.218   3.508  10.728  1.7126  1.0176 -0.0629
  614MOL0     H82859  10.107   3.641  10.691 -0.2961  0.6128 -0.1860
  614MOL0     H82860  10.249   3.467  10.482  1.7561  1.0388 -0.6079
  614MOL0     H82861  10.195   3.635  10.453 -1.7992  0.6375  1.3695
  614MOL0     H82862   9.966   3.590  10.547 -0.0050  0.6168 -0.7104
  614MOL0     H82863  10.013   3.415  10.545 -0.2379 -0.3509 -1.3639
  614MOL0     H82864  10.032   3.596  10.296 -0.8595  3.1148  3.1473
  614MOL0     H82865  10.053   3.424  10.311  2.2638 -0.7263  2.4759
  614MOL0     H82866   9.803   3.587  10.348  0.4729 -0.0707  0.1172
  614MOL0     H82867   9.820   3.418  10.405  1.1507 -1.0539 -2.0464
  614MOL0     H82868   9.875   3.360  10.164 -0.6561 -0.6461  2.5997
  614MOL0     H82869   9.717   3.434  10.161 -0.6485  1.6820  2.5040
  614MOL0     H82870  10.457   3.255  10.678  0.4335 -1.2341 -1.7699
  614MOL0     H82871  10.648   3.103  10.656 -1.2683  0.1674 -0.1489
  614MOL0     H82872  11.110   3.121  10.294  0.6851 -2.6932 -2.2003
  614MOL0     H82873  11.307   2.974  10.266 -3.3552 -1.0886 -1.1093
  614MOL0     H82874  10.846   2.052  10.371  1.7287 -1.8503  0.3655
  614MOL0     H82875  10.608   2.031  10.370  1.6481  0.6552 -1.9319
  614MOL0     H82876  10.291   1.736  10.232  0.5717  1.7264  0.7570
  614MOL0     H82877  10.061   1.651  10.182 -0.8426 -2.5882  1.7998
  614MOL0     H82878   9.831   1.500  10.265 -0.0057 -0.4150  3.0039
  614MOL0     H82879   9.849   1.618  10.142  1.7103  1.0882  0.5387
  614MOL0     H82880   9.622   1.536  10.138  3.4224 -0.7773  0.6274
  614MOL0     H82881   9.602   1.706  10.192 -1.4341 -0.0605 -2.5640
  614MOL0     H82882   9.629   1.574  10.439 -1.0538  1.1262  0.2008
  614MOL0     H82883   9.553   1.441  10.357 -1.2505 -0.1888 -2.5609
  614MOL0     H82884   9.447   1.731  10.367 -0.1805  0.2635  1.2791
  614MOL0     H82885   9.371   1.591  10.294  0.2105 -0.1978 -0.5716
  614MOL0     H82886   9.309   1.439  10.662  0.8587  2.0641  1.2782
  614MOL0     H82887   9.913   1.810  10.548  2.0657  0.3097  1.6976
  614MOL0     H82888  10.211   1.914  10.693  0.0850  2.8479  1.4120
  614MOL0     H82889  10.151   2.044  10.592 -2.8746  0.6952  1.6654
  614MOL0     H82890  10.042   1.942  10.677 -0.2331  0.1195 -0.9841
  615MOL0     O82891   0.727   5.149   9.099  0.2481 -0.0324 -0.2138
  615MOL0     C82892   0.779   5.164   8.993  0.2066  0.3693 -0.2496
  615MOL0     O82893   0.914   5.145   8.967  0.0409  0.0211  0.3451
  615MOL0     C82894   1.001   5.084   9.063  0.2766  0.3761  0.2670
  615MOL0     C82895   0.989   5.125   9.196  0.4850  0.4547  1.3885
  615MOL0     C82896   1.063   5.053   9.290 -0.1876 -0.4838  0.7783
  615MOL0     C82897   1.162   4.961   9.254 -0.6354 -0.1902 -0.0996
  615MOL0     O82898   1.234   4.897   9.356  0.2795  0.1099 -0.0926
  615MOL0     C82899   1.357   4.837   9.322 -0.0460  0.1722 -0.3661
  615MOL0     C82900   1.469   4.938   9.325  0.1293 -0.0039 -0.1512
  615MOL0     C82901   1.592   4.851   9.296  0.1678 -0.1515  0.3147
  615MOL0     C82902   1.716   4.934   9.299 -0.3469 -1.5867 -0.0524
  615MOL0     C82903   1.846   4.858   9.287 -0.7410  0.0533 -0.0641
  615MOL0     C82904   1.975   4.939   9.281  0.9958  0.1198 -0.0405
  615MOL0     C82905   2.108   4.865   9.281  0.0115  0.1216  0.1547
  615MOL0     C82906   2.230   4.960   9.308 -0.0296  0.2980 -0.4030
  615MOL0     N82907   2.354   4.901   9.260 -0.2128 -0.1259  0.0261
  615MOL0     C82908   2.390   4.893   9.135 -0.2365 -0.2090  0.2551
  615MOL0     C82909   2.502   4.821   9.120  0.1080 -0.2867 -0.5287
  615MOL0     C82910   2.581   4.791   8.992 -0.2816 -0.7958 -0.1728
  615MOL0     C82911   2.668   4.904   8.949 -0.5631  0.2616  0.3906
  615MOL0     C82912   2.734   4.885   8.815 -0.3108 -0.2575 -0.4576
  615MOL0     C82913   2.811   5.016   8.766 -0.2166  0.4905  0.4382
  615MOL0     O82914   2.923   5.030   8.857 -0.2683 -0.7226 -0.1424
  615MOL0     C82915   3.044   4.968   8.835 -0.5097  0.5517  0.1814
  615MOL0     C82916   3.084   4.898   8.713  0.1318  0.5432  0.1381
  615MOL0     C82917   3.219   4.838   8.704  0.8301  0.4132  0.3734
  615MOL0     C82918   3.306   4.855   8.821  1.4293  0.2507  1.3038
  615MOL0     C82919   3.446   4.815   8.818 -0.3051  0.1175  0.8325
  615MOL0     O82920   3.517   4.837   8.929  0.0478 -0.0124  0.5289
  615MOL0     C82921   3.659   4.823   8.928  0.5507  0.5377 -0.3571
  615MOL0     C82922   3.723   4.891   9.033 -0.0298  0.3790 -1.1670
  615MOL0     C82923   3.858   4.889   9.059 -0.6516  0.8707 -0.2254
  615MOL0     C82924   3.944   4.817   8.972 -0.1595  0.1227  0.6595
  615MOL0     O82925   4.081   4.822   8.980  0.1289  0.0531 -0.1973
  615MOL0     C82926   4.126   4.825   9.115 -0.7483  0.4312  0.1398
  615MOL0     C82927   4.280   4.801   9.134 -0.0471 -0.3975 -0.3612
  615MOL0     C82928   4.354   4.909   9.051 -0.0480  0.0000 -0.0143
  615MOL0     C82929   4.496   4.896   9.072 -0.4906 -0.1703  0.1517
  615MOL0     C82930   4.585   4.980   8.985  0.5056 -0.1994  0.5440
  615MOL0     C82931   4.734   4.999   9.027  0.2934 -0.3574  0.2858
  615MOL0     C82932   4.796   5.125   8.969  0.0586 -0.4417 -0.1659
  615MOL0     C82933   4.950   5.142   9.003 -0.0279 -0.3557 -0.1464
  615MOL0    Cl82934   4.968   5.138   9.183  0.2690  0.4088  0.1494
  615MOL0     C82935   3.886   4.743   8.864 -0.3561 -0.2741  0.1791
  615MOL0     C82936   3.745   4.740   8.854  0.4405  0.1816  0.4451
  615MOL0     O82937   3.491   4.766   8.711  0.3494 -0.1158 -0.2194
  615MOL0     C82938   3.254   4.906   8.935 -0.8024 -0.4887  0.0267
  615MOL0     C82939   3.126   4.962   8.944  0.8085 -0.9656 -0.5459
  615MOL0     N82940   2.542   4.787   9.251  0.2342  0.3653  0.5639
  615MOL0     N82941   2.456   4.839   9.331 -0.0771 -0.2482 -0.4918
  615MOL0     C82942   1.181   4.940   9.116  0.2308  0.0044  0.4675
  615MOL0     C82943   1.099   4.996   9.024  0.7174  0.4344  0.3844
  615MOL0     C82944   0.696   5.217   8.876  0.8802  1.0255 -0.7865
  615MOL0     C82945   0.765   5.246   8.757  0.3016 -0.1916 -0.2221
  615MOL0     C82946   0.698   5.277   8.638 -0.7233  0.3922  0.2942
  615MOL0     C82947   0.562   5.298   8.646 -0.5621 -0.0763  0.1271
  615MOL0     O82948   0.478   5.329   8.533 -0.0243 -0.6662  0.0177
  615MOL0     C82949   0.525   5.403   8.419 -1.0028 -0.2117 -1.1271
  615MOL0     C82950   0.411   5.445   8.333  0.0619 -0.1231 -0.0991
  615MOL0     C82951   0.305   5.534   8.418  0.0784  0.8333  0.6140
  615MOL0     C82952   0.380   5.643   8.489 -0.0724 -1.1616  0.7721
  615MOL0     C82953   0.277   5.731   8.547 -0.0264 -0.1986  0.1018
  615MOL0     C82954   0.200   5.802   8.605 -0.2612  0.6178  0.5945
  615MOL0     C82955   0.492   5.287   8.768 -0.9262  0.1816 -0.4815
  615MOL0     C82956   0.555   5.243   8.883 -0.3096  0.4900 -0.0140
  615MOL0     C82957   0.469   5.243   9.004  0.0300 -0.1976 -0.7367
  615MOL0     H82958   0.920   5.206   9.218 -0.8846  0.2994 -1.7893
  615MOL0     H82959   1.034   5.072   9.393  1.9221 -1.0509  1.5441
  615MOL0     H82960   1.381   4.772   9.407  1.6437  2.6878  1.2204
  615MOL0     H82961   1.341   4.772   9.235  0.7282 -2.1005  1.1129
  615MOL0     H82962   1.482   4.971   9.429  1.2605  2.0658 -0.9043
  615MOL0     H82963   1.451   5.019   9.255  0.4887  2.3007  2.2462
  615MOL0     H82964   1.582   4.811   9.195 -1.0127  1.5242 -0.2894
  615MOL0     H82965   1.592   4.766   9.365 -0.0713 -0.1338  0.3343
  615MOL0     H82966   1.704   5.006   9.217  1.3716  1.4460  2.1630
  615MOL0     H82967   1.716   4.987   9.395 -2.3703  0.0256 -0.8397
  615MOL0     H82968   1.841   4.791   9.374 -1.5668  0.4772  0.2286
  615MOL0     H82969   1.832   4.799   9.196  0.6355  0.7513 -0.7597
  615MOL0     H82970   1.954   5.004   9.196 -4.6730 -0.5682  0.4507
  615MOL0     H82971   1.980   5.004   9.369 -0.8398  0.2759 -0.0121
  615MOL0     H82972   2.107   4.806   9.188 -1.3009  0.7629 -0.2555
  615MOL0     H82973   2.100   4.791   9.361 -1.5726 -2.7121 -2.3931
  615MOL0     H82974   2.215   5.049   9.246  1.0755  1.0153  0.3194
  615MOL0     H82975   2.244   4.997   9.410  6.0134  2.0361 -1.4492
  615MOL0     H82976   2.332   4.942   9.057 -2.3734 -1.4444  0.9585
  615MOL0     H82977   2.649   4.707   9.008  0.8728  0.2203  0.4470
  615MOL0     H82978   2.519   4.763   8.906 -1.4408  0.6915  0.1328
  615MOL0     H82979   2.617   5.001   8.946  0.7032  0.9489  0.5094
  615MOL0     H82980   2.751   4.921   9.018  1.2356 -1.8646 -1.1016
  615MOL0     H82981   2.654   4.864   8.743 -0.7079 -2.8916  0.6366
  615MOL0     H82982   2.810   4.807   8.810 -0.5197 -0.3951 -2.0189
  615MOL0     H82983   2.751   5.106   8.782 -0.5319  0.0365  2.0438
  615MOL0     H82984   2.837   5.004   8.661 -2.1424 -1.9992  0.1521
  615MOL0     H82985   3.018   4.892   8.627 -0.2524 -0.5589  0.4939
  615MOL0     H82986   3.242   4.783   8.614  0.4480  2.2808 -0.9231
  615MOL0     H82987   3.658   4.959   9.088 -0.4855 -0.7011 -0.3327
  615MOL0     H82988   3.895   4.945   9.145 -2.0160 -1.6494  2.1665
  615MOL0     H82989   4.104   4.917   9.172 -0.0616 -0.4152  1.8604
  615MOL0     H82990   4.081   4.745   9.174  1.7458  0.2358  1.9520
  615MOL0     H82991   4.319   4.805   9.237  0.1761  2.7967 -0.4711
  615MOL0     H82992   4.302   4.703   9.091  1.7638 -0.6141  0.9476
  615MOL0     H82993   4.328   4.895   8.946 -0.3653  2.8988 -0.4199
  615MOL0     H82994   4.317   5.009   9.075 -1.4414 -0.4010 -0.4573
  615MOL0     H82995   4.525   4.794   9.046 -0.8559  0.1139 -1.5063
  615MOL0     H82996   4.521   4.909   9.177 -2.3259 -3.1508  1.0960
  615MOL0     H82997   4.536   5.077   8.975  0.0270 -0.2449  2.1101
  615MOL0     H82998   4.597   4.936   8.886  1.1767  0.3471  0.3786
  615MOL0     H82999   4.726   5.005   9.136 -0.2039 -1.2072  0.3052
  615MOL0     H83000   4.794   4.909   9.010 -1.6186 -1.5823 -0.2494
  615MOL0     H83001   4.741   5.213   9.003  1.7936  0.6808 -0.1118
  615MOL0     H83002   4.786   5.138   8.860 -0.4023  0.5394 -0.0140
  615MOL0     H83003   5.013   5.072   8.946 -0.9681  0.6976 -2.6454
  615MOL0     H83004   4.978   5.243   8.971  1.1396  0.2043  2.3672
  615MOL0     H83005   3.956   4.695   8.797 -2.1707 -2.8486  0.0053
  615MOL0     H83006   3.706   4.675   8.776  1.2632 -0.8812  0.8943
  615MOL0     H83007   3.311   4.905   9.027 -1.3929  0.4247  0.4122
  615MOL0     H83008   3.092   5.004   9.039  2.8582 -1.0509  0.2877
  615MOL0     H83009   1.263   4.886   9.070 -0.5826 -1.0287  0.2133
  615MOL0     H83010   1.107   4.973   8.918  0.6303 -0.1968  0.5145
  615MOL0     H83011   0.869   5.229   8.733  0.7852  1.3499  0.6041
  615MOL0     H83012   0.746   5.275   8.541  0.3829  0.3626  0.8342
  615MOL0     H83013   0.587   5.332   8.365 -0.2161 -0.9776  0.7009
  615MOL0     H83014   0.598   5.478   8.451 -1.0809  0.0017 -1.4467
  615MOL0     H83015   0.374   5.361   8.274  5.1184 -1.4663 -1.8872
  615MOL0     H83016   0.461   5.504   8.255  0.6056  0.0418  0.3658
  615MOL0     H83017   0.250   5.479   8.495  0.2917 -1.9128 -1.0543
  615MOL0     H83018   0.237   5.581   8.347  0.0919  1.7243  1.1855
  615MOL0     H83019   0.440   5.594   8.566  1.0456 -2.8798 -1.0891
  615MOL0     H83020   0.437   5.712   8.425  0.5515 -2.5701 -0.2435
  615MOL0     H83021   0.120   5.857   8.650 -1.0657  1.2074 -1.4269
  615MOL0     H83022   0.387   5.308   8.756 -1.4154 -1.8554 -0.1600
  615MOL0     H83023   0.514   5.306   9.081  0.4882 -0.5518 -0.7079
  615MOL0     H83024   0.370   5.285   8.983 -0.9727 -1.0487  1.8429
  615MOL0     H83025   0.444   5.140   9.034  1.8542 -1.2702 -2.6904
  616MOL0     O83026   0.870   5.797   2.905  0.7012  0.6489 -0.3236
  616MOL0     C83027   0.819   5.766   3.010 -1.0807  0.4975 -0.4271
  616MOL0     O83028   0.850   5.830   3.125  0.5812  0.6663 -0.0543
  616MOL0     C83029   0.969   5.896   3.147  0.1240  0.6158 -0.4148
  616MOL0     C83030   1.094   5.858   3.090  0.5257  0.4510  0.5072
  616MOL0     C83031   1.213   5.921   3.131 -0.1520 -0.1234  1.6179
  616MOL0     C83032   1.212   6.019   3.220 -0.6531  0.4070 -0.9630
  616MOL0     O83033   1.321   6.099   3.248 -0.5167  0.0617 -1.1020
  616MOL0     C83034   1.453   6.040   3.233  1.2032  0.3468 -0.1593
  616MOL0     C83035   1.554   6.138   3.291  0.1688 -0.5305 -0.1947
  616MOL0     C83036   1.696   6.081   3.291  0.3843  0.6593  0.8058
  616MOL0     C83037   1.795   6.164   3.374  0.2837  0.0568 -0.0801
  616MOL0     C83038   1.939   6.103   3.367 -0.1077 -0.3268  0.6250
  616MOL0     C83039   2.025   6.148   3.482 -0.9654 -0.2218 -0.1401
  616MOL0     C83040   2.177   6.106   3.448 -0.0275 -0.1530 -0.0376
  616MOL0     C83041   2.267   6.157   3.564  0.3420  0.5845  0.4833
  616MOL0     N83042   2.407   6.107   3.554  0.6237  1.2417 -0.4010
  616MOL0     C83043   2.444   5.975   3.577 -0.3092  0.2838  0.0010
  616MOL0     C83044   2.580   5.975   3.561 -0.7540 -0.4125 -0.4987
  616MOL0     C83045   2.671   5.855   3.591  0.8568 -0.7739 -0.4911
  616MOL0     C83046   2.817   5.892   3.582  0.8668  0.3154  0.7186
  616MOL0     C83047   2.894   5.760   3.617 -0.5125  0.6891 -0.4421
  616MOL0     C83048   3.039   5.761   3.579 -0.1595 -0.2348 -0.1854
  616MOL0     O83049   3.114   5.873   3.634 -0.5729 -0.3904 -0.0441
  616MOL0     C83050   3.255   5.877   3.622  0.4677 -0.4411  0.0564
  616MOL0     C83051   3.319   5.926   3.735  0.2960 -0.1555  0.4889
  616MOL0     C83052   3.449   5.965   3.738 -0.4624 -0.0755  0.8653
  616MOL0     C83053   3.525   5.939   3.621 -0.3479  0.9063  0.0116
  616MOL0     C83054   3.673   5.957   3.621 -0.2102  0.6601  0.5674
  616MOL0     O83055   3.739   5.922   3.745  0.5268  1.1215  0.1145
  616MOL0     C83056   3.877   5.934   3.744  0.1333 -0.0247 -1.1405
  616MOL0     C83057   3.937   5.810   3.759 -0.5787  0.9975 -0.4661
  616MOL0     C83058   4.075   5.802   3.772  0.1797  0.0603  0.5448
  616MOL0     C83059   4.150   5.923   3.783  0.1770 -0.5474 -0.1936
  616MOL0     O83060   4.283   5.891   3.785  0.4982 -0.5496 -0.2958
  616MOL0     C83061   4.376   5.983   3.723 -0.1254  1.0564 -0.3795
  616MOL0     C83062   4.513   5.922   3.764  0.2487  0.4186 -0.0537
  616MOL0     C83063   4.620   6.023   3.740 -0.3728  0.0648 -0.6583
  616MOL0     C83064   4.756   5.958   3.779 -0.5379 -0.1254  0.1356
  616MOL0     C83065   4.854   6.071   3.777  0.1309 -0.2285 -0.0124
  616MOL0     C83066   4.987   6.024   3.815  0.0490  0.0658  0.7482
  616MOL0     C83067   5.090   6.130   3.838 -0.2685  0.9350  0.1283
  616MOL0     C83068   5.232   6.079   3.858 -0.3371 -0.3475  0.0481
  616MOL0    Cl83069   5.272   5.996   4.015 -0.4649  0.2188  0.4067
  616MOL0     C83070   4.098   6.051   3.767  1.8291 -0.0198 -0.8088
  616MOL0     C83071   3.956   6.054   3.751  0.6883  0.1054  0.0071
  616MOL0     O83072   3.739   5.976   3.517 -0.2929 -0.6009 -0.2874
  616MOL0     C83073   3.465   5.898   3.497  0.6226  1.2915 -0.4054
  616MOL0     C83074   3.328   5.870   3.497 -0.3052  0.3832  0.2240
  616MOL0     N83075   2.609   6.102   3.515  0.0870 -0.0247 -0.1912
  616MOL0     N83076   2.507   6.181   3.499  0.3917  0.4156  0.3188
  616MOL0     C83077   1.094   6.065   3.274  0.3242  0.3982 -0.5012
  616MOL0     C83078   0.977   5.988   3.248  0.2299  0.4934 -0.7918
  616MOL0     C83079   0.725   5.649   2.999 -0.6673  0.0810  0.0631
  616MOL0     C83080   0.610   5.662   2.913 -0.1772 -0.1945  0.4249
  616MOL0     C83081   0.518   5.561   2.890 -0.2417 -0.2411 -0.6463
  616MOL0     C83082   0.530   5.451   2.968  0.5157  0.4573 -0.6745
  616MOL0     O83083   0.420   5.368   2.961  0.0837  0.1373  0.4079
  616MOL0     C83084   0.400   5.281   3.069 -0.4601  0.3605 -0.1567
  616MOL0     C83085   0.263   5.234   3.042 -0.1064  0.6188 -0.3911
  616MOL0     C83086   0.244   5.141   2.923 -0.6533  0.0237 -0.4223
  616MOL0     C83087   0.102   5.109   2.883 -0.7148 -0.1827  0.0078
  616MOL0     C83088   0.031   5.222   2.824  0.3113 -0.0958  0.1451
  616MOL0     C83089  -0.020   5.319   2.769  1.1594  0.0443  0.1372
  616MOL0     C83090   0.646   5.427   3.051  0.1255 -0.0929  0.4590
  616MOL0     C83091   0.742   5.530   3.073  0.0422  0.2839 -0.3007
  616MOL0     C83092   0.859   5.510   3.161  0.1674 -0.5474  0.5562
  616MOL0     H83093   1.087   5.793   3.004 -1.8922  0.5423  0.5756
  616MOL0     H83094   1.302   5.895   3.074 -2.3286 -1.3762 -1.4958
  616MOL0     H83095   1.461   5.951   3.296 -0.7384  1.1724  1.3685
  616MOL0     H83096   1.475   6.036   3.126 -1.7830 -1.1460 -0.8194
  616MOL0     H83097   1.518   6.169   3.390  0.3119 -0.4819 -0.1573
  616MOL0     H83098   1.554   6.229   3.229  3.5298 -1.0531 -1.1732
  616MOL0     H83099   1.731   6.084   3.187  2.7390 -2.1158  1.3836
  616MOL0     H83100   1.703   5.977   3.323  1.7984  0.9945  1.6947
  616MOL0     H83101   1.803   6.269   3.345  0.5476 -0.0650 -0.4703
  616MOL0     H83102   1.760   6.151   3.476  0.3078  1.6795  0.1563
  616MOL0     H83103   1.942   5.994   3.369 -2.8540 -0.5277  5.3112
  616MOL0     H83104   1.974   6.148   3.273  0.8814  0.5548  1.3904
  616MOL0     H83105   2.016   6.257   3.493  0.0026 -0.2632  1.3187
  616MOL0     H83106   1.989   6.108   3.577 -1.2857  0.3315 -0.0234
  616MOL0     H83107   2.198   6.156   3.353  1.2624 -0.6242 -0.0152
  616MOL0     H83108   2.188   5.998   3.439  1.2149 -0.2818  2.2646
  616MOL0     H83109   2.260   6.265   3.552  2.2698  0.6947 -0.0419
  616MOL0     H83110   2.214   6.119   3.652 -2.0691 -2.3391 -1.9845
  616MOL0     H83111   2.370   5.901   3.608 -1.2416  1.5603  0.9242
  616MOL0     H83112   2.641   5.810   3.687  2.3972 -2.6868 -0.8445
  616MOL0     H83113   2.641   5.780   3.517  0.3803 -0.8798 -0.1976
  616MOL0     H83114   2.838   5.898   3.475 -1.2118  0.1043  0.2618
  616MOL0     H83115   2.855   5.987   3.620  0.7422  0.1834  1.1829
  616MOL0     H83116   2.850   5.678   3.561 -1.1715 -0.2103  1.3042
  616MOL0     H83117   2.879   5.726   3.720 -0.5667  0.1586 -0.6207
  616MOL0     H83118   3.050   5.772   3.471  2.1166  2.9178  0.2482
  616MOL0     H83119   3.080   5.668   3.621 -0.3215 -0.3317 -0.2399
  616MOL0     H83120   3.257   5.947   3.822  0.0780 -2.3920  0.9210
  616MOL0     H83121   3.496   6.006   3.827  1.0310  0.0730  0.0418
  616MOL0     H83122   3.879   5.718   3.761  1.4922 -0.3613  0.6130
  616MOL0     H83123   4.111   5.699   3.776 -2.2204 -0.8623  0.0913
  616MOL0     H83124   4.348   5.981   3.617 -4.2536 -2.0131  0.5347
  616MOL0     H83125   4.355   6.081   3.766 -2.1285  0.8514 -0.7853
  616MOL0     H83126   4.511   5.907   3.872  4.5822 -1.4634 -0.0283
  616MOL0     H83127   4.540   5.830   3.711  0.2354  1.7612 -2.5324
  616MOL0     H83128   4.627   6.053   3.636 -2.7081  0.5472 -0.7281
  616MOL0     H83129   4.595   6.109   3.803 -3.2094  0.8247 -2.6378
  616MOL0     H83130   4.781   5.875   3.713 -0.4958 -1.3359  1.6263
  616MOL0     H83131   4.753   5.919   3.881  0.8313  0.0006  0.2370
  616MOL0     H83132   4.822   6.139   3.856 -0.8341  0.6681 -1.1408
  616MOL0     H83133   4.847   6.126   3.683  1.9570  1.8431  0.9874
  616MOL0     H83134   4.976   5.962   3.904 -5.1100 -2.4748 -1.2194
  616MOL0     H83135   5.025   5.965   3.731 -2.2400  0.2229 -0.4891
  616MOL0     H83136   5.066   6.190   3.926 -0.0336 -0.5172  1.2089
  616MOL0     H83137   5.074   6.191   3.748 -0.4854 -0.9392 -1.1576
  616MOL0     H83138   5.247   6.007   3.777 -3.8681  0.1441 -1.2108
  616MOL0     H83139   5.303   6.162   3.846  0.9454 -1.0690  2.1633
  616MOL0     H83140   4.157   6.140   3.785  3.0838 -0.7389 -1.2757
  616MOL0     H83141   3.905   6.150   3.748 -0.0330 -0.0897  3.0746
  616MOL0     H83142   3.520   5.890   3.403  1.0600 -2.0135  0.0113
  616MOL0     H83143   3.268   5.840   3.412  0.8582 -0.2668 -0.3764
  616MOL0     H83144   1.085   6.150   3.341 -0.1265  0.1553 -0.2477
  616MOL0     H83145   0.886   6.001   3.305 -0.2047 -2.2326 -0.7526
  616MOL0     H83146   0.565   5.752   2.872 -1.1054 -1.2416 -0.9260
  616MOL0     H83147   0.437   5.581   2.821  0.1938 -0.5026 -1.2308
  616MOL0     H83148   0.408   5.328   3.168 -3.1059 -0.1181  0.3605
  616MOL0     H83149   0.473   5.201   3.056 -2.3596 -1.2076 -1.7846
  616MOL0     H83150   0.203   5.325   3.032 -0.8434  0.5012  2.1661
  616MOL0     H83151   0.225   5.191   3.136  2.2028  0.4667  0.5391
  616MOL0     H83152   0.294   5.044   2.934  0.8521  0.9683  1.5656
  616MOL0     H83153   0.288   5.210   2.851  2.6255  0.4244  1.7743
  616MOL0     H83154   0.120   5.027   2.813  0.0227 -0.7852  0.8789
  616MOL0     H83155   0.042   5.073   2.967 -2.4861 -1.2602 -1.6327
  616MOL0     H83156  -0.071   5.394   2.711 -0.5219 -1.1552 -0.0156
  616MOL0     H83157   0.654   5.326   3.091 -1.0164 -0.0051  0.9507
  616MOL0     H83158   0.837   5.422   3.222  0.1971 -1.5697 -0.8552
  616MOL0     H83159   0.951   5.491   3.105  0.5127  3.4993 -0.5236
  616MOL0     H83160   0.878   5.595   3.227  1.1985 -1.1397  1.0620
  617MOL0     O83161   4.516   7.734   7.731  0.1820 -0.0347  0.6720
  617MOL0     C83162   4.562   7.771   7.620  0.5210 -0.1563 -0.3269
  617MOL0     O83163   4.507   7.753   7.491 -0.5461  1.0655 -0.5962
  617MOL0     C83164   4.388   7.691   7.471 -0.5013  1.1870  0.0184
  617MOL0     C83165   4.300   7.742   7.369 -0.2699 -0.8795 -0.0488
  617MOL0     C83166   4.177   7.677   7.355  0.0473 -0.1153  0.4288
  617MOL0     C83167   4.147   7.554   7.422 -0.2692  0.3449 -0.0662
  617MOL0     O83168   4.017   7.507   7.407 -0.1828 -0.1715  0.7721
  617MOL0     C83169   3.993   7.413   7.297  0.3592 -0.7538  0.2803
  617MOL0     C83170   3.853   7.387   7.257  0.0104 -0.1237 -0.2064
  617MOL0     C83171   3.756   7.349   7.379 -0.3058 -0.2027  0.8004
  617MOL0     C83172   3.788   7.204   7.420  0.2229 -0.1753  0.6475
  617MOL0     C83173   3.720   7.166   7.554 -0.3021  0.8940 -0.2439
  617MOL0     C83174   3.792   7.220   7.679  0.3998 -0.0121 -0.1738
  617MOL0     C83175   3.742   7.142   7.801  0.6991  0.1675 -0.6132
  617MOL0     C83176   3.773   7.212   7.930  0.1135 -0.1846  0.6756
  617MOL0     N83177   3.916   7.211   7.957 -0.1622  0.0953 -0.5843
  617MOL0     C83178   4.002   7.321   7.952 -0.2632 -0.5321 -0.3870
  617MOL0     C83179   4.116   7.267   8.000 -0.0099 -0.0705 -0.1101
  617MOL0     C83180   4.252   7.327   8.007  0.0329  0.6416  0.5226
  617MOL0     C83181   4.260   7.392   8.144 -1.3102 -0.5477  1.0626
  617MOL0     C83182   4.406   7.399   8.204 -0.1191  0.2884 -0.6061
  617MOL0     C83183   4.502   7.461   8.106  0.7443  0.2942 -0.2823
  617MOL0     O83184   4.629   7.454   8.176 -0.2103 -0.1610  0.1192
  617MOL0     C83185   4.740   7.517   8.128 -0.8224  0.4417  0.4012
  617MOL0     C83186   4.865   7.488   8.186 -0.2641 -0.1147  0.5314
  617MOL0     C83187   4.979   7.549   8.143 -0.3448  0.3116  0.5408
  617MOL0     C83188   4.977   7.649   8.045 -0.0538  0.2438 -0.5612
  617MOL0     C83189   5.110   7.702   7.993  0.8716  0.3753 -0.5406
  617MOL0     O83190   5.226   7.665   8.051  0.0321  0.4841 -0.4375
  617MOL0     C83191   5.338   7.700   7.981  0.5224  0.0778 -0.0744
  617MOL0     C83192   5.425   7.799   8.031 -0.0743  0.0872  0.2624
  617MOL0     C83193   5.535   7.842   7.951 -0.5154  1.2246  0.2465
  617MOL0     C83194   5.571   7.772   7.841 -0.7437  0.1544 -0.7149
  617MOL0     O83195   5.690   7.800   7.778 -0.3570  0.7698 -0.3771
  617MOL0     C83196   5.686   7.812   7.639 -0.0518 -0.0462  0.0067
  617MOL0     C83197   5.825   7.799   7.575  0.2291 -0.2860  0.7002
  617MOL0     C83198   5.912   7.909   7.632  0.4850 -0.1406 -0.4874
  617MOL0     C83199   6.026   7.950   7.547  0.2705  0.9491 -0.1557
  617MOL0     C83200   6.112   8.060   7.619  0.3674 -0.5257  1.1211
  617MOL0     C83201   6.237   8.082   7.533 -0.6527  0.0714  0.2237
  617MOL0     C83202   6.343   8.163   7.602  0.0049  0.5589  0.7093
  617MOL0     C83203   6.468   8.171   7.510  0.4347  0.3857 -0.7858
  617MOL0    Cl83204   6.437   8.297   7.383 -0.5085 -0.0593  0.1347
  617MOL0     C83205   5.488   7.668   7.800  0.2563  0.4093 -0.8120
  617MOL0     C83206   5.371   7.626   7.862  0.1489 -0.6842 -0.6766
  617MOL0     O83207   5.096   7.783   7.904 -0.5945 -0.3086 -0.3810
  617MOL0     C83208   4.853   7.680   7.982 -0.1165 -0.5731  0.4392
  617MOL0     C83209   4.740   7.605   8.022  0.6413 -1.1048  0.0208
  617MOL0     N83210   4.096   7.133   8.038 -0.2996  0.2226  0.5157
  617MOL0     N83211   3.973   7.103   8.011  0.0000  0.5390 -0.4120
  617MOL0     C83212   4.237   7.496   7.502 -0.5999 -0.4618  0.5002
  617MOL0     C83213   4.357   7.566   7.533 -1.1074 -0.6193  0.4070
  617MOL0     C83214   4.677   7.859   7.620 -0.6316  0.3803  0.1208
  617MOL0     C83215   4.665   7.998   7.644  0.3960 -0.4108 -0.6320
  617MOL0     C83216   4.778   8.081   7.655 -0.8633 -0.5619 -0.5121
  617MOL0     C83217   4.905   8.034   7.619  0.3474  0.1998 -0.0182
  617MOL0     O83218   5.005   8.119   7.618  0.6540  0.2013  0.3002
  617MOL0     C83219   5.123   8.062   7.676 -0.7822  0.1522 -0.0406
  617MOL0     C83220   5.214   8.166   7.741 -1.4729  0.2041 -0.4230
  617MOL0     C83221   5.334   8.108   7.800 -0.4068  0.1568 -0.7182
  617MOL0     C83222   5.421   8.210   7.868 -0.1500  0.0110 -0.4345
  617MOL0     C83223   5.562   8.169   7.859  0.4691  0.0686  0.4521
  617MOL0     C83224   5.675   8.127   7.846  0.2546 -0.1432 -0.6976
  617MOL0     C83225   4.909   7.905   7.565 -0.4446  0.1410  0.2187
  617MOL0     C83226   4.798   7.814   7.560 -0.0480 -0.5012 -0.0913
  617MOL0     C83227   4.809   7.683   7.493  0.2618  0.0959 -0.2993
  617MOL0     H83228   4.322   7.824   7.301  0.5317 -0.8399  0.2515
  617MOL0     H83229   4.104   7.711   7.282  2.1079 -0.2278 -1.7596
  617MOL0     H83230   4.041   7.452   7.207  1.7352 -3.3905 -0.2296
  617MOL0     H83231   4.037   7.314   7.312 -2.3089 -1.6863  3.0548
  617MOL0     H83232   3.852   7.307   7.183  0.5777  1.3612 -1.8800
  617MOL0     H83233   3.821   7.477   7.204 -3.2251 -2.4960 -2.7329
  617MOL0     H83234   3.653   7.358   7.344  0.1140 -0.6045 -0.6140
  617MOL0     H83235   3.774   7.416   7.464  1.5634 -1.3451  1.3759
  617MOL0     H83236   3.750   7.141   7.339 -0.2852  0.7252  0.1654
  617MOL0     H83237   3.895   7.186   7.419  0.0561 -1.4538 -2.1177
  617MOL0     H83238   3.618   7.205   7.562 -0.2248  0.9421  0.6628
  617MOL0     H83239   3.723   7.056   7.549  0.2961  0.9583 -2.5550
  617MOL0     H83240   3.900   7.212   7.668  1.0251  2.2087  2.8497
  617MOL0     H83241   3.774   7.327   7.694 -0.9989 -0.3410  0.7339
  617MOL0     H83242   3.773   7.038   7.813  0.5430  0.2591  0.7220
  617MOL0     H83243   3.634   7.130   7.787  0.6768  0.7529 -0.9836
  617MOL0     H83244   3.740   7.317   7.927  0.1395 -0.1910  0.0965
  617MOL0     H83245   3.721   7.164   8.013 -2.6626  0.6754 -0.4719
  617MOL0     H83246   3.993   7.418   7.904  0.1498 -0.5590 -0.5225
  617MOL0     H83247   4.317   7.239   8.010  0.8996  1.2777  2.9653
  617MOL0     H83248   4.286   7.381   7.919  0.7085 -2.8011 -1.5292
  617MOL0     H83249   4.222   7.494   8.143 -2.0803 -0.8232  1.2451
  617MOL0     H83250   4.192   7.332   8.205 -1.2754 -2.2091 -0.4366
  617MOL0     H83251   4.427   7.300   8.245 -1.7452 -0.0704 -0.5396
  617MOL0     H83252   4.399   7.466   8.290  1.2439  0.0042 -0.2584
  617MOL0     H83253   4.471   7.564   8.086 -0.1856  0.2169  0.7181
  617MOL0     H83254   4.496   7.402   8.014 -0.7677 -0.1250  0.0721
  617MOL0     H83255   4.879   7.413   8.264  1.8118 -0.4749 -0.1169
  617MOL0     H83256   5.065   7.508   8.195 -2.2645 -3.3683  1.1032
  617MOL0     H83257   5.416   7.850   8.126  2.5339  1.9286 -0.3820
  617MOL0     H83258   5.611   7.915   7.978  0.6786 -0.2768  1.1053
  617MOL0     H83259   5.624   7.738   7.589 -0.8580  1.5224 -1.4021
  617MOL0     H83260   5.633   7.906   7.619  0.7588  0.5473  0.5784
  617MOL0     H83261   5.875   7.702   7.583 -0.9221 -1.4039 -3.2592
  617MOL0     H83262   5.821   7.822   7.468  0.9552 -2.8586  0.0464
  617MOL0     H83263   5.849   7.995   7.655  2.1013  0.9726 -0.0520
  617MOL0     H83264   5.941   7.873   7.731 -1.0776  0.0740  0.0739
  617MOL0     H83265   5.978   8.004   7.465 -1.5775  0.1028  0.3322
  617MOL0     H83266   6.084   7.867   7.506 -0.3978  1.2477 -1.7863
  617MOL0     H83267   6.144   8.037   7.721 -0.1213 -2.5001  0.8835
  617MOL0     H83268   6.052   8.149   7.637 -1.6024 -1.5122 -0.0885
  617MOL0     H83269   6.284   7.989   7.500 -0.1316  0.7640 -1.0764
  617MOL0     H83270   6.211   8.129   7.437 -2.3674 -1.6153 -0.2096
  617MOL0     H83271   6.373   8.101   7.688  0.4121 -3.0495 -1.7819
  617MOL0     H83272   6.310   8.262   7.633  1.3071  0.9618  0.8695
  617MOL0     H83273   6.551   8.210   7.569 -1.0007  0.0919  1.5414
  617MOL0     H83274   6.498   8.070   7.480 -1.3758 -0.8312  1.2163
  617MOL0     H83275   5.521   7.608   7.716 -1.8188 -2.0702  0.0123
  617MOL0     H83276   5.315   7.539   7.828  1.5501 -1.4501 -1.1243
  617MOL0     H83277   4.852   7.743   7.893  0.9988  0.1911  0.9334
  617MOL0     H83278   4.649   7.621   7.965  0.7001 -2.4893 -0.4975
  617MOL0     H83279   4.194   7.419   7.565  0.2682 -0.3737  1.2329
  617MOL0     H83280   4.428   7.517   7.598  1.6096 -0.1624 -2.0298
  617MOL0     H83281   4.572   8.039   7.682  0.0587 -0.9441 -0.8757
  617MOL0     H83282   4.769   8.177   7.704  1.2005 -0.7631  0.3813
  617MOL0     H83283   5.186   8.014   7.601  1.5205  4.0072 -0.8384
  617MOL0     H83284   5.097   7.990   7.753 -0.5876  0.1459  0.0190
  617MOL0     H83285   5.162   8.230   7.814 -1.9555 -2.5240  1.8219
  617MOL0     H83286   5.253   8.236   7.667  1.2958 -0.3198  0.4168
  617MOL0     H83287   5.389   8.054   7.722 -1.6859  0.2356 -1.7256
  617MOL0     H83288   5.298   8.036   7.874 -1.2133  0.8539 -0.4140
  617MOL0     H83289   5.404   8.306   7.817  0.6259  1.3414  1.6628
  617MOL0     H83290   5.397   8.217   7.974 -1.6384 -2.3603 -0.5415
  617MOL0     H83291   5.776   8.091   7.844 -0.0336 -1.6882  3.1923
  617MOL0     H83292   4.999   7.873   7.515 -1.5526 -0.0628 -1.7471
  617MOL0     H83293   4.780   7.595   7.550 -0.9270 -0.8803 -2.2895
  617MOL0     H83294   4.733   7.667   7.415  1.3568 -3.9143 -0.7758
  617MOL0     H83295   4.903   7.673   7.437 -0.7823 -0.9387 -1.9655
  618MOL0     O83296   7.033   1.696   0.630 -0.3655  0.1628  0.3649
  618MOL0     C83297   6.992   1.796   0.684  0.6550  0.1881  0.7472
  618MOL0     O83298   7.044   1.923   0.687 -0.3329 -0.8040  0.8402
  618MOL0     C83299   7.156   1.939   0.602  0.1150 -0.0105 -0.2964
  618MOL0     C83300   7.138   2.009   0.479 -1.0225 -0.2552 -0.2004
  618MOL0     C83301   7.257   2.032   0.392  1.0874  0.0179 -1.0663
  618MOL0     C83302   7.373   1.965   0.426  0.8731  0.4153  0.2249
  618MOL0     O83303   7.480   2.002   0.344  0.5641  0.4654  0.8348
  618MOL0     C83304   7.612   1.950   0.362 -0.2606 -0.4757  0.4396
  618MOL0     C83305   7.704   1.990   0.247  0.1619  0.3061  0.3027
  618MOL0     C83306   7.846   1.943   0.266  0.3826 -0.9146  0.6275
  618MOL0     C83307   7.944   1.986   0.152  0.0397 -0.3441 -0.0006
  618MOL0     C83308   8.096   1.976   0.186 -0.1002  0.5266  0.3871
  618MOL0     C83309   8.175   1.956   0.052 -0.1464  0.1938  0.9940
  618MOL0     C83310   8.326   1.942   0.076  0.2358  0.8202 -0.3485
  618MOL0     C83311   8.407   2.070   0.061  0.2541  0.2473 -0.3756
  618MOL0     N83312   8.439   2.093  -0.084  0.1342 -0.3445  0.2355
  618MOL0     C83313   8.571   2.106  -0.134 -0.6949 -0.3601  0.3392
  618MOL0     C83314   8.565   2.124  -0.269  0.7751  0.5346 -0.1102
  618MOL0     C83315   8.666   2.141  -0.379 -0.0943 -1.0635 -0.2540
  618MOL0     C83316   8.789   2.048  -0.356 -0.6045 -0.1170  0.3540
  618MOL0     C83317   8.903   2.082  -0.452 -0.9012 -0.2448  0.2436
  618MOL0     C83318   9.052   2.075  -0.399 -0.0272 -0.0958  0.0913
  618MOL0     O83319   9.141   2.116  -0.504 -0.0121  0.1899  0.1826
  618MOL0     C83320   9.276   2.107  -0.483  0.6464  0.0485 -0.1737
  618MOL0     C83321   9.363   2.118  -0.597 -0.4759 -0.0840  0.4223
  618MOL0     C83322   9.496   2.146  -0.580  0.6573 -0.3975 -0.5320
  618MOL0     C83323   9.553   2.139  -0.448 -0.3408 -0.5918 -0.0414
  618MOL0     C83324   9.699   2.152  -0.435 -0.4905  0.1458  0.1391
  618MOL0     O83325   9.782   2.183  -0.554 -0.4911 -0.5057  0.1400
  618MOL0     C83326   9.912   2.226  -0.537  0.3562 -0.0203 -0.3906
  618MOL0     C83327   9.994   2.186  -0.433 -0.7128  0.5074  0.0932
  618MOL0     C83328  10.133   2.202  -0.425  0.1064  0.8903  0.0737
  618MOL0     C83329  10.197   2.278  -0.524  0.3005 -0.8827 -0.0644
  618MOL0     O83330  10.329   2.299  -0.536 -0.5396 -0.9424  0.1140
  618MOL0     C83331  10.421   2.186  -0.527 -0.4225  0.4128  0.0827
  618MOL0     C83332  10.561   2.257  -0.525 -0.1359 -0.4929  0.3592
  618MOL0     C83333  10.683   2.159  -0.573  0.9316  1.1056  0.2382
  618MOL0     C83334  10.814   2.232  -0.554 -0.1856 -0.6921  0.2836
  618MOL0     C83335  10.935   2.144  -0.587 -0.8365 -0.2918 -0.1490
  618MOL0     C83336  11.069   2.221  -0.573  0.7694 -0.1167 -0.1608
  618MOL0     C83337  11.199   2.141  -0.570  0.7570  0.2322 -0.3168
  618MOL0     C83338  11.212   2.034  -0.670  0.7876  0.0749  0.7074
  618MOL0    Cl83339  11.388   2.004  -0.680 -0.2036 -0.1180  0.5900
  618MOL0     C83340  10.119   2.324  -0.627 -0.4544 -0.5701  0.1517
  618MOL0     C83341   9.980   2.299  -0.634 -0.2153 -0.0250 -0.4634
  618MOL0     O83342   9.734   2.143  -0.322 -0.5436  0.0782 -0.7056
  618MOL0     C83343   9.470   2.117  -0.342  0.2500 -0.2597  0.5826
  618MOL0     C83344   9.336   2.094  -0.364 -0.1642  0.2697  0.0218
  618MOL0     N83345   8.431   2.130  -0.293  0.2191  0.2962  0.2602
  618MOL0     N83346   8.355   2.120  -0.187 -0.3896  0.2587  0.4443
  618MOL0     C83347   7.385   1.875   0.532 -0.3306 -0.3189  0.1860
  618MOL0     C83348   7.275   1.862   0.623 -0.9911 -0.5768 -0.8610
  618MOL0     C83349   6.847   1.794   0.716 -0.1382  1.3395 -1.0528
  618MOL0     C83350   6.782   1.922   0.740  0.3424 -0.0511 -0.0217
  618MOL0     C83351   6.648   1.932   0.747 -0.7884  0.4369 -0.1862
  618MOL0     C83352   6.567   1.819   0.745  0.0826  0.1611  0.6985
  618MOL0     O83353   6.430   1.830   0.758 -0.2636  0.1414  0.2042
  618MOL0     C83354   6.345   1.789   0.642 -0.0991  0.1150  0.1216
  618MOL0     C83355   6.201   1.842   0.651 -0.2984 -0.4582  0.0449
  618MOL0     C83356   6.192   1.987   0.604  0.1298 -0.6285  0.2585
  618MOL0     C83357   6.049   2.048   0.615 -0.6976  0.6382 -0.2804
  618MOL0     C83358   5.942   1.990   0.533  0.7551  0.7375 -0.8050
  618MOL0     C83359   5.846   1.945   0.467 -0.7843  1.4167 -0.0996
  618MOL0     C83360   6.627   1.692   0.729 -1.0498  0.1499 -0.6071
  618MOL0     C83361   6.770   1.677   0.730 -0.1494  0.3654  0.1802
  618MOL0     C83362   6.824   1.543   0.742 -0.6879  0.0491 -0.1004
  618MOL0     H83363   7.038   2.044   0.457 -2.2795 -3.3668 -0.0630
  618MOL0     H83364   7.246   2.108   0.315  0.2920  1.8585  0.7712
  618MOL0     H83365   7.653   1.997   0.453  0.2413 -1.5965  0.8195
  618MOL0     H83366   7.617   1.841   0.355 -1.3599 -0.4161 -1.9277
  618MOL0     H83367   7.702   2.100   0.242  1.5163  0.3600  0.3461
  618MOL0     H83368   7.664   1.945   0.156 -1.8475 -2.6970  2.5115
  618MOL0     H83369   7.855   1.837   0.290 -1.7513 -1.6612 -1.5215
  618MOL0     H83370   7.870   2.003   0.354 -1.6615  0.3082  0.3935
  618MOL0     H83371   7.926   1.922   0.065  2.4200  0.5693 -1.2683
  618MOL0     H83372   7.934   2.091   0.124 -0.5821  0.3461  2.5472
  618MOL0     H83373   8.126   2.064   0.243 -3.1482  1.3965  0.8038
  618MOL0     H83374   8.115   1.887   0.246  0.9998 -1.1029 -2.2039
  618MOL0     H83375   8.128   1.873  -0.002  1.8607 -1.4318  1.6064
  618MOL0     H83376   8.160   2.050  -0.001  1.0552  0.1878  0.6153
  618MOL0     H83377   8.369   1.872   0.004  2.1213  1.5854 -0.0273
  618MOL0     H83378   8.348   1.892   0.170 -0.0761 -0.3311 -0.8712
  618MOL0     H83379   8.353   2.157   0.098 -0.2932  0.0957 -0.8126
  618MOL0     H83380   8.496   2.050   0.122 -1.1268  0.5308  1.8272
  618MOL0     H83381   8.654   2.105  -0.064  1.2634  1.5948 -1.7716
  618MOL0     H83382   8.617   2.123  -0.475 -0.8055  0.9187 -0.3102
  618MOL0     H83383   8.681   2.249  -0.374 -0.4514 -0.8564 -2.5885
  618MOL0     H83384   8.815   2.061  -0.251 -1.6208 -2.0613  0.9071
  618MOL0     H83385   8.761   1.942  -0.362  0.4062 -0.5363  2.2986
  618MOL0     H83386   8.894   2.185  -0.488 -0.7728 -0.2483  0.2000
  618MOL0     H83387   8.899   2.014  -0.538 -1.5464 -1.1717  0.9831
  618MOL0     H83388   9.070   1.970  -0.374  0.2667  0.0419  0.4647
  618MOL0     H83389   9.065   2.136  -0.309 -0.9708 -1.0866  0.9232
  618MOL0     H83390   9.321   2.115  -0.697  1.7735 -1.3127 -0.5624
  618MOL0     H83391   9.555   2.170  -0.667 -1.9648 -0.5206 -2.4725
  618MOL0     H83392   9.953   2.123  -0.355  0.0715 -1.1381 -0.7715
  618MOL0     H83393  10.200   2.174  -0.345 -1.0003  2.0271  1.4580
  618MOL0     H83394  10.398   2.121  -0.443 -4.3676 -0.5881 -1.5081
  618MOL0     H83395  10.412   2.121  -0.615 -0.1313 -0.0341  0.3834
  618MOL0     H83396  10.554   2.340  -0.596  2.4242 -1.4910 -1.2220
  618MOL0     H83397  10.578   2.296  -0.425 -0.1908  0.0983  0.1405
  618MOL0     H83398  10.678   2.057  -0.533 -2.4933  1.2687  0.5287
  618MOL0     H83399  10.674   2.150  -0.682  0.2855  1.8319  0.2223
  618MOL0     H83400  10.816   2.262  -0.449 -3.1105 -0.6313  0.4296
  618MOL0     H83401  10.815   2.324  -0.614  1.8019  1.5613  3.4711
  618MOL0     H83402  10.937   2.108  -0.690 -3.3970  1.3914 -0.8723
  618MOL0     H83403  10.935   2.071  -0.506 -0.8515  0.7641  0.8322
  618MOL0     H83404  11.073   2.290  -0.658 -1.8452  0.4965  0.1282
  618MOL0     H83405  11.061   2.288  -0.486 -0.4340  0.2015 -0.5011
  618MOL0     H83406  11.207   2.099  -0.469  2.0543  3.6313  1.1323
  618MOL0     H83407  11.283   2.211  -0.578  1.2427 -0.1224  1.2811
  618MOL0     H83408  11.159   1.943  -0.641 -1.5490  1.3940  0.8674
  618MOL0     H83409  11.172   2.077  -0.763 -1.7283  0.8492  2.0563
  618MOL0     H83410  10.153   2.379  -0.715  0.0146  0.8749  1.1997
  618MOL0     H83411   9.920   2.321  -0.722 -1.4397 -2.1251 -0.2268
  618MOL0     H83412   9.510   2.108  -0.241  1.7863 -1.9650 -0.1293
  618MOL0     H83413   9.291   2.071  -0.268 -1.2832  1.3400 -0.2279
  618MOL0     H83414   7.478   1.825   0.558 -0.5292 -0.2885  0.9917
  618MOL0     H83415   7.278   1.800   0.712 -3.6571  0.0638 -0.2474
  618MOL0     H83416   6.835   2.016   0.750 -2.2132  1.9913 -3.4202
  618MOL0     H83417   6.612   2.034   0.752  3.6214  2.1511  1.9979
  618MOL0     H83418   6.336   1.681   0.651 -1.7598  0.0821 -1.3623
  618MOL0     H83419   6.392   1.822   0.549 -1.6583  2.2485  0.0107
  618MOL0     H83420   6.165   1.836   0.754  0.1439  1.5964  0.3565
  618MOL0     H83421   6.139   1.772   0.594 -1.1942 -2.0785  2.7867
  618MOL0     H83422   6.232   1.996   0.503 -2.2668 -0.7683 -0.7873
  618MOL0     H83423   6.254   2.032   0.682 -1.0452 -0.1860  0.9736
  618MOL0     H83424   6.019   2.050   0.720  1.6458 -1.8476  0.5689
  618MOL0     H83425   6.057   2.152   0.581  0.6182  1.3147  1.8992
  618MOL0     H83426   5.767   1.901   0.410 -1.4119  0.6240  1.3351
  618MOL0     H83427   6.552   1.613   0.730 -1.1397  0.2217 -1.1971
  618MOL0     H83428   6.912   1.551   0.806 -1.0794  0.2325  0.4269
  618MOL0     H83429   6.752   1.477   0.792 -1.0942  1.2168  0.8860
  618MOL0     H83430   6.850   1.505   0.642 -0.1722  0.6338 -0.1897
  619MOL0     O83431   9.999   9.560  10.386  0.2854 -0.7134 -0.8153
  619MOL0     C83432  10.024   9.438  10.392  0.6347 -0.3602 -0.4589
  619MOL0     O83433  10.145   9.381  10.370 -0.4197 -0.3213  0.2875
  619MOL0     C83434  10.241   9.447  10.291  0.9216  0.5689  0.9034
  619MOL0     C83435  10.223   9.549  10.192 -0.7166 -0.0239  0.0690
  619MOL0     C83436  10.331   9.601  10.122  0.6821  0.0043  0.1757
  619MOL0     C83437  10.460   9.548  10.142  0.0483  0.6558 -0.9000
  619MOL0     O83438  10.558   9.597  10.060 -0.0594 -0.3068  0.5376
  619MOL0     C83439  10.683   9.531  10.056 -0.5910  0.0652 -0.0297
  619MOL0     C83440  10.764   9.628   9.970  0.3462  0.1748 -0.1057
  619MOL0     C83441  10.908   9.609   9.990  0.7082 -0.2166 -1.1971
  619MOL0     C83442  10.989   9.605   9.865  0.7483  0.0202  0.4813
  619MOL0     C83443  11.146   9.598   9.878  0.4136 -0.5273 -0.4109
  619MOL0     C83444  11.187   9.457   9.915 -0.3849 -0.9690  0.0122
  619MOL0     C83445  11.340   9.433   9.885  0.0315 -0.2478 -0.2833
  619MOL0     C83446  11.375   9.284   9.905  0.2829  0.1532 -0.0606
  619MOL0     N83447  11.515   9.259   9.869 -0.1220 -0.1741 -0.3718
  619MOL0     C83448  11.628   9.300   9.941 -0.0469  0.3819 -0.0791
  619MOL0     C83449  11.728   9.233   9.885 -0.3111 -0.8183 -1.1118
  619MOL0     C83450  11.867   9.240   9.949  0.5586  0.1548 -0.0852
  619MOL0     C83451  11.963   9.315   9.857  0.9135  0.1739  0.3277
  619MOL0     C83452  12.114   9.297   9.892  0.0041 -0.0926 -0.7921
  619MOL0     C83453  12.156   9.344  10.030 -0.5193  0.1410 -0.2379
  619MOL0     O83454  12.288   9.295  10.038  0.3887  0.0172 -1.1597
  619MOL0     C83455  12.351   9.318  10.158 -0.1614 -0.7297 -0.4954
  619MOL0     C83456  12.309   9.401  10.258 -0.4744 -0.0279 -0.3059
  619MOL0     C83457  12.394   9.430  10.369  0.6698 -0.4483  0.1256
  619MOL0     C83458  12.517   9.365  10.380  0.0727  0.7214 -0.8010
  619MOL0     C83459  12.614   9.399  10.489 -0.0342  0.3278 -0.4208
  619MOL0     O83460  12.710   9.299  10.508  0.4084  0.4797 -0.4809
  619MOL0     C83461  12.809   9.333  10.594  0.2469 -0.5686 -0.0445
  619MOL0     C83462  12.798   9.327  10.738 -0.0473 -0.2569 -0.0494
  619MOL0     C83463  12.909   9.338  10.816 -0.2798  0.8800 -0.0169
  619MOL0     C83464  13.038   9.357  10.763 -0.1570 -0.2241  0.3073
  619MOL0     O83465  13.146   9.344  10.845 -0.1873  0.0564 -0.0066
  619MOL0     C83466  13.255   9.434  10.825 -0.0435  0.8507  0.1526
  619MOL0     C83467  13.208   9.579  10.842  0.1238 -0.9640  0.1082
  619MOL0     C83468  13.321   9.683  10.865  0.5347 -0.6488  0.1190
  619MOL0     C83469  13.442   9.652  10.791 -0.4356  0.0367 -0.2649
  619MOL0     C83470  13.549   9.750  10.827 -0.7639  0.3355  0.0952
  619MOL0     C83471  13.667   9.746  10.732  0.8526 -0.4472 -0.6006
  619MOL0     C83472  13.798   9.817  10.787  0.1136  1.2875  0.4202
  619MOL0     C83473  13.930   9.800  10.698 -0.7062  1.4230 -0.3131
  619MOL0    Cl83474  14.079   9.845  10.798  0.4040  0.0375  0.2239
  619MOL0     C83475  13.046   9.364  10.617 -0.2165 -1.0281  0.1689
  619MOL0     C83476  12.928   9.350  10.539  0.6015  0.3135  0.5160
  619MOL0     O83477  12.605   9.507  10.544 -0.0512 -0.9375  0.1791
  619MOL0     C83478  12.560   9.279  10.282  0.6724 -0.1844  0.0507
  619MOL0     C83479  12.477   9.258  10.169 -0.7517 -0.4204 -0.4189
  619MOL0     N83480  11.690   9.151   9.781 -0.0571 -0.1001  0.4477
  619MOL0     N83481  11.562   9.172   9.773  0.2225  0.0778 -0.8039
  619MOL0     C83482  10.476   9.441  10.238 -0.1673 -0.6237  0.3881
  619MOL0     C83483  10.366   9.405  10.315 -0.0347  0.4954  0.1468
  619MOL0     C83484   9.909   9.349  10.415  0.1398  0.5326 -0.2748
  619MOL0     C83485   9.788   9.397  10.465 -0.8324 -0.1147  0.0014
  619MOL0     C83486   9.679   9.316  10.484  0.0408  0.2441 -0.6273
  619MOL0     C83487   9.680   9.181  10.457 -1.1590  0.5863  0.3315
  619MOL0     O83488   9.562   9.109  10.494 -0.9465 -1.0762  0.4113
  619MOL0     C83489   9.552   8.983  10.434  0.0926 -0.5029  0.2820
  619MOL0     C83490   9.591   8.875  10.538 -0.7539 -0.4687 -0.4688
  619MOL0     C83491   9.474   8.835  10.625  0.5064 -0.6524  0.9227
  619MOL0     C83492   9.527   8.774  10.752 -0.1729  0.5525 -0.7220
  619MOL0     C83493   9.420   8.705  10.816 -0.8289  0.1448  0.3903
  619MOL0     C83494   9.334   8.638  10.879  0.4765  0.0220  0.1468
  619MOL0     C83495   9.808   9.129  10.413  0.8585 -0.0856  0.1922
  619MOL0     C83496   9.917   9.216  10.391  0.0055  0.4892 -0.0367
  619MOL0     C83497  10.039   9.136  10.347 -0.3581  0.3850  0.1753
  619MOL0     H83498  10.126   9.589  10.163 -0.8881  1.5723  2.5635
  619MOL0     H83499  10.309   9.679  10.050 -4.3368  0.6313  1.9351
  619MOL0     H83500  10.719   9.525  10.159  1.6520 -0.5353 -0.7929
  619MOL0     H83501  10.680   9.433  10.008  0.7655  1.0686 -2.3372
  619MOL0     H83502  10.741   9.733   9.992  3.3511  0.6683  1.2945
  619MOL0     H83503  10.731   9.608   9.868 -3.1201  0.0927  0.9150
  619MOL0     H83504  10.939   9.518  10.042  1.5487  0.7855  0.1044
  619MOL0     H83505  10.938   9.688  10.059 -0.7305  0.7242 -1.6048
  619MOL0     H83506  10.963   9.519   9.803 -1.3181 -0.2070  1.5985
  619MOL0     H83507  10.954   9.697   9.817  1.3514  1.2065  2.1878
  619MOL0     H83508  11.201   9.629   9.788 -2.3691  3.2894 -1.0572
  619MOL0     H83509  11.180   9.672   9.952 -1.6410  2.0735 -1.8748
  619MOL0     H83510  11.166   9.448  10.022 -1.4006  0.4055 -0.0426
  619MOL0     H83511  11.123   9.386   9.861  1.8807 -2.3184 -1.0310
  619MOL0     H83512  11.400   9.505   9.941  3.1106 -3.1135  0.4600
  619MOL0     H83513  11.342   9.456   9.778 -1.2549  0.7114 -0.1244
  619MOL0     H83514  11.377   9.258  10.012 -0.8867 -0.3534 -0.1491
  619MOL0     H83515  11.312   9.213   9.852  2.1933  0.1404 -2.4778
  619MOL0     H83516  11.623   9.372  10.022  0.0136 -0.8644  1.0879
  619MOL0     H83517  11.868   9.275  10.052  1.2523 -0.8962  0.2801
  619MOL0     H83518  11.901   9.137   9.960  2.1782  0.4582 -1.5886
  619MOL0     H83519  11.948   9.277   9.756 -1.2240 -0.8740  0.9844
  619MOL0     H83520  11.955   9.424   9.870 -0.4395 -0.2177  3.7609
  619MOL0     H83521  12.172   9.364   9.828  0.5589  1.3764  1.1366
  619MOL0     H83522  12.140   9.193   9.869  2.2482  0.6109 -1.7115
  619MOL0     H83523  12.094   9.293  10.104 -2.0187 -2.5084 -3.0814
  619MOL0     H83524  12.154   9.453  10.034  0.2954  0.1419  0.2242
  619MOL0     H83525  12.206   9.435  10.258 -1.0440 -1.5571  1.4737
  619MOL0     H83526  12.364   9.511  10.435 -0.1170 -0.3624 -0.3254
  619MOL0     H83527  12.701   9.303  10.780 -0.1416 -1.0286 -0.6936
  619MOL0     H83528  12.906   9.310  10.921 -2.4261  1.9347  0.2592
  619MOL0     H83529  13.337   9.420  10.895  2.3893  0.5764 -2.5894
  619MOL0     H83530  13.290   9.424  10.722 -1.4183 -0.3028 -0.2249
  619MOL0     H83531  13.146   9.622  10.763  1.1565  3.6780  1.5655
  619MOL0     H83532  13.151   9.574  10.935 -0.4691 -2.4094 -0.2995
  619MOL0     H83533  13.292   9.784  10.836 -0.1556 -0.8187  0.2043
  619MOL0     H83534  13.350   9.683  10.971  2.7385  3.2988 -0.3038
  619MOL0     H83535  13.430   9.652  10.683 -2.6734  0.5907 -0.0671
  619MOL0     H83536  13.476   9.553  10.823  4.2745  2.5311  3.9387
  619MOL0     H83537  13.577   9.728  10.930 -3.0115  1.3299  0.9945
  619MOL0     H83538  13.511   9.853  10.826  0.3801  0.7695 -0.4502
  619MOL0     H83539  13.686   9.640  10.715 -0.9005 -0.7253 -0.9570
  619MOL0     H83540  13.632   9.795  10.640  1.9293 -0.0513 -0.8208
  619MOL0     H83541  13.813   9.784  10.890 -0.2909  1.1337  0.4329
  619MOL0     H83542  13.770   9.922  10.795 -3.0785  0.4318  2.3784
  619MOL0     H83543  13.935   9.694  10.672 -0.2067  1.5756 -0.8366
  619MOL0     H83544  13.935   9.853  10.603 -0.7626 -0.1516 -1.2137
  619MOL0     H83545  13.142   9.382  10.569  0.0817 -0.4716  0.9606
  619MOL0     H83546  12.936   9.350  10.430  3.7457  0.2295  0.6398
  619MOL0     H83547  12.662   9.245  10.268  0.3496 -1.1506 -0.0064
  619MOL0     H83548  12.503   9.188  10.090 -0.6897 -0.7478 -0.1121
  619MOL0     H83549  10.575   9.400  10.257  0.3677  0.1998 -0.4631
  619MOL0     H83550  10.389   9.325  10.384 -1.0446 -1.4097 -1.6036
  619MOL0     H83551   9.773   9.501  10.491 -3.2655 -0.8090  1.7670
  619MOL0     H83552   9.584   9.357  10.518 -1.5991 -1.1693 -3.1808
  619MOL0     H83553   9.604   8.972  10.339 -0.4483 -0.6314  0.0003
  619MOL0     H83554   9.449   8.963  10.404 -0.0589  1.2840 -0.4966
  619MOL0     H83555   9.685   8.899  10.590  0.0518 -1.1059 -1.5734
  619MOL0     H83556   9.620   8.784  10.485  1.1211  0.0895 -0.4767
  619MOL0     H83557   9.408   8.772  10.566  0.3454  1.2115 -0.9884
  619MOL0     H83558   9.417   8.922  10.657  1.0164  0.0332  0.0029
  619MOL0     H83559   9.605   8.701  10.731  2.8164  2.6822  2.0287
  619MOL0     H83560   9.561   8.845  10.828 -1.8752  2.7349 -1.8904
  619MOL0     H83561   9.255   8.580  10.922  1.0807 -1.7489 -0.9635
  619MOL0     H83562   9.816   9.024  10.385 -0.2144 -0.6206  1.7032
  619MOL0     H83563  10.011   9.037  10.310  1.4756  0.3985 -1.3865
  619MOL0     H83564  10.081   9.182  10.258 -1.8600  0.9136 -0.3001
  619MOL0     H83565  10.109   9.128  10.431  0.0674  2.9572  0.1531
  620MOL0     O83566   6.875  11.193   4.737  0.5568 -0.3611 -0.4099
  620MOL0     C83567   6.871  11.161   4.856 -0.1772 -0.0406 -0.8294
  620MOL0     O83568   6.965  11.186   4.948  0.3939 -0.0278  0.5412
  620MOL0     C83569   7.075  11.260   4.911 -0.2401 -0.2067 -0.4300
  620MOL0     C83570   7.113  11.360   4.997  0.5584 -0.4967  0.3897
  620MOL0     C83571   7.245  11.419   4.979 -0.4126  0.5228 -0.1590
  620MOL0     C83572   7.329  11.384   4.871  0.1675 -0.2653  0.3692
  620MOL0     O83573   7.453  11.441   4.848 -0.0687  0.1343  0.1569
  620MOL0     C83574   7.509  11.528   4.953  0.3981 -0.1099  0.4010
  620MOL0     C83575   7.634  11.600   4.898  0.2372  0.0723 -0.1806
  620MOL0     C83576   7.702  11.655   5.021  0.2498 -0.0500 -0.0145
  620MOL0     C83577   7.818  11.754   4.984 -0.0736  0.0753 -0.0303
  620MOL0     C83578   7.915  11.765   5.100 -1.4808 -0.3628 -0.2284
  620MOL0     C83579   7.988  11.898   5.106  0.2705  0.4761  0.2474
  620MOL0     C83580   8.062  11.920   4.974  0.2984  0.7719  0.1902
  620MOL0     C83581   8.178  11.826   4.948 -0.0029  0.6985 -0.5322
  620MOL0     N83582   8.147  11.719   4.847 -0.3850 -0.3254 -0.8070
  620MOL0     C83583   8.150  11.752   4.716  0.2222 -0.2719  0.4475
  620MOL0     C83584   8.166  11.633   4.651  0.5827 -0.5167 -0.3526
  620MOL0     C83585   8.204  11.617   4.512  0.9383 -0.8655  0.2162
  620MOL0     C83586   8.355  11.605   4.492  0.0868  0.3382 -0.0168
  620MOL0     C83587   8.422  11.481   4.564  0.7617 -0.6920 -0.0665
  620MOL0     C83588   8.538  11.434   4.480 -0.1070 -0.0912  0.4015
  620MOL0     O83589   8.653  11.515   4.509 -0.0005 -0.9821  0.0961
  620MOL0     C83590   8.776  11.487   4.458 -0.4538 -0.2181 -0.3011
  620MOL0     C83591   8.802  11.389   4.360 -0.4495  0.3701  1.6587
  620MOL0     C83592   8.942  11.367   4.330  0.2329  0.5329 -0.6978
  620MOL0     C83593   9.043  11.429   4.407  0.0696  0.5850  0.3806
  620MOL0     C83594   9.181  11.409   4.386 -0.1211 -0.0226  0.0973
  620MOL0     O83595   9.207  11.358   4.264  0.4597 -0.3668 -0.3986
  620MOL0     C83596   9.337  11.325   4.221  0.0588  0.8290  0.7207
  620MOL0     C83597   9.348  11.307   4.082 -0.8244 -0.1125  0.2703
  620MOL0     C83598   9.468  11.262   4.028 -0.0323  0.3156 -0.5112
  620MOL0     C83599   9.575  11.229   4.116 -0.0465  0.4235 -0.1721
  620MOL0     O83600   9.682  11.171   4.067 -0.3046  0.7887  0.2384
  620MOL0     C83601   9.685  11.025   4.070  0.7276  0.1765 -0.8151
  620MOL0     C83602   9.633  10.965   3.932 -0.7272 -0.9892  0.1160
  620MOL0     C83603   9.496  10.908   3.965 -0.1914 -0.3426 -0.1466
  620MOL0     C83604   9.431  10.843   3.844 -0.8058  0.3595 -0.3331
  620MOL0     C83605   9.289  10.809   3.861 -0.2277 -0.1839  0.2918
  620MOL0     C83606   9.205  10.938   3.884 -0.0367 -0.0400 -0.3892
  620MOL0     C83607   9.050  10.909   3.855 -0.5639 -0.1508  0.1678
  620MOL0     C83608   8.964  11.035   3.861 -0.3317  0.4243  0.3240
  620MOL0    Cl83609   8.962  11.105   4.030 -0.0577 -0.9185 -0.0959
  620MOL0     C83610   9.567  11.246   4.250  0.3664  0.3248  0.5107
  620MOL0     C83611   9.452  11.298   4.308  0.6649 -0.6689 -0.0270
  620MOL0     O83612   9.265  11.436   4.473 -0.1960 -0.2881 -0.1006
  620MOL0     C83613   9.010  11.519   4.507  0.5142  0.2460 -0.0336
  620MOL0     C83614   8.877  11.547   4.530 -0.2714  0.4349 -0.6053
  620MOL0     N83615   8.162  11.535   4.751 -0.0917 -0.8458  0.5129
  620MOL0     N83616   8.164  11.585   4.872  0.3834 -0.0603 -0.2338
  620MOL0     C83617   7.282  11.289   4.778 -0.4202 -0.1971  0.7097
  620MOL0     C83618   7.158  11.222   4.805 -0.8606  0.3386  0.2577
  620MOL0     C83619   6.758  11.081   4.913  0.6746 -0.0177  0.2939
  620MOL0     C83620   6.771  11.013   5.038 -0.3941 -0.5051 -0.5325
  620MOL0     C83621   6.664  10.944   5.103 -0.1631 -0.0123  0.4270
  620MOL0     C83622   6.538  10.939   5.043  0.5507  0.0873 -0.5219
  620MOL0     O83623   6.438  10.879   5.120  0.3758  0.4624 -0.4210
  620MOL0     C83624   6.380  10.772   5.050  0.1462 -0.2735 -0.0317
  620MOL0     C83625   6.281  10.693   5.146  0.0003 -0.3500 -0.0747
  620MOL0     C83626   6.247  10.553   5.081 -0.0933  0.1755  0.1028
  620MOL0     C83627   6.375  10.461   5.083  0.9016 -0.0647  0.7217
  620MOL0     C83628   6.421  10.417   5.214 -0.0066  0.2658 -0.2170
  620MOL0     C83629   6.458  10.395   5.326 -0.4039  0.1747 -0.1087
  620MOL0     C83630   6.523  10.998   4.919  0.1196 -0.1015 -0.1736
  620MOL0     C83631   6.627  11.070   4.856 -0.4088  0.7684 -0.4829
  620MOL0     C83632   6.595  11.130   4.721  0.3740 -0.1276 -0.5217
  620MOL0     H83633   7.054  11.392   5.082 -0.2186  2.6269 -1.1651
  620MOL0     H83634   7.274  11.486   5.060  2.0815 -0.3202 -0.2935
  620MOL0     H83635   7.431  11.596   4.990  0.7328  1.0700 -0.9739
  620MOL0     H83636   7.546  11.464   5.034  0.3234 -1.1888 -0.3948
  620MOL0     H83637   7.598  11.675   4.826 -1.1076 -1.2524 -0.9402
  620MOL0     H83638   7.707  11.537   4.848 -1.5002 -1.5998 -0.7103
  620MOL0     H83639   7.748  11.569   5.072  3.6832  1.3784 -0.3951
  620MOL0     H83640   7.640  11.702   5.097  2.1117  1.8128  0.4495
  620MOL0     H83641   7.863  11.717   4.891 -1.6297 -4.6335  0.8030
  620MOL0     H83642   7.785  11.855   4.960  4.0012  1.8754  1.1251
  620MOL0     H83643   7.870  11.738   5.196  1.2169  0.0095  1.2537
  620MOL0     H83644   7.987  11.683   5.087 -2.0277 -1.0721  1.0650
  620MOL0     H83645   7.911  11.975   5.121 -0.6115 -0.6510  1.8052
  620MOL0     H83646   8.061  11.899   5.188 -0.8408 -0.0405  1.2745
  620MOL0     H83647   8.107  12.019   4.988  0.4577  0.3981  2.8207
  620MOL0     H83648   7.991  11.935   4.892  0.6243  0.1829 -0.2065
  620MOL0     H83649   8.265  11.887   4.921  0.3044  0.9942  1.0535
  620MOL0     H83650   8.204  11.779   5.043  0.7638 -1.6125 -1.8037
  620MOL0     H83651   8.147  11.850   4.671 -2.9117 -0.1413  0.7135
  620MOL0     H83652   8.155  11.530   4.467 -0.3756 -0.4252  0.7478
  620MOL0     H83653   8.171  11.705   4.457 -1.9108 -1.2161  1.1953
  620MOL0     H83654   8.367  11.585   4.385 -0.7585 -1.7217  0.2306
  620MOL0     H83655   8.413  11.692   4.522 -1.1640  1.7489 -1.4704
  620MOL0     H83656   8.347  11.402   4.572 -0.3148  0.3478  0.3453
  620MOL0     H83657   8.448  11.493   4.669 -0.9423 -2.2368  0.5772
  620MOL0     H83658   8.506  11.420   4.376 -0.3232 -0.2965  0.4957
  620MOL0     H83659   8.562  11.337   4.524  1.3170 -0.0564 -0.2558
  620MOL0     H83660   8.723  11.347   4.299  0.9398 -0.0861  0.0991
  620MOL0     H83661   8.971  11.290   4.259 -0.4920 -0.6048  0.2043
  620MOL0     H83662   9.268  11.337   4.015 -0.2352  1.4601  0.2239
  620MOL0     H83663   9.502  11.262   3.925  0.1321 -0.8861 -0.4654
  620MOL0     H83664   9.793  11.014   4.082  0.6881  0.6389  0.1029
  620MOL0     H83665   9.636  10.982   4.158 -2.4678  3.4297 -0.7783
  620MOL0     H83666   9.638  11.045   3.857  1.8784  0.0475  1.2614
  620MOL0     H83667   9.701  10.885   3.901 -0.7717 -0.3908 -1.6531
  620MOL0     H83668   9.508  10.832   4.043  0.1962  0.8349  0.9735
  620MOL0     H83669   9.436  10.992   4.000 -1.3441 -0.7880 -0.9909
  620MOL0     H83670   9.490  10.753   3.828 -1.0397 -0.1195  1.3306
  620MOL0     H83671   9.450  10.908   3.757 -2.1797 -0.5470 -1.3645
  620MOL0     H83672   9.260  10.753   3.951 -0.9748 -1.5135 -0.7440
  620MOL0     H83673   9.254  10.756   3.772  2.0802  1.7052 -1.8881
  620MOL0     H83674   9.220  10.978   3.985  2.0767  0.5932 -0.9176
  620MOL0     H83675   9.226  11.022   3.816  1.0096  0.4738  0.5494
  620MOL0     H83676   9.009  10.849   3.936 -1.3275  0.2491  0.0864
  620MOL0     H83677   9.043  10.857   3.759 -2.7451 -0.4599  0.4397
  620MOL0     H83678   9.011  11.105   3.791  0.7780 -2.5877 -2.1576
  620MOL0     H83679   8.864  11.009   3.826 -1.0295  3.3212 -0.0724
  620MOL0     H83680   9.651  11.221   4.314  0.0376  0.9688  1.2169
  620MOL0     H83681   9.464  11.302   4.416  1.1248 -2.0362  0.0060
  620MOL0     H83682   9.086  11.555   4.577 -0.1940 -3.2672  2.8694
  620MOL0     H83683   8.851  11.619   4.607  1.2893  1.4081 -0.9300
  620MOL0     H83684   7.353  11.267   4.699  0.4066  2.3180  0.6652
  620MOL0     H83685   7.117  11.144   4.741 -2.3424  1.5199 -0.2980
  620MOL0     H83686   6.870  11.012   5.082  0.0676  2.4452 -1.2959
  620MOL0     H83687   6.698  10.914   5.202  0.3860  0.2386  0.3206
  620MOL0     H83688   6.464  10.710   5.017 -1.1960 -1.7583 -0.7448
  620MOL0     H83689   6.321  10.808   4.966 -0.6618  1.5178  1.2307
  620MOL0     H83690   6.196  10.756   5.172  0.2320 -0.6276  1.4970
  620MOL0     H83691   6.333  10.675   5.241 -0.7987 -1.3199  0.1997
  620MOL0     H83692   6.218  10.571   4.977  2.4879 -0.2492 -0.7685
  620MOL0     H83693   6.168  10.497   5.131  0.8664 -0.0803  1.3897
  620MOL0     H83694   6.343  10.372   5.029 -0.8384  0.3399  0.9929
  620MOL0     H83695   6.452  10.504   5.019 -1.0749  0.3349 -1.5577
  620MOL0     H83696   6.474  10.386   5.432 -0.7069 -1.2232 -0.1631
  620MOL0     H83697   6.428  11.004   4.867 -0.0706  0.3078  0.2062
  620MOL0     H83698   6.657  11.076   4.649 -0.9476 -1.1866 -0.9197
  620MOL0     H83699   6.490  11.115   4.695  0.8931 -1.2261 -2.1257
  620MOL0     H83700   6.605  11.238   4.705 -2.1730  0.5386  1.4471
  621MOL0     O83701   4.569   1.517   8.325 -0.6199 -0.2984 -0.1243
  621MOL0     C83702   4.502   1.606   8.370 -0.6827 -0.0008 -0.0169
  621MOL0     O83703   4.545   1.714   8.447  0.1151 -0.7029 -0.3010
  621MOL0     C83704   4.669   1.730   8.494 -0.8197 -0.1944 -0.1938
  621MOL0     C83705   4.683   1.782   8.629 -0.5634 -0.3279 -0.2511
  621MOL0     C83706   4.808   1.794   8.683 -0.0023 -0.1548  0.0843
  621MOL0     C83707   4.925   1.753   8.615  0.3048 -0.9733  0.1623
  621MOL0     O83708   5.047   1.765   8.680 -0.0371  0.7798  0.8361
  621MOL0     C83709   5.169   1.744   8.606  0.3535 -0.0075 -0.4078
  621MOL0     C83710   5.280   1.783   8.699 -0.1250  0.0598  0.1199
  621MOL0     C83711   5.261   1.928   8.753  0.0890 -0.0228  0.0071
  621MOL0     C83712   5.372   1.965   8.852 -0.0442  0.0261  0.6895
  621MOL0     C83713   5.326   2.029   8.982 -0.6857 -0.9467  0.3366
  621MOL0     C83714   5.426   2.043   9.092 -0.0812  0.3605 -1.1435
  621MOL0     C83715   5.536   2.138   9.066  0.0852 -0.2947  0.3307
  621MOL0     C83716   5.634   2.140   9.182 -0.7417  0.4697  0.0395
  621MOL0     N83717   5.762   2.204   9.152 -0.4051 -0.5189  0.3043
  621MOL0     C83718   5.860   2.147   9.078  0.8924 -0.1105 -0.7422
  621MOL0     C83719   5.950   2.244   9.060  0.7263  0.6803  1.0941
  621MOL0     C83720   6.076   2.231   8.987  0.3842 -0.1647 -0.8221
  621MOL0     C83721   6.191   2.229   9.090 -0.7671  0.3990 -0.5181
  621MOL0     C83722   6.322   2.185   9.022 -0.3733  0.4413  0.2365
  621MOL0     C83723   6.453   2.177   9.111  0.4659  0.4467  0.2696
  621MOL0     O83724   6.450   2.079   9.213 -0.1977 -0.0657 -0.4986
  621MOL0     C83725   6.458   1.945   9.178  0.3827 -0.0484  0.4574
  621MOL0     C83726   6.495   1.891   9.053 -0.2285 -0.4959  0.0182
  621MOL0     C83727   6.493   1.753   9.036  0.4871 -0.8383  0.0475
  621MOL0     C83728   6.501   1.662   9.142  0.2182 -0.2850 -0.0486
  621MOL0     C83729   6.542   1.523   9.119  0.1933 -0.3605  0.2498
  621MOL0     O83730   6.550   1.479   8.994 -0.3479 -0.0171  0.6185
  621MOL0     C83731   6.573   1.347   8.981 -0.9607 -0.2773  0.3143
  621MOL0     C83732   6.459   1.272   8.960 -0.3635 -0.1208  0.1722
  621MOL0     C83733   6.461   1.127   8.942 -0.4165 -0.4745  0.0343
  621MOL0     C83734   6.583   1.064   8.952 -0.2767  0.0290 -0.4346
  621MOL0     O83735   6.600   0.929   8.924  0.4898 -0.3528 -0.3961
  621MOL0     C83736   6.493   0.840   8.943  0.6659 -0.4182  0.2451
  621MOL0     C83737   6.541   0.709   8.877  0.9960 -0.1309 -0.0711
  621MOL0     C83738   6.553   0.713   8.720 -0.3304  0.1100  0.0653
  621MOL0     C83739   6.564   0.579   8.642  1.1016 -0.6355 -0.2290
  621MOL0     C83740   6.423   0.529   8.628 -0.0053 -0.6512 -0.3299
  621MOL0     C83741   6.416   0.378   8.599 -0.1439  0.1727  0.3335
  621MOL0     C83742   6.491   0.346   8.470 -0.2045  0.0305 -0.0188
  621MOL0     C83743   6.457   0.205   8.423 -0.2953  0.2270 -0.0747
  621MOL0    Cl83744   6.527   0.086   8.539 -0.2104  0.5644 -0.0860
  621MOL0     C83745   6.702   1.140   8.981  0.1008 -0.2528 -1.2305
  621MOL0     C83746   6.702   1.285   8.993 -0.6161  1.3421  0.5211
  621MOL0     O83747   6.578   1.465   9.221 -0.2608  0.1996  0.1093
  621MOL0     C83748   6.465   1.710   9.262 -0.3087  0.1443 -0.3918
  621MOL0     C83749   6.448   1.848   9.281  0.2902  0.2065 -0.0891
  621MOL0     N83750   5.902   2.360   9.121 -0.5981  0.4689 -0.1170
  621MOL0     N83751   5.784   2.337   9.167 -0.5273  0.0008 -0.1311
  621MOL0     C83752   4.909   1.701   8.485 -1.1968  0.2250 -0.5986
  621MOL0     C83753   4.782   1.688   8.423 -0.3206 -0.0382 -0.8531
  621MOL0     C83754   4.357   1.613   8.336 -0.3848 -0.5909  0.0877
  621MOL0     C83755   4.299   1.741   8.326  1.0355 -0.1792  0.9764
  621MOL0     C83756   4.183   1.762   8.250  0.3311  0.3369 -0.1225
  621MOL0     C83757   4.101   1.654   8.205  0.8493  0.0023  0.5590
  621MOL0     O83758   3.971   1.682   8.165  0.2967  0.0077  0.2298
  621MOL0     C83759   3.877   1.581   8.136 -0.3047  0.1874  0.1563
  621MOL0     C83760   3.752   1.653   8.069  0.0099 -0.4088 -0.2039
  621MOL0     C83761   3.655   1.548   8.017 -0.1235  0.7067 -0.2296
  621MOL0     C83762   3.542   1.624   7.947 -0.7981 -0.5498  0.4740
  621MOL0     C83763   3.443   1.538   7.887  1.1102  0.3462  1.2082
  621MOL0     C83764   3.367   1.457   7.841  0.2473  0.8343  0.0047
  621MOL0     C83765   4.151   1.525   8.232  0.0849 -0.5661  0.7536
  621MOL0     C83766   4.279   1.499   8.288  0.3907 -0.0626 -0.6179
  621MOL0     C83767   4.322   1.354   8.324 -0.1990 -0.2064 -0.0295
  621MOL0     H83768   4.601   1.811   8.693 -0.8631  1.5519 -1.4084
  621MOL0     H83769   4.834   1.828   8.783 -1.2021  1.7124 -0.2023
  621MOL0     H83770   5.184   1.638   8.582  1.0049  0.1552 -0.7548
  621MOL0     H83771   5.173   1.799   8.512  0.9858 -0.8741 -0.8955
  621MOL0     H83772   5.369   1.772   8.636 -1.6184  1.5748 -2.4478
  621MOL0     H83773   5.286   1.715   8.784  0.9525  0.7231  0.5931
  621MOL0     H83774   5.163   1.950   8.795  0.5249  0.0583  1.0174
  621MOL0     H83775   5.261   2.000   8.670 -0.4829 -0.9069 -0.7905
  621MOL0     H83776   5.426   1.871   8.871 -0.0982 -0.4969 -1.4395
  621MOL0     H83777   5.439   2.033   8.799 -0.7168 -0.7085 -1.1745
  621MOL0     H83778   5.297   2.131   8.955  1.5281  0.2751  2.1603
  621MOL0     H83779   5.238   1.968   9.007 -2.4081 -0.1643 -3.1488
  621MOL0     H83780   5.367   2.086   9.172  1.3011 -1.1294  0.7733
  621MOL0     H83781   5.471   1.947   9.121 -1.8335 -0.1972 -0.1648
  621MOL0     H83782   5.498   2.240   9.053  0.4732  0.0204  1.5741
  621MOL0     H83783   5.587   2.113   8.972  1.5724 -1.2190  1.3389
  621MOL0     H83784   5.590   2.184   9.273  0.8634 -1.8705  2.0707
  621MOL0     H83785   5.669   2.039   9.203  1.3147  1.1980  0.3213
  621MOL0     H83786   5.861   2.046   9.038 -1.0242 -0.1626 -0.7511
  621MOL0     H83787   6.091   2.135   8.936  4.5202  1.3013 -2.8577
  621MOL0     H83788   6.085   2.310   8.912 -2.1355  0.4181 -0.6183
  621MOL0     H83789   6.195   2.329   9.135 -0.9629 -0.6645  2.0724
  621MOL0     H83790   6.172   2.160   9.173 -1.1946  0.9564 -0.1470
  621MOL0     H83791   6.336   2.243   8.931  1.0353 -0.8417 -0.4129
  621MOL0     H83792   6.307   2.084   8.982  1.2590 -0.8082  2.5387
  621MOL0     H83793   6.461   2.272   9.165 -2.2229  1.6286 -1.2350
  621MOL0     H83794   6.546   2.169   9.052 -0.1708 -0.7759 -0.6107
  621MOL0     H83795   6.531   1.947   8.968  0.1834  0.2525  0.6778
  621MOL0     H83796   6.510   1.715   8.936 -0.9584 -2.4880  0.3856
  621MOL0     H83797   6.368   1.330   8.949  1.3315  2.4866 -1.3940
  621MOL0     H83798   6.371   1.070   8.926 -1.3801  0.4924  1.6726
  621MOL0     H83799   6.461   0.819   9.045 -1.7529 -2.1336 -0.7781
  621MOL0     H83800   6.396   0.873   8.905  1.3002  1.4389  0.1659
  621MOL0     H83801   6.641   0.694   8.920  0.2195  0.8629  2.2400
  621MOL0     H83802   6.475   0.628   8.911 -0.9913  1.2361 -0.4762
  621MOL0     H83803   6.476   0.778   8.679 -3.1807 -3.5798 -0.9209
  621MOL0     H83804   6.644   0.770   8.697 -0.6993  0.4287 -0.6348
  621MOL0     H83805   6.631   0.506   8.687  3.3164  0.7124 -1.1333
  621MOL0     H83806   6.605   0.600   8.543  1.5735  0.1096  0.1113
  621MOL0     H83807   6.372   0.577   8.544 -1.0824 -1.2790 -0.0480
  621MOL0     H83808   6.375   0.552   8.723  1.9926  2.6749  0.0233
  621MOL0     H83809   6.452   0.327   8.689  1.7614  2.0657  0.7043
  621MOL0     H83810   6.312   0.347   8.583  0.8765 -2.9991 -1.0566
  621MOL0     H83811   6.598   0.355   8.491 -0.2046 -0.4306  0.1853
  621MOL0     H83812   6.465   0.416   8.389  0.2031  3.0774  2.2988
  621MOL0     H83813   6.348   0.199   8.415 -0.2793 -0.0068 -0.1307
  621MOL0     H83814   6.494   0.191   8.321  0.2891  0.1802  0.1402
  621MOL0     H83815   6.801   1.096   8.989  0.4032  0.4778 -0.9622
  621MOL0     H83816   6.785   1.353   9.012 -0.2035  0.9883  0.0259
  621MOL0     H83817   6.441   1.645   9.345 -1.9822  1.0176 -0.1405
  621MOL0     H83818   6.427   1.893   9.378 -1.2015  2.7345 -1.4817
  621MOL0     H83819   4.992   1.660   8.429 -0.2841  1.7814 -0.4436
  621MOL0     H83820   4.768   1.638   8.328 -3.3542 -0.2195 -0.3929
  621MOL0     H83821   4.341   1.835   8.359  0.6081  1.0901 -1.8189
  621MOL0     H83822   4.140   1.861   8.244 -0.3103  0.1295  0.7719
  621MOL0     H83823   3.849   1.533   8.230  0.3347  0.1420  0.3238
  621MOL0     H83824   3.916   1.510   8.063 -0.6194 -1.3620  1.4300
  621MOL0     H83825   3.779   1.717   7.984 -0.1649  0.8006  0.6344
  621MOL0     H83826   3.697   1.715   8.140 -0.0113  0.6676 -1.1337
  621MOL0     H83827   3.608   1.501   8.103 -0.5776  0.6378 -0.5144
  621MOL0     H83828   3.693   1.475   7.945 -1.4224  0.5186 -0.7584
  621MOL0     H83829   3.508   1.705   8.012  0.6227 -0.0955  0.6796
  621MOL0     H83830   3.593   1.664   7.858 -0.5840 -2.0492 -0.1020
  621MOL0     H83831   3.290   1.394   7.803  1.6336  0.0121 -1.5569
  621MOL0     H83832   4.086   1.443   8.206 -3.9377  1.6239  2.8070
  621MOL0     H83833   4.400   1.342   8.400  0.0130  0.2177 -0.1733
  621MOL0     H83834   4.232   1.300   8.353 -0.4100 -0.3618 -0.9540
  621MOL0     H83835   4.357   1.310   8.230  1.3397  1.0102 -0.0844
  622MOL0     O83836   5.004   9.369   5.520  0.0140 -0.2961 -0.0379
  622MOL0     C83837   4.923   9.420   5.600 -0.2319 -0.5015 -0.8045
  622MOL0     O83838   4.944   9.527   5.674 -0.3491 -0.6949  0.2368
  622MOL0     C83839   5.067   9.592   5.683  0.0039 -0.0809  0.3237
  622MOL0     C83840   5.180   9.509   5.709  0.3099  0.2613 -0.4099
  622MOL0     C83841   5.306   9.569   5.720 -0.4559  0.2795 -0.5594
  622MOL0     C83842   5.318   9.704   5.706 -0.1043  0.4575  0.6803
  622MOL0     O83843   5.435   9.776   5.715 -0.2939 -0.3463  0.3275
  622MOL0     C83844   5.552   9.725   5.779  0.0086  0.7820 -0.1879
  622MOL0     C83845   5.669   9.819   5.797 -0.3153  0.4547 -0.0405
  622MOL0     C83846   5.777   9.773   5.901 -0.2071 -0.4680  0.4196
  622MOL0     C83847   5.903   9.861   5.912 -0.5207 -0.1943 -0.0613
  622MOL0     C83848   5.882  10.010   5.975  0.0941  0.3524  0.6389
  622MOL0     C83849   5.987  10.113   5.952 -0.0002  0.0289  0.1158
  622MOL0     C83850   6.018  10.136   5.808  0.0362  0.4232  0.0308
  622MOL0     C83851   6.095  10.266   5.776 -1.1227  1.1410 -0.4182
  622MOL0     N83852   6.240  10.254   5.804 -0.0985  0.5203  0.0012
  622MOL0     C83853   6.306  10.284   5.921 -0.3570  0.6110 -0.5081
  622MOL0     C83854   6.436  10.255   5.895  0.0636  0.3606  0.2848
  622MOL0     C83855   6.546  10.256   5.993  0.1473 -0.0495  0.6561
  622MOL0     C83856   6.517  10.231   6.132 -0.6788 -0.4037  0.1062
  622MOL0     C83857   6.427  10.104   6.160 -0.5811  0.1541 -0.7500
  622MOL0     C83858   6.514   9.989   6.105  0.0922  0.0509  0.7705
  622MOL0     O83859   6.473   9.857   6.134 -0.4141  0.4458  0.1140
  622MOL0     C83860   6.391   9.794   6.044  0.1530 -0.3416 -0.0042
  622MOL0     C83861   6.372   9.658   6.054  0.1434  0.0627 -0.2350
  622MOL0     C83862   6.303   9.589   5.959 -0.4595 -0.4856 -0.1550
  622MOL0     C83863   6.245   9.651   5.848 -0.4168 -0.0637 -0.5905
  622MOL0     C83864   6.169   9.578   5.747  0.5473  0.4491 -0.3289
  622MOL0     O83865   6.109   9.647   5.643  0.6129  1.2326  0.3495
  622MOL0     C83866   6.019   9.569   5.571  0.7020  0.0547  0.1959
  622MOL0     C83867   5.879   9.588   5.587 -0.1843 -0.6420 -0.0347
  622MOL0     C83868   5.786   9.501   5.528 -0.0606 -0.1368 -0.2057
  622MOL0     C83869   5.828   9.397   5.446 -0.2598  0.2275 -0.8130
  622MOL0     O83870   5.724   9.320   5.400 -0.3234  0.4597  1.0744
  622MOL0     C83871   5.757   9.219   5.296 -0.1345 -0.2102  0.3419
  622MOL0     C83872   5.697   9.255   5.162  0.3894 -0.0440  0.3479
  622MOL0     C83873   5.537   9.253   5.153 -0.4483  0.5624 -0.6288
  622MOL0     C83874   5.500   9.327   5.028  0.0751 -0.2409 -0.3212
  622MOL0     C83875   5.344   9.343   5.024 -0.1603  0.4954  1.1448
  622MOL0     C83876   5.260   9.208   5.024 -0.2052  0.5389 -0.6192
  622MOL0     C83877   5.116   9.220   4.989 -0.6408 -0.8770 -0.0886
  622MOL0     C83878   5.081   9.099   4.895 -0.4381 -0.8870 -0.2501
  622MOL0    Cl83879   4.901   9.100   4.850 -0.0694 -0.4187 -0.1060
  622MOL0     C83880   5.972   9.383   5.432 -0.0941 -0.5185  0.4937
  622MOL0     C83881   6.065   9.466   5.484  0.3249  0.0919  0.5128
  622MOL0     O83882   6.150   9.455   5.762 -0.4928 -0.1697 -0.3731
  622MOL0     C83883   6.245   9.786   5.839 -0.8732 -0.2364  0.2005
  622MOL0     C83884   6.332   9.857   5.929 -0.1462  0.2772  0.1071
  622MOL0     N83885   6.440  10.211   5.766  0.4988  0.2013  0.7854
  622MOL0     N83886   6.321  10.224   5.712 -0.2100 -0.3363  0.5145
  622MOL0     C83887   5.212   9.782   5.683 -0.5087 -0.2499  0.2517
  622MOL0     C83888   5.088   9.726   5.667 -0.5940  0.4073  0.4268
  622MOL0     C83889   4.795   9.352   5.625 -0.1371  0.6625  0.2288
  622MOL0     C83890   4.735   9.366   5.753 -0.9591  0.1960 -0.0549
  622MOL0     C83891   4.622   9.297   5.785 -0.0120  0.3638 -0.2109
  622MOL0     C83892   4.560   9.206   5.702  0.3564 -0.2413 -0.2226
  622MOL0     O83893   4.436   9.159   5.736 -0.5710  0.2020 -0.6339
  622MOL0     C83894   4.383   9.059   5.644 -0.0393 -0.2068  0.4620
  622MOL0     C83895   4.280   8.977   5.726  0.5298 -0.5004  0.8003
  622MOL0     C83896   4.135   9.025   5.703 -0.4472 -0.8195  0.3265
  622MOL0     C83897   4.039   8.941   5.797 -0.1084 -0.6547  1.1267
  622MOL0     C83898   3.896   8.966   5.765  0.1167 -0.0225 -0.3295
  622MOL0     C83899   3.782   8.995   5.736  1.2566  0.7602 -0.4205
  622MOL0     C83900   4.616   9.198   5.573 -0.2148  0.4586  0.1551
  622MOL0     C83901   4.728   9.271   5.531  0.5049 -0.0929 -0.1902
  622MOL0     C83902   4.765   9.257   5.388 -0.0020 -0.9857 -0.0474
  622MOL0     H83903   5.168   9.402   5.719  0.0853  0.3666  0.5732
  622MOL0     H83904   5.391   9.503   5.730 -0.9219  0.0295  4.1978
  622MOL0     H83905   5.514   9.683   5.873 -3.2879  0.5097 -1.5243
  622MOL0     H83906   5.582   9.636   5.722 -1.3235  1.1336 -1.5025
  622MOL0     H83907   5.633   9.915   5.836 -0.9313  0.7548 -1.2985
  622MOL0     H83908   5.708   9.827   5.695 -1.1877 -0.4943 -0.4642
  622MOL0     H83909   5.812   9.671   5.882 -0.3782 -0.2636 -1.1265
  622MOL0     H83910   5.724   9.769   5.996 -0.9252  0.2806  0.0701
  622MOL0     H83911   5.978   9.815   5.977 -1.6529 -0.7015  0.9104
  622MOL0     H83912   5.953   9.865   5.814  1.4167 -1.6633  0.7902
  622MOL0     H83913   5.793  10.059   5.934 -0.5434  0.5469  2.1954
  622MOL0     H83914   5.863  10.000   6.082  0.0868 -0.3840  0.5755
  622MOL0     H83915   5.972  10.203   6.012  2.9063  1.3272 -0.9470
  622MOL0     H83916   6.072  10.063   5.999  0.3987 -1.2329 -1.8349
  622MOL0     H83917   5.923  10.137   5.755  0.3731  0.7432 -0.5815
  622MOL0     H83918   6.078  10.054   5.766 -1.4291 -0.4967 -0.3644
  622MOL0     H83919   6.084  10.301   5.673 -1.8652 -0.4182 -0.9054
  622MOL0     H83920   6.066  10.347   5.843  1.1828  2.5492 -1.0126
  622MOL0     H83921   6.271  10.316   6.019  2.8576 -2.8841  2.0907
  622MOL0     H83922   6.622  10.186   5.960 -0.6967  0.0586 -1.6832
  622MOL0     H83923   6.585  10.358   5.985 -1.0301  0.5396  1.8631
  622MOL0     H83924   6.611  10.221   6.188 -1.1380  1.6764  1.3295
  622MOL0     H83925   6.468  10.318   6.176  2.1935  1.4412 -0.1153
  622MOL0     H83926   6.325  10.107   6.121 -0.8523  0.1594 -0.0521
  622MOL0     H83927   6.424  10.095   6.269  2.4178 -0.4912 -0.6394
  622MOL0     H83928   6.619   9.996   6.136  0.3722 -0.5601  0.0143
  622MOL0     H83929   6.509   9.998   5.996  0.6611 -3.9072  0.2698
  622MOL0     H83930   6.408   9.600   6.138 -1.3648  0.7704  0.9402
  622MOL0     H83931   6.293   9.481   5.970  1.2619 -0.5998  0.6055
  622MOL0     H83932   5.835   9.657   5.658 -1.3412  2.1362 -3.1584
  622MOL0     H83933   5.679   9.511   5.541 -0.5988 -3.5676 -0.9898
  622MOL0     H83934   5.862   9.217   5.264  0.5069 -0.6982  2.3441
  622MOL0     H83935   5.722   9.119   5.321 -0.8456  0.0294  0.3172
  622MOL0     H83936   5.728   9.354   5.130 -3.2513  0.3683 -2.5928
  622MOL0     H83937   5.726   9.188   5.081  0.4837 -1.9049  1.8412
  622MOL0     H83938   5.501   9.149   5.150  0.6373  0.1945 -2.3598
  622MOL0     H83939   5.496   9.301   5.243  0.4108 -1.6703  1.0782
  622MOL0     H83940   5.541   9.271   4.943 -0.2032 -0.7947 -0.0973
  622MOL0     H83941   5.556   9.420   5.021  4.3248 -2.2573  2.5382
  622MOL0     H83942   5.310   9.395   4.934  0.5233  0.6372  0.9625
  622MOL0     H83943   5.305   9.393   5.113 -1.7755  3.0958 -0.8713
  622MOL0     H83944   5.303   9.130   4.961 -3.9577 -0.8592 -1.7695
  622MOL0     H83945   5.265   9.166   5.124 -0.9240 -2.4885 -1.7409
  622MOL0     H83946   5.095   9.312   4.933 -1.2155 -1.6704 -1.2397
  622MOL0     H83947   5.056   9.218   5.080  0.1346 -1.7248  0.4153
  622MOL0     H83948   5.135   9.099   4.799  0.4940  1.7958  0.1883
  622MOL0     H83949   5.082   9.011   4.961 -1.8693  1.5262  3.2655
  622MOL0     H83950   6.006   9.303   5.367  1.1431 -0.0826  0.5750
  622MOL0     H83951   6.171   9.460   5.461 -0.0485 -1.2998 -0.9694
  622MOL0     H83952   6.198   9.840   5.758 -0.8879  1.8505  1.5291
  622MOL0     H83953   6.330   9.964   5.911 -0.6472  0.1648 -0.5624
  622MOL0     H83954   5.229   9.890   5.677 -0.6075 -0.2332  0.2757
  622MOL0     H83955   5.006   9.786   5.630  1.6447  3.9199  0.6769
  622MOL0     H83956   4.773   9.435   5.827 -2.5737  0.0621  0.9402
  622MOL0     H83957   4.565   9.317   5.876  0.6844  1.5001 -0.0088
  622MOL0     H83958   4.460   8.992   5.604  1.2997  1.1265  0.7231
  622MOL0     H83959   4.342   9.117   5.561 -1.0482  0.4204  1.3723
  622MOL0     H83960   4.305   9.001   5.830  2.5346  0.6231  0.0991
  622MOL0     H83961   4.286   8.869   5.711  0.5277 -0.3496 -0.4091
  622MOL0     H83962   4.109   9.018   5.597  0.3400 -2.3674  0.2132
  622MOL0     H83963   4.132   9.128   5.740  1.6563 -1.2033  1.7598
  622MOL0     H83964   4.046   8.834   5.776 -0.0660 -0.1861 -1.6061
  622MOL0     H83965   4.052   8.971   5.902  0.3774 -1.6690  1.3707
  622MOL0     H83966   3.684   9.005   5.694 -0.0900  2.4276  2.7919
  622MOL0     H83967   4.557   9.144   5.500  1.0339 -0.6188 -0.0868
  622MOL0     H83968   4.869   9.226   5.372  0.0154  0.0207 -2.2635
  622MOL0     H83969   4.700   9.192   5.329 -2.2907 -0.4673  1.7617
  622MOL0     H83970   4.765   9.362   5.357 -1.1773 -0.1125  2.5729
  623MOL0     O83971   9.795   5.379   9.016  0.7346 -0.0006 -0.4468
  623MOL0     C83972   9.883   5.419   8.940 -0.1326 -0.3813 -0.0351
  623MOL0     O83973  10.021   5.432   8.967  0.2870  0.4420  0.0078
  623MOL0     C83974  10.079   5.351   9.066 -0.2669 -0.0314  0.5592
  623MOL0     C83975  10.026   5.243   9.136 -0.5182 -0.1237  0.0801
  623MOL0     C83976  10.099   5.175   9.227  0.5700 -0.9374 -0.4618
  623MOL0     C83977  10.231   5.212   9.244  0.6201  0.8822 -0.1293
  623MOL0     O83978  10.313   5.157   9.335  0.0786  0.2661  0.6204
  623MOL0     C83979  10.246   5.106   9.446 -0.0482  0.4833 -0.3863
  623MOL0     C83980  10.347   5.094   9.557  0.4682 -0.6840 -0.6818
  623MOL0     C83981  10.317   4.988   9.661 -0.0448 -0.4099 -0.5304
  623MOL0     C83982  10.414   4.987   9.770 -0.4972 -0.1960 -0.1454
  623MOL0     C83983  10.372   4.877   9.863 -0.2715 -0.3728 -0.0489
  623MOL0     C83984  10.488   4.818   9.944 -0.5353  0.3452 -1.2714
  623MOL0     C83985  10.432   4.721  10.049  0.3897  0.5163 -1.6903
  623MOL0     C83986  10.538   4.621  10.100  0.2722 -0.1948 -0.1007
  623MOL0     N83987  10.648   4.681  10.174  0.2307 -0.3745  0.6667
  623MOL0     C83988  10.634   4.745  10.293  0.4723 -0.0684 -0.5006
  623MOL0     C83989  10.758   4.770  10.336  0.5553  0.7602  0.7103
  623MOL0     C83990  10.807   4.826  10.469 -0.1877  0.5300  0.7725
  623MOL0     C83991  10.891   4.717  10.542 -0.2765 -0.6522  0.7437
  623MOL0     C83992  10.929   4.738  10.688  0.1212  0.1787  0.1132
  623MOL0     C83993  10.958   4.892  10.719  0.1759  0.2829 -0.6661
  623MOL0     O83994  11.008   4.925  10.849  0.0986  0.0251 -0.3851
  623MOL0     C83995  11.131   4.880  10.892  1.0780  0.3155 -0.2866
  623MOL0     C83996  11.217   4.827  10.800 -0.1561  0.2268 -0.2721
  623MOL0     C83997  11.345   4.786  10.843 -0.6477 -0.8600  0.9609
  623MOL0     C83998  11.373   4.766  10.985 -0.9013  0.3272  0.1481
  623MOL0     C83999  11.491   4.706  11.043 -0.0294 -0.6210 -1.1883
  623MOL0     O84000  11.498   4.689  11.184  0.0025 -0.1622  0.5361
  623MOL0     C84001  11.618   4.653  11.231 -0.1306 -0.7805  0.5861
  623MOL0     C84002  11.659   4.521  11.229 -0.4553 -0.0768  0.2835
  623MOL0     C84003  11.780   4.475  11.273  1.0103  0.5876  0.5043
  623MOL0     C84004  11.871   4.567  11.331  0.2275 -0.3035  0.1661
  623MOL0     O84005  11.989   4.519  11.374 -0.1087 -0.2616 -0.0386
  623MOL0     C84006  12.101   4.555  11.295  0.6061  0.9596  0.1911
  623MOL0     C84007  12.221   4.573  11.391 -0.2453  0.3427 -1.3531
  623MOL0     C84008  12.355   4.613  11.320  0.1038 -0.1570 -0.3898
  623MOL0     C84009  12.401   4.507  11.223  0.7464  0.9417 -0.4766
  623MOL0     C84010  12.550   4.525  11.190 -0.2739 -0.0886  0.2344
  623MOL0     C84011  12.616   4.408  11.123 -0.0162 -0.9163  0.1554
  623MOL0     C84012  12.558   4.360  10.990  0.2451 -0.1589 -0.5324
  623MOL0     C84013  12.639   4.233  10.945 -0.5454  1.0144  0.2437
  623MOL0    Cl84014  12.584   4.091  11.040 -0.1088 -0.0619  0.3831
  623MOL0     C84015  11.834   4.707  11.339  0.8414  0.0688 -0.5316
  623MOL0     C84016  11.708   4.745  11.287 -0.7085 -0.1449  0.0125
  623MOL0     O84017  11.591   4.691  10.972  0.0166  0.5381 -0.0493
  623MOL0     C84018  11.278   4.820  11.074 -0.1038 -0.3010 -0.4145
  623MOL0     C84019  11.155   4.872  11.026 -0.4359 -0.3514  0.5465
  623MOL0     N84020  10.848   4.718  10.242  0.2720  0.1853 -0.8078
  623MOL0     N84021  10.783   4.654  10.151 -0.2375  0.2843 -0.0967
  623MOL0     C84022  10.292   5.316   9.172 -0.3521  0.0459 -0.3440
  623MOL0     C84023  10.213   5.387   9.083  0.8581 -0.3222 -0.3153
  623MOL0     C84024   9.840   5.488   8.816 -0.2207  0.6425  0.5504
  623MOL0     C84025   9.913   5.604   8.766  0.2397  0.7988 -0.8050
  623MOL0     C84026   9.872   5.673   8.654  0.7845  0.0519  0.3807
  623MOL0     C84027   9.758   5.639   8.587 -0.0459 -0.0949 -0.1410
  623MOL0     O84028   9.705   5.698   8.476  0.6499 -0.4525  0.1557
  623MOL0     C84029   9.778   5.818   8.427  0.2096  0.5124 -0.1275
  623MOL0     C84030   9.704   5.886   8.316  0.2606  0.3670  0.3241
  623MOL0     C84031   9.683   5.802   8.195  0.0001  0.6511  0.3812
  623MOL0     C84032   9.565   5.703   8.194 -0.6675 -0.0651  0.2176
  623MOL0     C84033   9.575   5.631   8.071  0.0276  0.1905 -0.2718
  623MOL0     C84034   9.586   5.573   7.969 -1.3547  0.4511  0.3096
  623MOL0     C84035   9.685   5.525   8.624  0.7008 -0.1809  0.3237
  623MOL0     C84036   9.723   5.453   8.743  0.6575  0.6001 -1.0887
  623MOL0     C84037   9.625   5.337   8.780 -0.4434 -0.1309  0.6510
  623MOL0     H84038   9.931   5.199   9.106  0.1263 -0.1353 -2.1352
  623MOL0     H84039  10.046   5.096   9.279  1.5010 -1.2940 -0.0158
  623MOL0     H84040  10.163   5.172   9.471  0.7728  1.5390 -0.3518
  623MOL0     H84041  10.203   5.010   9.415  2.2545 -0.3933 -1.1247
  623MOL0     H84042  10.360   5.190   9.609  1.7209  2.2551 -5.7629
  623MOL0     H84043  10.452   5.083   9.526  1.6139  2.4080  1.5713
  623MOL0     H84044  10.317   4.890   9.612  0.8549 -0.7440  0.1236
  623MOL0     H84045  10.221   5.013   9.708  0.8250  3.4894 -0.5086
  623MOL0     H84046  10.516   4.965   9.738 -0.1271  0.0781  0.7979
  623MOL0     H84047  10.406   5.081   9.826  1.7673 -0.6396  1.0221
  623MOL0     H84048  10.298   4.919   9.932 -0.5664 -0.2289 -0.4470
  623MOL0     H84049  10.320   4.799   9.806 -1.5792 -0.4596  1.2010
  623MOL0     H84050  10.551   4.759   9.876 -1.4727  0.3572 -2.1817
  623MOL0     H84051  10.554   4.890   9.995 -1.5194 -0.0588  0.6579
  623MOL0     H84052  10.347   4.666  10.006 -1.9743  2.2247  0.5083
  623MOL0     H84053  10.392   4.780  10.131  2.2224 -1.0070  0.4289
  623MOL0     H84054  10.488   4.546  10.162 -0.6359  0.0227 -0.5529
  623MOL0     H84055  10.577   4.563  10.015  1.2920 -1.3134  1.0811
  623MOL0     H84056  10.546   4.775  10.349  0.0813 -0.3164 -0.9692
  623MOL0     H84057  10.862   4.918  10.444  2.1500 -1.2068 -0.9697
  623MOL0     H84058  10.727   4.854  10.539  1.4400  0.0266  2.9699
  623MOL0     H84059  10.837   4.621  10.538 -0.2947 -0.5943 -1.1289
  623MOL0     H84060  10.979   4.697  10.481 -0.1702 -0.6352  0.8919
  623MOL0     H84061  11.013   4.676  10.720 -1.3302 -1.7584  0.3832
  623MOL0     H84062  10.843   4.717  10.753  0.7251  1.0588  1.2378
  623MOL0     H84063  10.864   4.949  10.717  0.9677  1.6514 -0.2773
  623MOL0     H84064  11.027   4.926  10.642  0.9444  1.0189  0.3177
  623MOL0     H84065  11.207   4.827  10.692  2.6287 -0.8355 -0.6057
  623MOL0     H84066  11.421   4.747  10.776 -1.3798 -1.3501  0.4038
  623MOL0     H84067  11.586   4.457  11.181 -0.4738  2.2947 -3.2573
  623MOL0     H84068  11.810   4.371  11.283 -1.0491 -0.0027  1.0504
  623MOL0     H84069  12.132   4.478  11.223  1.3599  0.4591  1.0280
  623MOL0     H84070  12.080   4.645  11.237  1.6157  0.3311 -1.1930
  623MOL0     H84071  12.191   4.650  11.463 -2.4183  0.0919 -1.9148
  623MOL0     H84072  12.232   4.483  11.451 -3.8299  0.5642 -0.0790
  623MOL0     H84073  12.338   4.706  11.265 -1.1512 -1.5896 -2.5777
  623MOL0     H84074  12.437   4.623  11.393 -0.2258 -2.7805  0.4580
  623MOL0     H84075  12.332   4.504  11.138  1.2870 -2.0041 -0.9019
  623MOL0     H84076  12.387   4.413  11.278  0.4114  1.1276 -0.2387
  623MOL0     H84077  12.611   4.554  11.276  0.0518 -2.3519  0.8308
  623MOL0     H84078  12.562   4.603  11.115  2.4303 -1.5592 -1.0307
  623MOL0     H84079  12.718   4.443  11.101 -1.4005  2.4860 -1.5707
  623MOL0     H84080  12.622   4.324  11.193 -1.2525 -1.4680 -0.3796
  623MOL0     H84081  12.574   4.441  10.918 -2.4886  1.2290  0.3051
  623MOL0     H84082  12.453   4.334  11.002  0.4197 -1.0273 -0.8090
  623MOL0     H84083  12.621   4.206  10.841 -1.4334  0.8140  0.4391
  623MOL0     H84084  12.747   4.246  10.960 -0.6050 -0.6731  2.7365
  623MOL0     H84085  11.903   4.778  11.382  1.7437 -0.8420 -0.4241
  623MOL0     H84086  11.686   4.850  11.269 -0.3846 -0.2290 -0.9402
  623MOL0     H84087  11.298   4.824  11.180  0.2556  1.0019 -0.5045
  623MOL0     H84088  11.083   4.917  11.093 -2.7185 -0.5612 -1.6007
  623MOL0     H84089  10.399   5.332   9.170 -0.6807  2.8922 -2.6389
  623MOL0     H84090  10.260   5.459   9.017 -1.5686 -1.3575 -3.3834
  623MOL0     H84091  10.000   5.638   8.820  0.0396  0.3493 -0.1848
  623MOL0     H84092   9.933   5.756   8.621 -0.9385  1.8028  1.4014
  623MOL0     H84093   9.879   5.785   8.400 -0.4032  0.1740 -2.2001
  623MOL0     H84094   9.784   5.899   8.500 -0.6716  0.9965 -0.5854
  623MOL0     H84095   9.765   5.968   8.277 -0.4234  1.5113  1.5875
  623MOL0     H84096   9.606   5.923   8.348 -0.1034 -0.7511  0.5597
  623MOL0     H84097   9.777   5.749   8.175 -0.2926  0.7161 -1.2481
  623MOL0     H84098   9.677   5.869   8.109  1.6553  0.1334 -0.1797
  623MOL0     H84099   9.589   5.628   8.270  0.9967  0.6673  0.4645
  623MOL0     H84100   9.465   5.746   8.206 -0.4873  0.3646  0.1775
  623MOL0     H84101   9.599   5.528   7.873  0.0976  2.5631 -0.5509
  623MOL0     H84102   9.603   5.492   8.561 -0.2324  0.4430  1.1787
  623MOL0     H84103   9.552   5.325   8.700 -1.1355  1.1369  1.0633
  623MOL0     H84104   9.673   5.239   8.789  2.3957  1.2188  1.3114
  623MOL0     H84105   9.575   5.356   8.876  1.2948 -1.2615  1.8556
  624MOL0     O84106   0.264   2.216   1.711 -0.1043  1.1413  0.6734
  624MOL0     C84107   0.181   2.216   1.619  0.5248  0.0302  0.0879
  624MOL0     O84108   0.207   2.236   1.490 -0.0515  0.2967 -0.1368
  624MOL0     C84109   0.333   2.286   1.447 -0.1781  0.2542 -0.0138
  624MOL0     C84110   0.364   2.425   1.419 -0.2769  0.2624 -0.6877
  624MOL0     C84111   0.492   2.464   1.368  0.3906  0.0558  0.0609
  624MOL0     C84112   0.583   2.364   1.333 -0.8089  0.7573  1.1698
  624MOL0     O84113   0.712   2.378   1.283  0.0534 -0.2233 -0.3755
  624MOL0     C84114   0.784   2.502   1.299  0.9218 -1.0017  0.4175
  624MOL0     C84115   0.808   2.574   1.163  0.5703  0.1919  0.4579
  624MOL0     C84116   0.862   2.717   1.184  0.0182  0.0939 -0.2446
  624MOL0     C84117   1.010   2.723   1.143 -1.0885  0.7199 -0.3732
  624MOL0     C84118   1.068   2.863   1.153  0.9553  0.1656  0.0313
  624MOL0     C84119   1.202   2.880   1.078  0.1822  0.2266 -0.6793
  624MOL0     C84120   1.326   2.838   1.163 -0.1809  0.0821  0.0676
  624MOL0     C84121   1.454   2.837   1.069 -0.1722 -0.1765  0.4597
  624MOL0     N84122   1.575   2.855   1.156 -0.3795 -0.5714  0.5463
  624MOL0     C84123   1.647   2.956   1.212 -0.0740  0.2266 -0.2818
  624MOL0     C84124   1.753   2.904   1.282  0.1038 -0.4768  0.4792
  624MOL0     C84125   1.851   2.978   1.361  0.1064 -0.1525  0.4926
  624MOL0     C84126   1.974   3.016   1.282  0.1961 -1.0013 -0.1464
  624MOL0     C84127   2.052   2.900   1.224 -0.3223 -0.3014  0.3062
  624MOL0     C84128   2.199   2.933   1.215 -0.2202 -0.6308 -0.5307
  624MOL0     O84129   2.250   2.968   1.343  0.0561  0.1888 -0.3022
  624MOL0     C84130   2.384   3.003   1.342  0.7252 -0.2660  0.6176
  624MOL0     C84131   2.417   3.124   1.289 -0.1659 -0.1555 -0.3726
  624MOL0     C84132   2.543   3.170   1.281 -0.0082 -0.0481 -0.2536
  624MOL0     C84133   2.642   3.088   1.344  0.1531 -0.3787 -0.6588
  624MOL0     C84134   2.778   3.152   1.358  0.5173 -0.1913 -0.7497
  624MOL0     O84135   2.870   3.077   1.428 -0.1586 -0.3341 -0.1930
  624MOL0     C84136   2.992   3.129   1.467  0.2001 -0.4065 -0.2755
  624MOL0     C84137   3.109   3.076   1.417  0.3971 -0.2123 -0.3258
  624MOL0     C84138   3.230   3.123   1.463  0.5198 -0.0796  0.4523
  624MOL0     C84139   3.240   3.227   1.554  0.6489  0.4603  1.0674
  624MOL0     O84140   3.359   3.271   1.608  0.0454  0.3064  0.9937
  624MOL0     C84141   3.481   3.254   1.538  0.5318  0.5567  0.8427
  624MOL0     C84142   3.592   3.274   1.634 -0.0924 -0.2966 -0.0500
  624MOL0     C84143   3.721   3.292   1.552  0.4762 -0.5879  0.5188
  624MOL0     C84144   3.855   3.280   1.625 -0.4829 -0.1266 -0.0468
  624MOL0     C84145   3.974   3.288   1.528  0.7532  0.4132  0.1659
  624MOL0     C84146   4.103   3.296   1.602  0.8296  0.0417 -0.1868
  624MOL0     C84147   4.203   3.336   1.489 -0.0157  0.3874  0.6135
  624MOL0     C84148   4.349   3.332   1.548  0.4757 -0.2748 -0.8118
  624MOL0    Cl84149   4.467   3.350   1.422  0.0511 -0.3040  0.0031
  624MOL0     C84150   3.121   3.285   1.602  0.1799  0.9553 -0.0221
  624MOL0     C84151   2.997   3.236   1.556 -0.1756  0.3131  0.3583
  624MOL0     O84152   2.804   3.258   1.304  0.9362 -0.0337  0.3990
  624MOL0     C84153   2.606   2.973   1.416  0.0259  0.2359 -0.7117
  624MOL0     C84154   2.479   2.926   1.405  0.3297 -0.0529 -0.2000
  624MOL0     N84155   1.748   2.768   1.247 -0.8555 -0.2484 -0.2415
  624MOL0     N84156   1.642   2.737   1.180 -0.2705 -0.2273  0.7388
  624MOL0     C84157   0.555   2.228   1.361 -0.0158 -0.2865 -1.0239
  624MOL0     C84158   0.436   2.189   1.424 -0.0097 -0.3735  0.3193
  624MOL0     C84159   0.036   2.184   1.663 -0.2386 -0.7866 -0.2086
  624MOL0     C84160   0.015   2.160   1.803  0.5719 -0.1465 -0.2902
  624MOL0     C84161  -0.110   2.132   1.852  0.3124 -0.0419  0.0127
  624MOL0     C84162  -0.219   2.129   1.769 -0.1573  0.1621  0.2228
  624MOL0     O84163  -0.346   2.095   1.815  0.2098 -0.5415  0.3034
  624MOL0     C84164  -0.382   2.025   1.936 -0.0625 -0.4604  0.5496
  624MOL0     C84165  -0.375   1.867   1.917  0.8143 -0.4409 -0.3099
  624MOL0     C84166  -0.444   1.800   2.043 -0.4401  0.0059 -0.2907
  624MOL0     C84167  -0.440   1.650   2.015  0.1432  0.0164  0.0690
  624MOL0     C84168  -0.518   1.590   2.125  0.4777 -1.1443  0.0977
  624MOL0     C84169  -0.574   1.553   2.223  0.0448 -0.5260 -1.2477
  624MOL0     C84170  -0.200   2.150   1.628  0.1533 -0.1205 -0.3888
  624MOL0     C84171  -0.073   2.179   1.579  0.1609 -0.4001  0.1480
  624MOL0     C84172  -0.067   2.199   1.428  0.5830  0.2715 -0.1587
  624MOL0     H84173   0.295   2.503   1.448 -0.9897 -0.4270 -0.5004
  624MOL0     H84174   0.510   2.564   1.331  2.7062 -0.8513 -1.5685
  624MOL0     H84175   0.728   2.575   1.358  2.5022  0.4296  0.2116
  624MOL0     H84176   0.881   2.491   1.349  1.7990  1.9994 -0.4231
  624MOL0     H84177   0.710   2.571   1.115  0.6913 -1.2131  0.2541
  624MOL0     H84178   0.877   2.519   1.098 -2.4837 -0.3160 -2.6564
  624MOL0     H84179   0.854   2.744   1.290 -0.9110  1.4497 -0.6375
  624MOL0     H84180   0.799   2.786   1.129 -2.3390 -1.9091 -0.2446
  624MOL0     H84181   1.072   2.650   1.195 -0.9047  1.0127 -0.1779
  624MOL0     H84182   1.007   2.706   1.035  1.3707 -0.1094 -0.3787
  624MOL0     H84183   0.990   2.920   1.101  0.4261 -1.8296 -1.5066
  624MOL0     H84184   1.087   2.879   1.259  1.4007  1.4790 -0.2241
  624MOL0     H84185   1.200   2.832   0.980 -0.3856  0.7566 -0.9359
  624MOL0     H84186   1.212   2.988   1.060 -1.5579  0.6123  0.4222
  624MOL0     H84187   1.319   2.737   1.205 -1.0974  0.0244 -0.2011
  624MOL0     H84188   1.334   2.914   1.241 -0.7816 -1.3559  1.6117
  624MOL0     H84189   1.454   2.745   1.010  1.6499 -0.7740  1.3092
  624MOL0     H84190   1.442   2.921   1.000 -0.7656  0.2171  1.0247
  624MOL0     H84191   1.606   3.055   1.229 -2.4350 -0.7066 -0.1271
  624MOL0     H84192   1.816   3.063   1.419  1.6908  0.6678  0.3005
  624MOL0     H84193   1.879   2.905   1.438 -1.4961 -0.1036  1.1497
  624MOL0     H84194   1.945   3.078   1.197  2.4518  3.3780  1.9347
  624MOL0     H84195   2.035   3.083   1.343 -1.3863 -0.6428  1.1086
  624MOL0     H84196   2.024   2.866   1.124  2.1023  1.9612 -1.3016
  624MOL0     H84197   2.037   2.816   1.291 -1.9483 -0.2958 -0.0203
  624MOL0     H84198   2.222   3.017   1.148  0.4904 -1.0572 -0.8322
  624MOL0     H84199   2.240   2.845   1.164 -1.3553 -1.2893 -0.3246
  624MOL0     H84200   2.346   3.189   1.238  0.3618 -1.3437 -2.7783
  624MOL0     H84201   2.562   3.259   1.222 -2.1300  1.2234  0.8670
  624MOL0     H84202   3.104   2.998   1.341  3.4745 -0.6650 -0.1837
  624MOL0     H84203   3.316   3.072   1.420  0.8107  1.3815 -0.7946
  624MOL0     H84204   3.485   3.152   1.497 -0.9249  1.8631 -2.9682
  624MOL0     H84205   3.496   3.323   1.455  2.0200  0.1368  0.7326
  624MOL0     H84206   3.580   3.370   1.686  2.5077  0.5017 -0.7778
  624MOL0     H84207   3.585   3.192   1.706 -2.3208 -0.1156 -0.0138
  624MOL0     H84208   3.720   3.211   1.479 -0.3756  0.4365 -0.6534
  624MOL0     H84209   3.718   3.388   1.499  0.2825  0.0378  1.6352
  624MOL0     H84210   3.860   3.197   1.697  1.8845  1.0735  1.3225
  624MOL0     H84211   3.861   3.361   1.699 -0.7615 -0.6750  0.5841
  624MOL0     H84212   3.962   3.372   1.458  1.2691 -0.9889 -1.6990
  624MOL0     H84213   3.975   3.194   1.472  0.0128  0.1567  0.5681
  624MOL0     H84214   4.101   3.377   1.675 -3.0434  0.1833 -0.2648
  624MOL0     H84215   4.134   3.200   1.644  0.1403  0.4210  1.2455
  624MOL0     H84216   4.189   3.435   1.446 -0.1032 -1.3598 -3.9702
  624MOL0     H84217   4.198   3.263   1.407 -0.7113  0.5865  0.4726
  624MOL0     H84218   4.357   3.411   1.623  1.8723  0.2415 -1.4748
  624MOL0     H84219   4.365   3.236   1.598  1.9117  0.3868  0.0796
  624MOL0     H84220   3.129   3.363   1.677 -3.2790  0.2750  1.2362
  624MOL0     H84221   2.912   3.284   1.604  0.0928 -0.9521  2.2370
  624MOL0     H84222   2.673   2.907   1.470 -2.3801 -2.1096 -0.3737
  624MOL0     H84223   2.464   2.824   1.439  0.2744 -0.0802 -0.3070
  624MOL0     H84224   0.630   2.154   1.333 -0.1986 -1.8334  2.0338
  624MOL0     H84225   0.418   2.086   1.451  2.6952 -1.2096 -0.7223
  624MOL0     H84226   0.096   2.174   1.874 -1.5982  1.1450  2.1361
  624MOL0     H84227  -0.127   2.118   1.959 -3.0339  0.7204 -0.3361
  624MOL0     H84228  -0.485   2.055   1.954 -0.2168 -1.3588  1.2217
  624MOL0     H84229  -0.318   2.064   2.016  2.7341 -1.7911 -0.8734
  624MOL0     H84230  -0.277   1.818   1.913  0.5416 -0.9166 -1.9358
  624MOL0     H84231  -0.429   1.841   1.825 -3.3909  3.2802  0.7180
  624MOL0     H84232  -0.545   1.834   2.067  0.1396  1.2746  0.4535
  624MOL0     H84233  -0.386   1.833   2.130 -1.3575  1.6233 -0.2474
  624MOL0     H84234  -0.506   1.643   1.928 -1.0242 -0.3738  0.9676
  624MOL0     H84235  -0.341   1.605   1.998  0.8909  1.7189 -0.3134
  624MOL0     H84236  -0.637   1.523   2.304 -0.6808 -1.0645 -1.9906
  624MOL0     H84237  -0.285   2.131   1.563  0.6412 -3.1565 -0.3034
  624MOL0     H84238  -0.029   2.299   1.404  0.1885  0.1670 -1.2900
  624MOL0     H84239   0.000   2.124   1.386  0.6099 -1.5730  2.8411
  624MOL0     H84240  -0.165   2.186   1.381  0.5784  0.0896 -0.1003
  625MOL0     O84241   9.863   2.545   8.916  0.7960  0.5290 -0.2324
  625MOL0     C84242   9.861   2.433   8.877  0.3580  1.1218 -0.0341
  625MOL0     O84243   9.966   2.379   8.810 -0.0929  0.3670 -0.1735
  625MOL0     C84244  10.073   2.454   8.779 -0.4377 -0.4878 -0.1022
  625MOL0     C84245  10.105   2.475   8.648 -0.4534  0.5682 -0.0791
  625MOL0     C84246  10.222   2.544   8.615  0.3418 -0.8284 -0.1365
  625MOL0     C84247  10.305   2.606   8.708  0.1987  1.0059  0.3297
  625MOL0     O84248  10.419   2.672   8.670 -0.3002 -0.1902  0.6504
  625MOL0     C84249  10.510   2.732   8.771 -0.1940  0.2531  0.4954
  625MOL0     C84250  10.598   2.831   8.710  0.1841 -0.2816  0.0738
  625MOL0     C84251  10.746   2.769   8.699 -0.1718 -0.3017  0.5282
  625MOL0     C84252  10.842   2.846   8.613 -0.0360 -0.8750 -0.2235
  625MOL0     C84253  10.872   2.992   8.670  0.2002  0.2773  0.3427
  625MOL0     C84254  10.976   3.057   8.582  0.7698 -0.9779 -0.0407
  625MOL0     C84255  10.990   3.211   8.611 -0.5683  0.2748  0.9257
  625MOL0     C84256  11.046   3.273   8.484 -0.2201  0.3144 -0.0453
  625MOL0     N84257  11.081   3.413   8.495  0.5886 -0.3314  0.3025
  625MOL0     C84258  11.029   3.510   8.408  0.2769 -0.4196 -0.2706
  625MOL0     C84259  11.113   3.627   8.420  0.3997  0.1061 -0.1077
  625MOL0     C84260  11.079   3.763   8.349 -0.5370 -0.8042 -0.4092
  625MOL0     C84261  11.212   3.833   8.302  0.1925 -0.1522  0.0541
  625MOL0     C84262  11.257   3.767   8.170  0.6060 -0.0803 -0.1559
  625MOL0     C84263  11.403   3.802   8.134 -0.4577  0.7656 -0.5844
  625MOL0     O84264  11.440   3.736   8.012  0.5684 -0.1350 -0.1123
  625MOL0     C84265  11.573   3.700   7.993  0.2040 -0.1215 -0.2164
  625MOL0     C84266  11.590   3.605   7.895 -0.2163 -0.2829 -0.3743
  625MOL0     C84267  11.721   3.558   7.866 -0.4573 -0.4200 -0.1711
  625MOL0     C84268  11.829   3.590   7.948  0.8442 -0.2535  0.5065
  625MOL0     C84269  11.966   3.554   7.907  0.2929  0.0052 -0.2498
  625MOL0     O84270  11.992   3.555   7.774 -0.3626 -0.3728  0.5062
  625MOL0     C84271  12.126   3.567   7.749  0.1661  0.8022 -0.4411
  625MOL0     C84272  12.169   3.684   7.682  0.0838  1.1013  0.1054
  625MOL0     C84273  12.297   3.699   7.630 -0.5818 -0.0962 -0.2178
  625MOL0     C84274  12.391   3.591   7.641 -0.1573  0.7194 -0.0663
  625MOL0     O84275  12.521   3.600   7.593  0.3141 -0.0862  0.4818
  625MOL0     C84276  12.572   3.716   7.526  0.7540 -0.3910 -0.7918
  625MOL0     C84277  12.721   3.709   7.525  0.6941  0.3848  0.3401
  625MOL0     C84278  12.779   3.573   7.469  1.0350  0.3177  0.7186
  625MOL0     C84279  12.916   3.590   7.406  1.2597 -0.0342 -0.0190
  625MOL0     C84280  13.004   3.677   7.501 -0.0800  0.0774  0.2282
  625MOL0     C84281  13.155   3.704   7.468  0.2606 -0.4410  0.6891
  625MOL0     C84282  13.242   3.590   7.455  0.5953  0.1834 -0.2516
  625MOL0     C84283  13.314   3.543   7.578 -0.2928  0.1208 -0.2428
  625MOL0    Cl84284  13.392   3.686   7.641 -0.1786  0.1462  0.2984
  625MOL0     C84285  12.346   3.472   7.702 -0.2978  0.5116 -0.4196
  625MOL0     C84286  12.216   3.461   7.754 -0.5633  0.1815  0.8761
  625MOL0     O84287  12.050   3.540   7.994 -0.4846 -0.1499  0.0763
  625MOL0     C84288  11.809   3.696   8.038 -0.1427 -0.2271 -0.0713
  625MOL0     C84289  11.684   3.759   8.054  0.0694 -0.2929 -0.8715
  625MOL0     N84290  11.214   3.591   8.510 -0.1548 -0.6035 -0.4254
  625MOL0     N84291  11.194   3.465   8.547  0.3939  0.5621  0.2800
  625MOL0     C84292  10.266   2.592   8.845  0.8226  0.4468 -0.1594
  625MOL0     C84293  10.152   2.517   8.878 -0.0754 -0.3843 -0.6682
  625MOL0     C84294   9.738   2.361   8.905 -0.8299  0.1110  0.2919
  625MOL0     C84295   9.617   2.428   8.904 -0.2907  0.4327  0.6037
  625MOL0     C84296   9.497   2.358   8.914 -0.0794  0.8137 -0.2778
  625MOL0     C84297   9.493   2.215   8.930 -0.0214 -0.1470 -0.3559
  625MOL0     O84298   9.375   2.143   8.948  0.4511 -0.2583 -0.1762
  625MOL0     C84299   9.247   2.210   8.936  0.2199  0.7496 -0.2766
  625MOL0     C84300   9.205   2.221   8.792  0.5744  0.1879 -0.0035
  625MOL0     C84301   9.096   2.324   8.761  0.2415  0.6541 -0.2844
  625MOL0     C84302   9.141   2.467   8.778  0.2212 -1.1894 -1.3218
  625MOL0     C84303   9.237   2.506   8.674  0.4625 -0.8191 -0.4122
  625MOL0     C84304   9.315   2.526   8.579  0.0019 -0.1005  0.0741
  625MOL0     C84305   9.612   2.150   8.939 -0.3088 -0.0957  0.0534
  625MOL0     C84306   9.736   2.218   8.936  0.7543 -1.1404  0.5764
  625MOL0     C84307   9.859   2.145   8.963 -0.2322 -0.1892 -0.1045
  625MOL0     H84308  10.052   2.419   8.572 -0.3546  0.1875  0.1261
  625MOL0     H84309  10.260   2.549   8.513  0.8248  0.2893  0.0820
  625MOL0     H84310  10.466   2.786   8.856  3.0962  1.2285  1.7273
  625MOL0     H84311  10.568   2.650   8.814  0.0519  0.7945  1.2166
  625MOL0     H84312  10.598   2.916   8.779 -0.7631 -0.4970  0.3497
  625MOL0     H84313  10.563   2.855   8.609 -0.5914  1.4169  0.7068
  625MOL0     H84314  10.739   2.671   8.652 -5.2318  1.1566 -2.5465
  625MOL0     H84315  10.775   2.757   8.804 -3.0702  2.0217  1.7355
  625MOL0     H84316  10.939   2.795   8.614 -0.1464 -1.0829  0.7927
  625MOL0     H84317  10.799   2.869   8.515  2.0412  4.2056 -0.2719
  625MOL0     H84318  10.781   3.052   8.664  0.1097  0.2215  1.0913
  625MOL0     H84319  10.907   2.985   8.773 -1.3197  1.0212  0.9390
  625MOL0     H84320  11.067   2.999   8.601  0.2424 -1.9533 -0.3842
  625MOL0     H84321  10.940   3.040   8.480 -2.1157  1.6095  0.4016
  625MOL0     H84322  11.064   3.230   8.690  0.3654  2.3905 -0.3490
  625MOL0     H84323  10.900   3.272   8.624  0.7359  2.3426  0.8531
  625MOL0     H84324  11.132   3.209   8.461 -1.0671 -1.0892  0.5585
  625MOL0     H84325  10.983   3.254   8.396  0.5038  2.4704 -1.1006
  625MOL0     H84326  10.946   3.497   8.340  2.8061 -0.2413 -3.6695
  625MOL0     H84327  11.005   3.759   8.268 -0.4311 -2.7361 -0.4540
  625MOL0     H84328  11.038   3.829   8.426 -0.7310 -3.3172  1.7555
  625MOL0     H84329  11.199   3.940   8.283  2.2316 -0.0184 -0.8129
  625MOL0     H84330  11.280   3.826   8.387 -0.5863  0.0322  0.7012
  625MOL0     H84331  11.185   3.788   8.090 -0.8352 -2.7049  0.3350
  625MOL0     H84332  11.266   3.660   8.190  2.5135 -0.1341 -1.0049
  625MOL0     H84333  11.468   3.772   8.216  1.2023  0.6619 -1.8912
  625MOL0     H84334  11.410   3.911   8.123 -3.2960  1.0700 -0.0738
  625MOL0     H84335  11.510   3.557   7.840 -1.4240  0.6280  0.5345
  625MOL0     H84336  11.735   3.493   7.781  3.6074 -0.9715  0.7355
  625MOL0     H84337  12.102   3.768   7.670 -1.9274 -0.3924  0.4832
  625MOL0     H84338  12.326   3.792   7.584  0.9301 -0.1836  0.5070
  625MOL0     H84339  12.528   3.724   7.426  2.5638  0.2253 -1.5849
  625MOL0     H84340  12.556   3.809   7.580 -0.4898  0.4654 -2.5658
  625MOL0     H84341  12.743   3.788   7.453 -1.4561  0.9587  0.2257
  625MOL0     H84342  12.767   3.736   7.620  1.7173  1.8497 -0.5385
  625MOL0     H84343  12.793   3.497   7.546  0.8624 -0.3053  0.1474
  625MOL0     H84344  12.717   3.531   7.389 -0.0283 -1.0330  2.1995
  625MOL0     H84345  12.913   3.642   7.310  2.0169  0.4477  0.2005
  625MOL0     H84346  12.975   3.502   7.381  0.1466 -0.6391 -0.5372
  625MOL0     H84347  12.985   3.652   7.606  0.0053  0.9330  0.4513
  625MOL0     H84348  12.971   3.781   7.489 -0.7188 -0.2176 -0.6997
  625MOL0     H84349  13.153   3.755   7.371  2.8544  1.7975  1.7043
  625MOL0     H84350  13.202   3.777   7.535 -0.0154 -1.4622  2.0414
  625MOL0     H84351  13.316   3.621   7.380 -1.7418  3.0926 -1.5441
  625MOL0     H84352  13.188   3.503   7.417  0.1488  0.3188  0.0749
  625MOL0     H84353  13.256   3.491   7.655  2.4778 -0.6319  1.4835
  625MOL0     H84354  13.388   3.469   7.546  1.0363  1.0477  0.5857
  625MOL0     H84355  12.422   3.402   7.733  0.2252  1.5416  0.7217
  625MOL0     H84356  12.186   3.377   7.817 -0.0116  0.4865  1.5584
  625MOL0     H84357  11.893   3.743   8.090 -1.2403  1.8370 -0.0642
  625MOL0     H84358  11.670   3.827   8.137  2.6089  1.4683 -1.7705
  625MOL0     H84359  10.325   2.649   8.916 -1.1201  3.0359 -0.4945
  625MOL0     H84360  10.123   2.501   8.981 -0.4470 -1.1512 -0.8846
  625MOL0     H84361   9.616   2.536   8.889  1.3033  0.5896  1.3948
  625MOL0     H84362   9.403   2.413   8.919  0.3367  1.4105  3.4429
  625MOL0     H84363   9.252   2.305   8.989  2.0259 -0.5020  1.9861
  625MOL0     H84364   9.170   2.153   8.989 -0.3331  1.5872 -0.1707
  625MOL0     H84365   9.165   2.125   8.760  3.5289 -0.6936 -1.4268
  625MOL0     H84366   9.292   2.238   8.727  0.2793 -1.1986 -0.7905
  625MOL0     H84367   9.010   2.305   8.826 -0.6883  0.6668 -1.4734
  625MOL0     H84368   9.071   2.295   8.659  1.9387  0.8942 -0.8017
  625MOL0     H84369   9.051   2.527   8.765 -0.8524 -1.7212  2.5468
  625MOL0     H84370   9.181   2.480   8.879  1.3561  1.2666 -1.9927
  625MOL0     H84371   9.378   2.529   8.492  0.2882  0.5334  0.2921
  625MOL0     H84372   9.624   2.043   8.953  1.0743  0.4113  3.7074
  625MOL0     H84373   9.839   2.040   8.988 -2.7996  0.6244  1.7177
  625MOL0     H84374   9.920   2.137   8.873  0.2011 -0.1759  0.1853
  625MOL0     H84375   9.929   2.190   9.033  1.2286  1.0963 -2.2613
  626MOL0     O84376  10.712   7.100   3.614  0.4793  0.6336 -0.2675
  626MOL0     C84377  10.620   7.172   3.590  0.5734 -0.3878  0.6047
  626MOL0     O84378  10.625   7.289   3.517 -0.8139  0.6889  0.0058
  626MOL0     C84379  10.755   7.325   3.486 -0.7246 -0.1330  0.2365
  626MOL0     C84380  10.845   7.353   3.596 -0.6157 -0.8947  0.5479
  626MOL0     C84381  10.974   7.382   3.559  0.1174  0.0896 -0.2251
  626MOL0     C84382  11.024   7.389   3.431  0.2179 -0.3192  0.2901
  626MOL0     O84383  11.156   7.414   3.398  0.6947  0.3878  0.0830
  626MOL0     C84384  11.242   7.461   3.501  0.2018 -0.0533 -0.2371
  626MOL0     C84385  11.379   7.485   3.434 -0.1867  0.9700 -0.2672
  626MOL0     C84386  11.360   7.584   3.325 -0.0436 -0.0243  0.1035
  626MOL0     C84387  11.490   7.610   3.253 -0.4469 -0.1428 -0.4586
  626MOL0     C84388  11.473   7.696   3.126 -0.0108  0.2584  0.4654
  626MOL0     C84389  11.614   7.701   3.056 -0.4943 -0.6158  0.0021
  626MOL0     C84390  11.616   7.796   2.929  0.3362 -0.1292 -0.1714
  626MOL0     C84391  11.534   7.740   2.809  0.2703  0.3209 -0.3596
  626MOL0     N84392  11.593   7.622   2.749 -0.6855  0.7163  0.2963
  626MOL0     C84393  11.718   7.626   2.691 -0.6546  1.0654  0.1980
  626MOL0     C84394  11.745   7.494   2.669  0.3305  1.3130 -0.3314
  626MOL0     C84395  11.879   7.446   2.607  0.3272  0.6296  1.1243
  626MOL0     C84396  11.979   7.481   2.714 -0.4910 -0.3185 -0.3196
  626MOL0     C84397  12.111   7.394   2.695  0.2822  0.8385  0.1319
  626MOL0     C84398  12.164   7.411   2.555 -0.2587 -0.0043  0.3934
  626MOL0     O84399  12.294   7.341   2.537  0.3024 -0.4370 -0.2889
  626MOL0     C84400  12.415   7.395   2.570 -0.1374  0.8121 -0.7031
  626MOL0     C84401  12.524   7.304   2.565  0.1640  0.5108 -0.3466
  626MOL0     C84402  12.657   7.344   2.595 -0.8379 -0.2792 -0.0258
  626MOL0     C84403  12.675   7.479   2.639  0.2439 -0.3649  0.8793
  626MOL0     C84404  12.818   7.515   2.665 -0.2000 -0.6110 -1.3547
  626MOL0     O84405  12.920   7.451   2.611 -0.0289 -0.4956  0.2775
  626MOL0     C84406  13.042   7.506   2.621  0.1897  0.3162  0.2535
  626MOL0     C84407  13.107   7.504   2.746  0.5505 -0.3554 -0.1716
  626MOL0     C84408  13.218   7.579   2.762 -0.3245 -0.1050  0.0340
  626MOL0     C84409  13.286   7.621   2.648  0.8186 -0.0470  0.5915
  626MOL0     O84410  13.416   7.667   2.648 -0.3101 -0.0124  0.0877
  626MOL0     C84411  13.512   7.576   2.698 -0.4762 -0.0473  0.4342
  626MOL0     C84412  13.662   7.615   2.672  0.2642 -0.3082 -0.3060
  626MOL0     C84413  13.707   7.650   2.527 -0.6444  0.8598 -0.6783
  626MOL0     C84414  13.851   7.635   2.515 -0.2934  0.3764 -0.7491
  626MOL0     C84415  13.894   7.687   2.382 -0.0149 -0.8683 -0.0965
  626MOL0     C84416  14.055   7.695   2.371 -0.2688  0.1203  0.1067
  626MOL0     C84417  14.106   7.711   2.232 -0.1597  0.0512  0.5619
  626MOL0     C84418  14.255   7.728   2.211  0.1204  0.4108  0.1308
  626MOL0    Cl84419  14.341   7.622   2.309 -0.0522 -0.4041  0.4136
  626MOL0     C84420  13.222   7.635   2.528 -0.3078 -0.0752  0.4642
  626MOL0     C84421  13.096   7.580   2.519  0.1631 -0.3199  0.0037
  626MOL0     O84422  12.824   7.616   2.739 -0.3165  0.2121 -0.1332
  626MOL0     C84423  12.568   7.560   2.662  0.5500 -0.2177 -0.3632
  626MOL0     C84424  12.440   7.516   2.623 -0.5777 -0.8782  0.8955
  626MOL0     N84425  11.644   7.412   2.718 -0.4979 -0.9664  0.2566
  626MOL0     N84426  11.544   7.490   2.757 -0.7878  0.0433 -0.1441
  626MOL0     C84427  10.940   7.360   3.325  0.0075  0.3074  0.6666
  626MOL0     C84428  10.806   7.334   3.352  0.7585 -0.2943 -0.6512
  626MOL0     C84429  10.488   7.129   3.632  0.6665 -0.1378  0.6226
  626MOL0     C84430  10.378   7.197   3.583  0.0485  0.4651  0.7102
  626MOL0     C84431  10.252   7.157   3.618 -0.0708  0.0683  0.3196
  626MOL0     C84432  10.227   7.040   3.695  0.3538  0.1949 -0.1482
  626MOL0     O84433  10.109   6.985   3.723 -0.8784  0.3496 -0.1468
  626MOL0     C84434   9.990   7.033   3.664 -0.4533  0.3586 -0.0358
  626MOL0     C84435   9.925   7.137   3.755  0.0357  0.3665  0.1931
  626MOL0     C84436   9.787   7.180   3.699  0.4054 -0.3643 -0.4395
  626MOL0     C84437   9.676   7.085   3.653  0.1435  0.5494  0.5789
  626MOL0     C84438   9.698   7.030   3.517  0.1663 -0.1417 -0.4454
  626MOL0     C84439   9.727   6.997   3.401  0.9089 -0.2633  0.0858
  626MOL0     C84440  10.335   6.990   3.758 -0.8648 -0.1867 -0.8551
  626MOL0     C84441  10.466   7.038   3.741 -1.0493 -0.8767 -0.1397
  626MOL0     C84442  10.574   6.996   3.843  1.2128  0.1862  1.0382
  626MOL0     H84443  10.810   7.344   3.698 -0.9782 -1.8647  0.3511
  626MOL0     H84444  11.048   7.402   3.636  1.5500 -1.3407 -1.1478
  626MOL0     H84445  11.212   7.560   3.537 -1.3064 -1.2423  1.9730
  626MOL0     H84446  11.251   7.386   3.580  0.6339  1.2259  0.9637
  626MOL0     H84447  11.406   7.384   3.399  2.3716  1.1416  1.0492
  626MOL0     H84448  11.455   7.505   3.509  0.0990  0.6539 -0.4698
  626MOL0     H84449  11.318   7.676   3.366  1.3209  0.4589  0.4693
  626MOL0     H84450  11.284   7.551   3.254 -1.5515 -0.0069  1.6702
  626MOL0     H84451  11.555   7.662   3.324  0.1811  0.8182 -1.6877
  626MOL0     H84452  11.545   7.517   3.240  0.9987  0.6599 -0.2283
  626MOL0     H84453  11.394   7.658   3.060 -0.2776  1.5595  0.0038
  626MOL0     H84454  11.456   7.803   3.143  0.2578  0.6794 -1.5593
  626MOL0     H84455  11.685   7.745   3.126  0.8065 -0.9303 -1.0772
  626MOL0     H84456  11.651   7.605   3.019 -0.3021 -0.4000 -0.3710
  626MOL0     H84457  11.717   7.825   2.898  0.1859  0.1783 -0.3813
  626MOL0     H84458  11.568   7.893   2.943  2.4431  1.3316 -2.1604
  626MOL0     H84459  11.438   7.703   2.848  0.0564  0.0260 -1.1523
  626MOL0     H84460  11.522   7.821   2.736  3.0687 -0.9721 -2.4201
  626MOL0     H84461  11.786   7.710   2.687  0.5328  0.1544  0.6921
  626MOL0     H84462  11.865   7.341   2.579  0.8700  1.1169 -1.1151
  626MOL0     H84463  11.899   7.495   2.511 -1.3615 -1.2326 -0.2551
  626MOL0     H84464  12.013   7.585   2.709 -0.7387 -0.3121 -2.7161
  626MOL0     H84465  11.938   7.471   2.815 -0.5761  1.2346 -0.1772
  626MOL0     H84466  12.083   7.289   2.702 -3.1013  1.4905 -1.4849
  626MOL0     H84467  12.193   7.427   2.760  1.9549 -0.1037 -1.3984
  626MOL0     H84468  12.188   7.515   2.533  0.1154 -0.3634 -0.9729
  626MOL0     H84469  12.084   7.386   2.485 -2.1682 -0.3695  2.5660
  626MOL0     H84470  12.503   7.198   2.558  2.2963 -0.0047  0.1707
  626MOL0     H84471  12.742   7.278   2.586  0.3360  1.0325  0.9855
  626MOL0     H84472  13.066   7.447   2.828  1.3449  0.7453  1.0291
  626MOL0     H84473  13.271   7.565   2.856 -1.2405 -1.6590  0.3688
  626MOL0     H84474  13.495   7.560   2.804 -0.6367  1.3401  0.6401
  626MOL0     H84475  13.506   7.483   2.640 -0.1112  0.6312 -0.7452
  626MOL0     H84476  13.681   7.704   2.732 -0.6648 -1.6194  2.0729
  626MOL0     H84477  13.729   7.540   2.713  1.9732  0.5127 -1.4755
  626MOL0     H84478  13.671   7.572   2.460 -0.2049  1.0957 -1.2000
  626MOL0     H84479  13.661   7.745   2.498  0.6840  2.2196  1.4241
  626MOL0     H84480  13.881   7.532   2.534  0.8854  1.0041  1.0475
  626MOL0     H84481  13.898   7.693   2.595 -0.3864 -0.3453 -0.1720
  626MOL0     H84482  13.861   7.791   2.376  1.1983 -0.5206 -1.3899
  626MOL0     H84483  13.857   7.628   2.298 -2.9583  2.6788 -1.5428
  626MOL0     H84484  14.093   7.779   2.430  4.8029 -0.8934 -1.2144
  626MOL0     H84485  14.099   7.605   2.414 -0.9511  0.2266  1.0610
  626MOL0     H84486  14.066   7.802   2.187  2.3344  1.7459  1.5665
  626MOL0     H84487  14.066   7.625   2.176 -1.1484  1.4511 -0.9772
  626MOL0     H84488  14.279   7.714   2.105  2.0415  1.3675  0.3913
  626MOL0     H84489  14.296   7.827   2.233 -0.7247  0.4975  1.4264
  626MOL0     H84490  13.266   7.681   2.440 -0.6800 -1.1105 -0.2869
  626MOL0     H84491  13.041   7.604   2.429 -1.2238 -0.3194  0.8198
  626MOL0     H84492  12.589   7.659   2.700  3.6879 -0.6306 -0.7265
  626MOL0     H84493  12.367   7.596   2.631 -0.0915 -0.0751 -1.6476
  626MOL0     H84494  10.982   7.348   3.225  0.3161 -0.7707  0.9104
  626MOL0     H84495  10.741   7.320   3.266  0.1693 -0.8722 -0.1214
  626MOL0     H84496  10.396   7.287   3.525  3.2953  0.2905  1.2639
  626MOL0     H84497  10.172   7.215   3.573  1.6459  1.7519 -0.6935
  626MOL0     H84498   9.916   6.952   3.662 -1.0792  0.8467  1.4569
  626MOL0     H84499   9.994   7.074   3.563 -1.8262  2.0621  0.5548
  626MOL0     H84500   9.991   7.222   3.770  1.2800 -0.6344  0.5448
  626MOL0     H84501   9.909   7.108   3.859 -0.3737  1.0970  0.3368
  626MOL0     H84502   9.802   7.262   3.628 -2.5529  1.0810  0.4383
  626MOL0     H84503   9.739   7.233   3.783  0.2390 -0.2218 -0.6215
  626MOL0     H84504   9.669   7.002   3.724  0.4406 -0.6264 -0.7138
  626MOL0     H84505   9.586   7.147   3.656  0.5945  1.1597  1.7035
  626MOL0     H84506   9.731   6.974   3.297  1.2880  1.9185 -0.4317
  626MOL0     H84507  10.313   6.904   3.820 -0.4217 -0.8156 -1.5457
  626MOL0     H84508  10.645   6.928   3.795 -0.3134 -1.7774  1.4122
  626MOL0     H84509  10.623   7.089   3.871 -0.8719  2.6885 -2.7650
  626MOL0     H84510  10.518   6.945   3.923 -0.6161  0.3840 -0.0574
  627MOL0     O84511   6.484  11.228   1.612 -0.3896 -0.2542  0.2806
  627MOL0     C84512   6.460  11.273   1.502 -0.6256  0.5451  0.0298
  627MOL0     O84513   6.529  11.379   1.447  0.6343  0.5184 -0.2913
  627MOL0     C84514   6.643  11.433   1.509 -0.8308 -0.3306  0.6400
  627MOL0     C84515   6.745  11.363   1.568 -0.0426  0.9785  0.0799
  627MOL0     C84516   6.855  11.421   1.632 -0.4582 -0.5891 -0.1496
  627MOL0     C84517   6.868  11.557   1.640  0.6832  0.0868 -0.5591
  627MOL0     O84518   6.962  11.632   1.712  0.4634  0.2920 -0.3409
  627MOL0     C84519   7.072  11.557   1.769  0.4322 -1.2673 -0.1972
  627MOL0     C84520   7.179  11.529   1.659  0.5849 -0.0548 -0.5186
  627MOL0     C84521   7.311  11.487   1.717 -0.5189 -0.4085  0.2420
  627MOL0     C84522   7.291  11.348   1.775  0.1313 -0.1084 -0.5641
  627MOL0     C84523   7.428  11.293   1.829 -0.8097  0.0701 -0.5120
  627MOL0     C84524   7.423  11.145   1.867 -0.0838  0.0186 -0.1954
  627MOL0     C84525   7.547  11.086   1.936 -0.2023  0.4928  0.1920
  627MOL0     C84526   7.673  11.104   1.848  0.2432  0.5305  0.1363
  627MOL0     N84527   7.796  11.086   1.927  0.3324 -0.4973  0.2686
  627MOL0     C84528   7.835  11.180   2.014 -0.7989 -0.4293  0.1146
  627MOL0     C84529   7.961  11.138   2.053  0.1346 -0.3475  0.0752
  627MOL0     C84530   8.050  11.206   2.154  0.3475 -0.3877  0.2546
  627MOL0     C84531   8.111  11.331   2.092  0.1600 -0.2764  0.3661
  627MOL0     C84532   8.195  11.406   2.201 -0.4219 -0.0009  0.6141
  627MOL0     C84533   8.266  11.529   2.135 -0.2861 -0.1559  0.0799
  627MOL0     O84534   8.299  11.614   2.243  0.6233  0.0068 -0.4735
  627MOL0     C84535   8.415  11.583   2.313  1.0511 -0.0152 -0.3978
  627MOL0     C84536   8.508  11.485   2.291 -0.0132  0.5755  0.6523
  627MOL0     C84537   8.606  11.448   2.373 -0.7476 -0.4908 -0.3108
  627MOL0     C84538   8.614  11.516   2.499  0.3330  0.6625  0.0588
  627MOL0     C84539   8.720  11.472   2.598 -0.0412  0.7427  0.0230
  627MOL0     O84540   8.802  11.369   2.563 -0.3085 -0.1566  0.1128
  627MOL0     C84541   8.928  11.363   2.620 -0.0668  0.0662  0.8487
  627MOL0     C84542   8.983  11.446   2.728  0.1234 -0.3897  0.3978
  627MOL0     C84543   9.116  11.437   2.766 -0.0114 -0.4633  0.4178
  627MOL0     C84544   9.210  11.353   2.702 -0.8877  0.1837 -0.5059
  627MOL0     O84545   9.341  11.340   2.734  0.3140  0.0857  0.8917
  627MOL0     C84546   9.416  11.437   2.811 -0.3948 -0.1994  0.1590
  627MOL0     C84547   9.562  11.383   2.821  0.1664 -0.1864  0.9988
  627MOL0     C84548   9.657  11.467   2.897  0.0251 -0.2186 -0.0415
  627MOL0     C84549   9.792  11.381   2.921  0.2872 -0.1912 -0.2720
  627MOL0     C84550   9.887  11.481   2.997 -0.9184  0.5863  0.0693
  627MOL0     C84551   9.997  11.413   3.068  0.4772  0.4752 -1.2726
  627MOL0     C84552  10.105  11.341   2.984 -0.8796  0.0473 -0.1022
  627MOL0     C84553  10.228  11.320   3.074  0.6262 -0.7136  0.1037
  627MOL0    Cl84554  10.334  11.199   3.014  0.2707  0.3058  0.0280
  627MOL0     C84555   9.163  11.279   2.592 -0.5826 -0.3942 -0.1540
  627MOL0     C84556   9.025  11.279   2.557 -0.0208 -0.2576  0.5468
  627MOL0     O84557   8.710  11.511   2.716  1.0230  0.6610  0.2138
  627MOL0     C84558   8.516  11.615   2.534 -0.2320 -0.1244 -0.0191
  627MOL0     C84559   8.420  11.654   2.434 -0.2596 -0.5366  0.2065
  627MOL0     N84560   7.992  11.017   1.997 -0.7089  0.7730  0.3319
  627MOL0     N84561   7.888  10.994   1.921  0.6117 -0.2531  0.6270
  627MOL0     C84562   6.771  11.632   1.581 -0.9390 -0.0514  0.7672
  627MOL0     C84563   6.659  11.572   1.504 -0.2364 -0.7703  0.0501
  627MOL0     C84564   6.331  11.235   1.436 -0.6347  0.0764 -0.2127
  627MOL0     C84565   6.233  11.326   1.410  0.9313 -0.0179  0.4427
  627MOL0     C84566   6.107  11.285   1.365  0.1106  0.0654  0.7272
  627MOL0     C84567   6.077  11.149   1.337  0.1212  0.2961 -1.1421
  627MOL0     O84568   5.953  11.122   1.291 -0.2782  0.3179  1.0050
  627MOL0     C84569   5.915  10.986   1.307 -0.7224 -0.0683  0.1581
  627MOL0     C84570   5.935  10.909   1.180 -0.1833 -0.0947 -0.1666
  627MOL0     C84571   5.912  10.756   1.176 -0.4978  0.9747 -1.0000
  627MOL0     C84572   6.020  10.673   1.257 -0.0783 -0.5138  0.3933
  627MOL0     C84573   6.163  10.677   1.206  0.6725 -0.6520 -0.2989
  627MOL0     C84574   6.271  10.674   1.155 -0.5109  0.1816  0.2772
  627MOL0     C84575   6.183  11.053   1.355 -0.1117  0.1228 -0.4806
  627MOL0     C84576   6.308  11.101   1.406  0.1560  1.1454  0.2970
  627MOL0     C84577   6.416  10.994   1.415  0.3632  0.0140 -0.0131
  627MOL0     H84578   6.741  11.255   1.559  2.5790  0.6182  2.0261
  627MOL0     H84579   6.920  11.350   1.682  0.6450 -0.4898 -1.4026
  627MOL0     H84580   7.107  11.619   1.852  0.3617 -1.8067  0.2413
  627MOL0     H84581   7.035  11.467   1.819 -3.8799  1.6241  2.5816
  627MOL0     H84582   7.185  11.608   1.584 -0.8353  1.7053  1.1181
  627MOL0     H84583   7.140  11.443   1.603 -1.3205  1.1113 -1.1128
  627MOL0     H84584   7.335  11.550   1.803 -0.5174 -1.2649  0.8869
  627MOL0     H84585   7.390  11.484   1.642 -0.1277 -0.7925  0.6606
  627MOL0     H84586   7.222  11.355   1.859 -0.2175 -0.5052 -0.8163
  627MOL0     H84587   7.264  11.277   1.696  2.2930 -2.3292  0.5704
  627MOL0     H84588   7.503  11.300   1.750 -0.2080  0.3173  0.0735
  627MOL0     H84589   7.453  11.355   1.916  1.2210  0.4084 -1.2803
  627MOL0     H84590   7.338  11.128   1.934  0.1570  0.6690  0.2875
  627MOL0     H84591   7.395  11.092   1.776 -0.9140  1.6812 -0.9403
  627MOL0     H84592   7.533  10.980   1.962  0.5056 -0.3175 -2.4980
  627MOL0     H84593   7.551  11.148   2.026 -2.2296  0.2009  0.5526
  627MOL0     H84594   7.669  11.039   1.761  1.4593 -1.1939  1.2963
  627MOL0     H84595   7.679  11.204   1.804  1.0722 -0.3401 -1.8723
  627MOL0     H84596   7.779  11.260   2.062 -2.0832 -0.2099 -1.6282
  627MOL0     H84597   7.992  11.233   2.243 -1.4407 -3.1180  0.0246
  627MOL0     H84598   8.127  11.136   2.188 -0.4365 -0.6166  1.6629
  627MOL0     H84599   8.186  11.295   2.021  1.3129  1.4014  0.6812
  627MOL0     H84600   8.030  11.389   2.047  2.0011  0.8611 -1.6404
  627MOL0     H84601   8.263  11.341   2.256  1.0035  0.1875 -0.8369
  627MOL0     H84602   8.116  11.432   2.273 -1.1214 -3.8466  1.4389
  627MOL0     H84603   8.199  11.579   2.065 -1.3172 -1.1689  0.3138
  627MOL0     H84604   8.355  11.505   2.075 -0.5166 -2.9406  0.7263
  627MOL0     H84605   8.502  11.436   2.195  0.5836  1.1597  0.3169
  627MOL0     H84606   8.675  11.370   2.343 -0.3266 -0.0525 -0.4930
  627MOL0     H84607   8.921  11.513   2.787  1.7555  2.2201 -0.6617
  627MOL0     H84608   9.157  11.507   2.839  1.6002  0.5523 -1.3772
  627MOL0     H84609   9.406  11.532   2.758 -0.3920 -0.1584  0.2315
  627MOL0     H84610   9.375  11.451   2.912 -1.0270 -1.3648  0.0818
  627MOL0     H84611   9.562  11.283   2.865  1.2868 -1.4085 -1.5877
  627MOL0     H84612   9.600  11.367   2.720  0.4272  1.6734  0.7676
  627MOL0     H84613   9.660  11.562   2.842 -1.3380  1.0395  1.8973
  627MOL0     H84614   9.621  11.495   2.997 -0.3976 -0.0950 -0.2248
  627MOL0     H84615   9.848  11.337   2.838  1.2054  1.5058 -0.6022
  627MOL0     H84616   9.766  11.289   2.974 -0.1255 -0.5211 -1.0383
  627MOL0     H84617   9.820  11.529   3.070 -2.9313 -2.0116  0.1020
  627MOL0     H84618   9.939  11.548   2.929  1.6059 -3.3555 -2.2953
  627MOL0     H84619  10.055  11.494   3.114  1.6307 -0.3468 -1.2263
  627MOL0     H84620   9.963  11.348   3.148  1.9991 -0.2930 -1.2141
  627MOL0     H84621  10.137  11.403   2.900  5.9008 -0.4829  1.5008
  627MOL0     H84622  10.062  11.249   2.944 -2.4014  0.6140  0.1611
  627MOL0     H84623  10.283  11.412   3.097  1.6996 -0.4528 -3.0579
  627MOL0     H84624  10.187  11.285   3.169  0.1688  0.1487  0.2278
  627MOL0     H84625   9.234  11.212   2.545  0.5235 -2.2276  3.7579
  627MOL0     H84626   8.998  11.217   2.472  2.7318 -1.6692  0.5623
  627MOL0     H84627   8.529  11.668   2.627 -2.1466  1.1104 -0.4004
  627MOL0     H84628   8.343  11.728   2.452  2.1428  1.6232  2.5529
  627MOL0     H84629   6.774  11.740   1.575 -3.3504  0.0038 -1.0631
  627MOL0     H84630   6.594  11.640   1.452  1.5239 -0.0946 -1.3512
  627MOL0     H84631   6.239  11.434   1.422  1.4993 -0.2042  2.0824
  627MOL0     H84632   6.024  11.353   1.347 -1.3739 -0.4542  4.5573
  627MOL0     H84633   5.811  10.990   1.341 -0.2093 -1.1758  2.0652
  627MOL0     H84634   5.967  10.932   1.387  0.7768  0.2458 -0.5682
  627MOL0     H84635   6.038  10.921   1.145 -0.6772  0.4438 -1.4990
  627MOL0     H84636   5.870  10.958   1.107  1.2611 -0.7490 -1.9689
  627MOL0     H84637   5.911  10.724   1.072  2.5219 -2.2622 -0.2305
  627MOL0     H84638   5.809  10.738   1.210 -0.1540 -2.0636 -1.3688
  627MOL0     H84639   6.009  10.695   1.364  2.4341 -1.8457  1.0198
  627MOL0     H84640   5.982  10.573   1.237 -2.9237  0.6388 -0.4587
  627MOL0     H84641   6.369  10.665   1.114 -0.6294 -0.8991  0.1904
  627MOL0     H84642   6.168  10.949   1.329 -0.8556  0.3289 -0.9172
  627MOL0     H84643   6.515  11.032   1.388 -0.9804  1.7927 -2.8956
  627MOL0     H84644   6.420  10.956   1.517  0.9825 -0.3216 -0.1577
  627MOL0     H84645   6.393  10.905   1.355 -2.1235  0.1086  0.6944
  628MOL0     O84646   9.106  10.056   2.527 -0.9383  0.5463 -0.1311
  628MOL0     C84647   9.090  10.115   2.420 -0.0226  0.2013 -1.0312
  628MOL0     O84648   9.190  10.163   2.342 -0.0705  0.3623 -0.3223
  628MOL0     C84649   9.321  10.126   2.370  0.3787  0.1099 -0.3328
  628MOL0     C84650   9.364   9.993   2.389  0.0102 -0.1767 -0.7728
  628MOL0     C84651   9.501   9.962   2.429  0.2232  0.0961  0.5917
  628MOL0     C84652   9.596  10.060   2.426 -0.1689 -0.6382  0.4258
  628MOL0     O84653   9.727  10.047   2.450  0.3693  0.1523 -0.0468
  628MOL0     C84654   9.770   9.922   2.504 -0.1101  0.2905  1.2135
  628MOL0     C84655   9.926   9.915   2.501  0.5919 -0.3161 -0.3218
  628MOL0     C84656   9.995  10.052   2.536  0.4303  0.1538 -0.6402
  628MOL0     C84657  10.148  10.022   2.552 -1.1197 -0.2497 -0.6227
  628MOL0     C84658  10.242  10.140   2.575  0.1099 -0.6403 -0.1965
  628MOL0     C84659  10.387  10.102   2.548 -0.2092 -0.6700  0.6408
  628MOL0     C84660  10.480  10.218   2.591 -0.4832 -0.3338 -0.3740
  628MOL0     C84661  10.611  10.206   2.513 -0.0645  0.3704 -0.1470
  628MOL0     N84662  10.711  10.293   2.563 -0.9126 -0.3665 -0.5504
  628MOL0     C84663  10.779  10.292   2.683 -0.2856  0.9044  0.4315
  628MOL0     C84664  10.865  10.399   2.674 -0.1446  0.7126 -0.5354
  628MOL0     C84665  10.963  10.453   2.782 -0.1776  0.9845  0.1645
  628MOL0     C84666  11.111  10.401   2.764 -0.0023 -0.4449  0.5062
  628MOL0     C84667  11.166  10.454   2.631  0.0446  0.6046  0.3048
  628MOL0     C84668  11.321  10.470   2.645  0.8139  0.2502  0.7336
  628MOL0     O84669  11.374  10.495   2.512  0.3836  0.3800 -0.2345
  628MOL0     C84670  11.502  10.528   2.498  0.6174 -0.3750  0.8927
  628MOL0     C84671  11.595  10.530   2.604 -0.0063  0.0517  0.0237
  628MOL0     C84672  11.724  10.560   2.577 -0.2267  0.2029 -0.2093
  628MOL0     C84673  11.763  10.603   2.452 -0.6266 -0.5583  0.4146
  628MOL0     C84674  11.909  10.640   2.437 -0.5925 -0.0451  0.4691
  628MOL0     O84675  11.982  10.673   2.548  0.3480  0.2597 -0.1941
  628MOL0     C84676  12.106  10.720   2.537 -0.1147 -0.0403 -1.0841
  628MOL0     C84677  12.194  10.689   2.641 -0.1374  0.0365 -0.7448
  628MOL0     C84678  12.320  10.752   2.653 -0.7093  0.6881 -0.1803
  628MOL0     C84679  12.369  10.836   2.559 -0.2719 -0.1682 -1.0346
  628MOL0     O84680  12.492  10.876   2.591  0.7134 -0.6073 -0.3485
  628MOL0     C84681  12.528  11.006   2.540 -0.4302  0.2670  0.0782
  628MOL0     C84682  12.668  11.036   2.576 -0.7303  0.4128  0.0026
  628MOL0     C84683  12.703  11.178   2.540  1.0399 -0.5594 -0.2143
  628MOL0     C84684  12.846  11.187   2.480 -0.1096 -0.5947 -0.9207
  628MOL0     C84685  12.964  11.173   2.581  0.2908  0.3326  0.3732
  628MOL0     C84686  12.992  11.318   2.624  0.0885 -0.6542  0.3057
  628MOL0     C84687  13.077  11.322   2.746  0.1857 -0.3332 -0.0421
  628MOL0     C84688  13.093  11.458   2.813  0.1072  0.1155  0.4520
  628MOL0    Cl84689  13.155  11.574   2.701  0.2934 -0.3429  0.4268
  628MOL0     C84690  12.281  10.889   2.468  0.3178  0.1122 -0.1802
  628MOL0     C84691  12.156  10.829   2.458 -0.5461  0.5011  0.1581
  628MOL0     O84692  11.942  10.654   2.319 -0.3880  0.3916  0.2564
  628MOL0     C84693  11.672  10.600   2.342 -0.7040  0.5388 -0.2165
  628MOL0     C84694  11.539  10.557   2.368  0.8471  0.8919 -0.1857
  628MOL0     N84695  10.848  10.456   2.550  0.8528 -0.7178  0.3728
  628MOL0     N84696  10.761  10.385   2.481 -0.0324 -0.2757  0.9673
  628MOL0     C84697   9.544  10.194   2.416 -0.2807  0.0429 -1.1684
  628MOL0     C84698   9.412  10.227   2.385 -0.1667  0.1265  0.5579
  628MOL0     C84699   8.956  10.118   2.364 -0.0908  0.2369 -0.4483
  628MOL0     C84700   8.859  10.146   2.453 -0.1635 -0.6037  0.1351
  628MOL0     C84701   8.729  10.156   2.410  0.3369 -0.2780 -0.6986
  628MOL0     C84702   8.687  10.146   2.278  0.0195 -0.0025 -0.3941
  628MOL0     O84703   8.561  10.157   2.230 -0.0640  0.2206 -0.1070
  628MOL0     C84704   8.453  10.196   2.315 -0.4528  0.3683  0.0279
  628MOL0     C84705   8.331  10.216   2.233 -0.0570  0.4921  0.0650
  628MOL0     C84706   8.228  10.261   2.327  0.1382  1.2029  0.4182
  628MOL0     C84707   8.100  10.259   2.254 -0.1089 -0.3979  0.2254
  628MOL0     C84708   8.029  10.136   2.240  0.3969  0.4714  0.8058
  628MOL0     C84709   7.985  10.023   2.228 -1.0158 -0.4248 -0.9212
  628MOL0     C84710   8.780  10.101   2.188 -0.8623  0.4041  0.3268
  628MOL0     C84711   8.920  10.087   2.230 -0.2538  0.1837  0.5454
  628MOL0     C84712   9.019  10.073   2.118  0.2808  0.5879 -0.2859
  628MOL0     H84713   9.286   9.918   2.388  0.5390 -0.9472  2.4871
  628MOL0     H84714   9.525   9.859   2.454 -1.3989 -0.4490 -0.0167
  628MOL0     H84715   9.739   9.905   2.607  2.7867 -0.9115  1.9852
  628MOL0     H84716   9.749   9.835   2.442  1.4342  0.6758  0.0812
  628MOL0     H84717   9.955   9.871   2.405 -0.6867 -2.9023  0.3901
  628MOL0     H84718   9.962   9.841   2.573 -1.5333 -0.2022  0.9434
  628MOL0     H84719   9.947  10.095   2.625 -0.9095 -0.9957 -0.7583
  628MOL0     H84720   9.975  10.125   2.457 -1.7940 -1.3940 -1.6338
  628MOL0     H84721  10.159   9.961   2.642  1.6539  1.6490  0.4441
  628MOL0     H84722  10.186   9.970   2.463  0.4605  0.0936 -0.1813
  628MOL0     H84723  10.212  10.216   2.502  0.9626 -1.7606 -1.7722
  628MOL0     H84724  10.232  10.186   2.674 -2.2554  3.6275 -2.1537
  628MOL0     H84725  10.409  10.020   2.617  1.3018  1.1207  2.4168
  628MOL0     H84726  10.403  10.078   2.443 -0.9986 -0.0274  0.3626
  628MOL0     H84727  10.498  10.202   2.698 -1.3458 -0.1184 -0.1907
  628MOL0     H84728  10.433  10.316   2.579  3.0317  1.3771 -1.8930
  628MOL0     H84729  10.648  10.103   2.506  2.0903  1.0918 -0.1486
  628MOL0     H84730  10.586  10.239   2.412 -0.7357  1.6764  0.4214
  628MOL0     H84731  10.768  10.217   2.761 -0.9516  0.6933  0.1443
  628MOL0     H84732  10.962  10.562   2.794  1.7658  1.0562  0.0972
  628MOL0     H84733  10.922  10.404   2.870  0.2512 -1.0576 -0.7203
  628MOL0     H84734  11.164  10.445   2.849  0.5644  2.5069 -1.2244
  628MOL0     H84735  11.109  10.292   2.763 -1.1240 -0.4720 -1.7383
  628MOL0     H84736  11.114  10.547   2.606  0.5383  0.2298 -2.4035
  628MOL0     H84737  11.145  10.387   2.547 -0.8573  2.3453 -0.9284
  628MOL0     H84738  11.361  10.377   2.685  3.0094  0.2401 -1.2629
  628MOL0     H84739  11.340  10.561   2.703 -1.2594  0.2847  1.4452
  628MOL0     H84740  11.570  10.489   2.701 -0.7653 -1.5285 -0.7994
  628MOL0     H84741  11.797  10.558   2.657 -0.7294  0.0214  0.2483
  628MOL0     H84742  12.162  10.618   2.717  4.2382  0.5953  1.9418
  628MOL0     H84743  12.379  10.735   2.742 -0.0208 -0.0491 -0.7616
  628MOL0     H84744  12.509  10.996   2.433  0.1361  0.9910 -0.0948
  628MOL0     H84745  12.456  11.080   2.574 -2.1358 -0.7670 -1.1180
  628MOL0     H84746  12.678  11.026   2.684 -3.1892 -0.7578  0.2043
  628MOL0     H84747  12.734  10.965   2.526  0.3603  1.8906 -0.7404
  628MOL0     H84748  12.633  11.217   2.465  0.2594 -0.0518  0.7633
  628MOL0     H84749  12.689  11.235   2.632  0.3260 -3.2923  1.4969
  628MOL0     H84750  12.846  11.286   2.434 -1.1724 -0.2516 -0.2086
  628MOL0     H84751  12.863  11.105   2.409  0.0311 -0.2056 -1.3369
  628MOL0     H84752  13.057  11.135   2.539  0.8113  3.1715 -1.2877
  628MOL0     H84753  12.939  11.106   2.664 -0.7402 -0.7447 -0.7799
  628MOL0     H84754  13.049  11.371   2.547  0.1646  0.5725  1.1739
  628MOL0     H84755  12.899  11.371   2.648 -0.4492 -2.3370  2.2220
  628MOL0     H84756  13.176  11.288   2.713  0.0823  1.2812 -2.2450
  628MOL0     H84757  13.037  11.245   2.813 -0.0862  0.6877  0.9964
  628MOL0     H84758  13.000  11.491   2.860 -1.3235 -1.1763 -1.3824
  628MOL0     H84759  13.162  11.446   2.898 -0.1377 -0.9713  0.5094
  628MOL0     H84760  12.317  10.963   2.397 -4.3412  1.2779 -1.7086
  628MOL0     H84761  12.089  10.867   2.382 -0.4472  1.1803  0.3992
  628MOL0     H84762  11.709  10.609   2.241  2.3183  0.9606  0.8131
  628MOL0     H84763  11.460  10.544   2.294  2.8586 -2.3448 -2.0123
  628MOL0     H84764   9.616  10.274   2.417  0.9557 -0.9603  1.8546
  628MOL0     H84765   9.378  10.329   2.368 -1.7533 -0.4697 -0.1389
  628MOL0     H84766   8.887  10.173   2.554  1.8886 -1.3322 -0.1857
  628MOL0     H84767   8.649  10.166   2.483  1.1637  0.0910  0.1903
  628MOL0     H84768   8.474  10.292   2.362  2.1732 -0.3111  0.3763
  628MOL0     H84769   8.438  10.117   2.389  3.7981 -1.4624 -0.7800
  628MOL0     H84770   8.304  10.119   2.191 -0.0047 -0.8273  2.8137
  628MOL0     H84771   8.348  10.283   2.149 -1.5317 -0.5794 -1.1453
  628MOL0     H84772   8.244  10.362   2.367 -1.8533  1.4636  0.6826
  628MOL0     H84773   8.219  10.189   2.408  0.3458 -0.3405 -0.8815
  628MOL0     H84774   8.039  10.323   2.319 -1.6316 -1.4035 -0.1508
  628MOL0     H84775   8.106  10.296   2.152 -0.1455 -1.9531 -0.3658
  628MOL0     H84776   7.952   9.923   2.207 -2.4101 -0.5252  1.4005
  628MOL0     H84777   8.753  10.088   2.083 -0.4759  4.1485 -0.3742
  628MOL0     H84778   9.100  10.010   2.156  0.8748  1.3046 -0.3464
  628MOL0     H84779   8.973  10.021   2.033 -1.0731 -0.4037  0.9927
  628MOL0     H84780   9.060  10.169   2.086  1.2000  0.9179  1.7541
  629MOL0     O84781   5.465   1.487   8.370  0.3093 -0.6064  0.3925
  629MOL0     C84782   5.497   1.385   8.313  0.4491  0.2260  1.0539
  629MOL0     O84783   5.428   1.308   8.213 -0.3279 -0.4822  0.0195
  629MOL0     C84784   5.310   1.342   8.166 -0.0954 -0.6380 -0.0345
  629MOL0     C84785   5.243   1.470   8.173 -0.5810  0.6445  0.9428
  629MOL0     C84786   5.105   1.491   8.155 -0.3265  0.3778 -0.0745
  629MOL0     C84787   5.020   1.387   8.127  0.3898  0.8278  1.1524
  629MOL0     O84788   4.883   1.399   8.126  0.0537  0.1349  0.3911
  629MOL0     C84789   4.836   1.482   8.017  0.7075  0.0734 -0.4769
  629MOL0     C84790   4.854   1.427   7.879 -0.5521  0.5100 -0.1217
  629MOL0     C84791   4.815   1.274   7.868  0.2974 -0.5929 -0.3611
  629MOL0     C84792   4.876   1.221   7.739  0.3951 -0.5530  0.3179
  629MOL0     C84793   4.828   1.080   7.700 -0.3248 -0.4230 -0.3223
  629MOL0     C84794   4.891   1.040   7.570  0.5045  0.0803 -0.9927
  629MOL0     C84795   4.812   0.961   7.470  0.3778 -0.0098  0.2664
  629MOL0     C84796   4.800   0.816   7.513 -0.8878 -0.0655 -0.1390
  629MOL0     N84797   4.924   0.749   7.516 -0.7207 -0.5979  0.2828
  629MOL0     C84798   4.990   0.720   7.633  0.1480 -1.4398 -0.1918
  629MOL0     C84799   5.109   0.676   7.587  0.3985 -0.0452  0.7528
  629MOL0     C84800   5.221   0.643   7.668  0.0962 -0.3494 -0.1663
  629MOL0     C84801   5.310   0.758   7.705  0.4062  0.3042 -0.0514
  629MOL0     C84802   5.234   0.893   7.742 -1.2220  0.3029  0.5024
  629MOL0     C84803   5.340   1.006   7.774  0.7491 -0.0174  0.0502
  629MOL0     O84804   5.427   0.962   7.879 -0.5843  0.2069  0.3188
  629MOL0     C84805   5.547   1.020   7.882 -0.4984 -0.0518 -0.3434
  629MOL0     C84806   5.635   0.952   7.961 -1.3291  1.4851 -1.4024
  629MOL0     C84807   5.773   0.986   7.987 -0.5781 -0.0702  0.7414
  629MOL0     C84808   5.822   1.097   7.915 -0.0325  0.1943  0.4889
  629MOL0     C84809   5.966   1.133   7.920  0.3893 -0.0550  0.0148
  629MOL0     O84810   6.007   1.257   7.874 -0.4117  0.0021  0.0076
  629MOL0     C84811   6.143   1.279   7.879  0.0822  0.0868  1.3760
  629MOL0     C84812   6.180   1.404   7.915  0.1034  0.2325 -0.4170
  629MOL0     C84813   6.314   1.436   7.927 -0.1245 -0.0772 -0.1756
  629MOL0     C84814   6.421   1.349   7.913  0.5161 -0.8303 -0.2736
  629MOL0     O84815   6.548   1.398   7.939 -0.2702  0.5263 -0.5891
  629MOL0     C84816   6.654   1.296   7.944 -0.2049 -0.0038 -0.5256
  629MOL0     C84817   6.778   1.369   7.998  0.8597 -0.1090  0.2082
  629MOL0     C84818   6.765   1.388   8.148  0.6412  0.6918  1.0664
  629MOL0     C84819   6.893   1.452   8.199 -0.4598  1.0290 -0.5615
  629MOL0     C84820   6.888   1.468   8.352  0.4109 -0.6119 -0.3142
  629MOL0     C84821   6.828   1.597   8.404  0.0038  0.6505  1.3477
  629MOL0     C84822   6.829   1.610   8.561 -0.6464 -0.5857 -0.0065
  629MOL0     C84823   6.778   1.748   8.599 -0.1808  0.0717 -0.0795
  629MOL0    Cl84824   6.787   1.760   8.770  0.0611  0.0193 -0.2478
  629MOL0     C84825   6.390   1.225   7.864  0.4537 -0.3998 -0.5296
  629MOL0     C84826   6.255   1.194   7.842  0.2936  0.2424 -0.8110
  629MOL0     O84827   6.037   1.058   7.981 -0.6375  0.2057  0.3290
  629MOL0     C84828   5.736   1.178   7.836 -0.0387 -1.0089  0.0833
  629MOL0     C84829   5.598   1.130   7.821 -0.3244 -1.0733 -0.2854
  629MOL0     N84830   5.115   0.675   7.447  0.8219  0.2431 -0.2368
  629MOL0     N84831   5.002   0.727   7.410 -0.4301  0.3538  0.1461
  629MOL0     C84832   5.078   1.259   8.120  0.4843  0.8794 -1.0881
  629MOL0     C84833   5.217   1.238   8.127  0.1231  0.4279 -0.3425
  629MOL0     C84834   5.625   1.315   8.344 -0.2267  0.0930 -0.5893
  629MOL0     C84835   5.671   1.211   8.265  0.3129 -0.6588 -0.3183
  629MOL0     C84836   5.790   1.148   8.293 -0.8538  0.2513 -0.0412
  629MOL0     C84837   5.874   1.197   8.385 -0.4973 -0.1595  0.0154
  629MOL0     O84838   6.010   1.174   8.400  0.4378 -0.1382 -0.8159
  629MOL0     C84839   6.072   1.121   8.287  0.0752 -0.3110  0.1655
  629MOL0     C84840   6.220   1.142   8.292  0.5332 -0.0788 -0.0801
  629MOL0     C84841   6.259   1.292   8.291 -0.4509  0.2650 -0.5511
  629MOL0     C84842   6.403   1.321   8.294 -0.2262  0.1987 -0.2486
  629MOL0     C84843   6.463   1.289   8.423  0.1445  0.9797 -1.2364
  629MOL0     C84844   6.525   1.240   8.514 -0.5636  0.7262  0.6199
  629MOL0     C84845   5.828   1.298   8.466  0.6246  0.1393 -0.8312
  629MOL0     C84846   5.708   1.354   8.452  0.2041 -0.2881  0.2036
  629MOL0     C84847   5.686   1.472   8.542  0.2908  0.6637  0.4398
  629MOL0     H84848   5.292   1.561   8.206  2.3396 -0.1377 -0.8432
  629MOL0     H84849   5.070   1.593   8.164 -1.6659 -0.0880  0.2407
  629MOL0     H84850   4.730   1.501   8.033  0.9587  0.2215  1.1756
  629MOL0     H84851   4.885   1.580   8.022  1.8285 -0.4734 -0.4832
  629MOL0     H84852   4.961   1.432   7.857 -0.5910  0.5864 -0.2981
  629MOL0     H84853   4.803   1.483   7.800 -0.4307  2.2929  1.0118
  629MOL0     H84854   4.707   1.259   7.862  0.1530  0.4488 -0.4930
  629MOL0     H84855   4.858   1.225   7.956  1.1366 -0.9276 -0.9456
  629MOL0     H84856   4.850   1.286   7.655 -3.7310  1.6719  2.9968
  629MOL0     H84857   4.983   1.201   7.747  0.6681 -0.2836 -1.9122
  629MOL0     H84858   4.843   1.006   7.780 -1.1663 -2.2207 -1.7627
  629MOL0     H84859   4.719   1.080   7.698 -0.3735 -0.1889  1.0545
  629MOL0     H84860   4.919   1.130   7.514  0.8380 -1.9772 -4.4086
  629MOL0     H84861   4.988   0.995   7.593 -0.1766 -0.0314  2.0326
  629MOL0     H84862   4.863   0.965   7.374  0.0675  0.8072  0.1249
  629MOL0     H84863   4.712   1.003   7.455  0.8941  0.8732 -0.7794
  629MOL0     H84864   4.753   0.809   7.612  2.4211  1.3833  1.7064
  629MOL0     H84865   4.726   0.755   7.460 -1.7789  1.2406 -0.4494
  629MOL0     H84866   4.965   0.739   7.737  3.4482 -1.5282  0.7321
  629MOL0     H84867   5.189   0.583   7.754  2.8916 -1.4104  0.2630
  629MOL0     H84868   5.275   0.572   7.604  0.1520  0.1085 -0.6340
  629MOL0     H84869   5.363   0.743   7.799 -2.1152  1.6794  1.7271
  629MOL0     H84870   5.376   0.779   7.620  0.9561  0.3503  0.3834
  629MOL0     H84871   5.163   0.883   7.826 -0.5614  2.9962  1.4681
  629MOL0     H84872   5.189   0.928   7.649  2.6204  1.3498 -1.1229
  629MOL0     H84873   5.301   1.104   7.803  0.9135  0.4262 -1.1578
  629MOL0     H84874   5.384   1.032   7.678 -0.6700 -0.2006 -0.6835
  629MOL0     H84875   5.599   0.866   8.016  0.0339  3.1556  2.4242
  629MOL0     H84876   5.840   0.926   8.049  1.1059  1.7275  0.7612
  629MOL0     H84877   6.104   1.480   7.934  1.6558  1.2016  2.6049
  629MOL0     H84878   6.346   1.533   7.965  0.0915  0.4600 -1.6783
  629MOL0     H84879   6.633   1.215   8.015  0.1906  3.7541  4.3935
  629MOL0     H84880   6.681   1.261   7.844  0.8776  1.7343 -0.8944
  629MOL0     H84881   6.864   1.308   7.969  1.9383  0.0867  2.7340
  629MOL0     H84882   6.783   1.469   7.953 -1.2984  0.2458  0.6453
  629MOL0     H84883   6.676   1.447   8.174 -0.8079 -1.6456  1.7096
  629MOL0     H84884   6.752   1.287   8.188 -0.4505  0.0185 -0.8335
  629MOL0     H84885   6.918   1.544   8.147 -1.3379 -0.0708 -3.0784
  629MOL0     H84886   6.982   1.392   8.179 -1.7398 -1.3132  0.3298
  629MOL0     H84887   6.993   1.471   8.385  1.0433  2.5507 -2.1768
  629MOL0     H84888   6.837   1.385   8.401  0.3292 -0.8856 -0.8541
  629MOL0     H84889   6.894   1.677   8.367 -1.9818  1.5333 -0.4606
  629MOL0     H84890   6.730   1.606   8.357  0.1488  3.9346  1.4437
  629MOL0     H84891   6.934   1.596   8.588 -0.1598  0.4055 -1.2722
  629MOL0     H84892   6.771   1.536   8.617 -2.0572  0.0434 -0.5695
  629MOL0     H84893   6.844   1.820   8.550  0.0970  0.3185  0.6421
  629MOL0     H84894   6.676   1.769   8.567 -0.3082 -0.2440  0.1111
  629MOL0     H84895   6.462   1.145   7.855  3.4342  1.4010  3.9125
  629MOL0     H84896   6.230   1.095   7.805  1.6845  0.2193 -1.7523
  629MOL0     H84897   5.765   1.275   7.798  1.0992 -1.7581 -1.0503
  629MOL0     H84898   5.523   1.188   7.769 -1.0198  0.5892  2.3779
  629MOL0     H84899   5.016   1.172   8.098  3.9074 -1.6836 -1.4751
  629MOL0     H84900   5.253   1.136   8.119 -1.3703 -0.1066 -0.4333
  629MOL0     H84901   5.617   1.173   8.179 -0.2144  2.0050 -1.2578
  629MOL0     H84902   5.823   1.062   8.235 -0.8589  0.9931 -1.1619
  629MOL0     H84903   6.040   1.170   8.195 -3.3990  0.7959  1.7844
  629MOL0     H84904   6.066   1.012   8.285  3.1751 -0.5716 -0.0582
  629MOL0     H84905   6.268   1.078   8.217 -0.2649 -3.0364  1.7511
  629MOL0     H84906   6.255   1.098   8.386  0.5840 -2.7577 -1.2611
  629MOL0     H84907   6.212   1.347   8.373  0.5432 -1.4557  1.2437
  629MOL0     H84908   6.228   1.335   8.195  0.8476  2.7179  0.0347
  629MOL0     H84909   6.443   1.253   8.218  2.3800  0.2649  0.9476
  629MOL0     H84910   6.420   1.425   8.267  1.0146  1.1167  3.4913
  629MOL0     H84911   6.569   1.171   8.583 -1.6031 -1.0241 -0.3907
  629MOL0     H84912   5.893   1.344   8.540  2.0552 -0.5288 -1.6149
  629MOL0     H84913   5.583   1.472   8.580 -0.4752  0.4171 -1.5337
  629MOL0     H84914   5.761   1.486   8.621  1.2771  1.9662 -0.6807
  629MOL0     H84915   5.683   1.554   8.470 -0.8152 -0.1089 -0.4390
  630MOL0     O84916   9.758   5.326   5.162  0.3815 -0.1295 -0.5545
  630MOL0     C84917   9.655   5.286   5.222  0.1818  0.1856 -0.7482
  630MOL0     O84918   9.622   5.155   5.248 -0.2388  0.3601  0.2321
  630MOL0     C84919   9.717   5.057   5.240 -0.1007  0.1040  1.0667
  630MOL0     C84920   9.825   5.060   5.328  0.4522  0.1964 -0.0016
  630MOL0     C84921   9.932   4.978   5.315 -0.0242  0.2345  0.5478
  630MOL0     C84922   9.925   4.869   5.221  0.1906  0.2388 -0.3377
  630MOL0     O84923  10.024   4.778   5.229 -0.6286 -0.4504 -0.6179
  630MOL0     C84924   9.997   4.633   5.212  0.2388 -0.7361 -0.2541
  630MOL0     C84925  10.113   4.543   5.245 -0.6543  0.3840  0.4047
  630MOL0     C84926  10.238   4.582   5.163  0.2997 -0.2438 -0.4097
  630MOL0     C84927  10.357   4.493   5.195 -0.8498 -0.3296  0.9315
  630MOL0     C84928  10.486   4.542   5.118 -0.9536 -0.0406 -0.5804
  630MOL0     C84929  10.607   4.445   5.135  0.0605  0.2078  0.2112
  630MOL0     C84930  10.614   4.391   5.279 -0.1158 -0.6880  0.6548
  630MOL0     C84931  10.752   4.318   5.306 -0.2652 -0.4594 -0.0633
  630MOL0     N84932  10.736   4.174   5.294  0.1946 -0.0928  0.4964
  630MOL0     C84933  10.698   4.087   5.396 -0.1523 -0.5008  0.6121
  630MOL0     C84934  10.688   3.967   5.334  0.3390  1.4642 -0.2557
  630MOL0     C84935  10.645   3.844   5.415  0.2870 -0.4726 -0.3332
  630MOL0     C84936  10.647   3.706   5.347  0.1489  0.1160 -0.7015
  630MOL0     C84937  10.781   3.641   5.336  0.0847  0.1553  0.2449
  630MOL0     C84938  10.876   3.702   5.234  0.8111 -0.3599  0.7560
  630MOL0     O84939  10.995   3.626   5.241 -0.2017  0.7752  0.6492
  630MOL0     C84940  11.103   3.665   5.319  0.9865  0.0736  0.5329
  630MOL0     C84941  11.226   3.630   5.280 -0.1464 -0.3271 -0.1041
  630MOL0     C84942  11.340   3.674   5.355 -0.1445 -0.0278 -0.0654
  630MOL0     C84943  11.325   3.761   5.468  0.6052  0.6261 -0.2193
  630MOL0     C84944  11.439   3.812   5.547 -0.0696  0.2105 -0.4312
  630MOL0     O84945  11.417   3.928   5.617 -0.0349  0.2565 -0.4583
  630MOL0     C84946  11.533   3.983   5.658  0.2796 -0.1587 -0.0926
  630MOL0     C84947  11.583   4.081   5.570 -0.3750 -0.0320  0.2046
  630MOL0     C84948  11.705   4.149   5.602  1.7333  0.7226  0.2878
  630MOL0     C84949  11.775   4.124   5.721 -0.4347  0.3611  0.3642
  630MOL0     O84950  11.889   4.202   5.741 -0.3959 -0.4016 -0.2582
  630MOL0     C84951  11.866   4.315   5.821  0.3412 -0.4852 -0.4789
  630MOL0     C84952  11.996   4.395   5.850  0.8600  0.9173  0.9920
  630MOL0     C84953  12.068   4.312   5.960  0.4948  0.6417  0.7355
  630MOL0     C84954  12.198   4.389   5.978 -0.4983  0.4428 -0.1827
  630MOL0     C84955  12.307   4.318   6.060  0.0132 -0.7041  0.7782
  630MOL0     C84956  12.438   4.392   6.040  0.3717  0.2007  0.7953
  630MOL0     C84957  12.558   4.313   6.112 -0.7173 -0.3837 -0.5336
  630MOL0     C84958  12.686   4.406   6.108 -0.2653  0.2293  0.3761
  630MOL0    Cl84959  12.662   4.557   6.206 -0.2234 -0.2724  0.5637
  630MOL0     C84960  11.723   4.022   5.808 -0.0137 -0.4638  0.3338
  630MOL0     C84961  11.605   3.952   5.775 -0.0464 -0.6055  0.4544
  630MOL0     O84962  11.542   3.741   5.550 -0.3107 -0.7423  0.2128
  630MOL0     C84963  11.194   3.791   5.505  0.0629  0.1077 -0.0371
  630MOL0     C84964  11.090   3.748   5.428  0.2760 -0.3758  0.3386
  630MOL0     N84965  10.710   3.981   5.200 -0.0002 -0.2104 -0.6295
  630MOL0     N84966  10.729   4.104   5.176  0.3615  0.4574  0.4964
  630MOL0     C84967   9.807   4.852   5.153  0.0725  0.4332  0.3657
  630MOL0     C84968   9.700   4.948   5.160  0.4579 -0.2835  0.1532
  630MOL0     C84969   9.547   5.378   5.269  0.2613 -1.2449 -0.3075
  630MOL0     C84970   9.499   5.479   5.174  0.2665  0.2126 -0.1452
  630MOL0     C84971   9.391   5.562   5.203 -1.4009 -0.4285  0.2168
  630MOL0     C84972   9.346   5.553   5.333  0.4777  0.1934 -0.2549
  630MOL0     O84973   9.235   5.612   5.387 -0.1656 -0.0130 -0.3852
  630MOL0     C84974   9.138   5.680   5.304  0.5850 -0.1463  0.3457
  630MOL0     C84975   9.016   5.720   5.384 -0.0841 -0.8413 -0.0436
  630MOL0     C84976   8.946   5.607   5.462 -0.2777 -0.4106  0.2074
  630MOL0     C84977   8.880   5.498   5.378 -0.3908  0.0328  0.5570
  630MOL0     C84978   8.768   5.544   5.295 -0.4200 -0.1719 -0.2299
  630MOL0     C84979   8.689   5.574   5.213 -0.3751  0.2626 -0.0593
  630MOL0     C84980   9.395   5.467   5.427 -0.8732  0.2634 -0.5382
  630MOL0     C84981   9.495   5.367   5.400 -1.4035  0.1781  0.3747
  630MOL0     C84982   9.547   5.270   5.510 -0.7998  1.2289 -0.5238
  630MOL0     H84983   9.825   5.135   5.407  1.1990  0.0322  0.1575
  630MOL0     H84984  10.013   4.985   5.387  0.2898  0.6755  0.1574
  630MOL0     H84985   9.905   4.607   5.264 -0.8693  1.3946 -1.0241
  630MOL0     H84986   9.970   4.617   5.107 -0.8262 -2.0679  0.1987
  630MOL0     H84987  10.085   4.441   5.217  1.3787 -0.6775  2.0238
  630MOL0     H84988  10.133   4.536   5.352 -1.8464  1.6490  0.7468
  630MOL0     H84989  10.262   4.684   5.192 -2.1464  0.0488  0.8791
  630MOL0     H84990  10.221   4.586   5.055  1.6712 -0.1943 -0.6392
  630MOL0     H84991  10.371   4.515   5.301 -2.1072  1.2304  0.8111
  630MOL0     H84992  10.340   4.389   5.165 -0.2758  0.2494 -1.7165
  630MOL0     H84993  10.474   4.558   5.011 -0.3667  0.2616 -0.6050
  630MOL0     H84994  10.512   4.640   5.159 -1.4983 -0.0622 -0.1588
  630MOL0     H84995  10.596   4.355   5.073  1.5837 -0.3542  0.7253
  630MOL0     H84996  10.698   4.500   5.111  0.9363 -1.3521 -0.2101
  630MOL0     H84997  10.533   4.320   5.299  1.2818 -1.8616  2.4071
  630MOL0     H84998  10.607   4.475   5.349  1.2470 -1.8437  2.2365
  630MOL0     H84999  10.836   4.360   5.250  0.3802 -2.5214 -0.6939
  630MOL0     H85000  10.783   4.323   5.411 -0.0453  0.2885 -0.1565
  630MOL0     H85001  10.672   4.112   5.498  0.3042  0.9311  0.4128
  630MOL0     H85002  10.708   3.836   5.504  0.0813  0.3327 -0.1147
  630MOL0     H85003  10.539   3.858   5.440  0.1658  1.3977 -1.7137
  630MOL0     H85004  10.574   3.646   5.403  0.1350  0.5980 -0.2017
  630MOL0     H85005  10.605   3.704   5.246  2.1916 -0.1297 -1.5993
  630MOL0     H85006  10.757   3.538   5.310  1.9701 -0.5624  1.1313
  630MOL0     H85007  10.828   3.634   5.434 -1.5954 -1.5231  0.9717
  630MOL0     H85008  10.892   3.807   5.258 -0.8472 -0.0520  0.6526
  630MOL0     H85009  10.841   3.698   5.130  2.5077 -1.5348  0.1778
  630MOL0     H85010  11.237   3.567   5.192 -3.7369  1.3785 -1.9891
  630MOL0     H85011  11.440   3.643   5.326  0.1819 -0.7036  1.6384
  630MOL0     H85012  11.526   4.103   5.480 -1.1333  1.2517  0.9628
  630MOL0     H85013  11.748   4.215   5.527  0.1266  0.1754 -1.1853
  630MOL0     H85014  11.810   4.381   5.754 -0.5343 -1.7532 -1.0381
  630MOL0     H85015  11.802   4.291   5.907  1.8727 -1.0386  0.5583
  630MOL0     H85016  12.059   4.405   5.762 -1.8612  1.1849 -1.0493
  630MOL0     H85017  11.975   4.491   5.898 -0.3468  1.2614 -0.1631
  630MOL0     H85018  12.016   4.301   6.056  2.5560 -0.2196  1.8030
  630MOL0     H85019  12.084   4.217   5.910 -3.8577  0.8307 -1.5502
  630MOL0     H85020  12.163   4.477   6.031 -1.3930 -0.2167  0.3515
  630MOL0     H85021  12.240   4.407   5.878 -0.1989 -2.3624 -0.6703
  630MOL0     H85022  12.325   4.218   6.019 -2.4172 -0.9830  0.2570
  630MOL0     H85023  12.273   4.305   6.163 -1.5296  2.3081  0.7780
  630MOL0     H85024  12.466   4.403   5.935  0.6809 -0.5132  0.7968
  630MOL0     H85025  12.428   4.487   6.094  0.0838 -0.6671  2.3321
  630MOL0     H85026  12.580   4.224   6.052 -1.6646 -0.7692 -0.3235
  630MOL0     H85027  12.536   4.282   6.214  1.9439 -2.0282 -0.3579
  630MOL0     H85028  12.765   4.345   6.152  2.2181  1.3557 -2.2536
  630MOL0     H85029  12.719   4.423   6.005  0.1249 -3.7481 -0.3243
  630MOL0     H85030  11.768   4.017   5.906  3.1577  2.5185 -0.7615
  630MOL0     H85031  11.571   3.886   5.855  1.5526 -3.2895 -0.9536
  630MOL0     H85032  11.186   3.834   5.604 -0.5961 -1.9405  0.8357
  630MOL0     H85033  10.995   3.774   5.475 -0.0588  1.2646 -1.1362
  630MOL0     H85034   9.798   4.764   5.090  2.1782 -0.3666  1.0884
  630MOL0     H85035   9.614   4.946   5.093  0.0549  0.5278  0.6327
  630MOL0     H85036   9.546   5.500   5.078  0.6147  0.7377  0.1359
  630MOL0     H85037   9.344   5.632   5.135  0.9484  0.2621 -0.8051
  630MOL0     H85038   9.095   5.616   5.227 -1.9558 -0.0602  1.6029
  630MOL0     H85039   9.181   5.762   5.244 -0.2915 -0.0716 -0.2028
  630MOL0     H85040   8.951   5.764   5.308  0.5844 -0.3786 -0.3561
  630MOL0     H85041   9.045   5.802   5.449 -0.9309 -1.4439  1.1413
  630MOL0     H85042   8.869   5.657   5.522  0.0095  0.7594 -0.3837
  630MOL0     H85043   9.016   5.572   5.538  0.2710 -1.4796 -0.7526
  630MOL0     H85044   8.952   5.459   5.306 -1.1918  0.9067 -0.7607
  630MOL0     H85045   8.851   5.419   5.448  1.2093 -0.6478  0.4835
  630MOL0     H85046   8.609   5.600   5.146 -1.8501 -0.8772  1.1577
  630MOL0     H85047   9.357   5.466   5.529  3.6899 -0.0128  1.4120
  630MOL0     H85048   9.520   5.313   5.608  0.4828  2.0844 -0.5176
  630MOL0     H85049   9.494   5.175   5.497  0.1367  0.2032  2.3742
  630MOL0     H85050   9.655   5.253   5.513 -1.3035 -3.0035 -0.2462
  631MOL0     O85051   0.558  10.285   2.753 -0.1150 -0.5465 -0.1447
  631MOL0     C85052   0.511  10.203   2.670 -0.4729  0.1860  0.1991
  631MOL0     O85053   0.581  10.164   2.554 -0.7894  0.5193  0.2068
  631MOL0     C85054   0.718  10.187   2.553 -0.1652  0.4849  0.0496
  631MOL0     C85055   0.806  10.077   2.560 -0.4908 -0.0782 -1.3266
  631MOL0     C85056   0.949  10.091   2.564  0.5269 -0.2087  0.4890
  631MOL0     C85057   1.006  10.224   2.569 -0.0030  0.1194 -0.8433
  631MOL0     O85058   1.138  10.262   2.567 -0.6296 -0.1063  0.6335
  631MOL0     C85059   1.222  10.155   2.620 -0.0498 -0.8812  0.0812
  631MOL0     C85060   1.365  10.190   2.680  0.7431 -0.1489  0.1017
  631MOL0     C85061   1.449  10.278   2.593 -0.0035 -0.6725  0.0048
  631MOL0     C85062   1.587  10.306   2.660  0.1296  0.1844  0.3948
  631MOL0     C85063   1.701  10.318   2.552  0.0451  0.1655  0.2808
  631MOL0     C85064   1.823  10.368   2.631  0.4825  0.6524  0.7766
  631MOL0     C85065   1.943  10.351   2.541 -0.0220  0.1925  0.2765
  631MOL0     C85066   2.078  10.375   2.604  0.1511  0.6877 -0.1756
  631MOL0     N85067   2.181  10.346   2.502  0.9242 -0.0573 -0.3725
  631MOL0     C85068   2.267  10.237   2.528  0.4448 -0.7357  0.2720
  631MOL0     C85069   2.371  10.257   2.453  0.2451 -0.4480 -0.1777
  631MOL0     C85070   2.504  10.184   2.453  0.4007  0.3027 -0.6349
  631MOL0     C85071   2.481  10.030   2.460  0.3471 -0.8150 -0.1311
  631MOL0     C85072   2.611   9.954   2.430  0.2304  0.1339 -0.2114
  631MOL0     C85073   2.723   9.982   2.539  0.2256  0.3973 -0.2670
  631MOL0     O85074   2.848   9.937   2.482 -0.7846  0.2845  0.7243
  631MOL0     C85075   2.962   9.949   2.559  0.6549 -0.0085  1.0942
  631MOL0     C85076   2.981   9.983   2.693  0.0988  0.3746 -1.2921
  631MOL0     C85077   3.112   9.986   2.750 -0.3747  0.1880  0.5160
  631MOL0     C85078   3.228   9.989   2.659  0.0201 -0.3046 -0.2543
  631MOL0     C85079   3.366  10.010   2.713 -0.6893  0.3445  1.1868
  631MOL0     O85080   3.365  10.065   2.832  0.1870  0.2405 -0.5971
  631MOL0     C85081   3.486  10.106   2.883 -1.2266  0.2228  0.5676
  631MOL0     C85082   3.533  10.056   3.003 -0.0706 -0.2988 -0.3693
  631MOL0     C85083   3.658  10.092   3.055  0.5224  0.0104  0.4808
  631MOL0     C85084   3.726  10.193   2.992 -0.7576 -0.9553  0.4006
  631MOL0     O85085   3.844  10.238   3.049 -0.4199  0.0287 -0.0112
  631MOL0     C85086   3.951  10.283   2.955 -0.1382  0.1669  1.5669
  631MOL0     C85087   4.090  10.261   3.008 -0.9171  0.3726  0.2813
  631MOL0     C85088   4.197  10.279   2.899  0.5455 -0.1675  0.6576
  631MOL0     C85089   4.340  10.268   2.961  0.1565  0.6540 -0.7194
  631MOL0     C85090   4.453  10.328   2.880  0.1121 -0.2805 -0.5945
  631MOL0     C85091   4.581  10.331   2.961  0.7232  0.8085 -0.0110
  631MOL0     C85092   4.720  10.354   2.887  0.0626 -0.0719 -0.3197
  631MOL0     C85093   4.821  10.428   2.966  0.0479 -0.3402 -0.4116
  631MOL0    Cl85094   4.879  10.342   3.113  0.3290 -0.1758  0.2730
  631MOL0     C85095   3.680  10.245   2.867  1.0166 -0.9126 -0.1771
  631MOL0     C85096   3.561  10.200   2.813  0.4020 -0.1463 -0.8301
  631MOL0     O85097   3.468   9.990   2.639  0.8148  0.3243 -0.2873
  631MOL0     C85098   3.209   9.967   2.526  0.7577 -0.5764  0.5962
  631MOL0     C85099   3.081   9.927   2.480 -0.2811 -0.4723 -0.5992
  631MOL0     N85100   2.349  10.376   2.380  0.0687  0.2808 -0.0919
  631MOL0     N85101   2.239  10.435   2.422 -0.0405 -0.3590 -0.0656
  631MOL0     C85102   0.921  10.329   2.557  0.5526 -0.3709  0.2587
  631MOL0     C85103   0.780  10.317   2.553  0.2680 -0.1300  0.6808
  631MOL0     C85104   0.371  10.153   2.689  1.0972 -0.5471  0.7317
  631MOL0     C85105   0.297  10.130   2.568  0.5819 -0.0381  0.0672
  631MOL0     C85106   0.163  10.086   2.568 -0.2069 -0.0862  0.9119
  631MOL0     C85107   0.107  10.060   2.692  0.1237  0.6879  1.0018
  631MOL0     O85108  -0.021  10.018   2.706 -0.0259  0.2567 -0.7878
  631MOL0     C85109  -0.119  10.026   2.600  0.6713  0.8794  1.1445
  631MOL0     C85110  -0.258   9.993   2.658  0.2046 -0.6891  0.8996
  631MOL0     C85111  -0.277   9.847   2.705  0.2283  0.1838 -0.3011
  631MOL0     C85112  -0.413   9.837   2.771 -0.0917 -0.1282  0.1107
  631MOL0     C85113  -0.535   9.846   2.677 -0.6079 -0.7834 -0.5781
  631MOL0     C85114  -0.632   9.849   2.607  0.4527 -0.3735 -0.1785
  631MOL0     C85115   0.183  10.062   2.808 -0.1185 -0.4051 -0.2480
  631MOL0     C85116   0.307  10.107   2.818 -1.1026 -0.4400  0.4196
  631MOL0     C85117   0.389  10.093   2.948 -0.8163 -0.4946  0.1243
  631MOL0     H85118   0.761   9.978   2.566  1.3236 -0.8588  0.3902
  631MOL0     H85119   1.010  10.001   2.562  1.1550  0.2162 -0.6405
  631MOL0     H85120   1.171  10.100   2.700 -2.7461 -3.0882 -2.9049
  631MOL0     H85121   1.249  10.100   2.530  3.9294  2.5971 -1.1898
  631MOL0     H85122   1.422  10.097   2.689 -0.1634 -0.7408 -0.1738
  631MOL0     H85123   1.343  10.244   2.773 -1.2199 -0.8816  0.0989
  631MOL0     H85124   1.392  10.365   2.559  0.5881 -0.1951  0.2086
  631MOL0     H85125   1.467  10.217   2.503  1.1341 -1.1504  0.5289
  631MOL0     H85126   1.571  10.398   2.716  3.8088  1.7572 -0.8281
  631MOL0     H85127   1.617  10.227   2.729  3.0701  1.8673  1.2458
  631MOL0     H85128   1.710  10.215   2.516 -0.4570  0.4228 -0.5873
  631MOL0     H85129   1.677  10.386   2.471  2.5875  0.4555 -0.3059
  631MOL0     H85130   1.808  10.474   2.656 -0.9525  0.1887  2.0565
  631MOL0     H85131   1.832  10.305   2.719  0.2007  2.1861  1.9467
  631MOL0     H85132   1.921  10.419   2.459 -1.9792  0.9912  1.3953
  631MOL0     H85133   1.936  10.246   2.511 -2.5059 -0.7638  3.6618
  631MOL0     H85134   2.076  10.477   2.643 -0.2972  0.2167  1.0785
  631MOL0     H85135   2.094  10.309   2.689  3.5684  0.0440 -1.1765
  631MOL0     H85136   2.260  10.149   2.592  1.2897 -0.7195  0.3926
  631MOL0     H85137   2.562  10.215   2.366  0.5981  0.7995 -0.3336
  631MOL0     H85138   2.556  10.217   2.544  1.4599 -2.1875 -0.2796
  631MOL0     H85139   2.446  10.004   2.561  2.0608  0.7531  0.9264
  631MOL0     H85140   2.402  10.011   2.386 -1.5412 -0.5488  1.7212
  631MOL0     H85141   2.652   9.991   2.336  1.0590 -0.4426 -0.0870
  631MOL0     H85142   2.590   9.846   2.429  2.4865 -0.4288  2.2865
  631MOL0     H85143   2.708   9.934   2.636  2.1031  0.8843  0.2962
  631MOL0     H85144   2.723  10.088   2.567 -3.5251  0.8610 -1.4138
  631MOL0     H85145   2.894   9.994   2.756  0.7447  1.5146 -0.5781
  631MOL0     H85146   3.122  10.002   2.857  1.7633  0.1421  0.3671
  631MOL0     H85147   3.473   9.983   3.055 -0.7075  0.7078  0.3212
  631MOL0     H85148   3.709  10.030   3.127 -2.1346 -2.2108  0.6056
  631MOL0     H85149   3.939  10.226   2.862  1.0275 -1.4291  2.3541
  631MOL0     H85150   3.937  10.391   2.947  1.1893  0.2989  0.6387
  631MOL0     H85151   4.101  10.323   3.097 -0.7465  0.5959  0.1046
  631MOL0     H85152   4.102  10.158   3.044  1.7348  1.1571  1.8733
  631MOL0     H85153   4.177  10.210   2.816 -2.0094  1.3971 -0.1389
  631MOL0     H85154   4.185  10.383   2.869  1.8993  0.2115  1.3639
  631MOL0     H85155   4.358  10.161   2.973 -0.4993  0.5954 -0.1975
  631MOL0     H85156   4.340  10.322   3.056  0.8641  0.6051 -0.6815
  631MOL0     H85157   4.411  10.425   2.852 -0.4733 -0.2310  0.4386
  631MOL0     H85158   4.473  10.276   2.786  0.7435  1.5974 -1.5722
  631MOL0     H85159   4.570  10.401   3.045  0.1285 -0.1739  0.7599
  631MOL0     H85160   4.587  10.238   3.018 -0.8885  1.6983  1.7166
  631MOL0     H85161   4.700  10.408   2.794  1.8908  2.2411  0.5296
  631MOL0     H85162   4.764  10.256   2.865 -1.4846 -1.2418  1.4869
  631MOL0     H85163   4.902  10.446   2.894 -0.6682 -2.2136 -1.7719
  631MOL0     H85164   4.776  10.524   2.993  1.4508  0.6498 -1.3784
  631MOL0     H85165   3.732  10.325   2.816  0.5598  0.0889  0.8830
  631MOL0     H85166   3.533  10.232   2.713 -4.2111 -0.5413  0.1507
  631MOL0     H85167   3.296   9.979   2.462  0.1085  1.6423  0.0221
  631MOL0     H85168   3.071   9.903   2.375 -0.9242  1.0230 -0.9002
  631MOL0     H85169   0.961  10.430   2.554 -0.4114  0.0173  0.0344
  631MOL0     H85170   0.713  10.403   2.550 -1.8546 -1.7284 -1.0987
  631MOL0     H85171   0.345  10.165   2.477 -2.9231  0.8773 -1.6128
  631MOL0     H85172   0.103  10.087   2.477 -1.4849  1.2283  1.7169
  631MOL0     H85173  -0.088   9.959   2.520  2.0407  3.4106 -0.6070
  631MOL0     H85174  -0.124  10.130   2.566 -0.1353  0.9005  1.3031
  631MOL0     H85175  -0.338  10.029   2.592  0.3444  1.4123  1.8173
  631MOL0     H85176  -0.261  10.052   2.750 -0.6819  1.1783 -0.2747
  631MOL0     H85177  -0.201   9.807   2.773  2.0666  2.4500 -0.8942
  631MOL0     H85178  -0.272   9.781   2.617 -1.7490  0.5179 -0.7036
  631MOL0     H85179  -0.435   9.747   2.830  2.2634 -0.6144  0.3210
  631MOL0     H85180  -0.421   9.912   2.850  1.1866 -0.5542  0.6603
  631MOL0     H85181  -0.713   9.840   2.538  2.2056 -2.5810 -2.1279
  631MOL0     H85182   0.141  10.018   2.897 -0.3697  2.9489  1.4426
  631MOL0     H85183   0.326  10.104   3.037  1.2348  0.9429  1.4929
  631MOL0     H85184   0.427   9.990   2.956  0.2418 -0.4279 -2.7798
  631MOL0     H85185   0.467  10.169   2.957 -1.9650  1.4168 -3.9480
  632MOL0     O85186   4.597  10.959   8.116  0.6243 -0.4937 -0.2645
  632MOL0     C85187   4.590  10.987   7.996  0.6314  0.3745  0.0663
  632MOL0     O85188   4.477  10.983   7.925 -0.6198 -0.9853  1.5359
  632MOL0     C85189   4.373  10.917   7.981 -0.1130  1.0541 -0.0014
  632MOL0     C85190   4.249  10.970   8.009 -0.1091 -0.8618 -0.9337
  632MOL0     C85191   4.151  10.900   8.074 -0.0546 -0.1502 -0.7650
  632MOL0     C85192   4.165  10.765   8.101 -0.0874  0.9917 -0.1774
  632MOL0     O85193   4.060  10.695   8.165 -0.0591 -0.0302  0.1432
  632MOL0     C85194   3.928  10.737   8.137  0.1109 -0.0298 -0.8806
  632MOL0     C85195   3.870  10.808   8.257  1.0208 -0.0105  0.0522
  632MOL0     C85196   3.719  10.831   8.266  0.4384 -0.4934  0.4469
  632MOL0     C85197   3.652  10.826   8.400 -0.2921 -0.2476  0.1414
  632MOL0     C85198   3.516  10.891   8.406  0.2959  0.4415  0.1403
  632MOL0     C85199   3.443  10.856   8.540 -0.2897  0.0889 -0.1042
  632MOL0     C85200   3.308  10.933   8.557  0.0643 -0.9199  0.9361
  632MOL0     C85201   3.245  10.930   8.704 -0.5595  0.7771  0.5569
  632MOL0     N85202   3.112  10.983   8.701  0.5006 -0.2365 -0.1693
  632MOL0     C85203   3.001  10.912   8.742 -0.3001  0.0195 -0.3956
  632MOL0     C85204   2.908  11.006   8.755  0.1511  0.0345 -0.2057
  632MOL0     C85205   2.763  10.971   8.788 -0.8674  0.5436  0.2771
  632MOL0     C85206   2.753  10.855   8.889  0.2064 -0.3590 -1.6951
  632MOL0     C85207   2.826  10.905   9.026 -0.1527  0.1583 -0.8840
  632MOL0     C85208   2.863  10.793   9.130 -0.1614 -0.5291  0.3093
  632MOL0     O85209   2.925  10.674   9.084  0.2887  0.1621  0.3501
  632MOL0     C85210   3.054  10.670   9.034 -0.4836 -0.0079 -0.6780
  632MOL0     C85211   3.152  10.773   9.063 -0.7543  0.0803  0.9830
  632MOL0     C85212   3.277  10.770   8.999 -0.2055 -0.1430 -0.4008
  632MOL0     C85213   3.312  10.669   8.912 -0.0247  0.6517 -0.6186
  632MOL0     C85214   3.443  10.678   8.858 -0.4859 -0.1878 -0.8164
  632MOL0     O85215   3.491  10.563   8.814 -0.0994 -0.7107 -0.3307
  632MOL0     C85216   3.629  10.567   8.785 -0.1231 -0.0290  0.7647
  632MOL0     C85217   3.720  10.576   8.885 -0.3047 -0.0878 -0.0371
  632MOL0     C85218   3.861  10.557   8.852  1.1956 -0.1332  0.5218
  632MOL0     C85219   3.896  10.530   8.718  0.7310 -0.1572 -0.7047
  632MOL0     O85220   4.024  10.509   8.677  0.3430  0.3762 -0.5398
  632MOL0     C85221   4.128  10.542   8.765  1.0202 -0.6783  0.4968
  632MOL0     C85222   4.255  10.539   8.678  0.6430  0.5261 -1.0064
  632MOL0     C85223   4.377  10.564   8.770  0.0356 -0.1859 -0.5425
  632MOL0     C85224   4.491  10.618   8.692 -0.2889 -0.3162 -0.5189
  632MOL0     C85225   4.620  10.654   8.769  0.1178  0.6542  0.0320
  632MOL0     C85226   4.734  10.691   8.673 -0.5030  0.3541  0.5670
  632MOL0     C85227   4.868  10.665   8.744 -0.4551 -0.3420 -0.1741
  632MOL0     C85228   4.899  10.752   8.863  0.4709  0.7512  0.1250
  632MOL0    Cl85229   5.070  10.716   8.896  0.1239 -0.0172  0.1089
  632MOL0     C85230   3.800  10.522   8.614  0.1127  0.1444  0.1252
  632MOL0     C85231   3.665  10.533   8.655 -0.3581 -0.3398 -0.3802
  632MOL0     O85232   3.500  10.787   8.850  0.5069  0.2632 -0.6120
  632MOL0     C85233   3.225  10.562   8.894  1.0302  0.7884 -0.0718
  632MOL0     C85234   3.097  10.573   8.949  0.8389 -0.8369 -0.2842
  632MOL0     N85235   2.963  11.130   8.741 -0.0892  0.0400 -0.7018
  632MOL0     N85236   3.087  11.118   8.693  0.3048 -0.1029  1.0290
  632MOL0     C85237   4.283  10.700   8.071 -0.4148 -0.0123  0.4384
  632MOL0     C85238   4.383  10.783   8.013  0.2030 -0.8520 -0.1854
  632MOL0     C85239   4.715  11.022   7.932 -0.4034 -0.0479  0.5647
  632MOL0     C85240   4.720  11.005   7.790 -0.4454 -0.1122 -0.2546
  632MOL0     C85241   4.835  11.014   7.715 -0.2751 -0.4730  0.5735
  632MOL0     C85242   4.957  11.061   7.770  0.4176 -0.3992 -0.4262
  632MOL0     O85243   5.066  11.081   7.691 -0.5761  0.0814  0.1419
  632MOL0     C85244   5.197  11.059   7.751  0.3292 -0.0232 -0.5863
  632MOL0     C85245   5.310  11.059   7.649  0.5780  0.3490  0.4984
  632MOL0     C85246   5.332  11.182   7.563 -0.5559  0.2217 -0.0611
  632MOL0     C85247   5.377  11.304   7.642  0.7524 -0.4703 -0.5820
  632MOL0     C85248   5.504  11.289   7.716 -0.3740 -0.3846 -0.9028
  632MOL0     C85249   5.599  11.276   7.786  0.1112  0.8109  0.2657
  632MOL0     C85250   4.950  11.078   7.907 -0.6192  0.2822 -0.6729
  632MOL0     C85251   4.840  11.059   7.989 -0.0099  0.2516  0.2084
  632MOL0     C85252   4.848  11.063   8.143  0.4896 -0.6249 -0.6937
  632MOL0     H85253   4.239  11.078   7.998  1.1844 -0.6882 -0.6001
  632MOL0     H85254   4.059  10.956   8.089  0.3877  0.8401 -1.6966
  632MOL0     H85255   3.919  10.801   8.049 -0.3172  4.7328  2.2415
  632MOL0     H85256   3.874  10.644   8.117 -2.4845  0.8243  1.4750
  632MOL0     H85257   3.918  10.906   8.264  0.4011  0.2699  0.5310
  632MOL0     H85258   3.906  10.752   8.344  0.4131 -0.7524 -0.1636
  632MOL0     H85259   3.675  10.757   8.198  0.2355  3.7352 -4.7554
  632MOL0     H85260   3.696  10.928   8.220 -0.9458 -1.6159 -1.3544
  632MOL0     H85261   3.638  10.719   8.421 -1.8534  0.0967  1.0302
  632MOL0     H85262   3.721  10.864   8.476 -1.3048 -0.1701  1.0465
  632MOL0     H85263   3.520  10.998   8.387 -0.1746 -0.1647 -4.2490
  632MOL0     H85264   3.463  10.842   8.325  2.1514 -0.4798 -0.5902
  632MOL0     H85265   3.419  10.749   8.544 -1.0241  0.1696 -1.4893
  632MOL0     H85266   3.499  10.875   8.632 -3.6999 -1.0298  2.3973
  632MOL0     H85267   3.238  10.900   8.479  0.7003 -0.8064  0.3002
  632MOL0     H85268   3.326  11.037   8.527 -3.4094 -0.4009  0.1915
  632MOL0     H85269   3.248  10.826   8.738 -0.0293  0.4641 -0.3871
  632MOL0     H85270   3.313  10.976   8.776 -1.5080  2.5226  0.3929
  632MOL0     H85271   2.993  10.806   8.764  2.8181 -0.1752  0.2307
  632MOL0     H85272   2.701  11.055   8.821 -1.3341  0.2415  0.1763
  632MOL0     H85273   2.710  10.937   8.699  0.7767  0.6755 -0.7938
  632MOL0     H85274   2.649  10.838   8.917  0.2341  0.7417 -0.8365
  632MOL0     H85275   2.798  10.764   8.850  3.2795 -0.8210  2.2918
  632MOL0     H85276   2.751  10.959   9.085  0.9767  0.8666 -0.0474
  632MOL0     H85277   2.905  10.976   8.999 -1.1154  0.6308 -2.6392
  632MOL0     H85278   2.769  10.770   9.181 -0.8500  1.5073  0.0412
  632MOL0     H85279   2.927  10.824   9.214 -0.3276 -1.1661  0.6764
  632MOL0     H85280   3.118  10.855   9.126 -2.6967  1.2734 -1.4305
  632MOL0     H85281   3.333  10.863   9.007 -0.3556  0.2197 -2.7368
  632MOL0     H85282   3.687  10.595   8.986  2.8245  0.1128  1.0677
  632MOL0     H85283   3.940  10.558   8.927  0.6036 -0.7529  1.1729
  632MOL0     H85284   4.113  10.643   8.803  0.3881  0.2646 -2.0351
  632MOL0     H85285   4.135  10.480   8.855  0.3413 -0.5902  0.6146
  632MOL0     H85286   4.254  10.442   8.629  0.0453  0.5662 -1.0849
  632MOL0     H85287   4.259  10.618   8.602 -1.4872  0.8307 -0.8734
  632MOL0     H85288   4.354  10.625   8.858  0.0168  0.6686 -1.1228
  632MOL0     H85289   4.415  10.473   8.817  1.8368  1.2625  0.9356
  632MOL0     H85290   4.468  10.711   8.639  0.5577 -0.1726 -0.6463
  632MOL0     H85291   4.507  10.543   8.613  1.5530 -0.4809 -0.0410
  632MOL0     H85292   4.645  10.572   8.837 -1.1752  2.0227  2.2899
  632MOL0     H85293   4.592  10.731   8.842 -1.9656 -0.8133  0.8913
  632MOL0     H85294   4.737  10.630   8.583 -1.0395  0.2476  0.6171
  632MOL0     H85295   4.736  10.797   8.644  2.1049 -0.0574 -1.0894
  632MOL0     H85296   4.944  10.692   8.670  0.1498 -0.0986  0.5251
  632MOL0     H85297   4.875  10.560   8.774 -0.9451 -0.7457 -1.4274
  632MOL0     H85298   4.893  10.857   8.833  0.6942  0.5099 -0.7839
  632MOL0     H85299   4.831  10.732   8.947 -1.8394 -2.0822 -2.1857
  632MOL0     H85300   3.830  10.491   8.514  1.0593 -0.0646  0.4621
  632MOL0     H85301   3.572  10.521   8.601 -0.6754  1.7214 -0.3881
  632MOL0     H85302   3.244  10.479   8.827  1.9967  2.1230 -1.5067
  632MOL0     H85303   3.040  10.481   8.942  3.1963 -2.3085 -1.4424
  632MOL0     H85304   4.303  10.594   8.083 -1.1855 -0.5101 -2.0377
  632MOL0     H85305   4.474  10.734   7.981 -0.5197 -0.6704 -2.7002
  632MOL0     H85306   4.637  10.962   7.736  1.7981 -0.2715 -3.8528
  632MOL0     H85307   4.822  10.991   7.610 -1.3122  2.0563  0.0787
  632MOL0     H85308   5.191  10.967   7.810  0.7273  1.7407  2.4400
  632MOL0     H85309   5.221  11.141   7.819  5.1195 -0.4143 -1.4279
  632MOL0     H85310   5.302  10.973   7.581 -1.0781  1.9604 -1.4666
  632MOL0     H85311   5.397  11.039   7.713 -0.6352 -3.5988  1.2079
  632MOL0     H85312   5.239  11.207   7.512 -1.6261 -1.4626  0.9671
  632MOL0     H85313   5.408  11.161   7.486 -1.0456  1.0097 -0.7782
  632MOL0     H85314   5.385  11.380   7.563  0.8264 -1.4447 -1.5421
  632MOL0     H85315   5.301  11.334   7.714  1.3939  0.0936 -0.1287
  632MOL0     H85316   5.693  11.274   7.837  0.6262 -1.2805 -0.6410
  632MOL0     H85317   5.047  11.113   7.942 -0.4865  0.3191 -1.0830
  632MOL0     H85318   4.940  11.109   8.179 -0.1793  0.2699 -0.0589
  632MOL0     H85319   4.760  11.122   8.171 -0.1640 -1.2026 -1.4890
  632MOL0     H85320   4.835  10.966   8.192  1.0461  0.4512  1.7076
  633MOL0     O85321  11.026   1.870   8.427  0.0211  1.0903  0.4847
  633MOL0     C85322  10.933   1.903   8.351  0.0129  0.1486  0.5148
  633MOL0     O85323  10.948   1.978   8.237 -0.1038 -0.8091 -0.1495
  633MOL0     C85324  11.069   2.004   8.176 -0.8327  0.9796  0.0850
  633MOL0     C85325  11.177   1.918   8.184 -0.1930 -0.1352 -0.2037
  633MOL0     C85326  11.300   1.955   8.118  0.2979 -0.3908 -0.4907
  633MOL0     C85327  11.313   2.077   8.041  0.6030 -0.0024  0.2832
  633MOL0     O85328  11.425   2.117   7.969 -0.4756 -0.2242 -0.1748
  633MOL0     C85329  11.548   2.059   8.014  0.3434  0.7398 -0.3656
  633MOL0     C85330  11.647   2.163   7.969 -0.5543  0.0971  0.8236
  633MOL0     C85331  11.796   2.116   7.969 -0.0005 -0.0675  0.2466
  633MOL0     C85332  11.891   2.232   7.932  0.6291  0.4799 -0.7017
  633MOL0     C85333  12.028   2.178   7.904 -0.3177  0.1041  0.4834
  633MOL0     C85334  12.135   2.284   7.914 -0.4862 -0.6988 -0.4390
  633MOL0     C85335  12.264   2.212   7.871 -0.1833  0.4638 -0.7373
  633MOL0     C85336  12.391   2.295   7.876 -0.7234  0.4704  0.3349
  633MOL0     N85337  12.411   2.379   7.760 -0.2376 -0.9208  0.4362
  633MOL0     C85338  12.372   2.518   7.755 -0.2199  0.2601 -0.0455
  633MOL0     C85339  12.445   2.561   7.649 -0.0809 -0.4973  0.0290
  633MOL0     C85340  12.446   2.703   7.610 -0.3207 -0.2003  0.1855
  633MOL0     C85341  12.545   2.780   7.696 -0.2763 -0.3692 -1.0966
  633MOL0     C85342  12.617   2.900   7.630  0.5800 -0.2255 -0.5021
  633MOL0     C85343  12.729   2.951   7.717  0.3728 -1.1245  0.0974
  633MOL0     O85344  12.848   2.881   7.671  0.2572  0.2077  0.0121
  633MOL0     C85345  12.963   2.940   7.716  0.2504  0.3326  0.2249
  633MOL0     C85346  12.975   3.042   7.813 -0.4499 -0.4171  0.3838
  633MOL0     C85347  13.096   3.082   7.857  0.5538 -0.2793  0.4904
  633MOL0     C85348  13.214   3.032   7.813  0.1139 -0.0121  0.2652
  633MOL0     C85349  13.344   3.079   7.867 -0.3590 -0.6339 -0.7876
  633MOL0     O85350  13.457   3.043   7.805  0.2887  0.8170 -0.0767
  633MOL0     C85351  13.579   3.055   7.867 -0.7188  0.2965 -0.4034
  633MOL0     C85352  13.646   3.168   7.896  0.0011 -1.5633 -0.3537
  633MOL0     C85353  13.771   3.168   7.964  0.2202  0.4277  0.5026
  633MOL0     C85354  13.832   3.047   7.998 -0.0006  0.3422 -0.4105
  633MOL0     O85355  13.948   3.061   8.062 -0.2930 -0.5376  0.2056
  633MOL0     C85356  14.015   2.952   8.139 -0.3722 -0.7521  0.8245
  633MOL0     C85357  14.131   3.007   8.231  0.7959 -0.1321  0.2906
  633MOL0     C85358  14.229   2.903   8.276  0.4221  0.2499  0.1107
  633MOL0     C85359  14.310   2.855   8.147  0.2102  0.1832 -0.2783
  633MOL0     C85360  14.419   2.751   8.178 -0.1964 -0.0410  0.3095
  633MOL0     C85361  14.522   2.735   8.061  0.0632 -0.3966 -0.1104
  633MOL0     C85362  14.649   2.647   8.102 -0.1789  0.0738  0.8741
  633MOL0     C85363  14.747   2.622   7.992 -0.3708 -0.3340 -0.8013
  633MOL0    Cl85364  14.855   2.763   7.969  0.2445 -0.1377  0.1790
  633MOL0     C85365  13.765   2.934   7.974  0.0028  0.1501 -0.1915
  633MOL0     C85366  13.643   2.932   7.913 -0.1278  0.0615  0.3264
  633MOL0     O85367  13.346   3.157   7.962  0.0025 -1.0166  0.1007
  633MOL0     C85368  13.210   2.939   7.703 -0.1363 -0.0883 -0.7798
  633MOL0     C85369  13.081   2.894   7.662 -0.6313  0.0524 -0.3882
  633MOL0     N85370  12.517   2.460   7.589  0.3404 -0.5535 -0.4936
  633MOL0     N85371  12.504   2.346   7.662  0.3390 -0.6764 -0.9767
  633MOL0     C85372  11.192   2.150   8.026 -0.3999 -0.3923 -0.4754
  633MOL0     C85373  11.074   2.113   8.087 -0.4193 -0.3682 -0.3042
  633MOL0     C85374  10.792   1.865   8.379 -0.1159  0.4974 -0.2032
  633MOL0     C85375  10.687   1.946   8.311 -1.2549  0.4238  0.3196
  633MOL0     C85376  10.554   1.930   8.351 -0.6424 -0.3632  0.5107
  633MOL0     C85377  10.514   1.831   8.437 -0.0783  0.3906  0.3349
  633MOL0     O85378  10.390   1.807   8.484 -0.1113  0.0191 -0.0563
  633MOL0     C85379  10.272   1.882   8.435 -1.1161  0.0062  1.0791
  633MOL0     C85380  10.163   1.863   8.536 -0.2339  0.0210  0.0764
  633MOL0     C85381  10.196   1.914   8.677 -0.4673  0.1481  0.1339
  633MOL0     C85382  10.225   2.063   8.670  0.1387 -0.8898 -0.2390
  633MOL0     C85383  10.214   2.125   8.808  0.3383  0.2589  1.0626
  633MOL0     C85384  10.216   2.150   8.926 -0.0745 -0.9637  0.5542
  633MOL0     C85385  10.620   1.742   8.483  0.6530 -0.0492  0.2299
  633MOL0     C85386  10.755   1.750   8.464 -0.6479 -0.5567 -0.3894
  633MOL0     C85387  10.856   1.656   8.526 -0.0210  0.5591 -0.3185
  633MOL0     H85388  11.168   1.817   8.224 -0.8772 -0.3267 -0.8108
  633MOL0     H85389  11.389   1.896   8.136  0.7602  0.9997  2.2034
  633MOL0     H85390  11.551   2.057   8.123  0.4759 -0.0974 -0.3763
  633MOL0     H85391  11.566   1.962   7.966 -1.0926 -0.3592  1.2034
  633MOL0     H85392  11.648   2.247   8.039  0.5312 -0.2610  1.2645
  633MOL0     H85393  11.619   2.189   7.867 -0.9777 -4.0828 -0.3297
  633MOL0     H85394  11.807   2.038   7.894 -3.0061 -1.2597  0.9143
  633MOL0     H85395  11.817   2.073   8.067 -0.5632 -1.3436 -0.1700
  633MOL0     H85396  11.853   2.294   7.850 -1.7549 -1.8961 -1.5539
  633MOL0     H85397  11.878   2.284   8.027 -2.4492 -3.0073  1.0264
  633MOL0     H85398  12.063   2.114   7.986  1.7488 -0.4721 -0.7728
  633MOL0     H85399  12.016   2.145   7.801 -0.5752  4.2016 -0.9767
  633MOL0     H85400  12.125   2.377   7.858 -0.3827 -0.6613 -0.3969
  633MOL0     H85401  12.137   2.309   8.021  0.9446 -0.5423 -0.4872
  633MOL0     H85402  12.254   2.167   7.772  0.4803  1.1809 -1.1413
  633MOL0     H85403  12.284   2.123   7.932 -0.6033 -0.5519 -2.0549
  633MOL0     H85404  12.397   2.360   7.963  0.9521 -0.3367  0.8637
  633MOL0     H85405  12.481   2.234   7.884 -0.7630  0.6711  3.5422
  633MOL0     H85406  12.323   2.576   7.832 -0.5004 -0.9692  0.7307
  633MOL0     H85407  12.476   2.709   7.505  3.8578  1.0372  1.2636
  633MOL0     H85408  12.348   2.751   7.609  1.1805  3.2428  1.6323
  633MOL0     H85409  12.495   2.818   7.785  1.5008  3.6233 -1.5664
  633MOL0     H85410  12.624   2.706   7.715 -2.1841 -2.1322  0.3690
  633MOL0     H85411  12.549   2.983   7.610  0.5054 -0.5225 -1.5605
  633MOL0     H85412  12.653   2.874   7.530 -0.6176  1.0469 -1.3096
  633MOL0     H85413  12.704   2.941   7.823 -1.8539  0.2052 -0.2437
  633MOL0     H85414  12.745   3.057   7.698  2.0657 -1.3015  0.3713
  633MOL0     H85415  12.888   3.092   7.853  0.5963  1.5732  0.3060
  633MOL0     H85416  13.096   3.162   7.931 -1.2896 -0.2925  0.5404
  633MOL0     H85417  13.604   3.263   7.863  2.0905  0.0816  1.4170
  633MOL0     H85418  13.834   3.256   7.979  0.3704  0.6396 -1.1335
  633MOL0     H85419  13.940   2.908   8.204  0.4110  0.7953  2.8907
  633MOL0     H85420  14.055   2.889   8.059 -1.4858 -0.0543 -0.3174
  633MOL0     H85421  14.181   3.090   8.181  1.1313  0.3419  1.3864
  633MOL0     H85422  14.082   3.047   8.320 -0.1049  1.1674 -0.7442
  633MOL0     H85423  14.304   2.946   8.343  0.5864  0.2874 -0.0927
  633MOL0     H85424  14.180   2.816   8.320 -0.0833 -0.7155 -2.2022
  633MOL0     H85425  14.361   2.935   8.094 -0.7835  1.2933  0.3978
  633MOL0     H85426  14.242   2.807   8.076  0.5337  2.0484 -1.9132
  633MOL0     H85427  14.369   2.654   8.191 -1.4748  0.6031  0.2619
  633MOL0     H85428  14.474   2.770   8.270  0.7640 -0.7828 -0.0845
  633MOL0     H85429  14.470   2.690   7.976  0.7866  0.6912 -1.1644
  633MOL0     H85430  14.559   2.831   8.025 -1.2488  0.5656  1.0018
  633MOL0     H85431  14.618   2.546   8.131 -2.1639 -1.3007 -4.8293
  633MOL0     H85432  14.682   2.694   8.196 -3.2911 -0.8413  2.5664
  633MOL0     H85433  14.809   2.537   8.019 -1.0061 -0.9937 -1.3800
  633MOL0     H85434  14.699   2.597   7.897 -0.2962 -0.4844 -0.7993
  633MOL0     H85435  13.807   2.838   8.003  0.1979  0.4824  0.6644
  633MOL0     H85436  13.615   2.830   7.888 -0.0715  0.0777  0.1984
  633MOL0     H85437  13.306   2.913   7.659  1.1287  2.6343  0.1323
  633MOL0     H85438  13.076   2.813   7.589 -0.8978 -1.4379  1.2057
  633MOL0     H85439  11.201   2.244   7.973  0.6522 -0.2935 -0.1435
  633MOL0     H85440  10.990   2.182   8.090 -0.2746 -0.2014  0.0422
  633MOL0     H85441  10.720   2.026   8.246 -0.5961  1.9137  2.3797
  633MOL0     H85442  10.483   1.992   8.297  1.7125  1.4098 -0.7258
  633MOL0     H85443  10.240   1.853   8.334  2.8792 -0.2429 -0.2704
  633MOL0     H85444  10.292   1.988   8.420 -1.6581 -0.3190 -3.1251
  633MOL0     H85445  10.128   1.760   8.533 -3.5825  1.0487  0.0060
  633MOL0     H85446  10.072   1.916   8.505  0.9109  0.6584 -2.5025
  633MOL0     H85447  10.284   1.866   8.721  1.4596  2.1472 -1.3097
  633MOL0     H85448  10.105   1.895   8.735 -0.2192 -2.4774 -0.2112
  633MOL0     H85449  10.327   2.086   8.636  0.6629  1.8059  2.6601
  633MOL0     H85450  10.154   2.115   8.605 -1.9500 -0.9039  1.9232
  633MOL0     H85451  10.214   2.186   9.027 -0.4757  1.9213 -0.3994
  633MOL0     H85452  10.576   1.674   8.554 -1.0526  0.2072 -0.5275
  633MOL0     H85453  10.942   1.624   8.466  1.0082  0.0832  1.3432
  633MOL0     H85454  10.910   1.712   8.602  5.0736 -2.2397 -1.4364
  633MOL0     H85455  10.805   1.565   8.560 -0.2032  1.1376  1.0129
  634MOL0     O85456   6.725   6.544   1.099  0.7054 -0.1055 -0.3222
  634MOL0     C85457   6.659   6.520   1.000 -0.0539 -0.4985  0.0800
  634MOL0     O85458   6.716   6.497   0.884  0.3023 -0.8209 -0.3661
  634MOL0     C85459   6.854   6.509   0.869  0.5501 -0.6695  0.6042
  634MOL0     C85460   6.893   6.532   0.727 -0.1280  0.1262 -0.7075
  634MOL0     C85461   7.024   6.546   0.684 -0.5847  0.5308  0.2079
  634MOL0     C85462   7.126   6.549   0.774 -0.6342 -0.2893  0.2874
  634MOL0     O85463   7.251   6.577   0.728  0.3083  0.5673  0.9500
  634MOL0     C85464   7.365   6.503   0.789  1.0966  0.2722 -0.1715
  634MOL0     C85465   7.480   6.522   0.693 -0.4948 -0.3523 -0.6221
  634MOL0     C85466   7.607   6.451   0.740 -0.0099 -0.1901  0.4153
  634MOL0     C85467   7.581   6.298   0.746 -0.2983 -0.7392  0.0499
  634MOL0     C85468   7.707   6.216   0.744  0.1751  0.9130  1.3414
  634MOL0     C85469   7.798   6.246   0.864  0.2227 -0.3180  0.6780
  634MOL0     C85470   7.901   6.139   0.879 -0.1620 -0.1028 -0.0978
  634MOL0     C85471   7.991   6.149   0.750  0.8922 -0.6179  0.6035
  634MOL0     N85472   8.064   6.270   0.742 -0.7240 -0.1331  0.1803
  634MOL0     C85473   8.025   6.390   0.684  0.4493 -0.3392  0.0448
  634MOL0     C85474   8.109   6.481   0.751 -0.7054  0.1647 -0.0590
  634MOL0     C85475   8.055   6.620   0.757 -0.2384  0.0478  0.0423
  634MOL0     C85476   7.933   6.637   0.859  0.0710 -0.6481 -0.6692
  634MOL0     C85477   7.957   6.597   1.010 -0.0828  0.1171 -0.4084
  634MOL0     C85478   7.839   6.631   1.108 -0.7813  0.6037  0.4941
  634MOL0     O85479   7.734   6.541   1.089 -0.5068  0.2169 -0.0577
  634MOL0     C85480   7.622   6.551   1.165  0.7472  0.4864  0.1896
  634MOL0     C85481   7.599   6.623   1.279 -0.4355 -0.4586  0.5736
  634MOL0     C85482   7.484   6.606   1.358  0.0518 -0.1417  0.9426
  634MOL0     C85483   7.382   6.522   1.319 -0.6325 -0.1990  0.6156
  634MOL0     C85484   7.259   6.491   1.395  0.5262 -0.4977 -0.6787
  634MOL0     O85485   7.165   6.433   1.330  0.3648  0.5940  0.3963
  634MOL0     C85486   7.048   6.409   1.402 -0.9999  0.2785  1.1725
  634MOL0     C85487   6.949   6.506   1.393 -0.2665 -0.5582 -0.1593
  634MOL0     C85488   6.825   6.487   1.440  0.0844  0.5241  0.0912
  634MOL0     C85489   6.786   6.374   1.517  0.2833 -1.3865 -0.8229
  634MOL0     O85490   6.665   6.352   1.564  0.2642  0.1865 -0.4242
  634MOL0     C85491   6.566   6.453   1.583  0.9811 -0.2308  0.1199
  634MOL0     C85492   6.478   6.447   1.709 -0.3523  0.7992  0.8037
  634MOL0     C85493   6.356   6.366   1.671 -0.0525  0.0748 -0.3059
  634MOL0     C85494   6.230   6.395   1.765 -0.1272  0.0618  0.6170
  634MOL0     C85495   6.113   6.301   1.741  1.2931  0.2907 -0.3608
  634MOL0     C85496   5.998   6.330   1.834 -0.3607 -0.2900 -0.4341
  634MOL0     C85497   5.917   6.444   1.767  0.4812 -0.5131  0.0397
  634MOL0     C85498   5.787   6.460   1.847 -0.7179 -0.4698  0.1256
  634MOL0    Cl85499   5.704   6.622   1.795 -0.0581 -0.1134  0.3398
  634MOL0     C85500   6.887   6.277   1.532 -0.4228  0.1422 -0.3379
  634MOL0     C85501   7.010   6.292   1.478 -1.1210 -0.3292 -0.3904
  634MOL0     O85502   7.261   6.511   1.516  0.1085 -0.4242  0.0463
  634MOL0     C85503   7.401   6.462   1.193 -0.1887  1.0197 -0.3084
  634MOL0     C85504   7.516   6.474   1.122 -0.3311 -0.5331 -0.3563
  634MOL0     N85505   8.210   6.416   0.823  0.2609  0.9606 -0.0416
  634MOL0     N85506   8.179   6.288   0.805 -0.5006 -0.3244  0.7512
  634MOL0     C85507   7.094   6.543   0.913  0.8523  0.2736 -0.2601
  634MOL0     C85508   6.958   6.520   0.958 -0.2006 -0.3260 -0.0894
  634MOL0     C85509   6.511   6.515   1.012 -0.4742 -0.4773  0.5979
  634MOL0     C85510   6.447   6.538   1.131 -0.9318  0.7587  0.3135
  634MOL0     C85511   6.315   6.519   1.145  0.3787  0.2766 -0.7198
  634MOL0     C85512   6.222   6.509   1.045 -0.0963 -0.2069  0.4840
  634MOL0     O85513   6.093   6.507   1.071  0.3267  0.0339  0.3783
  634MOL0     C85514   5.995   6.457   0.981 -0.0890  1.1305  0.2614
  634MOL0     C85515   5.959   6.308   1.006 -0.5040  0.3852 -0.3278
  634MOL0     C85516   5.936   6.266   1.148  0.3197 -0.6790  0.1003
  634MOL0     C85517   5.838   6.362   1.217 -0.1682  0.6621  0.5508
  634MOL0     C85518   5.801   6.322   1.349 -0.0736 -0.5326 -0.4661
  634MOL0     C85519   5.797   6.286   1.463 -0.2518  1.0339 -0.7535
  634MOL0     C85520   6.288   6.496   0.922 -0.2701  0.2389  1.1006
  634MOL0     C85521   6.423   6.488   0.898 -0.0574 -0.8297 -0.2829
  634MOL0     C85522   6.465   6.476   0.758  0.1021 -0.5925  0.7453
  634MOL0     H85523   6.813   6.549   0.655 -1.5577  1.9219  1.1847
  634MOL0     H85524   7.050   6.569   0.581  2.5459 -1.8923  0.2815
  634MOL0     H85525   7.387   6.556   0.883  0.8374  0.3592 -0.1609
  634MOL0     H85526   7.333   6.399   0.794 -1.4555  0.8750 -1.9418
  634MOL0     H85527   7.494   6.629   0.682 -1.1465 -0.0985  0.8408
  634MOL0     H85528   7.446   6.467   0.604 -4.0724 -0.7690  0.8256
  634MOL0     H85529   7.638   6.489   0.838  1.2095  0.0013 -0.0383
  634MOL0     H85530   7.694   6.483   0.683  1.6306 -0.2702  2.7075
  634MOL0     H85531   7.516   6.287   0.833 -1.0101 -0.5251 -0.4350
  634MOL0     H85532   7.518   6.273   0.660 -0.2992 -2.3954  0.4908
  634MOL0     H85533   7.676   6.112   0.733  2.0924  0.5202 -1.1802
  634MOL0     H85534   7.762   6.240   0.653  0.8542 -3.0149  0.5602
  634MOL0     H85535   7.825   6.351   0.847 -2.4047  0.0090 -2.6288
  634MOL0     H85536   7.738   6.258   0.955  0.3130  2.9127  0.4464
  634MOL0     H85537   7.867   6.035   0.877  2.2157 -0.9775  1.3736
  634MOL0     H85538   7.952   6.149   0.975 -1.2865 -3.0968  0.9390
  634MOL0     H85539   8.061   6.065   0.765 -1.6039 -2.6301  1.7651
  634MOL0     H85540   7.936   6.119   0.661 -0.2018  2.1068  0.2676
  634MOL0     H85541   7.938   6.409   0.622  0.7963 -2.6789 -1.2414
  634MOL0     H85542   8.134   6.693   0.777 -1.1218  1.2068 -0.5597
  634MOL0     H85543   8.025   6.640   0.654  1.2246 -0.7762 -0.5629
  634MOL0     H85544   7.896   6.739   0.855  0.5195 -0.4254  0.5818
  634MOL0     H85545   7.855   6.569   0.822  1.5764 -2.2242 -1.0647
  634MOL0     H85546   8.054   6.641   1.036 -0.1889 -0.0120  0.2343
  634MOL0     H85547   7.974   6.488   1.013  0.1560  0.1579  2.4276
  634MOL0     H85548   7.792   6.728   1.093 -0.3763  1.0340  1.8892
  634MOL0     H85549   7.867   6.625   1.214 -1.0177 -0.7212  0.5025
  634MOL0     H85550   7.677   6.696   1.300 -1.8527  1.7465 -1.2948
  634MOL0     H85551   7.460   6.659   1.450 -0.5539  4.7343 -1.6578
  634MOL0     H85552   6.954   6.602   1.344  0.7706  0.1107  1.2029
  634MOL0     H85553   6.754   6.561   1.406 -2.9263 -1.6980  1.1202
  634MOL0     H85554   6.618   6.550   1.589  0.3903  0.1404 -0.5963
  634MOL0     H85555   6.523   6.445   1.484  0.6562 -0.6200  0.2930
  634MOL0     H85556   6.530   6.398   1.792  0.1417 -0.9142 -0.4682
  634MOL0     H85557   6.447   6.548   1.737 -0.2347  1.3587 -0.9928
  634MOL0     H85558   6.339   6.397   1.568  0.9573  0.8488 -0.2485
  634MOL0     H85559   6.382   6.260   1.667  2.0179  0.4535  1.4974
  634MOL0     H85560   6.193   6.496   1.746  1.8381  0.7812  0.3316
  634MOL0     H85561   6.269   6.395   1.867  2.5097  1.0957 -0.2859
  634MOL0     H85562   6.158   6.202   1.753 -0.0778 -1.2274 -5.3630
  634MOL0     H85563   6.082   6.300   1.636 -2.0864 -0.1405  0.5298
  634MOL0     H85564   5.931   6.245   1.838  0.5878 -1.0181  0.6658
  634MOL0     H85565   6.037   6.362   1.931 -1.2677  0.1106 -0.1981
  634MOL0     H85566   5.897   6.427   1.661 -1.4730 -0.1288  0.3167
  634MOL0     H85567   5.988   6.527   1.780 -2.6902  2.3937  0.3656
  634MOL0     H85568   5.734   6.369   1.816 -0.5847 -0.0705 -1.3587
  634MOL0     H85569   5.803   6.459   1.955 -0.1271  2.9047  0.1788
  634MOL0     H85570   6.867   6.182   1.582  1.1694 -0.5594 -0.9743
  634MOL0     H85571   7.094   6.224   1.489 -0.0679  1.1920  2.0300
  634MOL0     H85572   7.323   6.402   1.147 -1.1325  0.3117  2.0385
  634MOL0     H85573   7.515   6.427   1.024 -0.5996 -0.8362 -0.2119
  634MOL0     H85574   7.169   6.545   0.991  0.6964 -0.4575 -0.0841
  634MOL0     H85575   6.952   6.492   1.062  1.5134  0.3694  0.2288
  634MOL0     H85576   6.509   6.556   1.218  0.6654  0.2089 -0.6798
  634MOL0     H85577   6.273   6.529   1.245  1.9472  0.3503 -0.0416
  634MOL0     H85578   6.020   6.463   0.875 -3.7979  0.4221 -0.8085
  634MOL0     H85579   5.907   6.520   1.000  1.0423  3.2189 -1.0114
  634MOL0     H85580   6.039   6.239   0.974 -1.9762 -1.5501 -0.0176
  634MOL0     H85581   5.861   6.283   0.966 -0.9318  0.0474  0.8936
  634MOL0     H85582   6.032   6.261   1.200  0.6077  0.3951 -0.2991
  634MOL0     H85583   5.896   6.164   1.149 -1.6608 -0.0006 -1.9393
  634MOL0     H85584   5.865   6.467   1.229 -1.6841  0.8099  3.6854
  634MOL0     H85585   5.739   6.365   1.169  0.8417 -0.5548 -1.7872
  634MOL0     H85586   5.794   6.252   1.565  2.5104  0.5379 -0.7608
  634MOL0     H85587   6.231   6.500   0.831 -0.6509  0.4391  1.3465
  634MOL0     H85588   6.392   6.479   0.677  0.6733 -0.5014  0.2203
  634MOL0     H85589   6.535   6.557   0.738  2.2050 -1.7853  2.7278
  634MOL0     H85590   6.517   6.381   0.741 -3.4111 -2.3463 -1.4391
  635MOL0     O85591   5.219   8.028   6.285 -0.3544  0.4474  0.3498
  635MOL0     C85592   5.190   8.034   6.402 -0.1481 -0.7681 -1.1482
  635MOL0     O85593   5.272   8.037   6.507  0.1446  0.2066  0.3574
  635MOL0     C85594   5.412   8.051   6.488 -0.0984 -0.3683  0.7376
  635MOL0     C85595   5.487   7.965   6.415  0.4887 -0.2645  0.3621
  635MOL0     C85596   5.622   7.972   6.404  0.3991  0.4864 -0.0689
  635MOL0     C85597   5.689   8.067   6.472  0.0103  0.5526 -0.1553
  635MOL0     O85598   5.823   8.066   6.467 -0.6856  0.4036  0.0693
  635MOL0     C85599   5.900   8.149   6.552 -0.0121  0.4641  0.0315
  635MOL0     C85600   6.046   8.112   6.517 -0.0858 -0.2950  0.1351
  635MOL0     C85601   6.061   8.103   6.369  0.8026  0.2015 -0.0300
  635MOL0     C85602   6.199   8.123   6.321  0.2671  0.1791  0.3237
  635MOL0     C85603   6.210   8.098   6.172 -0.1146  0.6537 -0.1588
  635MOL0     C85604   6.138   8.203   6.076 -0.3970 -0.6080 -0.2822
  635MOL0     C85605   6.170   8.175   5.926  1.0075  0.5023  0.1163
  635MOL0     C85606   6.059   8.095   5.862 -0.0659 -0.0063 -0.3340
  635MOL0     N85607   6.095   8.077   5.717  0.2663 -0.3719  0.0437
  635MOL0     C85608   6.065   8.173   5.622  0.3197  0.0438  0.4033
  635MOL0     C85609   6.114   8.126   5.501 -0.2552  0.4157  0.5294
  635MOL0     C85610   6.111   8.207   5.379 -0.5758 -1.0044 -0.2976
  635MOL0     C85611   5.959   8.243   5.354  0.7947  0.6674 -0.0169
  635MOL0     C85612   5.941   8.302   5.216 -0.0645  0.5493 -0.4420
  635MOL0     C85613   5.959   8.188   5.112  0.2810  0.2021  0.5095
  635MOL0     O85614   5.987   8.233   4.971  0.3554  0.7795 -0.7408
  635MOL0     C85615   6.103   8.299   4.962  0.7555 -0.1586 -0.2206
  635MOL0     C85616   6.222   8.225   4.960  0.3743  0.9248  0.0857
  635MOL0     C85617   6.347   8.282   4.947 -0.4956  0.4219  0.0062
  635MOL0     C85618   6.352   8.425   4.960  0.1935 -0.7406 -0.0244
  635MOL0     C85619   6.480   8.496   4.975 -0.2540 -0.7262  0.4901
  635MOL0     O85620   6.468   8.630   4.983 -0.2995 -0.1878 -0.1736
  635MOL0     C85621   6.575   8.724   4.979  0.1805 -0.1154 -0.5631
  635MOL0     C85622   6.713   8.702   4.955  0.0262  0.0776 -0.2887
  635MOL0     C85623   6.799   8.804   4.961  0.0040  0.1038  0.3848
  635MOL0     C85624   6.756   8.939   4.977 -0.0365  0.1601  0.1553
  635MOL0     O85625   6.868   9.024   4.992  0.5542  0.1987 -0.4355
  635MOL0     C85626   6.829   9.150   5.043 -0.2390 -1.0712  0.0155
  635MOL0     C85627   6.944   9.232   5.054 -0.3019  0.5898 -0.7040
  635MOL0     C85628   7.039   9.183   5.163 -0.3881  0.3929 -0.2220
  635MOL0     C85629   7.146   9.284   5.187 -0.3025  0.2256  0.5323
  635MOL0     C85630   7.240   9.238   5.293 -1.4962 -0.6458 -0.5536
  635MOL0     C85631   7.346   9.344   5.353  0.1928 -0.2324 -0.1405
  635MOL0     C85632   7.423   9.290   5.468  0.1980  0.1657 -0.0516
  635MOL0     C85633   7.548   9.379   5.505  0.6511 -0.1036 -0.0232
  635MOL0    Cl85634   7.512   9.536   5.573 -0.0282  0.1422 -0.4471
  635MOL0     C85635   6.618   8.962   4.995  0.7903  0.4301 -0.0389
  635MOL0     C85636   6.529   8.855   4.996  0.1041 -0.6268 -0.1433
  635MOL0     O85637   6.579   8.431   4.980 -0.5920 -0.3766  0.2597
  635MOL0     C85638   6.235   8.497   4.951  0.8401 -0.7822  0.3978
  635MOL0     C85639   6.114   8.436   4.954  0.0978 -0.0359 -0.0299
  635MOL0     N85640   6.185   8.006   5.531  0.5960  0.0311 -0.2516
  635MOL0     N85641   6.163   7.981   5.656 -0.4152 -0.0749  0.3737
  635MOL0     C85642   5.624   8.152   6.560  0.2066  0.4811 -0.7745
  635MOL0     C85643   5.485   8.150   6.562  0.7192 -0.4471  0.0168
  635MOL0     C85644   5.043   8.028   6.425  0.5627 -0.4807 -0.0546
  635MOL0     C85645   4.956   8.006   6.312 -0.5837  0.2214 -1.1737
  635MOL0     C85646   4.820   7.980   6.333  0.8929 -0.3843 -0.4404
  635MOL0     C85647   4.759   8.004   6.455 -0.6075  0.2382 -0.0259
  635MOL0     O85648   4.624   7.979   6.469  0.3737 -0.1613  0.2154
  635MOL0     C85649   4.549   8.019   6.585  0.2627  0.4359  0.0039
  635MOL0     C85650   4.399   7.986   6.563  0.2953 -0.6175  0.2719
  635MOL0     C85651   4.326   8.079   6.468 -0.4703 -0.0870 -0.3017
  635MOL0     C85652   4.212   8.161   6.528 -0.5368  0.0065  0.0587
  635MOL0     C85653   4.100   8.073   6.553  0.0672 -0.1505  0.2940
  635MOL0     C85654   4.008   7.993   6.561  0.4080  0.1758 -0.2634
  635MOL0     C85655   4.841   8.053   6.556 -0.1966  0.3168  0.5577
  635MOL0     C85656   4.980   8.061   6.547  0.4308  0.0532 -0.0308
  635MOL0     C85657   5.038   8.114   6.670 -0.3210 -0.2377  0.1335
  635MOL0     H85658   5.438   7.887   6.356 -1.1508 -0.0065  1.3374
  635MOL0     H85659   5.680   7.904   6.343  0.9187  0.3220  0.6029
  635MOL0     H85660   5.893   8.255   6.528 -2.0298 -0.0378 -1.8545
  635MOL0     H85661   5.883   8.138   6.660  0.0829 -1.4568 -0.1072
  635MOL0     H85662   6.074   8.017   6.563  0.0431 -0.5960 -0.5520
  635MOL0     H85663   6.112   8.188   6.560  0.3754 -0.6313  0.0280
  635MOL0     H85664   6.007   8.183   6.318  2.1669  0.4208 -1.1769
  635MOL0     H85665   6.029   8.009   6.324 -0.8264  0.2315  0.9731
  635MOL0     H85666   6.240   8.221   6.349 -0.3636 -0.0182  2.0616
  635MOL0     H85667   6.260   8.039   6.354  0.9431 -2.3430 -5.8910
  635MOL0     H85668   6.316   8.095   6.144  0.0736  1.9375  0.3520
  635MOL0     H85669   6.162   8.002   6.152 -0.6704  0.8374  0.2868
  635MOL0     H85670   6.030   8.194   6.084 -0.6090 -0.9180 -2.7270
  635MOL0     H85671   6.179   8.302   6.095 -0.1655 -0.5729 -0.9286
  635MOL0     H85672   6.264   8.119   5.915  0.9198  0.5370 -0.8973
  635MOL0     H85673   6.177   8.271   5.875 -0.8297  1.5144  1.6166
  635MOL0     H85674   6.046   8.005   5.924  0.9534  1.7407  2.5814
  635MOL0     H85675   5.963   8.147   5.864 -1.0729 -1.7895  0.5571
  635MOL0     H85676   6.021   8.271   5.638 -1.4694 -1.1323  3.4270
  635MOL0     H85677   6.160   8.305   5.385  2.2682 -2.3770  0.3270
  635MOL0     H85678   6.158   8.143   5.305 -1.7221 -0.7869 -1.2490
  635MOL0     H85679   5.899   8.152   5.363  1.0641  0.3058 -1.5964
  635MOL0     H85680   5.923   8.325   5.417  0.6939  1.8193 -1.5148
  635MOL0     H85681   6.003   8.391   5.205 -2.3074  2.1194 -1.0856
  635MOL0     H85682   5.837   8.335   5.202  0.7673  2.3117 -3.4636
  635MOL0     H85683   5.867   8.130   5.107 -0.3634  1.2913 -1.4626
  635MOL0     H85684   6.044   8.123   5.135 -0.1096 -0.7495 -0.5961
  635MOL0     H85685   6.208   8.118   4.973 -1.2029  1.1188  0.2134
  635MOL0     H85686   6.437   8.225   4.923 -0.8225  0.7442 -2.1809
  635MOL0     H85687   6.755   8.603   4.943 -0.6417 -0.3411  0.7199
  635MOL0     H85688   6.905   8.797   4.943  0.2245 -1.4551  2.0772
  635MOL0     H85689   6.749   9.183   4.976  1.1938 -0.4358 -1.4577
  635MOL0     H85690   6.792   9.160   5.145  3.4841  2.7607  1.2760
  635MOL0     H85691   7.003   9.221   4.963  2.9168 -3.0757  1.5209
  635MOL0     H85692   6.918   9.336   5.076 -3.8776 -0.5590  1.4274
  635MOL0     H85693   6.974   9.181   5.251 -1.8063  2.3373 -1.1481
  635MOL0     H85694   7.078   9.086   5.131 -1.2880  0.4241 -1.4736
  635MOL0     H85695   7.104   9.378   5.224  1.5488  0.9570  0.8766
  635MOL0     H85696   7.191   9.305   5.090 -2.9948 -0.7374 -1.0592
  635MOL0     H85697   7.293   9.161   5.236  1.6700  1.5048 -0.7581
  635MOL0     H85698   7.195   9.190   5.381  1.5680  0.1022  1.5858
  635MOL0     H85699   7.405   9.369   5.265 -1.1453 -2.6516 -1.8569
  635MOL0     H85700   7.302   9.438   5.386  0.1131 -1.0955  2.4361
  635MOL0     H85701   7.461   9.191   5.441 -2.9017 -1.0695 -0.2566
  635MOL0     H85702   7.355   9.284   5.553 -0.9138 -1.5265 -1.0028
  635MOL0     H85703   7.620   9.324   5.568 -1.1810 -0.0894  2.2170
  635MOL0     H85704   7.598   9.402   5.410  0.1726 -1.1764 -0.5520
  635MOL0     H85705   6.573   9.060   4.994  0.5728  0.3305 -0.7054
  635MOL0     H85706   6.425   8.871   5.019 -0.0016 -1.7478  0.2301
  635MOL0     H85707   6.232   8.605   4.949  1.4824 -0.6973 -2.8403
  635MOL0     H85708   6.027   8.501   4.965 -1.9030 -1.9205 -3.2195
  635MOL0     H85709   5.677   8.219   6.627 -1.0417 -1.8171  2.8203
  635MOL0     H85710   5.438   8.231   6.616  1.6385 -0.0759  0.2873
  635MOL0     H85711   5.007   7.983   6.219  0.9532 -1.9578  0.1149
  635MOL0     H85712   4.751   7.952   6.255 -0.8050  3.1855 -0.4079
  635MOL0     H85713   4.568   8.123   6.614  1.1603  0.0938  0.6908
  635MOL0     H85714   4.596   7.969   6.670 -0.1386 -0.2574 -0.1763
  635MOL0     H85715   4.344   7.986   6.658 -0.7738 -1.2064 -0.3204
  635MOL0     H85716   4.398   7.883   6.526  0.3405 -0.5936  0.2059
  635MOL0     H85717   4.294   8.029   6.376 -0.6548  0.3405 -0.4713
  635MOL0     H85718   4.407   8.144   6.433  0.4729 -1.2307 -0.3151
  635MOL0     H85719   4.264   8.196   6.618  1.9139  0.2630 -1.3665
  635MOL0     H85720   4.179   8.253   6.480 -4.3055  0.4132  2.9004
  635MOL0     H85721   3.925   7.927   6.573 -1.4367  2.4358  0.1618
  635MOL0     H85722   4.797   8.085   6.650  0.1835  0.1214  0.8065
  635MOL0     H85723   5.093   8.209   6.658 -0.7144 -0.2476 -2.0485
  635MOL0     H85724   4.959   8.135   6.742  0.8164 -2.7089  2.2473
  635MOL0     H85725   5.094   8.035   6.720  1.8475  1.1035  0.0017
  636MOL0     O85726   0.852   9.780  11.150  0.3029 -0.3929 -0.5628
  636MOL0     C85727   0.813   9.716  11.243  0.0167  0.6363 -0.0208
  636MOL0     O85728   0.875   9.705  11.367  0.3761  0.1106 -0.0281
  636MOL0     C85729   0.975   9.786  11.419  0.8131  0.1870  0.4530
  636MOL0     C85730   1.008   9.743  11.540 -0.6385 -0.2683  0.0285
  636MOL0     C85731   1.118   9.800  11.604 -0.0875 -0.1807  0.1778
  636MOL0     C85732   1.187   9.910  11.546  0.4142  0.1756 -0.2442
  636MOL0     O85733   1.285   9.972  11.610  0.1370  0.3124 -0.4216
  636MOL0     C85734   1.256   9.990  11.745 -0.3640  0.3223  0.2659
  636MOL0     C85735   1.359   9.904  11.820  1.0248  0.5023  0.3144
  636MOL0     C85736   1.513   9.934  11.802  0.0150 -0.0561  0.6634
  636MOL0     C85737   1.541  10.080  11.797  0.2190 -0.7876  0.0650
  636MOL0     C85738   1.543  10.139  11.657  0.1188  0.5953  0.4976
  636MOL0     C85739   1.624  10.267  11.650  0.5745 -0.3892 -0.0781
  636MOL0     C85740   1.771  10.256  11.696  0.5257  0.4802  0.4662
  636MOL0     C85741   1.854  10.367  11.635  0.4454  0.0760  0.3460
  636MOL0     N85742   1.988  10.314  11.613 -0.2012  0.1696  0.7319
  636MOL0     C85743   2.089  10.309  11.700 -0.4522  0.4334 -0.8139
  636MOL0     C85744   2.172  10.222  11.647 -0.6666  0.0626  0.7308
  636MOL0     C85745   2.300  10.182  11.711  1.6093 -0.1559 -0.7162
  636MOL0     C85746   2.414  10.283  11.697  0.7610  0.4123 -0.0877
  636MOL0     C85747   2.383  10.438  11.710 -0.9665  0.4963  0.4489
  636MOL0     C85748   2.510  10.513  11.720 -0.2955  0.0729 -0.1457
  636MOL0     O85749   2.575  10.489  11.842  0.0004  0.0771  0.5544
  636MOL0     C85750   2.697  10.553  11.866  0.9254 -0.6035  0.1656
  636MOL0     C85751   2.761  10.520  11.977 -0.3817  0.9394 -0.5502
  636MOL0     C85752   2.884  10.581  12.001  0.7477  0.4692 -0.6283
  636MOL0     C85753   2.942  10.672  11.911  0.1934 -0.2569  0.1795
  636MOL0     C85754   3.069  10.739  11.948 -0.4925 -0.6569 -0.0338
  636MOL0     O85755   3.111  10.709  12.073  0.0791 -0.9231 -0.1341
  636MOL0     C85756   3.237  10.752  12.113  0.3150 -0.8822  0.5234
  636MOL0     C85757   3.355  10.740  12.041 -1.2145 -0.7072 -0.7853
  636MOL0     C85758   3.480  10.790  12.090 -0.2215 -0.3000  0.1558
  636MOL0     C85759   3.480  10.834  12.218 -0.3456  0.4536 -0.5565
  636MOL0     O85760   3.604  10.863  12.269  0.6197 -0.0262  0.4356
  636MOL0     C85761   3.622  10.988  12.335 -0.5361  0.7438 -0.1194
  636MOL0     C85762   3.756  10.984  12.410  0.0595  0.7104 -0.3254
  636MOL0     C85763   3.878  10.994  12.314 -0.1721 -1.0525  0.3422
  636MOL0     C85764   3.973  10.872  12.324 -0.2282  0.2068  0.7145
  636MOL0     C85765   4.118  10.911  12.313  0.4763  0.2493  0.7276
  636MOL0     C85766   4.215  10.792  12.311 -0.4277 -0.5642  0.1062
  636MOL0     C85767   4.360  10.841  12.286  0.5832  0.1846 -0.0772
  636MOL0     C85768   4.444  10.726  12.240  0.4418 -0.2670  0.9226
  636MOL0    Cl85769   4.388  10.701  12.066  0.0589 -0.2264 -0.4072
  636MOL0     C85770   3.361  10.855  12.288 -0.2805  0.4680  0.0590
  636MOL0     C85771   3.243  10.801  12.246  0.4518  0.3698  0.4702
  636MOL0     O85772   3.125  10.815  11.868 -0.7647 -0.2253 -0.6182
  636MOL0     C85773   2.873  10.713  11.806  0.0047  0.4909  0.1488
  636MOL0     C85774   2.750  10.651  11.777 -0.9264 -0.4963 -0.1539
  636MOL0     N85775   2.129  10.177  11.526  0.7343  0.6764  0.8617
  636MOL0     N85776   2.016  10.229  11.508  0.8144  0.0035  0.6622
  636MOL0     C85777   1.150   9.950  11.422 -0.0141 -0.2991  0.3203
  636MOL0     C85778   1.054   9.875  11.351  0.0755  0.2038 -0.7414
  636MOL0     C85779   0.709   9.621  11.217 -0.4312  0.5993 -0.3204
  636MOL0     C85780   0.690   9.519  11.314 -0.3007 -0.4738  0.2272
  636MOL0     C85781   0.595   9.423  11.290  0.7996  0.2965  0.6382
  636MOL0     C85782   0.517   9.418  11.179  0.1006  0.9496 -0.2982
  636MOL0     O85783   0.434   9.314  11.154  0.0859  0.2715 -0.1211
  636MOL0     C85784   0.478   9.229  11.055  0.6229  0.5009  1.2243
  636MOL0     C85785   0.389   9.104  11.028  0.6747  0.6273  0.3548
  636MOL0     C85786   0.442   9.027  10.902 -0.3142  0.9190  0.1212
  636MOL0     C85787   0.545   8.921  10.949 -0.2430 -0.1770  0.0211
  636MOL0     C85788   0.561   8.817  10.843 -0.1568 -0.5790  0.4327
  636MOL0     C85789   0.571   8.752  10.740  0.4413  0.1906  0.2722
  636MOL0     C85790   0.527   9.516  11.084 -0.2361 -1.0206  1.0101
  636MOL0     C85791   0.617   9.626  11.110  0.3748 -0.5518  0.1854
  636MOL0     C85792   0.607   9.738  11.014  0.0738  0.6407 -0.2196
  636MOL0     H85793   0.953   9.661  11.584 -1.7145  0.9269  0.9837
  636MOL0     H85794   1.132   9.770  11.707  1.1402  1.4966  0.5429
  636MOL0     H85795   1.274  10.096  11.768 -0.8448  0.7243 -1.0983
  636MOL0     H85796   1.151   9.972  11.767 -0.9877  1.2780 -1.7278
  636MOL0     H85797   1.349   9.803  11.781 -1.7180  0.7380  0.1786
  636MOL0     H85798   1.335   9.897  11.926 -0.1415  0.2282  0.0459
  636MOL0     H85799   1.553   9.876  11.718  1.0078  2.1962 -0.5090
  636MOL0     H85800   1.570   9.898  11.888 -0.0768 -0.4982  0.5396
  636MOL0     H85801   1.464  10.128  11.859 -0.5237 -1.9367  0.0520
  636MOL0     H85802   1.638  10.095  11.844  0.9178  2.3545 -2.0296
  636MOL0     H85803   1.585  10.056  11.598  0.2411  0.5675  0.6232
  636MOL0     H85804   1.442  10.166  11.624  1.1299  2.3307 -1.3983
  636MOL0     H85805   1.623  10.298  11.545 -0.5212 -0.2814 -0.0470
  636MOL0     H85806   1.573  10.343  11.710 -0.3743 -0.0069 -1.3394
  636MOL0     H85807   1.818  10.162  11.667  2.3456  1.0242  1.4811
  636MOL0     H85808   1.786  10.255  11.805 -0.1871  1.2855  0.5799
  636MOL0     H85809   1.824  10.387  11.532 -0.1809 -2.6900 -0.0806
  636MOL0     H85810   1.860  10.461  11.690  4.3690 -0.5769  1.3340
  636MOL0     H85811   2.100  10.357  11.797 -0.0654  1.4724 -1.3550
  636MOL0     H85812   2.278  10.172  11.818 -1.7493  0.3173 -1.2673
  636MOL0     H85813   2.328  10.088  11.662  1.0664  0.7913 -2.9638
  636MOL0     H85814   2.479  10.254  11.780 -1.5340  1.6680  2.3279
  636MOL0     H85815   2.451  10.258  11.598  1.1026 -0.4577  0.2461
  636MOL0     H85816   2.331  10.463  11.803 -0.0535 -0.2589  1.1769
  636MOL0     H85817   2.315  10.460  11.627 -0.6468  0.5651  0.2037
  636MOL0     H85818   2.494  10.619  11.696  0.8814  0.0562 -1.0735
  636MOL0     H85819   2.574  10.477  11.639 -0.4474  1.6435 -1.0023
  636MOL0     H85820   2.715  10.448  12.044 -2.6650 -1.1304 -3.9911
  636MOL0     H85821   2.930  10.547  12.093  0.3260  1.3610 -0.0730
  636MOL0     H85822   3.369  10.705  11.939 -0.1492  1.1037 -1.3213
  636MOL0     H85823   3.573  10.805  12.036 -0.5154  2.5079  0.2588
  636MOL0     H85824   3.621  11.069  12.261  0.5978  0.9841  0.1107
  636MOL0     H85825   3.545  11.012  12.409 -1.5434  0.3792 -1.0169
  636MOL0     H85826   3.755  11.078  12.465  0.3346  1.4799 -1.6005
  636MOL0     H85827   3.761  10.896  12.475  0.6123  0.4432 -0.7264
  636MOL0     H85828   3.854  11.008  12.208 -0.7530 -2.0406  0.3283
  636MOL0     H85829   3.943  11.077  12.343  0.8952 -1.5515 -0.5723
  636MOL0     H85830   3.943  10.802  12.246  0.3653  0.4786  0.2270
  636MOL0     H85831   3.950  10.823  12.418 -1.1058 -0.9590 -0.0920
  636MOL0     H85832   4.137  10.984  12.392 -1.7043  0.5753  1.0075
  636MOL0     H85833   4.122  10.963  12.217 -4.7397  0.9185  0.6170
  636MOL0     H85834   4.220  10.747  12.411 -1.8088 -0.0811  0.4111
  636MOL0     H85835   4.196  10.718  12.233  2.7643 -0.1358 -1.2409
  636MOL0     H85836   4.400  10.887  12.377 -2.0745 -2.2063  2.4967
  636MOL0     H85837   4.366  10.920  12.210  1.7860  0.1568 -0.0276
  636MOL0     H85838   4.548  10.759  12.240  0.5797 -0.4266 -1.8495
  636MOL0     H85839   4.426  10.636  12.300  1.9096 -2.0127 -1.0538
  636MOL0     H85840   3.378  10.892  12.389 -0.6113  1.3368 -0.2019
  636MOL0     H85841   3.154  10.824  12.303  1.9168  3.6196  1.6703
  636MOL0     H85842   2.916  10.783  11.735  0.5916 -0.3964 -0.3998
  636MOL0     H85843   2.690  10.683  11.692 -1.5018 -0.7485  0.1516
  636MOL0     H85844   1.204  10.035  11.382 -1.0119  0.8874  1.3928
  636MOL0     H85845   1.031   9.918  11.254 -1.3866  3.1580  0.7671
  636MOL0     H85846   0.757   9.501  11.398  0.4681 -1.3567 -0.5601
  636MOL0     H85847   0.583   9.343  11.363 -0.3261 -1.1486 -1.0347
  636MOL0     H85848   0.577   9.193  11.084  1.5528  0.9528 -1.1453
  636MOL0     H85849   0.478   9.275  10.956 -1.6183 -2.0441 -0.1095
  636MOL0     H85850   0.287   9.133  11.004 -0.5922 -2.1262  1.9252
  636MOL0     H85851   0.392   9.047  11.122  0.1021  1.2280  0.7402
  636MOL0     H85852   0.485   9.091  10.824 -0.2864  0.6523 -0.0876
  636MOL0     H85853   0.363   8.968  10.855  1.7444 -0.3647 -1.9594
  636MOL0     H85854   0.639   8.965  10.982 -0.6907  1.3402 -0.6123
  636MOL0     H85855   0.512   8.873  11.041  2.0271 -0.4318  0.7671
  636MOL0     H85856   0.595   8.704  10.647 -0.8615 -0.4788  0.2621
  636MOL0     H85857   0.449   9.508  11.010  0.7332 -4.4632  0.1531
  636MOL0     H85858   0.615   9.835  11.063  1.1024  1.5242 -2.0495
  636MOL0     H85859   0.686   9.735  10.938  1.6321 -1.0121  1.3656
  636MOL0     H85860   0.512   9.736  10.959  1.1311  0.2627 -2.1239
  637MOL0     O85861  10.226   7.943   0.080  0.0420  0.4656 -0.2403
  637MOL0     C85862  10.325   7.887   0.131  0.8136 -0.7847  0.1618
  637MOL0     O85863  10.346   7.867   0.259 -0.9548  0.1182 -0.1009
  637MOL0     C85864  10.271   7.923   0.361  0.6497 -1.0707  0.4672
  637MOL0     C85865  10.213   8.055   0.357  0.9018  1.0026 -0.2550
  637MOL0     C85866  10.140   8.101   0.468 -0.3912  0.5759 -0.3051
  637MOL0     C85867  10.138   8.030   0.585  0.5968 -0.1471  0.1044
  637MOL0     O85868  10.105   8.103   0.696 -0.1421  0.2115  0.2196
  637MOL0     C85869  10.206   8.145   0.781 -0.7028  0.5388 -0.8256
  637MOL0     C85870  10.266   8.271   0.732 -0.1796 -0.3544  0.0722
  637MOL0     C85871  10.365   8.317   0.834  0.6243  0.0608 -0.1001
  637MOL0     C85872  10.372   8.464   0.861 -0.2676 -0.2283  0.2278
  637MOL0     C85873  10.481   8.542   0.783  0.1166 -0.3520 -0.4280
  637MOL0     C85874  10.482   8.692   0.801 -0.4106  0.4176 -0.0049
  637MOL0     C85875  10.593   8.748   0.705 -0.2042 -0.3355 -0.7577
  637MOL0     C85876  10.606   8.896   0.733  0.4303 -0.0971  0.0805
  637MOL0     N85877  10.740   8.950   0.722  0.2218  0.5509 -0.3349
  637MOL0     C85878  10.832   8.927   0.619 -0.2175  0.4552  1.1582
  637MOL0     C85879  10.923   9.019   0.644 -0.7430 -0.9527 -0.3720
  637MOL0     C85880  11.020   9.072   0.549 -0.3931 -0.7553 -1.1922
  637MOL0     C85881  11.113   8.950   0.504  0.5008 -0.4127  0.7194
  637MOL0     C85882  11.203   8.989   0.386  0.1731  0.8272 -0.0453
  637MOL0     C85883  11.303   9.104   0.397  0.6204 -0.2951  0.2799
  637MOL0     O85884  11.420   9.070   0.473 -0.1104  0.4102  0.3518
  637MOL0     C85885  11.535   9.098   0.413 -0.1235 -0.2374 -0.6511
  637MOL0     C85886  11.625   9.179   0.473 -0.0486  0.3720  0.0079
  637MOL0     C85887  11.753   9.203   0.429 -0.8314 -0.6668 -0.2054
  637MOL0     C85888  11.785   9.153   0.300  0.2961  0.0023  1.0790
  637MOL0     C85889  11.929   9.167   0.249  0.1002 -0.0310  0.6838
  637MOL0     O85890  12.006   9.263   0.311  0.6160 -0.6420  0.6192
  637MOL0     C85891  12.144   9.268   0.310  0.3005  0.5743  0.1399
  637MOL0     C85892  12.199   9.387   0.358  0.1547 -0.0454 -0.2049
  637MOL0     C85893  12.331   9.408   0.351 -0.1774 -0.7971 -0.6918
  637MOL0     C85894  12.417   9.313   0.320 -0.9417  0.2036 -0.2699
  637MOL0     O85895  12.550   9.326   0.333 -0.2765 -0.2552  0.0535
  637MOL0     C85896  12.605   9.435   0.251  0.1193  0.3655  0.4776
  637MOL0     C85897  12.734   9.485   0.319  1.1639  0.9528  0.0781
  637MOL0     C85898  12.794   9.611   0.255  0.3542  0.0267 -0.7341
  637MOL0     C85899  12.941   9.625   0.304 -0.3135 -0.2232 -0.6421
  637MOL0     C85900  13.011   9.733   0.218 -0.1087  0.6345  0.1101
  637MOL0     C85901  13.158   9.748   0.261  0.1824  0.5811  0.0519
  637MOL0     C85902  13.170   9.799   0.405 -0.1981 -0.0866  0.3652
  637MOL0     C85903  13.300   9.885   0.409 -0.0380 -0.8035  0.0278
  637MOL0    Cl85904  13.339   9.922   0.581 -0.4776 -0.1835  0.3439
  637MOL0     C85905  12.370   9.195   0.268 -0.4293  0.1484 -0.3045
  637MOL0     C85906  12.235   9.173   0.263 -0.2884  0.0812 -0.7960
  637MOL0     O85907  11.969   9.093   0.156 -0.0496  1.0420 -0.5000
  637MOL0     C85908  11.679   9.089   0.229 -0.6946 -0.4230  0.3492
  637MOL0     C85909  11.563   9.044   0.286 -0.3289 -0.1736  0.0465
  637MOL0     N85910  10.912   9.070   0.774  0.0249  0.0328  0.8341
  637MOL0     N85911  10.796   9.027   0.817 -0.2694 -0.4569  0.7954
  637MOL0     C85912  10.190   7.902   0.587  0.5244 -0.0011 -0.7480
  637MOL0     C85913  10.254   7.848   0.479  0.5851 -1.1660  0.8128
  637MOL0     C85914  10.432   7.854   0.045 -0.6735  0.4662  1.4978
  637MOL0     C85915  10.515   7.957  -0.003  1.1605 -0.1213 -0.5908
  637MOL0     C85916  10.627   7.928  -0.087  0.3768  0.6135  0.8797
  637MOL0     C85917  10.652   7.789  -0.121 -0.3958  0.0567 -1.0324
  637MOL0     O85918  10.767   7.758  -0.191 -0.2327 -0.2727  0.3191
  637MOL0     C85919  10.776   7.633  -0.258  0.6037  0.4220  0.0445
  637MOL0     C85920  10.895   7.629  -0.357 -0.0799 -0.1054  0.2317
  637MOL0     C85921  10.856   7.684  -0.491  0.2078 -0.2503 -0.4247
  637MOL0     C85922  10.973   7.716  -0.586 -0.4281  0.3445  0.4526
  637MOL0     C85923  10.936   7.825  -0.673  0.4822  0.8384 -0.1557
  637MOL0     C85924  10.926   7.917  -0.756 -0.1373 -1.0110  0.8434
  637MOL0     C85925  10.561   7.690  -0.076  0.1185  0.5378 -0.5428
  637MOL0     C85926  10.461   7.721   0.013 -0.0610 -0.1561  0.1124
  637MOL0     C85927  10.392   7.602   0.080 -0.1189 -0.2012 -0.0903
  637MOL0     H85928  10.218   8.124   0.273 -3.2252  1.6801 -0.1779
  637MOL0     H85929  10.119   8.205   0.490  0.2209  0.1294  2.8635
  637MOL0     H85930  10.154   8.154   0.877  2.4894 -0.7935  1.1958
  637MOL0     H85931  10.278   8.063   0.787 -0.8797  0.4075 -0.4255
  637MOL0     H85932  10.182   8.341   0.720  1.7154  1.8897 -0.8355
  637MOL0     H85933  10.308   8.262   0.631  1.0997  2.3273  0.2700
  637MOL0     H85934  10.464   8.279   0.807 -0.5146 -1.2987 -2.5884
  637MOL0     H85935  10.336   8.279   0.933 -0.1945 -2.0872 -1.1151
  637MOL0     H85936  10.276   8.507   0.830 -0.4815  0.2348  1.4851
  637MOL0     H85937  10.386   8.484   0.967  1.6335  1.8914 -0.3407
  637MOL0     H85938  10.571   8.493   0.821 -0.3696 -0.7631  0.2097
  637MOL0     H85939  10.460   8.522   0.678 -5.4446 -0.1356  0.3711
  637MOL0     H85940  10.380   8.729   0.783 -0.7687  1.9666  4.1328
  637MOL0     H85941  10.501   8.703   0.908 -1.3267 -2.0023  0.4947
  637MOL0     H85942  10.567   8.728   0.600  0.4863  0.9700 -1.2012
  637MOL0     H85943  10.688   8.700   0.728 -1.1914 -1.3930  1.3817
  637MOL0     H85944  10.552   8.953   0.657 -0.5549 -0.3234  0.5975
  637MOL0     H85945  10.554   8.936   0.820 -3.1162  1.9247 -2.6910
  637MOL0     H85946  10.818   8.875   0.525 -3.9655 -0.0503  1.8333
  637MOL0     H85947  10.967   9.111   0.461 -0.8825 -1.6076 -1.2833
  637MOL0     H85948  11.082   9.155   0.584 -0.6695 -0.7531 -0.7132
  637MOL0     H85949  11.171   8.923   0.593  1.6590 -2.7367 -0.6250
  637MOL0     H85950  11.056   8.859   0.485  0.5919 -0.4125  0.4411
  637MOL0     H85951  11.135   9.008   0.302 -2.6452 -1.5800  1.5247
  637MOL0     H85952  11.260   8.898   0.363  0.7359  0.5158  2.3678
  637MOL0     H85953  11.250   9.190   0.439 -3.2171 -1.1296 -2.2506
  637MOL0     H85954  11.321   9.135   0.293  1.7676  0.2266  0.6267
  637MOL0     H85955  11.587   9.216   0.567  0.4736 -1.6658  1.0800
  637MOL0     H85956  11.826   9.251   0.493  1.6645 -1.1629 -2.4970
  637MOL0     H85957  12.136   9.466   0.398 -0.1084  2.0732 -4.3460
  637MOL0     H85958  12.378   9.497   0.393 -0.4019  0.2952 -2.6265
  637MOL0     H85959  12.633   9.397   0.152  2.5852  1.4508  0.6833
  637MOL0     H85960  12.537   9.518   0.230  1.6047  0.8718 -2.9263
  637MOL0     H85961  12.699   9.507   0.420  1.1447  0.0458  0.2727
  637MOL0     H85962  12.808   9.404   0.324  0.3572  0.2498  0.9774
  637MOL0     H85963  12.790   9.610   0.145  0.3058  0.9248 -0.7437
  637MOL0     H85964  12.727   9.687   0.296 -0.4734 -0.8176 -0.4712
  637MOL0     H85965  12.996   9.530   0.300  0.0678 -0.0465  0.1551
  637MOL0     H85966  12.939   9.646   0.412 -0.4172  1.1697 -0.9064
  637MOL0     H85967  12.968   9.833   0.232  2.6893  1.6028  2.6991
  637MOL0     H85968  12.991   9.703   0.114 -3.4311 -0.3148  0.8902
  637MOL0     H85969  13.208   9.651   0.252  0.3379  0.7299 -0.8512
  637MOL0     H85970  13.208   9.816   0.192  0.2924 -0.0094 -0.4688
  637MOL0     H85971  13.183   9.712   0.470  1.7211 -1.0828 -1.2514
  637MOL0     H85972  13.081   9.852   0.440 -0.8810 -1.6510  1.1071
  637MOL0     H85973  13.384   9.826   0.371  1.6111  0.0938  2.0505
  637MOL0     H85974  13.275   9.978   0.357 -1.2426 -0.2655  1.4927
  637MOL0     H85975  12.432   9.109   0.247 -1.8089 -0.8409 -0.4692
  637MOL0     H85976  12.209   9.074   0.227  2.0351 -1.2740  0.9670
  637MOL0     H85977  11.704   9.060   0.127 -0.7754 -1.6145  0.6527
  637MOL0     H85978  11.495   8.974   0.238  0.4381 -0.5302 -0.5552
  637MOL0     H85979  10.175   7.848   0.680 -0.2457  0.9541 -0.2881
  637MOL0     H85980  10.292   7.746   0.483  0.1338 -1.3753  0.0357
  637MOL0     H85981  10.481   8.058   0.018  0.1526 -0.5907  0.0965
  637MOL0     H85982  10.693   8.008  -0.121 -0.0187  1.6925  2.5599
  637MOL0     H85983  10.686   7.614  -0.317  1.8268 -1.1839 -1.3936
  637MOL0     H85984  10.783   7.556  -0.181  1.9611  1.4755  1.0377
  637MOL0     H85985  10.935   7.530  -0.381 -1.4721 -0.2302 -1.8523
  637MOL0     H85986  10.974   7.690  -0.313  0.1552 -0.2414 -0.0017
  637MOL0     H85987  10.798   7.776  -0.473  0.0723 -0.1212 -1.4796
  637MOL0     H85988  10.782   7.620  -0.539  0.9345  0.5777 -2.7654
  637MOL0     H85989  11.068   7.736  -0.536  0.5778 -0.9478 -0.8700
  637MOL0     H85990  10.996   7.618  -0.629  0.7840 -0.2086  2.2711
  637MOL0     H85991  10.922   8.010  -0.809  0.5435 -1.6089 -0.2991
  637MOL0     H85992  10.585   7.585  -0.088  0.5976 -0.1637  4.4567
  637MOL0     H85993  10.287   7.584   0.052 -0.3237  0.7174  0.0468
  637MOL0     H85994  10.443   7.508   0.056  0.2822 -0.8323  2.8774
  637MOL0     H85995  10.406   7.611   0.188  0.2833 -3.7563  0.2785
  638MOL0     O85996  10.722   5.937   0.807 -0.3125  0.1495  0.5854
  638MOL0     C85997  10.663   6.037   0.773  0.2482  0.2544  0.8759
  638MOL0     O85998  10.705   6.166   0.793 -0.5675 -0.0062  0.3493
  638MOL0     C85999  10.822   6.177   0.867 -0.1733 -0.1014  0.5334
  638MOL0     C86000  10.937   6.212   0.803  0.0592  0.0783 -0.9723
  638MOL0     C86001  11.037   6.255   0.880 -0.0255  0.1242 -0.0714
  638MOL0     C86002  11.039   6.236   1.021 -0.2147 -0.0503 -0.7393
  638MOL0     O86003  11.151   6.274   1.092 -0.4605  0.2677 -0.5472
  638MOL0     C86004  11.198   6.186   1.205  0.6854 -0.1956  0.8883
  638MOL0     C86005  11.344   6.156   1.206 -0.3811  0.3917  0.2217
  638MOL0     C86006  11.386   6.078   1.085  0.9401  0.2096  0.5299
  638MOL0     C86007  11.435   6.165   0.966 -0.3513 -0.1459  0.3737
  638MOL0     C86008  11.377   6.117   0.832  0.6595 -0.1567 -0.1832
  638MOL0     C86009  11.456   5.996   0.785 -0.7127 -0.2470  1.5117
  638MOL0     C86010  11.407   5.951   0.646 -0.3198  0.3834 -0.1210
  638MOL0     C86011  11.445   5.801   0.619 -0.0529 -0.9596 -0.4788
  638MOL0     N86012  11.582   5.781   0.639  0.1900  0.2514  0.3864
  638MOL0     C86013  11.622   5.726   0.758  0.2875  0.5503  0.0507
  638MOL0     C86014  11.753   5.731   0.753  0.0306  0.0116  0.0019
  638MOL0     C86015  11.840   5.708   0.877 -0.2667 -0.0781  0.0730
  638MOL0     C86016  11.884   5.563   0.891 -0.3840 -0.9713 -0.3902
  638MOL0     C86017  11.979   5.524   0.774  0.7711  0.8444 -0.1491
  638MOL0     C86018  12.008   5.372   0.776  0.2999  0.1775 -0.0069
  638MOL0     O86019  12.100   5.335   0.674  0.0538 -0.4656  0.3711
  638MOL0     C86020  12.219   5.293   0.715  0.0547 -0.2393 -0.5061
  638MOL0     C86021  12.327   5.368   0.677  0.3577  0.0698  0.3962
  638MOL0     C86022  12.453   5.324   0.714  0.6563 -0.4250  0.2896
  638MOL0     C86023  12.466   5.204   0.786 -0.2415 -0.4586 -0.9335
  638MOL0     C86024  12.602   5.162   0.817 -0.3375 -0.0486 -1.3080
  638MOL0     O86025  12.702   5.259   0.818 -0.1222  0.3201  0.9070
  638MOL0     C86026  12.830   5.226   0.848 -0.2398 -0.6766 -0.3559
  638MOL0     C86027  12.876   5.152   0.952 -0.4377 -0.2516  0.2639
  638MOL0     C86028  13.015   5.136   0.990 -0.2290  0.4550  1.0542
  638MOL0     C86029  13.109   5.210   0.912 -0.3745 -0.4580  0.0968
  638MOL0     O86030  13.240   5.193   0.948  0.0216  0.3757  0.2693
  638MOL0     C86031  13.340   5.291   0.908  0.3906 -0.3620 -0.2527
  638MOL0     C86032  13.459   5.281   1.010  0.6357 -0.4807 -0.4140
  638MOL0     C86033  13.568   5.374   0.962 -0.1974 -1.1096 -0.1997
  638MOL0     C86034  13.687   5.373   1.056 -0.2669 -0.2055  0.8401
  638MOL0     C86035  13.797   5.455   0.985  0.4204  0.7009  0.1204
  638MOL0     C86036  13.923   5.436   1.071  0.3529 -0.9013 -0.3928
  638MOL0     C86037  14.055   5.481   0.997  0.0717 -0.0938  0.3129
  638MOL0     C86038  14.165   5.527   1.104 -0.0353 -0.0217  0.5399
  638MOL0    Cl86039  14.086   5.651   1.203  0.2254  0.5912 -0.0184
  638MOL0     C86040  13.061   5.303   0.816  1.0242  0.0910 -0.5010
  638MOL0     C86041  12.918   5.309   0.789  1.0499 -0.1427 -0.0915
  638MOL0     O86042  12.618   5.043   0.841 -0.8236 -0.1539 -0.4735
  638MOL0     C86043  12.353   5.125   0.816  0.3415  1.4851 -0.7090
  638MOL0     C86044  12.232   5.181   0.792 -0.8633  0.2326  0.7887
  638MOL0     N86045  11.785   5.795   0.638 -0.2857  0.0062  0.5153
  638MOL0     N86046  11.683   5.821   0.562 -0.8075  0.1736 -0.2310
  638MOL0     C86047  10.929   6.177   1.080  0.1489 -1.2563  0.1679
  638MOL0     C86048  10.819   6.155   1.003  0.5112 -0.3910 -0.1114
  638MOL0     C86049  10.531   6.024   0.714 -0.0888 -0.1170  0.3084
  638MOL0     C86050  10.505   5.917   0.628  0.1969  0.0900 -0.7632
  638MOL0     C86051  10.379   5.901   0.569 -0.5973  0.3242  0.1424
  638MOL0     C86052  10.289   6.000   0.572  0.1894  0.9932  0.2945
  638MOL0     O86053  10.180   5.989   0.485  0.3177 -1.0757 -0.4128
  638MOL0     C86054  10.082   6.096   0.473 -0.2442  0.4250 -0.4186
  638MOL0     C86055   9.971   6.040   0.387 -0.5132  0.0571  0.1710
  638MOL0     C86056   9.841   6.132   0.389  0.3980 -0.8146 -0.7984
  638MOL0     C86057   9.770   6.139   0.252 -0.0430 -0.0704 -0.0841
  638MOL0     C86058   9.718   6.003   0.211 -0.0473  0.2166 -1.0268
  638MOL0     C86059   9.685   5.896   0.165  0.3465  0.3285  0.1629
  638MOL0     C86060  10.321   6.115   0.645  0.7937  1.0624  0.3456
  638MOL0     C86061  10.435   6.133   0.725 -0.5316  0.6066  0.4189
  638MOL0     C86062  10.421   6.233   0.832 -0.7244 -1.1203 -0.3040
  638MOL0     H86063  10.949   6.214   0.695  1.5476  2.6167 -0.8451
  638MOL0     H86064  11.129   6.289   0.834  0.4230 -3.1561 -1.8975
  638MOL0     H86065  11.176   6.237   1.299  0.2475  2.6558 -0.6197
  638MOL0     H86066  11.132   6.099   1.212 -0.8652  0.9708  1.4706
  638MOL0     H86067  11.354   6.096   1.297  4.7398  3.2185  1.9139
  638MOL0     H86068  11.404   6.245   1.224  0.3386 -0.3635  1.8112
  638MOL0     H86069  11.310   6.008   1.050  0.0031  0.7949  1.3301
  638MOL0     H86070  11.472   6.018   1.117  2.5150  0.7144 -2.3693
  638MOL0     H86071  11.403   6.268   0.984  1.0325  0.4171 -0.2362
  638MOL0     H86072  11.544   6.160   0.963 -0.4278 -1.4546 -0.9965
  638MOL0     H86073  11.273   6.090   0.847  0.5261  1.4964  2.4081
  638MOL0     H86074  11.379   6.203   0.763 -0.1258  1.0018  1.1770
  638MOL0     H86075  11.561   6.025   0.771 -1.3558  1.5675  0.0969
  638MOL0     H86076  11.470   5.921   0.864  0.0389  0.1105  1.7302
  638MOL0     H86077  11.441   6.019   0.568  3.1283 -0.4401  0.4817
  638MOL0     H86078  11.298   5.949   0.650 -0.3186 -0.2426 -0.3095
  638MOL0     H86079  11.390   5.734   0.685 -0.5945 -1.4527 -1.4074
  638MOL0     H86080  11.415   5.768   0.519  0.1327 -1.1905 -0.4571
  638MOL0     H86081  11.565   5.685   0.841  0.4618  3.1723  1.5973
  638MOL0     H86082  11.927   5.773   0.859 -0.4678  0.0775 -0.3623
  638MOL0     H86083  11.796   5.742   0.971 -2.0529  1.1292 -1.1441
  638MOL0     H86084  11.928   5.546   0.989 -0.2519 -0.3994 -0.3420
  638MOL0     H86085  11.789   5.509   0.881 -2.4706  2.0134  1.5479
  638MOL0     H86086  12.077   5.574   0.769  0.6419  1.0210 -1.3603
  638MOL0     H86087  11.930   5.535   0.676 -0.5711 -0.0169  0.4010
  638MOL0     H86088  11.912   5.321   0.770  0.8401 -1.1041  1.6280
  638MOL0     H86089  12.041   5.352   0.878 -0.5622  2.2169  0.7296
  638MOL0     H86090  12.322   5.453   0.610 -1.4996 -1.5546 -1.6782
  638MOL0     H86091  12.540   5.386   0.693 -0.4905  2.0590  2.4404
  638MOL0     H86092  12.804   5.080   0.990  1.5841 -1.7283  1.4954
  638MOL0     H86093  13.047   5.066   1.066 -0.9183 -1.0357  0.0100
  638MOL0     H86094  13.379   5.248   0.816 -2.4628 -0.6711 -1.3964
  638MOL0     H86095  13.300   5.392   0.897  1.0637 -0.0848 -0.2152
  638MOL0     H86096  13.424   5.303   1.112  2.8227 -0.8609  0.4652
  638MOL0     H86097  13.497   5.179   1.021  0.3166 -0.4708  0.9671
  638MOL0     H86098  13.600   5.358   0.858 -0.0089  0.6041 -0.4309
  638MOL0     H86099  13.526   5.475   0.966  1.0930 -0.5637  0.1364
  638MOL0     H86100  13.711   5.267   1.070 -1.7007 -0.7230 -0.2935
  638MOL0     H86101  13.666   5.412   1.156 -0.9060  1.9773 -0.0968
  638MOL0     H86102  13.769   5.559   0.967  0.7523  0.3636 -2.7802
  638MOL0     H86103  13.817   5.414   0.885  4.7339 -0.7433  1.3366
  638MOL0     H86104  13.899   5.497   1.158  1.3966 -2.0582  0.7401
  638MOL0     H86105  13.940   5.333   1.104 -0.3165 -0.6721  0.7312
  638MOL0     H86106  14.028   5.555   0.921 -1.0802 -0.3831  0.4145
  638MOL0     H86107  14.097   5.394   0.945  0.8425  1.3812 -1.6133
  638MOL0     H86108  14.197   5.446   1.170  2.3465  0.1851 -0.2574
  638MOL0     H86109  14.259   5.563   1.060  0.8861  1.0470  3.1355
  638MOL0     H86110  13.124   5.369   0.757  1.8614  0.9611  1.2878
  638MOL0     H86111  12.882   5.381   0.717 -1.3562 -1.1119  0.0240
  638MOL0     H86112  12.361   5.029   0.866  1.7603  1.6028 -0.6590
  638MOL0     H86113  12.147   5.130   0.836  1.1033 -2.8449  1.3856
  638MOL0     H86114  10.934   6.164   1.188 -2.6967  1.8446  0.8500
  638MOL0     H86115  10.721   6.124   1.037  0.0581  0.3021 -0.7341
  638MOL0     H86116  10.587   5.846   0.618 -1.1397 -1.5628 -0.3626
  638MOL0     H86117  10.356   5.823   0.497  1.9104 -0.7521  0.3953
  638MOL0     H86118  10.121   6.186   0.425 -0.8047  0.9294  0.0464
  638MOL0     H86119  10.049   6.124   0.574  1.9149 -0.0909  0.5089
  638MOL0     H86120   9.943   5.942   0.427  2.3634 -0.5004  1.0849
  638MOL0     H86121  10.005   6.039   0.283 -0.3906 -3.4446  0.1273
  638MOL0     H86122   9.869   6.231   0.425  2.4542 -2.0170  1.1705
  638MOL0     H86123   9.762   6.100   0.457  1.5219  0.4442  1.1866
  638MOL0     H86124   9.685   6.207   0.248  1.0570  1.3490 -3.6378
  638MOL0     H86125   9.838   6.181   0.177  0.9559  0.0809  0.8912
  638MOL0     H86126   9.644   5.809   0.120  1.9495 -1.2419  1.5579
  638MOL0     H86127  10.240   6.182   0.671  0.3991 -0.6329  4.1775
  638MOL0     H86128  10.470   6.329   0.813 -1.1349 -0.8248  0.1221
  638MOL0     H86129  10.316   6.259   0.845 -0.1639  0.3935  1.6989
  638MOL0     H86130  10.461   6.185   0.923  3.2128 -1.9050 -2.2080
  639MOL0     O86131   0.789   2.836   2.226  0.0817 -0.0671  0.9323
  639MOL0     C86132   0.680   2.805   2.171 -0.1989  0.3901  1.1847
  639MOL0     O86133   0.651   2.799   2.036 -0.5855  0.1716 -0.0295
  639MOL0     C86134   0.746   2.841   1.945  0.0814  0.3651  0.1370
  639MOL0     C86135   0.723   2.939   1.850  0.6100  0.0429 -0.1427
  639MOL0     C86136   0.833   2.991   1.781 -0.9390  0.3091 -0.1332
  639MOL0     C86137   0.966   2.929   1.791 -0.4745 -0.6585  0.6050
  639MOL0     O86138   1.075   2.953   1.715  0.3806  0.2321  1.2846
  639MOL0     C86139   1.081   3.065   1.639 -0.0876 -0.3455  0.7739
  639MOL0     C86140   1.234   3.079   1.611 -0.3369  0.5048 -0.5153
  639MOL0     C86141   1.330   3.111   1.731  0.2761  0.5251 -0.4836
  639MOL0     C86142   1.469   3.151   1.679 -0.1316 -0.6765  1.2201
  639MOL0     C86143   1.576   3.159   1.787  0.1816  0.0587 -0.8356
  639MOL0     C86144   1.702   3.204   1.716 -0.0780 -0.0968  0.3497
  639MOL0     C86145   1.829   3.226   1.809  0.0026 -0.2495  0.7182
  639MOL0     C86146   1.812   3.359   1.894  0.1571 -0.5373  0.4892
  639MOL0     N86147   1.930   3.405   1.970 -0.1400  0.0658  0.0437
  639MOL0     C86148   2.033   3.485   1.926 -0.5371 -0.1445 -0.6521
  639MOL0     C86149   2.093   3.515   2.042 -0.4762  0.0173  0.3921
  639MOL0     C86150   2.221   3.593   2.053 -0.4563  0.4048  0.5363
  639MOL0     C86151   2.257   3.638   2.191 -0.2702 -0.3196 -0.9300
  639MOL0     C86152   2.409   3.676   2.187 -0.4063 -0.4197  0.0368
  639MOL0     C86153   2.459   3.705   2.334 -0.2829 -0.0809  0.5912
  639MOL0     O86154   2.568   3.798   2.332 -0.4876 -0.0582 -0.0448
  639MOL0     C86155   2.693   3.745   2.302  0.3371  0.9602  0.6732
  639MOL0     C86156   2.727   3.603   2.297  0.0662 -0.3837  0.0007
  639MOL0     C86157   2.851   3.567   2.271 -0.3015  0.1360  0.5510
  639MOL0     C86158   2.951   3.657   2.239 -0.5590 -0.3667 -0.4265
  639MOL0     C86159   3.089   3.624   2.206  0.2978 -0.1625  0.2713
  639MOL0     O86160   3.119   3.499   2.169  0.6439  0.0296  0.2014
  639MOL0     C86161   3.244   3.463   2.129  0.9277  0.1975  0.1235
  639MOL0     C86162   3.356   3.476   2.215 -0.1738  0.0737 -0.4508
  639MOL0     C86163   3.479   3.427   2.173 -1.0120 -0.0187  0.8159
  639MOL0     C86164   3.500   3.360   2.051  0.9897  0.1915  0.2259
  639MOL0     O86165   3.616   3.312   2.001 -0.3816  0.4418 -0.7507
  639MOL0     C86166   3.726   3.299   2.090 -0.1943  0.9977 -0.3804
  639MOL0     C86167   3.836   3.244   2.004 -0.0421  0.5673  0.0592
  639MOL0     C86168   3.965   3.235   2.079 -0.4352 -0.2647 -0.0419
  639MOL0     C86169   4.092   3.227   1.995  0.1754  0.3203  0.2629
  639MOL0     C86170   4.222   3.206   2.075 -0.5004 -0.3265 -0.5151
  639MOL0     C86171   4.344   3.214   1.983  0.4685 -0.4412  0.4593
  639MOL0     C86172   4.468   3.177   2.057  0.8067 -0.7596 -0.4483
  639MOL0     C86173   4.598   3.212   1.984 -0.2379 -1.0126  0.3009
  639MOL0    Cl86174   4.596   3.400   1.985 -0.1609 -0.2937 -0.7999
  639MOL0     C86175   3.381   3.340   1.970 -0.0307 -0.2568 -0.6922
  639MOL0     C86176   3.258   3.393   2.014  0.6278  0.2421  0.4461
  639MOL0     O86177   3.175   3.711   2.208  0.2285  0.7250  0.3387
  639MOL0     C86178   2.922   3.794   2.243  0.1430 -0.3857 -0.5139
  639MOL0     C86179   2.789   3.836   2.281  0.1211 -0.4539 -0.2332
  639MOL0     N86180   2.044   3.442   2.148  0.8844 -0.1858  0.6307
  639MOL0     N86181   1.946   3.371   2.102 -0.2894 -0.1193  0.4611
  639MOL0     C86182   0.976   2.821   1.870 -0.1602  0.9365 -0.2301
  639MOL0     C86183   0.871   2.783   1.954  0.3521  0.9594  0.7401
  639MOL0     C86184   0.568   2.771   2.258  0.6838 -0.1738  0.2528
  639MOL0     C86185   0.438   2.759   2.206  1.7030 -0.5352  0.9637
  639MOL0     C86186   0.317   2.737   2.279 -0.2863  0.7423  0.3482
  639MOL0     C86187   0.331   2.721   2.415  0.1911 -0.1755 -0.4555
  639MOL0     O86188   0.212   2.718   2.483  0.2436 -0.3099  0.5083
  639MOL0     C86189   0.191   2.820   2.577 -0.1244 -0.0301 -0.4070
  639MOL0     C86190   0.162   2.946   2.503 -0.3642 -0.1780 -0.0022
  639MOL0     C86191   0.033   2.941   2.419 -0.1426  0.0750 -0.0173
  639MOL0     C86192  -0.103   2.972   2.494 -0.6991 -0.2671 -0.0942
  639MOL0     C86193  -0.210   2.898   2.431 -0.7885 -0.4552 -0.5232
  639MOL0     C86194  -0.276   2.814   2.375  0.6839 -0.2635  0.2674
  639MOL0     C86195   0.457   2.727   2.472 -0.5145 -0.1278  0.0749
  639MOL0     C86196   0.575   2.742   2.393  0.4514  0.6341  0.8768
  639MOL0     C86197   0.702   2.723   2.474  1.1302 -0.5295 -0.3082
  639MOL0     H86198   0.624   2.982   1.837  0.6591  0.7018  1.4489
  639MOL0     H86199   0.817   3.062   1.700  2.0804  1.7661  0.4231
  639MOL0     H86200   1.031   3.054   1.543 -0.7958 -0.3611  1.1407
  639MOL0     H86201   1.042   3.153   1.691 -1.8605 -1.2329  1.0272
  639MOL0     H86202   1.262   3.157   1.540  3.1061  1.9675  2.1614
  639MOL0     H86203   1.265   2.986   1.562 -0.1690  0.6410 -0.6706
  639MOL0     H86204   1.364   3.020   1.783  1.5074  2.3348  2.0709
  639MOL0     H86205   1.284   3.181   1.801  0.6153 -0.7457  1.0818
  639MOL0     H86206   1.498   3.069   1.612 -3.9844 -1.2784  0.0559
  639MOL0     H86207   1.464   3.241   1.617 -1.3736  0.0024  2.2507
  639MOL0     H86208   1.565   3.222   1.876 -1.4488  0.4692 -1.2942
  639MOL0     H86209   1.590   3.056   1.821 -0.8224 -0.3656 -1.6434
  639MOL0     H86210   1.721   3.121   1.647 -1.6953 -0.5689  0.4245
  639MOL0     H86211   1.696   3.299   1.663 -1.1934  0.1223  0.8285
  639MOL0     H86212   1.910   3.232   1.735 -1.3604 -1.4231 -0.9339
  639MOL0     H86213   1.842   3.144   1.880 -1.4809 -1.5453 -0.4496
  639MOL0     H86214   1.791   3.447   1.832 -2.3658 -1.0013  0.5888
  639MOL0     H86215   1.729   3.340   1.962 -0.1850  1.8764  0.8392
  639MOL0     H86216   2.064   3.525   1.831 -2.0057 -0.6091 -1.3520
  639MOL0     H86217   2.301   3.531   2.012 -0.0916  0.9183  0.4603
  639MOL0     H86218   2.213   3.687   1.997  2.1516 -0.3749 -1.3587
  639MOL0     H86219   2.198   3.728   2.212 -0.7192 -0.7500 -0.3023
  639MOL0     H86220   2.243   3.562   2.269  2.2504 -0.5869 -0.6744
  639MOL0     H86221   2.423   3.769   2.132  0.3929 -1.3553 -1.4107
  639MOL0     H86222   2.469   3.602   2.133  1.2267  1.0366 -0.2278
  639MOL0     H86223   2.475   3.611   2.387 -2.3874 -0.1558  1.1614
  639MOL0     H86224   2.372   3.754   2.378  0.7006  1.2401  1.1485
  639MOL0     H86225   2.653   3.526   2.313 -0.7487  0.1396 -1.1765
  639MOL0     H86226   2.881   3.464   2.253 -2.6168 -0.1920 -2.1601
  639MOL0     H86227   3.341   3.515   2.315 -1.1122 -0.2794 -0.4436
  639MOL0     H86228   3.561   3.419   2.244 -1.1266 -1.0896  0.8431
  639MOL0     H86229   3.757   3.393   2.138  1.2048 -1.0596  3.0918
  639MOL0     H86230   3.700   3.217   2.158 -2.5947  1.0869 -1.0884
  639MOL0     H86231   3.822   3.139   1.978 -1.2597  0.8871 -0.6252
  639MOL0     H86232   3.848   3.295   1.908 -0.2523 -0.2796 -0.4231
  639MOL0     H86233   3.974   3.318   2.150 -0.8204 -0.5060  0.2920
  639MOL0     H86234   3.955   3.143   2.138 -2.0701 -1.0096 -1.3908
  639MOL0     H86235   4.096   3.318   1.934 -1.5014  1.0550  1.1822
  639MOL0     H86236   4.083   3.148   1.919 -3.2951  0.4904  0.3706
  639MOL0     H86237   4.220   3.112   2.129 -0.8538  1.0980  2.1206
  639MOL0     H86238   4.228   3.294   2.140  0.9697  0.4901 -1.6928
  639MOL0     H86239   4.344   3.147   1.896  0.1803 -0.0683  0.1673
  639MOL0     H86240   4.354   3.314   1.941  1.1984 -0.5168  0.4455
  639MOL0     H86241   4.462   3.068   2.058 -1.7319 -0.6783 -0.6861
  639MOL0     H86242   4.474   3.215   2.159  2.4676 -0.9363 -0.4586
  639MOL0     H86243   4.683   3.160   2.027 -0.6482 -3.0956 -1.2625
  639MOL0     H86244   4.588   3.182   1.879 -0.9707 -0.6932  0.2750
  639MOL0     H86245   3.382   3.284   1.877 -0.1563 -1.6003  0.0998
  639MOL0     H86246   3.162   3.381   1.964 -0.0501  1.2034  1.4761
  639MOL0     H86247   2.990   3.875   2.220  1.0575 -0.4766  1.6088
  639MOL0     H86248   2.764   3.941   2.292  0.6677 -0.3080 -0.3393
  639MOL0     H86249   1.063   2.758   1.883 -1.4681 -0.3332  3.7176
  639MOL0     H86250   0.881   2.696   2.019  0.2547  0.6795  0.3834
  639MOL0     H86251   0.421   2.782   2.102  0.5393  1.7157  1.5808
  639MOL0     H86252   0.220   2.731   2.230  0.2018  2.0499 -0.8322
  639MOL0     H86253   0.274   2.838   2.646 -0.0698  1.6812 -0.8682
  639MOL0     H86254   0.111   2.785   2.642  1.3432 -0.4113  1.2814
  639MOL0     H86255   0.245   2.967   2.436  0.4177 -0.7251  0.7747
  639MOL0     H86256   0.152   3.029   2.574  0.4013  0.0575 -0.1665
  639MOL0     H86257   0.020   2.838   2.385  0.2453  0.4875 -1.4502
  639MOL0     H86258   0.042   3.003   2.330 -0.8429  1.2638  0.7079
  639MOL0     H86259  -0.088   2.948   2.599 -0.9059  3.2498  0.8664
  639MOL0     H86260  -0.128   3.079   2.495  0.5756  0.0481  0.9042
  639MOL0     H86261  -0.337   2.746   2.318  0.7545 -0.9218  0.9685
  639MOL0     H86262   0.470   2.710   2.579  0.2385 -1.2187 -0.1743
  639MOL0     H86263   0.774   2.670   2.410  2.8637 -1.2060  2.0561
  639MOL0     H86264   0.746   2.818   2.507 -3.2452  1.2041  1.2777
  639MOL0     H86265   0.688   2.665   2.565  0.4897  0.2424  0.0956
  640MOL0     O86266   8.795   1.307   1.924 -0.2195 -0.7438 -0.4675
  640MOL0     C86267   8.754   1.198   1.884 -0.3240 -1.4948  1.1190
  640MOL0     O86268   8.830   1.087   1.849 -0.3507 -0.3834  0.5209
  640MOL0     C86269   8.952   1.097   1.795 -0.1342 -0.3375 -0.4176
  640MOL0     C86270   8.999   1.205   1.723  0.2723  0.6347  0.1664
  640MOL0     C86271   9.128   1.199   1.670  0.2848 -0.1255  1.2250
  640MOL0     C86272   9.220   1.096   1.703  0.5661 -0.1692  0.0442
  640MOL0     O86273   9.343   1.096   1.645  0.1118  0.4361 -0.7890
  640MOL0     C86274   9.375   0.962   1.587  0.0456 -0.2303 -0.4066
  640MOL0     C86275   9.523   0.953   1.546  0.0466 -0.1249 -0.0793
  640MOL0     C86276   9.619   0.955   1.667 -0.7256  0.2720  0.7748
  640MOL0     C86277   9.752   0.888   1.634  0.4853 -0.7029 -0.0026
  640MOL0     C86278   9.742   0.733   1.640 -0.1865 -0.0455 -0.2157
  640MOL0     C86279   9.885   0.682   1.675  0.2448 -0.4250  0.1291
  640MOL0     C86280   9.893   0.531   1.653 -0.4688  0.1215  0.4253
  640MOL0     C86281  10.033   0.486   1.676 -0.3895 -0.5153  0.2880
  640MOL0     N86282  10.128   0.536   1.578 -0.1353  0.4239 -0.2768
  640MOL0     C86283  10.264   0.532   1.601 -0.6015 -0.6317  0.0784
  640MOL0     C86284  10.321   0.578   1.485 -0.7585  0.4093  0.4664
  640MOL0     C86285  10.463   0.561   1.443  0.5469  0.3062 -0.5931
  640MOL0     C86286  10.549   0.676   1.495 -0.1740 -0.7044 -0.0022
  640MOL0     C86287  10.693   0.667   1.448 -0.7210 -0.5550 -0.2040
  640MOL0     C86288  10.775   0.762   1.540 -0.4962  0.4039 -0.5564
  640MOL0     O86289  10.913   0.763   1.515  1.1092 -0.0714  0.4675
  640MOL0     C86290  10.990   0.845   1.587  0.0858 -0.1701  0.5769
  640MOL0     C86291  10.942   0.938   1.688 -0.2546 -0.0988  0.3193
  640MOL0     C86292  11.021   1.042   1.743  0.7922 -0.1041  0.7574
  640MOL0     C86293  11.154   1.054   1.697  0.1842 -0.7981  0.1922
  640MOL0     C86294  11.247   1.151   1.764 -0.0763 -0.5373  0.2836
  640MOL0     O86295  11.365   1.182   1.707  0.4503  0.0680 -0.7140
  640MOL0     C86296  11.453   1.261   1.768  0.0820 -0.2494 -0.3680
  640MOL0     C86297  11.523   1.222   1.879 -0.6118 -0.0236  0.6589
  640MOL0     C86298  11.612   1.308   1.943 -0.3631  0.1872 -0.1233
  640MOL0     C86299  11.638   1.436   1.890  0.1005 -1.1936  0.2180
  640MOL0     O86300  11.716   1.530   1.949  0.4654 -0.1853  0.2345
  640MOL0     C86301  11.792   1.498   2.064  0.5928 -0.5043 -0.6651
  640MOL0     C86302  11.909   1.597   2.068 -0.5154 -0.0108  0.0711
  640MOL0     C86303  12.015   1.534   2.152  1.0052  0.1829  0.3838
  640MOL0     C86304  12.138   1.620   2.168  0.1018  0.0438  0.1597
  640MOL0     C86305  12.219   1.566   2.287 -0.3342  0.7648 -0.0458
  640MOL0     C86306  12.326   1.670   2.329  0.2122  0.4240 -0.8114
  640MOL0     C86307  12.425   1.607   2.422 -0.1472  0.6442 -0.5730
  640MOL0     C86308  12.534   1.705   2.469 -0.2584 -0.0363 -0.5499
  640MOL0    Cl86309  12.641   1.621   2.575  0.5383 -0.1727 -0.1510
  640MOL0     C86310  11.583   1.470   1.767  0.7940 -0.0198  0.0210
  640MOL0     C86311  11.483   1.387   1.713 -0.1756  0.3431  0.4165
  640MOL0     O86312  11.212   1.207   1.868  0.1829 -0.0547 -0.7869
  640MOL0     C86313  11.202   0.962   1.603 -0.0414  0.2922  0.2068
  640MOL0     C86314  11.115   0.859   1.549 -1.0727 -0.3408  0.1434
  640MOL0     N86315  10.221   0.604   1.395  0.2328 -0.8625  0.2655
  640MOL0     N86316  10.104   0.578   1.452 -1.2828 -0.2111  0.9562
  640MOL0     C86317   9.172   0.988   1.780 -0.0829  0.0721  0.2368
  640MOL0     C86318   9.043   0.991   1.827 -1.1011 -0.1864  0.2611
  640MOL0     C86319   8.613   1.177   1.908 -0.1001 -0.0957 -0.2288
  640MOL0     C86320   8.559   1.067   1.975  0.1417  0.0175  0.4218
  640MOL0     C86321   8.427   1.063   2.003  0.0579  0.3673  0.2436
  640MOL0     C86322   8.329   1.154   1.962 -0.2037 -0.0558 -0.5710
  640MOL0     O86323   8.194   1.133   1.978 -0.2543 -0.4161 -0.3323
  640MOL0     C86324   8.098   1.204   1.905  0.1216 -0.8113 -0.5021
  640MOL0     C86325   8.101   1.160   1.752  0.5127  0.3427  0.3791
  640MOL0     C86326   8.026   1.027   1.735  0.1826  0.9392  0.2572
  640MOL0     C86327   8.019   0.986   1.592 -0.8367 -0.4869 -0.7144
  640MOL0     C86328   7.909   1.053   1.525  0.2070  0.3384 -0.5445
  640MOL0     C86329   7.817   1.109   1.490  0.4659 -1.2772  0.1931
  640MOL0     C86330   8.383   1.263   1.886  0.3194 -0.1473 -1.0364
  640MOL0     C86331   8.522   1.274   1.857 -0.5637  0.5484  0.0301
  640MOL0     C86332   8.566   1.387   1.767 -0.4065 -0.1400 -0.0076
  640MOL0     H86333   8.943   1.296   1.704 -0.4796  0.1610  0.0359
  640MOL0     H86334   9.163   1.281   1.609  0.1266  0.3084  1.7018
  640MOL0     H86335   9.365   0.875   1.652  1.5455  0.7519  1.2075
  640MOL0     H86336   9.317   0.945   1.495  1.0247 -3.3725 -0.5890
  640MOL0     H86337   9.553   1.032   1.477 -1.3888  0.8869  0.4189
  640MOL0     H86338   9.534   0.854   1.500 -1.5065 -1.2791  1.8808
  640MOL0     H86339   9.580   0.904   1.755 -1.2199 -2.9977 -1.1730
  640MOL0     H86340   9.642   1.060   1.687  1.6468 -0.2798  1.1680
  640MOL0     H86341   9.790   0.924   1.538 -0.5197 -0.4594 -0.3202
  640MOL0     H86342   9.824   0.928   1.705  1.6876 -0.6701 -1.2070
  640MOL0     H86343   9.668   0.701   1.714 -0.8127  0.4165 -0.6262
  640MOL0     H86344   9.695   0.696   1.548  3.2370 -1.7508 -1.4695
  640MOL0     H86345   9.946   0.739   1.604 -0.7408 -2.6755 -2.7101
  640MOL0     H86346   9.909   0.706   1.779 -0.0626  0.6146 -0.0334
  640MOL0     H86347   9.862   0.506   1.551 -0.6332 -1.4944  0.8359
  640MOL0     H86348   9.836   0.476   1.729  0.0307  1.4457  1.8033
  640MOL0     H86349  10.066   0.521   1.775 -3.1663 -0.2942  1.2268
  640MOL0     H86350  10.043   0.377   1.682 -0.4491 -0.6164 -1.2138
  640MOL0     H86351  10.312   0.488   1.689 -0.3786 -0.9365 -0.1910
  640MOL0     H86352  10.507   0.464   1.469 -2.1989 -1.3337 -1.6763
  640MOL0     H86353  10.470   0.565   1.334  2.1590  1.8547 -0.4907
  640MOL0     H86354  10.508   0.773   1.464 -0.3117 -1.3367 -1.8893
  640MOL0     H86355  10.552   0.674   1.604  1.0464  2.1015  0.1020
  640MOL0     H86356  10.702   0.721   1.354 -0.2108  0.7676  0.5697
  640MOL0     H86357  10.733   0.565   1.450  1.3956  0.1083 -2.6625
  640MOL0     H86358  10.763   0.731   1.644  0.6169 -1.2052 -0.8611
  640MOL0     H86359  10.742   0.864   1.519  1.8525  0.8393 -2.6742
  640MOL0     H86360  10.834   0.935   1.703 -0.6251 -1.2199 -2.0261
  640MOL0     H86361  10.987   1.103   1.825  1.1294 -0.6919  1.3448
  640MOL0     H86362  11.494   1.127   1.923 -0.6120 -0.4869 -0.3036
  640MOL0     H86363  11.635   1.278   2.044  0.3570  0.7518 -0.1127
  640MOL0     H86364  11.728   1.518   2.150  0.6493  0.5022 -0.8477
  640MOL0     H86365  11.821   1.392   2.060 -0.6869 -0.8382 -2.0727
  640MOL0     H86366  11.945   1.608   1.965  0.6848  0.4179  0.5162
  640MOL0     H86367  11.874   1.695   2.101 -1.1853  0.1061 -0.9297
  640MOL0     H86368  11.979   1.503   2.250  1.2254  2.7443  1.3498
  640MOL0     H86369  12.043   1.440   2.103  0.0229 -0.1202  0.3972
  640MOL0     H86370  12.121   1.726   2.189 -2.7913 -0.4500  0.7304
  640MOL0     H86371  12.208   1.602   2.086 -1.2487 -1.4471 -0.7141
  640MOL0     H86372  12.272   1.479   2.247  2.0702  1.9349  0.4421
  640MOL0     H86373  12.150   1.541   2.369  1.9315 -1.0705  1.4163
  640MOL0     H86374  12.377   1.706   2.240  0.1669  1.4192 -0.4467
  640MOL0     H86375  12.278   1.753   2.382 -0.5010 -0.0744 -0.6519
  640MOL0     H86376  12.467   1.519   2.372 -0.8645 -0.4591  0.6970
  640MOL0     H86377  12.369   1.566   2.506  1.4168  0.7531  0.5869
  640MOL0     H86378  12.602   1.748   2.394  2.4694 -0.1883  1.7085
  640MOL0     H86379  12.498   1.796   2.518  3.3892  0.8378  0.8132
  640MOL0     H86380  11.605   1.567   1.722 -0.3476  1.0041  1.5797
  640MOL0     H86381  11.423   1.400   1.623 -0.4884 -1.3144  0.3630
  640MOL0     H86382  11.307   0.980   1.582  0.7903 -2.2065  1.8305
  640MOL0     H86383  11.168   0.786   1.488  0.6003  0.8552  0.1050
  640MOL0     H86384   9.231   0.902   1.812  0.1106  0.8816  2.2286
  640MOL0     H86385   9.014   0.917   1.901 -0.1972 -0.1391  0.6643
  640MOL0     H86386   8.615   0.984   2.017  0.0342 -1.0051 -1.3397
  640MOL0     H86387   8.389   0.979   2.060 -1.0467  2.1226  2.2668
  640MOL0     H86388   8.106   1.313   1.901 -3.2515 -0.4075  0.3971
  640MOL0     H86389   7.998   1.200   1.951 -0.4363  1.3876 -1.4044
  640MOL0     H86390   8.202   1.142   1.713  0.4819 -0.4708  0.6544
  640MOL0     H86391   8.055   1.236   1.689 -1.5161 -0.2501  1.0622
  640MOL0     H86392   7.926   1.043   1.777 -0.1928  0.3716 -0.3933
  640MOL0     H86393   8.076   0.945   1.787  1.2578  2.0452  1.0239
  640MOL0     H86394   8.117   1.017   1.553 -0.1641 -0.6577  0.7610
  640MOL0     H86395   8.015   0.879   1.570 -1.5374 -0.1992 -2.1399
  640MOL0     H86396   7.733   1.163   1.454 -0.4032 -3.2398 -0.8880
  640MOL0     H86397   8.318   1.338   1.842  1.3535  1.9568  0.8681
  640MOL0     H86398   8.640   1.351   1.695 -0.7515 -1.7765  0.3990
  640MOL0     H86399   8.487   1.429   1.705  0.0558  0.3114 -0.3015
  640MOL0     H86400   8.609   1.469   1.826 -0.4595  0.6868 -1.0904
  641MOL0     O86401   8.571   7.785   6.951 -0.4619 -0.7242 -0.3583
  641MOL0     C86402   8.495   7.879   6.960  0.2890 -0.1905 -0.8020
  641MOL0     O86403   8.535   8.008   6.981  0.7237 -0.6254  0.2009
  641MOL0     C86404   8.651   8.050   6.916 -0.0724 -0.3970  0.5463
  641MOL0     C86405   8.779   8.021   6.960  0.8067  0.1162 -0.1481
  641MOL0     C86406   8.896   8.079   6.910 -0.3170 -0.1373  1.0303
  641MOL0     C86407   8.880   8.160   6.803 -0.2991 -0.2458 -0.7699
  641MOL0     O86408   8.992   8.206   6.728 -0.1392  0.4279  0.1435
  641MOL0     C86409   9.069   8.096   6.679 -0.4359 -1.0142  0.1318
  641MOL0     C86410   9.205   8.148   6.632  0.5811  0.3685  0.2597
  641MOL0     C86411   9.306   8.036   6.606 -0.5281 -0.2092  0.2042
  641MOL0     C86412   9.442   8.108   6.560 -0.1711 -0.0325 -0.7943
  641MOL0     C86413   9.545   8.004   6.514 -0.1449  0.6095 -0.6104
  641MOL0     C86414   9.681   8.069   6.466  0.6784  0.5708  0.5669
  641MOL0     C86415   9.777   7.970   6.413 -0.4714 -0.1924  0.5701
  641MOL0     C86416   9.925   8.021   6.420  0.0223 -0.0257 -0.7738
  641MOL0     N86417  10.028   7.914   6.417 -0.2121 -0.4257 -0.4789
  641MOL0     C86418  10.087   7.887   6.300  0.1573 -0.6028 -0.3008
  641MOL0     C86419  10.187   7.801   6.341  0.0710 -0.2286  0.9153
  641MOL0     C86420  10.291   7.733   6.253  0.7493 -0.2941 -0.4402
  641MOL0     C86421  10.421   7.806   6.249 -0.6042 -0.1915  0.3587
  641MOL0     C86422  10.489   7.836   6.378  0.8567 -0.1614 -0.0501
  641MOL0     C86423  10.514   7.713   6.460  0.5524  0.6356 -0.7395
  641MOL0     O86424  10.594   7.619   6.377 -0.1457  0.5258 -0.2331
  641MOL0     C86425  10.729   7.610   6.401  0.2931 -0.3261  0.3897
  641MOL0     C86426  10.802   7.494   6.411 -0.0264 -0.3772  0.9123
  641MOL0     C86427  10.934   7.482   6.442  0.6916 -1.0409 -0.1746
  641MOL0     C86428  11.003   7.597   6.467 -0.7646 -0.3350 -0.2205
  641MOL0     C86429  11.151   7.586   6.495 -0.2728 -0.1747 -0.5250
  641MOL0     O86430  11.206   7.461   6.505  0.6308  0.5782 -0.2401
  641MOL0     C86431  11.336   7.450   6.544 -0.3653  0.6455  0.4150
  641MOL0     C86432  11.439   7.535   6.497  0.3480 -0.1461 -0.6332
  641MOL0     C86433  11.576   7.520   6.546  0.2563  0.4370  0.1666
  641MOL0     C86434  11.608   7.417   6.640 -0.1743  0.2474  0.4432
  641MOL0     O86435  11.726   7.393   6.697 -0.0949  0.0056  0.1746
  641MOL0     C86436  11.838   7.376   6.604 -0.2689  0.4677 -0.5291
  641MOL0     C86437  11.884   7.227   6.590 -0.3117  0.1664 -0.6657
  641MOL0     C86438  12.016   7.210   6.515 -0.1672 -0.2267  0.6188
  641MOL0     C86439  12.025   7.251   6.365 -0.1233 -0.3403  0.6033
  641MOL0     C86440  12.165   7.270   6.315  0.1545 -0.8241  0.1935
  641MOL0     C86441  12.230   7.133   6.292 -0.0968 -0.2176 -0.0271
  641MOL0     C86442  12.381   7.119   6.297  0.3970  0.4027  0.0940
  641MOL0     C86443  12.459   7.178   6.170  0.4266 -0.5013 -0.2134
  641MOL0    Cl86444  12.632   7.132   6.166 -0.1928 -0.2657  0.2645
  641MOL0     C86445  11.494   7.341   6.683 -0.0771 -0.2737 -0.5510
  641MOL0     C86446  11.361   7.358   6.637  0.6647  0.2448 -0.9413
  641MOL0     O86447  11.208   7.691   6.526  0.2035 -0.9568 -0.3929
  641MOL0     C86448  10.933   7.718   6.474 -0.4052  0.0860 -0.7929
  641MOL0     C86449  10.797   7.724   6.447  0.4695  0.8790  0.8862
  641MOL0     N86450  10.193   7.785   6.482 -0.1624  0.3371  0.3000
  641MOL0     N86451  10.091   7.855   6.522 -0.0535 -0.0802  0.4348
  641MOL0     C86452   8.751   8.192   6.752 -0.0636  0.2780  0.0033
  641MOL0     C86453   8.633   8.135   6.804  0.3979  0.2879 -0.8213
  641MOL0     C86454   8.350   7.856   6.929  0.3628  0.7518  0.3275
  641MOL0     C86455   8.266   7.969   6.910 -0.7984  0.4791  0.1859
  641MOL0     C86456   8.139   7.952   6.864  0.2667 -0.5115 -0.2343
  641MOL0     C86457   8.078   7.833   6.864 -0.0823 -0.0602 -0.1861
  641MOL0     O86458   7.942   7.841   6.831  0.8783 -0.5619 -0.0564
  641MOL0     C86459   7.875   7.719   6.839  0.2924  0.3924  1.0696
  641MOL0     C86460   7.718   7.730   6.835 -0.3339 -0.6965  0.5250
  641MOL0     C86461   7.669   7.857   6.911  0.0013  0.2479  0.5762
  641MOL0     C86462   7.513   7.857   6.929  0.2772  0.1795 -0.2630
  641MOL0     C86463   7.468   7.871   7.074  0.2071  0.3762 -0.1331
  641MOL0     C86464   7.429   7.884   7.182 -0.0461  0.4195  0.0566
  641MOL0     C86465   8.146   7.719   6.908  0.4216  0.0617  0.4759
  641MOL0     C86466   8.280   7.733   6.941  0.3707 -0.1090  0.7649
  641MOL0     C86467   8.357   7.606   6.985 -0.7529  0.5956  0.2938
  641MOL0     H86468   8.784   7.947   7.040 -0.8847  1.1915  0.9991
  641MOL0     H86469   8.997   8.051   6.940  1.6475  0.2295 -4.2210
  641MOL0     H86470   9.084   8.019   6.755  2.5580 -1.3060 -0.6189
  641MOL0     H86471   9.017   8.052   6.594 -1.1802  0.8875 -0.4447
  641MOL0     H86472   9.237   8.215   6.712 -0.5314  0.4957  0.6223
  641MOL0     H86473   9.193   8.198   6.535 -2.3950 -0.2048  0.2343
  641MOL0     H86474   9.264   7.970   6.530 -0.9940  0.6922 -0.3391
  641MOL0     H86475   9.323   7.982   6.699  0.2770 -2.0398 -0.9525
  641MOL0     H86476   9.426   8.168   6.470 -0.1945 -0.1957 -0.8998
  641MOL0     H86477   9.486   8.172   6.637 -1.0329 -2.5202  1.9242
  641MOL0     H86478   9.575   7.929   6.587  1.1920  0.8146 -0.9215
  641MOL0     H86479   9.505   7.949   6.428  1.7904 -0.7573 -0.6962
  641MOL0     H86480   9.683   8.147   6.390  1.7635 -1.0471 -1.1515
  641MOL0     H86481   9.731   8.108   6.556  1.2940 -0.0688  0.5097
  641MOL0     H86482   9.761   7.940   6.309  0.3774 -0.7136  0.5814
  641MOL0     H86483   9.773   7.878   6.472  2.4460 -2.0980 -1.8944
  641MOL0     H86484   9.928   8.095   6.340 -2.5082  1.5777  0.4764
  641MOL0     H86485   9.948   8.069   6.516 -0.2984 -2.9809  0.9116
  641MOL0     H86486  10.080   7.929   6.200  1.8351  2.2417  0.6489
  641MOL0     H86487  10.312   7.631   6.288  2.6165 -0.1299 -1.0008
  641MOL0     H86488  10.243   7.738   6.155 -2.8732 -1.2918  1.0805
  641MOL0     H86489  10.488   7.762   6.174  0.5642 -0.1319  1.3534
  641MOL0     H86490  10.387   7.903   6.211 -3.6245 -1.0040  0.7478
  641MOL0     H86491  10.434   7.905   6.443  1.1974 -0.2796  0.3634
  641MOL0     H86492  10.583   7.884   6.349  1.3592 -0.8450  0.4238
  641MOL0     H86493  10.420   7.664   6.486  0.1100  2.4839  1.4504
  641MOL0     H86494  10.554   7.746   6.556  0.1544 -1.4954  0.2140
  641MOL0     H86495  10.754   7.399   6.388 -0.8784  0.4880 -1.1492
  641MOL0     H86496  10.980   7.384   6.438  2.4332 -0.3710  1.6480
  641MOL0     H86497  11.420   7.618   6.430  0.8024  0.3119 -0.2052
  641MOL0     H86498  11.654   7.581   6.502  0.2803 -0.7215 -1.4296
  641MOL0     H86499  11.825   7.425   6.507  0.4960  0.5796 -0.5766
  641MOL0     H86500  11.922   7.429   6.650  1.3578 -0.8921 -1.8278
  641MOL0     H86501  11.899   7.195   6.693  2.2726 -0.4266 -1.1544
  641MOL0     H86502  11.803   7.167   6.548  0.7168 -0.2150 -2.2140
  641MOL0     H86503  12.094   7.265   6.568 -1.6536  1.1418  1.4830
  641MOL0     H86504  12.053   7.108   6.526  1.4237  0.3255  0.5503
  641MOL0     H86505  11.965   7.341   6.349 -3.0193 -2.0630  0.9497
  641MOL0     H86506  11.985   7.180   6.293  1.6063  0.0227 -0.7831
  641MOL0     H86507  12.223   7.321   6.392 -1.8245 -1.9653  2.5967
  641MOL0     H86508  12.179   7.329   6.224  2.9018 -0.9967  0.4262
  641MOL0     H86509  12.174   7.060   6.350 -3.4852  1.9860 -0.2512
  641MOL0     H86510  12.192   7.097   6.196 -5.0303  1.4374  1.0215
  641MOL0     H86511  12.398   7.012   6.288 -3.7577 -0.4162  0.3043
  641MOL0     H86512  12.416   7.160   6.392 -0.1182 -1.7620  1.2708
  641MOL0     H86513  12.421   7.146   6.073  1.8931  0.7195 -1.2387
  641MOL0     H86514  12.457   7.287   6.168  1.5276 -0.4798 -0.7216
  641MOL0     H86515  11.533   7.278   6.763  0.1947  3.0355  2.1438
  641MOL0     H86516  11.278   7.312   6.691 -0.0632  2.1840 -0.2911
  641MOL0     H86517  10.982   7.808   6.511 -0.6172  0.6335 -1.8131
  641MOL0     H86518  10.757   7.825   6.441 -0.6318  0.4761  1.2188
  641MOL0     H86519   8.756   8.259   6.666  3.5271  0.7091  0.3853
  641MOL0     H86520   8.528   8.142   6.774 -0.3156 -2.0043  0.8466
  641MOL0     H86521   8.308   8.070   6.907 -0.4304  0.3325  0.3794
  641MOL0     H86522   8.080   8.040   6.840 -2.2259 -1.5497  1.6517
  641MOL0     H86523   7.901   7.664   6.929 -0.1063  0.6044  1.3191
  641MOL0     H86524   7.895   7.654   6.753 -2.5218  0.1021  0.5464
  641MOL0     H86525   7.681   7.636   6.877  0.3220 -1.3254 -0.2827
  641MOL0     H86526   7.683   7.744   6.733 -0.1177 -1.1083  0.3945
  641MOL0     H86527   7.697   7.941   6.847  0.7125  0.1349  0.7220
  641MOL0     H86528   7.713   7.879   7.009  1.1226  0.7060 -0.0062
  641MOL0     H86529   7.476   7.939   6.866  1.5811  0.8187 -0.2139
  641MOL0     H86530   7.459   7.769   6.892 -1.8702  1.4344 -0.3208
  641MOL0     H86531   7.374   7.884   7.274  0.5186  0.7717  0.3987
  641MOL0     H86532   8.096   7.622   6.906  0.2526  0.1098  1.6269
  641MOL0     H86533   8.288   7.522   6.991  1.4780 -1.3663 -0.1312
  641MOL0     H86534   8.440   7.583   6.917  2.4982  0.2414  4.0123
  641MOL0     H86535   8.422   7.619   7.072  1.3176 -0.4097 -1.0035
  642MOL0     O86536   9.916  10.688   0.261 -0.1841 -0.5405 -0.1538
  642MOL0     C86537   9.855  10.581   0.290 -0.2317 -0.3657  0.8464
  642MOL0     O86538   9.906  10.459   0.264 -0.1750  0.0333 -0.0694
  642MOL0     C86539  10.036  10.444   0.207 -0.3467 -0.5287 -0.9377
  642MOL0     C86540  10.143  10.514   0.268  0.2432  0.9932 -0.5458
  642MOL0     C86541  10.267  10.499   0.210  0.1875  0.4560  0.2818
  642MOL0     C86542  10.289  10.410   0.104 -0.3554 -0.0065 -0.5041
  642MOL0     O86543  10.420  10.411   0.062 -0.4107 -0.3502  0.3635
  642MOL0     C86544  10.463  10.279   0.022 -0.0772 -0.3417 -0.0169
  642MOL0     C86545  10.617  10.280   0.043  0.2667  0.7583  0.7763
  642MOL0     C86546  10.688  10.141   0.020 -0.3194 -0.2556 -0.5794
  642MOL0     C86547  10.710  10.073   0.162  0.1365 -0.6236  1.0935
  642MOL0     C86548  10.789   9.940   0.152  0.3627  0.2352 -0.1660
  642MOL0     C86549  10.938   9.947   0.177  0.4855 -1.1718  0.4614
  642MOL0     C86550  11.004   9.811   0.199  0.3443  0.0594  0.0313
  642MOL0     C86551  11.152   9.833   0.218  0.1182 -0.0731 -1.0357
  642MOL0     N86552  11.175   9.896   0.349 -0.1620  1.0634 -0.3427
  642MOL0     C86553  11.188   9.824   0.463  0.3156 -0.5017 -0.2637
  642MOL0     C86554  11.201   9.914   0.564  0.2246  0.4878  0.3147
  642MOL0     C86555  11.231   9.855   0.702  0.6817 -0.3388  0.3692
  642MOL0     C86556  11.381   9.827   0.727  1.1531 -0.1777 -0.7982
  642MOL0     C86557  11.462   9.945   0.767  0.6621  0.4747  0.1858
  642MOL0     C86558  11.592   9.913   0.841  0.0549 -1.1221 -0.1325
  642MOL0     O86559  11.690   9.893   0.740 -0.0263  0.0460  0.2177
  642MOL0     C86560  11.817   9.922   0.781  0.3521 -0.0781  0.5986
  642MOL0     C86561  11.901  10.011   0.713  0.6351 -0.3702  0.1154
  642MOL0     C86562  12.031  10.027   0.756  0.2588  0.6612  0.9302
  642MOL0     C86563  12.085   9.949   0.858  0.1177 -0.0843 -0.7873
  642MOL0     C86564  12.232   9.963   0.886 -0.9221 -1.0002 -0.1854
  642MOL0     O86565  12.285   9.909   1.002 -0.4462  0.0493 -0.0230
  642MOL0     C86566  12.425   9.910   1.019  0.6285 -0.5068  0.4541
  642MOL0     C86567  12.513   9.851   0.925  0.2943 -0.2047  0.7160
  642MOL0     C86568  12.649   9.843   0.937  0.5312  0.5894 -0.3880
  642MOL0     C86569  12.701   9.888   1.061  1.1117  0.4988 -0.4600
  642MOL0     O86570  12.832   9.881   1.085  0.1547  0.0920  0.7522
  642MOL0     C86571  12.885   9.975   1.189  0.1861 -0.9632  0.5745
  642MOL0     C86572  13.034   9.968   1.202 -0.2165 -0.2693 -0.1959
  642MOL0     C86573  13.083  10.074   1.306  0.5943  1.0046  0.2974
  642MOL0     C86574  13.239  10.076   1.335  0.2027 -0.3250 -0.0221
  642MOL0     C86575  13.276  10.187   1.428 -0.4607 -0.0346  0.2808
  642MOL0     C86576  13.424  10.178   1.451  0.3894 -0.5712 -0.1799
  642MOL0     C86577  13.462  10.286   1.548 -0.4356 -1.1925 -0.5205
  642MOL0     C86578  13.449  10.425   1.483 -0.0375 -0.2420 -0.3378
  642MOL0    Cl86579  13.546  10.428   1.325  0.1961  0.1274 -0.1068
  642MOL0     C86580  12.614   9.940   1.163  0.3982  0.5384 -0.6318
  642MOL0     C86581  12.480   9.960   1.139  0.4848  0.1763  0.1845
  642MOL0     O86582  12.301  10.033   0.805  0.4150 -0.3836  0.0167
  642MOL0     C86583  12.008   9.869   0.936  0.5417 -0.3091  0.1148
  642MOL0     C86584  11.873   9.851   0.887 -0.3663  0.3656  0.0428
  642MOL0     N86585  11.220  10.040   0.507  0.0657 -0.5416  0.6121
  642MOL0     N86586  11.197  10.038   0.376  0.8266  0.2809  0.2147
  642MOL0     C86587  10.183  10.333   0.053  1.1599 -0.6659 -0.3359
  642MOL0     C86588  10.055  10.355   0.098 -0.0370  0.5691 -0.0983
  642MOL0     C86589   9.725  10.592   0.361  0.4996 -0.8421  0.0321
  642MOL0     C86590   9.674  10.724   0.396  0.5475 -0.8227 -0.7340
  642MOL0     C86591   9.553  10.744   0.467  0.2826  0.0457 -0.4186
  642MOL0     C86592   9.477  10.631   0.499 -0.2132  0.7522 -0.1437
  642MOL0     O86593   9.367  10.637   0.576  0.2426 -0.0402  0.5488
  642MOL0     C86594   9.287  10.760   0.589  0.1909 -0.0747  0.5273
  642MOL0     C86595   9.149  10.727   0.649 -0.2947  0.3713  0.5244
  642MOL0     C86596   9.084  10.859   0.687  0.3830  0.6296  0.6245
  642MOL0     C86597   8.935  10.861   0.718  0.0670 -0.0540  0.0695
  642MOL0     C86598   8.908  10.821   0.850 -0.1690 -0.2295 -0.1993
  642MOL0     C86599   8.857  10.773   0.953  0.6136  0.2748 -0.1516
  642MOL0     C86600   9.512  10.498   0.463 -0.0870 -0.7666 -0.2173
  642MOL0     C86601   9.634  10.477   0.390 -0.4619  0.0919  0.4175
  642MOL0     C86602   9.666  10.339   0.355  0.1501  0.5430  0.1642
  642MOL0     H86603  10.121  10.582   0.350  0.5836  1.3836 -0.7705
  642MOL0     H86604  10.349  10.549   0.261  1.7948 -1.5546 -0.1764
  642MOL0     H86605  10.421  10.211   0.098  0.7013  1.4420  2.1219
  642MOL0     H86606  10.436  10.250  -0.080  2.9272 -0.7484 -0.8089
  642MOL0     H86607  10.662  10.313   0.138  0.9679 -3.8062  2.2610
  642MOL0     H86608  10.660  10.344  -0.035  1.4348 -2.7780 -1.7467
  642MOL0     H86609  10.784  10.165  -0.027 -0.3170  2.6206  0.6843
  642MOL0     H86610  10.658  10.069  -0.057  2.9967 -2.6053  0.1274
  642MOL0     H86611  10.760  10.156   0.212  0.4191 -1.2535  1.8720
  642MOL0     H86612  10.611  10.061   0.208 -1.1904 -1.9309 -1.8253
  642MOL0     H86613  10.746   9.869   0.223 -1.4821 -3.0161 -4.1544
  642MOL0     H86614  10.756   9.891   0.061 -0.4948 -0.5388  0.5421
  642MOL0     H86615  10.980   9.999   0.090 -0.4714 -0.5494  0.3528
  642MOL0     H86616  10.957  10.009   0.265 -0.8603  1.7507 -1.1581
  642MOL0     H86617  10.983   9.757   0.106 -1.1104  2.1735 -0.9374
  642MOL0     H86618  10.962   9.761   0.287  0.5514  0.0729  0.1387
  642MOL0     H86619  11.191   9.732   0.203 -3.1990 -1.6679  0.0701
  642MOL0     H86620  11.188   9.897   0.137  1.8968 -0.0632 -0.2830
  642MOL0     H86621  11.198   9.716   0.475  4.9121 -0.1664  1.2925
  642MOL0     H86622  11.189   9.923   0.777  2.1627  0.9885  0.0495
  642MOL0     H86623  11.173   9.763   0.711 -0.7426  0.5217  0.3351
  642MOL0     H86624  11.381   9.763   0.815 -2.4265  1.3665  0.5385
  642MOL0     H86625  11.416   9.768   0.642 -0.5297 -3.0880  0.3964
  642MOL0     H86626  11.408   9.998   0.845 -2.4230  1.1526 -2.2304
  642MOL0     H86627  11.463  10.021   0.688  1.0367 -2.2628 -2.6395
  642MOL0     H86628  11.591   9.822   0.902  6.4626 -1.7187 -0.2424
  642MOL0     H86629  11.619   9.988   0.916  1.0222 -1.1123 -0.4778
  642MOL0     H86630  11.861  10.070   0.631 -2.1559  0.1668  1.7336
  642MOL0     H86631  12.102  10.095   0.711  0.7503  0.0212  0.7195
  642MOL0     H86632  12.462   9.795   0.847  0.1323 -2.4200  2.3140
  642MOL0     H86633  12.709   9.792   0.863  0.6915 -0.2054  0.2802
  642MOL0     H86634  12.855  10.076   1.159  2.6395 -0.6203 -0.9554
  642MOL0     H86635  12.849   9.958   1.291 -1.7562 -0.2951  0.0605
  642MOL0     H86636  13.057   9.873   1.250  1.9340 -0.1235 -0.8005
  642MOL0     H86637  13.082   9.980   1.104 -1.6653 -2.5189 -1.2716
  642MOL0     H86638  13.063  10.173   1.265  1.2971  1.7197  1.5761
  642MOL0     H86639  13.025  10.061   1.398 -0.7608  0.7705 -0.5734
  642MOL0     H86640  13.290  10.094   1.240  1.4043 -2.9473  0.0567
  642MOL0     H86641  13.267   9.980   1.378  1.0321  0.7396  1.9098
  642MOL0     H86642  13.213  10.156   1.512 -0.0121 -1.4031  0.1321
  642MOL0     H86643  13.237  10.286   1.400 -3.4688 -0.1382  3.4507
  642MOL0     H86644  13.436  10.073   1.481 -1.7940 -2.1397 -4.0706
  642MOL0     H86645  13.482  10.193   1.360 -1.3960  2.1460 -0.9809
  642MOL0     H86646  13.569  10.277   1.563 -0.5168  0.1898  1.2238
  642MOL0     H86647  13.414  10.287   1.647  1.7468  1.5736  0.6381
  642MOL0     H86648  13.345  10.453   1.462 -0.0114  1.2272  1.2840
  642MOL0     H86649  13.489  10.501   1.551 -3.2476  0.6859  0.6848
  642MOL0     H86650  12.651   9.976   1.258  0.3777  2.3015 -1.2429
  642MOL0     H86651  12.413  10.012   1.207 -0.8703  1.7925 -2.2153
  642MOL0     H86652  12.043   9.813   1.022  1.7728  2.3782  1.4995
  642MOL0     H86653  11.816   9.775   0.940 -0.0303 -1.6353 -2.2428
  642MOL0     H86654  10.198  10.257  -0.023 -0.2263 -2.2480  0.8853
  642MOL0     H86655   9.971  10.301   0.056 -0.3780 -1.7364  3.1410
  642MOL0     H86656   9.727  10.817   0.375 -2.2567  0.8825 -0.8100
  642MOL0     H86657   9.515  10.844   0.487 -0.5944 -0.0843 -1.4030
  642MOL0     H86658   9.257  10.798   0.491 -1.8191  0.2775  1.2303
  642MOL0     H86659   9.330  10.841   0.649 -2.3149  1.8285 -0.0545
  642MOL0     H86660   9.165  10.664   0.738  0.4885  0.4059  0.4160
  642MOL0     H86661   9.092  10.674   0.572  2.3605  0.5675 -1.7303
  642MOL0     H86662   9.084  10.920   0.597  1.2322 -1.8719 -1.1862
  642MOL0     H86663   9.136  10.908   0.769  3.5504 -0.9334 -0.3013
  642MOL0     H86664   8.889  10.960   0.702  0.0410 -0.0825 -0.0302
  642MOL0     H86665   8.887  10.794   0.646  0.4207  0.0642 -0.2789
  642MOL0     H86666   8.810  10.744   1.044  0.6239  2.7045  0.7137
  642MOL0     H86667   9.455  10.410   0.494 -1.5749 -0.8435 -2.8349
  642MOL0     H86668   9.588  10.268   0.383 -1.0663  1.1119 -1.6264
  642MOL0     H86669   9.676  10.323   0.247  0.2277 -1.8835  0.4695
  642MOL0     H86670   9.755  10.313   0.413 -0.3998  1.9244  1.7140
  643MOL0     O86671  10.170   8.872   0.045  0.1511  0.0195  0.3426
  643MOL0     C86672  10.069   8.795   0.033 -0.0025  0.1295 -0.1145
  643MOL0     O86673  10.063   8.657   0.055  0.2203 -0.1407 -0.1239
  643MOL0     C86674  10.167   8.579   0.091  0.7530 -0.1471  0.3934
  643MOL0     C86675  10.286   8.629   0.145 -0.8979  0.1269 -0.5465
  643MOL0     C86676  10.384   8.537   0.186 -0.5977 -0.0283 -0.5815
  643MOL0     C86677  10.375   8.395   0.162 -0.4031  0.1068 -0.3668
  643MOL0     O86678  10.467   8.307   0.174 -1.2879  1.0514  0.1234
  643MOL0     C86679  10.593   8.347   0.234  0.0227  0.9837 -0.2650
  643MOL0     C86680  10.692   8.227   0.228  0.6949 -0.2290  0.5440
  643MOL0     C86681  10.661   8.112   0.320  1.3033  0.3964 -0.5783
  643MOL0     C86682  10.751   7.992   0.271  0.0402  0.8401 -0.0735
  643MOL0     C86683  10.719   7.869   0.359  0.9499 -0.1365 -0.3377
  643MOL0     C86684  10.788   7.744   0.302  0.0239  1.1851 -0.4223
  643MOL0     C86685  10.733   7.622   0.379 -0.1151  0.2296  0.1666
  643MOL0     C86686  10.733   7.494   0.288 -0.5291  0.5577  0.2267
  643MOL0     N86687  10.863   7.460   0.231 -0.0961  0.4430 -0.6276
  643MOL0     C86688  10.926   7.522   0.123 -0.0769  0.3172 -0.0816
  643MOL0     C86689  11.052   7.474   0.125  0.5906  0.1254  0.5721
  643MOL0     C86690  11.164   7.524   0.035 -0.3587  0.6316 -0.4354
  643MOL0     C86691  11.285   7.561   0.131  0.9045  0.4528  0.8905
  643MOL0     C86692  11.414   7.602   0.055 -0.2125  0.5950  0.1131
  643MOL0     C86693  11.505   7.672   0.156  0.2114  0.4127  0.2018
  643MOL0     O86694  11.614   7.739   0.082  0.4946  0.6750  0.2614
  643MOL0     C86695  11.734   7.757   0.142 -0.1409 -0.8797 -0.1733
  643MOL0     C86696  11.766   7.726   0.279 -0.0595  0.1762  0.3520
  643MOL0     C86697  11.881   7.771   0.325 -0.1671  0.1131 -0.1723
  643MOL0     C86698  11.975   7.846   0.248 -0.4878 -0.5799  0.1553
  643MOL0     C86699  12.112   7.891   0.301  0.1343  0.0592 -0.3748
  643MOL0     O86700  12.173   7.991   0.235 -0.7127  0.0199 -0.1214
  643MOL0     C86701  12.285   8.054   0.285 -0.5455 -0.1934 -0.1083
  643MOL0     C86702  12.386   8.091   0.196 -0.2107 -0.1218  0.8787
  643MOL0     C86703  12.494   8.165   0.249 -0.3062  0.3102  0.0382
  643MOL0     C86704  12.501   8.209   0.383 -0.3761 -0.2804 -0.9366
  643MOL0     O86705  12.609   8.272   0.431  0.0996 -0.1950  0.1093
  643MOL0     C86706  12.656   8.237   0.564  0.3874 -0.7763  0.7470
  643MOL0     C86707  12.784   8.316   0.578 -0.0281 -0.0614  0.9086
  643MOL0     C86708  12.899   8.233   0.528  0.0512 -0.0576  0.1879
  643MOL0     C86709  13.026   8.304   0.576 -0.7469  0.0043 -0.7950
  643MOL0     C86710  13.154   8.234   0.515  1.2343  0.4611  0.8643
  643MOL0     C86711  13.283   8.273   0.579  0.2733 -1.2399  1.0300
  643MOL0     C86712  13.396   8.203   0.502  0.5406 -0.4703 -0.4000
  643MOL0     C86713  13.536   8.261   0.525 -0.2844 -1.1964  0.4583
  643MOL0    Cl86714  13.548   8.431   0.484  0.4276  0.1111 -0.1527
  643MOL0     C86715  12.396   8.183   0.465  0.4794  0.2250  0.4209
  643MOL0     C86716  12.292   8.099   0.414  0.1028  0.2716  0.9787
  643MOL0     O86717  12.157   7.829   0.399 -0.1563 -1.0012  0.0913
  643MOL0     C86718  11.942   7.878   0.115 -0.2350  0.0214  0.3856
  643MOL0     C86719  11.820   7.832   0.059  0.2784 -0.1348 -0.0526
  643MOL0     N86720  11.065   7.385   0.229  0.0075 -0.6795 -0.6775
  643MOL0     N86721  10.951   7.393   0.299 -0.4731  0.6601  0.2335
  643MOL0     C86722  10.254   8.353   0.100 -0.2443  0.0875 -1.7513
  643MOL0     C86723  10.152   8.441   0.067  0.2044  0.1335 -0.7773
  643MOL0     C86724   9.928   8.851  -0.006 -0.1044 -0.1970 -0.5548
  643MOL0     C86725   9.810   8.798   0.041 -0.0935  0.0087  0.0220
  643MOL0     C86726   9.675   8.837   0.011 -0.5422  0.1072 -1.1630
  643MOL0     C86727   9.667   8.946  -0.083 -0.1169  0.6621 -0.0420
  643MOL0     O86728   9.550   8.995  -0.131  0.5098 -0.5177 -0.3885
  643MOL0     C86729   9.426   8.941  -0.084 -1.1730 -0.1195 -0.1676
  643MOL0     C86730   9.313   9.018  -0.159 -0.2725 -0.2816 -0.8823
  643MOL0     C86731   9.316   9.019  -0.307 -0.3535  0.2914  0.4779
  643MOL0     C86732   9.187   9.093  -0.364 -0.4850  0.3650 -0.5549
  643MOL0     C86733   9.193   9.105  -0.505 -0.2187 -0.6421  0.2284
  643MOL0     C86734   9.210   9.117  -0.624 -0.2948  0.0948  1.4467
  643MOL0     C86735   9.783   9.008  -0.134  1.0172  0.4552 -0.4672
  643MOL0     C86736   9.911   8.962  -0.091  0.0007 -0.3283  0.1368
  643MOL0     C86737  10.026   9.042  -0.155 -0.1728  0.6907  0.6194
  643MOL0     H86738  10.305   8.733   0.170 -3.5251  0.8100 -1.0686
  643MOL0     H86739  10.482   8.576   0.210  0.0897 -0.9299 -1.7928
  643MOL0     H86740  10.634   8.432   0.179 -0.6617  0.6682 -1.3119
  643MOL0     H86741  10.574   8.365   0.340 -0.3488 -1.4817  0.1596
  643MOL0     H86742  10.786   8.276   0.258  0.1812 -0.3740  2.5829
  643MOL0     H86743  10.693   8.186   0.127  1.3480 -1.3740  0.9892
  643MOL0     H86744  10.560   8.071   0.306  2.2518 -1.8339 -1.3612
  643MOL0     H86745  10.675   8.147   0.422 -0.9370  0.3544 -0.1969
  643MOL0     H86746  10.723   7.965   0.169  2.9161 -0.5841 -0.5844
  643MOL0     H86747  10.855   8.026   0.275 -0.1086  1.4223 -1.0101
  643MOL0     H86748  10.758   7.893   0.458  2.1464  0.0447 -0.8385
  643MOL0     H86749  10.611   7.855   0.359  0.8129  0.0928  3.0512
  643MOL0     H86750  10.765   7.736   0.195  2.4934  0.0826 -0.9313
  643MOL0     H86751  10.897   7.754   0.306 -0.1882  3.7729  1.1059
  643MOL0     H86752  10.629   7.636   0.411 -0.2236 -0.9897  0.3949
  643MOL0     H86753  10.799   7.607   0.465  0.7003  2.2636 -0.0506
  643MOL0     H86754  10.710   7.403   0.344 -0.8302  0.9195  0.7024
  643MOL0     H86755  10.671   7.506   0.199  0.9478  2.9046 -0.5688
  643MOL0     H86756  10.894   7.594   0.048 -2.0789 -2.0612 -1.6610
  643MOL0     H86757  11.193   7.453  -0.042  1.2576  0.9004 -0.0978
  643MOL0     H86758  11.130   7.616  -0.015 -0.6857  0.5270 -0.4058
  643MOL0     H86759  11.251   7.641   0.197  1.6011 -0.3817  2.2954
  643MOL0     H86760  11.302   7.473   0.193 -1.9788 -0.0175  1.1748
  643MOL0     H86761  11.376   7.656  -0.032 -0.5132  0.5464  0.2117
  643MOL0     H86762  11.465   7.513   0.019  1.9812  1.4588  0.9075
  643MOL0     H86763  11.560   7.598   0.214  0.0199 -1.1238 -1.4725
  643MOL0     H86764  11.456   7.739   0.227 -1.4763  2.1613 -2.4222
  643MOL0     H86765  11.703   7.669   0.346  1.2841 -0.0998  1.4199
  643MOL0     H86766  11.908   7.747   0.427 -1.1441 -2.5509 -0.4836
  643MOL0     H86767  12.383   8.059   0.093  0.4134  0.1946  0.7539
  643MOL0     H86768  12.578   8.184   0.184 -1.1243  2.9883 -0.3265
  643MOL0     H86769  12.590   8.269   0.645  0.6174  0.9746  0.2766
  643MOL0     H86770  12.676   8.130   0.578 -1.3042 -0.9294  2.3476
  643MOL0     H86771  12.778   8.411   0.523  1.2220 -0.0516  0.7495
  643MOL0     H86772  12.798   8.347   0.682  1.5254  0.3552  0.5996
  643MOL0     H86773  12.886   8.128   0.559 -2.8491 -0.4479 -1.9062
  643MOL0     H86774  12.903   8.224   0.419  1.5428 -0.6287  0.2650
  643MOL0     H86775  13.030   8.285   0.683  0.0007 -0.6517 -0.9305
  643MOL0     H86776  13.019   8.408   0.543 -0.9874  0.3606  0.3372
  643MOL0     H86777  13.156   8.229   0.406  1.0684  1.4164  0.8040
  643MOL0     H86778  13.142   8.130   0.546 -0.0186  0.3022 -0.0711
  643MOL0     H86779  13.306   8.379   0.564 -0.1205 -1.5215 -2.0734
  643MOL0     H86780  13.278   8.246   0.685  1.5275 -1.1876  1.1250
  643MOL0     H86781  13.370   8.203   0.396 -7.1592 -1.2084  0.9018
  643MOL0     H86782  13.389   8.100   0.538  1.1272 -0.4255 -0.1556
  643MOL0     H86783  13.560   8.253   0.631  0.9408  0.0021  0.3098
  643MOL0     H86784  13.608   8.203   0.467  0.6549 -0.7631  1.1720
  643MOL0     H86785  12.389   8.201   0.571 -0.2614 -0.5936  0.5259
  643MOL0     H86786  12.205   8.092   0.479  0.1442  0.0105  1.0063
  643MOL0     H86787  11.996   7.943   0.048 -1.3616  2.6875  1.9273
  643MOL0     H86788  11.789   7.857  -0.042  0.0750  2.0610  0.4858
  643MOL0     H86789  10.237   8.247   0.089 -0.9035 -0.0480  0.2739
  643MOL0     H86790  10.061   8.393   0.031 -1.4086  1.0013  1.8359
  643MOL0     H86791   9.822   8.724   0.119  0.1625 -0.0902 -0.1115
  643MOL0     H86792   9.603   8.777   0.064 -1.1472 -1.1619 -3.3235
  643MOL0     H86793   9.422   8.954   0.024  1.7188  1.7781 -0.1738
  643MOL0     H86794   9.432   8.834  -0.106  4.6460 -0.7420  2.6620
  643MOL0     H86795   9.316   9.120  -0.120  3.2473 -0.6234  0.1774
  643MOL0     H86796   9.223   8.969  -0.120 -0.4110  1.6803  1.5779
  643MOL0     H86797   9.323   8.918  -0.348 -2.9038 -0.0241  0.6870
  643MOL0     H86798   9.405   9.072  -0.344 -1.7158  1.5980 -1.1331
  643MOL0     H86799   9.098   9.034  -0.339 -0.9519  0.9638 -0.7710
  643MOL0     H86800   9.180   9.193  -0.320  2.5564 -0.2118  1.6037
  643MOL0     H86801   9.230   9.121  -0.729  0.3270  1.9218  1.6103
  643MOL0     H86802   9.772   9.102  -0.186 -1.7315  0.4935  0.0275
  643MOL0     H86803  10.084   9.097  -0.080 -1.1106 -2.2664  3.7580
  643MOL0     H86804  10.093   8.975  -0.211 -1.2810  1.1776 -1.3669
  643MOL0     H86805   9.990   9.110  -0.233 -0.4175  0.7602  0.7914
  644MOL0     O86806   5.052   9.750   7.819 -0.2381 -0.5476 -0.5649
  644MOL0     C86807   5.009   9.843   7.891  0.5228 -0.3727 -0.2469
  644MOL0     O86808   5.071   9.965   7.911  0.1210 -0.5799 -0.0719
  644MOL0     C86809   5.166   9.994   7.826 -0.3701 -0.1841  0.3862
  644MOL0     C86810   5.293   9.937   7.846  0.4545 -0.4847 -1.4191
  644MOL0     C86811   5.398   9.960   7.764  0.5561  0.5625 -0.4758
  644MOL0     C86812   5.378  10.048   7.658 -0.1730  0.9402  0.3594
  644MOL0     O86813   5.491  10.082   7.586 -0.6408 -0.5211 -0.2134
  644MOL0     C86814   5.477  10.154   7.466  0.0960 -0.6041  0.5884
  644MOL0     C86815   5.612  10.203   7.418 -0.1745  0.1574 -0.6548
  644MOL0     C86816   5.706  10.095   7.368 -0.4950 -0.1245  0.8258
  644MOL0     C86817   5.839  10.155   7.318  0.4742  0.3300 -0.1026
  644MOL0     C86818   5.934  10.044   7.247  0.4575 -0.9563  0.4311
  644MOL0     C86819   6.010   9.966   7.345 -0.0845  0.1500  0.1473
  644MOL0     C86820   6.154   9.913   7.290  0.7136  0.7341 -0.0922
  644MOL0     C86821   6.154   9.836   7.155  0.1009  0.4635  0.0184
  644MOL0     N86822   6.288   9.771   7.147  0.6726  0.1429  0.9171
  644MOL0     C86823   6.309   9.639   7.182 -0.1504  0.0719 -0.1990
  644MOL0     C86824   6.441   9.629   7.208  0.8718 -0.0760 -0.1178
  644MOL0     C86825   6.501   9.502   7.264  0.1493  0.8033 -0.1879
  644MOL0     C86826   6.660   9.504   7.255  0.1667  0.4834  0.0053
  644MOL0     C86827   6.733   9.598   7.350  0.2245 -0.2564  0.0714
  644MOL0     C86828   6.882   9.564   7.373 -0.4371  0.5396 -1.2773
  644MOL0     O86829   6.902   9.486   7.498 -0.0331  0.1214 -0.4325
  644MOL0     C86830   7.021   9.430   7.527 -0.6235 -0.6831  0.0560
  644MOL0     C86831   7.135   9.481   7.469 -0.1988  0.7787 -0.5404
  644MOL0     C86832   7.257   9.420   7.492 -0.0673 -0.0662 -0.2086
  644MOL0     C86833   7.276   9.314   7.581  0.1986 -1.0686  0.4594
  644MOL0     C86834   7.407   9.256   7.598  0.7846  0.9273 -0.5874
  644MOL0     O86835   7.511   9.310   7.534 -0.4143  0.0710 -0.4163
  644MOL0     C86836   7.640   9.300   7.586  0.1594  0.2080  0.1413
  644MOL0     C86837   7.668   9.325   7.715 -0.8994 -0.3338  0.9576
  644MOL0     C86838   7.804   9.349   7.757 -0.0267 -0.5867 -0.0310
  644MOL0     C86839   7.905   9.337   7.662 -0.0111  0.7434 -0.0128
  644MOL0     O86840   8.039   9.352   7.683 -0.3099  0.3879 -0.0546
  644MOL0     C86841   8.090   9.352   7.819 -0.7082  0.0171 -0.2927
  644MOL0     C86842   8.245   9.377   7.809 -0.1025 -0.0487  0.4638
  644MOL0     C86843   8.326   9.250   7.774  0.0199 -0.1632  0.2032
  644MOL0     C86844   8.473   9.248   7.799  0.0032  0.4190  0.0556
  644MOL0     C86845   8.540   9.130   7.748  0.4680 -0.4387 -0.3177
  644MOL0     C86846   8.691   9.162   7.715  0.3267 -0.8789 -0.1866
  644MOL0     C86847   8.760   9.036   7.661 -0.0617 -0.2044  0.3725
  644MOL0     C86848   8.762   8.932   7.770  0.0092  0.1261  0.4181
  644MOL0    Cl86849   8.897   8.826   7.739  0.3204  0.6008  0.0733
  644MOL0     C86850   7.864   9.301   7.527 -0.5333  1.2739 -0.4700
  644MOL0     C86851   7.734   9.275   7.492  0.8217  0.2614 -0.4654
  644MOL0     O86852   7.413   9.158   7.670  0.3557  0.5830 -0.0122
  644MOL0     C86853   7.160   9.263   7.637  0.1329  0.1373  0.4373
  644MOL0     C86854   7.032   9.314   7.607 -0.4863 -0.2342 -0.4713
  644MOL0     N86855   6.498   9.754   7.188 -0.5976  0.2668  0.0347
  644MOL0     N86856   6.412   9.837   7.147  0.8455  0.9152 -0.9098
  644MOL0     C86857   5.251  10.100   7.629 -0.0094 -1.4021  0.3861
  644MOL0     C86858   5.146  10.081   7.722  1.0519  0.9317 -0.3086
  644MOL0     C86859   4.883   9.829   7.980 -0.0617 -0.2007  0.0972
  644MOL0     C86860   4.855   9.918   8.076  0.9880 -0.3424  0.2537
  644MOL0     C86861   4.737   9.929   8.151  0.5177  0.3264  0.3709
  644MOL0     C86862   4.634   9.836   8.130 -0.0931 -0.2360 -0.8633
  644MOL0     O86863   4.524   9.844   8.212 -0.1529 -0.2315  0.9150
  644MOL0     C86864   4.391   9.809   8.152 -0.6628  0.1526  0.4767
  644MOL0     C86865   4.346   9.894   8.040 -0.3744  0.6108 -0.2518
  644MOL0     C86866   4.249   9.999   8.088  0.1831 -0.8055  0.1430
  644MOL0     C86867   4.238  10.100   7.973 -0.1226  0.3125  0.0033
  644MOL0     C86868   4.154  10.218   8.003  0.5078  0.5492  0.6213
  644MOL0     C86869   4.086  10.315   8.035  0.2589 -0.6187 -1.1491
  644MOL0     C86870   4.662   9.738   8.029  1.2239 -0.5752 -1.4444
  644MOL0     C86871   4.778   9.741   7.951 -0.3954  0.1781  0.0545
  644MOL0     C86872   4.787   9.637   7.839  0.2703 -0.9838 -0.2679
  644MOL0     H86873   5.318   9.873   7.929  0.3842  1.5947  0.2841
  644MOL0     H86874   5.495   9.912   7.774  0.0457 -0.3395  0.3243
  644MOL0     H86875   5.426  10.085   7.397 -1.4261 -0.1336  1.1890
  644MOL0     H86876   5.417  10.243   7.488 -0.1188 -0.8349  0.9496
  644MOL0     H86877   5.660  10.267   7.492 -1.2695 -1.9914  2.0764
  644MOL0     H86878   5.594  10.262   7.327 -2.0921 -0.7176 -0.8959
  644MOL0     H86879   5.663  10.039   7.284  2.3761 -1.2084 -0.0633
  644MOL0     H86880   5.736  10.026   7.447  2.8359  0.6380  0.3608
  644MOL0     H86881   5.803  10.224   7.241 -3.2175 -2.6307 -1.3151
  644MOL0     H86882   5.895  10.209   7.394  2.3649  1.0403 -1.9085
  644MOL0     H86883   5.883   9.986   7.170 -0.6846 -2.0014  1.9230
  644MOL0     H86884   6.011  10.104   7.198  0.5186  0.9279  2.6582
  644MOL0     H86885   6.037  10.039   7.422 -0.1086 -1.0706  1.3553
  644MOL0     H86886   5.947   9.884   7.379  0.7200  0.2417  1.9699
  644MOL0     H86887   6.189   9.836   7.358 -2.2204 -0.0022  0.7366
  644MOL0     H86888   6.219  10.001   7.282 -0.1325  1.1987 -2.8534
  644MOL0     H86889   6.071   9.766   7.146  0.3697  0.2967 -1.3465
  644MOL0     H86890   6.154   9.912   7.077  1.3084  1.5432  1.0130
  644MOL0     H86891   6.240   9.560   7.208  2.8434 -2.6052  0.3494
  644MOL0     H86892   6.474   9.491   7.369 -1.7904 -0.6747 -0.7842
  644MOL0     H86893   6.467   9.411   7.214 -0.9739 -0.0481  2.0438
  644MOL0     H86894   6.691   9.407   7.295  0.7452 -0.5442 -2.7235
  644MOL0     H86895   6.705   9.506   7.155  0.4513 -1.0410  0.0804
  644MOL0     H86896   6.688   9.600   7.450  1.4482 -2.9507  0.7769
  644MOL0     H86897   6.726   9.699   7.308  1.5667  1.0365  2.6979
  644MOL0     H86898   6.937   9.659   7.378  0.4878  0.1293 -3.0161
  644MOL0     H86899   6.915   9.494   7.296 -0.3144 -2.8407  1.5778
  644MOL0     H86900   7.132   9.561   7.395 -0.1434 -0.1959 -1.6209
  644MOL0     H86901   7.344   9.462   7.443 -1.1301  2.7758  0.1601
  644MOL0     H86902   7.585   9.340   7.783 -0.3668 -1.8505  1.9815
  644MOL0     H86903   7.828   9.367   7.861 -0.0357  3.0359 -0.5392
  644MOL0     H86904   8.043   9.435   7.873 -0.8093 -0.5389  0.4917
  644MOL0     H86905   8.066   9.255   7.864 -0.4108  0.6530  1.3040
  644MOL0     H86906   8.274   9.461   7.745  0.3535 -2.0244 -2.0718
  644MOL0     H86907   8.275   9.401   7.911  0.6532 -0.8796  0.4565
  644MOL0     H86908   8.277   9.161   7.814 -0.1089 -0.1338  0.1150
  644MOL0     H86909   8.320   9.233   7.667  0.0731 -1.2688  0.3640
  644MOL0     H86910   8.487   9.266   7.906  1.7610  3.7585 -0.6017
  644MOL0     H86911   8.520   9.335   7.751  1.1836  1.5125  2.9161
  644MOL0     H86912   8.488   9.097   7.658 -1.4870  1.9693 -0.1725
  644MOL0     H86913   8.528   9.050   7.821  1.7025 -0.3843 -0.0166
  644MOL0     H86914   8.710   9.244   7.645  1.5874 -0.1920  0.9179
  644MOL0     H86915   8.736   9.198   7.808 -1.1440  0.5092  0.0316
  644MOL0     H86916   8.867   9.041   7.640  0.1718 -2.5365  0.8127
  644MOL0     H86917   8.707   9.007   7.570 -1.8384  0.6764  1.0731
  644MOL0     H86918   8.780   8.985   7.864  0.2656  1.1476 -0.1900
  644MOL0     H86919   8.668   8.876   7.773  1.2412 -2.1668 -0.7018
  644MOL0     H86920   7.933   9.273   7.449  1.5716  0.3507  1.5886
  644MOL0     H86921   7.711   9.235   7.393 -1.7355 -0.5723  0.3962
  644MOL0     H86922   7.164   9.172   7.695  1.1212 -1.1658 -1.5477
  644MOL0     H86923   6.939   9.267   7.637  0.0316 -1.4367 -0.6935
  644MOL0     H86924   5.237  10.148   7.533 -1.3832 -1.0982  0.7160
  644MOL0     H86925   5.049  10.130   7.717  0.7434  0.1985 -3.7504
  644MOL0     H86926   4.929   9.996   8.092 -1.1612  1.3828  2.5634
  644MOL0     H86927   4.729  10.008   8.225  3.2775  1.0918 -0.0673
  644MOL0     H86928   4.319   9.802   8.234  0.5262 -0.8595  1.4882
  644MOL0     H86929   4.403   9.704   8.124  0.7969  0.9679 -2.3579
  644MOL0     H86930   4.308   9.822   7.967 -3.5981  0.1106  1.7274
  644MOL0     H86931   4.432   9.946   7.998 -0.8253  2.3028  0.8165
  644MOL0     H86932   4.291  10.052   8.174 -2.0616  0.5811  0.4724
  644MOL0     H86933   4.148   9.961   8.106  0.3543 -1.1599  0.3642
  644MOL0     H86934   4.337  10.144   7.954 -0.3742  2.1369  2.4688
  644MOL0     H86935   4.199  10.051   7.883 -1.9455  0.1902  0.8396
  644MOL0     H86936   4.030  10.404   8.057  0.7475 -0.6660  0.4032
  644MOL0     H86937   4.584   9.669   7.998  0.1835  0.6486 -1.6458
  644MOL0     H86938   4.889   9.611   7.809  0.9078  1.6702 -0.7067
  644MOL0     H86939   4.736   9.546   7.870  0.7074 -0.6771  1.4500
  644MOL0     H86940   4.739   9.670   7.746  0.4030 -1.3162 -0.4561
  645MOL0     O86941   2.920   8.807   6.613  0.0379  0.0670 -0.5949
  645MOL0     C86942   2.832   8.886   6.646 -0.1438 -0.5200 -0.2978
  645MOL0     O86943   2.855   9.019   6.668  0.4723 -0.6481 -0.4340
  645MOL0     C86944   2.977   9.077   6.697  0.9265 -0.8812 -0.8547
  645MOL0     C86945   3.080   9.016   6.771  0.0733  0.9011 -0.2271
  645MOL0     C86946   3.196   9.091   6.804  0.4980 -0.0018  0.2395
  645MOL0     C86947   3.214   9.220   6.764  0.2441 -0.3322  0.2912
  645MOL0     O86948   3.333   9.281   6.798  0.2282 -0.0258  0.0861
  645MOL0     C86949   3.404   9.369   6.703 -0.3682 -0.0064 -0.8333
  645MOL0     C86950   3.551   9.350   6.733 -1.0920 -0.7774  0.3704
  645MOL0     C86951   3.634   9.412   6.618 -0.8668 -0.2402  0.3935
  645MOL0     C86952   3.788   9.429   6.651  0.6051  0.0361  0.1589
  645MOL0     C86953   3.870   9.314   6.598 -0.1733  0.2767 -0.9595
  645MOL0     C86954   4.023   9.316   6.641 -0.0529 -0.1850  0.0030
  645MOL0     C86955   4.103   9.443   6.614  0.2997 -0.4575 -0.3964
  645MOL0     C86956   4.247   9.413   6.579  0.0921 -0.1158  0.1851
  645MOL0     N86957   4.331   9.377   6.692  0.0933  0.1033 -0.2615
  645MOL0     C86958   4.463   9.416   6.720  0.7769 -1.7856  0.5834
  645MOL0     C86959   4.488   9.360   6.839  0.1111  0.6933  0.5605
  645MOL0     C86960   4.612   9.363   6.926  1.0122  0.3186  0.2042
  645MOL0     C86961   4.724   9.308   6.837  0.1014  0.4710  0.0186
  645MOL0     C86962   4.855   9.292   6.910 -0.1785  0.3757 -0.5934
  645MOL0     C86963   4.943   9.397   6.965 -1.1981 -0.5295 -0.0835
  645MOL0     O86964   4.985   9.475   6.847 -0.3188 -0.2656  0.4524
  645MOL0     C86965   5.105   9.540   6.849  0.5468 -0.2511  0.0743
  645MOL0     C86966   5.192   9.539   6.959  0.4504 -0.2215 -0.1596
  645MOL0     C86967   5.322   9.587   6.945 -0.5048 -0.7288 -0.4457
  645MOL0     C86968   5.367   9.636   6.825 -0.2290 -0.6161  0.0674
  645MOL0     C86969   5.504   9.678   6.808 -0.3746  0.2706 -0.6303
  645MOL0     O86970   5.577   9.704   6.922 -0.4469 -0.2298  0.4272
  645MOL0     C86971   5.706   9.683   6.916 -0.6678 -0.8549 -0.7020
  645MOL0     C86972   5.755   9.555   6.959 -0.0728  0.0622  0.0063
  645MOL0     C86973   5.890   9.523   6.933  0.4228  0.6440  0.2104
  645MOL0     C86974   5.974   9.625   6.886 -0.0142 -0.4000 -0.3178
  645MOL0     O86975   6.114   9.600   6.867  0.3739  0.1837 -0.1604
  645MOL0     C86976   6.164   9.464   6.860  0.6700 -0.2279 -0.8296
  645MOL0     C86977   6.316   9.473   6.831  0.5539 -0.0117  0.5003
  645MOL0     C86978   6.393   9.344   6.816 -0.5759  0.1291  0.6795
  645MOL0     C86979   6.539   9.382   6.809 -0.0459  0.4621 -1.1616
  645MOL0     C86980   6.632   9.266   6.779  0.2637  0.4801 -0.0995
  645MOL0     C86981   6.781   9.311   6.792  0.7243  0.7156 -0.2022
  645MOL0     C86982   6.841   9.321   6.938  0.3756 -0.9638  1.0188
  645MOL0     C86983   6.849   9.187   7.015 -0.0092  0.6664 -0.0884
  645MOL0    Cl86984   6.923   9.218   7.174 -0.4773  0.2095 -0.7419
  645MOL0     C86985   5.925   9.755   6.856 -0.3370 -0.4038  0.2304
  645MOL0     C86986   5.791   9.786   6.873 -0.2325 -0.2753  0.4947
  645MOL0     O86987   5.550   9.674   6.693  0.1479 -0.1164  0.1375
  645MOL0     C86988   5.287   9.636   6.716  0.4520 -0.1019  0.1521
  645MOL0     C86989   5.156   9.593   6.722  0.5595  0.1671 -0.3590
  645MOL0     N86990   4.387   9.272   6.873  0.2215 -0.3876 -0.7539
  645MOL0     N86991   4.303   9.283   6.776  0.5174 -0.8332  0.7137
  645MOL0     C86992   3.110   9.285   6.694 -0.4807 -0.1367  0.2533
  645MOL0     C86993   2.996   9.213   6.659  0.1984  0.2206  0.1600
  645MOL0     C86994   2.694   8.836   6.656  0.3557  0.3578  0.1352
  645MOL0     C86995   2.671   8.697   6.652 -0.6653 -0.6580  0.6106
  645MOL0     C86996   2.538   8.645   6.655 -0.3794 -0.4124  0.2220
  645MOL0     C86997   2.431   8.733   6.687  0.7106  0.5473 -0.3096
  645MOL0     O86998   2.302   8.677   6.688 -0.6735 -0.8095  0.0284
  645MOL0     C86999   2.220   8.728   6.588  0.4156 -1.1534 -0.6812
  645MOL0     C87000   2.124   8.608   6.559 -0.7440 -0.7516 -0.4499
  645MOL0     C87001   2.208   8.483   6.509  0.0309 -0.3986 -0.9968
  645MOL0     C87002   2.121   8.395   6.419 -0.8893 -0.3417 -0.4649
  645MOL0     C87003   2.197   8.272   6.385 -0.4977 -0.6761 -0.2600
  645MOL0     C87004   2.265   8.173   6.360 -0.2902  0.1230 -0.2010
  645MOL0     C87005   2.456   8.870   6.708  0.2247  0.3558  0.3609
  645MOL0     C87006   2.584   8.924   6.686  0.1095  1.0325 -0.5853
  645MOL0     C87007   2.587   9.072   6.685 -0.0779 -0.2984  0.5074
  645MOL0     H87008   3.072   8.910   6.794  2.7027  0.2682 -1.7982
  645MOL0     H87009   3.265   9.051   6.878 -2.0619  0.5072  3.1267
  645MOL0     H87010   3.379   9.344   6.599  0.7857 -3.4667 -0.4020
  645MOL0     H87011   3.376   9.473   6.721 -3.1778 -0.6441 -0.9289
  645MOL0     H87012   3.580   9.245   6.739  0.2762 -0.3730  1.0719
  645MOL0     H87013   3.578   9.390   6.831 -2.2037  1.0832 -0.0227
  645MOL0     H87014   3.588   9.507   6.590 -2.6939 -1.3312 -0.5244
  645MOL0     H87015   3.626   9.347   6.530 -3.0887  1.9070 -1.1382
  645MOL0     H87016   3.840   9.511   6.601  0.8811  1.4497  2.5847
  645MOL0     H87017   3.804   9.439   6.759  1.5476  2.6038 -0.1500
  645MOL0     H87018   3.825   9.226   6.644  0.4888  0.7901  0.7816
  645MOL0     H87019   3.868   9.320   6.489  0.1706  3.0079 -0.8968
  645MOL0     H87020   4.037   9.308   6.749  2.3014  2.7137  0.0525
  645MOL0     H87021   4.076   9.229   6.601 -0.5745 -0.1331 -0.8337
  645MOL0     H87022   4.096   9.522   6.689 -0.0269 -0.2947 -0.5969
  645MOL0     H87023   4.063   9.488   6.522  0.0871 -0.0649 -0.1161
  645MOL0     H87024   4.252   9.326   6.513  1.9341 -1.2663  1.7402
  645MOL0     H87025   4.286   9.503   6.531  1.1105 -0.0981  0.9936
  645MOL0     H87026   4.529   9.483   6.667 -1.7611  0.4562  0.0292
  645MOL0     H87027   4.622   9.469   6.951  0.0061  0.9168 -1.6746
  645MOL0     H87028   4.599   9.304   7.017  1.3263 -1.8392 -1.0706
  645MOL0     H87029   4.691   9.210   6.800 -3.5150  2.0627 -1.5217
  645MOL0     H87030   4.741   9.370   6.748  0.7591  1.3404  0.7372
  645MOL0     H87031   4.912   9.227   6.843 -0.3814  3.0244 -3.6121
  645MOL0     H87032   4.832   9.233   6.999 -0.1630  0.9571 -0.1977
  645MOL0     H87033   5.022   9.344   7.018  1.6915  1.6847 -1.8793
  645MOL0     H87034   4.891   9.460   7.038 -0.5472  1.1235 -0.9768
  645MOL0     H87035   5.163   9.496   7.055  1.0871 -1.3710 -0.4681
  645MOL0     H87036   5.398   9.580   7.023  1.6296 -2.0441 -2.5231
  645MOL0     H87037   5.678   9.486   6.992 -0.8242 -1.1431 -3.7265
  645MOL0     H87038   5.921   9.423   6.960 -0.0227 -0.1360 -2.0125
  645MOL0     H87039   6.156   9.411   6.955  2.0718 -0.1703 -0.6664
  645MOL0     H87040   6.110   9.410   6.782  2.0816 -0.3612 -1.7405
  645MOL0     H87041   6.321   9.519   6.732 -4.1399  1.0586  0.5746
  645MOL0     H87042   6.363   9.534   6.908  1.4977  1.2116 -0.9853
  645MOL0     H87043   6.370   9.279   6.901  0.6087  1.3670  2.0047
  645MOL0     H87044   6.371   9.285   6.726  0.0442 -2.1722  1.9683
  645MOL0     H87045   6.556   9.413   6.913  0.2603 -2.4743 -0.2486
  645MOL0     H87046   6.573   9.462   6.743  2.5428 -0.5756 -1.1984
  645MOL0     H87047   6.616   9.229   6.677 -1.4636  0.5779  0.1023
  645MOL0     H87048   6.611   9.178   6.840 -1.3883 -0.3801 -1.7781
  645MOL0     H87049   6.845   9.234   6.747 -0.0627 -0.5151  0.7143
  645MOL0     H87050   6.803   9.407   6.746 -2.0517  1.6033  0.1453
  645MOL0     H87051   6.776   9.385   6.998  2.0730 -0.6064  2.5253
  645MOL0     H87052   6.937   9.373   6.934 -0.0581 -0.2202 -0.6202
  645MOL0     H87053   6.743   9.160   7.022 -0.3078  1.3953 -1.5628
  645MOL0     H87054   6.898   9.110   6.955 -0.7849 -0.1146  0.2431
  645MOL0     H87055   5.980   9.840   6.817 -0.8634  0.3036  0.9869
  645MOL0     H87056   5.758   9.884   6.842  2.3296  0.3864 -0.4183
  645MOL0     H87057   5.318   9.681   6.622 -1.5652  0.1826 -0.4349
  645MOL0     H87058   5.098   9.604   6.631  3.3456  0.3848 -2.2427
  645MOL0     H87059   3.117   9.386   6.654  1.5119  1.6778  4.5530
  645MOL0     H87060   2.913   9.268   6.616  0.3228 -0.8345 -1.5194
  645MOL0     H87061   2.751   8.623   6.651 -1.7208 -1.8307 -0.4182
  645MOL0     H87062   2.532   8.537   6.640  1.9815 -0.2523 -3.2785
  645MOL0     H87063   2.245   8.763   6.487 -1.1868 -0.9333 -1.0229
  645MOL0     H87064   2.153   8.798   6.637  0.6943 -0.3633 -1.4166
  645MOL0     H87065   2.068   8.640   6.471  2.0391  3.5503 -0.9392
  645MOL0     H87066   2.069   8.587   6.652  0.4459  1.0542  0.7397
  645MOL0     H87067   2.244   8.433   6.599  0.2485  0.6469 -0.4854
  645MOL0     H87068   2.296   8.522   6.458  1.0855 -0.2678  0.8296
  645MOL0     H87069   2.034   8.368   6.479  0.7607 -1.1420  1.6684
  645MOL0     H87070   2.083   8.447   6.330 -1.7528 -1.5444 -0.8208
  645MOL0     H87071   2.331   8.090   6.342  2.5352  2.5081 -1.8357
  645MOL0     H87072   2.366   8.929   6.722  1.3274  2.2699 -0.1775
  645MOL0     H87073   2.614   9.099   6.582  0.1280 -0.2432  0.5740
  645MOL0     H87074   2.487   9.104   6.715 -0.1501 -2.1108  2.4410
  645MOL0     H87075   2.658   9.115   6.757  1.4483 -1.6714 -0.1190
  646MOL0     O87076   6.399  10.969   0.866  0.3949  0.3516  0.4241
  646MOL0     C87077   6.408  10.857   0.814  0.8683 -0.7921  0.1233
  646MOL0     O87078   6.517  10.823   0.739  0.3880  0.3779 -0.3244
  646MOL0     C87079   6.639  10.885   0.759  0.1673  0.0691 -0.6785
  646MOL0     C87080   6.679  10.940   0.880 -0.0096 -0.2714  0.0101
  646MOL0     C87081   6.806  10.997   0.909 -0.5419  0.1971 -0.3208
  646MOL0     C87082   6.899  10.998   0.801 -1.3607 -0.4761  0.9722
  646MOL0     O87083   7.032  11.025   0.807  0.5193  0.8345 -0.5937
  646MOL0     C87084   7.075  11.060   0.939 -0.5888  0.2081 -0.5126
  646MOL0     C87085   7.231  11.083   0.946  0.0343 -0.8401  0.1917
  646MOL0     C87086   7.273  11.205   0.864 -0.1886  0.0224 -0.5337
  646MOL0     C87087   7.202  11.332   0.918 -0.3108  0.0687  0.5431
  646MOL0     C87088   7.244  11.450   0.829 -1.0433 -0.4628 -0.5829
  646MOL0     C87089   7.152  11.574   0.865  0.0861  0.2356 -0.0362
  646MOL0     C87090   7.171  11.692   0.779 -0.0962 -0.3725  0.8716
  646MOL0     C87091   7.074  11.811   0.808  0.8049 -0.5052  0.3525
  646MOL0     N87092   7.076  11.853   0.952  0.2007 -0.2805  0.1227
  646MOL0     C87093   7.013  11.791   1.053 -0.1412  0.0423  0.0225
  646MOL0     C87094   7.065  11.865   1.160  0.8369 -0.0137  0.2676
  646MOL0     C87095   7.022  11.873   1.304 -0.2530  0.4595  0.0010
  646MOL0     C87096   7.136  11.820   1.405 -0.9392 -0.4710  0.2226
  646MOL0     C87097   7.206  11.941   1.468 -0.2741  0.4631 -0.3177
  646MOL0     C87098   7.289  11.897   1.599  0.0396  0.5161 -0.2454
  646MOL0     O87099   7.413  11.839   1.568 -0.0440 -0.4768  0.0080
  646MOL0     C87100   7.495  11.809   1.674  0.4338 -0.4617  0.2525
  646MOL0     C87101   7.609  11.733   1.645  0.1155 -0.7786 -0.2283
  646MOL0     C87102   7.694  11.673   1.744 -0.7712  0.4885  0.3040
  646MOL0     C87103   7.658  11.696   1.877  0.0405  0.4390 -0.0767
  646MOL0     C87104   7.739  11.647   1.985 -0.9912  0.5317 -0.9701
  646MOL0     O87105   7.693  11.647   2.110  0.0071 -0.1804  0.2866
  646MOL0     C87106   7.770  11.632   2.225  0.0775 -0.1371  0.5423
  646MOL0     C87107   7.729  11.534   2.321  0.1590 -0.3343 -0.4573
  646MOL0     C87108   7.807  11.503   2.430  0.1898  0.8620  0.7717
  646MOL0     C87109   7.919  11.577   2.455  0.6335  0.4441 -0.4202
  646MOL0     O87110   7.980  11.541   2.571 -0.0423 -0.3371 -0.5216
  646MOL0     C87111   8.120  11.571   2.573 -0.0932 -0.4044 -0.0666
  646MOL0     C87112   8.187  11.516   2.699 -0.4075  0.4581  0.0007
  646MOL0     C87113   8.192  11.358   2.692  0.3466  0.5890 -0.6140
  646MOL0     C87114   8.315  11.304   2.625 -0.9056 -0.6457  0.0862
  646MOL0     C87115   8.335  11.159   2.657 -0.5330 -0.7864  0.4008
  646MOL0     C87116   8.422  11.095   2.552  0.0310  0.1458  0.5830
  646MOL0     C87117   8.473  10.960   2.581 -0.0584 -0.2235 -0.3741
  646MOL0     C87118   8.565  10.921   2.462  0.8781  0.1237  0.2773
  646MOL0    Cl87119   8.698  11.035   2.467  0.4229  0.2011  0.0790
  646MOL0     C87120   7.954  11.680   2.369 -0.2935 -0.4031 -0.6797
  646MOL0     C87121   7.879  11.714   2.259  0.2225 -0.1195  0.7423
  646MOL0     O87122   7.852  11.609   1.959  0.0408 -0.0672 -0.3130
  646MOL0     C87123   7.545  11.775   1.916 -0.7828 -0.2008 -0.0411
  646MOL0     C87124   7.463  11.829   1.814  0.2645 -0.3320 -0.1747
  646MOL0     N87125   7.164  11.953   1.116  0.2896  0.6849 -0.4300
  646MOL0     N87126   7.165  11.944   0.990  0.1550 -0.3868  1.2865
  646MOL0     C87127   6.860  10.938   0.677 -0.0388 -0.0342  0.4410
  646MOL0     C87128   6.731  10.880   0.664  0.2182 -0.1428  1.5924
  646MOL0     C87129   6.294  10.759   0.821 -0.2355 -0.0775 -0.6433
  646MOL0     C87130   6.319  10.621   0.813 -0.1537  0.2572 -0.5670
  646MOL0     C87131   6.212  10.521   0.829 -0.0011 -0.2121 -1.1331
  646MOL0     C87132   6.079  10.564   0.845  0.6528  0.4385 -0.1020
  646MOL0     O87133   5.986  10.465   0.866  0.8563  0.2262  0.0583
  646MOL0     C87134   5.846  10.511   0.852  0.2258 -0.4942 -0.4265
  646MOL0     C87135   5.752  10.401   0.869  0.6334  0.0900  0.8065
  646MOL0     C87136   5.601  10.442   0.874 -0.1660  0.1015 -0.7404
  646MOL0     C87137   5.559  10.480   1.018  0.1011  0.0785  0.1458
  646MOL0     C87138   5.414  10.513   1.034  0.0976 -0.0229 -0.5931
  646MOL0     C87139   5.293  10.543   1.023 -0.4275 -0.2865  0.1033
  646MOL0     C87140   6.057  10.700   0.854 -0.5465  0.2008  0.5747
  646MOL0     C87141   6.155  10.801   0.841  0.6231  0.4581  1.3332
  646MOL0     C87142   6.109  10.940   0.851  0.5292  0.3165  0.0085
  646MOL0     H87143   6.609  10.950   0.963 -1.0344  3.2971 -1.0805
  646MOL0     H87144   6.830  11.026   1.011 -0.1640  3.4672 -1.2224
  646MOL0     H87145   7.009  11.143   0.963 -2.0306 -0.9038 -0.5180
  646MOL0     H87146   7.058  10.981   1.012  2.8314  2.2120  2.8202
  646MOL0     H87147   7.284  10.995   0.911 -1.4424 -1.0443 -1.6922
  646MOL0     H87148   7.253  11.086   1.053 -0.2483  2.1564  0.2556
  646MOL0     H87149   7.259  11.200   0.756  0.6031  0.7641 -0.6790
  646MOL0     H87150   7.381  11.209   0.878 -0.4225 -0.5763  2.1053
  646MOL0     H87151   7.094  11.321   0.906 -0.1691 -0.8522  0.0118
  646MOL0     H87152   7.210  11.355   1.025 -0.1658  0.2002  0.5033
  646MOL0     H87153   7.351  11.467   0.849 -1.3185 -0.7252  1.3232
  646MOL0     H87154   7.230  11.430   0.722 -2.3203  1.0325 -0.7359
  646MOL0     H87155   7.046  11.549   0.868  0.4949 -2.0756 -1.8567
  646MOL0     H87156   7.171  11.590   0.971 -0.1870 -1.7973  0.3658
  646MOL0     H87157   7.151  11.666   0.675 -2.9776  0.9828  0.9915
  646MOL0     H87158   7.275  11.723   0.793  0.5346 -2.4354  1.0969
  646MOL0     H87159   7.091  11.901   0.748  0.4261  0.0609  1.0734
  646MOL0     H87160   6.973  11.783   0.777  0.1617 -0.7953  2.5232
  646MOL0     H87161   6.929  11.723   1.055 -0.5091  0.4291 -1.3496
  646MOL0     H87162   7.009  11.980   1.319  0.5493  0.5108  0.4213
  646MOL0     H87163   6.924  11.830   1.324  0.7137 -1.1700  1.5092
  646MOL0     H87164   7.079  11.775   1.487  1.1604  2.1392  3.3432
  646MOL0     H87165   7.206  11.750   1.357 -0.4850 -0.1809  0.4543
  646MOL0     H87166   7.125  12.005   1.503  1.9810  2.4314  1.7375
  646MOL0     H87167   7.283  11.988   1.405 -0.6461  1.5821  0.0381
  646MOL0     H87168   7.227  11.829   1.658  2.1329  0.6262  2.2354
  646MOL0     H87169   7.306  11.988   1.657  3.0529  0.4042 -0.8255
  646MOL0     H87170   7.631  11.721   1.540  1.6976 -0.9073  0.0782
  646MOL0     H87171   7.780  11.610   1.723 -2.4456 -2.6313  2.0334
  646MOL0     H87172   7.638  11.475   2.322 -1.2684  1.7154  2.2739
  646MOL0     H87173   7.776  11.423   2.496 -1.0521 -1.3090 -2.2224
  646MOL0     H87174   8.168  11.545   2.479  1.2318  3.1149 -0.5286
  646MOL0     H87175   8.128  11.680   2.586  0.0928 -0.3467 -0.6837
  646MOL0     H87176   8.289  11.555   2.706 -0.5951  0.8441  0.6664
  646MOL0     H87177   8.126  11.561   2.777 -0.3427  1.8165 -0.6875
  646MOL0     H87178   8.188  11.321   2.795 -1.4492  0.2061 -0.7766
  646MOL0     H87179   8.100  11.324   2.643 -0.7624  0.9327  1.1296
  646MOL0     H87180   8.407  11.345   2.669  1.5268 -4.8419 -0.5590
  646MOL0     H87181   8.323  11.330   2.519  0.9436  2.2915  0.8240
  646MOL0     H87182   8.238  11.110   2.648 -1.5197  1.3636 -2.2014
  646MOL0     H87183   8.376  11.143   2.757 -0.9883 -1.5639  0.4735
  646MOL0     H87184   8.377  11.089   2.453  2.7200  2.2142 -0.9085
  646MOL0     H87185   8.508  11.163   2.551  0.6432 -0.6252  0.0079
  646MOL0     H87186   8.395  10.883   2.585 -0.9036  0.6431  0.2992
  646MOL0     H87187   8.529  10.949   2.675  0.4193 -1.1252 -0.7551
  646MOL0     H87188   8.601  10.819   2.472 -2.1280 -1.0731 -0.1254
  646MOL0     H87189   8.507  10.933   2.369 -0.1104  2.5980  1.1212
  646MOL0     H87190   8.045  11.735   2.392 -1.1235 -0.1937  2.7022
  646MOL0     H87191   7.915  11.788   2.189  0.6476 -1.5811 -0.6535
  646MOL0     H87192   7.523  11.799   2.020 -1.7668  1.3594 -0.5738
  646MOL0     H87193   7.380  11.887   1.853  1.3883  1.3426 -0.1319
  646MOL0     H87194   6.938  10.929   0.601 -0.6059 -2.4303  0.0544
  646MOL0     H87195   6.713  10.840   0.565  0.5071  1.4167  0.8714
  646MOL0     H87196   6.414  10.577   0.783 -0.7413  0.3350 -2.7295
  646MOL0     H87197   6.229  10.415   0.816  0.3484 -0.2092 -0.7320
  646MOL0     H87198   5.833  10.570   0.761  0.7138 -0.6356 -0.5917
  646MOL0     H87199   5.824  10.579   0.935  2.6830  0.9339 -0.8337
  646MOL0     H87200   5.792  10.349   0.957  0.4941  0.7621  1.2733
  646MOL0     H87201   5.766  10.324   0.793  1.6410  1.3378 -0.3268
  646MOL0     H87202   5.532  10.364   0.841 -1.9017  1.4694 -0.5143
  646MOL0     H87203   5.577  10.524   0.805  0.5267  1.0746  0.1491
  646MOL0     H87204   5.595  10.403   1.087  0.0362 -0.5311 -0.4934
  646MOL0     H87205   5.619  10.568   1.042 -0.2139  0.0308  1.1734
  646MOL0     H87206   5.193  10.575   1.005 -0.2155  0.1466 -0.3562
  646MOL0     H87207   5.957  10.740   0.862 -0.8160 -0.7578  2.7245
  646MOL0     H87208   6.117  10.965   0.958 -0.2018 -1.0984  0.4239
  646MOL0     H87209   6.171  11.005   0.788 -0.0957  1.2001  0.2826
  646MOL0     H87210   6.006  10.950   0.816  0.3187  1.6298  0.9383
  647MOL0     O87211  10.193  10.708   3.634  0.5480 -0.3243  0.1086
  647MOL0     C87212  10.241  10.647   3.535  0.2163  0.1396 -0.0105
  647MOL0     O87213  10.309  10.702   3.433  0.1257  0.3426 -0.7948
  647MOL0     C87214  10.342  10.835   3.432 -0.1638 -1.5829  0.9161
  647MOL0     C87215  10.469  10.879   3.468 -0.5413  0.1816  0.0403
  647MOL0     C87216  10.497  11.013   3.460  0.5879  0.1152 -0.0122
  647MOL0     C87217  10.398  11.112   3.425 -0.1269 -0.2279 -0.4544
  647MOL0     O87218  10.426  11.249   3.422 -0.5698 -0.3048  0.4275
  647MOL0     C87219  10.560  11.286   3.377 -0.1761  0.3549 -0.3745
  647MOL0     C87220  10.562  11.426   3.315 -0.2656 -0.7154  0.7103
  647MOL0     C87221  10.690  11.455   3.231 -0.8412  0.0101  0.4890
  647MOL0     C87222  10.819  11.391   3.278  1.2555 -1.0911 -0.0283
  647MOL0     C87223  10.930  11.440   3.189 -0.0276 -0.1464  0.3568
  647MOL0     C87224  11.041  11.340   3.214 -0.2983 -0.9416 -0.2614
  647MOL0     C87225  11.169  11.377   3.135  0.3115 -0.5627  0.5426
  647MOL0     C87226  11.283  11.282   3.179 -0.9227 -0.3691 -0.3158
  647MOL0     N87227  11.407  11.301   3.105  0.2823  0.1784  0.5775
  647MOL0     C87228  11.506  11.396   3.131  0.5809  0.7809  0.1312
  647MOL0     C87229  11.595  11.392   3.026 -1.0845 -0.6408  0.2881
  647MOL0     C87230  11.711  11.486   3.019  0.1109 -0.1584  0.1346
  647MOL0     C87231  11.816  11.444   2.918 -0.3597  0.5648  0.0924
  647MOL0     C87232  11.937  11.529   2.893  0.0406  0.2452 -0.5370
  647MOL0     C87233  12.008  11.560   3.027 -0.1365 -0.5853 -0.1551
  647MOL0     O87234  12.079  11.685   3.011  0.1292  0.1773  0.0341
  647MOL0     C87235  12.207  11.699   3.063  0.1288  0.4227 -0.7662
  647MOL0     C87236  12.259  11.618   3.165  0.2141  0.1905  0.2200
  647MOL0     C87237  12.386  11.630   3.212  0.2717  0.2863  0.5356
  647MOL0     C87238  12.469  11.731   3.146  0.0947  1.0154  0.5668
  647MOL0     C87239  12.611  11.742   3.179 -0.0796  0.2528  1.2434
  647MOL0     O87240  12.688  11.775   3.069  0.2739  0.3088 -0.7062
  647MOL0     C87241  12.824  11.808   3.082  0.6365 -0.0002 -0.6664
  647MOL0     C87242  12.881  11.868   3.193 -0.1018  0.3629 -0.5581
  647MOL0     C87243  13.020  11.885   3.198  0.1923  0.2524  0.2887
  647MOL0     C87244  13.108  11.853   3.092  0.8983  0.3328 -0.3805
  647MOL0     O87245  13.250  11.868   3.117  0.1273 -0.0983 -0.4834
  647MOL0     C87246  13.332  11.892   3.003  0.0719  0.0036 -0.9818
  647MOL0     C87247  13.469  11.858   3.042 -0.2452  0.4992 -0.0482
  647MOL0     C87248  13.572  11.868   2.924  0.5791  0.1501  0.1239
  647MOL0     C87249  13.718  11.817   2.958 -0.3832  0.6001 -0.0391
  647MOL0     C87250  13.717  11.660   3.003 -0.6373  0.1159  0.2931
  647MOL0     C87251  13.659  11.565   2.903 -0.1951 -0.2917 -0.2779
  647MOL0     C87252  13.659  11.416   2.947 -0.5073  0.0321 -0.3126
  647MOL0     C87253  13.597  11.329   2.851  0.8523 -0.6470  0.3710
  647MOL0    Cl87254  13.428  11.364   2.848  0.0867  0.3509  0.5323
  647MOL0     C87255  13.044  11.794   2.983  0.1301 -0.2492  0.5248
  647MOL0     C87256  12.902  11.775   2.975  0.3589  0.1886 -0.5560
  647MOL0     O87257  12.657  11.693   3.279 -0.2687 -0.1970 -0.5233
  647MOL0     C87258  12.420  11.813   3.042  0.8096  0.5684 -0.1311
  647MOL0     C87259  12.285  11.794   3.001  0.3187  0.1071 -0.4129
  647MOL0     N87260  11.551  11.296   2.947 -0.2219  0.5173  0.1886
  647MOL0     N87261  11.442  11.237   2.990 -0.2354 -0.1431  0.7982
  647MOL0     C87262  10.266  11.074   3.389 -0.3100  0.5720 -0.0299
  647MOL0     C87263  10.241  10.934   3.394 -0.1125 -0.0059  0.2370
  647MOL0     C87264  10.198  10.504   3.525  0.8955 -0.0499 -0.7022
  647MOL0     C87265  10.103  10.450   3.618  0.6239 -0.0367 -0.5809
  647MOL0     C87266  10.054  10.318   3.605 -0.1509 -0.6619 -0.2584
  647MOL0     C87267  10.107  10.228   3.516 -0.2003 -0.8564 -0.7063
  647MOL0     O87268  10.053  10.111   3.482  0.7762 -0.0952  0.0075
  647MOL0     C87269  10.046  10.012   3.594 -0.1973  0.2202 -0.2940
  647MOL0     C87270  10.147   9.898   3.570 -0.3603 -0.3029 -0.1582
  647MOL0     C87271  10.295   9.929   3.594  0.1919  0.0579  0.1535
  647MOL0     C87272  10.384   9.845   3.495 -0.3099  0.0015  0.0760
  647MOL0     C87273  10.367   9.701   3.528  0.0787 -0.7079 -0.1920
  647MOL0     C87274  10.340   9.588   3.562  0.5307 -0.1551  0.6254
  647MOL0     C87275  10.208  10.271   3.430  0.5405 -0.0970  0.5746
  647MOL0     C87276  10.249  10.409   3.430 -0.1290  0.0870  0.6755
  647MOL0     C87277  10.354  10.448   3.323 -0.0200 -0.0847  0.4816
  647MOL0     H87278  10.547  10.817   3.511 -0.0772 -0.2945 -1.4145
  647MOL0     H87279  10.596  11.046   3.490  0.0781  2.2717 -0.5502
  647MOL0     H87280  10.630  11.273   3.460 -0.7564  0.2305  0.1055
  647MOL0     H87281  10.586  11.215   3.299 -1.5696  1.0655 -1.5360
  647MOL0     H87282  10.564  11.488   3.405  4.0554 -0.8023  0.8843
  647MOL0     H87283  10.467  11.427   3.261 -1.6375 -2.9252  2.8531
  647MOL0     H87284  10.701  11.564   3.242  2.5610  0.0599 -1.9917
  647MOL0     H87285  10.673  11.430   3.126  0.9684  0.1556  0.1199
  647MOL0     H87286  10.846  11.423   3.379  4.9384  2.4399 -1.8159
  647MOL0     H87287  10.810  11.283   3.270  3.3465 -1.3525  0.4796
  647MOL0     H87288  10.895  11.444   3.085 -0.1303  2.9921  0.4147
  647MOL0     H87289  10.961  11.542   3.214  1.0914 -0.0654 -1.1703
  647MOL0     H87290  11.062  11.323   3.320 -1.3796  0.2290  0.1615
  647MOL0     H87291  11.013  11.244   3.171  1.0091 -0.1053 -3.2581
  647MOL0     H87292  11.202  11.477   3.165  1.3026 -0.0413 -2.0211
  647MOL0     H87293  11.150  11.374   3.028 -1.0469  1.4074  0.6689
  647MOL0     H87294  11.310  11.305   3.283  0.5139 -1.3160 -0.4566
  647MOL0     H87295  11.244  11.180   3.173 -0.5407 -0.4380 -2.3825
  647MOL0     H87296  11.509  11.462   3.217  1.1911 -0.1627  0.8566
  647MOL0     H87297  11.669  11.582   2.986  1.6760 -0.1772 -2.1236
  647MOL0     H87298  11.750  11.486   3.121 -0.8720 -4.2328  0.6822
  647MOL0     H87299  11.845  11.340   2.929 -0.3416  0.6495  0.9396
  647MOL0     H87300  11.771  11.444   2.818  0.7899 -0.5602 -0.4391
  647MOL0     H87301  11.898  11.618   2.843 -0.4872  0.2790 -0.0897
  647MOL0     H87302  12.014  11.479   2.835  2.7214  1.1060  2.0264
  647MOL0     H87303  12.076  11.475   3.030 -2.0115 -2.1442  0.2130
  647MOL0     H87304  11.946  11.575   3.116 -0.0305  1.2406 -0.3391
  647MOL0     H87305  12.202  11.536   3.206 -0.1987  1.1525  1.6276
  647MOL0     H87306  12.428  11.559   3.282 -0.8148  0.5854  1.5394
  647MOL0     H87307  12.817  11.895   3.277 -1.7459  1.3168 -2.0624
  647MOL0     H87308  13.077  11.929   3.280 -0.6100  0.7098  0.6158
  647MOL0     H87309  13.308  11.821   2.923  1.3069  0.0051 -1.3780
  647MOL0     H87310  13.332  11.998   2.972  1.5587 -0.2069 -1.7811
  647MOL0     H87311  13.499  11.912   3.132 -2.5591  0.8692  0.5565
  647MOL0     H87312  13.466  11.755   3.080  1.8005 -0.2434 -1.6908
  647MOL0     H87313  13.534  11.824   2.831  4.1093 -0.0272 -1.3821
  647MOL0     H87314  13.591  11.966   2.879  2.8224 -0.8105 -1.1710
  647MOL0     H87315  13.753  11.875   3.044 -1.2382 -0.3216  0.9593
  647MOL0     H87316  13.793  11.840   2.881 -0.8731  2.2839 -0.0497
  647MOL0     H87317  13.672  11.655   3.103  1.9375 -3.3525  1.4667
  647MOL0     H87318  13.821  11.629   3.006 -1.1749 -2.3931 -2.5337
  647MOL0     H87319  13.554  11.586   2.882 -0.3738 -0.2302  0.6275
  647MOL0     H87320  13.722  11.566   2.814 -0.8218  1.7321 -0.7382
  647MOL0     H87321  13.612  11.402   3.045  1.7007 -3.9647  0.3719
  647MOL0     H87322  13.763  11.384   2.963 -0.4734  0.2180 -0.1512
  647MOL0     H87323  13.640  11.331   2.750 -0.8436 -2.2312 -0.4398
  647MOL0     H87324  13.621  11.229   2.888  1.6044 -0.3481  0.7173
  647MOL0     H87325  13.099  11.756   2.897  1.2723  0.5931  0.8604
  647MOL0     H87326  12.867  11.732   2.882  0.5108 -2.3977  0.4882
  647MOL0     H87327  12.475  11.903   3.014  0.0368  0.9704 -0.3664
  647MOL0     H87328  12.234  11.859   2.931 -1.4112 -0.3945  0.3325
  647MOL0     H87329  10.185  11.140   3.360 -1.3395 -0.5668  0.1803
  647MOL0     H87330  10.144  10.895   3.368  0.0166 -0.0726 -0.1511
  647MOL0     H87331  10.049  10.505   3.695  0.8676 -2.6653  1.6166
  647MOL0     H87332   9.973  10.284   3.668 -0.0613 -0.3273  0.0407
  647MOL0     H87333   9.949   9.963   3.599  0.0376 -0.3630 -1.3026
  647MOL0     H87334  10.079  10.057   3.688  0.3093  0.6003 -0.6482
  647MOL0     H87335  10.149   9.855   3.470  0.6264 -2.8106  0.8335
  647MOL0     H87336  10.107   9.814   3.628 -2.9113  0.8003 -0.1957
  647MOL0     H87337  10.331   9.904   3.694 -2.5067  0.7317  1.3855
  647MOL0     H87338  10.310  10.035   3.572 -1.2917  0.8359  2.4476
  647MOL0     H87339  10.355   9.863   3.391  0.9593 -0.0104 -0.2928
  647MOL0     H87340  10.490   9.873   3.495 -0.3794  0.4413  2.1876
  647MOL0     H87341  10.303   9.488   3.576  0.6665 -0.2490  0.3080
  647MOL0     H87342  10.260  10.204   3.363  3.5616  2.9326 -0.3827
  647MOL0     H87343  10.447  10.494   3.357 -0.4270 -0.7045  2.5667
  647MOL0     H87344  10.385  10.356   3.274 -1.3108 -0.9715  1.2738
  647MOL0     H87345  10.316  10.508   3.239 -0.1944 -2.2206 -1.0258
  648MOL0     O87346   5.386   4.063   9.005  0.1549 -0.7232  0.8727
  648MOL0     C87347   5.302   4.073   8.918  1.0650 -0.8287  0.2196
  648MOL0     O87348   5.319   4.138   8.802 -0.2500 -0.3242 -0.1416
  648MOL0     C87349   5.449   4.150   8.751  0.5265 -0.2981 -0.3045
  648MOL0     C87350   5.547   4.048   8.751  0.5448 -0.1522 -0.0246
  648MOL0     C87351   5.668   4.056   8.687  1.0493 -0.6662 -0.0558
  648MOL0     C87352   5.697   4.173   8.626 -0.3570  1.1117  0.0976
  648MOL0     O87353   5.800   4.170   8.542 -0.2965  0.1224 -0.0169
  648MOL0     C87354   5.793   4.213   8.406  0.1125  0.1615 -0.1623
  648MOL0     C87355   5.812   4.362   8.382 -0.2618 -0.5094 -0.4959
  648MOL0     C87356   5.942   4.410   8.453  0.8307 -0.3065  0.0790
  648MOL0     C87357   5.979   4.551   8.392  0.1721  0.0347  0.2736
  648MOL0     C87358   6.076   4.619   8.478 -0.1469  0.3198  0.9865
  648MOL0     C87359   6.167   4.720   8.394 -0.7803 -0.1574  0.1186
  648MOL0     C87360   6.273   4.646   8.304 -1.0969 -1.5506 -0.8190
  648MOL0     C87361   6.361   4.759   8.245  0.2353  0.2306 -0.5265
  648MOL0     N87362   6.482   4.705   8.192 -0.1188 -0.2740 -0.5749
  648MOL0     C87363   6.586   4.652   8.258 -0.4648  0.3974  0.6697
  648MOL0     C87364   6.675   4.618   8.159 -0.5532  0.2426  0.7669
  648MOL0     C87365   6.805   4.546   8.201  0.2714 -0.5613  0.6942
  648MOL0     C87366   6.915   4.517   8.098  0.1089  0.6834  0.4741
  648MOL0     C87367   6.953   4.636   8.019 -0.1327 -0.5686  0.0463
  648MOL0     C87368   6.961   4.777   8.086  0.1813 -0.4587 -0.3545
  648MOL0     O87369   7.064   4.767   8.189  0.7157 -0.2005 -0.0733
  648MOL0     C87370   7.188   4.729   8.159  0.5016  0.2283  0.4594
  648MOL0     C87371   7.256   4.655   8.258  0.4391 -0.5362 -0.2964
  648MOL0     C87372   7.388   4.613   8.241  1.0207 -0.7563  0.9242
  648MOL0     C87373   7.459   4.652   8.126 -0.2019  0.8889 -0.0509
  648MOL0     C87374   7.598   4.611   8.109 -0.5500  0.1167 -0.1014
  648MOL0     O87375   7.635   4.590   7.980 -0.6026  0.1078 -0.3542
  648MOL0     C87376   7.769   4.558   7.961  0.2727 -0.5979 -0.3553
  648MOL0     C87377   7.797   4.429   7.921 -0.0337 -0.4307  0.6290
  648MOL0     C87378   7.934   4.389   7.907  0.2694 -0.9478  0.5107
  648MOL0     C87379   8.034   4.488   7.932  0.7136 -0.8410 -0.2545
  648MOL0     O87380   8.170   4.444   7.914  0.4325 -0.3947 -0.5842
  648MOL0     C87381   8.237   4.504   7.804  0.4338  0.4898  0.0446
  648MOL0     C87382   8.384   4.475   7.819  0.4343  0.4499 -0.1513
  648MOL0     C87383   8.417   4.339   7.781  0.1158  1.2255  0.4900
  648MOL0     C87384   8.573   4.327   7.777 -0.1557  0.1678  0.0293
  648MOL0     C87385   8.618   4.194   7.727 -0.2462 -0.1134  0.9465
  648MOL0     C87386   8.579   4.177   7.583 -0.3525  1.2497  0.2411
  648MOL0     C87387   8.677   4.078   7.512  0.1960 -0.8599 -0.3058
  648MOL0     C87388   8.675   3.944   7.573 -0.0065  0.0544  0.2712
  648MOL0    Cl87389   8.526   3.853   7.552  0.1486  0.1708 -0.0864
  648MOL0     C87390   8.001   4.618   7.971 -0.2670 -0.1165 -0.2014
  648MOL0     C87391   7.869   4.654   7.980 -1.0617  0.8332 -0.0181
  648MOL0     O87392   7.668   4.602   8.212 -0.1487  0.0347 -0.0178
  648MOL0     C87393   7.393   4.723   8.026 -0.8195  0.4123  0.3902
  648MOL0     C87394   7.260   4.764   8.044 -0.5245 -0.0822 -0.0825
  648MOL0     N87395   6.627   4.669   8.040 -0.1167  0.1244  0.4328
  648MOL0     N87396   6.513   4.724   8.057  0.7363  0.5197  0.1007
  648MOL0     C87397   5.610   4.279   8.633  0.2095  0.1789 -0.9215
  648MOL0     C87398   5.485   4.275   8.701  0.5502  1.3058  0.3614
  648MOL0     C87399   5.170   3.999   8.925 -0.4409 -0.8936 -0.2386
  648MOL0     C87400   5.086   3.991   8.811  1.0732 -0.5162 -0.1380
  648MOL0     C87401   4.964   3.920   8.808  0.8044 -0.3898  0.5610
  648MOL0     C87402   4.915   3.851   8.919 -0.4291 -0.4262  0.7846
  648MOL0     O87403   4.792   3.801   8.898 -0.1645  0.4222  0.3765
  648MOL0     C87404   4.735   3.702   8.997 -0.5046 -0.7312  0.0301
  648MOL0     C87405   4.600   3.648   8.955 -0.3591 -0.1610 -0.6976
  648MOL0     C87406   4.604   3.589   8.814 -0.6385 -0.4382 -0.2142
  648MOL0     C87407   4.474   3.622   8.741  0.3236 -0.1763 -0.4095
  648MOL0     C87408   4.480   3.634   8.595  0.2908  0.8636 -0.4925
  648MOL0     C87409   4.479   3.632   8.478  0.1314  0.7180  1.3177
  648MOL0     C87410   4.999   3.859   9.039  0.2993  0.6340  0.0936
  648MOL0     C87411   5.116   3.933   9.044 -0.1468 -0.5731  0.0806
  648MOL0     C87412   5.184   3.943   9.176  1.1470  0.7200  0.4282
  648MOL0     H87413   5.531   3.960   8.813  0.1449 -1.7897 -2.3213
  648MOL0     H87414   5.732   3.969   8.696 -0.8420 -2.3792 -1.9195
  648MOL0     H87415   5.873   4.155   8.358  0.5725  0.2531  0.4676
  648MOL0     H87416   5.695   4.190   8.363 -0.1814  2.6235 -0.9708
  648MOL0     H87417   5.730   4.430   8.409  0.0669  0.2053 -1.2493
  648MOL0     H87418   5.824   4.376   8.275 -1.8741  1.0101 -0.5287
  648MOL0     H87419   6.023   4.341   8.426  1.0636  0.3319 -0.9076
  648MOL0     H87420   5.917   4.421   8.558 -1.4529 -0.0826 -0.4406
  648MOL0     H87421   6.024   4.528   8.295  0.6948  0.8334  0.3189
  648MOL0     H87422   5.894   4.617   8.372 -0.2946 -0.6633 -0.0838
  648MOL0     H87423   6.035   4.666   8.568 -1.7495 -1.1656  1.0992
  648MOL0     H87424   6.137   4.535   8.512 -3.1861 -1.6759  1.9020
  648MOL0     H87425   6.103   4.784   8.332 -1.1115 -0.6016 -0.0016
  648MOL0     H87426   6.227   4.778   8.464  0.4066  0.8912 -1.6851
  648MOL0     H87427   6.221   4.599   8.221  2.1114 -2.5292 -2.4644
  648MOL0     H87428   6.336   4.568   8.350 -1.3063 -1.2279  0.0417
  648MOL0     H87429   6.298   4.793   8.162 -1.1834  0.0216  0.4165
  648MOL0     H87430   6.389   4.847   8.304  1.6788 -1.2465  1.0760
  648MOL0     H87431   6.604   4.637   8.364 -0.8336  0.0760  0.6879
  648MOL0     H87432   6.850   4.613   8.276 -2.2017  0.1917  1.5872
  648MOL0     H87433   6.785   4.452   8.253  0.2796 -0.9837 -0.0540
  648MOL0     H87434   6.995   4.464   8.149 -1.9821 -1.0751  2.1491
  648MOL0     H87435   6.871   4.450   8.023  2.8442  0.4440 -1.0477
  648MOL0     H87436   6.880   4.642   7.937  2.2667 -1.9688 -2.3755
  648MOL0     H87437   7.043   4.619   7.958  0.0076  0.4969 -0.0599
  648MOL0     H87438   6.863   4.804   8.127  0.3152 -1.6210  0.8125
  648MOL0     H87439   6.983   4.858   8.016 -1.5984  0.3575 -0.0206
  648MOL0     H87440   7.199   4.618   8.342  2.4194 -2.0103  0.4911
  648MOL0     H87441   7.433   4.551   8.317 -0.4218 -0.1907  2.2777
  648MOL0     H87442   7.722   4.351   7.920  1.6148 -2.1087  0.1125
  648MOL0     H87443   7.963   4.290   7.873 -1.9037 -1.2209 -0.7129
  648MOL0     H87444   8.203   4.453   7.713 -0.5383 -0.9105  1.1575
  648MOL0     H87445   8.221   4.612   7.794  1.6818  0.8954  2.0576
  648MOL0     H87446   8.441   4.550   7.764  2.1854  1.2819  2.5613
  648MOL0     H87447   8.399   4.485   7.927 -3.1609  2.6433  0.3251
  648MOL0     H87448   8.364   4.264   7.840  0.6390 -0.8638 -1.5296
  648MOL0     H87449   8.390   4.329   7.676  0.7647  2.1709  0.2197
  648MOL0     H87450   8.609   4.351   7.877  0.3300  0.3414 -0.1842
  648MOL0     H87451   8.617   4.408   7.719 -0.6199  0.7888  0.5418
  648MOL0     H87452   8.568   4.115   7.786 -2.8527  0.4288 -0.3895
  648MOL0     H87453   8.727   4.192   7.736 -0.2849 -2.2385  1.6645
  648MOL0     H87454   8.481   4.133   7.564  1.1616 -1.4193 -2.1625
  648MOL0     H87455   8.597   4.268   7.525 -0.5163  0.3708 -1.2453
  648MOL0     H87456   8.779   4.116   7.522 -0.4355  0.8043  0.1033
  648MOL0     H87457   8.651   4.062   7.407  1.3988 -3.0409 -0.3305
  648MOL0     H87458   8.761   3.889   7.532 -0.0072 -0.0883  0.4545
  648MOL0     H87459   8.698   3.949   7.680  1.9313  0.6662 -0.1264
  648MOL0     H87460   8.071   4.693   8.007 -1.8598  0.1303  2.7585
  648MOL0     H87461   7.842   4.753   8.015 -2.2033  0.0872  1.3004
  648MOL0     H87462   7.436   4.764   7.936 -0.8810 -0.3352  0.0103
  648MOL0     H87463   7.217   4.828   7.967 -0.9538  1.0528  1.0498
  648MOL0     H87464   5.637   4.373   8.585  0.8237  1.0503  1.0191
  648MOL0     H87465   5.417   4.359   8.692 -0.1756  0.5962 -0.9806
  648MOL0     H87466   5.121   4.047   8.725  1.2159 -0.6553 -0.1723
  648MOL0     H87467   4.907   3.917   8.715 -0.1731  1.6888  1.0283
  648MOL0     H87468   4.726   3.749   9.095 -0.1494  0.5751 -0.5421
  648MOL0     H87469   4.811   3.624   8.995  0.2511 -0.0243  0.6896
  648MOL0     H87470   4.523   3.725   8.970 -0.3991 -0.0609 -1.3833
  648MOL0     H87471   4.586   3.563   9.023 -3.7509 -0.9100 -2.1520
  648MOL0     H87472   4.615   3.481   8.830  1.1364 -0.3790 -0.7311
  648MOL0     H87473   4.691   3.624   8.758 -0.7021  0.9928  0.5514
  648MOL0     H87474   4.407   3.537   8.761 -1.9267  1.2042 -1.6406
  648MOL0     H87475   4.420   3.715   8.760 -2.4918 -1.8059  0.3292
  648MOL0     H87476   4.482   3.635   8.371  2.3246 -3.1319  1.1181
  648MOL0     H87477   4.967   3.801   9.126  2.7467  3.6008  3.2163
  648MOL0     H87478   5.140   3.883   9.256 -0.5596  1.2765 -0.0584
  648MOL0     H87479   5.287   3.909   9.159  0.8785  0.8049 -1.5105
  648MOL0     H87480   5.184   4.047   9.209 -0.9265  0.3738  1.7097
  649MOL0     O87481   0.054   5.352   0.157 -0.6382 -1.1921 -0.5528
  649MOL0     C87482   0.021   5.296   0.052 -0.5468 -1.0652 -0.6391
  649MOL0     O87483   0.099   5.214  -0.018  0.0815 -1.0043  0.4572
  649MOL0     C87484   0.219   5.172   0.038 -0.6909  0.0848 -0.0541
  649MOL0     C87485   0.221   5.051   0.105  0.0095  0.2049 -0.0747
  649MOL0     C87486   0.334   5.009   0.182 -0.0676 -0.0744 -0.6816
  649MOL0     C87487   0.451   5.091   0.182  0.2715  0.4090  0.7292
  649MOL0     O87488   0.565   5.042   0.243 -0.0120  0.7231 -0.2976
  649MOL0     C87489   0.674   5.121   0.279  1.0333  0.0584 -0.8278
  649MOL0     C87490   0.758   5.021   0.356 -0.9824  0.0744  0.7346
  649MOL0     C87491   0.903   5.084   0.378  0.8580  0.5319 -0.1909
  649MOL0     C87492   1.000   4.985   0.453  0.1970 -0.3859 -0.0968
  649MOL0     C87493   1.149   5.015   0.433 -0.6806  0.6090 -0.9365
  649MOL0     C87494   1.226   4.919   0.527 -0.4131 -0.0880  0.4607
  649MOL0     C87495   1.378   4.931   0.500  0.6283 -0.2278  1.1258
  649MOL0     C87496   1.454   4.831   0.585  0.2693 -0.3136 -0.9441
  649MOL0     N87497   1.597   4.856   0.577 -0.2370 -0.3920  0.7198
  649MOL0     C87498   1.671   4.956   0.641  0.2905 -1.0483  0.6816
  649MOL0     C87499   1.784   4.945   0.563  1.0364 -0.7126  0.3142
  649MOL0     C87500   1.898   5.033   0.585  0.3877  0.5751 -0.1412
  649MOL0     C87501   1.996   4.954   0.684 -0.4519 -0.1707  0.3929
  649MOL0     C87502   2.141   4.971   0.640  0.4135 -0.5252  0.3638
  649MOL0     C87503   2.239   4.959   0.751  0.2338  0.6845 -0.6955
  649MOL0     O87504   2.367   4.974   0.699 -0.9706  0.3480  0.9872
  649MOL0     C87505   2.478   5.002   0.783  0.4394  0.4503  0.2485
  649MOL0     C87506   2.484   5.006   0.921 -0.4364  0.1004  1.4728
  649MOL0     C87507   2.604   5.049   0.973 -0.4125 -0.2004 -0.7298
  649MOL0     C87508   2.722   5.081   0.898 -0.6274  0.9795  0.8705
  649MOL0     C87509   2.843   5.128   0.972 -0.0034 -0.1752  0.5616
  649MOL0     O87510   2.949   5.165   0.895  0.2961  0.4097  0.1211
  649MOL0     C87511   3.063   5.228   0.931  0.1946 -1.0169  0.2841
  649MOL0     C87512   3.141   5.186   1.038  0.0122  0.3688 -0.6520
  649MOL0     C87513   3.262   5.257   1.076  0.4533 -0.2554  0.7125
  649MOL0     C87514   3.318   5.358   1.005  0.3000  0.0140  0.5240
  649MOL0     O87515   3.437   5.424   1.031  0.0615 -0.1764  0.0844
  649MOL0     C87516   3.521   5.452   0.920  0.3863  0.3805  0.1436
  649MOL0     C87517   3.636   5.534   0.956 -0.1569 -0.7775 -0.0528
  649MOL0     C87518   3.574   5.647   1.054 -0.4684  0.9360 -0.0735
  649MOL0     C87519   3.680   5.764   1.077  1.1080 -0.4829 -0.2820
  649MOL0     C87520   3.620   5.884   1.156 -0.3011  0.0977  0.7014
  649MOL0     C87521   3.729   5.975   1.195 -1.2216  0.3915 -1.3885
  649MOL0     C87522   3.672   6.080   1.294 -0.5412 -0.0969 -0.0609
  649MOL0     C87523   3.766   6.207   1.303  0.2864 -0.3587  0.1694
  649MOL0    Cl87524   3.933   6.171   1.366  0.3579  0.2504  0.1856
  649MOL0     C87525   3.243   5.397   0.892  0.4595 -0.5553 -0.4068
  649MOL0     C87526   3.117   5.336   0.854 -0.1660 -0.6523  0.3246
  649MOL0     O87527   2.849   5.130   1.098  0.8304  0.4470 -0.2644
  649MOL0     C87528   2.709   5.065   0.761  0.3572  0.0042  0.1063
  649MOL0     C87529   2.591   5.022   0.704 -0.0208 -0.2680 -0.6108
  649MOL0     N87530   1.790   4.835   0.483  0.6376  0.2528 -0.2356
  649MOL0     N87531   1.673   4.790   0.486 -0.1684  0.6791  0.6578
  649MOL0     C87532   0.443   5.218   0.124  0.2119 -0.2347  0.8842
  649MOL0     C87533   0.325   5.262   0.055  0.4182  0.4604  0.7707
  649MOL0     C87534  -0.117   5.325   0.005  0.4236 -0.3356  0.5259
  649MOL0     C87535  -0.213   5.402   0.087  0.1414 -0.2818  0.1676
  649MOL0     C87536  -0.340   5.441   0.044  0.4419  0.4535  0.1525
  649MOL0     C87537  -0.386   5.393  -0.078 -0.1763 -0.0427  0.5084
  649MOL0     O87538  -0.511   5.403  -0.122 -1.0057 -0.5457 -0.6220
  649MOL0     C87539  -0.610   5.471  -0.044  0.2702 -0.2818 -0.3051
  649MOL0     C87540  -0.749   5.452  -0.096 -0.0754 -0.8496 -0.2420
  649MOL0     C87541  -0.793   5.306  -0.096 -0.4212  1.5275 -0.9146
  649MOL0     C87542  -0.931   5.304  -0.160  0.3734 -0.8812  0.9534
  649MOL0     C87543  -1.032   5.368  -0.073  1.2167  0.2806  0.1101
  649MOL0     C87544  -1.123   5.414  -0.012  1.1449  0.5771  0.0909
  649MOL0     C87545  -0.299   5.315  -0.157 -0.3049  0.1529  0.1713
  649MOL0     C87546  -0.166   5.283  -0.118  0.0936  0.0702 -0.5943
  649MOL0     C87547  -0.083   5.204  -0.217  1.3660  0.2477 -0.0044
  649MOL0     H87548   0.130   4.991   0.101  1.1203 -1.5821  0.1460
  649MOL0     H87549   0.340   4.923   0.248  0.1612  1.6941  1.7557
  649MOL0     H87550   0.730   5.159   0.192 -0.5567  2.6046 -0.8646
  649MOL0     H87551   0.643   5.212   0.332  1.5686  2.3999 -4.1599
  649MOL0     H87552   0.773   4.935   0.291 -1.2563  0.3536  0.2952
  649MOL0     H87553   0.713   5.000   0.453  0.5851 -3.7044  0.8088
  649MOL0     H87554   0.894   5.164   0.451  2.9845  1.4915 -0.8877
  649MOL0     H87555   0.930   5.121   0.279 -0.3111  1.4220 -0.1950
  649MOL0     H87556   0.986   4.987   0.562  0.2586 -1.1488 -0.0645
  649MOL0     H87557   0.983   4.882   0.420  2.0991 -1.4136  1.8270
  649MOL0     H87558   1.183   5.002   0.330  0.4711  0.5965 -0.5692
  649MOL0     H87559   1.163   5.119   0.465  0.6525  0.0234  0.5732
  649MOL0     H87560   1.218   4.954   0.630  3.2534  2.4101  0.0948
  649MOL0     H87561   1.192   4.816   0.515 -0.1612 -0.2532  1.1144
  649MOL0     H87562   1.409   5.035   0.516  1.2051 -0.1869 -0.1552
  649MOL0     H87563   1.392   4.908   0.394  1.4496 -0.6680  1.3199
  649MOL0     H87564   1.421   4.843   0.689 -0.7368  4.0982 -1.6071
  649MOL0     H87565   1.439   4.725   0.562  1.2108 -0.3321 -1.5403
  649MOL0     H87566   1.643   5.032   0.713  1.3776  0.8844 -0.8063
  649MOL0     H87567   1.944   5.067   0.492  4.1606  1.1547  1.7244
  649MOL0     H87568   1.866   5.124   0.636  1.1227  1.4635 -1.2153
  649MOL0     H87569   1.981   4.999   0.782  1.9400  1.2775  0.1605
  649MOL0     H87570   1.965   4.850   0.699  0.0430 -0.4424 -0.3865
  649MOL0     H87571   2.159   5.067   0.592  0.1258 -1.6702 -2.1761
  649MOL0     H87572   2.161   4.886   0.574 -0.3378 -1.7870  1.6873
  649MOL0     H87573   2.245   4.859   0.794  2.6124  0.9478 -0.2749
  649MOL0     H87574   2.222   5.036   0.827  0.0743  3.6427 -3.4860
  649MOL0     H87575   2.389   4.990   0.970 -1.5902  0.1659 -0.6450
  649MOL0     H87576   2.606   5.057   1.082  1.9576 -0.2286 -0.7116
  649MOL0     H87577   3.110   5.120   1.118 -2.4050  0.6891 -1.2352
  649MOL0     H87578   3.319   5.235   1.166  0.3579 -1.2761  0.5374
  649MOL0     H87579   3.547   5.356   0.874  0.2964  0.7012 -0.5878
  649MOL0     H87580   3.461   5.508   0.848 -1.8494 -1.5913  0.3590
  649MOL0     H87581   3.698   5.462   1.009 -2.1142 -1.3778  1.5386
  649MOL0     H87582   3.683   5.575   0.866 -2.3968  0.7898 -0.5859
  649MOL0     H87583   3.489   5.689   0.999  0.3776  3.3632  0.3573
  649MOL0     H87584   3.540   5.614   1.152 -3.4105  3.2966 -0.1663
  649MOL0     H87585   3.701   5.795   0.974 -0.4624 -1.6412 -0.9990
  649MOL0     H87586   3.773   5.736   1.126 -0.1920 -3.6050  0.6313
  649MOL0     H87587   3.576   5.845   1.248  2.1883  0.9253  2.3298
  649MOL0     H87588   3.541   5.930   1.095 -0.3063 -0.3210  0.3850
  649MOL0     H87589   3.809   5.920   1.247 -3.2716 -1.8232 -0.4085
  649MOL0     H87590   3.772   6.025   1.108 -0.1704 -1.3637 -1.9292
  649MOL0     H87591   3.666   6.026   1.389  1.0509  0.4273  0.3628
  649MOL0     H87592   3.574   6.112   1.256 -0.2733  0.9474  0.1104
  649MOL0     H87593   3.774   6.241   1.200 -1.8987 -4.6418 -1.6469
  649MOL0     H87594   3.730   6.290   1.365  0.7300 -0.0112 -0.0275
  649MOL0     H87595   3.270   5.481   0.828 -0.8197 -0.1938 -0.4945
  649MOL0     H87596   3.071   5.371   0.762  0.1497  2.6238  1.2567
  649MOL0     H87597   2.798   5.072   0.699 -0.2347  1.5045 -0.6148
  649MOL0     H87598   2.595   5.013   0.596  0.6842  0.2446 -0.6389
  649MOL0     H87599   0.518   5.294   0.140  0.2104 -0.5422  2.5431
  649MOL0     H87600   0.325   5.367   0.027  4.1715  1.3388  3.2040
  649MOL0     H87601  -0.174   5.435   0.183  1.4521 -1.1723 -0.0237
  649MOL0     H87602  -0.400   5.512   0.098 -0.7329  0.3525 -0.9660
  649MOL0     H87603  -0.588   5.578  -0.037 -3.5422  0.7032 -1.2765
  649MOL0     H87604  -0.608   5.434   0.059 -3.1279 -1.3660 -0.5280
  649MOL0     H87605  -0.751   5.503  -0.193 -0.8435  3.6742  1.8748
  649MOL0     H87606  -0.812   5.509  -0.027  0.1655 -2.8545  1.7238
  649MOL0     H87607  -0.803   5.257   0.001 -2.0510  1.1817 -1.2177
  649MOL0     H87608  -0.725   5.248  -0.159 -0.3519  2.4433 -1.7137
  649MOL0     H87609  -0.921   5.356  -0.256  0.3771 -1.3090  0.7197
  649MOL0     H87610  -0.959   5.201  -0.188 -1.3029 -0.3705  0.6350
  649MOL0     H87611  -1.200   5.464   0.044  0.0769 -1.3009  0.3914
  649MOL0     H87612  -0.339   5.276  -0.251  0.7790  0.1034 -0.2869
  649MOL0     H87613  -0.135   5.192  -0.312  1.6730 -0.9484 -0.0336
  649MOL0     H87614   0.005   5.268  -0.228 -2.0348  5.4943 -0.3970
  649MOL0     H87615  -0.058   5.105  -0.178  1.3962 -0.0234 -0.7023
  650MOL0     O87616  10.321  10.215   9.009 -0.1660 -0.7328  0.0062
  650MOL0     C87617  10.331  10.212   9.132 -0.4358  1.1635  0.3941
  650MOL0     O87618  10.449  10.239   9.200 -0.4689 -0.0942  0.7933
  650MOL0     C87619  10.583  10.217   9.158  0.3654  0.9670  1.3732
  650MOL0     C87620  10.624  10.164   9.036 -0.0766  0.5210  0.6927
  650MOL0     C87621  10.763  10.156   9.006  0.6927 -0.5905 -0.4735
  650MOL0     C87622  10.866  10.196   9.095  0.1326 -0.2057 -0.4258
  650MOL0     O87623  11.001  10.192   9.055  0.1006 -0.2353  0.2463
  650MOL0     C87624  11.093  10.253   9.148 -0.7989 -0.0330 -0.5888
  650MOL0     C87625  11.234  10.273   9.092 -0.1981  0.5584 -0.6579
  650MOL0     C87626  11.351  10.270   9.204  0.7763  0.1430 -0.4673
  650MOL0     C87627  11.361  10.134   9.273  0.1521  0.5341  0.0451
  650MOL0     C87628  11.490  10.106   9.353 -0.4571  0.3553 -0.9742
  650MOL0     C87629  11.507   9.964   9.410 -0.1314  0.2873 -0.0253
  650MOL0     C87630  11.491   9.957   9.566  1.2903 -1.0324  0.0538
  650MOL0     C87631  11.427   9.832   9.629  0.6757  0.2758 -0.0725
  650MOL0     N87632  11.528   9.728   9.638  0.2053  0.3599 -0.0072
  650MOL0     C87633  11.589   9.661   9.536  0.2692  0.2190 -1.1257
  650MOL0     C87634  11.676   9.580   9.594  0.3989  1.2310 -0.1501
  650MOL0     C87635  11.758   9.477   9.523 -0.1601 -0.0245  0.1493
  650MOL0     C87636  11.896   9.526   9.485  0.4745 -0.3950  0.8829
  650MOL0     C87637  11.978   9.399   9.455 -0.1067  1.0879 -0.3047
  650MOL0     C87638  12.132   9.419   9.453  0.1905 -0.8895 -0.3788
  650MOL0     O87639  12.199   9.302   9.493  0.5620 -0.6651  0.1860
  650MOL0     C87640  12.312   9.313   9.564 -0.6075 -0.1940 -1.1048
  650MOL0     C87641  12.399   9.424   9.547 -0.3579 -0.6334 -0.1706
  650MOL0     C87642  12.530   9.422   9.614 -0.4230  0.1608 -0.2229
  650MOL0     C87643  12.577   9.318   9.691 -1.0021 -0.3502  0.6792
  650MOL0     C87644  12.715   9.314   9.746  0.9437  0.1615 -0.9403
  650MOL0     O87645  12.724   9.229   9.849  1.1901 -0.2086  0.3169
  650MOL0     C87646  12.844   9.227   9.919 -0.0245  0.6361  0.0847
  650MOL0     C87647  12.951   9.166   9.850  0.7466  0.0900 -0.3049
  650MOL0     C87648  13.079   9.153   9.911  0.2005  0.8701 -0.3493
  650MOL0     C87649  13.097   9.203  10.038 -0.4361 -0.0001 -0.3369
  650MOL0     O87650  13.215   9.198  10.107  0.1108 -0.1618 -0.4010
  650MOL0     C87651  13.329   9.151  10.043  0.0299 -0.1591  0.6484
  650MOL0     C87652  13.438   9.183  10.149 -0.2513  0.0306 -0.2378
  650MOL0     C87653  13.563   9.107  10.128  0.0078  0.4268  0.2213
  650MOL0     C87654  13.675   9.147  10.218 -0.0610  0.1015  0.7306
  650MOL0     C87655  13.812   9.113  10.171 -0.0276  1.1653 -0.3090
  650MOL0     C87656  13.902   9.175  10.275 -0.7228  0.0690  1.3100
  650MOL0     C87657  14.044   9.183  10.224  0.4060  0.8827  0.3570
  650MOL0     C87658  14.102   9.045  10.178  0.3089  0.8417 -0.5839
  650MOL0    Cl87659  14.109   8.928  10.316 -0.0495  0.3970  0.6607
  650MOL0     C87660  12.990   9.266  10.102  1.0494 -0.2489 -0.2646
  650MOL0     C87661  12.863   9.282  10.044  0.5941 -0.6674 -0.8306
  650MOL0     O87662  12.798   9.399   9.716  0.2486  0.2184  0.4859
  650MOL0     C87663  12.485   9.217   9.710 -0.1970 -0.9251  0.8028
  650MOL0     C87664  12.358   9.209   9.651 -0.3439  0.0188 -0.5888
  650MOL0     N87665  11.668   9.600   9.737  0.9349  1.0358 -0.0302
  650MOL0     N87666  11.572   9.688   9.759  0.1162 -0.1430 -0.3896
  650MOL0     C87667  10.822  10.255   9.210 -0.6361 -0.2690 -0.1793
  650MOL0     C87668  10.683  10.271   9.243  0.4447 -0.1320  0.8015
  650MOL0     C87669  10.204  10.205   9.201  0.4759  0.1485 -1.1320
  650MOL0     C87670  10.086  10.252   9.134 -0.9929 -1.4312  0.0023
  650MOL0     C87671   9.961  10.264   9.207 -1.2305  0.3967  0.0263
  650MOL0     C87672   9.949  10.220   9.338 -0.5601 -0.3479  0.3927
  650MOL0     O87673   9.840  10.219   9.410  0.3299  0.3822 -0.5444
  650MOL0     C87674   9.715  10.213   9.343 -0.2038  0.7345  0.4173
  650MOL0     C87675   9.609  10.153   9.440  1.0654  0.4861 -0.2210
  650MOL0     C87676   9.475  10.141   9.361 -0.4751 -0.4865 -0.5844
  650MOL0     C87677   9.365  10.095   9.462  0.5581 -0.7416  0.6033
  650MOL0     C87678   9.335   9.955   9.440  0.3345 -0.3262 -0.0753
  650MOL0     C87679   9.309   9.836   9.416  1.3077 -0.1050 -0.8423
  650MOL0     C87680  10.070  10.189   9.406 -0.3112 -0.2086  0.4146
  650MOL0     C87681  10.192  10.175   9.339 -0.6432  1.0880  0.1996
  650MOL0     C87682  10.307  10.111   9.412 -0.0365 -0.3947 -1.0771
  650MOL0     H87683  10.548  10.126   8.968  0.9560 -1.3351  0.5063
  650MOL0     H87684  10.795  10.109   8.913 -0.0773 -1.8571 -0.1269
  650MOL0     H87685  11.054  10.350   9.178 -0.1078  0.1628 -0.2920
  650MOL0     H87686  11.097  10.192   9.239  0.0925  2.2036  0.9620
  650MOL0     H87687  11.241  10.369   9.040  0.3903  0.9018  0.0258
  650MOL0     H87688  11.252  10.194   9.019  1.1584 -0.5455  0.7867
  650MOL0     H87689  11.322  10.344   9.278 -1.3540 -1.0306 -0.0397
  650MOL0     H87690  11.447  10.300   9.161 -0.2233  0.6298 -2.5055
  650MOL0     H87691  11.273  10.112   9.333 -0.3669  3.2062  0.3770
  650MOL0     H87692  11.369  10.058   9.194  0.7434 -1.0008  1.5292
  650MOL0     H87693  11.577  10.132   9.292  0.7926  1.0644  1.0220
  650MOL0     H87694  11.496  10.173   9.440 -0.3571 -1.8198  0.7650
  650MOL0     H87695  11.429   9.901   9.366 -0.2366  0.3292  0.1056
  650MOL0     H87696  11.606   9.927   9.380  0.2097 -0.1264  1.5414
  650MOL0     H87697  11.429  10.044   9.591  0.6399 -1.4487 -0.0614
  650MOL0     H87698  11.585   9.984   9.614  0.9037  0.6248 -0.0521
  650MOL0     H87699  11.409   9.871   9.730 -1.4192 -0.6632 -0.0496
  650MOL0     H87700  11.328   9.799   9.598  1.4208 -1.7184 -0.4513
  650MOL0     H87701  11.567   9.673   9.430 -0.8574  2.7528 -0.6749
  650MOL0     H87702  11.757   9.389   9.589 -0.2793  0.0641  0.2661
  650MOL0     H87703  11.717   9.449   9.426 -3.1272  1.4555  0.8289
  650MOL0     H87704  11.889   9.585   9.393  1.7090 -0.4039  0.7668
  650MOL0     H87705  11.943   9.590   9.560  0.5232  1.6872 -0.8355
  650MOL0     H87706  11.959   9.351   9.358  1.6461 -2.6533  0.9977
  650MOL0     H87707  11.962   9.320   9.529  2.5277 -1.6925 -2.4598
  650MOL0     H87708  12.138   9.501   9.525 -4.4638 -1.5936  1.1699
  650MOL0     H87709  12.159   9.448   9.351  1.2136 -2.9300 -0.7298
  650MOL0     H87710  12.365   9.503   9.481 -1.2088 -0.4295  0.4923
  650MOL0     H87711  12.604   9.498   9.592  0.0083 -0.0684  0.4045
  650MOL0     H87712  12.934   9.118   9.755  0.4306  1.3119 -0.8943
  650MOL0     H87713  13.159   9.102   9.858  2.1048  1.4830  1.8002
  650MOL0     H87714  13.323   9.044  10.021  1.0848  0.0995 -1.1013
  650MOL0     H87715  13.339   9.219   9.957 -1.6655  0.8815  1.2243
  650MOL0     H87716  13.456   9.290  10.144 -0.3364  0.1048  0.7888
  650MOL0     H87717  13.414   9.155  10.252 -1.6783 -1.4454 -0.9188
  650MOL0     H87718  13.548   8.998  10.131 -1.4142  0.4985 -2.0729
  650MOL0     H87719  13.596   9.116  10.024  1.5445 -2.1500  0.3900
  650MOL0     H87720  13.661   9.093  10.312 -0.2981 -2.3471 -0.6412
  650MOL0     H87721  13.666   9.254  10.239  0.2267  0.6825 -1.7584
  650MOL0     H87722  13.840   9.156  10.075  0.9686 -0.3132 -0.7243
  650MOL0     H87723  13.829   9.006  10.155 -1.9378  0.3997  2.1821
  650MOL0     H87724  13.870   9.278  10.294 -0.4937  0.0300  1.9439
  650MOL0     H87725  13.910   9.116  10.367  0.3296 -2.6538 -0.4167
  650MOL0     H87726  14.108   9.240  10.292  1.3201  2.9028 -2.0304
  650MOL0     H87727  14.048   9.243  10.133 -1.6110 -1.3771 -1.3489
  650MOL0     H87728  14.054   9.009  10.087  0.9973 -3.9209  0.7001
  650MOL0     H87729  14.204   9.067  10.144  1.1798 -1.3725  0.4496
  650MOL0     H87730  13.009   9.323  10.193  1.4569  0.3642 -0.7291
  650MOL0     H87731  12.784   9.340  10.090  0.2033  0.0236 -2.3031
  650MOL0     H87732  12.513   9.134   9.775 -0.9174 -0.4453  1.7457
  650MOL0     H87733  12.300   9.118   9.663  0.5907 -0.6194 -0.8098
  650MOL0     H87734  10.886  10.295   9.288 -0.0694 -0.1843 -0.6782
  650MOL0     H87735  10.647  10.318   9.334 -2.1110 -3.3171  1.6322
  650MOL0     H87736  10.092  10.264   9.026 -2.5651 -1.9291 -0.1698
  650MOL0     H87737   9.879  10.317   9.158  0.7883  4.3190  0.4533
  650MOL0     H87738   9.721  10.159   9.248 -0.3004  1.7154 -0.1625
  650MOL0     H87739   9.693  10.317   9.318 -1.5704  0.0186 -1.6531
  650MOL0     H87740   9.585  10.225   9.518 -1.6858  2.0759 -2.3580
  650MOL0     H87741   9.634  10.052   9.473 -0.5648  0.1871  0.1700
  650MOL0     H87742   9.484  10.073   9.275  2.0289  0.8817 -1.5001
  650MOL0     H87743   9.448  10.242   9.330 -0.1573 -0.8084 -2.0122
  650MOL0     H87744   9.398  10.126   9.562 -0.1148  0.4964  0.4537
  650MOL0     H87745   9.278  10.152   9.429  0.7166 -2.8387 -4.3922
  650MOL0     H87746   9.294   9.733   9.388  1.1116 -0.1485 -0.5838
  650MOL0     H87747  10.064  10.151   9.507 -1.4840 -1.2693 -0.0245
  650MOL0     H87748  10.389  10.176   9.446 -0.2632  2.0137 -4.5656
  650MOL0     H87749  10.268  10.061   9.500  0.3611  1.4650  0.2230
  650MOL0     H87750  10.351  10.035   9.347  1.2475 -0.0481 -0.6376
  651MOL0     O87751   0.330   9.533   3.866  0.1246 -0.0111  0.1222
  651MOL0     C87752   0.314   9.441   3.790 -0.1502  0.6228  0.7675
  651MOL0     O87753   0.402   9.340   3.779  0.3191  0.7721 -0.0020
  651MOL0     C87754   0.523   9.351   3.837 -0.4973  0.7219  0.5692
  651MOL0     C87755   0.573   9.242   3.916 -0.1531 -0.2431 -0.6445
  651MOL0     C87756   0.692   9.247   3.976  0.0600  0.2094 -0.6528
  651MOL0     C87757   0.776   9.365   3.968  0.2691  0.2045  0.4053
  651MOL0     O87758   0.891   9.373   4.037  0.3000  0.2827 -0.4285
  651MOL0     C87759   0.986   9.271   4.009  0.3409  0.6597 -0.1918
  651MOL0     C87760   1.067   9.251   4.136  0.1737 -0.0893 -0.7589
  651MOL0     C87761   1.165   9.128   4.120 -0.7452 -0.1684  0.2312
  651MOL0     C87762   1.292   9.169   4.034  0.3205 -0.2764 -0.1135
  651MOL0     C87763   1.369   9.048   3.971  0.1155 -0.1487  0.0315
  651MOL0     C87764   1.511   9.041   4.022  0.7726  0.0367 -0.0564
  651MOL0     C87765   1.587   8.924   3.965  0.9324 -0.3311  0.4822
  651MOL0     C87766   1.702   8.887   4.060 -0.1518 -0.2078  0.7170
  651MOL0     N87767   1.793   8.800   3.989  0.1416  0.2809  0.5024
  651MOL0     C87768   1.899   8.836   3.908 -0.8606  0.2907 -0.0499
  651MOL0     C87769   1.936   8.721   3.847  0.2200 -0.1186 -0.2362
  651MOL0     C87770   2.024   8.710   3.717 -0.0384  0.2403  0.3992
  651MOL0     C87771   2.171   8.692   3.752 -0.0112 -0.3096 -0.1874
  651MOL0     C87772   2.252   8.782   3.663 -0.3303  0.2103 -0.8208
  651MOL0     C87773   2.391   8.729   3.645 -0.4284  0.4277 -0.1590
  651MOL0     O87774   2.451   8.702   3.769 -0.6883  0.4171 -0.0062
  651MOL0     C87775   2.581   8.665   3.784 -1.0009  0.4121  0.0450
  651MOL0     C87776   2.617   8.620   3.908  0.0993 -0.3305 -0.9370
  651MOL0     C87777   2.746   8.580   3.936 -0.5019  0.2799 -0.0775
  651MOL0     C87778   2.841   8.573   3.828  0.8551  0.1366 -0.3024
  651MOL0     C87779   2.986   8.536   3.852 -0.3357  0.8796 -0.9624
  651MOL0     O87780   3.030   8.564   3.979 -0.0021 -0.8953  0.1660
  651MOL0     C87781   3.161   8.558   4.012 -0.3590  1.0554  0.0474
  651MOL0     C87782   3.199   8.521   4.144  1.7226 -0.5944  0.0631
  651MOL0     C87783   3.326   8.552   4.192 -0.5050  0.3694  0.9104
  651MOL0     C87784   3.430   8.594   4.110 -0.2008  0.5166  0.0219
  651MOL0     O87785   3.561   8.612   4.160 -0.2207  0.4240  0.3063
  651MOL0     C87786   3.579   8.657   4.294 -0.8548 -0.3427 -0.5524
  651MOL0     C87787   3.726   8.663   4.331 -0.5012 -0.3187  0.1590
  651MOL0     C87788   3.808   8.772   4.254 -0.4662  1.2273  0.4195
  651MOL0     C87789   3.960   8.758   4.276 -0.1933 -0.2135  0.3056
  651MOL0     C87790   4.033   8.872   4.209 -0.6206  0.6931  1.0826
  651MOL0     C87791   4.025   8.855   4.057  0.0155 -0.6594  0.9322
  651MOL0     C87792   4.117   8.955   3.992 -0.2356 -0.5552  1.0566
  651MOL0     C87793   4.094   9.103   4.033 -0.7589 -0.9606 -0.6555
  651MOL0    Cl87794   3.918   9.135   4.055  0.1915  0.5460  0.3840
  651MOL0     C87795   3.398   8.622   3.976 -0.5137  0.8737 -0.1565
  651MOL0     C87796   3.270   8.594   3.923  0.1364 -0.4013 -0.1525
  651MOL0     O87797   3.054   8.471   3.771  0.5524 -0.7412  0.0172
  651MOL0     C87798   2.798   8.625   3.700 -0.2234 -0.0213 -0.3242
  651MOL0     C87799   2.676   8.670   3.680 -0.1627  0.0349  0.5912
  651MOL0     N87800   1.857   8.619   3.898  0.3463  0.6577  0.1612
  651MOL0     N87801   1.770   8.667   3.980  0.0041  0.0705 -0.4977
  651MOL0     C87802   0.734   9.478   3.888  0.4237  0.2189  0.2581
  651MOL0     C87803   0.616   9.457   3.813  0.0299 -0.3301 -0.0384
  651MOL0     C87804   0.176   9.428   3.728 -0.2520  0.4195 -0.0896
  651MOL0     C87805   0.157   9.317   3.645  0.4934  0.2482 -0.7523
  651MOL0     C87806   0.036   9.297   3.581 -0.6645 -0.4850  0.0580
  651MOL0     C87807  -0.079   9.371   3.624  0.2492  0.6718  0.4698
  651MOL0     O87808  -0.207   9.364   3.577 -0.6331  0.5848 -0.5950
  651MOL0     C87809  -0.240   9.243   3.507 -0.0420 -0.2317  0.1026
  651MOL0     C87810  -0.233   9.120   3.599  0.1550  0.4437 -0.2662
  651MOL0     C87811  -0.292   9.153   3.737  1.0358 -0.1962  0.3345
  651MOL0     C87812  -0.294   9.025   3.815  0.4928  0.1658  0.1872
  651MOL0     C87813  -0.329   9.064   3.955 -0.3593  0.6942  0.8205
  651MOL0     C87814  -0.366   9.105   4.071  0.3596 -0.5636  0.0179
  651MOL0     C87815  -0.063   9.477   3.712 -0.7666  0.3432  0.0513
  651MOL0     C87816   0.069   9.511   3.759  0.6829  0.2003  0.0111
  651MOL0     C87817   0.076   9.643   3.838 -0.4726  0.4441 -0.1508
  651MOL0     H87818   0.509   9.156   3.928 -0.8963  0.2851 -0.7528
  651MOL0     H87819   0.740   9.162   4.024  2.0138  0.9837 -1.1306
  651MOL0     H87820   0.935   9.180   3.978  0.3071  0.8540 -0.7107
  651MOL0     H87821   1.053   9.288   3.924  2.4442 -3.0792  0.5031
  651MOL0     H87822   1.000   9.222   4.217 -0.4706  0.3383 -1.1272
  651MOL0     H87823   1.125   9.339   4.167  0.7885 -0.3777 -1.0627
  651MOL0     H87824   1.122   9.035   4.082  1.0890 -0.2052 -1.9745
  651MOL0     H87825   1.204   9.107   4.220 -1.5905  1.0861  0.8495
  651MOL0     H87826   1.261   9.232   3.951 -1.7061 -2.3426 -1.0657
  651MOL0     H87827   1.355   9.240   4.088 -2.5246  0.4612  2.4771
  651MOL0     H87828   1.327   8.951   3.999 -2.3983  0.3973 -1.6127
  651MOL0     H87829   1.369   9.064   3.863 -0.1501  0.6219  0.1416
  651MOL0     H87830   1.574   9.130   4.007  2.2972 -1.0703 -0.4733
  651MOL0     H87831   1.492   9.028   4.129 -1.7577  2.1955 -0.1422
  651MOL0     H87832   1.626   8.953   3.867 -0.7298  2.3415  0.5045
  651MOL0     H87833   1.514   8.844   3.952 -0.2490  1.1424 -3.1211
  651MOL0     H87834   1.751   8.972   4.109  1.5535  0.3261 -1.7545
  651MOL0     H87835   1.669   8.832   4.149 -1.4227 -2.3980 -0.9894
  651MOL0     H87836   1.939   8.933   3.883 -0.9706 -0.2842 -2.7550
  651MOL0     H87837   1.988   8.617   3.671  1.8743 -0.7882  0.8697
  651MOL0     H87838   1.998   8.799   3.658  0.0561  0.6532  0.9734
  651MOL0     H87839   2.191   8.709   3.858  0.4376  0.5438 -0.4007
  651MOL0     H87840   2.200   8.587   3.738  2.6428  0.4628 -0.9821
  651MOL0     H87841   2.260   8.881   3.709 -1.6070  0.4368 -1.0627
  651MOL0     H87842   2.205   8.787   3.564 -1.0109  0.6933 -0.4804
  651MOL0     H87843   2.445   8.802   3.583 -1.5875  1.8411  0.4549
  651MOL0     H87844   2.379   8.634   3.591  0.0145  0.3287 -0.0873
  651MOL0     H87845   2.547   8.609   3.991 -0.5305  4.3490 -0.5931
  651MOL0     H87846   2.774   8.540   4.032 -1.3467 -0.0018  0.0554
  651MOL0     H87847   3.114   8.490   4.203 -0.6362  0.3414 -2.6550
  651MOL0     H87848   3.346   8.535   4.297  3.4885  4.2666  1.0933
  651MOL0     H87849   3.536   8.756   4.312 -0.0057 -0.2469  1.2197
  651MOL0     H87850   3.541   8.590   4.371  1.1318 -1.1979 -0.2584
  651MOL0     H87851   3.732   8.687   4.437 -0.6097  3.6025 -0.5728
  651MOL0     H87852   3.776   8.568   4.312  1.0593  0.1726  1.5639
  651MOL0     H87853   3.791   8.762   4.146  1.4059  1.9498  0.0008
  651MOL0     H87854   3.775   8.873   4.279  0.9486  2.1884 -1.2824
  651MOL0     H87855   3.990   8.661   4.235  1.4509  0.0297  0.8591
  651MOL0     H87856   3.993   8.756   4.380 -1.9088  0.8371  0.9099
  651MOL0     H87857   4.136   8.863   4.244 -0.0108 -0.6495 -0.8816
  651MOL0     H87858   3.979   8.962   4.241 -3.7751 -0.7567  0.2962
  651MOL0     H87859   4.053   8.754   4.026  0.3247 -0.9418  2.0827
  651MOL0     H87860   3.926   8.886   4.021  0.6020  0.2970  0.0622
  651MOL0     H87861   4.109   8.949   3.883  1.7953  2.2234  0.6478
  651MOL0     H87862   4.221   8.929   4.010 -0.7396 -2.2702  1.6907
  651MOL0     H87863   4.145   9.136   4.125 -0.8960 -2.2177 -0.1039
  651MOL0     H87864   4.134   9.161   3.950  2.0091  0.4954  1.5005
  651MOL0     H87865   3.478   8.649   3.909 -1.3683 -0.6144 -1.8739
  651MOL0     H87866   3.249   8.640   3.826 -0.3123  4.0737  1.8193
  651MOL0     H87867   2.878   8.619   3.627  2.1867 -2.1164  2.2288
  651MOL0     H87868   2.642   8.700   3.581  2.5127  0.4741 -0.2580
  651MOL0     H87869   0.785   9.575   3.887 -4.3583  3.1057  2.6056
  651MOL0     H87870   0.591   9.527   3.734 -0.7206  0.6182  1.0052
  651MOL0     H87871   0.246   9.262   3.618 -0.0972 -1.3119  0.3363
  651MOL0     H87872   0.036   9.224   3.501 -0.7514 -0.2780 -0.1324
  651MOL0     H87873  -0.171   9.231   3.423 -0.2444  1.5801 -0.3701
  651MOL0     H87874  -0.344   9.256   3.477 -0.0846  1.8387  0.9928
  651MOL0     H87875  -0.131   9.082   3.597  0.9682  2.5503 -1.5709
  651MOL0     H87876  -0.293   9.044   3.548  0.8865 -0.1421 -0.2719
  651MOL0     H87877  -0.393   9.194   3.726  1.1165  0.0196  0.3988
  651MOL0     H87878  -0.232   9.229   3.788 -1.5172  1.4778  1.0504
  651MOL0     H87879  -0.374   8.957   3.784 -1.1275  0.7544  2.8214
  651MOL0     H87880  -0.201   8.971   3.799 -0.9713 -1.8400 -2.6266
  651MOL0     H87881  -0.400   9.127   4.170  1.2788 -0.9400  0.4250
  651MOL0     H87882  -0.159   9.525   3.730 -0.9503  0.2361 -0.5911
  651MOL0     H87883   0.171   9.691   3.813 -1.8363  3.6787  0.3959
  651MOL0     H87884  -0.007   9.710   3.811 -1.1416  0.0597  0.8684
  651MOL0     H87885   0.076   9.609   3.942  0.4604  0.6000 -0.0954
  652MOL0     O87886  11.093   5.494   4.754 -0.2049  0.2569  0.2267
  652MOL0     C87887  11.118   5.374   4.769  0.2242 -0.1532 -0.3728
  652MOL0     O87888  11.025   5.274   4.761 -0.3363 -0.3154 -0.1187
  652MOL0     C87889  10.889   5.305   4.744  0.1074 -0.2299  0.0980
  652MOL0     C87890  10.844   5.341   4.618  0.2926  0.3178  0.0199
  652MOL0     C87891  10.708   5.370   4.603  0.0077  1.0692 -0.2646
  652MOL0     C87892  10.614   5.366   4.707 -0.6522  0.2698  0.0461
  652MOL0     O87893  10.485   5.416   4.681  0.5411  0.3008 -0.2234
  652MOL0     C87894  10.424   5.493   4.789 -0.3114  0.4266 -0.4567
  652MOL0     C87895  10.346   5.592   4.707 -0.1526  0.0731  0.5787
  652MOL0     C87896  10.261   5.670   4.803 -0.3377 -0.7308 -0.1345
  652MOL0     C87897  10.208   5.807   4.748  0.0551 -0.2191 -0.5393
  652MOL0     C87898  10.323   5.918   4.769  0.7453 -0.7962  0.4309
  652MOL0     C87899  10.284   6.053   4.712 -0.0026 -0.3329 -0.1811
  652MOL0     C87900  10.400   6.149   4.702 -0.4180  0.6539  0.4140
  652MOL0     C87901  10.338   6.289   4.682 -0.9361 -0.0822 -0.3562
  652MOL0     N87902  10.452   6.383   4.680  0.1021 -0.3032 -0.3471
  652MOL0     C87903  10.493   6.453   4.571  0.4948  0.3232 -0.5049
  652MOL0     C87904  10.587   6.537   4.618  1.1206 -0.3586 -0.7388
  652MOL0     C87905  10.668   6.626   4.533  0.2296 -0.6788  0.9554
  652MOL0     C87906  10.779   6.698   4.601 -0.1794  0.0892 -0.7165
  652MOL0     C87907  10.916   6.719   4.524 -0.5329  0.2292  0.7878
  652MOL0     C87908  10.998   6.593   4.541 -0.6425  0.4207 -0.3958
  652MOL0     O87909  11.075   6.611   4.657 -0.4531 -0.1926 -0.2976
  652MOL0     C87910  11.200   6.671   4.665 -0.3898  0.5039  0.2268
  652MOL0     C87911  11.253   6.682   4.794 -0.5021 -0.2860  0.7271
  652MOL0     C87912  11.383   6.729   4.813 -0.3688 -0.0243  1.3838
  652MOL0     C87913  11.462   6.779   4.710  0.4772 -0.4765 -0.6807
  652MOL0     C87914  11.597   6.820   4.734 -0.4917  0.3961  0.3887
  652MOL0     O87915  11.683   6.764   4.832 -0.1374  0.4558  0.8486
  652MOL0     C87916  11.806   6.819   4.869  0.6472  0.2736 -0.3875
  652MOL0     C87917  11.903   6.872   4.780 -0.3160  0.1334  0.8158
  652MOL0     C87918  12.030   6.923   4.816 -0.1672 -0.1752  0.0252
  652MOL0     C87919  12.065   6.908   4.952 -0.2546 -0.0252  0.0622
  652MOL0     O87920  12.188   6.946   4.996 -0.6706 -0.9645 -0.2970
  652MOL0     C87921  12.304   6.915   4.911 -0.7540 -1.1940  0.3610
  652MOL0     C87922  12.429   6.937   4.990  0.6070  0.1516 -0.0676
  652MOL0     C87923  12.560   6.887   4.934  0.0844 -0.1822  0.1643
  652MOL0     C87924  12.666   6.888   5.047  0.5142 -0.3109 -1.1686
  652MOL0     C87925  12.806   6.908   4.995  0.5470 -0.5847 -0.2814
  652MOL0     C87926  12.909   6.881   5.105  0.7437 -0.8492  0.0017
  652MOL0     C87927  13.049   6.938   5.083 -0.1627  0.3165  1.0935
  652MOL0     C87928  13.112   6.878   4.958 -0.3228 -0.2005 -0.0456
  652MOL0    Cl87929  13.267   6.973   4.975 -0.0518  0.0384  0.3038
  652MOL0     C87930  11.968   6.861   5.044  0.5416  0.3387  1.3223
  652MOL0     C87931  11.843   6.814   5.003 -0.0366  0.1899 -0.1643
  652MOL0     O87932  11.630   6.907   4.653 -0.2552 -0.1052 -0.4989
  652MOL0     C87933  11.411   6.764   4.583  0.7684  0.7273 -0.1868
  652MOL0     C87934  11.284   6.702   4.558 -0.6311  0.4806 -0.2258
  652MOL0     N87935  10.607   6.505   4.754 -0.6575  0.6940  0.7772
  652MOL0     N87936  10.521   6.412   4.794  0.0145  0.2325  0.2164
  652MOL0     C87937  10.662   5.321   4.833  0.5049 -0.2549  0.6279
  652MOL0     C87938  10.801   5.294   4.851 -0.6639 -0.1203 -0.5250
  652MOL0     C87939  11.261   5.336   4.793 -0.4272  0.6042 -0.6411
  652MOL0     C87940  11.285   5.194   4.794 -0.7910 -0.5876 -1.4360
  652MOL0     C87941  11.416   5.146   4.802  0.6002 -0.0624  0.1046
  652MOL0     C87942  11.527   5.237   4.811  0.2676 -0.1674  0.2780
  652MOL0     O87943  11.664   5.201   4.818  0.1338  0.3909  0.8714
  652MOL0     C87944  11.699   5.064   4.800  0.3492 -0.0921 -0.2133
  652MOL0     C87945  11.846   5.014   4.836  0.0236  0.3113  0.5871
  652MOL0     C87946  11.964   5.085   4.768  0.5448  0.3049  0.9295
  652MOL0     C87947  12.095   5.020   4.822 -0.8622 -0.1105  0.3170
  652MOL0     C87948  12.206   5.113   4.802 -0.4108  0.4283  0.6363
  652MOL0     C87949  12.302   5.187   4.780  0.1473 -0.2914  0.0038
  652MOL0     C87950  11.498   5.377   4.814  0.1307 -0.0609 -0.3051
  652MOL0     C87951  11.371   5.427   4.802 -0.3401  0.1699  0.8265
  652MOL0     C87952  11.367   5.590   4.791 -0.2446 -0.3672 -0.2592
  652MOL0     H87953  10.903   5.338   4.527 -0.8063  0.5438 -0.7181
  652MOL0     H87954  10.668   5.393   4.505 -0.5196 -1.7703 -0.8119
  652MOL0     H87955  10.372   5.436   4.866  2.8223 -1.0875  0.6946
  652MOL0     H87956  10.499   5.551   4.844 -0.4184  1.0449 -0.9459
  652MOL0     H87957  10.287   5.539   4.631 -1.3079 -1.3799  2.4005
  652MOL0     H87958  10.416   5.662   4.662 -0.5514  1.2675  1.7374
  652MOL0     H87959  10.324   5.687   4.890 -0.7149  2.4705 -0.3681
  652MOL0     H87960  10.169   5.617   4.830 -1.8637  1.7301 -0.0894
  652MOL0     H87961  10.178   5.807   4.643 -2.5961  1.5714  0.1199
  652MOL0     H87962  10.120   5.836   4.806  1.1737  3.7308 -0.4918
  652MOL0     H87963  10.348   5.922   4.875  1.1020 -0.8202  0.3498
  652MOL0     H87964  10.408   5.881   4.711  1.8027  0.6794  0.9689
  652MOL0     H87965  10.231   6.022   4.622 -1.9099 -1.7870  1.3342
  652MOL0     H87966  10.208   6.092   4.781  0.0445 -2.8489  1.4407
  652MOL0     H87967  10.449   6.112   4.611  2.9537  2.6758  1.2065
  652MOL0     H87968  10.464   6.145   4.791  0.1324  0.8704  0.0385
  652MOL0     H87969  10.292   6.289   4.583  0.2683 -0.7023 -0.9529
  652MOL0     H87970  10.275   6.312   4.768  1.5504  0.3998  1.4538
  652MOL0     H87971  10.456   6.434   4.471  4.8084 -1.0527 -2.0817
  652MOL0     H87972  10.711   6.564   4.454  0.4683 -0.7588  1.1472
  652MOL0     H87973  10.595   6.696   4.492 -0.9511 -0.9179  2.5564
  652MOL0     H87974  10.744   6.799   4.626  3.1186  0.9551  0.9682
  652MOL0     H87975  10.809   6.661   4.700 -0.4879 -1.3298 -1.1309
  652MOL0     H87976  10.962   6.811   4.561 -2.6159  1.5581  0.2848
  652MOL0     H87977  10.894   6.729   4.417 -1.9093 -4.3413  0.4365
  652MOL0     H87978  11.071   6.577   4.461  0.6214  0.7324  0.6553
  652MOL0     H87979  10.946   6.498   4.557  1.6707 -0.7215  0.8091
  652MOL0     H87980  11.192   6.650   4.878 -0.5531 -0.0397  0.7859
  652MOL0     H87981  11.427   6.732   4.912  0.9944 -3.8923  1.0860
  652MOL0     H87982  11.875   6.883   4.676 -1.6252 -1.0143  1.0038
  652MOL0     H87983  12.094   6.956   4.735 -1.5378 -1.3196 -1.6141
  652MOL0     H87984  12.315   6.814   4.871  2.1041 -1.4294  1.4807
  652MOL0     H87985  12.294   6.992   4.834  0.4037 -1.1281  0.2612
  652MOL0     H87986  12.438   7.042   5.019  2.5541 -0.6534  2.6618
  652MOL0     H87987  12.409   6.880   5.082 -1.0854  0.7537 -0.0264
  652MOL0     H87988  12.549   6.789   4.885 -0.2602  0.3856 -0.9265
  652MOL0     H87989  12.593   6.954   4.854 -0.5313 -2.1756 -1.8617
  652MOL0     H87990  12.652   6.797   5.107 -0.4947  0.3713 -0.3251
  652MOL0     H87991  12.643   6.962   5.124 -1.2674 -1.5704 -0.4292
  652MOL0     H87992  12.816   7.011   4.960 -0.2723 -0.9207 -1.5563
  652MOL0     H87993  12.831   6.853   4.904 -0.7806 -0.3306 -0.8269
  652MOL0     H87994  12.883   6.930   5.199  2.0320  0.9100 -0.5184
  652MOL0     H87995  12.918   6.773   5.119 -1.7555 -1.3076 -1.2224
  652MOL0     H87996  13.102   6.912   5.175  2.1497 -0.1949 -0.3328
  652MOL0     H87997  13.038   7.047   5.074 -0.2554  0.4682  2.7765
  652MOL0     H87998  13.141   6.773   4.969  2.8598  0.7950  2.5937
  652MOL0     H87999  13.059   6.894   4.864 -1.9731 -1.9915  0.5130
  652MOL0     H88000  12.002   6.824   5.140 -0.1634 -0.5959  1.2245
  652MOL0     H88001  11.761   6.790   5.070  0.3169 -2.0569 -0.4633
  652MOL0     H88002  11.463   6.788   4.490 -1.8418 -0.3847 -2.0755
  652MOL0     H88003  11.255   6.690   4.455  1.9262 -3.2936 -0.6834
  652MOL0     H88004  10.599   5.333   4.920  0.4718  2.0076  0.3620
  652MOL0     H88005  10.834   5.260   4.949 -1.1612 -1.7063 -0.8856
  652MOL0     H88006  11.199   5.127   4.789 -0.8058 -0.6161 -0.8558
  652MOL0     H88007  11.433   5.040   4.812  2.9244  0.1650 -0.7787
  652MOL0     H88008  11.698   5.047   4.692  2.5654  2.0258 -0.6736
  652MOL0     H88009  11.619   5.010   4.851 -0.5409  1.2642 -0.0952
  652MOL0     H88010  11.851   4.905   4.828 -3.1374  0.1230 -0.6980
  652MOL0     H88011  11.870   5.043   4.938  4.4302 -0.5741  0.0018
  652MOL0     H88012  11.978   5.191   4.795  4.2973  0.1138  0.2963
  652MOL0     H88013  11.943   5.079   4.661 -1.3510  1.9750  1.1421
  652MOL0     H88014  12.093   5.009   4.931  2.7786  4.1657  1.1095
  652MOL0     H88015  12.120   4.925   4.774  0.7625  1.2767 -1.7256
  652MOL0     H88016  12.395   5.240   4.768 -0.7103  1.6464  1.3922
  652MOL0     H88017  11.584   5.440   4.795  0.4966  0.0424  1.5656
  652MOL0     H88018  11.312   5.613   4.700  1.8121 -0.8664 -1.6956
  652MOL0     H88019  11.309   5.631   4.875  0.7268 -1.8089  1.1862
  652MOL0     H88020  11.466   5.636   4.787 -0.7549  0.6423 -2.4045
  653MOL0     O88021   4.551   8.657   1.677  0.0816 -0.5775  0.2984
  653MOL0     C88022   4.459   8.740   1.655 -0.6501  0.9261 -0.3398
  653MOL0     O88023   4.473   8.857   1.612 -0.0372 -0.2559  0.2970
  653MOL0     C88024   4.593   8.923   1.583  0.2677  0.6919 -0.4687
  653MOL0     C88025   4.710   8.897   1.657  0.3273 -0.0688  0.0664
  653MOL0     C88026   4.821   8.979   1.628  0.5670 -0.0299 -0.1022
  653MOL0     C88027   4.830   9.064   1.519  0.3032  0.1188 -0.0069
  653MOL0     O88028   4.952   9.123   1.494  0.0283  0.0575 -0.7187
  653MOL0     C88029   4.971   9.213   1.382 -0.0454  0.2541 -1.0220
  653MOL0     C88030   5.003   9.116   1.262 -0.5421 -1.2290  0.9918
  653MOL0     C88031   5.035   9.188   1.125 -0.5667 -0.4744  0.0961
  653MOL0     C88032   5.151   9.290   1.137  1.0786 -0.1630  1.1046
  653MOL0     C88033   5.184   9.336   0.994 -0.0239 -0.7902  0.7198
  653MOL0     C88034   5.304   9.283   0.920  0.2576 -0.3506 -0.0051
  653MOL0     C88035   5.438   9.312   0.993 -0.2945  0.3995  0.5246
  653MOL0     C88036   5.503   9.453   0.964  0.2556  0.3425  0.0786
  653MOL0     N88037   5.550   9.474   0.828  0.4825 -0.5113  0.1678
  653MOL0     C88038   5.490   9.567   0.741 -0.3211 -1.1675 -0.4952
  653MOL0     C88039   5.561   9.558   0.624 -0.5432  0.0075 -0.4131
  653MOL0     C88040   5.562   9.643   0.503 -0.7421  0.8392  0.0541
  653MOL0     C88041   5.699   9.719   0.513 -0.0430  0.1379  1.0016
  653MOL0     C88042   5.725   9.766   0.370 -1.3589 -0.1214 -0.8392
  653MOL0     C88043   5.829   9.884   0.375 -0.1572 -0.2273  0.7315
  653MOL0     O88044   5.839   9.938   0.237  0.3991 -0.4582 -0.0313
  653MOL0     C88045   5.966   9.978   0.200  1.0440  0.0592 -0.1465
  653MOL0     C88046   6.024  10.108   0.212 -0.2622  0.7031 -0.8907
  653MOL0     C88047   6.155  10.121   0.156  0.4522 -0.1378  0.1156
  653MOL0     C88048   6.222  10.021   0.086 -0.1696  0.3951 -0.6409
  653MOL0     C88049   6.360  10.042   0.032 -0.3773 -0.4725 -0.6212
  653MOL0     O88050   6.397  10.175   0.028 -0.4202  0.2268 -0.5709
  653MOL0     C88051   6.529  10.201  -0.017  0.2428 -0.3142 -0.7091
  653MOL0     C88052   6.643  10.184   0.064 -0.1313  0.1914 -0.1694
  653MOL0     C88053   6.771  10.222   0.013 -0.5262  0.1652 -0.2065
  653MOL0     C88054   6.784  10.294  -0.110  0.4448 -0.5004 -0.1781
  653MOL0     O88055   6.907  10.327  -0.168  0.2511 -0.5215 -1.0233
  653MOL0     C88056   7.035  10.327  -0.085  0.5610 -0.4384 -0.5782
  653MOL0     C88057   7.150  10.322  -0.187  0.9981  0.0073  0.0993
  653MOL0     C88058   7.289  10.335  -0.139 -0.4580  0.1602  0.5213
  653MOL0     C88059   7.388  10.381  -0.251  0.0423 -0.6487 -0.0682
  653MOL0     C88060   7.527  10.301  -0.237 -0.0691 -0.0367 -1.0166
  653MOL0     C88061   7.625  10.338  -0.350  0.6386 -0.4210  0.2562
  653MOL0     C88062   7.730  10.228  -0.369 -0.1346  0.1217  0.6063
  653MOL0     C88063   7.797  10.182  -0.238 -0.2291 -0.7356 -0.4900
  653MOL0    Cl88064   7.864  10.309  -0.135 -0.1303 -0.0437  0.2955
  653MOL0     C88065   6.667  10.313  -0.182  0.2133 -0.0531 -0.1489
  653MOL0     C88066   6.548  10.266  -0.140 -0.5302 -0.1351  0.6253
  653MOL0     O88067   6.433   9.950  -0.008  0.6911 -0.0841 -0.0092
  653MOL0     C88068   6.160   9.894   0.088 -0.0222 -0.2924  0.3811
  653MOL0     C88069   6.037   9.869   0.141 -0.4258  0.3981 -0.4443
  653MOL0     N88070   5.656   9.456   0.640 -0.3030  0.0152 -0.2183
  653MOL0     N88071   5.655   9.415   0.763  0.1276 -0.2078 -0.2210
  653MOL0     C88072   4.711   9.089   1.446  0.2232  0.1916 -0.3063
  653MOL0     C88073   4.594   9.017   1.478 -0.4458  0.3576  0.8572
  653MOL0     C88074   4.321   8.707   1.701 -0.5623 -0.6177  0.2801
  653MOL0     C88075   4.303   8.641   1.821  0.6652 -0.3927 -0.4437
  653MOL0     C88076   4.177   8.593   1.857 -0.4563  0.5519  0.2988
  653MOL0     C88077   4.063   8.618   1.784  0.4536 -0.4807 -0.0243
  653MOL0     O88078   3.944   8.580   1.831 -0.1925  0.3309  0.5094
  653MOL0     C88079   3.833   8.562   1.747  0.5069 -0.0408  0.3859
  653MOL0     C88080   3.724   8.479   1.824  0.0832 -0.3420 -0.9370
  653MOL0     C88081   3.760   8.338   1.871 -0.6621  0.9472 -0.1484
  653MOL0     C88082   3.652   8.252   1.938 -0.0930 -0.0964 -0.3573
  653MOL0     C88083   3.519   8.247   1.876  0.1484  0.5195  0.0488
  653MOL0     C88084   3.406   8.253   1.822 -0.2615 -0.4650  0.0091
  653MOL0     C88085   4.080   8.694   1.669  0.1472  0.4864 -0.5317
  653MOL0     C88086   4.203   8.739   1.627  0.0029 -0.0828  0.0027
  653MOL0     C88087   4.214   8.812   1.501  0.3773 -0.6074 -0.3022
  653MOL0     H88088   4.720   8.828   1.741  1.0108  0.1718  0.1941
  653MOL0     H88089   4.906   8.977   1.696 -1.5835  0.2388  2.7677
  653MOL0     H88090   4.881   9.268   1.352 -1.2759  0.0783  1.9736
  653MOL0     H88091   5.048   9.284   1.413  0.4413 -0.2488 -1.0608
  653MOL0     H88092   4.927   9.041   1.239  0.6468 -2.3375  0.5862
  653MOL0     H88093   5.096   9.067   1.291 -0.8055 -0.9797  2.3252
  653MOL0     H88094   4.948   9.250   1.104 -0.0951  0.1580 -0.0187
  653MOL0     H88095   5.055   9.118   1.043 -3.0600 -1.4913  0.2623
  653MOL0     H88096   5.131   9.380   1.196 -2.0966  0.7969 -1.1337
  653MOL0     H88097   5.238   9.230   1.166  1.2018 -1.5621 -1.7593
  653MOL0     H88098   5.100   9.345   0.924  1.5091  0.3568 -1.0454
  653MOL0     H88099   5.210   9.441   1.006  3.4573 -0.9683 -3.1329
  653MOL0     H88100   5.283   9.176   0.908 -1.9024  0.0399 -0.0640
  653MOL0     H88101   5.295   9.308   0.814 -6.2159 -1.8745 -0.2464
  653MOL0     H88102   5.507   9.237   0.952 -0.5584  0.6576 -0.4221
  653MOL0     H88103   5.429   9.298   1.101  3.0325 -2.0476  0.6527
  653MOL0     H88104   5.433   9.533   0.989 -0.4516 -0.0590 -0.5612
  653MOL0     H88105   5.585   9.477   1.033  1.7172 -0.1807 -1.4140
  653MOL0     H88106   5.407   9.635   0.757  0.4543 -0.8280  2.9640
  653MOL0     H88107   5.547   9.584   0.412 -0.6331  1.2296 -0.2207
  653MOL0     H88108   5.487   9.722   0.496 -1.0094  0.6490  0.7662
  653MOL0     H88109   5.691   9.804   0.581 -2.2696 -0.4985  1.6107
  653MOL0     H88110   5.781   9.652   0.541 -0.2828  0.5605  2.8615
  653MOL0     H88111   5.632   9.804   0.325 -1.5168  2.1627  1.2151
  653MOL0     H88112   5.753   9.681   0.307  0.0083  0.7048 -1.3795
  653MOL0     H88113   5.925   9.848   0.413  2.1897  0.6710 -3.7196
  653MOL0     H88114   5.794   9.962   0.444  1.8970  1.6541 -0.2380
  653MOL0     H88115   5.970  10.191   0.256 -0.7693 -0.5601  0.9875
  653MOL0     H88116   6.210  10.213   0.172  0.1995  0.3620 -1.6950
  653MOL0     H88117   6.632  10.136   0.160  0.7371 -1.0314 -0.6455
  653MOL0     H88118   6.855  10.209   0.080  0.4778 -0.0087 -1.4708
  653MOL0     H88119   7.041  10.415  -0.020  0.3515 -0.4353 -0.5605
  653MOL0     H88120   7.029  10.235  -0.026 -0.1937 -0.3376 -0.4824
  653MOL0     H88121   7.144  10.231  -0.246 -2.7140 -0.3725  0.8711
  653MOL0     H88122   7.127  10.403  -0.257  2.2039 -0.3542 -0.7524
  653MOL0     H88123   7.303  10.402  -0.054  3.1288  1.2156 -0.7083
  653MOL0     H88124   7.321  10.238  -0.100  2.5840  0.5226 -0.7845
  653MOL0     H88125   7.407  10.487  -0.234  0.6851 -1.2300  3.5610
  653MOL0     H88126   7.349  10.368  -0.353  1.0622  0.7700 -0.6568
  653MOL0     H88127   7.506  10.194  -0.246  0.3823 -0.0149 -2.6551
  653MOL0     H88128   7.558  10.329  -0.136 -2.1096  2.4993 -1.0081
  653MOL0     H88129   7.564  10.344  -0.441 -0.5840 -1.9157  0.9464
  653MOL0     H88130   7.672  10.432  -0.320 -0.3151  0.0845  0.2010
  653MOL0     H88131   7.812  10.271  -0.427 -0.6602  1.1264  0.5896
  653MOL0     H88132   7.698  10.135  -0.416  0.8399 -0.3516  0.8465
  653MOL0     H88133   7.721  10.129  -0.180 -2.5454  2.1028 -0.7035
  653MOL0     H88134   7.878  10.118  -0.275  0.8288  1.9032 -3.1600
  653MOL0     H88135   6.676  10.360  -0.279 -2.0573  1.9270  0.5124
  653MOL0     H88136   6.460  10.278  -0.203 -0.5122  2.7149  1.0096
  653MOL0     H88137   6.203   9.808   0.037  1.4899  1.4528 -1.4484
  653MOL0     H88138   5.982   9.776   0.126 -0.4064  0.7076 -2.8573
  653MOL0     H88139   4.708   9.151   1.357 -0.8536 -1.0614 -1.1829
  653MOL0     H88140   4.502   9.032   1.424  0.2724  1.9493 -0.0033
  653MOL0     H88141   4.395   8.622   1.876  1.1052 -0.6531 -1.2551
  653MOL0     H88142   4.172   8.533   1.947  2.2111 -1.1614 -0.5641
  653MOL0     H88143   3.853   8.514   1.651 -0.0873 -0.6942  0.5752
  653MOL0     H88144   3.796   8.657   1.707  0.4506 -0.5071 -0.7040
  653MOL0     H88145   3.641   8.470   1.754  0.2318 -0.3818 -1.1081
  653MOL0     H88146   3.691   8.546   1.904 -3.0066 -0.7479 -1.7533
  653MOL0     H88147   3.841   8.350   1.943 -1.3932 -4.1381  1.9775
  653MOL0     H88148   3.805   8.283   1.788  2.1038  1.6866  0.7389
  653MOL0     H88149   3.692   8.151   1.950 -3.5810 -1.4034  2.0273
  653MOL0     H88150   3.650   8.290   2.040  2.9291  0.8600 -0.5631
  653MOL0     H88151   3.304   8.258   1.788 -0.0005  1.1790 -0.5976
  653MOL0     H88152   3.993   8.720   1.611  1.0958 -0.9558 -2.7099
  653MOL0     H88153   4.288   8.764   1.436 -1.0344 -1.6997 -1.1535
  653MOL0     H88154   4.119   8.828   1.450 -0.8722 -0.4191  1.9255
  653MOL0     H88155   4.255   8.911   1.522  1.9954 -1.5305  1.3086
  654MOL0     O88156   6.590  11.044   8.998  0.4446 -0.0989 -0.9349
  654MOL0     C88157   6.532  11.123   9.079 -0.3306  0.6017  0.5760
  654MOL0     O88158   6.570  11.251   9.101  0.7321 -0.1635 -0.2160
  654MOL0     C88159   6.667  11.307   9.023 -0.8405  0.1626  0.2612
  654MOL0     C88160   6.798  11.283   9.037 -0.2378  0.3037 -0.4686
  654MOL0     C88161   6.899  11.345   8.957  0.2335  0.3043 -0.2944
  654MOL0     C88162   6.867  11.427   8.855  0.2016  0.0463  0.6934
  654MOL0     O88163   6.974  11.470   8.773  0.1332  0.4680 -0.0810
  654MOL0     C88164   6.949  11.541   8.652 -0.1517  0.4256  0.0586
  654MOL0     C88165   7.075  11.557   8.558 -0.4314 -0.3308 -0.6892
  654MOL0     C88166   7.153  11.431   8.535 -0.5508 -0.0781 -0.1603
  654MOL0     C88167   7.265  11.415   8.635 -0.3784 -0.2936  0.0275
  654MOL0     C88168   7.366  11.298   8.601 -0.4359  0.4597  0.7440
  654MOL0     C88169   7.481  11.273   8.695 -0.6842 -0.1283 -0.4948
  654MOL0     C88170   7.540  11.130   8.655 -1.0791 -0.6627 -0.0223
  654MOL0     C88171   7.674  11.107   8.734  0.1146 -0.5856 -0.3331
  654MOL0     N88172   7.728  10.978   8.682  0.1566  0.3615 -0.5090
  654MOL0     C88173   7.764  10.961   8.546 -0.1329  0.8327 -0.1626
  654MOL0     C88174   7.867  10.867   8.542  0.4886  0.0526  0.5114
  654MOL0     C88175   7.946  10.827   8.419  1.0355 -0.3096 -0.0309
  654MOL0     C88176   8.019  10.953   8.363  0.7095  0.6893  0.7895
  654MOL0     C88177   8.117  11.016   8.466 -0.5043  0.2424 -0.0324
  654MOL0     C88178   8.252  10.945   8.469  0.4109 -0.2986 -0.9581
  654MOL0     O88179   8.311  10.966   8.342  0.0616  0.3183 -0.1173
  654MOL0     C88180   8.432  10.903   8.322 -0.3809 -0.1828 -0.4896
  654MOL0     C88181   8.510  10.834   8.422 -0.1609  0.9163 -0.1326
  654MOL0     C88182   8.637  10.788   8.404  0.5841  0.5553 -0.6180
  654MOL0     C88183   8.707  10.821   8.287  0.5732  0.8275 -0.6243
  654MOL0     C88184   8.840  10.781   8.256 -0.0292 -0.3112  0.1221
  654MOL0     O88185   8.892  10.808   8.136 -0.2689  0.2523  0.3139
  654MOL0     C88186   9.032  10.785   8.111 -0.1036  0.3953 -0.1362
  654MOL0     C88187   9.144  10.849   8.168  1.3543 -0.0167 -0.0004
  654MOL0     C88188   9.276  10.820   8.126 -0.4355 -0.4811 -0.1116
  654MOL0     C88189   9.301  10.721   8.030  0.8300  0.7600 -0.4641
  654MOL0     O88190   9.423  10.682   7.983 -0.2560 -0.0472 -0.4461
  654MOL0     C88191   9.540  10.740   8.045 -0.2430  0.5020 -0.1371
  654MOL0     C88192   9.669  10.666   8.017  0.9035  0.3272  0.2235
  654MOL0     C88193   9.768  10.653   8.128  0.6045  0.1187 -0.1245
  654MOL0     C88194   9.896  10.723   8.093 -0.5598  0.3098 -0.2983
  654MOL0     C88195   9.971  10.646   7.983  0.1339 -0.1866  0.7755
  654MOL0     C88196  10.093  10.740   7.935 -0.6458 -0.3042 -0.5279
  654MOL0     C88197  10.203  10.665   7.862  0.0723  0.1344 -0.0961
  654MOL0     C88198  10.306  10.748   7.790 -0.3440  0.0039 -0.4655
  654MOL0    Cl88199  10.406  10.861   7.889  0.4703  0.0772  0.1761
  654MOL0     C88200   9.191  10.653   7.977 -0.2371 -0.1459  0.5642
  654MOL0     C88201   9.060  10.685   8.017 -0.6333 -0.3567  0.1993
  654MOL0     O88202   8.908  10.744   8.355 -0.4626 -0.7718  0.5191
  654MOL0     C88203   8.638  10.898   8.195  0.9794  0.5754 -0.9273
  654MOL0     C88204   8.501  10.940   8.209 -1.6034  0.1294  0.1060
  654MOL0     N88205   7.883  10.826   8.671  0.0836  0.6300 -0.2800
  654MOL0     N88206   7.806  10.889   8.750  0.0422 -0.0487 -0.2074
  654MOL0     C88207   6.732  11.453   8.839 -0.5587 -0.3590  0.0526
  654MOL0     C88208   6.635  11.395   8.921 -0.8328 -0.4032 -0.3718
  654MOL0     C88209   6.415  11.062   9.143  0.0058  0.0984 -0.0562
  654MOL0     C88210   6.362  10.942   9.096 -0.3031 -0.2685  0.7174
  654MOL0     C88211   6.253  10.881   9.164 -0.1069  0.2232 -0.0558
  654MOL0     C88212   6.197  10.945   9.272 -0.1728 -0.3376 -0.1088
  654MOL0     O88213   6.069  10.908   9.320  0.1906  0.0828 -0.4108
  654MOL0     C88214   6.069  10.783   9.387  0.3922 -0.6629 -0.8202
  654MOL0     C88215   5.945  10.780   9.486  0.1724 -0.1193 -0.7669
  654MOL0     C88216   5.964  10.889   9.601 -0.4236  0.0852 -0.1624
  654MOL0     C88217   5.842  10.876   9.687  0.6710  0.4534 -0.0297
  654MOL0     C88218   5.823  10.992   9.776  0.3546  0.6297 -0.1532
  654MOL0     C88219   5.822  11.087   9.842  0.4499 -0.0695 -0.3664
  654MOL0     C88220   6.238  11.068   9.318  0.2267 -1.1655 -0.3862
  654MOL0     C88221   6.357  11.122   9.259 -0.1758 -0.0443  0.2692
  654MOL0     C88222   6.393  11.260   9.326  0.9747  0.0460 -0.0733
  654MOL0     H88223   6.824  11.218   9.120 -1.5485  0.1731 -0.1392
  654MOL0     H88224   7.001  11.318   8.981  0.2731  1.6787  1.2573
  654MOL0     H88225   6.880  11.476   8.598 -0.3025  2.0688 -1.8368
  654MOL0     H88226   6.909  11.641   8.671  0.4868  0.9696 -1.3616
  654MOL0     H88227   7.152  11.626   8.594 -0.9284 -0.4309  0.5815
  654MOL0     H88228   7.037  11.577   8.457  0.0989  1.3217 -0.5996
  654MOL0     H88229   7.192  11.445   8.434  0.8730 -2.1877  0.0240
  654MOL0     H88230   7.084  11.348   8.553 -0.9062  0.0530 -0.8862
  654MOL0     H88231   7.324  11.507   8.628 -1.4602  0.4810  0.8118
  654MOL0     H88232   7.221  11.403   8.735 -2.6594  2.4135 -0.5039
  654MOL0     H88233   7.307  11.206   8.601 -1.5395  1.1274  0.1468
  654MOL0     H88234   7.395  11.308   8.496  3.8301  1.9265  1.8838
  654MOL0     H88235   7.555  11.352   8.680  0.7420 -1.1276  0.9530
  654MOL0     H88236   7.444  11.268   8.797 -3.1804  4.3868 -0.9535
  654MOL0     H88237   7.576  11.137   8.552  1.0859  3.6696  0.8069
  654MOL0     H88238   7.463  11.054   8.670 -1.5223 -0.4983 -1.3473
  654MOL0     H88239   7.744  11.189   8.710 -1.6792  1.8594  2.1462
  654MOL0     H88240   7.662  11.097   8.842 -1.4428  0.5480 -0.3708
  654MOL0     H88241   7.721  11.012   8.460 -3.9233  0.0760  1.1049
  654MOL0     H88242   8.021  10.755   8.455  2.2296  0.9430  0.0632
  654MOL0     H88243   7.884  10.780   8.342  1.2330 -2.9377  1.2895
  654MOL0     H88244   8.068  10.925   8.269  2.1410  1.6329  1.2202
  654MOL0     H88245   7.949  11.030   8.330  0.4820  0.6925  1.2716
  654MOL0     H88246   8.081  11.017   8.569 -0.6305  2.8258 -0.0382
  654MOL0     H88247   8.135  11.119   8.434  0.6615 -0.0272 -0.2767
  654MOL0     H88248   8.233  10.839   8.488 -0.9080  0.0668 -0.1054
  654MOL0     H88249   8.315  10.980   8.551  2.7325 -2.6864 -1.5873
  654MOL0     H88250   8.475  10.810   8.522  1.0239  0.9615  0.3135
  654MOL0     H88251   8.675  10.735   8.491 -3.0958  1.5537  1.8504
  654MOL0     H88252   9.117  10.920   8.245  0.1798  0.5065 -0.8793
  654MOL0     H88253   9.357  10.880   8.165  0.5660 -1.5156 -0.5311
  654MOL0     H88254   9.549  10.846   8.018 -1.5593 -0.0785 -3.2587
  654MOL0     H88255   9.519  10.732   8.152 -4.4941 -0.9211 -0.8785
  654MOL0     H88256   9.641  10.563   7.991 -1.2317  0.9563 -0.1837
  654MOL0     H88257   9.709  10.714   7.928  0.4191  0.8004  0.2556
  654MOL0     H88258   9.737  10.702   8.221  3.0222 -0.0018  0.8329
  654MOL0     H88259   9.796  10.552   8.161  0.6947  0.6757  1.6346
  654MOL0     H88260   9.946  10.728   8.190 -1.1575 -1.6130  0.1631
  654MOL0     H88261   9.878  10.825   8.060 -0.3570  0.8264  1.1282
  654MOL0     H88262   9.902  10.627   7.901 -1.3885  0.4869  1.8511
  654MOL0     H88263  10.003  10.548   8.020 -2.1302 -2.0834 -1.9446
  654MOL0     H88264  10.054  10.827   7.881  0.0986 -0.5886 -1.5523
  654MOL0     H88265  10.149  10.774   8.024 -1.2958 -2.9255  0.9901
  654MOL0     H88266  10.161  10.596   7.788  1.4362  0.0690 -0.8430
  654MOL0     H88267  10.256  10.597   7.929 -2.1252 -0.1639  1.4495
  654MOL0     H88268  10.371  10.681   7.734  0.1784  0.0009  0.1358
  654MOL0     H88269  10.235  10.795   7.721 -0.1276  1.8716  0.4951
  654MOL0     H88270   9.197  10.582   7.895 -0.1563  0.0549  0.3956
  654MOL0     H88271   8.992  10.611   7.976 -0.6168 -0.3734  0.2008
  654MOL0     H88272   8.686  10.919   8.100  3.9910 -0.4127  0.2458
  654MOL0     H88273   8.458  11.000   8.130  1.4086  0.7312 -1.2428
  654MOL0     H88274   6.705  11.520   8.758  0.1450 -1.5885 -1.2279
  654MOL0     H88275   6.531  11.416   8.900 -0.0852  2.8809 -1.5353
  654MOL0     H88276   6.406  10.889   9.012 -0.3513 -2.2348  1.8636
  654MOL0     H88277   6.221  10.782   9.137  2.1962  0.0063 -2.3516
  654MOL0     H88278   6.158  10.769   9.450  0.2538  1.1054 -0.1579
  654MOL0     H88279   6.057  10.703   9.314  0.1636 -0.6916 -0.7527
  654MOL0     H88280   5.938  10.686   9.542 -2.7024  0.1673 -0.5384
  654MOL0     H88281   5.853  10.802   9.433  0.4466  3.4358 -0.0640
  654MOL0     H88282   5.953  10.983   9.547 -3.1012 -0.5686 -0.9194
  654MOL0     H88283   6.057  10.874   9.657  2.0759  0.3323 -3.8754
  654MOL0     H88284   5.752  10.872   9.626  2.0643 -2.2123 -2.0791
  654MOL0     H88285   5.846  10.793   9.758 -3.1463  1.5001  1.6716
  654MOL0     H88286   5.817  11.172   9.907  2.3390 -0.6326  0.5672
  654MOL0     H88287   6.187  11.116   9.400  2.2080 -2.5332  1.7746
  654MOL0     H88288   6.500  11.264   9.345  1.2307 -0.8858 -1.2043
  654MOL0     H88289   6.353  11.348   9.275 -0.2911  0.6888  1.8963
  654MOL0     H88290   6.348  11.265   9.426 -1.0605 -1.0720 -0.8587
  655MOL0     O88291  11.234   3.803   2.644  0.2350 -0.1330  1.0153
  655MOL0     C88292  11.137   3.784   2.722 -0.6084  0.7026  0.6665
  655MOL0     O88293  11.151   3.811   2.854 -0.1221 -0.4087  0.7484
  655MOL0     C88294  11.268   3.858   2.892 -0.4262 -0.0955 -0.4290
  655MOL0     C88295  11.306   3.990   2.885  0.4911 -0.1667 -0.3919
  655MOL0     C88296  11.425   4.038   2.940  0.1466  0.7662 -0.1092
  655MOL0     C88297  11.517   3.950   2.998 -0.8434 -0.0041 -0.1597
  655MOL0     O88298  11.626   4.006   3.053 -0.1624 -0.1888  0.8610
  655MOL0     C88299  11.749   3.926   3.043 -0.2841 -0.6884 -0.0917
  655MOL0     C88300  11.868   4.007   3.082 -0.5068 -0.0194 -0.3773
  655MOL0     C88301  11.960   3.930   3.185  0.5475  0.3336 -0.4062
  655MOL0     C88302  12.065   4.024   3.243  0.4267 -0.0306  0.3870
  655MOL0     C88303  12.165   3.948   3.324  0.1308  0.1990 -0.2542
  655MOL0     C88304  12.249   4.024   3.425  0.3729  0.8900 -0.4658
  655MOL0     C88305  12.305   4.155   3.374  0.5931 -0.6474  0.1972
  655MOL0     C88306  12.389   4.158   3.245 -0.0752 -0.1367  0.4939
  655MOL0     N88307  12.504   4.062   3.269  0.3130  0.9188 -0.3223
  655MOL0     C88308  12.626   4.100   3.314  0.7315  0.3109 -0.6762
  655MOL0     C88309  12.711   3.997   3.312 -0.0476 -0.4393 -0.4837
  655MOL0     C88310  12.857   3.997   3.356 -0.2793 -0.4235  0.7893
  655MOL0     C88311  12.854   3.972   3.511  1.0457 -0.3211  0.4494
  655MOL0     C88312  13.000   3.972   3.568 -0.1274 -0.4204 -0.5141
  655MOL0     C88313  12.994   4.007   3.709 -0.0995  0.7932 -0.0244
  655MOL0     O88314  13.121   4.050   3.754 -0.3277  0.1022 -0.3915
  655MOL0     C88315  13.234   3.968   3.777  0.5420  0.0238 -0.3564
  655MOL0     C88316  13.228   3.828   3.764 -0.1621 -1.1742 -0.7098
  655MOL0     C88317  13.339   3.744   3.758  0.8534 -0.9961 -0.8027
  655MOL0     C88318  13.464   3.808   3.783  0.2561 -0.5553  0.2260
  655MOL0     C88319  13.587   3.728   3.784  0.7509 -0.1670  0.3180
  655MOL0     O88320  13.698   3.805   3.821 -0.0286 -0.4214  0.1447
  655MOL0     C88321  13.822   3.774   3.791 -0.9336  0.0280  0.1697
  655MOL0     C88322  13.923   3.849   3.851 -0.5904 -0.2673 -0.3862
  655MOL0     C88323  14.062   3.820   3.825 -1.1778 -0.5995 -0.1204
  655MOL0     C88324  14.099   3.703   3.746  1.3264 -1.3723  0.1134
  655MOL0     O88325  14.222   3.667   3.729 -0.0177 -0.1439 -0.2494
  655MOL0     C88326  14.283   3.627   3.861  0.2426  0.2192  0.6624
  655MOL0     C88327  14.432   3.601   3.848  0.6122  0.4970  0.7778
  655MOL0     C88328  14.497   3.568   3.980  0.1154  0.0271  0.1586
  655MOL0     C88329  14.643   3.558   3.961 -0.5941  0.3977  0.1929
  655MOL0     C88330  14.715   3.500   4.079 -0.1931  0.5065 -1.0923
  655MOL0     C88331  14.862   3.488   4.035 -0.0775 -0.6111 -0.1518
  655MOL0     C88332  14.939   3.438   4.160 -0.8082 -0.6669 -0.2656
  655MOL0     C88333  15.097   3.419   4.136 -0.0143 -0.1837  0.5721
  655MOL0    Cl88334  15.127   3.253   4.062  0.5268  0.2919  0.2812
  655MOL0     C88335  13.989   3.640   3.676  0.7920 -0.4777 -0.5674
  655MOL0     C88336  13.859   3.678   3.700 -0.4423  0.9716  0.7203
  655MOL0     O88337  13.580   3.610   3.762  0.0984 -0.4123  0.4789
  655MOL0     C88338  13.470   3.947   3.807 -0.1452 -0.6449 -1.1743
  655MOL0     C88339  13.356   4.033   3.801 -0.3909  0.3733  0.5530
  655MOL0     N88340  12.642   3.897   3.252 -0.4084  1.1198  0.0227
  655MOL0     N88341  12.526   3.931   3.221  0.7818  0.1170  0.2402
  655MOL0     C88342  11.482   3.815   3.005 -0.7801 -1.0384  0.4250
  655MOL0     C88343  11.358   3.769   2.946  0.2160 -1.1020 -0.3697
  655MOL0     C88344  11.005   3.745   2.670  0.5858 -0.2480  0.5748
  655MOL0     C88345  10.897   3.727   2.766  0.1191 -0.1521 -0.4468
  655MOL0     C88346  10.767   3.691   2.736 -0.1136 -0.7465 -0.4294
  655MOL0     C88347  10.730   3.696   2.601  0.1786  0.6479 -0.0380
  655MOL0     O88348  10.602   3.661   2.558 -0.0144 -0.2524 -0.1697
  655MOL0     C88349  10.495   3.717   2.642  0.4201 -0.0639 -0.1114
  655MOL0     C88350  10.396   3.789   2.544  0.4737 -0.3993  0.2838
  655MOL0     C88351  10.250   3.778   2.602 -0.6364 -0.8589  0.7379
  655MOL0     C88352  10.156   3.886   2.539  0.2763  0.4568  0.4191
  655MOL0     C88353  10.122   3.849   2.402  0.2463 -0.1923 -1.1017
  655MOL0     C88354  10.095   3.818   2.291 -0.2985 -0.5952  1.0945
  655MOL0     C88355  10.829   3.708   2.500  0.4721  0.3698 -0.1503
  655MOL0     C88356  10.966   3.733   2.534  0.0390  0.0090 -0.3863
  655MOL0     C88357  11.067   3.733   2.419  0.6913 -0.4001 -1.1288
  655MOL0     H88358  11.236   4.060   2.840  0.4552  0.8085  1.1058
  655MOL0     H88359  11.429   4.146   2.951 -2.0719  1.1162 -2.0923
  655MOL0     H88360  11.732   3.849   3.119 -1.2241  2.0273  2.6578
  655MOL0     H88361  11.759   3.866   2.952 -0.1025 -1.7225  0.5929
  655MOL0     H88362  11.843   4.101   3.132  1.1860  0.3740 -0.2103
  655MOL0     H88363  11.919   4.029   2.988  1.5724  0.5528  0.8197
  655MOL0     H88364  12.001   3.842   3.134 -0.3341  1.1995 -2.7394
  655MOL0     H88365  11.903   3.892   3.270  2.6649 -0.3473  0.8124
  655MOL0     H88366  12.110   4.080   3.161 -1.1755 -1.5584 -1.6630
  655MOL0     H88367  12.020   4.086   3.321  1.0661 -1.1549  1.6743
  655MOL0     H88368  12.114   3.869   3.380  1.4630 -0.0590  0.6430
  655MOL0     H88369  12.234   3.896   3.257 -2.9642 -1.5573 -2.3245
  655MOL0     H88370  12.187   4.048   3.512 -3.1118  0.5957 -2.7037
  655MOL0     H88371  12.322   3.953   3.466 -2.2108 -0.7863  1.6062
  655MOL0     H88372  12.360   4.206   3.454  0.1307 -3.4910  2.5281
  655MOL0     H88373  12.215   4.213   3.351 -0.2625 -0.8018  2.8000
  655MOL0     H88374  12.321   4.125   3.166 -3.2166  2.6245  1.7915
  655MOL0     H88375  12.419   4.257   3.211  0.9970 -0.3162  0.8974
  655MOL0     H88376  12.655   4.196   3.355 -1.0661 -0.1477  1.8887
  655MOL0     H88377  12.912   3.917   3.306  0.5597 -0.2908  1.4885
  655MOL0     H88378  12.907   4.092   3.336 -2.3600  0.8896  1.4222
  655MOL0     H88379  12.794   4.048   3.562  1.4725  0.7632 -0.6043
  655MOL0     H88380  12.801   3.880   3.537 -0.7136  0.0769 -1.5386
  655MOL0     H88381  13.064   4.053   3.531  0.7459 -0.5131  0.7378
  655MOL0     H88382  13.053   3.878   3.548  2.8867  1.4526 -2.0743
  655MOL0     H88383  12.958   3.924   3.769  1.6631 -0.8283 -1.1047
  655MOL0     H88384  12.925   4.091   3.723  0.1337  1.5637 -2.8923
  655MOL0     H88385  13.135   3.778   3.739 -0.0992 -1.3704 -0.5609
  655MOL0     H88386  13.322   3.638   3.741  0.8129 -1.2435  0.6771
  655MOL0     H88387  13.895   3.932   3.915  1.6333 -1.2518  2.0624
  655MOL0     H88388  14.139   3.887   3.862 -1.8066  1.7756 -2.6865
  655MOL0     H88389  14.261   3.691   3.947  0.5856  0.7588  0.3576
  655MOL0     H88390  14.230   3.535   3.887 -0.9308 -0.1679 -2.6506
  655MOL0     H88391  14.453   3.523   3.774 -2.0621  0.7014 -0.2909
  655MOL0     H88392  14.471   3.693   3.803 -0.0169 -0.2030 -1.3097
  655MOL0     H88393  14.465   3.641   4.056  0.4796 -1.9783  2.3420
  655MOL0     H88394  14.452   3.474   4.012 -0.8570 -0.1195 -1.5465
  655MOL0     H88395  14.679   3.661   3.953 -0.7468  0.6415  2.1623
  655MOL0     H88396  14.667   3.503   3.869 -1.7443  0.6064 -0.2598
  655MOL0     H88397  14.672   3.402   4.103  0.9310  0.0085 -1.0754
  655MOL0     H88398  14.709   3.573   4.160  0.6615  1.8741 -2.2030
  655MOL0     H88399  14.882   3.422   3.950  4.1816 -0.7708  0.7416
  655MOL0     H88400  14.903   3.586   4.011  0.2615 -0.3774  1.2729
  655MOL0     H88401  14.895   3.346   4.200 -2.2192  0.8701  1.9515
  655MOL0     H88402  14.937   3.502   4.248  0.1449 -1.1505  0.1260
  655MOL0     H88403  15.142   3.505   4.086  1.4236 -0.0188  2.0736
  655MOL0     H88404  15.148   3.420   4.232 -1.4343 -0.4785  1.3532
  655MOL0     H88405  14.003   3.567   3.597 -0.2770 -0.2460 -0.9851
  655MOL0     H88406  13.782   3.624   3.645  0.2241  0.7013  0.0253
  655MOL0     H88407  13.570   3.985   3.823  0.6512 -1.4034 -3.8850
  655MOL0     H88408  13.355   4.142   3.809 -2.0186  0.3117  1.7212
  655MOL0     H88409  11.535   3.739   3.062 -1.0594 -1.5968 -0.0386
  655MOL0     H88410  11.329   3.665   2.957 -3.3816 -0.1088  1.0269
  655MOL0     H88411  10.922   3.749   2.869  1.7401  2.9304 -1.3803
  655MOL0     H88412  10.689   3.662   2.805 -0.0064 -1.4074 -0.5860
  655MOL0     H88413  10.535   3.781   2.721  2.7082 -1.0673 -0.3759
  655MOL0     H88414  10.451   3.631   2.692 -0.0839 -0.7165 -1.6092
  655MOL0     H88415  10.404   3.733   2.451  1.1556  0.1896 -0.0259
  655MOL0     H88416  10.423   3.895   2.532 -1.4282 -0.1291 -2.5522
  655MOL0     H88417  10.259   3.791   2.710  1.0302  1.7652  0.3717
  655MOL0     H88418  10.211   3.677   2.592 -0.9335 -0.5075 -3.3519
  655MOL0     H88419  10.063   3.891   2.597  0.0420  2.8377 -0.0796
  655MOL0     H88420  10.202   3.984   2.530  0.8548  0.0601 -1.5188
  655MOL0     H88421  10.055   3.765   2.207  2.1558 -0.1838 -0.4641
  655MOL0     H88422  10.815   3.686   2.395  0.7658  0.7743 -0.2769
  655MOL0     H88423  11.023   3.732   2.319 -0.9142  0.8282 -0.4860
  655MOL0     H88424  11.120   3.828   2.426 -0.8507  0.4340 -0.1087
  655MOL0     H88425  11.124   3.640   2.421 -1.8997 -2.1025 -1.5066
  656MOL0     O88426   4.336   4.134   2.063  0.6276  0.2773  0.2116
  656MOL0     C88427   4.391   4.045   2.002 -0.9828  0.4373 -0.2858
  656MOL0     O88428   4.521   4.042   1.958 -0.0472  0.5972  0.2338
  656MOL0     C88429   4.608   4.135   2.009 -0.8759 -0.1007 -0.1178
  656MOL0     C88430   4.713   4.160   1.921  0.2427  0.2478  0.7215
  656MOL0     C88431   4.826   4.234   1.956  0.7625  0.2410  0.0660
  656MOL0     C88432   4.825   4.299   2.079  0.1471 -0.3538  0.0103
  656MOL0     O88433   4.938   4.370   2.112 -0.0840 -0.5698 -0.4236
  656MOL0     C88434   4.935   4.462   2.214 -0.2836  0.2901  1.0561
  656MOL0     C88435   5.052   4.553   2.212  0.6937 -0.6424  0.3337
  656MOL0     C88436   5.018   4.686   2.132  0.6256 -0.0845 -0.5284
  656MOL0     C88437   5.138   4.764   2.092 -0.2320 -0.2977  0.3311
  656MOL0     C88438   5.216   4.698   1.980 -0.2543 -0.1612  0.4716
  656MOL0     C88439   5.321   4.800   1.910  0.0711 -0.4229 -0.3601
  656MOL0     C88440   5.401   4.725   1.805 -0.3351  0.0139  0.2780
  656MOL0     C88441   5.327   4.693   1.681 -0.4945  0.9533 -0.3385
  656MOL0     N88442   5.417   4.643   1.569 -0.1342 -0.4986  0.8423
  656MOL0     C88443   5.504   4.716   1.491  0.8381 -0.4043 -0.7049
  656MOL0     C88444   5.581   4.641   1.417 -1.5375  0.6058 -0.1153
  656MOL0     C88445   5.693   4.677   1.320 -0.2187 -0.4242 -0.6164
  656MOL0     C88446   5.829   4.654   1.388  0.4980 -0.3036 -0.6488
  656MOL0     C88447   5.943   4.671   1.286  0.8683 -0.6155 -0.2920
  656MOL0     C88448   6.075   4.612   1.345 -0.0617  0.2226 -0.0827
  656MOL0     O88449   6.171   4.663   1.253  0.2171 -0.2014  0.8505
  656MOL0     C88450   6.285   4.582   1.240  0.4031 -0.0962 -0.3801
  656MOL0     C88451   6.339   4.496   1.339  0.1010  0.0190  0.1422
  656MOL0     C88452   6.458   4.422   1.325 -0.0037 -0.1933 -0.0306
  656MOL0     C88453   6.537   4.439   1.208  0.3610 -0.4459  0.7323
  656MOL0     C88454   6.671   4.380   1.204 -0.3387  0.3130 -0.0534
  656MOL0     O88455   6.773   4.444   1.154 -0.5653 -0.3856  0.0158
  656MOL0     C88456   6.901   4.392   1.141  0.3414  0.0606  0.1741
  656MOL0     C88457   6.975   4.436   1.032  0.4988 -1.2147  0.0163
  656MOL0     C88458   7.101   4.389   1.011 -0.1505 -0.4403 -0.1763
  656MOL0     C88459   7.156   4.293   1.095  0.4747 -1.1418  0.1902
  656MOL0     O88460   7.284   4.256   1.077  0.4194  0.0332 -0.3032
  656MOL0     C88461   7.320   4.119   1.065  0.2703 -0.5959  0.4596
  656MOL0     C88462   7.469   4.119   1.032 -0.1876  0.5317  0.6823
  656MOL0     C88463   7.491   4.152   0.881 -0.3435  0.2924 -0.4677
  656MOL0     C88464   7.648   4.139   0.837 -0.1668  0.6918  0.3470
  656MOL0     C88465   7.671   4.166   0.688  0.5898 -0.1067  0.7400
  656MOL0     C88466   7.669   4.318   0.664  0.1893  0.5826 -0.6322
  656MOL0     C88467   7.701   4.366   0.522  0.0854 -0.6900 -0.3815
  656MOL0     C88468   7.662   4.512   0.500  0.1804  0.2798 -0.3183
  656MOL0    Cl88469   7.802   4.604   0.556  0.0346  0.2514  0.0103
  656MOL0     C88470   7.078   4.249   1.201  0.1891 -0.0363 -0.2420
  656MOL0     C88471   6.957   4.307   1.232  0.0013 -0.0860  0.7378
  656MOL0     O88472   6.683   4.265   1.246 -0.1594  0.1638 -0.5341
  656MOL0     C88473   6.491   4.532   1.115 -0.0490  0.1110  0.2004
  656MOL0     C88474   6.369   4.599   1.131  1.7267  0.0096  0.2182
  656MOL0     N88475   5.538   4.512   1.450 -0.6823 -0.5808  0.6411
  656MOL0     N88476   5.441   4.519   1.525 -0.5495 -0.2101 -0.7642
  656MOL0     C88477   4.711   4.287   2.165 -0.0939 -0.3087 -0.0020
  656MOL0     C88478   4.604   4.208   2.131  0.5888  0.2275 -0.4306
  656MOL0     C88479   4.309   3.935   1.960 -0.4656  0.0298 -0.2257
  656MOL0     C88480   4.184   3.965   1.911  0.5637 -0.1964 -0.3230
  656MOL0     C88481   4.097   3.872   1.880  0.3046 -0.2237  1.1980
  656MOL0     C88482   4.130   3.740   1.876 -0.4061 -0.2426 -0.5782
  656MOL0     O88483   4.041   3.647   1.837 -0.5129  0.2673 -0.2828
  656MOL0     C88484   3.960   3.587   1.943  0.2593 -0.4608  1.6669
  656MOL0     C88485   3.834   3.668   1.954  0.0509 -0.4372  0.2519
  656MOL0     C88486   3.744   3.651   1.825  0.0744  0.2869 -0.2794
  656MOL0     C88487   3.594   3.683   1.859 -0.2953  0.6622  0.2771
  656MOL0     C88488   3.577   3.809   1.923  0.1188 -0.5791  0.3395
  656MOL0     C88489   3.572   3.912   1.977  0.8288 -0.0471 -0.4722
  656MOL0     C88490   4.257   3.699   1.908 -0.3156  0.5246 -0.4144
  656MOL0     C88491   4.352   3.793   1.953  0.5101 -0.5679  0.0148
  656MOL0     C88492   4.486   3.744   2.001 -0.4980 -1.0448  0.4247
  656MOL0     H88493   4.717   4.096   1.833  3.3716  1.0602  0.1416
  656MOL0     H88494   4.915   4.234   1.894 -0.1074  1.3599 -1.2609
  656MOL0     H88495   4.849   4.531   2.216 -0.9875 -0.5846  1.5872
  656MOL0     H88496   4.938   4.406   2.308  3.9026 -0.1251  0.8382
  656MOL0     H88497   5.144   4.504   2.181  0.4954 -0.6247 -0.3002
  656MOL0     H88498   5.069   4.581   2.316 -0.0210 -0.5093  0.4187
  656MOL0     H88499   4.955   4.749   2.197  1.9037  1.1740 -0.4614
  656MOL0     H88500   4.947   4.668   2.051 -0.6433  1.9356  0.0376
  656MOL0     H88501   5.109   4.862   2.053 -1.4442 -0.6910  0.2238
  656MOL0     H88502   5.207   4.786   2.174 -0.9232 -0.7862  1.0582
  656MOL0     H88503   5.270   4.608   2.010 -1.2633 -0.1366  2.5239
  656MOL0     H88504   5.146   4.673   1.899 -0.3318 -2.7900  1.2437
  656MOL0     H88505   5.255   4.874   1.863 -1.2080 -0.8502  0.6904
  656MOL0     H88506   5.383   4.847   1.987  0.0066  2.8685 -2.1444
  656MOL0     H88507   5.438   4.631   1.846 -0.4984 -0.6556 -1.0660
  656MOL0     H88508   5.496   4.776   1.787  0.5686 -1.2928  1.1974
  656MOL0     H88509   5.262   4.610   1.710  1.3500  0.9836  4.9184
  656MOL0     H88510   5.264   4.776   1.647 -0.9384  0.9358  0.4354
  656MOL0     H88511   5.511   4.824   1.496  0.5849 -0.4159  3.8995
  656MOL0     H88512   5.673   4.614   1.233 -1.1085  1.8438 -2.1426
  656MOL0     H88513   5.680   4.782   1.292  0.7505 -0.2272 -0.3796
  656MOL0     H88514   5.843   4.731   1.464 -2.0164  1.3068 -1.6676
  656MOL0     H88515   5.830   4.553   1.430 -0.9758 -0.9691 -2.1027
  656MOL0     H88516   5.948   4.779   1.272  1.8018 -0.3509  1.7887
  656MOL0     H88517   5.910   4.623   1.193 -4.2954 -1.2465  1.5693
  656MOL0     H88518   6.057   4.504   1.346 -1.0434  0.3524 -1.6173
  656MOL0     H88519   6.091   4.657   1.444  1.9011  1.5942 -0.9581
  656MOL0     H88520   6.290   4.478   1.434  0.6855  1.5206  0.7531
  656MOL0     H88521   6.487   4.363   1.412  0.4957  0.7069  0.4336
  656MOL0     H88522   6.930   4.507   0.963  0.6466 -0.4613  0.6758
  656MOL0     H88523   7.166   4.436   0.938 -1.3804  0.3394 -0.7984
  656MOL0     H88524   7.307   4.075   1.164 -4.0253  1.1119  0.8758
  656MOL0     H88525   7.260   4.064   0.992 -0.5823  2.8069 -1.6823
  656MOL0     H88526   7.520   4.198   1.089  1.1771  0.9483 -0.9810
  656MOL0     H88527   7.525   4.030   1.061  1.0485  0.0896 -2.5805
  656MOL0     H88528   7.448   4.072   0.820  0.1172 -1.4336  1.3553
  656MOL0     H88529   7.438   4.244   0.856 -0.4182  0.4911  0.3913
  656MOL0     H88530   7.693   4.040   0.851 -0.9542 -0.3704 -3.4190
  656MOL0     H88531   7.699   4.205   0.908 -1.4727  0.3294  1.6557
  656MOL0     H88532   7.596   4.113   0.630  0.8052  1.2302 -0.8163
  656MOL0     H88533   7.775   4.140   0.665  0.6775 -0.6260  1.6402
  656MOL0     H88534   7.566   4.353   0.680 -0.7717 -1.3193 -2.2101
  656MOL0     H88535   7.731   4.367   0.739  0.9433  0.7830 -1.3617
  656MOL0     H88536   7.647   4.297   0.457 -0.1210 -0.7026 -0.1997
  656MOL0     H88537   7.809   4.356   0.508  0.7063  2.9077  0.8088
  656MOL0     H88538   7.648   4.526   0.393 -1.6559 -0.1184 -0.1629
  656MOL0     H88539   7.566   4.543   0.542 -0.8662 -0.2010 -2.2267
  656MOL0     H88540   7.122   4.187   1.279 -2.3531 -0.9172  0.6062
  656MOL0     H88541   6.903   4.284   1.324 -1.7045 -1.2987 -0.4989
  656MOL0     H88542   6.549   4.553   1.025 -1.0719 -0.4138 -0.6121
  656MOL0     H88543   6.339   4.672   1.056 -2.4664 -2.1263 -0.4745
  656MOL0     H88544   4.704   4.344   2.257  1.2484  1.6376 -1.0460
  656MOL0     H88545   4.520   4.199   2.200  1.5311  1.3683  0.9096
  656MOL0     H88546   4.156   4.068   1.892 -1.0655 -0.5543 -0.0550
  656MOL0     H88547   3.996   3.907   1.858  1.5812  2.7047 -0.6349
  656MOL0     H88548   4.019   3.599   2.034  1.1812  2.9669  0.7599
  656MOL0     H88549   3.944   3.482   1.918  1.9517 -0.6145  1.0968
  656MOL0     H88550   3.846   3.776   1.967 -3.0684 -0.1348  1.4389
  656MOL0     H88551   3.781   3.630   2.042 -2.0676 -2.0321 -1.5950
  656MOL0     H88552   3.765   3.550   1.790  2.0571 -0.0538  1.6595
  656MOL0     H88553   3.780   3.723   1.751  1.0817  2.2955  2.0161
  656MOL0     H88554   3.541   3.687   1.763  4.9544  2.0558 -3.0089
  656MOL0     H88555   3.555   3.598   1.915 -0.1531  2.6859  3.7647
  656MOL0     H88556   3.575   4.010   2.019 -0.4191  0.3176 -1.1851
  656MOL0     H88557   4.281   3.593   1.913 -0.1898  0.6222  1.8840
  656MOL0     H88558   4.552   3.721   1.916  1.5542  1.5408  1.1734
  656MOL0     H88559   4.543   3.823   2.051  1.7311 -0.9434 -2.0218
  656MOL0     H88560   4.479   3.659   2.070 -4.0996  0.7018  2.4551
  657MOL0     O88561   5.496   9.474   6.024  0.0919  0.5434  0.8153
  657MOL0     C88562   5.474   9.404   6.120 -0.0875  0.0339 -0.4594
  657MOL0     O88563   5.518   9.417   6.252  0.3515 -0.4050  0.4105
  657MOL0     C88564   5.603   9.524   6.273 -0.1496 -0.0864  0.2971
  657MOL0     C88565   5.734   9.528   6.229 -0.4410 -0.2631  0.5297
  657MOL0     C88566   5.810   9.645   6.251  0.1648 -0.4338 -0.0619
  657MOL0     C88567   5.750   9.761   6.319 -0.2698  0.4283 -0.2343
  657MOL0     O88568   5.807   9.883   6.322  0.0633  0.0153 -1.1561
  657MOL0     C88569   5.948   9.894   6.340 -0.3328  0.0835 -0.0353
  657MOL0     C88570   6.001   9.831   6.469  0.1417 -0.1547 -0.5780
  657MOL0     C88571   6.159   9.851   6.473  0.2973 -0.4425 -0.1499
  657MOL0     C88572   6.214   9.837   6.610  0.2210 -0.3518  0.2738
  657MOL0     C88573   6.361   9.852   6.615 -0.3119  0.9721 -1.0198
  657MOL0     C88574   6.415   9.853   6.757 -0.2703  0.8266 -0.6007
  657MOL0     C88575   6.568   9.869   6.761 -0.0212  0.0838  1.7130
  657MOL0     C88576   6.633   9.805   6.884  1.0410 -0.0838 -0.3385
  657MOL0     N88577   6.778   9.802   6.880 -0.0731 -0.6041 -0.9293
  657MOL0     C88578   6.864   9.738   6.797 -0.0018  0.4461 -0.0163
  657MOL0     C88579   6.988   9.730   6.857 -0.4656 -0.0860 -0.8787
  657MOL0     C88580   7.100   9.662   6.792  0.6906  0.0674 -0.2176
  657MOL0     C88581   7.231   9.719   6.836  0.1077  0.3707  0.4526
  657MOL0     C88582   7.345   9.648   6.768 -0.0088 -0.5229 -0.4037
  657MOL0     C88583   7.474   9.723   6.793 -0.6039  0.4670  1.1335
  657MOL0     O88584   7.582   9.637   6.745  0.3276 -0.4007  0.6687
  657MOL0     C88585   7.709   9.684   6.773  0.6966  0.7373 -0.2115
  657MOL0     C88586   7.742   9.806   6.836 -0.0393  0.5751  0.2373
  657MOL0     C88587   7.875   9.842   6.873  0.0218  0.2727 -0.3100
  657MOL0     C88588   7.980   9.744   6.854 -0.6696 -0.3182  0.0145
  657MOL0     C88589   8.119   9.778   6.875 -0.3803 -0.0376  0.2406
  657MOL0     O88590   8.208   9.683   6.845  0.3670 -0.0784 -0.0255
  657MOL0     C88591   8.340   9.707   6.858 -0.3033  1.0006  0.2115
  657MOL0     C88592   8.394   9.727   6.988  0.1245  0.5484 -0.1965
  657MOL0     C88593   8.537   9.747   6.989 -0.2788 -0.4533  0.2003
  657MOL0     C88594   8.615   9.756   6.870 -0.4403  0.3335 -0.6204
  657MOL0     O88595   8.755   9.789   6.866 -0.5833 -0.2469 -0.0933
  657MOL0     C88596   8.812   9.900   6.941 -0.1330  0.5311  0.3446
  657MOL0     C88597   8.971   9.898   6.933  0.1442  0.4846  0.3133
  657MOL0     C88598   9.018   9.892   6.783  0.0658 -0.1018 -0.5935
  657MOL0     C88599   9.165   9.847   6.784  0.5190  0.0064  0.3396
  657MOL0     C88600   9.238   9.872   6.648 -0.6208  0.5625 -1.0753
  657MOL0     C88601   9.387   9.830   6.660 -0.8812  0.5448  1.2951
  657MOL0     C88602   9.416   9.682   6.697 -0.1907 -1.1362 -0.0647
  657MOL0     C88603   9.569   9.643   6.708  0.2255  0.0120  0.0977
  657MOL0    Cl88604   9.663   9.747   6.811 -0.4395  0.0876 -0.1789
  657MOL0     C88605   8.560   9.726   6.751  0.0386  0.3851  0.2840
  657MOL0     C88606   8.425   9.708   6.748  0.8428 -0.5629  0.0913
  657MOL0     O88607   8.151   9.891   6.925 -0.1216  0.9180 -0.2527
  657MOL0     C88608   7.946   9.625   6.788  0.9361 -0.1212 -1.0222
  657MOL0     C88609   7.815   9.594   6.754  0.6404  0.6993  0.3870
  657MOL0     N88610   6.980   9.782   6.987  0.7336  0.5047  0.2634
  657MOL0     N88611   6.858   9.830   6.988 -0.3149 -0.3155  0.2233
  657MOL0     C88612   5.625   9.760   6.356  0.6164  0.1317  0.3818
  657MOL0     C88613   5.549   9.640   6.339 -1.1493 -0.6454 -0.0197
  657MOL0     C88614   5.377   9.293   6.105 -0.8729 -0.4279  0.0190
  657MOL0     C88615   5.271   9.306   6.018 -0.0765 -0.0574  0.1218
  657MOL0     C88616   5.179   9.202   5.988 -0.7170  0.0397 -0.3507
  657MOL0     C88617   5.198   9.082   6.053  0.4931  0.2096 -0.5882
  657MOL0     O88618   5.119   8.969   6.022 -0.7718 -0.4367 -0.2303
  657MOL0     C88619   4.995   8.993   5.953 -0.3826  0.1495  0.2819
  657MOL0     C88620   4.895   8.879   5.976  0.3470 -0.2248 -0.9029
  657MOL0     C88621   4.753   8.923   5.923  0.2161 -0.9232 -0.0382
  657MOL0     C88622   4.649   8.833   5.980  0.6109  0.6979 -0.1134
  657MOL0     C88623   4.626   8.854   6.125 -1.0564  0.1375  0.4247
  657MOL0     C88624   4.632   8.872   6.250 -0.4273  1.3331  0.3093
  657MOL0     C88625   5.299   9.073   6.154 -0.1889  0.2874 -0.9875
  657MOL0     C88626   5.397   9.173   6.178  0.0277  0.4479 -0.7215
  657MOL0     C88627   5.519   9.129   6.269 -0.5017  0.0488 -0.4711
  657MOL0     H88628   5.775   9.448   6.168 -0.8506 -0.3877  0.4152
  657MOL0     H88629   5.916   9.654   6.232  0.3687 -2.7904 -0.2879
  657MOL0     H88630   6.000   9.846   6.256 -1.7859 -1.6767  0.0199
  657MOL0     H88631   5.979   9.999   6.338  1.6705 -0.2328 -5.4842
  657MOL0     H88632   5.974   9.728   6.494 -0.0487  0.0843  0.2110
  657MOL0     H88633   5.944   9.890   6.541  0.8697  0.9874 -0.8979
  657MOL0     H88634   6.185   9.953   6.441  1.9674 -0.7364  0.1896
  657MOL0     H88635   6.197   9.776   6.404 -0.9653 -1.2375 -0.0158
  657MOL0     H88636   6.177   9.918   6.674  1.0418 -0.8310  1.3779
  657MOL0     H88637   6.187   9.737   6.646  0.1693 -1.0770 -1.6600
  657MOL0     H88638   6.399   9.764   6.563  0.0346 -0.0970  0.9583
  657MOL0     H88639   6.407   9.932   6.556 -0.0556  0.8851 -0.9388
  657MOL0     H88640   6.379   9.946   6.802 -1.5694 -0.7688  1.9057
  657MOL0     H88641   6.393   9.761   6.812  1.8569 -0.1403 -1.2394
  657MOL0     H88642   6.601   9.972   6.750  2.3400 -0.6420  1.4906
  657MOL0     H88643   6.609   9.820   6.672  0.1833  1.7423  0.8745
  657MOL0     H88644   6.589   9.846   6.975 -0.1604 -3.1895  0.5975
  657MOL0     H88645   6.592   9.704   6.884  0.5885  0.0971 -0.4340
  657MOL0     H88646   6.837   9.683   6.708  0.3204  1.6641 -0.8885
  657MOL0     H88647   7.097   9.554   6.815 -0.8552  0.0941 -0.2366
  657MOL0     H88648   7.083   9.663   6.684  0.7010 -0.7152 -0.2326
  657MOL0     H88649   7.232   9.825   6.809  1.5008  0.2874  0.1044
  657MOL0     H88650   7.247   9.706   6.944  4.3441 -1.7164 -0.2046
  657MOL0     H88651   7.342   9.643   6.659  0.7674  0.9903 -0.5219
  657MOL0     H88652   7.372   9.549   6.805  2.8833 -1.1806 -3.6721
  657MOL0     H88653   7.488   9.738   6.901  2.0213  0.7941  0.8176
  657MOL0     H88654   7.479   9.813   6.732  0.9058 -0.7922 -0.7426
  657MOL0     H88655   7.671   9.888   6.843  1.0982  1.5497  0.8022
  657MOL0     H88656   7.900   9.929   6.932  1.3551 -1.4949  1.8443
  657MOL0     H88657   8.335   9.730   7.078  0.2509 -3.7418  0.2266
  657MOL0     H88658   8.581   9.770   7.086 -3.9707 -0.7700  2.1332
  657MOL0     H88659   8.783   9.993   6.891  2.9289  0.6436 -1.5396
  657MOL0     H88660   8.789   9.892   7.047  0.3488  0.7310  0.4673
  657MOL0     H88661   9.005   9.989   6.982  3.5191 -1.5769  2.2550
  657MOL0     H88662   9.013   9.813   6.989  1.7977  0.5436 -0.7653
  657MOL0     H88663   8.961   9.836   6.709  2.7574  1.5980 -4.2833
  657MOL0     H88664   9.014   9.997   6.751  0.9994 -0.2119 -1.0980
  657MOL0     H88665   9.152   9.740   6.803 -4.0243  0.3840  0.2346
  657MOL0     H88666   9.211   9.898   6.869 -2.3536  0.9460  1.4487
  657MOL0     H88667   9.233   9.980   6.630 -1.7065  0.9339  1.0765
  657MOL0     H88668   9.188   9.815   6.569 -1.0122 -2.5639  1.2677
  657MOL0     H88669   9.433   9.849   6.563 -3.6165  1.0524  0.0050
  657MOL0     H88670   9.444   9.890   6.731  4.5176 -3.3365  0.8565
  657MOL0     H88671   9.375   9.622   6.615  0.9347 -2.0028 -0.0228
  657MOL0     H88672   9.363   9.658   6.789 -1.6382  2.7233  0.2693
  657MOL0     H88673   9.571   9.542   6.751  0.7637  0.9634  2.4538
  657MOL0     H88674   9.606   9.636   6.605 -1.1948  1.3297 -0.5355
  657MOL0     H88675   8.617   9.715   6.659  0.7183  1.5675  0.5460
  657MOL0     H88676   8.377   9.698   6.651  1.8696 -0.0150 -0.4860
  657MOL0     H88677   8.022   9.549   6.772  2.2005  0.8439  0.1650
  657MOL0     H88678   7.793   9.495   6.716 -3.4834  1.7353 -0.3898
  657MOL0     H88679   5.589   9.854   6.396  1.3724  1.8585 -2.6268
  657MOL0     H88680   5.449   9.645   6.380 -1.1725 -0.3861 -0.1058
  657MOL0     H88681   5.268   9.401   5.966  1.6697  0.0885  0.2416
  657MOL0     H88682   5.105   9.215   5.910 -1.0141  2.6276  0.2725
  657MOL0     H88683   5.008   9.008   5.845  0.7667 -1.0857  0.2199
  657MOL0     H88684   4.941   9.075   6.001 -1.2884 -1.1568  1.6119
  657MOL0     H88685   4.897   8.847   6.080  0.7441  1.2106 -0.4558
  657MOL0     H88686   4.921   8.789   5.919 -0.2481 -0.7415 -0.3844
  657MOL0     H88687   4.752   8.908   5.815 -1.1872 -0.4090 -0.1120
  657MOL0     H88688   4.729   9.027   5.946  1.2351 -0.9200  1.1432
  657MOL0     H88689   4.556   8.861   5.931 -0.5915  1.4036  2.4408
  657MOL0     H88690   4.681   8.730   5.961 -2.7861 -0.3079 -1.0916
  657MOL0     H88691   4.626   8.885   6.356 -2.5288  2.4556  0.0945
  657MOL0     H88692   5.291   8.990   6.223  1.3282 -0.5103 -1.7227
  657MOL0     H88693   5.498   9.153   6.373 -6.0613  0.5425 -1.4020
  657MOL0     H88694   5.537   9.022   6.261 -2.0571 -0.1049 -4.5290
  657MOL0     H88695   5.612   9.180   6.240 -0.9894  0.5888 -1.1285
  658MOL0     O88696   1.230   7.225   8.977 -0.6556  0.9519  0.6528
  658MOL0     C88697   1.137   7.175   9.035  0.1044 -0.3579  0.2345
  658MOL0     O88698   1.149   7.078   9.128  0.2993  0.1972  0.7322
  658MOL0     C88699   1.272   7.027   9.157  0.9367  0.4287 -0.3182
  658MOL0     C88700   1.331   7.088   9.273 -0.5704  1.1010  0.1701
  658MOL0     C88701   1.449   7.038   9.321 -0.7202  0.0048  0.6494
  658MOL0     C88702   1.524   6.953   9.241 -0.2538  0.3471  0.1502
  658MOL0     O88703   1.658   6.934   9.270  0.7205 -0.4323  0.7066
  658MOL0     C88704   1.753   7.037   9.245  0.3931 -0.4372 -0.4092
  658MOL0     C88705   1.830   7.073   9.372  0.1509 -0.6790 -0.1876
  658MOL0     C88706   1.899   6.960   9.456 -0.0752 -0.4238  0.4611
  658MOL0     C88707   2.014   7.021   9.527  0.3709  0.6863 -0.4357
  658MOL0     C88708   1.955   7.093   9.650  0.4120  0.1149  0.0810
  658MOL0     C88709   2.066   7.170   9.728 -0.7224 -0.0395  0.3885
  658MOL0     C88710   1.998   7.264   9.831 -0.5935  0.6484 -0.2961
  658MOL0     C88711   2.100   7.364   9.896 -0.5249  0.3510 -0.0659
  658MOL0     N88712   2.167   7.297  10.009 -1.4093 -0.3110  0.5368
  658MOL0     C88713   2.215   7.371  10.116  0.1358  0.1542  0.1980
  658MOL0     C88714   2.264   7.280  10.199  0.0161 -0.5873  0.1258
  658MOL0     C88715   2.345   7.311  10.317 -0.1504 -0.4470 -0.5279
  658MOL0     C88716   2.286   7.229  10.431 -0.6988 -0.4780  0.7493
  658MOL0     C88717   2.389   7.125  10.475  0.4002  0.7462 -0.1592
  658MOL0     C88718   2.508   7.193  10.545 -0.1359 -1.2050 -0.6544
  658MOL0     O88719   2.617   7.110  10.584 -0.4853  0.2868 -0.0566
  658MOL0     C88720   2.739   7.182  10.602  0.4673 -0.9449 -0.5620
  658MOL0     C88721   2.799   7.260  10.508  0.0390  0.0994  0.7983
  658MOL0     C88722   2.925   7.314  10.521 -0.0534  0.3455 -0.0041
  658MOL0     C88723   2.994   7.290  10.641  0.0023 -0.5382  0.2519
  658MOL0     C88724   3.124   7.353  10.655 -0.4999 -0.6154  0.0627
  658MOL0     O88725   3.184   7.336  10.775  0.2103 -0.0805  0.6570
  658MOL0     C88726   3.290   7.415  10.797  0.0301 -1.2166  1.2979
  658MOL0     C88727   3.420   7.376  10.781 -0.3058 -0.3229  0.1037
  658MOL0     C88728   3.526   7.462  10.809 -0.4853  0.2539  0.0793
  658MOL0     C88729   3.514   7.580  10.882  0.2878 -0.1408  0.5062
  658MOL0     O88730   3.620   7.655  10.918  0.6772 -0.2445 -1.2162
  658MOL0     C88731   3.596   7.757  11.017 -0.1903  0.8811  0.3822
  658MOL0     C88732   3.728   7.822  11.066  0.1177  0.3505 -0.8852
  658MOL0     C88733   3.717   7.902  11.191 -0.6922 -0.4516 -0.4888
  658MOL0     C88734   3.833   7.997  11.221 -0.0896 -0.0951  0.5156
  658MOL0     C88735   3.802   8.086  11.341  1.2540  0.0803  0.5856
  658MOL0     C88736   3.914   8.179  11.393  0.2039 -0.0482 -0.4449
  658MOL0     C88737   4.046   8.112  11.444  0.4724  0.3986  0.1755
  658MOL0     C88738   4.018   7.992  11.543  0.3776 -0.3356  0.5549
  658MOL0    Cl88739   3.925   8.067  11.669  0.1591 -0.1073  0.0102
  658MOL0     C88740   3.378   7.620  10.893  0.4566 -0.6904 -0.9048
  658MOL0     C88741   3.271   7.539  10.863  0.9104 -0.1833 -0.2214
  658MOL0     O88742   3.165   7.427  10.567 -0.0813 -0.1814  0.6784
  658MOL0     C88743   2.938   7.200  10.733 -0.3292 -0.6844 -0.5902
  658MOL0     C88744   2.815   7.141  10.711 -0.1408 -0.0266  0.5299
  658MOL0     N88745   2.247   7.156  10.150 -0.6112  0.6081  0.2318
  658MOL0     N88746   2.201   7.170  10.034 -0.1067  0.3280 -0.1195
  658MOL0     C88747   1.473   6.907   9.123  0.3547 -0.4185  0.2877
  658MOL0     C88748   1.348   6.941   9.075 -0.2200  0.2503 -0.2700
  658MOL0     C88749   1.005   7.219   8.993 -0.0385  0.3709 -0.8034
  658MOL0     C88750   0.910   7.220   9.097  0.1820  0.6860  0.7552
  658MOL0     C88751   0.791   7.277   9.079 -0.1738  0.7537 -0.5055
  658MOL0     C88752   0.745   7.328   8.956  1.0181  0.2727 -0.9681
  658MOL0     O88753   0.618   7.381   8.941 -0.1314  0.4592  0.1857
  658MOL0     C88754   0.527   7.290   8.877 -0.0016  0.6091  0.5575
  658MOL0     C88755   0.448   7.231   8.996  0.1792 -0.9037 -0.0757
  658MOL0     C88756   0.330   7.314   9.055 -0.0521  0.1674  0.0949
  658MOL0     C88757   0.380   7.438   9.131 -0.7137 -0.7141 -0.2047
  658MOL0     C88758   0.265   7.510   9.190  1.2059 -0.0722  0.7613
  658MOL0     C88759   0.160   7.561   9.241  1.0369  0.1497  0.7577
  658MOL0     C88760   0.832   7.325   8.847 -0.7869  0.2007 -0.5074
  658MOL0     C88761   0.968   7.280   8.869  0.4770  0.2953 -0.5137
  658MOL0     C88762   1.058   7.297   8.754  0.2990 -0.2896  0.1076
  658MOL0     H88763   1.274   7.162   9.328 -1.0958  0.1435  0.9543
  658MOL0     H88764   1.482   7.085   9.413 -1.0004  1.5507 -0.0141
  658MOL0     H88765   1.814   6.997   9.163  2.7009  0.3134  0.8767
  658MOL0     H88766   1.705   7.129   9.209 -2.2130 -1.3591  0.4798
  658MOL0     H88767   1.755   7.110   9.443  0.2981 -1.1657  0.2217
  658MOL0     H88768   1.897   7.156   9.346  0.9618  1.1558  6.1484
  658MOL0     H88769   1.929   6.879   9.389  1.1849  0.2682  0.1527
  658MOL0     H88770   1.832   6.920   9.533 -0.5806  0.6205  0.5942
  658MOL0     H88771   2.083   6.941   9.556 -1.2955 -1.1557 -1.3018
  658MOL0     H88772   2.069   7.086   9.458  0.2836  1.7658  0.4963
  658MOL0     H88773   1.880   7.165   9.615  0.6082 -0.0018 -0.5791
  658MOL0     H88774   1.902   7.024   9.717 -1.5705 -0.1931 -1.6857
  658MOL0     H88775   2.127   7.093   9.777 -0.4148 -1.4533 -2.0202
  658MOL0     H88776   2.122   7.220   9.649 -1.1733 -2.3435 -1.5302
  658MOL0     H88777   1.941   7.206   9.904 -1.6621  0.5201 -1.2044
  658MOL0     H88778   1.925   7.320   9.772  0.9297  0.0849 -2.8698
  658MOL0     H88779   2.170   7.397   9.819  0.9617 -2.0411  0.1586
  658MOL0     H88780   2.045   7.453   9.930 -3.3465 -1.1406 -0.3909
  658MOL0     H88781   2.219   7.479  10.128 -2.6375  0.6776 -2.4329
  658MOL0     H88782   2.450   7.290  10.295  0.8890  0.6957  2.6672
  658MOL0     H88783   2.337   7.419  10.333  1.5072 -0.0791 -1.9594
  658MOL0     H88784   2.258   7.290  10.517 -2.3381  0.6638 -0.5440
  658MOL0     H88785   2.194   7.179  10.399 -1.0304  0.2937  0.4797
  658MOL0     H88786   2.422   7.069  10.386  1.1384  0.2449  0.4103
  658MOL0     H88787   2.340   7.045  10.532  1.8850 -0.0640  0.0369
  658MOL0     H88788   2.456   7.243  10.627  0.3030 -0.6929 -0.6832
  658MOL0     H88789   2.549   7.275  10.486 -0.0052 -1.0463 -0.3422
  658MOL0     H88790   2.751   7.287  10.415  0.3313  0.7109  0.8193
  658MOL0     H88791   2.949   7.377  10.436 -0.5593 -0.1068 -0.4835
  658MOL0     H88792   3.439   7.277  10.742  0.5584 -0.0958 -0.0625
  658MOL0     H88793   3.630   7.435  10.795 -0.0027  0.7415  2.2610
  658MOL0     H88794   3.534   7.831  10.966 -1.6174 -0.8290 -0.4555
  658MOL0     H88795   3.552   7.716  11.109 -0.7699  2.3731  0.8008
  658MOL0     H88796   3.797   7.740  11.087 -0.2606 -0.2712 -1.9657
  658MOL0     H88797   3.777   7.877  10.985  1.4279 -0.5679 -0.7445
  658MOL0     H88798   3.632   7.970  11.182 -0.3813 -0.3530 -3.5149
  658MOL0     H88799   3.695   7.838  11.277  1.1661 -0.1977  0.2169
  658MOL0     H88800   3.846   8.064  11.135 -1.1851  1.9016  1.8223
  658MOL0     H88801   3.925   7.940  11.237  1.7199  2.0031 -1.6075
  658MOL0     H88802   3.766   8.024  11.424 -1.8475 -0.5762 -1.1160
  658MOL0     H88803   3.718   8.148  11.310  0.3608 -2.0893 -1.5201
  658MOL0     H88804   3.944   8.247  11.313 -1.1531 -2.0950 -2.8204
  658MOL0     H88805   3.857   8.227  11.474 -1.8604 -5.0077  1.4238
  658MOL0     H88806   4.107   8.178  11.507  0.7252  0.1920  0.1508
  658MOL0     H88807   4.106   8.081  11.358 -0.6145  2.1707 -1.2881
  658MOL0     H88808   3.949   7.921  11.496  1.2357 -0.7824 -0.0631
  658MOL0     H88809   4.111   7.946  11.576  1.1190  0.1440 -0.7908
  658MOL0     H88810   3.354   7.722  10.921 -1.9555 -0.6846 -2.6793
  658MOL0     H88811   3.172   7.558  10.905  0.9061  0.8299 -0.6412
  658MOL0     H88812   2.994   7.175  10.823 -0.6810 -0.1264 -0.2013
  658MOL0     H88813   2.781   7.057  10.771  0.5822  0.8070  2.1845
  658MOL0     H88814   1.538   6.846   9.060  1.7654  2.1485 -0.9010
  658MOL0     H88815   1.309   6.905   8.980 -2.7167  0.3872  0.6247
  658MOL0     H88816   0.945   7.192   9.196  0.8074  1.4036  0.7522
  658MOL0     H88817   0.739   7.295   9.173 -0.2306  0.1268 -0.4101
  658MOL0     H88818   0.572   7.198   8.841 -2.5135 -1.2385  1.7604
  658MOL0     H88819   0.459   7.331   8.802  0.0938  0.1304  0.2068
  658MOL0     H88820   0.519   7.222   9.078 -2.9965  1.8459  3.3863
  658MOL0     H88821   0.402   7.137   8.964  0.4026 -0.5605 -1.4820
  658MOL0     H88822   0.275   7.245   9.120 -0.9271 -2.4500 -3.1795
  658MOL0     H88823   0.252   7.343   8.984  1.0031  0.9508 -0.7767
  658MOL0     H88824   0.445   7.404   9.213  1.9737  3.5520 -0.2916
  658MOL0     H88825   0.439   7.507   9.071 -0.9442 -2.2592 -2.2889
  658MOL0     H88826   0.096   7.620   9.303 -0.1461 -2.7097  2.4671
  658MOL0     H88827   0.790   7.359   8.753  0.3576  0.9060 -0.7695
  658MOL0     H88828   1.124   7.212   8.736  0.9425  0.0457  0.8064
  658MOL0     H88829   1.005   7.317   8.661 -0.0268 -0.6028  0.2237
  658MOL0     H88830   1.122   7.385   8.771 -1.0438  0.0288  5.3229
  659MOL0     O88831   3.861   7.350   9.008 -0.1315  0.2859  0.1987
  659MOL0     C88832   3.806   7.352   9.113  1.1218 -0.2483 -0.5807
  659MOL0     O88833   3.861   7.381   9.235 -0.7635  0.1349 -0.1783
  659MOL0     C88834   3.995   7.377   9.266 -0.6190 -0.2261  0.8837
  659MOL0     C88835   4.091   7.314   9.185 -0.4999 -0.0076 -0.1833
  659MOL0     C88836   4.225   7.316   9.221  0.2840 -0.8373 -0.4748
  659MOL0     C88837   4.261   7.370   9.341 -0.3223  0.0471 -0.3263
  659MOL0     O88838   4.392   7.345   9.369  0.5632  0.2100  0.4027
  659MOL0     C88839   4.440   7.383   9.498 -0.7731 -0.3601  0.5328
  659MOL0     C88840   4.599   7.376   9.522  0.1007  0.7266 -0.2879
  659MOL0     C88841   4.647   7.225   9.553  0.0815 -0.8883 -0.6385
  659MOL0     C88842   4.792   7.220   9.601 -0.2638 -0.2864 -0.2565
  659MOL0     C88843   4.896   7.284   9.508 -0.0431 -0.2158 -0.2660
  659MOL0     C88844   5.046   7.263   9.564  0.3074  0.3002  0.1078
  659MOL0     C88845   5.131   7.301   9.445  0.0457 -0.1257  0.0192
  659MOL0     C88846   5.274   7.334   9.495 -0.4378  1.1230 -0.0422
  659MOL0     N88847   5.284   7.443   9.594  0.4365  0.4184  0.9470
  659MOL0     C88848   5.365   7.443   9.703  0.5516  0.1312  0.0496
  659MOL0     C88849   5.387   7.573   9.728 -0.1357  0.5762 -0.4716
  659MOL0     C88850   5.502   7.612   9.819  0.4985  0.5940  0.4924
  659MOL0     C88851   5.617   7.649   9.726  0.8000  0.4750 -0.4149
  659MOL0     C88852   5.684   7.528   9.667 -0.5234  0.7227  0.3135
  659MOL0     C88853   5.800   7.563   9.571  0.4652 -0.5661 -0.2297
  659MOL0     O88854   5.925   7.594   9.642  0.2066  0.4884  0.1650
  659MOL0     C88855   6.036   7.633   9.557  0.3703  0.0154  0.4992
  659MOL0     C88856   6.153   7.656   9.622 -0.0895 -0.1764  0.1034
  659MOL0     C88857   6.270   7.691   9.551 -0.2299 -0.3138  0.4966
  659MOL0     C88858   6.266   7.691   9.409 -0.0182  0.4043 -0.4272
  659MOL0     C88859   6.388   7.722   9.335  0.0595 -0.3164 -0.1861
  659MOL0     O88860   6.506   7.689   9.402  0.1508  0.1074 -0.0535
  659MOL0     C88861   6.626   7.741   9.365  0.0776 -0.0011 -0.3919
  659MOL0     C88862   6.737   7.664   9.399 -0.9219  0.3091  0.0994
  659MOL0     C88863   6.863   7.700   9.347  1.0903  0.4235 -1.3530
  659MOL0     C88864   6.886   7.801   9.254  0.3576 -0.4635  0.0886
  659MOL0     O88865   7.017   7.811   9.201 -0.2091 -0.1477 -0.1771
  659MOL0     C88866   7.044   7.909   9.101  0.5817  0.0025  0.0500
  659MOL0     C88867   7.191   7.933   9.080  0.4448  0.1186 -0.3144
  659MOL0     C88868   7.263   7.824   8.995  0.2572  0.2467  0.9374
  659MOL0     C88869   7.372   7.878   8.904  0.7420  0.1803  0.7867
  659MOL0     C88870   7.502   7.928   8.963  0.1848  0.1311  0.3040
  659MOL0     C88871   7.585   7.969   8.835 -0.2460 -0.1830 -0.6631
  659MOL0     C88872   7.716   8.020   8.884  0.6850 -0.6068  0.2092
  659MOL0     C88873   7.812   8.062   8.770 -0.2396  0.0958  0.3872
  659MOL0    Cl88874   7.952   8.143   8.847  0.3630  0.3218 -0.3337
  659MOL0     C88875   6.777   7.881   9.225  0.5364 -1.0164  0.1254
  659MOL0     C88876   6.649   7.854   9.276  0.4451 -0.1292 -0.3714
  659MOL0     O88877   6.380   7.764   9.217 -0.3857  0.1863 -0.5419
  659MOL0     C88878   6.149   7.653   9.346  0.0761  0.9575  0.5829
  659MOL0     C88879   6.033   7.645   9.422 -0.2667  0.3460  0.0784
  659MOL0     N88880   5.309   7.648   9.647  0.4228 -0.5161 -0.4569
  659MOL0     N88881   5.251   7.573   9.569 -0.4511 -0.1360  0.3724
  659MOL0     C88882   4.168   7.428   9.426  0.7352 -0.4186  0.0755
  659MOL0     C88883   4.034   7.432   9.384 -0.0903  0.3727 -0.3055
  659MOL0     C88884   3.664   7.309   9.127 -0.1304  0.5029  0.7063
  659MOL0     C88885   3.621   7.273   9.254 -0.2286  1.4427 -0.1280
  659MOL0     C88886   3.492   7.226   9.274  0.5047  0.4305  0.4529
  659MOL0     C88887   3.397   7.224   9.176  0.5393 -0.8622  0.4738
  659MOL0     O88888   3.268   7.204   9.222  0.2100  0.1657 -0.1722
  659MOL0     C88889   3.165   7.201   9.122  0.4398  0.0445  0.2185
  659MOL0     C88890   3.040   7.131   9.171  0.7063  0.4560  0.6237
  659MOL0     C88891   2.989   7.203   9.294  0.0745  0.1210  0.2275
  659MOL0     C88892   2.877   7.127   9.358 -0.1353  0.2509  0.1126
  659MOL0     C88893   2.743   7.174   9.307 -0.6046  0.1747 -0.2158
  659MOL0     C88894   2.635   7.213   9.269 -0.7003 -0.2269  0.4946
  659MOL0     C88895   3.442   7.260   9.047  0.3228 -0.5826 -0.1795
  659MOL0     C88896   3.568   7.303   9.022  0.3602  0.3258  0.2461
  659MOL0     C88897   3.599   7.353   8.880 -0.5685 -0.3663 -0.1702
  659MOL0     H88898   4.069   7.269   9.089 -0.9430 -0.0987 -0.0417
  659MOL0     H88899   4.305   7.278   9.159  0.9442  1.5579 -1.2055
  659MOL0     H88900   4.403   7.482   9.524 -0.8980 -0.8369  2.3050
  659MOL0     H88901   4.392   7.316   9.570  0.1783 -1.4997  0.1386
  659MOL0     H88902   4.625   7.431   9.613 -0.4091 -0.5421  0.6451
  659MOL0     H88903   4.654   7.422   9.440 -1.1363  2.6515 -0.0981
  659MOL0     H88904   4.628   7.167   9.462  0.5466  1.6921 -2.4845
  659MOL0     H88905   4.583   7.182   9.630 -2.3873  1.8085 -1.0076
  659MOL0     H88906   4.808   7.267   9.698  1.7071 -2.5016  0.5881
  659MOL0     H88907   4.818   7.116   9.623  1.8983  0.8157  3.1105
  659MOL0     H88908   4.889   7.235   9.411 -0.5868  0.2174 -0.4460
  659MOL0     H88909   4.867   7.389   9.499 -0.8480 -0.3971  0.1683
  659MOL0     H88910   5.080   7.317   9.653  1.9932 -1.7281  0.7607
  659MOL0     H88911   5.049   7.156   9.588 -2.5809  0.4652  1.7055
  659MOL0     H88912   5.082   7.383   9.393 -2.9489 -1.0870  1.1249
  659MOL0     H88913   5.155   7.218   9.377  1.9639  0.8181 -0.5232
  659MOL0     H88914   5.311   7.241   9.539 -1.4914  0.6863 -0.0743
  659MOL0     H88915   5.334   7.356   9.406 -1.3714 -0.2576 -1.0369
  659MOL0     H88916   5.417   7.363   9.754 -1.4240 -0.5671  1.0576
  659MOL0     H88917   5.484   7.701   9.880  0.0380 -0.0876  1.3736
  659MOL0     H88918   5.537   7.531   9.884  1.3310 -0.0563 -0.7202
  659MOL0     H88919   5.578   7.714   9.647 -0.1550  4.3991  2.9543
  659MOL0     H88920   5.684   7.712   9.784  0.5051  0.3773  0.0376
  659MOL0     H88921   5.603   7.474   9.616 -1.7846  2.5126  0.3240
  659MOL0     H88922   5.726   7.464   9.745 -0.3525 -0.0204 -0.3748
  659MOL0     H88923   5.777   7.657   9.521  0.9992  1.2914  2.7166
  659MOL0     H88924   5.822   7.488   9.494 -0.3161 -1.1325  0.0812
  659MOL0     H88925   6.148   7.659   9.730 -0.6685 -0.3100  0.0849
  659MOL0     H88926   6.363   7.707   9.604  0.4121  2.5921 -1.2796
  659MOL0     H88927   6.736   7.573   9.459 -1.3708  2.3845  3.5387
  659MOL0     H88928   6.944   7.637   9.382 -0.3203 -0.1765  1.0674
  659MOL0     H88929   6.991   7.872   9.013 -1.6302 -2.3726  2.2124
  659MOL0     H88930   6.988   8.000   9.125 -2.3796 -1.1781 -1.7911
  659MOL0     H88931   7.197   8.033   9.035 -1.9853  0.3421 -0.2860
  659MOL0     H88932   7.239   7.926   9.178  1.0441  0.2960 -0.5886
  659MOL0     H88933   7.312   7.747   9.054  1.1448 -0.7289 -0.9893
  659MOL0     H88934   7.191   7.773   8.930 -0.3218  3.2575 -1.0274
  659MOL0     H88935   7.333   7.965   8.851 -0.8738 -1.1223 -0.2794
  659MOL0     H88936   7.390   7.806   8.822  0.9423  1.1236 -0.0169
  659MOL0     H88937   7.549   7.857   9.032 -1.0992  0.9445  2.1003
  659MOL0     H88938   7.487   8.015   9.028 -1.0680  0.4392 -0.3601
  659MOL0     H88939   7.600   7.873   8.783  0.6195 -1.0182  1.0390
  659MOL0     H88940   7.528   8.034   8.768 -0.6625 -1.3390 -1.4774
  659MOL0     H88941   7.762   7.947   8.950 -1.2110 -0.9356  1.2529
  659MOL0     H88942   7.702   8.113   8.939  1.2213 -0.9050  0.8457
  659MOL0     H88943   7.849   7.973   8.718 -0.4755  0.9960 -1.3942
  659MOL0     H88944   7.761   8.116   8.690 -1.6475 -0.6840  0.7374
  659MOL0     H88945   6.781   7.956   9.147  0.3751 -1.6390 -0.4929
  659MOL0     H88946   6.568   7.918   9.244 -2.7046 -2.9249  1.3302
  659MOL0     H88947   6.140   7.646   9.238  1.9495 -1.1217  0.4756
  659MOL0     H88948   5.937   7.633   9.373 -0.6805 -2.4983  1.4120
  659MOL0     H88949   4.189   7.461   9.527 -2.8729  2.8628 -0.0511
  659MOL0     H88950   3.968   7.492   9.445 -0.4420 -0.2685 -0.0549
  659MOL0     H88951   3.683   7.268   9.342  0.3592 -0.5085 -0.6079
  659MOL0     H88952   3.474   7.182   9.372 -0.2063 -1.0251 -0.2879
  659MOL0     H88953   3.192   7.136   9.038 -1.9608 -1.0471  0.2063
  659MOL0     H88954   3.143   7.304   9.090 -0.4427  0.0020  0.6608
  659MOL0     H88955   3.061   7.026   9.193  1.2724  0.7587  1.6424
  659MOL0     H88956   2.961   7.153   9.099  0.5647  3.8844  1.6539
  659MOL0     H88957   2.950   7.305   9.280  3.7051  1.5051 -0.8825
  659MOL0     H88958   3.072   7.205   9.365  0.5021  3.9669 -0.1511
  659MOL0     H88959   2.879   7.023   9.326 -0.3932  0.6637 -1.3392
  659MOL0     H88960   2.877   7.149   9.465  0.0061  1.0186 -0.0374
  659MOL0     H88961   2.540   7.251   9.235 -0.0115  0.6630 -0.4909
  659MOL0     H88962   3.374   7.254   8.962  0.0813 -0.7547  0.0244
  659MOL0     H88963   3.522   7.328   8.806  0.0481 -1.5300 -0.4530
  659MOL0     H88964   3.616   7.459   8.899  0.6703 -0.7244  0.7954
  659MOL0     H88965   3.693   7.313   8.841  0.0189 -1.3248  2.1033
  660MOL0     O88966   0.018   1.156   0.866  0.4200  0.3959  0.3648
  660MOL0     C88967   0.039   1.037   0.846  0.3910 -0.7837  0.6144
  660MOL0     O88968  -0.046   0.941   0.811 -0.4358 -0.0999 -0.1791
  660MOL0     C88969  -0.184   0.957   0.834  0.1131 -0.2897  0.7458
  660MOL0     C88970  -0.270   0.873   0.774  0.0332  0.5792 -0.4592
  660MOL0     C88971  -0.412   0.869   0.790  0.1463  0.4416 -0.8875
  660MOL0     C88972  -0.463   0.946   0.898  0.2989 -0.1341 -0.3405
  660MOL0     O88973  -0.596   0.937   0.922 -0.0717 -0.4691  0.0947
  660MOL0     C88974  -0.645   1.007   1.041 -0.1088 -0.3919  1.3113
  660MOL0     C88975  -0.791   0.984   1.064  0.2257 -0.5233  0.0756
  660MOL0     C88976  -0.838   1.011   1.199 -0.0669 -0.2545 -0.1287
  660MOL0     C88977  -0.986   0.976   1.229 -0.7679 -0.7789  0.3392
  660MOL0     C88978  -1.027   0.961   1.379  0.6353  0.2575 -0.2860
  660MOL0     C88979  -1.185   0.933   1.394  0.3676 -0.0372 -0.3069
  660MOL0     C88980  -1.262   1.066   1.404 -0.4476  0.7928  0.3131
  660MOL0     C88981  -1.222   1.150   1.528 -0.2095  0.0327 -0.8864
  660MOL0     N88982  -1.323   1.261   1.539  0.1087  0.5482  0.7247
  660MOL0     C88983  -1.437   1.256   1.604  0.9361 -0.4081  1.1655
  660MOL0     C88984  -1.490   1.378   1.591 -1.0181  0.2032  0.3716
  660MOL0     C88985  -1.613   1.428   1.669 -0.4867 -0.1819  0.6213
  660MOL0     C88986  -1.679   1.549   1.601  1.1272 -0.2298 -0.0873
  660MOL0     C88987  -1.783   1.638   1.684 -1.1466 -0.0655  0.6866
  660MOL0     C88988  -1.712   1.767   1.727 -1.0561  0.0096 -0.4604
  660MOL0     O88989  -1.610   1.743   1.829  0.2158 -0.3527 -0.3732
  660MOL0     C88990  -1.575   1.853   1.914 -0.4147  0.4827  0.1227
  660MOL0     C88991  -1.642   1.967   1.944  0.1656 -0.7804 -0.0463
  660MOL0     C88992  -1.599   2.070   2.027 -0.1210  0.2280 -0.0171
  660MOL0     C88993  -1.476   2.048   2.086 -0.4661  0.0787 -0.5688
  660MOL0     C88994  -1.426   2.166   2.164 -0.1715  0.0875  0.1130
  660MOL0     O88995  -1.295   2.188   2.148  0.1597  0.0697 -0.6676
  660MOL0     C88996  -1.238   2.284   2.225  0.2231 -0.8804  0.4597
  660MOL0     C88997  -1.282   2.422   2.215 -0.1479  0.0388 -0.5883
  660MOL0     C88998  -1.216   2.529   2.281 -0.8749 -0.3206  0.3645
  660MOL0     C88999  -1.098   2.492   2.336 -1.2297 -0.2095 -0.1327
  660MOL0     O89000  -1.034   2.588   2.412  0.0284 -0.3689  0.0153
  660MOL0     C89001  -0.972   2.706   2.344 -0.4610  0.1903 -0.1069
  660MOL0     C89002  -0.820   2.702   2.359 -0.2227  0.6555  0.5774
  660MOL0     C89003  -0.768   2.658   2.503  0.7878  0.2689  0.0790
  660MOL0     C89004  -0.612   2.698   2.506  0.2720  0.4119 -0.2050
  660MOL0     C89005  -0.550   2.640   2.632  0.2100 -0.6993 -0.1753
  660MOL0     C89006  -0.399   2.667   2.640 -0.6097 -0.0029 -0.6551
  660MOL0     C89007  -0.338   2.638   2.782 -0.0164  0.2002  0.5532
  660MOL0     C89008  -0.190   2.678   2.787  0.2156  0.1545 -0.2976
  660MOL0    Cl89009  -0.109   2.586   2.921  0.2149 -0.6203  0.4878
  660MOL0     C89010  -1.041   2.362   2.334 -0.2434 -0.3009 -0.7793
  660MOL0     C89011  -1.113   2.253   2.288  0.9784 -0.0909  0.0665
  660MOL0     O89012  -1.507   2.230   2.233  0.1213  0.2433 -0.1470
  660MOL0     C89013  -1.399   1.926   2.066 -0.5839  0.2510 -0.1870
  660MOL0     C89014  -1.456   1.834   1.986  0.2611  0.1257 -0.3218
  660MOL0     N89015  -1.415   1.447   1.492 -0.2511  0.8197  0.4305
  660MOL0     N89016  -1.316   1.365   1.459  0.2481 -0.9404 -0.2436
  660MOL0     C89017  -0.373   1.035   0.970  0.0067 -0.2175  0.1226
  660MOL0     C89018  -0.238   1.038   0.937  0.5284 -0.4035  0.4451
  660MOL0     C89019   0.181   1.002   0.814  0.0753 -0.1133  0.1481
  660MOL0     C89020   0.277   1.038   0.910  0.3041 -0.4439  1.3226
  660MOL0     C89021   0.410   1.010   0.884 -0.0360  0.7898 -0.4129
  660MOL0     C89022   0.451   0.944   0.769 -0.5497 -0.6228  0.1534
  660MOL0     O89023   0.583   0.902   0.764 -0.4670  0.2517 -0.3144
  660MOL0     C89024   0.652   0.883   0.635  0.1134 -0.1049  0.1068
  660MOL0     C89025   0.775   0.978   0.618  0.2259 -0.5922 -0.3424
  660MOL0     C89026   0.853   0.996   0.748 -0.3526 -0.6373  0.1079
  660MOL0     C89027   0.982   1.086   0.717  0.0689 -0.0367 -0.3235
  660MOL0     C89028   1.057   1.114   0.839  0.2733 -0.5039 -1.3188
  660MOL0     C89029   1.130   1.118   0.934 -0.5073 -0.6689  0.6747
  660MOL0     C89030   0.354   0.911   0.673  0.4358  0.0681  0.1466
  660MOL0     C89031   0.220   0.948   0.689  0.0901 -0.2615  0.2138
  660MOL0     C89032   0.118   0.922   0.575  0.0167  0.0417  0.4083
  660MOL0     H89033  -0.219   0.815   0.698  3.2786  2.8460 -0.2471
  660MOL0     H89034  -0.479   0.808   0.730 -0.1294 -2.1783  1.8562
  660MOL0     H89035  -0.592   0.978   1.133  1.7035 -0.0774  0.4188
  660MOL0     H89036  -0.640   1.116   1.038  1.3053 -0.4520 -2.0129
  660MOL0     H89037  -0.816   0.883   1.028  0.6547 -1.1729  1.5476
  660MOL0     H89038  -0.851   1.040   0.991 -0.0376 -3.6692 -2.3449
  660MOL0     H89039  -0.832   1.119   1.211 -0.6657 -0.0546 -1.5241
  660MOL0     H89040  -0.778   0.956   1.273 -0.1511 -2.1120 -1.3741
  660MOL0     H89041  -1.062   1.036   1.178  0.0819 -0.3651 -0.4811
  660MOL0     H89042  -1.009   0.878   1.187 -1.1661  0.1758 -1.8217
  660MOL0     H89043  -0.974   0.874   1.418 -2.1042 -1.0861  0.7012
  660MOL0     H89044  -0.985   1.050   1.427  0.9999  0.2145 -0.5176
  660MOL0     H89045  -1.225   0.887   1.303  0.7586  1.0805 -1.0759
  660MOL0     H89046  -1.200   0.872   1.483  2.9831 -0.7085 -0.2485
  660MOL0     H89047  -1.368   1.042   1.417 -0.5761  1.1894  0.0122
  660MOL0     H89048  -1.248   1.130   1.316 -2.1516  0.7983  0.0058
  660MOL0     H89049  -1.205   1.097   1.622 -1.5758  0.5375 -0.3290
  660MOL0     H89050  -1.123   1.194   1.510  0.8424 -0.9648  1.8963
  660MOL0     H89051  -1.465   1.183   1.679 -0.6534  0.8191  1.8335
  660MOL0     H89052  -1.690   1.352   1.685 -2.4658  0.8516 -2.8935
  660MOL0     H89053  -1.581   1.467   1.767 -2.4097 -2.1447  2.1334
  660MOL0     H89054  -1.596   1.605   1.559  1.0531  0.2106  0.3422
  660MOL0     H89055  -1.738   1.514   1.515 -0.0635  2.1006 -0.2840
  660MOL0     H89056  -1.819   1.584   1.772  1.8880 -1.5866  1.1177
  660MOL0     H89057  -1.865   1.660   1.615  0.6714 -0.9374 -1.9102
  660MOL0     H89058  -1.787   1.830   1.777  1.3425 -0.2198  3.8671
  660MOL0     H89059  -1.661   1.816   1.643 -1.6272  0.4656 -0.5536
  660MOL0     H89060  -1.734   1.983   1.889  0.5144 -1.5233 -0.8664
  660MOL0     H89061  -1.654   2.164   2.029  0.2671  0.5055 -1.3288
  660MOL0     H89062  -1.377   2.442   2.165  0.7388  1.3925 -1.8316
  660MOL0     H89063  -1.253   2.631   2.284  2.8125  1.1552  1.1630
  660MOL0     H89064  -0.993   2.705   2.237  0.9312 -0.5516 -0.3989
  660MOL0     H89065  -1.004   2.804   2.382  1.8528  0.3607  1.6076
  660MOL0     H89066  -0.785   2.639   2.276 -0.4588 -0.2010  1.1087
  660MOL0     H89067  -0.787   2.804   2.338 -1.1876  0.7673 -0.5089
  660MOL0     H89068  -0.817   2.727   2.573  0.4077  0.8567 -0.7402
  660MOL0     H89069  -0.775   2.553   2.530 -0.1476 -0.1435 -1.6107
  660MOL0     H89070  -0.603   2.807   2.502 -1.7137  0.6350  0.4281
  660MOL0     H89071  -0.563   2.660   2.415  0.2059  1.2879 -0.6169
  660MOL0     H89072  -0.572   2.536   2.656 -0.6780 -0.9030 -1.7825
  660MOL0     H89073  -0.599   2.688   2.717  1.0718  1.0881 -0.6290
  660MOL0     H89074  -0.334   2.629   2.561 -0.4143 -1.6148  0.2563
  660MOL0     H89075  -0.386   2.776   2.631  1.7468 -0.2199 -0.5200
  660MOL0     H89076  -0.336   2.529   2.793  0.5438  0.1921  0.4286
  660MOL0     H89077  -0.389   2.689   2.864  0.8881  0.4361  0.9778
  660MOL0     H89078  -0.146   2.671   2.687  1.8280  0.4837  0.3577
  660MOL0     H89079  -0.189   2.784   2.816  2.1109 -0.5487  2.4974
  660MOL0     H89080  -0.947   2.330   2.377 -1.3232 -0.7891  1.3589
  660MOL0     H89081  -1.083   2.149   2.299  0.4316 -0.3281 -0.6121
  660MOL0     H89082  -1.299   1.906   2.103 -0.2818 -0.6624 -1.4139
  660MOL0     H89083  -1.405   1.738   1.973  0.6440  0.2628  0.1160
  660MOL0     H89084  -0.421   1.108   1.035  0.1289  0.4145 -0.4863
  660MOL0     H89085  -0.176   1.103   0.997  2.5337  0.0302 -1.9053
  660MOL0     H89086   0.250   1.074   1.009  0.4785 -1.3411  1.7064
  660MOL0     H89087   0.477   1.032   0.967 -1.5481  2.0097  0.5466
  660MOL0     H89088   0.577   0.892   0.556  0.4763  0.5355 -0.1776
  660MOL0     H89089   0.706   0.788   0.632  0.8573  0.3037 -2.5279
  660MOL0     H89090   0.739   1.069   0.569 -3.9622 -2.8447 -1.9381
  660MOL0     H89091   0.847   0.921   0.559  0.1515 -3.0115  1.7188
  660MOL0     H89092   0.891   0.900   0.783 -1.3687 -0.5975  1.3788
  660MOL0     H89093   0.792   1.043   0.825 -3.0722 -1.0348 -1.6644
  660MOL0     H89094   1.058   1.049   0.647  0.6194  0.6783 -0.1195
  660MOL0     H89095   0.944   1.183   0.682  0.5025  0.9202  1.7170
  660MOL0     H89096   1.198   1.113   1.018 -0.2663 -2.8787  0.4084
  660MOL0     H89097   0.370   0.858   0.580 -2.1080  0.4344 -0.5618
  660MOL0     H89098   0.050   1.007   0.566  2.6298  2.1643 -0.3743
  660MOL0     H89099   0.170   0.915   0.480 -1.6468 -0.0616 -0.5304
  660MOL0     H89100   0.065   0.828   0.595 -0.2718  0.0673 -0.2372
  661MOL0     O89101   9.343   9.480   7.976 -0.4625 -0.8726  0.5064
  661MOL0     C89102   9.248   9.434   7.919  0.5347  0.1767  0.9636
  661MOL0     O89103   9.242   9.345   7.815 -0.8146 -0.6641  0.0798
  661MOL0     C89104   9.356   9.332   7.741 -0.3282  0.6755  0.3033
  661MOL0     C89105   9.384   9.405   7.625 -0.1364 -0.2354  0.1692
  661MOL0     C89106   9.505   9.386   7.561  0.1816 -0.4083 -0.1581
  661MOL0     C89107   9.599   9.286   7.603 -0.4372  0.5586 -0.5065
  661MOL0     O89108   9.729   9.274   7.551 -0.0504  0.5233  0.2731
  661MOL0     C89109   9.760   9.371   7.449  0.1803  0.6295  0.2803
  661MOL0     C89110   9.897   9.342   7.392  1.1066 -0.4523 -0.1310
  661MOL0     C89111   9.939   9.438   7.287  0.2413 -0.2832  0.5838
  661MOL0     C89112  10.058   9.382   7.199  0.0201 -0.4588  0.4143
  661MOL0     C89113  10.104   9.464   7.084  0.2332  0.7578 -0.0750
  661MOL0     C89114  10.004   9.544   7.003  0.4561  0.2803  0.6220
  661MOL0     C89115   9.897   9.463   6.933 -0.1874  0.6276 -0.0832
  661MOL0     C89116   9.954   9.388   6.811  0.6224  0.2071 -0.4286
  661MOL0     N89117   9.985   9.467   6.702  0.1656  0.6425  0.7659
  661MOL0     C89118   9.883   9.498   6.609 -0.9569  0.2078  0.0232
  661MOL0     C89119   9.948   9.560   6.507  0.1051  0.5682 -0.0411
  661MOL0     C89120   9.864   9.606   6.388 -0.5103 -0.4467 -0.2247
  661MOL0     C89121   9.962   9.598   6.270 -0.3205  0.2359  0.1829
  661MOL0     C89122   9.887   9.637   6.152  0.3675 -0.7821 -0.3747
  661MOL0     C89123   9.986   9.640   6.033  0.1906  0.3949  0.9247
  661MOL0     O89124  10.042   9.509   6.005  0.8218  0.0581  0.1933
  661MOL0     C89125  10.181   9.510   5.990  0.7993 -0.3727 -0.7083
  661MOL0     C89126  10.253   9.593   5.901 -0.2663 -0.4510  0.5885
  661MOL0     C89127  10.389   9.589   5.895 -0.1424  0.0703  0.0469
  661MOL0     C89128  10.464   9.516   5.989  0.0491  1.2253  0.2522
  661MOL0     C89129  10.615   9.501   5.988 -0.5508 -1.3285  0.3953
  661MOL0     O89130  10.667   9.425   6.080  0.2777  0.6533 -0.3270
  661MOL0     C89131  10.801   9.443   6.111 -0.1511  0.4606  0.0605
  661MOL0     C89132  10.880   9.343   6.057 -2.0720 -0.1383  0.6007
  661MOL0     C89133  11.022   9.365   6.063  0.5704 -1.2819 -0.1917
  661MOL0     C89134  11.078   9.480   6.128  0.5861  0.0017 -0.4332
  661MOL0     O89135  11.216   9.498   6.136  0.5004  0.5795 -0.1999
  661MOL0     C89136  11.280   9.539   6.011 -0.2863  1.2559  0.2498
  661MOL0     C89137  11.428   9.594   6.021  0.5580  0.1189  0.7143
  661MOL0     C89138  11.533   9.493   5.961  0.5464  0.0421 -0.6162
  661MOL0     C89139  11.499   9.344   5.997 -0.9453 -0.6773  1.0577
  661MOL0     C89140  11.619   9.261   5.953  0.0292  0.6874  0.1387
  661MOL0     C89141  11.642   9.130   6.032 -0.0342  0.4829  0.2447
  661MOL0     C89142  11.540   9.022   6.030 -0.0984 -0.0522 -0.2090
  661MOL0     C89143  11.587   8.893   6.096  0.2387 -0.2820  0.5648
  661MOL0    Cl89144  11.466   8.767   6.051 -0.1466  0.0423 -0.0710
  661MOL0     C89145  10.995   9.572   6.193 -0.3161  0.2252 -0.4782
  661MOL0     C89146  10.853   9.553   6.188 -0.3521 -0.5570  0.0309
  661MOL0     O89147  10.676   9.568   5.904  0.5393  0.0299 -0.5197
  661MOL0     C89148  10.390   9.446   6.085 -1.1631 -0.3775  0.1777
  661MOL0     C89149  10.251   9.428   6.087 -0.0389 -0.8012  0.0088
  661MOL0     N89150  10.079   9.575   6.547 -0.0519  0.5761  0.0076
  661MOL0     N89151  10.108   9.525   6.667  0.6779 -0.5273  0.5876
  661MOL0     C89152   9.572   9.212   7.724  0.5101  0.4861  0.7022
  661MOL0     C89153   9.449   9.232   7.784 -0.1006  0.5437  0.1307
  661MOL0     C89154   9.117   9.473   7.971  0.2793  0.1607  0.0809
  661MOL0     C89155   9.003   9.441   7.895 -0.0417  1.3384  0.3811
  661MOL0     C89156   8.872   9.469   7.929  0.1559 -0.4242 -0.5933
  661MOL0     C89157   8.847   9.547   8.044  0.2436 -0.0133 -0.6222
  661MOL0     O89158   8.721   9.581   8.081 -0.5176  0.4187  0.4133
  661MOL0     C89159   8.610   9.490   8.063 -1.2219  0.3785  1.0893
  661MOL0     C89160   8.490   9.539   8.140  0.4594  0.7676  0.3132
  661MOL0     C89161   8.420   9.409   8.195 -0.3029 -0.1501 -0.4449
  661MOL0     C89162   8.302   9.439   8.295 -0.2093  0.1404 -0.6600
  661MOL0     C89163   8.177   9.505   8.234 -0.3807  0.0578  0.0504
  661MOL0     C89164   8.085   9.557   8.177  0.0193  0.2793 -0.0377
  661MOL0     C89165   8.956   9.594   8.116  0.0280  0.3998  0.1935
  661MOL0     C89166   9.090   9.551   8.083 -0.2334  0.1071  0.4990
  661MOL0     C89167   9.195   9.587   8.183  0.1835  0.8901 -0.0085
  661MOL0     H89168   9.305   9.471   7.591  2.8913  2.8440 -1.6222
  661MOL0     H89169   9.522   9.463   7.486  1.1824  2.1194  2.4881
  661MOL0     H89170   9.684   9.375   7.371 -0.9876  1.0042  1.3971
  661MOL0     H89171   9.760   9.469   7.498 -3.0288  0.4975  0.7172
  661MOL0     H89172   9.886   9.238   7.359 -0.6472  0.2360 -1.9572
  661MOL0     H89173   9.967   9.358   7.474 -0.4875  0.4717  1.1037
  661MOL0     H89174   9.981   9.525   7.339 -2.4350  1.1112  0.5813
  661MOL0     H89175   9.862   9.464   7.214  1.6107 -0.6043 -1.0237
  661MOL0     H89176  10.145   9.349   7.256  0.6603  0.4410 -0.0195
  661MOL0     H89177  10.026   9.286   7.158 -0.4172 -0.4411  0.7155
  661MOL0     H89178  10.174   9.539   7.123  0.5318  0.2340  0.4160
  661MOL0     H89179  10.158   9.398   7.016 -1.1717  1.3913 -1.8901
  661MOL0     H89180   9.958   9.615   7.072  0.7108 -0.8985  2.0446
  661MOL0     H89181  10.061   9.597   6.926  0.0623  0.4714  0.4594
  661MOL0     H89182   9.825   9.529   6.884 -0.7445  1.0764  1.3042
  661MOL0     H89183   9.842   9.401   7.004 -2.7073  0.9372 -1.6462
  661MOL0     H89184  10.047   9.339   6.842  2.6802  4.8857  1.7674
  661MOL0     H89185   9.871   9.326   6.775  1.2631 -1.1149  0.2762
  661MOL0     H89186   9.779   9.470   6.615 -0.4085 -1.7001  1.8686
  661MOL0     H89187   9.774   9.548   6.365 -1.1439 -0.7100  2.5594
  661MOL0     H89188   9.845   9.710   6.417  1.1449 -1.0892  3.7569
  661MOL0     H89189  10.047   9.665   6.291  0.5489 -0.3141 -1.4058
  661MOL0     H89190   9.993   9.494   6.258 -1.0441  0.0007  0.3732
  661MOL0     H89191   9.852   9.737   6.180  1.1579 -0.6110  0.0181
  661MOL0     H89192   9.805   9.569   6.126 -0.9399 -0.0242  1.5370
  661MOL0     H89193  10.063   9.715   6.055 -0.8634  1.0116  2.6296
  661MOL0     H89194   9.940   9.684   5.944  1.8879 -0.4524 -0.4399
  661MOL0     H89195  10.206   9.668   5.838  2.4470  1.7621  1.0385
  661MOL0     H89196  10.438   9.645   5.816  1.4558  0.2061  1.0984
  661MOL0     H89197  10.839   9.258   6.003  0.7376 -1.4552  0.3435
  661MOL0     H89198  11.087   9.296   6.011  0.5941 -3.7764  2.8388
  661MOL0     H89199  11.271   9.449   5.950 -2.8319 -0.2485  2.6174
  661MOL0     H89200  11.209   9.607   5.965 -0.7462  0.8524  0.3602
  661MOL0     H89201  11.423   9.690   5.969 -0.1381 -0.0946  0.3682
  661MOL0     H89202  11.452   9.623   6.123  2.1859 -0.2387  0.4676
  661MOL0     H89203  11.537   9.501   5.852 -1.4881 -0.0325 -0.7398
  661MOL0     H89204  11.624   9.525   6.013  0.1737  0.1324 -0.0165
  661MOL0     H89205  11.415   9.309   5.936  0.0324 -0.4802 -0.4609
  661MOL0     H89206  11.476   9.335   6.103  1.4417  4.1101  2.2351
  661MOL0     H89207  11.713   9.316   5.953  0.4090  0.0730 -1.2494
  661MOL0     H89208  11.599   9.245   5.847 -0.8770  1.9690  0.0867
  661MOL0     H89209  11.737   9.077   6.016 -0.9570 -1.6027  1.2200
  661MOL0     H89210  11.650   9.154   6.139  0.3648 -0.6425  0.4819
  661MOL0     H89211  11.510   8.997   5.928 -1.1203  1.9787 -0.4734
  661MOL0     H89212  11.447   9.054   6.079  1.2019 -0.1069  2.4753
  661MOL0     H89213  11.683   8.862   6.054  0.2936  2.2333 -1.4207
  661MOL0     H89214  11.599   8.910   6.203 -0.2909 -1.2014  0.7765
  661MOL0     H89215  11.025   9.639   6.272 -3.6089  0.6632  0.5329
  661MOL0     H89216  10.798   9.633   6.237  2.1636  0.2423  1.7446
  661MOL0     H89217  10.438   9.380   6.157  1.4181  2.7319  1.5492
  661MOL0     H89218  10.204   9.366   6.163 -0.2985 -3.3868 -2.1172
  661MOL0     H89219   9.646   9.148   7.771  0.1626 -0.3994  0.0797
  661MOL0     H89220   9.431   9.178   7.877 -1.3416  0.0550 -0.3646
  661MOL0     H89221   9.019   9.393   7.799  2.8609  0.5338  1.1799
  661MOL0     H89222   8.789   9.442   7.865  1.4199  1.3155 -3.1461
  661MOL0     H89223   8.645   9.395   8.103  2.3187  0.0919 -2.0449
  661MOL0     H89224   8.584   9.467   7.959  1.5555 -3.3979  1.0092
  661MOL0     H89225   8.429   9.597   8.071  1.9169  1.0558 -0.7840
  661MOL0     H89226   8.520   9.606   8.222 -0.0794  1.5873 -0.1485
  661MOL0     H89227   8.497   9.357   8.252 -0.6321 -0.3210 -0.1493
  661MOL0     H89228   8.390   9.343   8.113 -1.3363  0.3753 -0.5069
  661MOL0     H89229   8.274   9.340   8.333  0.5811  0.0066 -0.4071
  661MOL0     H89230   8.348   9.502   8.371 -2.3948  1.8381 -0.6546
  661MOL0     H89231   7.997   9.593   8.129  0.6161  2.2968  0.3145
  661MOL0     H89232   8.936   9.662   8.198 -4.2062 -1.6201  1.1008
  661MOL0     H89233   9.276   9.642   8.133 -0.9377  0.0679 -2.9005
  661MOL0     H89234   9.152   9.653   8.259  0.8740  1.7666 -0.3517
  661MOL0     H89235   9.236   9.493   8.221  0.6056  0.1793 -2.0863
  662MOL0     O89236   5.250   7.137   9.830 -0.1850  0.5056  0.2874
  662MOL0     C89237   5.292   7.068   9.922  0.6508  0.5024 -0.3443
  662MOL0     O89238   5.423   7.042   9.953  0.0065 -0.2064  0.2968
  662MOL0     C89239   5.523   7.060   9.865 -0.4389 -0.7004 -0.0678
  662MOL0     C89240   5.506   7.015   9.735 -0.2953  0.8847  0.2574
  662MOL0     C89241   5.604   7.028   9.643  0.4409 -0.2292  0.0473
  662MOL0     C89242   5.723   7.094   9.682 -0.5292 -0.1579  0.1318
  662MOL0     O89243   5.808   7.115   9.576 -0.7208  0.0297 -0.4484
  662MOL0     C89244   5.945   7.147   9.614 -0.4942  0.6626 -0.4569
  662MOL0     C89245   6.010   7.178   9.479 -0.4395  0.0107 -0.6155
  662MOL0     C89246   6.159   7.197   9.472 -1.0317 -0.6584 -0.4312
  662MOL0     C89247   6.211   7.281   9.591  0.6473  0.3501  0.1820
  662MOL0     C89248   6.345   7.340   9.583  0.1817  0.0681 -0.6518
  662MOL0     C89249   6.458   7.238   9.551  0.0898 -0.3358 -0.5641
  662MOL0     C89250   6.601   7.304   9.545  0.3485  0.1237 -0.1378
  662MOL0     C89251   6.700   7.209   9.477 -0.1936 -0.0962  0.1322
  662MOL0     N89252   6.817   7.283   9.432  0.3282 -0.0163  0.1820
  662MOL0     C89253   6.880   7.264   9.315  0.2851  0.5090 -0.2582
  662MOL0     C89254   6.999   7.315   9.338  0.7526  0.2105 -0.8550
  662MOL0     C89255   7.110   7.289   9.242  0.0821 -1.1618 -0.4640
  662MOL0     C89256   7.175   7.153   9.273 -0.2702  0.6397  0.0190
  662MOL0     C89257   7.310   7.129   9.211 -0.2103 -0.1281 -0.5458
  662MOL0     C89258   7.298   7.145   9.055 -0.4592 -0.2396 -0.4586
  662MOL0     O89259   7.296   7.274   8.999  0.0100  0.1574  0.1634
  662MOL0     C89260   7.412   7.348   8.978  0.2742  0.4389  0.0768
  662MOL0     C89261   7.520   7.292   8.900 -1.0328  0.0668  0.6489
  662MOL0     C89262   7.631   7.372   8.873 -0.8707  0.4000 -0.1727
  662MOL0     C89263   7.643   7.494   8.928  0.1445  0.6965 -0.2588
  662MOL0     C89264   7.772   7.563   8.893  0.6487 -0.2110  0.2406
  662MOL0     O89265   7.858   7.499   8.806 -0.1714 -0.6562  0.0919
  662MOL0     C89266   7.965   7.555   8.746 -0.2138  0.1093  0.5286
  662MOL0     C89267   8.065   7.465   8.708 -0.4279 -0.3357 -0.2231
  662MOL0     C89268   8.178   7.497   8.635  0.5390  0.2207  0.5835
  662MOL0     C89269   8.192   7.629   8.594  0.1499 -0.2965  0.0221
  662MOL0     O89270   8.311   7.674   8.531 -0.4992  0.7204 -1.3158
  662MOL0     C89271   8.432   7.597   8.550  0.0888  0.1878 -0.7092
  662MOL0     C89272   8.443   7.512   8.419 -0.1917  0.8593 -0.2258
  662MOL0     C89273   8.570   7.430   8.409  0.1730  0.1887 -0.2766
  662MOL0     C89274   8.690   7.503   8.345  1.0091  0.1832  0.2029
  662MOL0     C89275   8.808   7.407   8.338 -0.5338  0.4717 -0.7725
  662MOL0     C89276   8.915   7.486   8.262 -0.1604  1.0391  0.3152
  662MOL0     C89277   9.046   7.401   8.235  0.4149 -0.3295 -0.1099
  662MOL0     C89278   9.024   7.261   8.172  0.0495 -0.1068 -0.1628
  662MOL0    Cl89279   9.192   7.205   8.118 -0.1015 -0.5250  0.1446
  662MOL0     C89280   8.098   7.729   8.632 -0.5731 -0.3593  0.0310
  662MOL0     C89281   7.985   7.687   8.707 -0.2003 -0.0704 -0.4068
  662MOL0     O89282   7.791   7.671   8.943  0.2520  0.4813  0.3257
  662MOL0     C89283   7.545   7.537   9.021  0.1711 -0.1795  0.1665
  662MOL0     C89284   7.427   7.470   9.045 -0.3602 -0.2819  0.8694
  662MOL0     N89285   7.011   7.371   9.466 -0.0489  1.1760  0.4071
  662MOL0     N89286   6.891   7.357   9.521 -0.8243  1.1953  0.4313
  662MOL0     C89287   5.735   7.147   9.809 -0.9462  1.0269 -0.4032
  662MOL0     C89288   5.632   7.127   9.903  0.0016  1.0494 -0.2157
  662MOL0     C89289   5.196   7.025  10.027  0.2327 -0.1673  0.2652
  662MOL0     C89290   5.247   6.950  10.138  0.9498  0.0684 -0.0373
  662MOL0     C89291   5.170   6.898  10.241 -0.1170  0.5820  0.4808
  662MOL0     C89292   5.030   6.927  10.243  0.0261  0.2823  0.4404
  662MOL0     O89293   4.937   6.902  10.339 -0.1145 -0.4995 -0.6434
  662MOL0     C89294   4.963   6.809  10.440  0.1524 -0.0479  0.0895
  662MOL0     C89295   4.984   6.878  10.574 -0.1376 -0.0011 -0.6346
  662MOL0     C89296   4.971   6.791  10.708  0.0286 -0.0402  0.5269
  662MOL0     C89297   5.006   6.863  10.835 -0.2173 -0.0588  0.0904
  662MOL0     C89298   5.133   6.929  10.825 -0.2256 -0.5999 -0.6594
  662MOL0     C89299   5.239   6.988  10.809 -0.5206 -0.0874 -0.1310
  662MOL0     C89300   4.974   6.998  10.138  0.5917 -0.9288  1.0417
  662MOL0     C89301   5.048   7.050  10.025 -0.1456 -0.4568 -0.2450
  662MOL0     C89302   4.978   7.119   9.915  0.1727 -1.3074  0.4983
  662MOL0     H89303   5.411   6.973   9.702  1.6419 -2.8092 -1.2302
  662MOL0     H89304   5.592   7.001   9.539 -0.5789 -0.0635  0.1139
  662MOL0     H89305   5.953   7.235   9.679 -1.9776 -0.2898  1.1024
  662MOL0     H89306   5.992   7.066   9.670 -2.2739 -0.2277 -0.1974
  662MOL0     H89307   5.958   7.264   9.435 -0.0793 -0.3507 -1.7890
  662MOL0     H89308   5.995   7.090   9.416 -2.5398  1.1326 -1.7843
  662MOL0     H89309   6.185   7.249   9.379 -0.6645 -1.0659 -0.5582
  662MOL0     H89310   6.204   7.098   9.476  0.6629  0.1163  0.6931
  662MOL0     H89311   6.138   7.361   9.607  0.7106  0.4151  0.1478
  662MOL0     H89312   6.210   7.215   9.677  1.9339 -0.0798 -0.1095
  662MOL0     H89313   6.339   7.430   9.520  0.6406  1.5726  1.3687
  662MOL0     H89314   6.371   7.388   9.678 -0.4316 -3.3573  1.3867
  662MOL0     H89315   6.469   7.163   9.629  0.6411  2.3310  2.0847
  662MOL0     H89316   6.431   7.186   9.458  4.4975  1.8870 -3.4538
  662MOL0     H89317   6.615   7.329   9.651 -2.5162  1.5420  0.0182
  662MOL0     H89318   6.597   7.402   9.497 -2.5184 -0.2153 -0.7686
  662MOL0     H89319   6.732   7.130   9.545  0.0952  0.8608  1.1273
  662MOL0     H89320   6.655   7.152   9.395  0.8854 -1.6794  0.5905
  662MOL0     H89321   6.836   7.199   9.240  1.3947  1.1072 -1.4701
  662MOL0     H89322   7.074   7.282   9.139  1.1820  2.8610 -1.2971
  662MOL0     H89323   7.185   7.366   9.261 -1.6390  0.4229  0.1141
  662MOL0     H89324   7.193   7.150   9.381 -0.5350  0.0524  0.0545
  662MOL0     H89325   7.114   7.066   9.244  1.9978 -1.0585  0.0264
  662MOL0     H89326   7.345   7.028   9.234  1.2013  0.6577  0.9527
  662MOL0     H89327   7.385   7.193   9.258 -0.7013 -0.8545  1.3139
  662MOL0     H89328   7.206   7.091   9.033 -1.7329 -0.1012  3.6997
  662MOL0     H89329   7.383   7.084   9.022  0.4179 -0.1381  1.4943
  662MOL0     H89330   7.512   7.194   8.856  1.0017 -0.6869  1.8511
  662MOL0     H89331   7.698   7.327   8.801 -2.4167  1.5242 -2.4407
  662MOL0     H89332   8.048   7.358   8.719 -0.8798 -0.3558 -1.0040
  662MOL0     H89333   8.235   7.422   8.581 -0.9603  0.5190 -1.5740
  662MOL0     H89334   8.515   7.666   8.564  0.5136 -0.8565  2.6472
  662MOL0     H89335   8.432   7.528   8.634  1.1594 -1.1062 -1.7224
  662MOL0     H89336   8.356   7.445   8.410  0.8638 -0.6098  0.1611
  662MOL0     H89337   8.439   7.583   8.335  0.5335 -0.4243 -1.3866
  662MOL0     H89338   8.594   7.405   8.513 -0.3581  1.7601  0.2463
  662MOL0     H89339   8.552   7.336   8.355 -0.4737 -0.4322  0.9817
  662MOL0     H89340   8.714   7.586   8.412 -3.7358  0.8313  1.4123
  662MOL0     H89341   8.653   7.532   8.246 -0.5887 -0.5590  0.5654
  662MOL0     H89342   8.783   7.317   8.282 -3.1391  1.5548 -1.4904
  662MOL0     H89343   8.838   7.390   8.442 -0.9981  0.4264 -0.6435
  662MOL0     H89344   8.875   7.510   8.163  2.1229 -0.0078 -0.9528
  662MOL0     H89345   8.936   7.583   8.307 -0.2185  0.9241  0.5984
  662MOL0     H89346   9.086   7.388   8.335  0.0462  0.9700  0.2310
  662MOL0     H89347   9.116   7.465   8.179  1.8930 -1.4225  0.4364
  662MOL0     H89348   8.990   7.192   8.250  1.5918 -0.2866  0.3953
  662MOL0     H89349   8.951   7.272   8.092 -1.2615  0.5767  1.0874
  662MOL0     H89350   8.111   7.832   8.600  0.7265  1.0423  4.3003
  662MOL0     H89351   7.907   7.759   8.729 -1.6849 -1.6428 -0.2840
  662MOL0     H89352   7.563   7.619   9.090  1.9577 -1.3513  1.1844
  662MOL0     H89353   7.351   7.511   9.112  0.1736 -0.5243  1.6393
  662MOL0     H89354   5.826   7.197   9.843 -1.5500  0.6558  1.8984
  662MOL0     H89355   5.632   7.169  10.003 -3.8153 -0.4628  0.5749
  662MOL0     H89356   5.352   6.937  10.158  0.8011  2.2880  2.8397
  662MOL0     H89357   5.214   6.845  10.324  1.8233 -2.3847 -2.1859
  662MOL0     H89358   5.046   6.740  10.420 -0.2928 -0.2012 -1.3900
  662MOL0     H89359   4.871   6.750  10.450  0.0587 -0.2029 -1.4341
  662MOL0     H89360   4.929   6.971  10.594  2.9215  1.3659  2.4375
  662MOL0     H89361   5.080   6.930  10.581  0.1367 -0.4601 -0.9580
  662MOL0     H89362   5.048   6.714  10.706  2.1379  1.8962  1.4518
  662MOL0     H89363   4.871   6.749  10.717  0.1414 -0.3954  0.1624
  662MOL0     H89364   4.933   6.941  10.859  1.6047  0.7414  3.7809
  662MOL0     H89365   5.016   6.795  10.920  2.1695 -2.0862 -1.6561
  662MOL0     H89366   5.328   7.042  10.785 -1.1105  1.4104  0.9066
  662MOL0     H89367   4.868   7.021  10.148  0.2797 -1.8615  0.0552
  662MOL0     H89368   5.027   7.214   9.892  1.7526 -1.7276  1.9490
  662MOL0     H89369   4.978   7.053   9.827 -0.0460  0.0125 -0.5228
  662MOL0     H89370   4.870   7.136   9.922  0.5214  0.7616  1.6378
  663MOL0     O89371   5.995   9.106   0.079  0.6222 -0.0554 -0.3952
  663MOL0     C89372   5.972   9.169   0.188 -0.8922 -0.4670  0.8463
  663MOL0     O89373   6.068   9.240   0.258  0.2344 -0.8296  0.5723
  663MOL0     C89374   6.180   9.282   0.183  0.3402  0.3494 -0.8845
  663MOL0     C89375   6.304   9.224   0.213 -0.1914 -0.0628 -0.0530
  663MOL0     C89376   6.426   9.278   0.151 -0.0244 -0.5550  0.0783
  663MOL0     C89377   6.415   9.392   0.071  0.3045  0.2093 -0.3027
  663MOL0     O89378   6.544   9.431   0.019  0.0850  0.0600 -0.4465
  663MOL0     C89379   6.563   9.556  -0.059  0.3516  0.9812  0.1718
  663MOL0     C89380   6.701   9.547  -0.132 -0.4789  0.3918  0.9468
  663MOL0     C89381   6.810   9.504  -0.034 -0.0710  0.1853  0.3683
  663MOL0     C89382   6.950   9.522  -0.090 -0.1109  0.0413  0.5877
  663MOL0     C89383   7.074   9.452  -0.021  0.9439  0.0651 -0.3006
  663MOL0     C89384   7.132   9.535   0.101  0.5219  1.0555  1.1638
  663MOL0     C89385   7.241   9.458   0.178 -0.6217 -0.3691  0.1101
  663MOL0     C89386   7.297   9.546   0.294  0.3938  0.2883  0.0019
  663MOL0     N89387   7.419   9.488   0.350 -0.3626 -0.4078 -0.1603
  663MOL0     C89388   7.437   9.374   0.426  1.1896 -1.7835 -0.4977
  663MOL0     C89389   7.573   9.371   0.443 -0.4390  0.1098 -0.2377
  663MOL0     C89390   7.632   9.240   0.488 -0.1778 -0.2880  0.1228
  663MOL0     C89391   7.754   9.252   0.579 -0.9394 -0.5540 -0.8073
  663MOL0     C89392   7.794   9.123   0.666 -0.1544 -0.0180  0.3527
  663MOL0     C89393   7.927   9.149   0.730 -0.4928 -0.6480 -0.4462
  663MOL0     O89394   7.947   9.064   0.845  0.0693 -0.4591 -1.0842
  663MOL0     C89395   8.075   9.043   0.900  0.1315 -0.1405  0.6530
  663MOL0     C89396   8.093   8.934   0.986 -0.3307  0.4908 -0.2739
  663MOL0     C89397   8.223   8.915   1.034  0.4822 -0.3249 -0.0355
  663MOL0     C89398   8.337   9.001   1.021 -0.7645  1.0192 -0.2200
  663MOL0     C89399   8.461   8.968   1.095 -0.2028  0.0352 -0.7835
  663MOL0     O89400   8.452   8.894   1.216 -1.0454  0.2797  0.8286
  663MOL0     C89401   8.564   8.861   1.287 -0.2379  0.5801  0.0300
  663MOL0     C89402   8.647   8.953   1.343 -0.0364  0.5816  0.6334
  663MOL0     C89403   8.754   8.908   1.429  0.0471  0.4375 -0.3826
  663MOL0     C89404   8.784   8.775   1.440  0.4573  0.2384  0.2186
  663MOL0     O89405   8.896   8.725   1.504 -0.2485 -0.3224  0.5604
  663MOL0     C89406   9.009   8.816   1.509 -0.3742  1.0595 -0.3329
  663MOL0     C89407   9.146   8.749   1.530  0.1789  0.1907  0.3062
  663MOL0     C89408   9.246   8.858   1.551 -0.1139 -0.8828 -0.0876
  663MOL0     C89409   9.389   8.793   1.570  0.6998 -0.2757 -0.2466
  663MOL0     C89410   9.487   8.894   1.621  0.4343 -0.1267 -0.2712
  663MOL0     C89411   9.628   8.843   1.636  0.0510  0.3249  0.1644
  663MOL0     C89412   9.725   8.955   1.675 -0.7830  0.3648 -0.2949
  663MOL0     C89413   9.860   8.896   1.682  0.3442  0.5969 -0.0557
  663MOL0    Cl89414   9.877   8.795   1.824  0.4521  0.0497 -0.0147
  663MOL0     C89415   8.698   8.683   1.379 -0.3022  0.0867 -0.2946
  663MOL0     C89416   8.587   8.722   1.311 -0.8978 -0.5676 -0.1552
  663MOL0     O89417   8.560   9.017   1.040 -0.0707 -1.4690  0.1052
  663MOL0     C89418   8.315   9.110   0.931 -0.4609  0.2878  0.4572
  663MOL0     C89419   8.186   9.131   0.871 -0.6956  0.1433 -0.7888
  663MOL0     N89420   7.633   9.487   0.396 -0.5374  0.6931  0.3866
  663MOL0     N89421   7.538   9.551   0.333 -0.0928  0.3059 -0.4552
  663MOL0     C89422   6.289   9.456   0.051 -0.4751  0.1293 -0.2904
  663MOL0     C89423   6.169   9.396   0.105 -0.7681  0.4577 -0.0743
  663MOL0     C89424   5.828   9.167   0.245 -0.4196  0.7806  1.2289
  663MOL0     C89425   5.773   9.040   0.245 -0.3211  0.3420 -0.7701
  663MOL0     C89426   5.647   9.033   0.301 -0.7673  0.7803 -0.6587
  663MOL0     C89427   5.585   9.136   0.362 -0.0537 -0.7821 -0.5680
  663MOL0     O89428   5.467   9.095   0.417  0.6485 -0.5492  0.8123
  663MOL0     C89429   5.409   9.178   0.511  0.0179 -1.0889  0.1356
  663MOL0     C89430   5.309   9.280   0.449 -0.3703  0.3402  0.6694
  663MOL0     C89431   5.194   9.221   0.359  0.1148 -0.1991 -0.1959
  663MOL0     C89432   5.110   9.107   0.422 -0.4701 -0.0329  0.5857
  663MOL0     C89433   5.063   9.132   0.557  0.3760 -0.1281  0.2494
  663MOL0     C89434   5.023   9.151   0.670 -0.6833 -0.3456 -0.2035
  663MOL0     C89435   5.638   9.267   0.350  0.8040  0.1681  0.6637
  663MOL0     C89436   5.761   9.278   0.286 -1.0954 -0.0502 -0.1042
  663MOL0     C89437   5.812   9.421   0.260 -0.0310 -0.0086  0.3489
  663MOL0     H89438   6.311   9.130   0.267 -0.6214 -0.4341 -0.6207
  663MOL0     H89439   6.521   9.227   0.160  0.6773  0.4673 -1.2508
  663MOL0     H89440   6.487   9.547  -0.137 -0.4198 -0.7559  1.0456
  663MOL0     H89441   6.557   9.652  -0.008 -0.7635 -0.6560  3.4152
  663MOL0     H89442   6.734   9.642  -0.174 -0.0199  0.4604  1.4487
  663MOL0     H89443   6.691   9.470  -0.209  0.6934 -0.4751  1.6084
  663MOL0     H89444   6.792   9.397  -0.023  0.4053  0.0218 -0.3652
  663MOL0     H89445   6.800   9.549   0.065 -0.8233  1.8110 -0.4127
  663MOL0     H89446   6.942   9.494  -0.196 -3.0089  3.3044 -0.2518
  663MOL0     H89447   6.970   9.629  -0.092  1.9236 -0.2820  1.7583
  663MOL0     H89448   7.052   9.348   0.006 -0.4052  0.0021 -1.5509
  663MOL0     H89449   7.159   9.443  -0.090  0.5329 -2.0574 -0.5898
  663MOL0     H89450   7.177   9.626   0.061  1.2155 -0.4531 -1.7248
  663MOL0     H89451   7.052   9.570   0.167  0.5376 -1.5986  2.7063
  663MOL0     H89452   7.322   9.425   0.112 -1.1989 -0.7487 -0.4128
  663MOL0     H89453   7.209   9.364   0.223 -1.8211 -0.4314 -0.8337
  663MOL0     H89454   7.330   9.646   0.263  1.1994 -0.3879 -1.3914
  663MOL0     H89455   7.223   9.546   0.375 -0.8837 -1.3650 -1.1217
  663MOL0     H89456   7.372   9.294   0.458  3.1720 -3.1437  0.2910
  663MOL0     H89457   7.560   9.188   0.551 -1.3069  1.9081  0.7807
  663MOL0     H89458   7.657   9.177   0.403 -0.1397 -0.6085  0.3708
  663MOL0     H89459   7.840   9.288   0.522 -1.0387 -0.5332 -0.9418
  663MOL0     H89460   7.738   9.333   0.651  1.0052  1.9070 -2.9643
  663MOL0     H89461   7.792   9.030   0.609  1.4809 -0.7822  1.4722
  663MOL0     H89462   7.717   9.124   0.744  0.6963  2.8949  1.3206
  663MOL0     H89463   7.923   9.255   0.757  1.0181 -1.0458  1.5862
  663MOL0     H89464   7.998   9.131   0.649 -1.5257 -0.2789 -1.4573
  663MOL0     H89465   8.014   8.860   0.983  2.2394 -2.4758 -0.1467
  663MOL0     H89466   8.239   8.830   1.100  0.1276 -0.4282 -0.0851
  663MOL0     H89467   8.632   9.060   1.337  1.8553  0.7886 -2.1395
  663MOL0     H89468   8.818   8.988   1.463 -0.6077  0.8283 -0.0458
  663MOL0     H89469   9.024   8.870   1.415  0.6526  0.1469 -0.7159
  663MOL0     H89470   8.985   8.891   1.585  0.2844  0.1582  0.8044
  663MOL0     H89471   9.144   8.682   1.616  2.2768  0.3580  0.5503
  663MOL0     H89472   9.181   8.698   1.439  3.2991  0.4717  1.2279
  663MOL0     H89473   9.243   8.923   1.463 -0.1539  0.7211  1.0662
  663MOL0     H89474   9.224   8.921   1.637 -3.1403 -1.8928 -0.0010
  663MOL0     H89475   9.422   8.751   1.475  0.0782 -2.1286  0.3235
  663MOL0     H89476   9.378   8.716   1.646 -0.2229 -1.4836 -1.5689
  663MOL0     H89477   9.446   8.944   1.710  0.8826  0.5678 -0.4490
  663MOL0     H89478   9.493   8.973   1.546  1.4001  1.0829  1.0231
  663MOL0     H89479   9.624   8.768   1.716 -0.0915 -0.1416 -0.2803
  663MOL0     H89480   9.649   8.794   1.541 -4.4256 -0.0029 -0.8887
  663MOL0     H89481   9.704   8.999   1.773 -2.6070  1.6459 -1.2096
  663MOL0     H89482   9.723   9.030   1.596  0.6836  1.3650  0.5711
  663MOL0     H89483   9.891   8.839   1.593 -0.0493 -0.4317  0.4472
  663MOL0     H89484   9.933   8.975   1.698  0.7664  0.2489 -0.2472
  663MOL0     H89485   8.718   8.578   1.397  1.0549 -0.0728 -2.3145
  663MOL0     H89486   8.522   8.639   1.282 -1.3854 -1.1979  2.4617
  663MOL0     H89487   8.395   9.179   0.908  0.9540 -1.6792 -0.8436
  663MOL0     H89488   8.184   9.224   0.815  2.2217 -0.6138 -2.3525
  663MOL0     H89489   6.285   9.543  -0.012  1.2940  0.7448  0.3964
  663MOL0     H89490   6.087   9.462   0.080 -0.1476  0.8051 -1.3217
  663MOL0     H89491   5.824   8.951   0.209 -0.6702  0.4710 -1.6105
  663MOL0     H89492   5.611   8.932   0.318  1.1142  0.5907  3.4920
  663MOL0     H89493   5.480   9.237   0.569  1.1998  0.3168 -2.5726
  663MOL0     H89494   5.359   9.113   0.584 -3.0348  1.2502  0.3349
  663MOL0     H89495   5.370   9.350   0.391  0.2028 -0.8638 -0.2307
  663MOL0     H89496   5.263   9.338   0.530 -0.6524 -0.0891  0.8172
  663MOL0     H89497   5.236   9.181   0.267 -0.7249 -0.1179 -0.6245
  663MOL0     H89498   5.127   9.302   0.327 -0.5140 -0.3714  0.6305
  663MOL0     H89499   5.019   9.098   0.362 -1.5585  0.5813  2.0591
  663MOL0     H89500   5.157   9.009   0.418 -1.1850 -0.4739  2.2932
  663MOL0     H89501   5.007   9.175   0.773  3.1091 -2.7624  1.1325
  663MOL0     H89502   5.573   9.348   0.382 -2.6783 -2.2867  0.3857
  663MOL0     H89503   5.869   9.440   0.351 -2.2721 -1.2026  2.1047
  663MOL0     H89504   5.873   9.438   0.171 -0.4099 -3.1223 -0.6304
  663MOL0     H89505   5.724   9.486   0.261 -0.0317 -0.0090  0.3986
  664MOL0     O89506   6.825   8.424   5.819 -0.1490  0.7214  0.3746
  664MOL0     C89507   6.864   8.329   5.891  0.2645 -0.1106 -0.2069
  664MOL0     O89508   6.981   8.323   5.949  0.1850  0.2245  0.3797
  664MOL0     C89509   7.080   8.404   5.906 -0.3248  0.4403  0.0520
  664MOL0     C89510   7.077   8.541   5.928  0.4041 -0.2974 -0.7871
  664MOL0     C89511   7.173   8.624   5.875 -0.8335  0.6113  0.1811
  664MOL0     C89512   7.276   8.572   5.793  0.5336 -0.7092 -0.1665
  664MOL0     O89513   7.371   8.657   5.754  0.6125 -0.0689  0.8145
  664MOL0     C89514   7.499   8.620   5.710  0.5907  0.3164  0.4574
  664MOL0     C89515   7.588   8.564   5.815 -0.3984  0.6682 -0.3438
  664MOL0     C89516   7.709   8.497   5.743 -0.5775 -1.5670 -0.4316
  664MOL0     C89517   7.819   8.603   5.715  0.0056 -0.7593 -0.3443
  664MOL0     C89518   7.935   8.535   5.648 -0.2616  0.3877 -0.2302
  664MOL0     C89519   8.068   8.612   5.641 -0.2229 -0.1162 -0.0445
  664MOL0     C89520   8.176   8.516   5.595  0.4211  1.2427 -0.5266
  664MOL0     C89521   8.210   8.416   5.699 -0.3349 -0.1035 -0.3196
  664MOL0     N89522   8.330   8.338   5.658  1.0305 -0.2489  0.5598
  664MOL0     C89523   8.329   8.206   5.624 -0.5450 -0.4136 -0.2037
  664MOL0     C89524   8.460   8.184   5.593  0.2919 -0.4706 -0.7539
  664MOL0     C89525   8.510   8.043   5.558 -0.3756  0.1318  0.5476
  664MOL0     C89526   8.511   8.025   5.405 -0.4950 -0.4564  0.6433
  664MOL0     C89527   8.603   8.124   5.332  0.0974 -0.6705 -0.3168
  664MOL0     C89528   8.743   8.051   5.327  0.6595 -0.2111  0.6159
  664MOL0     O89529   8.834   8.132   5.257  0.4925 -0.5473  0.3150
  664MOL0     C89530   8.970   8.124   5.295  0.0979  0.6163 -0.1501
  664MOL0     C89531   9.061   8.182   5.209 -0.7646 -0.8273  0.3857
  664MOL0     C89532   9.196   8.173   5.227  0.0281 -1.5544  0.0319
  664MOL0     C89533   9.261   8.099   5.322 -0.0208 -0.1292  0.0980
  664MOL0     C89534   9.409   8.099   5.340  0.0024  0.8977 -0.3299
  664MOL0     O89535   9.461   8.001   5.421  0.4053 -0.0347  0.7219
  664MOL0     C89536   9.591   8.009   5.454 -0.6971  0.0850 -0.2509
  664MOL0     C89537   9.684   7.901   5.426  0.0192  0.1660  0.9407
  664MOL0     C89538   9.816   7.919   5.458  0.1428  0.1789 -1.1030
  664MOL0     C89539   9.863   8.022   5.537  0.3059 -0.2459  0.9511
  664MOL0     O89540   9.990   8.031   5.578  0.2477 -0.0564  0.1860
  664MOL0     C89541  10.007   7.977   5.704  0.0755 -0.5116 -0.6770
  664MOL0     C89542  10.165   7.970   5.714 -0.5442  0.0379 -0.4790
  664MOL0     C89543  10.237   7.883   5.609 -0.4022 -0.0615 -0.4066
  664MOL0     C89544  10.389   7.899   5.630 -0.0482  0.2250  0.0796
  664MOL0     C89545  10.450   7.813   5.523  0.2149 -0.2001 -0.1930
  664MOL0     C89546  10.602   7.819   5.523 -0.0090  0.1649  0.2290
  664MOL0     C89547  10.656   7.707   5.435 -0.0219  0.5098 -0.1183
  664MOL0     C89548  10.805   7.706   5.453 -0.0804 -0.1014  0.2994
  664MOL0    Cl89549  10.876   7.841   5.352 -0.4011 -0.1968 -0.0413
  664MOL0     C89550   9.770   8.122   5.576 -0.7807 -0.5204 -0.3352
  664MOL0     C89551   9.641   8.113   5.529 -0.1683  0.1567 -0.7516
  664MOL0     O89552   9.478   8.177   5.281  0.5805  0.2976  0.4064
  664MOL0     C89553   9.168   8.027   5.408 -0.3010  0.7603  0.3419
  664MOL0     C89554   9.028   8.045   5.397 -0.2227 -0.1858  0.0755
  664MOL0     N89555   8.533   8.307   5.604  0.2783  0.1612 -0.2034
  664MOL0     N89556   8.453   8.403   5.637 -0.3257 -0.0648  0.1186
  664MOL0     C89557   7.278   8.438   5.774  0.0507 -0.0732 -0.0373
  664MOL0     C89558   7.184   8.355   5.819 -0.1969 -0.3925  0.0917
  664MOL0     C89559   6.763   8.216   5.910  0.3227 -0.5921  0.0240
  664MOL0     C89560   6.771   8.147   6.038 -0.4775 -0.1946  0.0270
  664MOL0     C89561   6.679   8.048   6.076 -0.3840 -0.4901 -0.1987
  664MOL0     C89562   6.585   8.003   5.983 -0.3624  0.7615  0.2765
  664MOL0     O89563   6.489   7.912   6.009 -0.4438 -0.5031  0.0930
  664MOL0     C89564   6.518   7.799   6.099  0.0023  1.0322 -0.3507
  664MOL0     C89565   6.404   7.689   6.078 -0.6322 -0.0380 -0.6031
  664MOL0     C89566   6.264   7.747   6.078  0.0010 -0.8254  1.0901
  664MOL0     C89567   6.153   7.646   6.069  0.4826  0.2850 -0.5954
  664MOL0     C89568   6.029   7.712   6.025  0.4816 -0.1067 -0.6013
  664MOL0     C89569   5.923   7.751   5.985  1.2254  0.4962  0.1867
  664MOL0     C89570   6.573   8.065   5.867  0.4169 -0.8707  0.6432
  664MOL0     C89571   6.664   8.163   5.822 -0.2499 -1.2007 -0.8034
  664MOL0     C89572   6.666   8.198   5.673 -0.9231  0.4226  0.2559
  664MOL0     H89573   6.984   8.579   5.970 -0.5356  0.5324 -3.3773
  664MOL0     H89574   7.164   8.732   5.882  0.6891  0.6438  3.3322
  664MOL0     H89575   7.493   8.543   5.632 -0.1601 -0.5295  1.3303
  664MOL0     H89576   7.545   8.708   5.665 -0.3906  0.7124  0.1987
  664MOL0     H89577   7.534   8.485   5.868  3.0206 -0.4884  1.7237
  664MOL0     H89578   7.625   8.645   5.879  1.4950 -0.1931 -0.2816
  664MOL0     H89579   7.690   8.454   5.644 -1.5512  2.2874 -2.1411
  664MOL0     H89580   7.756   8.424   5.809  3.4943  0.4831 -0.7385
  664MOL0     H89581   7.775   8.677   5.648 -0.3485  3.3996  3.9355
  664MOL0     H89582   7.854   8.666   5.798  1.0979  2.7410 -3.2170
  664MOL0     H89583   7.954   8.438   5.696  0.8031 -0.8217 -2.8831
  664MOL0     H89584   7.916   8.509   5.543 -1.6922  1.4381 -0.2629
  664MOL0     H89585   8.055   8.701   5.578 -0.8333  0.5510  0.9748
  664MOL0     H89586   8.106   8.635   5.741 -0.3213 -3.0322  0.7603
  664MOL0     H89587   8.261   8.577   5.564  1.1257  0.5130 -0.1064
  664MOL0     H89588   8.142   8.460   5.508  0.5748 -0.4491  0.4449
  664MOL0     H89589   8.233   8.466   5.794 -2.5001 -1.0821  0.7899
  664MOL0     H89590   8.130   8.344   5.716 -0.6743  1.0153  4.0402
  664MOL0     H89591   8.254   8.126   5.630  0.6953 -1.5964  0.0490
  664MOL0     H89592   8.612   8.022   5.592  0.6817 -2.5960 -3.6386
  664MOL0     H89593   8.443   7.968   5.601  1.3423 -2.4425 -1.0212
  664MOL0     H89594   8.536   7.920   5.386 -1.5545 -0.5624 -0.3327
  664MOL0     H89595   8.409   8.042   5.369 -0.8954 -1.2733  1.3742
  664MOL0     H89596   8.607   8.219   5.388 -1.5023 -1.5567  1.4422
  664MOL0     H89597   8.568   8.149   5.231 -0.5271 -3.7013 -0.9444
  664MOL0     H89598   8.733   7.959   5.270 -0.7330 -0.9453  1.9831
  664MOL0     H89599   8.778   8.044   5.431  2.7721  1.1804  0.0575
  664MOL0     H89600   9.027   8.242   5.126  2.4839  2.4196  1.1799
  664MOL0     H89601   9.261   8.222   5.155 -0.8077  1.3455  1.1219
  664MOL0     H89602   9.656   7.814   5.367 -1.0070  1.2480 -0.2352
  664MOL0     H89603   9.885   7.837   5.440 -0.6897 -1.0942  1.0828
  664MOL0     H89604   9.960   8.038   5.783  1.7160  1.3425 -1.0385
  664MOL0     H89605   9.959   7.879   5.716  2.1403 -1.7382 -1.8926
  664MOL0     H89606  10.205   8.071   5.699 -1.0962  0.4215  0.5206
  664MOL0     H89607  10.182   7.937   5.817 -0.1115  2.7243  0.3900
  664MOL0     H89608  10.207   7.781   5.632  1.9636 -0.3309  1.8962
  664MOL0     H89609  10.205   7.897   5.505  0.5436 -1.2880 -0.8915
  664MOL0     H89610  10.417   7.864   5.730  0.3093  2.7400  0.9536
  664MOL0     H89611  10.423   8.001   5.609  0.1104 -0.2277 -2.0774
  664MOL0     H89612  10.414   7.848   5.426  1.2444 -0.7292 -0.7893
  664MOL0     H89613  10.414   7.712   5.541 -1.0865  0.3924  0.6912
  664MOL0     H89614  10.642   7.916   5.494 -2.0189  0.5797 -1.3430
  664MOL0     H89615  10.637   7.792   5.623  0.5966  1.8073  0.4870
  664MOL0     H89616  10.638   7.726   5.329 -0.3493 -1.9185 -0.5528
  664MOL0     H89617  10.606   7.611   5.454  0.5099  0.1676 -0.4181
  664MOL0     H89618  10.836   7.715   5.557  1.6309  5.1568 -0.4025
  664MOL0     H89619  10.853   7.615   5.415  1.2523  0.4369  0.6648
  664MOL0     H89620   9.806   8.210   5.627 -0.5032 -1.3612  0.9513
  664MOL0     H89621   9.573   8.193   5.558  0.7441  0.8029 -0.3576
  664MOL0     H89622   9.208   7.964   5.487  0.1354  0.6035 -0.0000
  664MOL0     H89623   8.967   7.998   5.473  1.5883  1.0964  2.4396
  664MOL0     H89624   7.350   8.384   5.713 -1.3828 -2.6357  0.3925
  664MOL0     H89625   7.178   8.251   5.789 -1.4617  0.6106 -3.6083
  664MOL0     H89626   6.836   8.186   6.116 -3.0424 -0.9211  2.7094
  664MOL0     H89627   6.687   7.986   6.165  0.6255 -1.5356 -0.9889
  664MOL0     H89628   6.508   7.835   6.201  0.9690 -0.4981  0.3222
  664MOL0     H89629   6.617   7.760   6.075 -1.3264 -1.8265 -1.6985
  664MOL0     H89630   6.423   7.608   6.148  1.4582 -0.0050 -1.0608
  664MOL0     H89631   6.414   7.655   5.975 -4.8495 -1.6528 -0.6857
  664MOL0     H89632   6.258   7.807   5.987 -2.2244 -1.3251  0.8636
  664MOL0     H89633   6.256   7.803   6.172 -0.9370 -2.5163  2.0565
  664MOL0     H89634   6.183   7.576   5.991  1.6372  1.0271 -0.8489
  664MOL0     H89635   6.131   7.593   6.162 -0.7550  1.3197 -0.2609
  664MOL0     H89636   5.829   7.786   5.946  0.9306 -0.2362  0.2213
  664MOL0     H89637   6.497   8.041   5.794 -0.1663  0.5482  0.7449
  664MOL0     H89638   6.622   8.115   5.618  1.2630 -0.7360  0.1499
  664MOL0     H89639   6.620   8.292   5.640 -0.7447 -0.1746 -1.8514
  664MOL0     H89640   6.768   8.214   5.637 -1.2032  1.7474 -0.0292
  665MOL0     O89641   5.010   4.869   1.541  0.7509 -0.1050  0.0801
  665MOL0     C89642   4.922   4.909   1.457 -0.2422 -0.1357  0.5117
  665MOL0     O89643   4.954   4.954   1.331 -0.2639 -0.3385  0.3611
  665MOL0     C89644   5.075   4.966   1.272  0.5140  0.1372 -0.1998
  665MOL0     C89645   5.199   4.908   1.317  0.5530 -0.3763 -0.4725
  665MOL0     C89646   5.305   4.884   1.239  0.3770 -0.6939  0.5094
  665MOL0     C89647   5.296   4.930   1.111  0.1905 -0.1962  0.4217
  665MOL0     O89648   5.402   4.934   1.027 -0.4856 -0.0521  0.0043
  665MOL0     C89649   5.523   4.879   1.067  0.6690  0.3338 -0.0997
  665MOL0     C89650   5.622   4.899   0.948 -0.0875  0.1551  0.2427
  665MOL0     C89651   5.759   4.831   0.976 -0.4593 -0.3465  0.3918
  665MOL0     C89652   5.843   4.799   0.842  0.0471 -0.0947  0.7454
  665MOL0     C89653   5.966   4.721   0.870 -0.5867  0.6247 -0.5499
  665MOL0     C89654   6.040   4.668   0.747  0.2878  0.0966 -0.5509
  665MOL0     C89655   6.177   4.601   0.790  0.2836 -0.0616  0.1193
  665MOL0     C89656   6.258   4.559   0.671  0.2777  0.2304 -0.0099
  665MOL0     N89657   6.396   4.557   0.706  0.0061 -0.1340 -0.4791
  665MOL0     C89658   6.483   4.661   0.739  0.3787 -0.0470 -0.3653
  665MOL0     C89659   6.604   4.612   0.754 -0.2604  0.6021 -0.4237
  665MOL0     C89660   6.732   4.687   0.800  0.2116  0.0171  0.7090
  665MOL0     C89661   6.850   4.630   0.718 -1.0413  0.5777 -0.2101
  665MOL0     C89662   6.841   4.646   0.563  0.3348 -0.1098 -0.6070
  665MOL0     C89663   6.981   4.625   0.505  0.2806 -0.6152 -0.2636
  665MOL0     O89664   7.046   4.752   0.522  0.7655  0.2664  0.8454
  665MOL0     C89665   7.171   4.763   0.468  0.2532  0.7017 -0.1542
  665MOL0     C89666   7.238   4.878   0.475 -0.1344 -0.6251  0.1367
  665MOL0     C89667   7.356   4.900   0.403 -0.2987  0.6158 -0.1025
  665MOL0     C89668   7.428   4.793   0.346 -0.5624  0.1208  0.7162
  665MOL0     C89669   7.568   4.820   0.285  0.1402  0.1360  0.1537
  665MOL0     O89670   7.593   4.726   0.188 -0.3854  0.1361 -0.5761
  665MOL0     C89671   7.715   4.727   0.122  0.7983 -0.9099  0.5421
  665MOL0     C89672   7.727   4.724  -0.020  0.1280 -0.6301 -0.5408
  665MOL0     C89673   7.850   4.697  -0.087  0.8719 -0.5051  0.6024
  665MOL0     C89674   7.966   4.663  -0.009  0.6765 -0.9611 -0.5438
  665MOL0     O89675   8.085   4.620  -0.067  0.1442 -0.3521  0.4462
  665MOL0     C89676   8.094   4.622  -0.210 -0.2320  0.1443 -0.3190
  665MOL0     C89677   8.238   4.602  -0.247  0.3298 -0.2274 -0.3007
  665MOL0     C89678   8.271   4.587  -0.395 -0.7491 -0.2635  0.2359
  665MOL0     C89679   8.272   4.717  -0.478 -0.1689  0.6670  0.0028
  665MOL0     C89680   8.291   4.679  -0.625 -0.6509 -0.1576  0.0895
  665MOL0     C89681   8.418   4.589  -0.651  0.9500 -0.0604 -0.1735
  665MOL0     C89682   8.452   4.603  -0.793 -0.3132  0.3100  0.0699
  665MOL0     C89683   8.488   4.745  -0.843  0.1081 -0.6245 -0.1004
  665MOL0    Cl89684   8.637   4.801  -0.758 -0.7102 -0.2245  0.0200
  665MOL0     C89685   7.957   4.665   0.134  0.2313  0.0727  0.1325
  665MOL0     C89686   7.836   4.694   0.196 -0.1302  0.5355 -0.5445
  665MOL0     O89687   7.621   4.924   0.309  0.1606  0.6528  0.2178
  665MOL0     C89688   7.372   4.667   0.351  0.5634  0.0215  0.7509
  665MOL0     C89689   7.239   4.648   0.407 -0.1778 -0.1865  0.6951
  665MOL0     N89690   6.594   4.479   0.743 -0.2364  0.1835 -0.1961
  665MOL0     N89691   6.471   4.440   0.711 -0.1723 -0.7302 -0.3279
  665MOL0     C89692   5.187   4.981   1.057  0.4455 -0.2000  0.4320
  665MOL0     C89693   5.073   4.998   1.135 -0.6457 -0.2211  0.3067
  665MOL0     C89694   4.775   4.906   1.493 -0.1695  0.5127 -0.0004
  665MOL0     C89695   4.684   4.976   1.422 -0.3500 -0.8951 -0.4895
  665MOL0     C89696   4.547   4.995   1.459 -0.2202  0.0767 -0.9488
  665MOL0     C89697   4.500   4.919   1.572  0.3202 -0.4866 -0.5687
  665MOL0     O89698   4.364   4.940   1.607 -0.2058 -0.1749 -0.1583
  665MOL0     C89699   4.290   4.843   1.672  0.1988 -0.8353 -1.0354
  665MOL0     C89700   4.168   4.824   1.580 -0.5030  0.0273  0.1042
  665MOL0     C89701   4.101   4.688   1.607  0.3639 -0.3341  0.0017
  665MOL0     C89702   3.958   4.678   1.557 -0.4026 -0.0910 -0.2174
  665MOL0     C89703   3.907   4.546   1.537 -0.1497  0.1524 -0.3661
  665MOL0     C89704   3.851   4.453   1.494 -0.1703 -0.7901 -0.5911
  665MOL0     C89705   4.589   4.828   1.632 -0.4473 -0.0673  0.9183
  665MOL0     C89706   4.722   4.821   1.593 -0.5637 -0.4962 -0.2826
  665MOL0     C89707   4.801   4.732   1.686 -0.0583  0.6613 -0.1132
  665MOL0     H89708   5.225   4.871   1.416  3.3024 -0.2925 -1.0755
  665MOL0     H89709   5.397   4.835   1.269  0.7691  0.9569  2.1741
  665MOL0     H89710   5.560   4.917   1.162 -0.3269 -1.4519  1.0557
  665MOL0     H89711   5.519   4.771   1.088  2.1804  0.1820 -0.4423
  665MOL0     H89712   5.639   5.005   0.930  1.5691 -0.4415 -2.2658
  665MOL0     H89713   5.570   4.853   0.863 -2.9274 -1.2726  2.5404
  665MOL0     H89714   5.732   4.737   1.025 -0.2032 -0.7765 -0.2752
  665MOL0     H89715   5.822   4.892   1.042  1.1246 -0.9867 -0.4889
  665MOL0     H89716   5.774   4.745   0.776 -1.6092  3.7838 -1.0137
  665MOL0     H89717   5.884   4.889   0.796  3.4191 -1.0435  1.5788
  665MOL0     H89718   6.039   4.785   0.920  0.0523 -0.1858 -0.4128
  665MOL0     H89719   5.940   4.640   0.940  2.4110 -0.3243 -0.4244
  665MOL0     H89720   5.974   4.595   0.699  2.6021 -1.0082 -2.2254
  665MOL0     H89721   6.056   4.753   0.680  0.4281 -0.4058 -1.1627
  665MOL0     H89722   6.158   4.515   0.855  1.8475 -1.6566 -1.4409
  665MOL0     H89723   6.245   4.671   0.839  0.7966 -0.3738 -0.1429
  665MOL0     H89724   6.219   4.462   0.639 -1.4919  1.5284 -2.0580
  665MOL0     H89725   6.253   4.639   0.597  0.1041  0.2371  0.0090
  665MOL0     H89726   6.452   4.765   0.733 -0.8910 -0.1791  2.5598
  665MOL0     H89727   6.717   4.792   0.776 -0.1731 -0.3287 -0.6321
  665MOL0     H89728   6.748   4.684   0.908  0.2088  2.9002  0.8546
  665MOL0     H89729   6.938   4.675   0.764 -1.4167  1.0283  0.0854
  665MOL0     H89730   6.862   4.523   0.739 -2.0768  0.4031 -0.4648
  665MOL0     H89731   6.798   4.743   0.538 -1.6863 -0.1693  2.1590
  665MOL0     H89732   6.776   4.565   0.529 -2.3102  0.2319  3.0526
  665MOL0     H89733   6.972   4.602   0.399  3.1715  0.6718 -0.8897
  665MOL0     H89734   7.040   4.550   0.559  0.1311  0.5409  1.6013
  665MOL0     H89735   7.193   4.963   0.525 -0.5424 -0.2180 -0.8791
  665MOL0     H89736   7.400   4.996   0.374 -0.0177 -0.1476 -2.3746
  665MOL0     H89737   7.636   4.748  -0.076  0.0156  2.6243  0.8163
  665MOL0     H89738   7.846   4.684  -0.195  0.8865 -1.8067  0.7470
  665MOL0     H89739   8.045   4.529  -0.238  2.3594 -2.1777  2.2128
  665MOL0     H89740   8.058   4.717  -0.252 -0.1177  0.0197 -0.6996
  665MOL0     H89741   8.291   4.692  -0.214  0.5237  0.0931 -1.4364
  665MOL0     H89742   8.280   4.520  -0.188 -0.3684 -0.9877 -0.8380
  665MOL0     H89743   8.367   4.537  -0.406 -0.0015  1.1632 -0.0237
  665MOL0     H89744   8.202   4.521  -0.447  0.4653 -1.3406 -0.0460
  665MOL0     H89745   8.360   4.771  -0.441  2.2668 -1.4379 -2.2933
  665MOL0     H89746   8.180   4.775  -0.467 -0.8010 -0.2543 -0.3046
  665MOL0     H89747   8.291   4.780  -0.667 -3.3157  0.7462  2.0116
  665MOL0     H89748   8.203   4.637  -0.674 -1.6975  2.2709 -0.2291
  665MOL0     H89749   8.498   4.614  -0.581  2.3795 -2.2944 -0.8960
  665MOL0     H89750   8.399   4.482  -0.636  2.4937 -0.2150  0.8778
  665MOL0     H89751   8.369   4.564  -0.854  0.2271  0.4841 -0.7916
  665MOL0     H89752   8.535   4.533  -0.803 -1.3637 -0.9975  0.2077
  665MOL0     H89753   8.505   4.742  -0.951 -0.3090 -0.3884 -0.1745
  665MOL0     H89754   8.405   4.816  -0.834 -0.4017 -0.9342 -1.9604
  665MOL0     H89755   8.043   4.642   0.195  2.9921  2.0043 -2.7173
  665MOL0     H89756   7.834   4.689   0.305  0.3726 -3.1637 -0.5709
  665MOL0     H89757   7.429   4.586   0.308  0.7402  1.1028 -1.1639
  665MOL0     H89758   7.198   4.547   0.410 -1.6949  0.3887  0.4459
  665MOL0     H89759   5.179   5.021   0.956 -1.3030 -0.2113  0.5233
  665MOL0     H89760   4.982   5.020   1.079 -0.7887  1.1031  1.0151
  665MOL0     H89761   4.726   5.046   1.350 -0.5538  1.4909  1.5551
  665MOL0     H89762   4.483   5.070   1.414 -1.7042 -0.9874 -0.6600
  665MOL0     H89763   4.258   4.866   1.775  1.3826 -3.9779  0.1614
  665MOL0     H89764   4.347   4.750   1.671  1.8379  0.1116 -0.4963
  665MOL0     H89765   4.208   4.829   1.479 -0.4823  0.3838  0.1297
  665MOL0     H89766   4.104   4.908   1.608 -0.6578  0.0394 -0.2806
  665MOL0     H89767   4.095   4.670   1.715  2.4377 -0.4977  0.1283
  665MOL0     H89768   4.167   4.604   1.582  0.3017 -0.7734  1.2282
  665MOL0     H89769   3.888   4.717   1.631  1.0381 -1.2746  1.8691
  665MOL0     H89770   3.967   4.732   1.462 -1.0251  4.7529  2.1422
  665MOL0     H89771   3.790   4.368   1.469  1.6129 -2.2275 -0.2000
  665MOL0     H89772   4.552   4.761   1.709  2.4848  0.1400  2.6670
  665MOL0     H89773   4.775   4.748   1.791  1.7477 -3.2425  1.1386
  665MOL0     H89774   4.791   4.630   1.647  1.4744  0.7133 -0.6934
  665MOL0     H89775   4.907   4.758   1.690 -0.3574  2.4961 -2.1792
  666MOL0     O89776   9.274   0.098   7.741  0.8959  0.5110 -0.2528
  666MOL0     C89777   9.236  -0.001   7.804  0.1901 -0.8541  0.1203
  666MOL0     O89778   9.316  -0.118   7.818  0.8141 -0.0013  0.8291
  666MOL0     C89779   9.452  -0.131   7.779 -0.1317 -0.1418 -0.6981
  666MOL0     C89780   9.523  -0.050   7.688  0.7310  0.2737  0.0296
  666MOL0     C89781   9.653  -0.090   7.639 -0.4548  0.1024  0.3312
  666MOL0     C89782   9.707  -0.223   7.663 -0.1035 -0.0430 -0.1452
  666MOL0     O89783   9.826  -0.279   7.619  0.0743  0.7497 -0.5997
  666MOL0     C89784   9.921  -0.195   7.546  0.2826  0.0093  0.1341
  666MOL0     C89785  10.025  -0.280   7.480  1.2656  0.2843 -0.3621
  666MOL0     C89786  10.125  -0.199   7.405  0.1773 -0.6328 -0.7690
  666MOL0     C89787  10.267  -0.252   7.423 -0.3685 -0.6763  0.5467
  666MOL0     C89788  10.372  -0.179   7.505 -0.0045 -0.5612 -0.0812
  666MOL0     C89789  10.494  -0.269   7.508  0.1477 -0.1170  0.3323
  666MOL0     C89790  10.604  -0.199   7.584 -0.1197  1.3517 -0.6030
  666MOL0     C89791  10.738  -0.268   7.564  0.3714 -0.0186 -0.1382
  666MOL0     N89792  10.843  -0.177   7.606  0.3891 -0.2984 -0.1221
  666MOL0     C89793  10.924  -0.185   7.712 -0.1148  0.1405 -0.1568
  666MOL0     C89794  11.022  -0.098   7.678 -0.4702  0.2179 -0.3220
  666MOL0     C89795  11.145  -0.049   7.749  1.1946 -0.1984 -0.2005
  666MOL0     C89796  11.258  -0.155   7.734 -0.3025  0.1185 -0.7707
  666MOL0     C89797  11.358  -0.128   7.845 -0.8538  0.7348 -0.8839
  666MOL0     C89798  11.462  -0.244   7.855  0.8087  1.4003 -0.4133
  666MOL0     O89799  11.515  -0.265   7.732  0.0914 -0.6045 -0.0106
  666MOL0     C89800  11.650  -0.258   7.711  0.0277  0.2923  0.0984
  666MOL0     C89801  11.750  -0.274   7.813  0.9392  0.5321 -0.4843
  666MOL0     C89802  11.876  -0.275   7.776 -1.1983  0.6109  0.3260
  666MOL0     C89803  11.922  -0.241   7.649 -0.0250  0.3698 -0.2506
  666MOL0     C89804  12.068  -0.236   7.615  0.2845 -0.1113 -0.4989
  666MOL0     O89805  12.095  -0.203   7.493  0.1852  0.5380 -0.1384
  666MOL0     C89806  12.224  -0.199   7.452  0.0824 -0.6499 -0.1455
  666MOL0     C89807  12.275  -0.075   7.402  0.1097  1.1637  0.1696
  666MOL0     C89808  12.407  -0.064   7.352 -0.6254  0.5765  0.3247
  666MOL0     C89809  12.499  -0.171   7.356 -0.3538 -0.4237 -0.0720
  666MOL0     O89810  12.623  -0.162   7.296 -0.1428 -0.2845  0.1322
  666MOL0     C89811  12.648  -0.275   7.211  0.6514  1.2021 -0.3143
  666MOL0     C89812  12.762  -0.243   7.121 -0.2910 -0.4225  0.1281
  666MOL0     C89813  12.895  -0.227   7.198  0.6705  0.4020  0.1974
  666MOL0     C89814  13.003  -0.209   7.092  0.3947 -0.8330 -0.0391
  666MOL0     C89815  13.138  -0.156   7.154 -0.2409  1.0990 -0.1507
  666MOL0     C89816  13.257  -0.157   7.065 -0.0242 -1.3602  0.3973
  666MOL0     C89817  13.241  -0.064   6.942 -0.0948 -0.3190 -0.0686
  666MOL0     C89818  13.351  -0.089   6.840  0.8054 -0.4528 -0.0088
  666MOL0    Cl89819  13.322  -0.252   6.759 -0.0862 -0.3786  0.0813
  666MOL0     C89820  12.452  -0.287   7.417  0.0120  0.7097 -0.9372
  666MOL0     C89821  12.323  -0.298   7.465 -0.1355 -0.1416  0.0490
  666MOL0     O89822  12.151  -0.283   7.699  0.0434 -0.0263  0.9082
  666MOL0     C89823  11.825  -0.235   7.546  0.9188  0.2563 -0.3403
  666MOL0     C89824  11.686  -0.248   7.579 -0.1854 -0.5940 -0.1425
  666MOL0     N89825  10.989  -0.031   7.566  0.1726  0.7632  0.8271
  666MOL0     N89826  10.884  -0.080   7.521  0.9719  0.4302 -0.2748
  666MOL0     C89827   9.633  -0.304   7.754 -0.1315 -0.4928 -0.6665
  666MOL0     C89828   9.513  -0.257   7.808  0.9593 -0.5599 -0.6078
  666MOL0     C89829   9.095  -0.009   7.853 -0.4801 -0.8764 -0.0690
  666MOL0     C89830   9.050  -0.134   7.897 -0.3931 -0.5331 -1.3599
  666MOL0     C89831   8.926  -0.153   7.948 -0.1359  0.5803 -0.0444
  666MOL0     C89832   8.842  -0.044   7.959 -0.4765 -0.3135  0.0502
  666MOL0     O89833   8.716  -0.071   8.005  0.6699 -0.2824  0.0317
  666MOL0     C89834   8.614  -0.048   7.912 -0.0930  0.1215  0.4400
  666MOL0     C89835   8.616  -0.139   7.786 -0.3511  0.0808 -0.9396
  666MOL0     C89836   8.473  -0.191   7.743 -0.1382  0.3090 -0.5874
  666MOL0     C89837   8.490  -0.329   7.681 -0.1424 -0.1530 -0.7326
  666MOL0     C89838   8.365  -0.385   7.634 -0.0401  0.2982 -0.2328
  666MOL0     C89839   8.266  -0.445   7.586 -0.4605 -0.1305  0.3746
  666MOL0     C89840   8.877   0.083   7.915  0.1275 -0.0767  0.4469
  666MOL0     C89841   9.007   0.099   7.857  0.4886 -0.1735 -0.1232
  666MOL0     C89842   9.023   0.234   7.797  0.0621 -0.1279 -0.1298
  666MOL0     H89843   9.477   0.041   7.650  2.1416  1.3081  0.6999
  666MOL0     H89844   9.717  -0.021   7.586 -2.4299  1.5060 -0.3439
  666MOL0     H89845   9.864  -0.145   7.467  0.1747 -1.3704 -0.6912
  666MOL0     H89846   9.970  -0.128   7.618 -0.3495  0.6262  0.0086
  666MOL0     H89847   9.981  -0.348   7.405 -1.4212  1.6123 -0.1120
  666MOL0     H89848  10.076  -0.339   7.556 -0.1347 -3.5756 -2.1365
  666MOL0     H89849  10.118  -0.098   7.448 -1.6027 -0.4962 -1.3039
  666MOL0     H89850  10.108  -0.198   7.297  1.4186  2.3021 -1.0428
  666MOL0     H89851  10.259  -0.356   7.456 -1.7503 -1.0492 -0.8517
  666MOL0     H89852  10.310  -0.252   7.323 -0.4530  0.2104  0.5016
  666MOL0     H89853  10.394  -0.079   7.467 -0.8929 -0.6798 -0.9366
  666MOL0     H89854  10.327  -0.164   7.603  0.7050 -1.7956  0.4655
  666MOL0     H89855  10.459  -0.352   7.570 -0.8439  1.3943  1.8649
  666MOL0     H89856  10.516  -0.298   7.405 -0.0103 -0.7549  0.4737
  666MOL0     H89857  10.573  -0.210   7.689  0.1413 -1.5993 -0.7500
  666MOL0     H89858  10.607  -0.096   7.548 -1.4544  0.8265 -2.3332
  666MOL0     H89859  10.738  -0.355   7.631  1.8037 -0.5275 -0.7678
  666MOL0     H89860  10.753  -0.295   7.459 -1.2014 -1.7596  0.0158
  666MOL0     H89861  10.912  -0.250   7.798  0.8162  1.3787  0.9499
  666MOL0     H89862  11.160   0.052   7.709 -2.6384  0.3952 -0.5137
  666MOL0     H89863  11.119  -0.033   7.854  1.1126  0.5035 -0.3202
  666MOL0     H89864  11.231  -0.261   7.738  1.4728 -0.3448 -0.3585
  666MOL0     H89865  11.317  -0.138   7.643 -3.5950  3.1759 -2.6604
  666MOL0     H89866  11.310  -0.117   7.943  1.0103  1.1231  0.0206
  666MOL0     H89867  11.407  -0.034   7.815  1.4345 -0.3741 -0.8261
  666MOL0     H89868  11.405  -0.329   7.893  1.6798  0.8517 -0.2944
  666MOL0     H89869  11.538  -0.230   7.933 -0.9144 -1.2507  1.9204
  666MOL0     H89870  11.725  -0.301   7.915 -2.6656  2.7045 -0.6264
  666MOL0     H89871  11.959  -0.288   7.846 -0.7138  2.0467  0.0539
  666MOL0     H89872  12.212   0.014   7.395 -1.6002 -0.0415 -0.5975
  666MOL0     H89873  12.444   0.031   7.315  0.4586  0.0420  0.0072
  666MOL0     H89874  12.679  -0.354   7.279 -0.1525  1.0768 -0.0885
  666MOL0     H89875  12.559  -0.305   7.155 -0.3469  0.1270  1.7317
  666MOL0     H89876  12.770  -0.321   7.044  0.1005  0.8131 -1.1147
  666MOL0     H89877  12.735  -0.148   7.075 -1.0315 -0.3365  0.7159
  666MOL0     H89878  12.884  -0.135   7.257 -1.2293 -0.6112  1.5649
  666MOL0     H89879  12.918  -0.307   7.269  0.5246  1.2538  1.2501
  666MOL0     H89880  12.965  -0.134   7.022 -1.1410  1.2507  2.8051
  666MOL0     H89881  13.029  -0.300   7.037  2.0296 -0.1469 -0.4511
  666MOL0     H89882  13.155  -0.213   7.246  2.2993  0.0854 -1.1566
  666MOL0     H89883  13.125  -0.051   7.185 -1.0940  0.7012  0.9306
  666MOL0     H89884  13.343  -0.135   7.128 -1.2221 -1.2658  2.0595
  666MOL0     H89885  13.269  -0.260   7.030 -0.2506 -1.6542  1.1552
  666MOL0     H89886  13.233   0.044   6.960 -0.8726 -0.0439 -1.9282
  666MOL0     H89887  13.146  -0.087   6.894  0.2087 -0.3286 -0.6721
  666MOL0     H89888  13.348  -0.013   6.762  1.3413  0.2962  0.6769
  666MOL0     H89889  13.451  -0.085   6.885  1.1798 -2.4568 -0.5567
  666MOL0     H89890  12.523  -0.368   7.432  0.1382  1.0412  0.3990
  666MOL0     H89891  12.289  -0.393   7.504 -0.9726  0.3985  0.6689
  666MOL0     H89892  11.832  -0.212   7.440 -0.7491  0.8253 -0.3540
  666MOL0     H89893  11.608  -0.229   7.506 -4.0754  1.4954  4.1072
  666MOL0     H89894   9.658  -0.408   7.774 -1.4489 -0.7871 -0.4544
  666MOL0     H89895   9.449  -0.323   7.866  3.1022 -2.0537  0.1807
  666MOL0     H89896   9.108  -0.225   7.884  1.3364  0.5789 -1.6037
  666MOL0     H89897   8.900  -0.245   7.999  2.2019  0.6699  1.4419
  666MOL0     H89898   8.609   0.056   7.878  0.8880  0.3009  0.8114
  666MOL0     H89899   8.526  -0.057   7.976  1.1282  0.9389  2.3177
  666MOL0     H89900   8.679  -0.228   7.793  3.4989  2.6190  0.2920
  666MOL0     H89901   8.667  -0.095   7.700  2.0064 -1.4275 -0.4071
  666MOL0     H89902   8.420  -0.116   7.684 -0.0995  2.4724  1.9430
  666MOL0     H89903   8.408  -0.200   7.830  1.6881  0.6529  0.8771
  666MOL0     H89904   8.564  -0.319   7.601  1.4579  2.5893  0.8989
  666MOL0     H89905   8.530  -0.394   7.760 -2.1538 -0.1258  0.3612
  666MOL0     H89906   8.190  -0.501   7.536  0.6570 -0.5839 -0.8756
  666MOL0     H89907   8.815   0.169   7.938 -1.5917 -0.4982 -2.1987
  666MOL0     H89908   9.126   0.265   7.819  1.2000 -1.7171 -2.6957
  666MOL0     H89909   9.014   0.233   7.688 -0.8287  0.2625 -0.0715
  666MOL0     H89910   8.964   0.317   7.838  0.4959 -0.1661  0.5805
  667MOL0     O89911   8.885   2.592   3.708 -0.5092 -0.5795  0.4510
  667MOL0     C89912   8.844   2.554   3.819  0.2163  0.4399  0.5515
  667MOL0     O89913   8.735   2.480   3.837 -0.1627 -0.6320  0.0965
  667MOL0     C89914   8.666   2.414   3.737  0.6222 -0.0916 -0.1479
  667MOL0     C89915   8.526   2.398   3.766 -0.2237 -0.5524  0.0751
  667MOL0     C89916   8.441   2.329   3.678 -0.5455 -0.0991  0.2962
  667MOL0     C89917   8.493   2.276   3.563  0.0064  0.4559  0.0787
  667MOL0     O89918   8.402   2.203   3.493  0.0936 -0.1848 -0.4559
  667MOL0     C89919   8.409   2.221   3.349 -0.7294 -0.3088 -0.1454
  667MOL0     C89920   8.292   2.166   3.273  0.5768 -0.0044 -0.4126
  667MOL0     C89921   8.295   2.011   3.287  0.2087 -0.7681 -0.1633
  667MOL0     C89922   8.145   1.966   3.265 -0.2630 -0.6084  0.1650
  667MOL0     C89923   8.140   1.815   3.287  0.0151 -0.0315 -0.1327
  667MOL0     C89924   8.014   1.754   3.250 -0.4746 -0.2905  0.5368
  667MOL0     C89925   7.895   1.790   3.347  0.4118  0.7411  0.5551
  667MOL0     C89926   7.907   1.746   3.490  0.5969 -0.0555 -0.3061
  667MOL0     N89927   7.789   1.786   3.567 -0.2512  0.1960  0.3066
  667MOL0     C89928   7.662   1.748   3.536 -0.3161  0.2546 -0.7482
  667MOL0     C89929   7.580   1.836   3.602  0.3642  0.3396  0.4043
  667MOL0     C89930   7.432   1.840   3.575  0.4136 -0.0553  0.2449
  667MOL0     C89931   7.354   1.968   3.634 -1.0604 -1.1758  0.7385
  667MOL0     C89932   7.365   2.091   3.542  0.3386  0.4131 -0.5405
  667MOL0     C89933   7.496   2.115   3.473  0.1891 -0.1649 -0.0882
  667MOL0     O89934   7.541   2.037   3.362 -0.2322  0.5288  0.2187
  667MOL0     C89935   7.641   2.078   3.287 -0.4648 -0.7267  0.3015
  667MOL0     C89936   7.654   2.011   3.166  0.2918  1.0045 -0.0815
  667MOL0     C89937   7.746   2.039   3.067 -0.3170 -0.1966 -0.0435
  667MOL0     C89938   7.832   2.150   3.082  0.4850 -0.2363 -0.8190
  667MOL0     C89939   7.946   2.164   2.988 -0.0539  0.0436  0.1663
  667MOL0     O89940   8.042   2.256   3.015 -0.0734  1.0276 -0.0659
  667MOL0     C89941   8.156   2.289   2.930 -0.3140 -0.2598  0.0969
  667MOL0     C89942   8.228   2.399   2.974  0.1152 -0.7467 -0.9224
  667MOL0     C89943   8.344   2.447   2.912 -0.6548 -0.6522 -0.3788
  667MOL0     C89944   8.398   2.367   2.807 -1.2734 -0.2691  1.0118
  667MOL0     O89945   8.521   2.410   2.758 -0.2892  0.9662  0.0790
  667MOL0     C89946   8.603   2.319   2.684  0.5686 -0.0698 -0.6346
  667MOL0     C89947   8.748   2.369   2.731  0.4404 -0.3684  0.2111
  667MOL0     C89948   8.862   2.269   2.703 -0.2645  0.0414  0.2022
  667MOL0     C89949   8.987   2.346   2.741 -0.6017  0.8178 -0.9009
  667MOL0     C89950   9.113   2.291   2.661  0.8200  0.9439 -1.0194
  667MOL0     C89951   9.227   2.394   2.659 -0.3234  0.0864 -0.3670
  667MOL0     C89952   9.315   2.382   2.787 -0.1022 -0.0958  0.0721
  667MOL0     C89953   9.409   2.508   2.787  0.8306 -0.5614 -0.5145
  667MOL0    Cl89954   9.515   2.499   2.928 -0.1521  0.0587 -0.0933
  667MOL0     C89955   8.329   2.254   2.761  0.0780 -0.2275 -0.1424
  667MOL0     C89956   8.202   2.215   2.816 -0.0697 -0.5958 -0.1393
  667MOL0     O89957   7.952   2.090   2.891  0.0009 -0.3083 -0.3713
  667MOL0     C89958   7.828   2.228   3.204  0.2932 -0.3260 -0.0266
  667MOL0     C89959   7.725   2.193   3.303 -0.0521  1.0126 -0.4315
  667MOL0     N89960   7.656   1.923   3.675  0.3008  0.4580  0.0887
  667MOL0     N89961   7.784   1.882   3.667  0.3942 -0.6374 -0.6036
  667MOL0     C89962   8.625   2.308   3.533 -0.9355  0.6093 -0.3052
  667MOL0     C89963   8.715   2.372   3.619  0.0233  0.8188 -0.3982
  667MOL0     C89964   8.931   2.577   3.941  0.2566  0.0113 -0.2708
  667MOL0     C89965   8.863   2.600   4.061  0.2505  0.9264  0.0179
  667MOL0     C89966   8.933   2.615   4.182 -0.2014 -0.4022 -0.0244
  667MOL0     C89967   9.074   2.603   4.186  0.3452 -0.0383 -0.4865
  667MOL0     O89968   9.151   2.630   4.298 -0.3978  0.0948  0.1335
  667MOL0     C89969   9.096   2.636   4.430 -0.3241  0.9888 -0.4047
  667MOL0     C89970   9.197   2.681   4.528 -0.7716  0.1599  0.4175
  667MOL0     C89971   9.141   2.783   4.631 -0.5300 -0.2377 -0.5968
  667MOL0     C89972   9.221   2.812   4.760  0.1770  0.2990 -0.7846
  667MOL0     C89973   9.153   2.910   4.842 -0.8362 -0.3622  0.7025
  667MOL0     C89974   9.085   2.987   4.905 -0.3338  0.2220  0.6965
  667MOL0     C89975   9.140   2.588   4.065 -0.0019 -0.1603 -1.3298
  667MOL0     C89976   9.069   2.577   3.947  0.4663 -0.5229 -0.3062
  667MOL0     C89977   9.155   2.566   3.825 -0.1971  0.3320 -0.9133
  667MOL0     H89978   8.501   2.438   3.863 -0.0680 -2.7942  1.1136
  667MOL0     H89979   8.335   2.316   3.698 -0.8353  0.2350 -0.9385
  667MOL0     H89980   8.432   2.326   3.327 -1.9219  0.3233  1.4346
  667MOL0     H89981   8.495   2.168   3.307  0.4001  1.7047 -0.5002
  667MOL0     H89982   8.292   2.194   3.167 -1.2029 -0.2229 -0.4995
  667MOL0     H89983   8.201   2.215   3.309  0.7835  0.0750  0.0141
  667MOL0     H89984   8.312   1.980   3.390  0.5136 -1.3246 -0.3797
  667MOL0     H89985   8.367   1.960   3.222  2.2569  2.6836 -0.8585
  667MOL0     H89986   8.075   2.017   3.332  1.3212  0.3725  1.1429
  667MOL0     H89987   8.123   1.999   3.163 -0.2096  3.0988  1.2112
  667MOL0     H89988   8.226   1.773   3.233  0.6963  0.0851  0.8456
  667MOL0     H89989   8.158   1.786   3.391  0.1019 -2.2937 -0.7247
  667MOL0     H89990   7.995   1.773   3.144  1.3374 -2.4774 -0.2531
  667MOL0     H89991   8.017   1.645   3.257 -1.1028 -0.5700 -2.3022
  667MOL0     H89992   7.805   1.755   3.294  1.4827 -1.4553  0.0858
  667MOL0     H89993   7.882   1.898   3.352  0.2492  0.7438  0.1221
  667MOL0     H89994   7.919   1.638   3.506  0.6506 -0.2521 -1.5768
  667MOL0     H89995   7.989   1.804   3.532 -0.8315  2.2365 -0.4651
  667MOL0     H89996   7.629   1.669   3.468 -1.3343 -3.4676  3.5946
  667MOL0     H89997   7.421   1.845   3.466 -1.6862 -1.0020  0.3564
  667MOL0     H89998   7.378   1.752   3.612 -0.8136  0.2872 -0.6524
  667MOL0     H89999   7.249   1.952   3.659 -1.8622  1.6154 -0.4481
  667MOL0     H90000   7.391   1.990   3.735  2.7425 -3.7179  0.0978
  667MOL0     H90001   7.344   2.181   3.601  0.8086 -0.2051  0.6098
  667MOL0     H90002   7.296   2.077   3.458 -0.4327 -1.7116  0.3514
  667MOL0     H90003   7.576   2.122   3.547 -1.6106 -0.1850  1.9713
  667MOL0     H90004   7.481   2.215   3.432 -2.2974  0.1467  1.3409
  667MOL0     H90005   7.590   1.925   3.153 -0.4121  1.8249 -2.5506
  667MOL0     H90006   7.750   1.985   2.974  1.4563  0.5255 -0.4391
  667MOL0     H90007   8.185   2.452   3.058 -1.2842 -0.2094 -1.9421
  667MOL0     H90008   8.397   2.538   2.937 -0.3858 -1.2862  1.5695
  667MOL0     H90009   8.592   2.212   2.706  0.3803 -0.3318 -1.9283
  667MOL0     H90010   8.589   2.333   2.576 -2.3694 -2.7931 -0.7486
  667MOL0     H90011   8.768   2.456   2.668 -2.6296  0.9976  0.9693
  667MOL0     H90012   8.733   2.393   2.836 -3.0701 -0.1892 -0.2173
  667MOL0     H90013   8.859   2.196   2.785  1.8166  2.6238  2.7931
  667MOL0     H90014   8.866   2.236   2.599  0.6480  3.1811 -0.8896
  667MOL0     H90015   9.006   2.348   2.848 -1.9920  1.3977 -0.6381
  667MOL0     H90016   8.978   2.453   2.717  0.9054  0.8015 -1.6667
  667MOL0     H90017   9.085   2.269   2.557 -0.0577 -0.5421 -0.5047
  667MOL0     H90018   9.145   2.198   2.709  0.9551  0.8610 -1.2657
  667MOL0     H90019   9.300   2.368   2.582 -0.4146 -0.6793 -0.2007
  667MOL0     H90020   9.179   2.492   2.650 -0.6951 -0.0552  0.0582
  667MOL0     H90021   9.373   2.291   2.774 -2.2572 -1.1519 -3.8462
  667MOL0     H90022   9.273   2.385   2.888  1.1561  1.6971  0.5977
  667MOL0     H90023   9.455   2.527   2.690  0.3084  0.1897 -0.6270
  667MOL0     H90024   9.349   2.596   2.811  0.3613 -1.5548  2.3724
  667MOL0     H90025   8.370   2.211   2.670  1.6014  1.2885 -0.2301
  667MOL0     H90026   8.143   2.136   2.770  1.6956 -1.3306 -1.2488
  667MOL0     H90027   7.905   2.300   3.228  1.0090 -0.8527 -0.6899
  667MOL0     H90028   7.725   2.241   3.400  0.4750  0.3396 -0.0855
  667MOL0     H90029   8.661   2.281   3.434  0.2663 -0.5710  0.4190
  667MOL0     H90030   8.819   2.375   3.587  0.0817 -2.6026 -0.8673
  667MOL0     H90031   8.756   2.604   4.043 -0.0004  0.6103  1.2747
  667MOL0     H90032   8.879   2.657   4.266  0.6119  1.1119 -0.2199
  667MOL0     H90033   9.061   2.537   4.461  1.5610 -0.4986 -2.6336
  667MOL0     H90034   9.031   2.723   4.433  0.3398  1.4778 -0.0601
  667MOL0     H90035   9.275   2.724   4.464  0.0277 -0.9674  0.6123
  667MOL0     H90036   9.228   2.596   4.588  1.0884  1.0398  0.7608
  667MOL0     H90037   9.045   2.746   4.670  1.1199 -2.6440  1.5046
  667MOL0     H90038   9.120   2.876   4.577 -1.2077 -0.4186 -0.6606
  667MOL0     H90039   9.228   2.719   4.818  2.4525  0.0827 -1.3124
  667MOL0     H90040   9.320   2.851   4.737  0.4779  0.6638  1.0098
  667MOL0     H90041   9.016   3.054   4.953 -0.0289  2.0004 -1.2151
  667MOL0     H90042   9.248   2.588   4.064  0.0032  0.2581 -1.0162
  667MOL0     H90043   9.124   2.487   3.756  2.3266 -0.7814 -0.8640
  667MOL0     H90044   9.161   2.655   3.762  2.9196  2.5245  2.1244
  667MOL0     H90045   9.257   2.540   3.852  0.3778  1.6742 -1.6491
  668MOL0     O90046   8.316   2.379   7.598  0.7893  0.6616  0.7198
  668MOL0     C90047   8.325   2.492   7.644 -0.5958 -0.4160  0.6545
  668MOL0     O90048   8.446   2.556   7.682  0.2616  0.1287 -0.3909
  668MOL0     C90049   8.548   2.476   7.677 -0.1093  0.0469 -0.1296
  668MOL0     C90050   8.563   2.352   7.743  0.4881  0.3768  0.3528
  668MOL0     C90051   8.684   2.277   7.738 -0.2674  0.0247 -0.0117
  668MOL0     C90052   8.794   2.321   7.655 -1.4390  0.1941 -0.0897
  668MOL0     O90053   8.904   2.245   7.634  0.4340  0.4842  0.6433
  668MOL0     C90054   8.917   2.217   7.499 -0.3136  0.2495 -0.5311
  668MOL0     C90055   8.998   2.090   7.477  0.1069 -0.3539 -0.5505
  668MOL0     C90056   9.148   2.123   7.490  0.0769 -0.4207  0.0589
  668MOL0     C90057   9.233   2.012   7.452 -0.0858 -0.3971  0.6979
  668MOL0     C90058   9.376   2.054   7.406  0.4123 -1.1213 -0.5416
  668MOL0     C90059   9.462   1.940   7.362  0.2303  1.0335  0.4375
  668MOL0     C90060   9.584   1.986   7.278  0.2838  1.0897  0.0462
  668MOL0     C90061   9.668   2.061   7.374 -0.0162  0.0520 -0.0422
  668MOL0     N90062   9.796   2.124   7.331  0.4021 -0.0298  1.1154
  668MOL0     C90063   9.873   2.200   7.414  1.0624  0.2157 -0.8748
  668MOL0     C90064   9.987   2.224   7.355 -0.9135  0.2163  0.3262
  668MOL0     C90065  10.097   2.323   7.407  0.7239  0.9210  0.2944
  668MOL0     C90066  10.232   2.326   7.332  0.2857 -0.8130  0.5039
  668MOL0     C90067  10.302   2.190   7.346  0.1774 -0.7501 -0.9227
  668MOL0     C90068  10.430   2.175   7.276 -0.3933 -1.1610 -0.6506
  668MOL0     O90069  10.535   2.242   7.351  0.5721  0.0857 -0.2723
  668MOL0     C90070  10.645   2.268   7.281  0.1205  0.7073 -1.5495
  668MOL0     C90071  10.675   2.222   7.159 -0.5124  0.7825  0.1098
  668MOL0     C90072  10.803   2.238   7.102  0.2106  0.2718  0.2285
  668MOL0     C90073  10.892   2.318   7.171 -0.7130 -0.1567 -0.3573
  668MOL0     C90074  11.022   2.339   7.113 -0.3208 -0.1781  0.2939
  668MOL0     O90075  11.127   2.368   7.202  0.6713  0.6086 -0.0687
  668MOL0     C90076  11.236   2.434   7.147  0.1240 -0.9282 -0.9512
  668MOL0     C90077  11.318   2.385   7.051 -0.1125  0.3349 -1.2938
  668MOL0     C90078  11.436   2.460   7.025 -0.0643 -0.3236  0.4466
  668MOL0     C90079  11.462   2.586   7.084 -1.0096 -0.5492  0.1670
  668MOL0     O90080  11.558   2.671   7.043  0.0185  0.5375  0.2808
  668MOL0     C90081  11.637   2.653   6.928 -0.7258 -0.9148  0.6679
  668MOL0     C90082  11.744   2.762   6.943  0.3063  0.8433 -0.3408
  668MOL0     C90083  11.844   2.775   6.819 -0.4396 -0.2838 -0.4817
  668MOL0     C90084  11.945   2.886   6.846 -0.6955 -0.4018 -0.1283
  668MOL0     C90085  12.075   2.855   6.770  0.2378  0.1139  0.2822
  668MOL0     C90086  12.158   2.972   6.743 -0.4438 -0.3502 -0.1690
  668MOL0     C90087  12.302   2.927   6.733 -0.5811  0.0566 -0.0591
  668MOL0     C90088  12.395   3.036   6.680 -0.3977  0.3956  0.6762
  668MOL0    Cl90089  12.561   2.965   6.665 -0.2702 -0.0964  0.1686
  668MOL0     C90090  11.364   2.637   7.168 -1.0093  0.2694  0.6168
  668MOL0     C90091  11.254   2.561   7.202  0.0925 -0.1941  0.0424
  668MOL0     O90092  11.032   2.358   6.987 -0.0808 -0.2747 -0.4949
  668MOL0     C90093  10.858   2.382   7.282 -0.1968 -0.5467 -0.9876
  668MOL0     C90094  10.735   2.357   7.341 -0.1224  0.2425  0.0665
  668MOL0     N90095   9.977   2.155   7.237 -1.0024  0.6788 -0.0115
  668MOL0     N90096   9.867   2.089   7.223  1.4654  0.0697  0.7172
  668MOL0     C90097   8.778   2.447   7.592  0.2109 -0.5990 -0.1196
  668MOL0     C90098   8.655   2.514   7.589 -0.3196 -0.8110 -0.2468
  668MOL0     C90099   8.209   2.578   7.648  0.2547 -0.1998  0.1656
  668MOL0     C90100   8.223   2.713   7.648  0.4783 -0.9660  0.3698
  668MOL0     C90101   8.113   2.797   7.641 -0.0827  0.0331  0.7083
  668MOL0     C90102   7.986   2.751   7.633  0.0896  0.2272  0.1347
  668MOL0     O90103   7.869   2.819   7.616 -0.0078 -0.0587  0.0438
  668MOL0     C90104   7.875   2.966   7.614 -0.2081  0.1517  0.1986
  668MOL0     C90105   7.900   3.021   7.760  0.7535 -0.0574 -0.1844
  668MOL0     C90106   7.779   2.997   7.861 -0.8633  0.1896  0.5470
  668MOL0     C90107   7.823   3.038   8.008 -0.0176  0.0629  0.4233
  668MOL0     C90108   7.720   2.987   8.095  0.6453  0.2621 -0.2037
  668MOL0     C90109   7.631   2.955   8.174 -0.1748 -0.2370  0.6707
  668MOL0     C90110   7.968   2.616   7.644 -0.6464 -0.2090 -0.6385
  668MOL0     C90111   8.077   2.529   7.662 -0.4129 -0.6924  0.0730
  668MOL0     C90112   8.043   2.382   7.669 -0.1541  0.6439  0.5131
  668MOL0     H90113   8.487   2.318   7.813 -0.0322 -0.6402 -0.6787
  668MOL0     H90114   8.711   2.189   7.796 -0.2485 -0.8609 -1.3180
  668MOL0     H90115   8.816   2.193   7.462 -0.4631 -1.2671  0.7892
  668MOL0     H90116   8.955   2.303   7.442 -1.4811  1.3340  0.2598
  668MOL0     H90117   8.984   2.041   7.380  2.2313 -0.4755 -0.8276
  668MOL0     H90118   8.974   2.022   7.560 -0.0444  1.8017  1.2739
  668MOL0     H90119   9.176   2.166   7.586  0.2898  2.5574 -1.1981
  668MOL0     H90120   9.173   2.208   7.426  2.2277 -0.6147  0.5811
  668MOL0     H90121   9.225   1.936   7.531  0.7020 -3.8976 -2.3535
  668MOL0     H90122   9.191   1.961   7.365  0.3646  2.0361 -1.0205
  668MOL0     H90123   9.377   2.131   7.327 -2.2995  0.0098  0.4034
  668MOL0     H90124   9.423   2.100   7.493 -1.2480  0.0521 -0.2101
  668MOL0     H90125   9.490   1.877   7.446 -0.6551  0.5232  0.3633
  668MOL0     H90126   9.410   1.875   7.291  2.4831 -3.4599  2.5136
  668MOL0     H90127   9.565   2.057   7.197  2.7862  0.1157 -1.5252
  668MOL0     H90128   9.640   1.903   7.233 -1.0014 -0.4824  1.2224
  668MOL0     H90129   9.618   2.144   7.425 -1.0310 -0.4287 -0.2330
  668MOL0     H90130   9.682   1.991   7.457 -2.0187  1.9660  2.0406
  668MOL0     H90131   9.835   2.243   7.506 -0.1428 -1.8613 -0.3292
  668MOL0     H90132  10.040   2.416   7.408 -1.4369 -0.3172 -0.4482
  668MOL0     H90133  10.118   2.302   7.512 -1.3836  0.9737  0.7492
  668MOL0     H90134  10.205   2.345   7.228 -2.5890  3.5869  1.7798
  668MOL0     H90135  10.291   2.411   7.368 -0.6917  0.8843 -1.6983
  668MOL0     H90136  10.238   2.119   7.293 -0.6365 -0.5673 -0.2026
  668MOL0     H90137  10.313   2.164   7.451 -0.6504  0.0040 -0.6430
  668MOL0     H90138  10.412   2.215   7.176 -1.3448 -0.8449 -0.3638
  668MOL0     H90139  10.470   2.074   7.259 -0.3046 -0.8124 -2.8440
  668MOL0     H90140  10.607   2.164   7.097  1.6241 -0.3437 -1.3258
  668MOL0     H90141  10.831   2.187   7.010 -0.5341 -2.1751  1.2698
  668MOL0     H90142  11.292   2.289   7.008 -1.0483 -0.1905  0.3529
  668MOL0     H90143  11.496   2.433   6.939 -0.3340 -0.6939  0.3718
  668MOL0     H90144  11.695   2.560   6.920  0.0556 -0.3115 -1.1433
  668MOL0     H90145  11.586   2.665   6.832  0.9289  0.5595 -0.0901
  668MOL0     H90146  11.696   2.861   6.943 -0.5393  0.4412 -0.5449
  668MOL0     H90147  11.806   2.742   7.031 -1.4639  0.9804  0.9907
  668MOL0     H90148  11.899   2.683   6.801 -0.3012 -0.1378 -0.8032
  668MOL0     H90149  11.786   2.800   6.730 -1.1968 -2.7969 -0.7552
  668MOL0     H90150  11.962   2.891   6.954  0.9228 -1.4277 -0.3071
  668MOL0     H90151  11.894   2.975   6.809  0.4722  0.2715 -0.1456
  668MOL0     H90152  12.049   2.799   6.680  1.4724 -0.0286  0.0023
  668MOL0     H90153  12.130   2.778   6.824  0.4132  1.4690  2.1226
  668MOL0     H90154  12.129   3.017   6.648  2.3068  0.3927 -0.7504
  668MOL0     H90155  12.145   3.049   6.821  1.6602 -0.7109  0.5936
  668MOL0     H90156  12.311   2.840   6.667 -1.4826 -2.2808  2.6858
  668MOL0     H90157  12.341   2.889   6.828 -1.6367 -1.5800 -0.2240
  668MOL0     H90158  12.357   3.088   6.592  0.7678 -0.4654 -0.3744
  668MOL0     H90159  12.403   3.115   6.755  2.4577  1.4026 -0.5496
  668MOL0     H90160  11.365   2.731   7.223 -2.2228  0.4087  0.4319
  668MOL0     H90161  11.193   2.603   7.281  1.2005  0.5970  0.5135
  668MOL0     H90162  10.929   2.444   7.335 -1.5111  1.4448 -1.4373
  668MOL0     H90163  10.725   2.398   7.441  0.5098 -2.6336  1.4044
  668MOL0     H90164   8.845   2.474   7.512  0.1604 -1.8879 -0.6115
  668MOL0     H90165   8.648   2.606   7.532 -1.6399 -1.0673 -0.5365
  668MOL0     H90166   8.318   2.766   7.643  0.0628 -0.1573  0.8238
  668MOL0     H90167   8.137   2.901   7.622  0.2273 -0.2018 -0.2146
  668MOL0     H90168   7.782   3.002   7.569 -0.4009 -2.9899 -2.3224
  668MOL0     H90169   7.958   2.994   7.548  0.0885  0.4424  0.6935
  668MOL0     H90170   7.913   3.129   7.755  0.6336 -0.0681 -0.8334
  668MOL0     H90171   7.994   2.978   7.797  0.3400 -0.8723 -0.0690
  668MOL0     H90172   7.768   2.888   7.862  2.1942 -0.3331 -2.6786
  668MOL0     H90173   7.691   3.052   7.825  0.0773  2.7723  1.9647
  668MOL0     H90174   7.916   2.985   8.032  0.0479  0.8791  2.0873
  668MOL0     H90175   7.837   3.146   8.015  1.6625 -0.0818 -0.1232
  668MOL0     H90176   7.547   2.924   8.232  1.6317 -0.2812  3.4134
  668MOL0     H90177   7.869   2.572   7.638 -0.3556 -0.8963 -0.4577
  668MOL0     H90178   8.088   2.335   7.757  0.7844 -0.0966 -0.3438
  668MOL0     H90179   7.935   2.366   7.663  0.2016 -2.0259 -0.0204
  668MOL0     H90180   8.089   2.336   7.581  0.4542 -3.1360  2.5901
  669MOL0     O90181   1.609   6.357   2.570 -1.0269 -0.9825 -0.5026
  669MOL0     C90182   1.545   6.341   2.671 -0.4227 -0.1065 -0.4935
  669MOL0     O90183   1.596   6.359   2.804 -0.1625 -0.0349  0.9193
  669MOL0     C90184   1.726   6.377   2.835 -0.1126 -0.0215  0.5703
  669MOL0     C90185   1.739   6.410   2.969 -0.8644  0.1793  0.1000
  669MOL0     C90186   1.873   6.434   3.017 -0.5852 -1.0918  0.1490
  669MOL0     C90187   1.988   6.409   2.939  0.8174  0.9547  0.2170
  669MOL0     O90188   2.105   6.429   2.996 -0.4277  0.1508 -0.1625
  669MOL0     C90189   2.230   6.405   2.929  0.2462  0.5115 -0.4377
  669MOL0     C90190   2.353   6.438   3.019 -0.0551  0.5510  0.8784
  669MOL0     C90191   2.368   6.342   3.132  0.2619 -0.0145  0.1374
  669MOL0     C90192   2.411   6.200   3.090  0.1059 -0.5452  0.0914
  669MOL0     C90193   2.541   6.177   3.004  0.1345  0.8602  0.4143
  669MOL0     C90194   2.665   6.227   3.078  0.9282  1.0926 -0.0472
  669MOL0     C90195   2.791   6.220   2.988  0.5032  0.0467  0.3840
  669MOL0     C90196   2.919   6.246   3.059  0.2960 -0.1678  0.1736
  669MOL0     N90197   3.033   6.237   2.971  0.1491  0.2098 -0.1527
  669MOL0     C90198   3.163   6.224   3.018  0.3064  0.8724 -0.3423
  669MOL0     C90199   3.239   6.234   2.905  0.0853  0.6654  0.7575
  669MOL0     C90200   3.388   6.252   2.896 -0.5474  0.0601 -0.2106
  669MOL0     C90201   3.467   6.161   2.995 -0.7055 -0.1701 -0.2336
  669MOL0     C90202   3.611   6.216   3.016  0.9061 -0.1761  0.2224
  669MOL0     C90203   3.695   6.106   3.073  0.4110  0.9633 -0.2764
  669MOL0     O90204   3.796   6.062   2.982  0.3064 -0.1149  0.2532
  669MOL0     C90205   3.913   6.133   2.968  0.4369 -0.6329 -1.0292
  669MOL0     C90206   4.020   6.070   2.912 -0.7782  0.7760  0.1853
  669MOL0     C90207   4.138   6.138   2.893  0.2224  0.8992 -0.7608
  669MOL0     C90208   4.161   6.269   2.938 -0.0291  0.2068 -0.3975
  669MOL0     C90209   4.292   6.340   2.916 -0.4176  0.3824 -0.5943
  669MOL0     O90210   4.399   6.264   2.900 -0.2172 -0.0603  0.2577
  669MOL0     C90211   4.527   6.319   2.884  0.7430  0.3919  0.7469
  669MOL0     C90212   4.586   6.369   2.995 -0.2381 -0.1443 -0.6227
  669MOL0     C90213   4.710   6.426   2.985 -0.6095 -0.0428 -0.6154
  669MOL0     C90214   4.770   6.451   2.866  0.2157 -0.0419  0.5473
  669MOL0     O90215   4.896   6.507   2.863  0.0584  0.0233  0.5008
  669MOL0     C90216   4.974   6.511   2.742  0.1391 -0.2310  0.3677
  669MOL0     C90217   5.106   6.584   2.764  0.6568 -0.4117 -0.0284
  669MOL0     C90218   5.197   6.507   2.873 -1.0262 -0.9518 -0.2292
  669MOL0     C90219   5.319   6.597   2.917  0.6559  0.3321  0.4703
  669MOL0     C90220   5.412   6.512   3.003 -0.3531  1.1476 -0.6932
  669MOL0     C90221   5.545   6.580   3.036  0.1216  0.4352 -0.3815
  669MOL0     C90222   5.633   6.494   3.132 -0.4432  0.4575 -0.1025
  669MOL0     C90223   5.757   6.570   3.166 -0.6131 -0.1638 -0.1759
  669MOL0    Cl90224   5.882   6.467   3.247 -0.0196 -0.2536 -0.3761
  669MOL0     C90225   4.708   6.398   2.750  0.7241  0.1261  0.9910
  669MOL0     C90226   4.586   6.334   2.755  0.0508  0.0600 -0.3645
  669MOL0     O90227   4.295   6.459   2.927 -0.0601 -0.3186 -0.2778
  669MOL0     C90228   4.048   6.335   3.003  0.2848  0.0528 -0.5708
  669MOL0     C90229   3.927   6.267   3.011 -0.6511 -0.1498  0.3580
  669MOL0     N90230   3.158   6.258   2.796 -0.0299  0.0949 -0.5464
  669MOL0     N90231   3.036   6.252   2.839 -0.1111  0.3528  0.3422
  669MOL0     C90232   1.968   6.373   2.804  0.2717  0.6728 -0.8615
  669MOL0     C90233   1.836   6.363   2.753  0.1923 -0.0918 -0.1836
  669MOL0     C90234   1.406   6.291   2.662 -0.5693  0.4512  0.1682
  669MOL0     C90235   1.374   6.190   2.753 -0.8584  0.8356  0.4178
  669MOL0     C90236   1.247   6.131   2.747 -0.5220  0.3683 -0.1522
  669MOL0     C90237   1.162   6.149   2.642  0.1095 -0.8210  0.3412
  669MOL0     O90238   1.052   6.079   2.627  0.3675 -0.1100 -0.4771
  669MOL0     C90239   1.067   5.943   2.589 -0.5401 -0.6093 -1.1760
  669MOL0     C90240   0.933   5.910   2.513 -0.9016 -0.4946  0.8313
  669MOL0     C90241   0.930   5.972   2.373 -0.0588 -0.5808 -0.6373
  669MOL0     C90242   0.797   5.947   2.318  0.3883  1.2009 -0.1549
  669MOL0     C90243   0.781   6.038   2.203  0.2496 -0.0779 -0.7395
  669MOL0     C90244   0.767   6.105   2.100 -0.5072 -0.1749  1.1715
  669MOL0     C90245   1.184   6.250   2.554 -1.2835  0.3095  0.1732
  669MOL0     C90246   1.309   6.326   2.563  0.5759 -0.4306 -0.1870
  669MOL0     C90247   1.338   6.430   2.464 -0.4081  0.2401  0.2379
  669MOL0     H90248   1.657   6.394   3.039 -3.0242  0.1879 -2.2843
  669MOL0     H90249   1.892   6.467   3.119  1.9702  2.6298 -1.3260
  669MOL0     H90250   2.236   6.301   2.896 -0.4626  0.1169  0.6200
  669MOL0     H90251   2.242   6.473   2.844 -0.3597 -1.2113 -1.9879
  669MOL0     H90252   2.327   6.535   3.062 -0.0520  0.5119  0.9681
  669MOL0     H90253   2.448   6.450   2.966  1.1164  0.3540  2.8349
  669MOL0     H90254   2.268   6.333   3.176  0.8780 -1.3198  1.3393
  669MOL0     H90255   2.439   6.403   3.187 -0.5407  1.2974 -0.2259
  669MOL0     H90256   2.430   6.143   3.182  3.3104 -2.7728 -1.7721
  669MOL0     H90257   2.326   6.161   3.034  0.0436  2.1573 -1.8774
  669MOL0     H90258   2.558   6.074   2.973  0.8013  0.9144  0.5707
  669MOL0     H90259   2.520   6.228   2.909  0.8507  3.2948  1.4804
  669MOL0     H90260   2.648   6.326   3.122 -0.3674  1.0264 -0.3364
  669MOL0     H90261   2.689   6.162   3.162 -1.1872  0.5770  0.2098
  669MOL0     H90262   2.782   6.301   2.915 -2.0316  1.6021  2.2244
  669MOL0     H90263   2.792   6.123   2.938 -0.1699  0.8500 -1.2575
  669MOL0     H90264   2.926   6.344   3.107 -1.5775 -0.6657  1.5665
  669MOL0     H90265   2.919   6.175   3.143 -1.2976  0.1388  0.4679
  669MOL0     H90266   3.203   6.207   3.118 -1.7003 -0.5351  0.2935
  669MOL0     H90267   3.422   6.246   2.793 -0.1478  1.4686 -0.1897
  669MOL0     H90268   3.415   6.352   2.932 -3.3231  0.5178  0.8410
  669MOL0     H90269   3.421   6.164   3.094 -0.1132  0.2455  0.0320
  669MOL0     H90270   3.477   6.060   2.955 -0.7229  0.6022 -2.3117
  669MOL0     H90271   3.595   6.304   3.080  2.7438 -0.8913  1.7824
  669MOL0     H90272   3.652   6.255   2.923  0.9939  0.1385  0.3909
  669MOL0     H90273   3.639   6.018   3.106  0.7132  1.8659  2.9445
  669MOL0     H90274   3.736   6.148   3.165  0.9681 -0.2301  0.0434
  669MOL0     H90275   4.014   5.966   2.883 -1.7471  1.5438 -2.8658
  669MOL0     H90276   4.216   6.079   2.845  0.0804  1.2119 -1.3896
  669MOL0     H90277   4.538   6.352   3.090 -0.7864 -0.2565 -0.9141
  669MOL0     H90278   4.753   6.449   3.082  2.4186 -1.1601 -1.5808
  669MOL0     H90279   4.991   6.408   2.711  0.0700 -0.8449  2.2093
  669MOL0     H90280   4.914   6.562   2.667  0.5789  0.3403  0.3962
  669MOL0     H90281   5.160   6.593   2.669 -0.3237  2.7155 -0.4026
  669MOL0     H90282   5.089   6.686   2.800 -0.4412 -0.7835  0.5410
  669MOL0     H90283   5.145   6.499   2.969  1.4016  2.4048  1.6087
  669MOL0     H90284   5.232   6.409   2.841  3.0396 -0.1257  1.0421
  669MOL0     H90285   5.282   6.671   2.989  1.2825 -0.2971  1.4542
  669MOL0     H90286   5.368   6.637   2.828 -2.0379 -2.1674 -2.4024
  669MOL0     H90287   5.433   6.424   2.942  1.3051  0.8039  0.3257
  669MOL0     H90288   5.362   6.474   3.093  1.0762 -0.5574 -0.5633
  669MOL0     H90289   5.609   6.611   2.953  1.0622  0.2486  0.2470
  669MOL0     H90290   5.525   6.676   3.084  4.9011  1.4019  0.2623
  669MOL0     H90291   5.654   6.395   3.090 -2.1207 -0.1982  0.5384
  669MOL0     H90292   5.580   6.470   3.225 -0.7698 -2.5970 -0.9577
  669MOL0     H90293   5.796   6.627   3.081  2.2400  0.4901  1.4145
  669MOL0     H90294   5.719   6.645   3.236 -3.3861 -0.9203 -0.7757
  669MOL0     H90295   4.743   6.408   2.648  0.1122 -3.2468  0.3307
  669MOL0     H90296   4.541   6.288   2.668 -0.5418 -0.1225  0.0301
  669MOL0     H90297   4.074   6.429   3.050  2.4991 -0.2328 -1.1042
  669MOL0     H90298   3.842   6.323   3.050  0.1884  0.5295  1.2513
  669MOL0     H90299   2.057   6.360   2.743  0.8568  2.5196 -0.4734
  669MOL0     H90300   1.822   6.331   2.650 -1.3729  0.2895 -0.1026
  669MOL0     H90301   1.442   6.175   2.837 -0.8538 -1.0004  0.1097
  669MOL0     H90302   1.223   6.058   2.823  1.2784  0.8849  0.9596
  669MOL0     H90303   1.093   5.880   2.675  0.3030 -1.7286 -2.2179
  669MOL0     H90304   1.158   5.937   2.529  0.1154 -0.0615 -0.2633
  669MOL0     H90305   0.845   5.933   2.572  0.8567 -0.0224  3.4576
  669MOL0     H90306   0.929   5.803   2.490 -1.4134 -0.4121  0.5261
  669MOL0     H90307   1.013   5.937   2.312  1.8997  1.3461  0.7623
  669MOL0     H90308   0.938   6.079   2.393  2.5571 -0.9931  1.0228
  669MOL0     H90309   0.787   5.842   2.287  0.0588  0.9878  0.6517
  669MOL0     H90310   0.717   5.956   2.392 -2.4603 -5.6736 -1.6147
  669MOL0     H90311   0.745   6.158   2.009 -1.4188  0.1999  1.5985
  669MOL0     H90312   1.120   6.262   2.467  1.5492 -1.1620 -2.2935
  669MOL0     H90313   1.379   6.516   2.516  0.1443  2.0211 -2.8953
  669MOL0     H90314   1.413   6.388   2.397 -1.7237 -4.8349  1.5016
  669MOL0     H90315   1.253   6.455   2.399 -1.0687  1.4332  1.5050
  670MOL0     O90316   0.665  10.139   4.827 -0.3741 -0.0765  0.2389
  670MOL0     C90317   0.582  10.173   4.749  0.6267  0.5398 -0.0521
  670MOL0     O90318   0.601  10.192   4.616  0.7558 -0.0560  0.6979
  670MOL0     C90319   0.729  10.188   4.574 -0.1683 -0.2215 -0.2277
  670MOL0     C90320   0.761  10.141   4.447 -0.0732 -0.1394 -0.9158
  670MOL0     C90321   0.892  10.142   4.397 -0.2311  0.2317 -0.4433
  670MOL0     C90322   1.001  10.189   4.479 -0.0005 -0.3867  0.9680
  670MOL0     O90323   1.128  10.192   4.423 -0.3786  0.2191 -0.0852
  670MOL0     C90324   1.145  10.182   4.282 -0.0081 -0.5311 -0.0502
  670MOL0     C90325   1.289  10.212   4.254  0.1239 -0.0593  0.0468
  670MOL0     C90326   1.379  10.087   4.247 -0.3553  0.0380  0.3025
  670MOL0     C90327   1.395  10.005   4.372  0.3173  0.8126  0.5699
  670MOL0     C90328   1.486  10.078   4.464 -0.0292 -0.1677 -0.4307
  670MOL0     C90329   1.519   9.985   4.584 -1.0091  0.5822  0.8712
  670MOL0     C90330   1.630  10.058   4.670 -0.8906 -0.9731  0.2029
  670MOL0     C90331   1.669   9.977   4.790 -0.7861 -0.6809  0.3687
  670MOL0     N90332   1.582  10.005   4.906 -1.3152  1.0241  0.1206
  670MOL0     C90333   1.475   9.920   4.940 -0.8448 -0.2051  0.2214
  670MOL0     C90334   1.411   9.984   5.039 -1.1669 -0.3100  0.5520
  670MOL0     C90335   1.286   9.943   5.111 -0.1943 -0.1674 -0.1646
  670MOL0     C90336   1.310   9.866   5.241 -0.5011  0.3841 -0.3901
  670MOL0     C90337   1.401   9.925   5.349  0.2137  0.0139  0.3091
  670MOL0     C90338   1.400   9.844   5.478 -0.6589 -1.0437  0.1647
  670MOL0     O90339   1.483   9.920   5.567 -0.7385  0.4904  0.4111
  670MOL0     C90340   1.524   9.861   5.684 -1.0337 -0.3979 -1.1406
  670MOL0     C90341   1.601   9.940   5.765  0.3903 -0.1333 -0.1610
  670MOL0     C90342   1.651   9.880   5.883 -0.1466 -0.4739  0.5778
  670MOL0     C90343   1.619   9.750   5.928  0.4221 -0.3228  0.0486
  670MOL0     C90344   1.667   9.694   6.061 -0.2819 -0.4968  0.5812
  670MOL0     O90345   1.659   9.557   6.082  0.3263  0.0925  1.0503
  670MOL0     C90346   1.677   9.512   6.211 -0.2865  0.2919 -0.0102
  670MOL0     C90347   1.808   9.477   6.260  0.4792  0.0658  0.8099
  670MOL0     C90348   1.828   9.436   6.390  0.1094  0.4726  0.2966
  670MOL0     C90349   1.711   9.419   6.479  0.2696 -0.4423  0.0181
  670MOL0     O90350   1.734   9.382   6.605  0.0130 -0.1699 -0.7596
  670MOL0     C90351   1.631   9.407   6.705 -0.3195  0.5859  0.1752
  670MOL0     C90352   1.662   9.324   6.835 -0.2872 -0.2459  0.2680
  670MOL0     C90353   1.594   9.388   6.955  0.3745 -0.8590 -0.2136
  670MOL0     C90354   1.467   9.302   6.979  0.4670 -0.0996 -0.2611
  670MOL0     C90355   1.382   9.364   7.085  0.0121  0.1045 -0.0381
  670MOL0     C90356   1.411   9.308   7.224  0.1747 -0.8352 -0.1253
  670MOL0     C90357   1.354   9.416   7.317 -0.4563 -0.2900  0.0282
  670MOL0     C90358   1.340   9.396   7.459 -0.2750 -0.3425 -0.4051
  670MOL0    Cl90359   1.497   9.341   7.522 -0.2015 -0.1106 -0.2984
  670MOL0     C90360   1.588   9.433   6.419  0.4555 -0.4570 -0.9541
  670MOL0     C90361   1.566   9.481   6.290  0.2740  0.2375 -0.2223
  670MOL0     O90362   1.700   9.775   6.142 -0.1970  0.4899  0.6109
  670MOL0     C90363   1.529   9.682   5.850  0.0600  0.1171 -0.3283
  670MOL0     C90364   1.489   9.732   5.727 -0.1801  0.0470 -0.3225
  670MOL0     N90365   1.470  10.109   5.063 -0.3224  0.3106 -0.2288
  670MOL0     N90366   1.573  10.121   4.981  0.1020  0.6972  0.1937
  670MOL0     C90367   0.972  10.253   4.600  0.1252 -0.0940  0.1993
  670MOL0     C90368   0.835  10.258   4.641 -0.2967 -0.0030 -0.1960
  670MOL0     C90369   0.443  10.170   4.795  0.7168 -1.1855 -0.3201
  670MOL0     C90370   0.340  10.140   4.704 -0.0612  0.4358 -0.2446
  670MOL0     C90371   0.205  10.135   4.740 -0.6894  0.6299  0.1862
  670MOL0     C90372   0.159  10.165   4.866  0.5132 -0.1867 -0.3610
  670MOL0     O90373   0.030  10.156   4.892  0.4312  0.2401 -0.6099
  670MOL0     C90374  -0.014  10.202   5.017  0.4354  0.0824  0.2047
  670MOL0     C90375  -0.170  10.194   5.040 -0.3250  0.6765 -0.1832
  670MOL0     C90376  -0.210  10.041   5.014 -0.0081  0.4664 -0.8945
  670MOL0     C90377  -0.120   9.933   5.074 -0.2175  0.3815 -0.6665
  670MOL0     C90378  -0.170   9.800   5.048  0.2133  0.8751  0.3014
  670MOL0     C90379  -0.226   9.694   5.030 -0.1366 -0.1328 -0.6882
  670MOL0     C90380   0.257  10.190   4.958  0.3743  0.3199  0.1419
  670MOL0     C90381   0.393  10.186   4.928  0.5031 -0.9286  0.5488
  670MOL0     C90382   0.484  10.208   5.045  0.1746 -0.6592 -0.3275
  670MOL0     H90383   0.675  10.102   4.394 -1.7373  0.1482  1.4304
  670MOL0     H90384   0.910  10.100   4.298  1.0161 -0.7201  0.1507
  670MOL0     H90385   1.126  10.077   4.257  1.9051 -0.9549  0.1540
  670MOL0     H90386   1.081  10.256   4.233  1.5345 -0.0547 -1.4250
  670MOL0     H90387   1.330  10.284   4.325  0.0360  3.1890 -2.9331
  670MOL0     H90388   1.297  10.268   4.160  1.2264 -0.5515 -0.1711
  670MOL0     H90389   1.480  10.118   4.217  0.6036 -2.0382  1.1488
  670MOL0     H90390   1.340  10.021   4.170  0.7664 -1.1488  0.7173
  670MOL0     H90391   1.292   9.995   4.407 -1.4493  0.7483 -3.8966
  670MOL0     H90392   1.440   9.910   4.342  3.1075  0.9537  3.7785
  670MOL0     H90393   1.579  10.114   4.420  1.1902  0.7854  2.7184
  670MOL0     H90394   1.441  10.173   4.495  1.0741 -0.2411  1.4984
  670MOL0     H90395   1.435   9.953   4.645 -0.0446  1.2240  2.5973
  670MOL0     H90396   1.556   9.891   4.541 -1.1479  1.2121 -0.7107
  670MOL0     H90397   1.589  10.153   4.707  1.3763  1.7749 -3.6767
  670MOL0     H90398   1.721  10.078   4.613 -1.2552 -0.3798 -0.1829
  670MOL0     H90399   1.694   9.873   4.766  1.2247 -0.5373  1.6711
  670MOL0     H90400   1.767  10.013   4.820 -0.4065 -1.3890  0.0153
  670MOL0     H90401   1.444   9.824   4.900 -2.1220 -0.2008  1.1699
  670MOL0     H90402   1.231  10.036   5.131  0.2027 -0.2012  1.1433
  670MOL0     H90403   1.210   9.891   5.052  0.9455 -3.0854  0.7638
  670MOL0     H90404   1.213   9.857   5.292  0.6715 -2.1833  1.6765
  670MOL0     H90405   1.344   9.764   5.221 -2.3840  0.0051 -2.0091
  670MOL0     H90406   1.365  10.027   5.365 -2.2772 -0.5666 -1.0719
  670MOL0     H90407   1.504   9.931   5.313 -0.1828  1.7359 -0.6868
  670MOL0     H90408   1.441   9.744   5.456  1.7425  0.5369 -3.6110
  670MOL0     H90409   1.298   9.844   5.517 -0.8531 -0.2382 -0.3148
  670MOL0     H90410   1.618  10.047   5.759  2.6261 -0.4722 -0.5481
  670MOL0     H90411   1.710   9.952   5.939 -1.2180  0.0308  1.0846
  670MOL0     H90412   1.886   9.494   6.187 -0.7512 -0.0236 -0.5782
  670MOL0     H90413   1.927   9.407   6.422  1.4585  4.4820  0.3732
  670MOL0     H90414   1.625   9.515   6.721  0.6327  0.4813  1.3557
  670MOL0     H90415   1.532   9.372   6.673  0.1615  1.0530 -1.9861
  670MOL0     H90416   1.645   9.217   6.816 -0.1125 -0.1515 -0.4666
  670MOL0     H90417   1.771   9.326   6.844 -0.4499  0.5444  2.5059
  670MOL0     H90418   1.665   9.382   7.038  1.6501 -0.9325 -1.2658
  670MOL0     H90419   1.564   9.492   6.938  0.1791 -0.8716  0.0431
  670MOL0     H90420   1.499   9.200   7.001  2.7016  0.4580 -0.7294
  670MOL0     H90421   1.408   9.292   6.888  2.3681  1.5112 -1.7620
  670MOL0     H90422   1.274   9.354   7.067  0.1758 -1.2651 -0.4363
  670MOL0     H90423   1.404   9.471   7.085  1.2808  0.0645 -4.4377
  670MOL0     H90424   1.372   9.207   7.242  1.7073 -1.0287  2.6559
  670MOL0     H90425   1.519   9.308   7.237  0.0680 -0.7284  0.7996
  670MOL0     H90426   1.255   9.443   7.280 -0.9808 -0.3161  1.3384
  670MOL0     H90427   1.413   9.508   7.307  2.5754 -2.2492 -1.6073
  670MOL0     H90428   1.297   9.486   7.505  0.2826 -0.2501 -0.0524
  670MOL0     H90429   1.270   9.317   7.487  1.7766 -1.4568  1.8468
  670MOL0     H90430   1.495   9.421   6.473  0.2762 -2.7085 -1.6617
  670MOL0     H90431   1.465   9.486   6.249  0.0716  3.7533  0.3616
  670MOL0     H90432   1.483   9.586   5.870  0.1151 -0.1600 -1.4543
  670MOL0     H90433   1.421   9.669   5.671  0.1048 -1.8445  1.3491
  670MOL0     H90434   1.051  10.297   4.660 -0.4527  2.0828 -0.5177
  670MOL0     H90435   0.822  10.302   4.739  2.6042  2.1071 -0.6322
  670MOL0     H90436   0.370  10.115   4.602  1.7329  2.4724 -0.2958
  670MOL0     H90437   0.134  10.105   4.663 -0.7851 -2.2393  1.2560
  670MOL0     H90438   0.012  10.309   5.018  0.0506  0.2292 -1.6865
  670MOL0     H90439   0.039  10.150   5.097  0.5489  1.0506  0.7804
  670MOL0     H90440  -0.224  10.251   4.964  1.0818 -0.0610 -1.8013
  670MOL0     H90441  -0.197  10.219   5.143 -2.1364 -0.0772 -0.4379
  670MOL0     H90442  -0.213  10.026   4.905 -2.0629  1.4990 -1.0345
  670MOL0     H90443  -0.312  10.028   5.051  0.4154  1.5004  0.7203
  670MOL0     H90444  -0.023   9.935   5.025 -0.7920  2.1505 -1.8413
  670MOL0     H90445  -0.120   9.959   5.180 -0.5311 -2.7767  0.2124
  670MOL0     H90446  -0.277   9.602   5.013  1.3160 -0.6444 -2.6800
  670MOL0     H90447   0.228  10.222   5.058  0.4170  0.4176  0.1237
  670MOL0     H90448   0.557  10.286   5.022 -0.1358 -0.3108 -0.1442
  670MOL0     H90449   0.436  10.240   5.138  2.0940 -0.4592  0.6544
  670MOL0     H90450   0.536  10.114   5.064 -0.9761 -1.4810 -1.1177
  671MOL0     O90451  10.557   4.780   2.225  0.7994  0.0794  0.1187
  671MOL0     C90452  10.475   4.690   2.242 -0.0459  0.7708  0.4513
  671MOL0     O90453  10.497   4.579   2.317 -0.0920  0.3872  0.0770
  671MOL0     C90454  10.590   4.556   2.415 -0.5417 -0.2114  0.1453
  671MOL0     C90455  10.554   4.472   2.519 -0.1011 -0.2426 -0.3631
  671MOL0     C90456  10.652   4.437   2.618 -0.3228  0.3068 -0.2343
  671MOL0     C90457  10.784   4.490   2.615 -0.3155 -0.1758 -0.5319
  671MOL0     O90458  10.869   4.458   2.720  0.6013  0.9847  0.1589
  671MOL0     C90459  11.009   4.487   2.711  0.1545  0.2680 -0.7872
  671MOL0     C90460  11.082   4.437   2.827  0.0225  0.3361 -0.1677
  671MOL0     C90461  11.193   4.537   2.862 -0.0364 -0.3483  0.4506
  671MOL0     C90462  11.297   4.480   2.949  0.3354 -0.3955 -0.4541
  671MOL0     C90463  11.393   4.583   2.997 -0.6939 -0.3365  0.9083
  671MOL0     C90464  11.516   4.535   3.072 -0.2237 -0.9524  0.5537
  671MOL0     C90465  11.589   4.638   3.159 -0.0156 -0.1792  0.6988
  671MOL0     C90466  11.667   4.737   3.080  0.7604  0.0308 -0.3493
  671MOL0     N90467  11.741   4.823   3.180  0.6418 -0.8404  0.3731
  671MOL0     C90468  11.878   4.817   3.197  0.2161 -0.5981 -0.1438
  671MOL0     C90469  11.914   4.936   3.261 -0.0319  0.2165  0.1925
  671MOL0     C90470  12.059   4.980   3.294  0.4409  0.3200 -0.5976
  671MOL0     C90471  12.154   4.998   3.174  0.0558  0.0775 -0.6059
  671MOL0     C90472  12.177   5.135   3.111 -0.0994  0.5027 -1.0042
  671MOL0     C90473  12.295   5.136   3.005  0.2255  0.0673  0.7594
  671MOL0     O90474  12.356   5.260   2.970  0.1057 -0.5313  0.5160
  671MOL0     C90475  12.470   5.300   3.038  0.1293  0.7734 -0.2945
  671MOL0     C90476  12.543   5.383   2.963 -0.1337 -0.1865  0.4566
  671MOL0     C90477  12.663   5.439   3.007 -0.2380  0.1807  0.1382
  671MOL0     C90478  12.726   5.406   3.127  0.8132  0.7507  0.3356
  671MOL0     C90479  12.854   5.459   3.169  0.2011 -0.4004 -0.4678
  671MOL0     O90480  12.936   5.518   3.082 -0.9374 -0.7736 -0.5394
  671MOL0     C90481  13.060   5.546   3.140  1.1557 -0.8800  0.2861
  671MOL0     C90482  13.174   5.475   3.092  0.1336 -0.9699 -0.2209
  671MOL0     C90483  13.306   5.512   3.146  0.7288  0.4232  0.7840
  671MOL0     C90484  13.322   5.619   3.236  0.0246 -0.5350  0.5057
  671MOL0     O90485  13.446   5.669   3.277  1.0159 -0.1529 -1.0771
  671MOL0     C90486  13.568   5.612   3.217 -0.1669  0.0726 -0.4755
  671MOL0     C90487  13.699   5.669   3.275 -0.1990 -0.4030 -0.6843
  671MOL0     C90488  13.809   5.566   3.234  0.0222  0.4698  0.6834
  671MOL0     C90489  13.953   5.615   3.254  0.0373 -0.4430  0.4458
  671MOL0     C90490  13.987   5.750   3.174 -0.5679 -0.1046  0.3209
  671MOL0     C90491  14.145   5.762   3.174 -0.0138 -0.1172  0.5148
  671MOL0     C90492  14.200   5.881   3.096  0.1813 -0.4808 -0.3095
  671MOL0     C90493  14.347   5.875   3.081 -0.1461 -0.3444  0.0183
  671MOL0    Cl90494  14.410   5.935   3.243 -0.1750  0.1077  0.2415
  671MOL0     C90495  13.210   5.688   3.275 -0.0181 -1.0719  0.6317
  671MOL0     C90496  13.085   5.652   3.226 -0.5234  0.5351 -0.3260
  671MOL0     O90497  12.879   5.436   3.289  1.1445  0.4308 -0.1521
  671MOL0     C90498  12.651   5.315   3.214  0.1549  0.0898 -0.3208
  671MOL0     C90499  12.526   5.260   3.166  0.1433 -0.3159 -0.3697
  671MOL0     N90500  11.798   5.009   3.264  0.3391 -0.0650  0.6487
  671MOL0     N90501  11.697   4.943   3.221  0.3828 -0.8037  0.3896
  671MOL0     C90502  10.816   4.585   2.507  0.5537 -0.4651 -0.1149
  671MOL0     C90503  10.718   4.611   2.409  0.0386 -0.4749  0.1444
  671MOL0     C90504  10.345   4.691   2.170  0.4826 -1.0821 -0.1425
  671MOL0     C90505  10.323   4.791   2.069 -0.5484  0.4653 -0.0066
  671MOL0     C90506  10.200   4.810   2.002  0.0206  0.1399  0.2061
  671MOL0     C90507  10.092   4.731   2.036  0.2720 -0.6493  0.0599
  671MOL0     O90508   9.980   4.769   1.965  0.3398 -0.1802 -0.1808
  671MOL0     C90509   9.879   4.675   1.947 -0.2371 -0.4781 -0.4379
  671MOL0     C90510   9.758   4.707   1.858 -0.6546  0.7239 -0.3574
  671MOL0     C90511   9.798   4.717   1.701  0.4708 -0.2500 -0.0191
  671MOL0     C90512   9.671   4.730   1.625  0.7325 -0.1369  0.6770
  671MOL0     C90513   9.604   4.855   1.670 -0.4132 -0.7110  0.6809
  671MOL0     C90514   9.554   4.966   1.706 -0.1618  0.2955  0.3519
  671MOL0     C90515  10.100   4.642   2.141 -0.3162  0.0301 -0.6310
  671MOL0     C90516  10.224   4.621   2.207  1.1800  0.3995 -0.1893
  671MOL0     C90517  10.224   4.520   2.319 -0.2332 -0.2120 -0.7498
  671MOL0     H90518  10.451   4.440   2.521 -0.6226  1.3489 -0.2561
  671MOL0     H90519  10.618   4.376   2.701  3.3291 -1.7710 -0.0240
  671MOL0     H90520  11.051   4.423   2.632  1.2423  1.8715 -1.5563
  671MOL0     H90521  11.033   4.593   2.698 -1.2526  0.7160  0.0338
  671MOL0     H90522  11.114   4.335   2.805 -0.8302  0.3562 -1.7330
  671MOL0     H90523  11.017   4.426   2.914 -3.7758  3.5560 -2.2557
  671MOL0     H90524  11.154   4.621   2.920 -0.6134 -2.2810  3.0589
  671MOL0     H90525  11.236   4.567   2.766 -2.1033 -2.0721 -1.1023
  671MOL0     H90526  11.251   4.429   3.034 -1.2230  1.2607 -0.2443
  671MOL0     H90527  11.358   4.403   2.900  2.4301 -0.1668  1.5936
  671MOL0     H90528  11.421   4.651   2.916  1.4808 -0.3706  1.5595
  671MOL0     H90529  11.344   4.647   3.070  0.9251  0.3708  1.4251
  671MOL0     H90530  11.483   4.454   3.138 -0.0213 -0.7141  0.9515
  671MOL0     H90531  11.585   4.486   3.002 -1.4389 -0.5742 -0.9482
  671MOL0     H90532  11.662   4.591   3.224  0.7193  1.0163  0.7638
  671MOL0     H90533  11.510   4.690   3.215 -1.3426 -2.0816  0.6919
  671MOL0     H90534  11.731   4.671   3.021 -1.3209 -1.1267 -1.4418
  671MOL0     H90535  11.608   4.803   3.015  1.7492  1.8322  0.4949
  671MOL0     H90536  11.949   4.736   3.184 -0.5300 -1.5194  1.3322
  671MOL0     H90537  12.050   5.070   3.355 -0.7178 -1.6491  2.4030
  671MOL0     H90538  12.092   4.908   3.370 -0.5313  1.0233  0.5338
  671MOL0     H90539  12.250   4.952   3.200 -0.9604 -2.9114 -1.6680
  671MOL0     H90540  12.120   4.932   3.094  1.4700 -1.6266  0.1284
  671MOL0     H90541  12.199   5.205   3.192  0.0866 -1.9194  1.1475
  671MOL0     H90542  12.085   5.155   3.056 -1.1453  0.2369  0.6075
  671MOL0     H90543  12.255   5.105   2.908 -2.5601 -0.0202  1.8433
  671MOL0     H90544  12.372   5.066   3.040  0.0398  0.7725  2.6815
  671MOL0     H90545  12.506   5.402   2.863  2.0027  0.1743 -0.3117
  671MOL0     H90546  12.704   5.514   2.941  2.5552 -0.1249  1.3852
  671MOL0     H90547  13.162   5.390   3.025 -0.4936 -0.0494 -1.3298
  671MOL0     H90548  13.392   5.459   3.106  0.7974  2.4260 -2.0466
  671MOL0     H90549  13.564   5.505   3.242 -0.6622  0.0354 -0.7011
  671MOL0     H90550  13.560   5.622   3.109 -3.0942  0.1670 -0.3411
  671MOL0     H90551  13.708   5.771   3.238  0.5594 -0.4075 -0.5164
  671MOL0     H90552  13.698   5.694   3.382 -2.1048  0.4039 -0.8456
  671MOL0     H90553  13.802   5.473   3.290  1.7057 -1.9587 -2.7956
  671MOL0     H90554  13.782   5.543   3.131 -2.6142  1.5752  1.0303
  671MOL0     H90555  14.007   5.532   3.207 -0.3549 -1.0682  1.0712
  671MOL0     H90556  13.980   5.623   3.360 -0.1726  0.3990  0.4393
  671MOL0     H90557  13.951   5.836   3.232  2.2780  0.3133  1.6694
  671MOL0     H90558  13.947   5.734   3.074 -0.3257  0.8716  0.0582
  671MOL0     H90559  14.171   5.761   3.280  0.3936  1.9241  0.4791
  671MOL0     H90560  14.182   5.669   3.129  2.1844  1.8515 -2.0836
  671MOL0     H90561  14.165   5.976   3.138 -2.9803 -0.3315 -2.9151
  671MOL0     H90562  14.147   5.882   3.001 -0.9088  0.2708  0.2858
  671MOL0     H90563  14.383   5.773   3.067  2.5012  0.4656  0.2037
  671MOL0     H90564  14.391   5.935   3.000  1.5630 -0.4760  0.8075
  671MOL0     H90565  13.228   5.778   3.334  0.2742  0.5960 -1.8653
  671MOL0     H90566  13.002   5.714   3.258  1.4944  2.3765  1.7058
  671MOL0     H90567  12.696   5.293   3.311  0.0230  1.4277  0.0667
  671MOL0     H90568  12.472   5.187   3.225  2.1059 -0.2777  1.6128
  671MOL0     H90569  10.907   4.644   2.503  0.6612 -0.6576 -0.5390
  671MOL0     H90570  10.734   4.687   2.333  1.0725  0.2502  1.0506
  671MOL0     H90571  10.414   4.845   2.046  1.0529 -2.6939 -1.6703
  671MOL0     H90572  10.195   4.895   1.935  1.3351  0.7142  0.8046
  671MOL0     H90573   9.837   4.658   2.047  1.2607  1.1355  0.5147
  671MOL0     H90574   9.929   4.586   1.906 -0.0997 -0.8628  0.5356
  671MOL0     H90575   9.711   4.802   1.885  0.7641  1.8727 -1.7767
  671MOL0     H90576   9.689   4.623   1.872  1.8406 -1.5059 -0.8482
  671MOL0     H90577   9.861   4.635   1.665 -0.0352 -0.2936 -0.8220
  671MOL0     H90578   9.854   4.810   1.683 -0.5121 -0.0676 -2.5163
  671MOL0     H90579   9.694   4.727   1.518 -1.0672  0.3156  0.2513
  671MOL0     H90580   9.609   4.643   1.649 -0.5428  1.0804  1.9730
  671MOL0     H90581   9.518   5.056   1.751  2.3231  0.5634  2.0058
  671MOL0     H90582  10.006   4.600   2.174 -0.9248  1.6686 -0.1876
  671MOL0     H90583  10.252   4.570   2.411 -0.3677 -2.4429  0.5747
  671MOL0     H90584  10.130   4.466   2.336 -1.1335  0.9271 -1.9078
  671MOL0     H90585  10.288   4.432   2.309 -1.9237 -1.6349  0.2965
  672MOL0     O90586   0.985   6.044   7.285 -0.1618  0.3273  0.3006
  672MOL0     C90587   0.903   5.965   7.339 -0.4558 -0.2955 -0.2326
  672MOL0     O90588   0.919   5.910   7.465  0.2103  0.5629 -0.0035
  672MOL0     C90589   1.017   5.917   7.559 -0.1563  1.0253  0.0932
  672MOL0     C90590   1.132   5.998   7.550 -0.2024 -0.7149 -0.5199
  672MOL0     C90591   1.220   6.004   7.652  0.0208 -0.6162 -0.0092
  672MOL0     C90592   1.197   5.936   7.774  0.4076 -0.1919  0.9258
  672MOL0     O90593   1.273   5.937   7.887 -0.0543  0.4426  0.2309
  672MOL0     C90594   1.363   6.049   7.911 -0.6088 -0.3948  0.0454
  672MOL0     C90595   1.432   6.017   8.044 -0.2923  0.0097 -0.4380
  672MOL0     C90596   1.495   5.879   8.033 -0.1299 -0.7585 -0.5681
  672MOL0     C90597   1.582   5.857   8.159  0.7037 -1.0350 -1.1854
  672MOL0     C90598   1.504   5.815   8.292 -0.0157  0.4855 -0.2938
  672MOL0     C90599   1.435   5.678   8.281 -0.3106  0.4851 -0.1932
  672MOL0     C90600   1.408   5.604   8.418 -0.0974 -0.4076 -0.7477
  672MOL0     C90601   1.306   5.678   8.509  0.8067 -1.0204 -0.6345
  672MOL0     N90602   1.381   5.738   8.622  0.6814 -0.3264  0.4487
  672MOL0     C90603   1.454   5.680   8.713  0.8103  0.3901 -0.3290
  672MOL0     C90604   1.509   5.783   8.777 -0.0321 -0.1871 -0.4855
  672MOL0     C90605   1.603   5.779   8.887 -0.1974  0.1692 -0.0594
  672MOL0     C90606   1.749   5.758   8.838 -0.0335 -0.0642  0.8665
  672MOL0     C90607   1.859   5.760   8.943  0.3733  0.5858 -0.5138
  672MOL0     C90608   1.998   5.793   8.880 -1.5016 -0.2732 -0.1127
  672MOL0     O90609   2.099   5.791   8.975 -0.4489  0.2492  0.3007
  672MOL0     C90610   2.235   5.796   8.943  0.4749  0.6297  1.5696
  672MOL0     C90611   2.328   5.765   9.038  0.6576  0.3171  0.1911
  672MOL0     C90612   2.471   5.771   9.013  0.1179  0.3090 -0.3814
  672MOL0     C90613   2.519   5.811   8.888  0.2108  0.0859 -0.1428
  672MOL0     C90614   2.669   5.816   8.860  0.5787 -0.2269  0.2725
  672MOL0     O90615   2.763   5.805   8.970 -0.1476 -0.3143  0.7201
  672MOL0     C90616   2.895   5.830   8.961 -1.2623  0.0496 -0.1016
  672MOL0     C90617   2.958   5.926   8.874 -0.0711 -0.1476 -1.0450
  672MOL0     C90618   3.098   5.934   8.860 -0.1814 -0.6436  0.0531
  672MOL0     C90619   3.185   5.865   8.951 -0.2400 -0.5110  0.7356
  672MOL0     O90620   3.325   5.877   8.949  0.0770  0.5065  0.5154
  672MOL0     C90621   3.385   5.856   8.821  0.5714 -0.5749 -0.1728
  672MOL0     C90622   3.532   5.881   8.829  0.2082  0.9243  0.5969
  672MOL0     C90623   3.606   5.771   8.914  0.1041  0.2134  0.1922
  672MOL0     C90624   3.573   5.771   9.065  0.2942  0.0603  0.4353
  672MOL0     C90625   3.674   5.700   9.147 -0.2498 -0.4114  0.0384
  672MOL0     C90626   3.814   5.768   9.142  0.3677 -0.7218  0.4714
  672MOL0     C90627   3.900   5.690   9.242  0.6010 -0.3397  0.6576
  672MOL0     C90628   4.011   5.771   9.294  0.8697  0.1990 -0.2472
  672MOL0    Cl90629   4.111   5.671   9.409 -0.1467  0.2323  0.0030
  672MOL0     C90630   3.119   5.779   9.043 -0.3390  0.2619  0.1304
  672MOL0     C90631   2.986   5.763   9.054  0.6157 -0.0257  0.1888
  672MOL0     O90632   2.703   5.834   8.747 -0.0516 -0.5163 -0.6689
  672MOL0     C90633   2.420   5.844   8.788  0.0860  0.8834  0.0482
  672MOL0     C90634   2.286   5.839   8.816  0.7243 -0.1008  1.0151
  672MOL0     N90635   1.467   5.902   8.724 -0.4188 -0.3373 -0.1179
  672MOL0     N90636   1.392   5.874   8.626  0.1287  0.6036  0.2657
  672MOL0     C90637   1.083   5.849   7.772 -0.0856  0.5938 -0.2886
  672MOL0     C90638   0.989   5.839   7.667  0.7079 -0.2421  0.2514
  672MOL0     C90639   0.791   5.904   7.263 -0.7923 -0.2013 -0.5017
  672MOL0     C90640   0.689   5.853   7.339  0.3214  0.3889 -0.3382
  672MOL0     C90641   0.571   5.804   7.272  0.4264  0.3284  0.3342
  672MOL0     C90642   0.548   5.808   7.133 -0.7057  0.1740 -0.1323
  672MOL0     O90643   0.433   5.765   7.075  0.0995 -0.0798 -0.1185
  672MOL0     C90644   0.329   5.697   7.150 -0.2559  1.0019 -1.0721
  672MOL0     C90645   0.373   5.555   7.170 -0.5072 -1.0717  0.0676
  672MOL0     C90646   0.271   5.461   7.220  0.2241 -0.0314 -1.0772
  672MOL0     C90647   0.293   5.309   7.202 -0.8086  0.5210 -0.5412
  672MOL0     C90648   0.425   5.277   7.258  0.2403  1.0442 -0.1595
  672MOL0     C90649   0.528   5.239   7.300  0.8897 -0.1005  0.1186
  672MOL0     C90650   0.662   5.848   7.056 -0.6021  0.2433  0.1234
  672MOL0     C90651   0.779   5.893   7.122 -0.3811  0.0689 -0.5260
  672MOL0     C90652   0.892   5.946   7.032  0.4399  0.2728  0.3510
  672MOL0     H90653   1.155   6.046   7.455 -1.2262 -0.6947 -0.7785
  672MOL0     H90654   1.305   6.070   7.647 -2.3706  2.7487  0.0364
  672MOL0     H90655   1.444   6.047   7.837 -0.6486 -0.9373  0.0128
  672MOL0     H90656   1.319   6.149   7.916  2.0118  0.8977 -0.8426
  672MOL0     H90657   1.363   6.026   8.128 -0.5245 -1.0983 -0.4936
  672MOL0     H90658   1.515   6.086   8.062 -0.3577  0.6858 -2.5477
  672MOL0     H90659   1.557   5.868   7.944 -1.1456  3.7678 -2.0758
  672MOL0     H90660   1.416   5.805   8.043 -0.1431 -0.6641  0.0684
  672MOL0     H90661   1.657   5.779   8.139  0.1795 -1.5903 -1.0219
  672MOL0     H90662   1.636   5.949   8.184 -2.1311  0.9154 -1.8207
  672MOL0     H90663   1.578   5.794   8.369 -1.2702 -1.2306  0.4920
  672MOL0     H90664   1.436   5.893   8.327 -1.2073 -0.8587  0.4744
  672MOL0     H90665   1.339   5.678   8.230 -0.6126  1.3374  0.3476
  672MOL0     H90666   1.501   5.614   8.222  0.2198  1.5549 -0.7969
  672MOL0     H90667   1.505   5.587   8.465  0.6406  0.6882 -1.8017
  672MOL0     H90668   1.367   5.508   8.385 -0.8659 -0.1394 -0.6072
  672MOL0     H90669   1.264   5.770   8.467  1.1456 -1.1761 -1.3181
  672MOL0     H90670   1.225   5.612   8.542  0.8767 -0.2550  1.2371
  672MOL0     H90671   1.468   5.574   8.730 -1.6098  0.4547  3.0878
  672MOL0     H90672   1.600   5.872   8.944  0.9921  0.4374 -0.4193
  672MOL0     H90673   1.586   5.700   8.961 -0.7609  0.3015 -0.0438
  672MOL0     H90674   1.751   5.658   8.793  0.5060  0.4911 -0.3830
  672MOL0     H90675   1.772   5.833   8.762  0.1534 -0.6048  0.3759
  672MOL0     H90676   1.859   5.659   8.985  0.0340  0.6611 -0.3289
  672MOL0     H90677   1.834   5.825   9.028  3.5707  0.9934  0.2323
  672MOL0     H90678   1.991   5.892   8.834  0.4130  0.4015  0.9431
  672MOL0     H90679   2.016   5.724   8.797 -0.0615  2.4232 -2.2367
  672MOL0     H90680   2.287   5.718   9.127  0.9023 -0.4818 -0.1095
  672MOL0     H90681   2.538   5.732   9.089  0.0945 -0.6584 -0.8430
  672MOL0     H90682   2.897   5.996   8.817  1.0653  2.3248  0.5966
  672MOL0     H90683   3.135   6.004   8.786 -0.8380  2.7725  2.6978
  672MOL0     H90684   3.365   5.753   8.789  0.7084 -1.0962  1.3336
  672MOL0     H90685   3.342   5.928   8.750 -0.8165 -1.5114 -0.3145
  672MOL0     H90686   3.570   5.892   8.727 -1.1036 -0.0216 -0.0277
  672MOL0     H90687   3.542   5.978   8.877 -1.1070  0.3277  2.1931
  672MOL0     H90688   3.589   5.672   8.872  0.9014 -0.3390  1.1131
  672MOL0     H90689   3.710   5.799   8.894 -0.4134  2.5872  0.4532
  672MOL0     H90690   3.480   5.716   9.086  1.1853 -2.4765 -1.8007
  672MOL0     H90691   3.576   5.877   9.092 -0.2929  1.5908 -4.4873
  672MOL0     H90692   3.672   5.598   9.107 -0.3675  1.0502 -4.2488
  672MOL0     H90693   3.629   5.682   9.245 -2.7075 -1.9113 -1.2344
  672MOL0     H90694   3.846   5.760   9.038 -0.9877 -0.5652  0.0199
  672MOL0     H90695   3.805   5.871   9.176  2.2086 -0.4782  0.3431
  672MOL0     H90696   3.960   5.613   9.191  1.4561  1.2926 -0.9425
  672MOL0     H90697   3.839   5.645   9.320  0.2970 -2.2868 -0.6351
  672MOL0     H90698   4.074   5.809   9.213  1.1074 -1.7629 -1.0358
  672MOL0     H90699   3.965   5.850   9.354  1.6278  0.9639 -0.6446
  672MOL0     H90700   3.173   5.729   9.122 -0.8926  0.9738  0.9830
  672MOL0     H90701   2.930   5.699   9.120  0.5049 -1.6855 -1.4189
  672MOL0     H90702   2.442   5.867   8.684  1.2177  3.2560  0.7575
  672MOL0     H90703   2.208   5.867   8.746 -1.2141 -2.0447  2.2668
  672MOL0     H90704   1.062   5.783   7.855 -1.3033  0.9592 -0.2941
  672MOL0     H90705   0.902   5.775   7.678 -0.6555  1.4932  0.0542
  672MOL0     H90706   0.695   5.847   7.447  1.2902  1.3339 -0.3279
  672MOL0     H90707   0.484   5.789   7.335 -0.2700  1.6508 -0.2671
  672MOL0     H90708   0.240   5.698   7.087 -1.5575 -0.9839  0.5874
  672MOL0     H90709   0.300   5.743   7.244  2.6310  0.1420  0.3580
  672MOL0     H90710   0.463   5.556   7.233  0.3006  0.7807 -1.0334
  672MOL0     H90711   0.399   5.502   7.078 -2.7539 -1.8833 -0.1615
  672MOL0     H90712   0.181   5.474   7.160 -0.1105  1.1136 -0.3595
  672MOL0     H90713   0.244   5.494   7.321  1.8830  0.6944 -0.8294
  672MOL0     H90714   0.212   5.246   7.240 -2.0641  0.0075 -3.6943
  672MOL0     H90715   0.298   5.285   7.095  1.4039 -2.2759  0.0959
  672MOL0     H90716   0.620   5.199   7.338  1.3931 -0.1144 -1.0666
  672MOL0     H90717   0.647   5.862   6.949  1.8317 -1.3085 -0.5044
  672MOL0     H90718   0.983   5.891   7.057 -0.3233 -0.4545  1.6292
  672MOL0     H90719   0.876   5.939   6.924  1.2374 -1.3814  0.3073
  672MOL0     H90720   0.910   6.052   7.054 -2.2591  0.4816  1.9523
  673MOL0     O90721  10.871   9.795   6.528 -0.1748 -0.1806 -0.0542
  673MOL0     C90722  10.807   9.744   6.626  0.5894  0.8876 -0.0535
  673MOL0     O90723  10.845   9.628   6.689 -0.3750  0.6479 -0.5678
  673MOL0     C90724  10.976   9.611   6.692  0.0450  0.6169 -0.3719
  673MOL0     C90725  11.052   9.562   6.582  0.4894 -0.2564 -0.0776
  673MOL0     C90726  11.188   9.549   6.593 -0.6275 -0.7881 -0.0750
  673MOL0     C90727  11.259   9.573   6.716  0.2894 -0.1363 -0.1346
  673MOL0     O90728  11.399   9.570   6.718 -0.1707  0.1975 -0.0390
  673MOL0     C90729  11.474   9.537   6.841  0.0888  0.6028 -0.5454
  673MOL0     C90730  11.620   9.557   6.827 -0.8846 -0.1787 -0.3304
  673MOL0     C90731  11.675   9.517   6.962 -0.7601  0.5146  0.3498
  673MOL0     C90732  11.821   9.557   6.981 -0.3507 -0.5617  0.3193
  673MOL0     C90733  11.876   9.517   7.123 -0.2196  0.1094 -0.8174
  673MOL0     C90734  12.025   9.541   7.136  0.5263  0.4368  0.4360
  673MOL0     C90735  12.091   9.508   7.275  0.1383  0.5708  0.2778
  673MOL0     C90736  12.040   9.595   7.394  0.7962  1.2603  0.0354
  673MOL0     N90737  12.131   9.573   7.511  0.5009  0.9035 -0.2138
  673MOL0     C90738  12.094   9.490   7.620 -0.1687 -0.6178 -0.0301
  673MOL0     C90739  12.208   9.496   7.701  0.2991 -0.0920 -0.2277
  673MOL0     C90740  12.238   9.432   7.834 -0.7045 -0.8462  0.0882
  673MOL0     C90741  12.161   9.306   7.858  0.8635 -0.4981  0.4884
  673MOL0     C90742  12.184   9.202   7.755  0.1877 -0.9207  0.4104
  673MOL0     C90743  12.326   9.156   7.736  0.4289  0.2983 -0.3292
  673MOL0     O90744  12.332   9.057   7.637  0.9039 -0.4081  0.3104
  673MOL0     C90745  12.331   9.092   7.503 -0.7602  0.5979  0.1228
  673MOL0     C90746  12.327   9.226   7.456 -0.5520  0.5938  0.1731
  673MOL0     C90747  12.329   9.248   7.322  0.0766  0.5369  0.3628
  673MOL0     C90748  12.339   9.139   7.233  0.1695  0.9591  0.0400
  673MOL0     C90749  12.338   9.153   7.084 -0.7312  0.4173  0.8236
  673MOL0     O90750  12.368   9.043   7.016  0.3148 -0.4466 -0.2353
  673MOL0     C90751  12.369   9.046   6.881 -0.2185  0.0841 -0.3018
  673MOL0     C90752  12.492   9.025   6.813  0.2420 -0.0754 -0.2231
  673MOL0     C90753  12.492   9.033   6.673 -0.1288 -0.0956 -0.2526
  673MOL0     C90754  12.383   9.075   6.591 -0.2333 -0.6432  0.0491
  673MOL0     O90755  12.384   9.096   6.456 -0.9137  0.0192 -0.3955
  673MOL0     C90756  12.486   9.185   6.419 -0.4842 -0.2595  0.2026
  673MOL0     C90757  12.542   9.114   6.294  0.1975 -0.2673  0.1006
  673MOL0     C90758  12.682   9.172   6.271 -0.0912 -0.6215  0.5427
  673MOL0     C90759  12.781   9.072   6.207 -0.1785  0.9289 -0.4330
  673MOL0     C90760  12.914   9.135   6.155  0.5222  0.6646  0.4821
  673MOL0     C90761  12.895   9.164   6.010 -0.6866  0.1786 -0.0953
  673MOL0     C90762  13.011   9.242   5.950  0.8704 -0.1928 -0.6458
  673MOL0     C90763  13.096   9.171   5.852  0.1881  0.0753 -0.4160
  673MOL0    Cl90764  13.225   9.076   5.946 -0.1218  0.1418 -0.2093
  673MOL0     C90765  12.260   9.093   6.656 -0.2758 -0.1847  0.0544
  673MOL0     C90766  12.258   9.076   6.799  0.3029  0.4140 -0.5418
  673MOL0     O90767  12.325   9.262   7.030 -0.5961 -0.0815  0.1628
  673MOL0     C90768  12.335   9.005   7.278 -0.7859 -0.5192 -0.0070
  673MOL0     C90769  12.334   8.983   7.414 -0.0625 -0.2518  0.0019
  673MOL0     N90770  12.307   9.573   7.637  0.6036  0.4640 -0.2531
  673MOL0     N90771  12.265   9.620   7.526  0.7487  0.0140  0.4266
  673MOL0     C90772  11.178   9.608   6.825 -0.4253  0.3021 -0.0773
  673MOL0     C90773  11.042   9.625   6.814  0.4634  0.3714  0.2828
  673MOL0     C90774  10.679   9.811   6.666 -0.5322  0.1874 -0.3577
  673MOL0     C90775  10.676   9.949   6.657 -0.5762 -0.0805 -0.3034
  673MOL0     C90776  10.563  10.019   6.681 -0.3128 -0.7150 -0.6069
  673MOL0     C90777  10.444   9.956   6.723 -0.0722  0.8720  0.8722
  673MOL0     O90778  10.326  10.027   6.733 -0.1374 -0.1221 -0.2568
  673MOL0     C90779  10.198   9.964   6.692  0.0380 -0.2367 -0.3492
  673MOL0     C90780  10.158  10.007   6.549  0.6021 -0.1797  0.3274
  673MOL0     C90781  10.015   9.951   6.519 -0.3097 -0.1483 -0.6218
  673MOL0     C90782   9.903   9.987   6.619 -0.0928  0.6700 -0.1032
  673MOL0     C90783   9.909  10.123   6.666 -0.5318 -0.4007  0.0252
  673MOL0     C90784   9.908  10.244   6.693  0.7296 -0.4486 -0.3110
  673MOL0     C90785  10.451   9.820   6.755  0.3169 -0.1672  0.7900
  673MOL0     C90786  10.567   9.745   6.724  0.4607  0.2650 -0.4245
  673MOL0     C90787  10.562   9.598   6.756 -0.2398  0.7230 -0.1989
  673MOL0     H90788  10.987   9.544   6.496  1.7060 -1.2502 -0.8302
  673MOL0     H90789  11.246   9.508   6.511  0.1255  0.1492 -0.0380
  673MOL0     H90790  11.444   9.603   6.923  2.6552  2.9222 -1.3229
  673MOL0     H90791  11.456   9.432   6.866  1.5917  0.9024  2.1781
  673MOL0     H90792  11.658   9.654   6.795  1.1633 -0.9903 -0.4962
  673MOL0     H90793  11.657   9.480   6.758  1.9357  0.6771  0.1043
  673MOL0     H90794  11.666   9.409   6.966 -0.8033  0.3838 -1.8944
  673MOL0     H90795  11.611   9.555   7.043  0.5471  2.6326  0.4834
  673MOL0     H90796  11.875   9.511   6.898 -2.5984  1.1432 -2.2331
  673MOL0     H90797  11.837   9.664   6.970  0.1054 -0.7077 -0.4894
  673MOL0     H90798  11.826   9.574   7.201  1.4602 -1.8852  1.8698
  673MOL0     H90799  11.852   9.411   7.139 -2.5281  0.7731  0.5831
  673MOL0     H90800  12.075   9.478   7.063 -0.0450 -2.7712  2.6002
  673MOL0     H90801  12.050   9.643   7.104  0.1151  0.9885  1.7947
  673MOL0     H90802  12.199   9.513   7.260  0.3391  1.1365  1.6925
  673MOL0     H90803  12.060   9.406   7.300 -0.2519 -0.0105 -2.3379
  673MOL0     H90804  12.038   9.704   7.377 -1.5978  1.4249  1.0748
  673MOL0     H90805  11.944   9.567   7.438  0.6447  0.7430 -0.6063
  673MOL0     H90806  12.002   9.433   7.626 -0.6447 -0.2979 -2.8729
  673MOL0     H90807  12.347   9.423   7.842 -0.4697  1.8011  0.8659
  673MOL0     H90808  12.214   9.503   7.914  1.1618  1.0876 -0.9577
  673MOL0     H90809  12.184   9.267   7.957  1.5268  0.2737  0.6521
  673MOL0     H90810  12.055   9.332   7.864  0.5656 -1.0903 -1.5816
  673MOL0     H90811  12.152   9.243   7.659 -0.5910 -3.0530 -0.2795
  673MOL0     H90812  12.123   9.115   7.779  0.9751 -1.8009 -0.6917
  673MOL0     H90813  12.365   9.110   7.827  2.5809  0.4669 -1.1045
  673MOL0     H90814  12.398   9.237   7.720  1.0322  0.1684  1.4749
  673MOL0     H90815  12.329   9.318   7.514  1.1374 -0.4939  1.9647
  673MOL0     H90816  12.343   9.352   7.295  2.3648 -0.0195 -0.8243
  673MOL0     H90817  12.577   8.992   6.871  0.1062  0.8454  0.5135
  673MOL0     H90818  12.585   9.009   6.623  0.3349 -1.8222  1.2999
  673MOL0     H90819  12.439   9.277   6.383 -0.9045 -0.5834 -0.0744
  673MOL0     H90820  12.559   9.216   6.494  2.7370  1.1229 -3.1949
  673MOL0     H90821  12.541   9.006   6.308 -0.6336 -0.1992  0.6216
  673MOL0     H90822  12.468   9.130   6.215 -1.7011  1.8259  2.1572
  673MOL0     H90823  12.674   9.257   6.203 -0.1365  1.0866  2.5780
  673MOL0     H90824  12.725   9.213   6.363  1.0003 -0.2752 -0.1037
  673MOL0     H90825  12.727   9.024   6.125 -1.1930  2.2755 -0.5748
  673MOL0     H90826  12.789   8.981   6.268 -3.5729  0.2523 -0.7773
  673MOL0     H90827  12.981   9.049   6.167 -0.7889 -0.0993  3.0932
  673MOL0     H90828  12.933   9.226   6.213  1.6286 -0.3992  1.8625
  673MOL0     H90829  12.888   9.066   5.962 -0.8979  0.8399 -1.4675
  673MOL0     H90830  12.800   9.215   5.994 -0.7731  0.7884  2.0626
  673MOL0     H90831  13.066   9.275   6.039  0.4252 -2.2815  0.4773
  673MOL0     H90832  12.966   9.327   5.899  0.6673  1.1728  1.6538
  673MOL0     H90833  13.041   9.101   5.790  0.9537 -1.3698  0.4774
  673MOL0     H90834  13.145   9.252   5.796 -1.7020  2.0908  0.6724
  673MOL0     H90835  12.182   9.136   6.594  2.2505  1.3090 -2.3537
  673MOL0     H90836  12.166   9.112   6.845 -1.4381 -2.8336 -1.1985
  673MOL0     H90837  12.322   8.911   7.226 -1.2300  0.0472 -0.9507
  673MOL0     H90838  12.331   8.882   7.451 -0.0871  0.2040  1.2833
  673MOL0     H90839  11.232   9.618   6.918  0.7514 -0.6163 -0.6275
  673MOL0     H90840  10.979   9.655   6.898 -1.3033  0.1021 -0.9005
  673MOL0     H90841  10.761  10.001   6.614 -0.4316 -0.1749 -0.1340
  673MOL0     H90842  10.562  10.127   6.675 -1.9938 -0.4428  2.3519
  673MOL0     H90843  10.131  10.005   6.769  0.4937 -0.6745  0.2894
  673MOL0     H90844  10.194   9.855   6.698 -1.8772 -0.2155 -0.4888
  673MOL0     H90845  10.234   9.970   6.479  1.9285 -0.3475  1.7797
  673MOL0     H90846  10.162  10.116   6.539  1.9107 -0.1384  1.0929
  673MOL0     H90847  10.024   9.842   6.518 -4.0924 -0.5885  0.1270
  673MOL0     H90848   9.998   9.987   6.417 -0.6352 -0.0877 -0.5484
  673MOL0     H90849   9.812   9.974   6.559  0.1047  1.7822 -0.6723
  673MOL0     H90850   9.897   9.918   6.703  0.6376  0.8086  0.0637
  673MOL0     H90851   9.926  10.349   6.706  0.5831 -0.7156  3.0414
  673MOL0     H90852  10.357   9.772   6.782 -0.9858  1.3016 -0.8440
  673MOL0     H90853  10.630   9.543   6.690  0.4994  0.0997  1.0418
  673MOL0     H90854  10.579   9.574   6.861 -0.1711 -0.2175 -0.4170
  673MOL0     H90855  10.461   9.562   6.731 -1.1829  1.0750  2.7307
  674MOL0     O90856   0.710   9.169   8.380 -0.7208  0.2658  0.4396
  674MOL0     C90857   0.639   9.256   8.423  0.6014  0.0364 -0.5340
  674MOL0     O90858   0.678   9.372   8.498 -0.4418  0.1560 -0.9865
  674MOL0     C90859   0.795   9.389   8.569  0.5789  0.5794  0.7388
  674MOL0     C90860   0.911   9.385   8.493 -0.3593  0.0888  0.2710
  674MOL0     C90861   1.036   9.395   8.545 -0.0268  0.8318 -0.3696
  674MOL0     C90862   1.055   9.408   8.687 -0.1204 -0.3647  0.5140
  674MOL0     O90863   1.185   9.404   8.736 -0.2203 -0.5548  0.1010
  674MOL0     C90864   1.195   9.387   8.876  0.8791 -0.7172  0.4273
  674MOL0     C90865   1.338   9.369   8.909 -0.0911  0.4818  0.0470
  674MOL0     C90866   1.414   9.500   8.924 -0.1929  0.0904  0.1127
  674MOL0     C90867   1.554   9.458   8.979 -0.1077  0.2995 -0.1194
  674MOL0     C90868   1.648   9.579   8.997  0.7148  0.4904 -0.2238
  674MOL0     C90869   1.794   9.548   9.027 -0.0300 -0.2869 -0.4926
  674MOL0     C90870   1.869   9.506   8.899  0.2252  0.1603 -0.0471
  674MOL0     C90871   2.016   9.477   8.909  0.1729  0.7453  0.0775
  674MOL0     N90872   2.060   9.441   8.772 -0.3568 -0.5794 -0.6553
  674MOL0     C90873   2.026   9.322   8.706 -0.6495  0.0806  1.2189
  674MOL0     C90874   2.096   9.334   8.588 -0.0840 -0.0577 -0.9752
  674MOL0     C90875   2.090   9.233   8.477 -1.4262 -0.2973 -0.5236
  674MOL0     C90876   2.195   9.268   8.377  0.4023  0.8429  0.8141
  674MOL0     C90877   2.204   9.173   8.251  0.1165 -0.3311  0.1965
  674MOL0     C90878   2.293   9.232   8.133  0.0110 -0.8069  0.5634
  674MOL0     O90879   2.390   9.313   8.199 -0.7915 -0.5439  1.2094
  674MOL0     C90880   2.493   9.258   8.269 -1.1109 -0.3298 -0.0668
  674MOL0     C90881   2.557   9.349   8.343  0.0187 -0.5981  0.1690
  674MOL0     C90882   2.669   9.321   8.412 -0.3359 -0.1596 -0.7814
  674MOL0     C90883   2.722   9.194   8.420  0.8415  0.7978 -1.1585
  674MOL0     C90884   2.833   9.158   8.509  0.6459  0.6735  0.1237
  674MOL0     O90885   2.870   9.253   8.591 -0.3745  0.2753 -0.4913
  674MOL0     C90886   2.979   9.243   8.672 -0.0075  0.5339  0.3900
  674MOL0     C90887   2.977   9.271   8.810  0.9826  0.0018 -0.0312
  674MOL0     C90888   3.092   9.268   8.892 -0.1034  0.5308 -0.5218
  674MOL0     C90889   3.213   9.214   8.843 -0.0611 -0.0616  0.2065
  674MOL0     O90890   3.322   9.187   8.919  0.4632 -0.0647  0.4380
  674MOL0     C90891   3.299   9.074   9.004 -0.2210  0.0312  0.4393
  674MOL0     C90892   3.381   9.085   9.137  0.1677  0.1348 -0.2505
  674MOL0     C90893   3.534   9.102   9.101  0.3555 -0.4148  0.5311
  674MOL0     C90894   3.616   9.086   9.232 -0.3626 -0.0883 -0.1679
  674MOL0     C90895   3.597   9.207   9.327  0.4417 -1.0843 -0.1518
  674MOL0     C90896   3.692   9.201   9.446 -0.4972  0.0412 -0.1557
  674MOL0     C90897   3.643   9.097   9.559  0.3497  0.7149  0.7368
  674MOL0     C90898   3.740   9.064   9.669  0.0286  0.0399 -1.0032
  674MOL0    Cl90899   3.678   8.947   9.786  0.6224 -0.9851  0.0133
  674MOL0     C90900   3.213   9.199   8.700 -0.8810 -0.4583  0.3403
  674MOL0     C90901   3.101   9.212   8.618  0.1756 -0.3687  0.1949
  674MOL0     O90902   2.876   9.041   8.498 -0.0371  0.1004 -0.0641
  674MOL0     C90903   2.656   9.095   8.342 -0.0555  0.1599 -0.0553
  674MOL0     C90904   2.542   9.131   8.273 -0.5814 -0.5360 -0.0941
  674MOL0     N90905   2.163   9.453   8.578 -0.0209 -0.1334 -0.1971
  674MOL0     N90906   2.141   9.514   8.694 -0.3393  0.1955 -0.5947
  674MOL0     C90907   0.934   9.416   8.766 -1.0084  0.1735  0.5685
  674MOL0     C90908   0.805   9.393   8.711  0.4460 -0.0256  0.3814
  674MOL0     C90909   0.496   9.244   8.387  0.0807  0.3602  1.0528
  674MOL0     C90910   0.466   9.181   8.261 -0.2840 -0.9424  0.4823
  674MOL0     C90911   0.335   9.172   8.209 -0.0405  0.0146 -1.0597
  674MOL0     C90912   0.222   9.219   8.284 -0.1082 -0.0807 -0.5339
  674MOL0     O90913   0.098   9.205   8.227  0.4137 -0.1713 -0.1817
  674MOL0     C90914  -0.016   9.206   8.316  0.1676  1.2992  0.1145
  674MOL0     C90915  -0.043   9.056   8.378 -0.5476 -0.4915  0.4094
  674MOL0     C90916  -0.049   8.954   8.262 -1.1793  0.7504  1.1307
  674MOL0     C90917  -0.076   8.799   8.285 -0.3413 -0.5066  0.8252
  674MOL0     C90918   0.015   8.751   8.386  0.4625 -0.8352 -0.2789
  674MOL0     C90919   0.093   8.738   8.473  0.1158 -0.1083  0.4257
  674MOL0     C90920   0.257   9.296   8.400 -0.1016  0.5157  0.0820
  674MOL0     C90921   0.388   9.309   8.461  0.1855  0.1357 -0.0070
  674MOL0     C90922   0.410   9.366   8.605 -0.8749 -0.8448 -0.4399
  674MOL0     H90923   0.894   9.357   8.390 -0.1908 -0.1298  0.3011
  674MOL0     H90924   1.122   9.372   8.483 -1.0414 -1.2203 -1.1133
  674MOL0     H90925   1.149   9.458   8.946  0.6085 -1.3794  0.9330
  674MOL0     H90926   1.145   9.292   8.896 -0.3242  0.0454  1.1686
  674MOL0     H90927   1.388   9.305   8.835  1.9079 -0.0288  1.7342
  674MOL0     H90928   1.348   9.315   9.003  0.4740 -0.7780 -0.7115
  674MOL0     H90929   1.357   9.561   8.995 -1.7350 -1.1464 -0.0193
  674MOL0     H90930   1.427   9.541   8.824 -1.5178 -0.6861 -0.3925
  674MOL0     H90931   1.535   9.410   9.075 -0.8788  1.4398  0.3304
  674MOL0     H90932   1.605   9.389   8.911 -0.7568 -0.0883 -0.2270
  674MOL0     H90933   1.626   9.648   8.915 -2.5852 -1.0436 -0.7663
  674MOL0     H90934   1.610   9.634   9.083  1.1799 -1.5690  1.3781
  674MOL0     H90935   1.854   9.630   9.067 -1.0331 -0.1095  0.6965
  674MOL0     H90936   1.812   9.472   9.103  1.0102  0.2499 -0.1931
  674MOL0     H90937   1.868   9.584   8.824  1.5749  0.9695  0.7467
  674MOL0     H90938   1.824   9.415   8.857 -0.4598 -0.7566  2.4870
  674MOL0     H90939   2.079   9.558   8.947  1.4010 -1.0542  2.1655
  674MOL0     H90940   2.031   9.391   8.975  0.3610  1.3635  0.8553
  674MOL0     H90941   1.962   9.239   8.731  1.1217 -1.7743 -0.0530
  674MOL0     H90942   2.110   9.136   8.524 -0.0824  0.0027 -0.4435
  674MOL0     H90943   1.991   9.242   8.430 -1.2615  3.6303 -0.3979
  674MOL0     H90944   2.158   9.361   8.331 -4.0854 -0.9450  0.3200
  674MOL0     H90945   2.295   9.281   8.420  0.4897 -1.4898  1.4162
  674MOL0     H90946   2.101   9.157   8.219  0.1600 -0.6934  0.2410
  674MOL0     H90947   2.253   9.078   8.272  3.5922  0.7979 -1.9767
  674MOL0     H90948   2.225   9.280   8.062  0.9519 -1.1215 -0.5978
  674MOL0     H90949   2.345   9.155   8.074  0.6760  1.4616 -2.0076
  674MOL0     H90950   2.521   9.451   8.352  0.0089 -0.5029 -0.8667
  674MOL0     H90951   2.702   9.402   8.476 -0.7071 -1.7811  1.6418
  674MOL0     H90952   2.882   9.309   8.848  1.5224 -0.7090  2.1470
  674MOL0     H90953   3.079   9.307   8.993  0.0295  0.3872 -0.4480
  674MOL0     H90954   3.192   9.071   9.025  0.0798  0.0436  2.0982
  674MOL0     H90955   3.336   8.984   8.954 -0.2771 -0.2430  0.8905
  674MOL0     H90956   3.345   9.176   9.187  2.5185  0.7370  0.4674
  674MOL0     H90957   3.362   8.998   9.200  0.7738 -0.4225 -0.8197
  674MOL0     H90958   3.561   9.015   9.040 -1.1678  0.3139 -1.2778
  674MOL0     H90959   3.551   9.200   9.054  1.7629 -0.3511  1.1381
  674MOL0     H90960   3.721   9.083   9.202  0.7313  0.1935  3.1451
  674MOL0     H90961   3.606   8.991   9.285 -1.5468 -0.0137 -0.2374
  674MOL0     H90962   3.497   9.202   9.371  0.0809  1.4008 -0.5179
  674MOL0     H90963   3.605   9.301   9.271 -2.2187 -0.4477  0.4175
  674MOL0     H90964   3.788   9.169   9.404 -1.5670 -1.1858 -1.8111
  674MOL0     H90965   3.714   9.293   9.500  2.9573 -0.5628 -0.2887
  674MOL0     H90966   3.615   9.006   9.505 -2.8375  1.9232  0.1037
  674MOL0     H90967   3.551   9.141   9.599 -0.8389 -0.8729 -0.1228
  674MOL0     H90968   3.835   9.039   9.621  0.3619  1.3663 -1.0743
  674MOL0     H90969   3.745   9.158   9.725 -1.9780  0.2958 -1.1814
  674MOL0     H90970   3.309   9.191   8.649 -0.7592 -3.1099  0.8273
  674MOL0     H90971   3.112   9.226   8.511  0.5624  1.5469  0.4461
  674MOL0     H90972   2.673   8.988   8.355  0.7465  0.1775 -0.9086
  674MOL0     H90973   2.493   9.052   8.216  1.9663 -1.3885 -1.2623
  674MOL0     H90974   0.940   9.428   8.874  3.0355 -3.1471  0.9724
  674MOL0     H90975   0.709   9.400   8.760 -1.0347  0.0960 -2.3230
  674MOL0     H90976   0.546   9.153   8.193 -1.0697 -1.1145 -0.3814
  674MOL0     H90977   0.300   9.120   8.120 -1.9448  0.4275 -0.5745
  674MOL0     H90978  -0.096   9.245   8.252  1.6085 -0.2515 -2.8460
  674MOL0     H90979  -0.012   9.279   8.397 -1.0146 -1.0181  2.4235
  674MOL0     H90980  -0.138   9.051   8.432 -1.4698  1.6662 -0.8408
  674MOL0     H90981   0.029   9.034   8.458 -0.4155  0.4051  0.5503
  674MOL0     H90982   0.045   8.967   8.208 -2.4086  0.3301 -1.2792
  674MOL0     H90983  -0.126   8.994   8.195 -0.8900  0.2052  0.4483
  674MOL0     H90984  -0.174   8.802   8.333 -0.7827  3.5349  0.0229
  674MOL0     H90985  -0.072   8.749   8.189  1.8669 -1.1467  1.1833
  674MOL0     H90986   0.169   8.747   8.548  1.1225  1.5205 -0.7244
  674MOL0     H90987   0.173   9.342   8.452  0.3162  1.2568  0.1210
  674MOL0     H90988   0.311   9.373   8.652  0.5901  0.1835  2.7748
  674MOL0     H90989   0.469   9.294   8.662  1.5256  0.5778 -0.9679
  674MOL0     H90990   0.463   9.460   8.622 -0.2937 -1.2387 -0.0609
  675MOL0     O90991   1.762   8.249   6.342  0.4070  0.2196  0.7822
  675MOL0     C90992   1.691   8.225   6.241 -0.8075 -0.1036 -0.3478
  675MOL0     O90993   1.727   8.241   6.117 -0.6915 -0.3791  1.0291
  675MOL0     C90994   1.850   8.293   6.084  0.0672 -0.5650 -0.3952
  675MOL0     C90995   1.972   8.240   6.129  0.4648 -0.5060  0.3514
  675MOL0     C90996   2.094   8.277   6.075  0.0165  0.4442 -0.5896
  675MOL0     C90997   2.106   8.384   5.987  1.0553 -0.1966  0.5065
  675MOL0     O90998   2.221   8.443   5.953 -0.1478 -0.6431  1.0225
  675MOL0     C90999   2.314   8.472   6.059  0.8855  0.2989  0.3568
  675MOL0     C91000   2.449   8.415   6.032  0.0102  0.1561 -0.4198
  675MOL0     C91001   2.561   8.448   6.126 -0.1676  0.5026 -0.7607
  675MOL0     C91002   2.537   8.380   6.265  0.4029  0.0872  0.2367
  675MOL0     C91003   2.646   8.415   6.369  0.6748 -0.0681 -0.2879
  675MOL0     C91004   2.791   8.409   6.312  0.0678  0.2964  1.1277
  675MOL0     C91005   2.885   8.467   6.420 -0.1910  0.4575  0.0988
  675MOL0     C91006   3.030   8.456   6.372  0.1464  0.5118 -0.5495
  675MOL0     N91007   3.119   8.484   6.484  0.3616 -0.2163  0.3906
  675MOL0     C91008   3.148   8.614   6.522  0.3412 -0.0903  0.8487
  675MOL0     C91009   3.245   8.604   6.615 -0.1201  1.3475  0.0263
  675MOL0     C91010   3.309   8.716   6.679  0.3167  0.0898 -0.7119
  675MOL0     C91011   3.439   8.678   6.744  0.0940 -0.2331  0.3439
  675MOL0     C91012   3.509   8.807   6.797 -0.0757 -0.2577  0.4357
  675MOL0     C91013   3.639   8.781   6.867  0.0228 -0.9393  0.1372
  675MOL0     O91014   3.625   8.658   6.944  0.1077 -0.4386  0.2610
  675MOL0     C91015   3.730   8.637   7.030  0.5876 -0.3834  0.9556
  675MOL0     C91016   3.854   8.715   7.031  1.2140 -0.0645 -0.6746
  675MOL0     C91017   3.959   8.690   7.114  0.1958  0.5142  0.3479
  675MOL0     C91018   3.957   8.580   7.201 -0.1707  0.0777  0.9977
  675MOL0     C91019   4.083   8.538   7.258 -0.3351  0.3615  0.2807
  675MOL0     O91020   4.197   8.593   7.214 -0.4272 -0.1119  0.4986
  675MOL0     C91021   4.319   8.531   7.241 -0.8348 -0.1531  0.3896
  675MOL0     C91022   4.416   8.600   7.169  0.3769  0.0471 -0.0939
  675MOL0     C91023   4.539   8.541   7.157 -0.3943  0.5675 -0.1594
  675MOL0     C91024   4.595   8.446   7.242 -0.1120 -0.2589 -0.0505
  675MOL0     O91025   4.725   8.401   7.239 -0.1368  0.3528  0.4085
  675MOL0     C91026   4.786   8.328   7.353 -0.5025 -0.0984  0.1549
  675MOL0     C91027   4.934   8.299   7.320 -0.4784  0.8101  0.1713
  675MOL0     C91028   5.017   8.427   7.317  0.7288 -0.1585  0.7707
  675MOL0     C91029   5.164   8.407   7.287  0.8928 -0.4723 -0.7168
  675MOL0     C91030   5.248   8.541   7.255  0.6984  0.3798  0.1658
  675MOL0     C91031   5.237   8.650   7.372  0.2819  0.5926  0.3691
  675MOL0     C91032   5.342   8.758   7.339  1.2361  0.4416 -0.7647
  675MOL0     C91033   5.335   8.880   7.421 -0.0426  0.4875  0.2875
  675MOL0    Cl91034   5.475   8.978   7.398 -0.5681 -0.0492  0.2147
  675MOL0     C91035   4.503   8.397   7.333  0.5255 -0.2836  0.2479
  675MOL0     C91036   4.364   8.418   7.324 -0.5669 -0.9050  0.4270
  675MOL0     O91037   4.072   8.460   7.353 -0.0176  0.0356  0.4749
  675MOL0     C91038   3.831   8.503   7.209  0.2714 -0.1511  0.2402
  675MOL0     C91039   3.725   8.534   7.121 -0.4293 -1.0914 -0.5174
  675MOL0     N91040   3.272   8.470   6.626 -0.0249  0.9257  0.5526
  675MOL0     N91041   3.200   8.401   6.546 -0.0368  0.7034  0.2653
  675MOL0     C91042   1.986   8.436   5.945  0.5942 -0.3770  0.4754
  675MOL0     C91043   1.862   8.398   5.989 -0.5828 -0.3640 -0.8138
  675MOL0     C91044   1.559   8.167   6.272 -0.2106  0.7521  0.1166
  675MOL0     C91045   1.509   8.082   6.168 -0.0306  0.0584  0.8004
  675MOL0     C91046   1.380   8.026   6.183  0.0848  0.4063  0.2706
  675MOL0     C91047   1.304   8.048   6.294  0.3361  0.4340  0.1526
  675MOL0     O91048   1.193   7.964   6.290  0.1776 -0.0698  0.1735
  675MOL0     C91049   1.073   8.028   6.330  0.3192 -0.0804 -0.3715
  675MOL0     C91050   0.969   8.024   6.218  0.0038  0.4305  0.1871
  675MOL0     C91051   0.831   8.072   6.260 -0.0879 -0.2465  1.1142
  675MOL0     C91052   0.735   8.034   6.153  0.2433 -0.1203 -0.2132
  675MOL0     C91053   0.597   8.076   6.181  1.6336 -0.7341 -0.1286
  675MOL0     C91054   0.487   8.117   6.212 -0.1783 -0.3043 -0.5248
  675MOL0     C91055   1.352   8.141   6.388  0.5961 -0.3556  0.3065
  675MOL0     C91056   1.479   8.195   6.386 -0.0651 -0.2386  0.2711
  675MOL0     C91057   1.520   8.283   6.490  0.3172 -0.0618 -0.3359
  675MOL0     H91058   1.961   8.157   6.198  1.1649 -1.1674 -0.3081
  675MOL0     H91059   2.182   8.221   6.104 -0.7522  0.7250  2.6674
  675MOL0     H91060   2.320   8.581   6.067 -0.5877  0.3172  1.7281
  675MOL0     H91061   2.284   8.441   6.160  0.7036  1.3421  0.6363
  675MOL0     H91062   2.479   8.446   5.931 -1.3691 -0.9850 -1.2231
  675MOL0     H91063   2.438   8.306   6.039  1.5281  0.0475  0.8742
  675MOL0     H91064   2.571   8.556   6.136  2.0316  0.5105 -2.2764
  675MOL0     H91065   2.654   8.416   6.077 -0.0377 -0.1654 -0.0932
  675MOL0     H91066   2.435   8.406   6.293 -0.4074  0.5286 -2.7214
  675MOL0     H91067   2.545   8.271   6.255 -0.9422 -0.0426  0.3880
  675MOL0     H91068   2.628   8.521   6.385  1.7349 -0.0540  1.0076
  675MOL0     H91069   2.634   8.361   6.464 -1.9349 -1.6434 -1.4058
  675MOL0     H91070   2.826   8.307   6.294  1.8025  1.3330 -2.3176
  675MOL0     H91071   2.800   8.465   6.218  1.2000 -0.9554  0.4561
  675MOL0     H91072   2.875   8.406   6.511 -2.8097 -1.3606 -1.2600
  675MOL0     H91073   2.858   8.568   6.452  0.8260  0.2762  1.6606
  675MOL0     H91074   3.061   8.358   6.334  2.8468  1.1075 -0.0198
  675MOL0     H91075   3.045   8.522   6.286  1.5615 -0.4820 -1.1072
  675MOL0     H91076   3.103   8.708   6.492 -0.6393 -1.0803 -0.9383
  675MOL0     H91077   3.330   8.789   6.600 -3.3372  1.0481 -0.9527
  675MOL0     H91078   3.240   8.763   6.750  0.2394  1.5732 -1.7247
  675MOL0     H91079   3.427   8.597   6.817  0.8683  0.0920  0.8317
  675MOL0     H91080   3.500   8.644   6.660 -2.1926 -1.9445 -0.7655
  675MOL0     H91081   3.440   8.838   6.876 -1.6521  1.1658 -1.3902
  675MOL0     H91082   3.507   8.892   6.727 -0.9644 -1.1811 -0.6972
  675MOL0     H91083   3.674   8.865   6.928  0.9237 -1.8009  0.8386
  675MOL0     H91084   3.710   8.778   6.783 -0.9729 -1.4620 -0.7069
  675MOL0     H91085   3.873   8.800   6.967 -4.8551  3.1503  0.9755
  675MOL0     H91086   4.056   8.738   7.098  1.0512 -0.6678  1.7340
  675MOL0     H91087   4.401   8.684   7.102  1.6518  0.7649  0.4792
  675MOL0     H91088   4.600   8.577   7.074 -2.5318 -0.5558 -2.3554
  675MOL0     H91089   4.778   8.388   7.444 -0.8974 -2.4330  1.7603
  675MOL0     H91090   4.733   8.232   7.354 -1.8171  0.5912 -0.1402
  675MOL0     H91091   4.982   8.242   7.401  0.9899  0.8482 -0.6441
  675MOL0     H91092   4.946   8.240   7.229  0.0237  1.0032  0.1114
  675MOL0     H91093   4.977   8.475   7.228 -1.8854 -0.7289  1.5723
  675MOL0     H91094   4.998   8.489   7.405 -0.9261  0.8316 -0.2280
  675MOL0     H91095   5.169   8.330   7.209 -0.2855 -0.4878 -0.7954
  675MOL0     H91096   5.212   8.355   7.371 -0.5414  2.5916  2.2395
  675MOL0     H91097   5.209   8.591   7.166 -3.5318 -0.7271  1.1638
  675MOL0     H91098   5.350   8.507   7.236  0.6050  0.9578 -1.5233
  675MOL0     H91099   5.141   8.703   7.367 -0.0090  0.1849  1.3415
  675MOL0     H91100   5.254   8.594   7.464 -0.8393 -0.6271 -0.1182
  675MOL0     H91101   5.333   8.786   7.234  1.8537 -1.1670 -1.2810
  675MOL0     H91102   5.440   8.713   7.355  0.8187  0.0154  0.7825
  675MOL0     H91103   5.252   8.948   7.400 -0.5007  0.3192  1.4896
  675MOL0     H91104   5.325   8.851   7.526  0.7690  6.7256  2.5094
  675MOL0     H91105   4.536   8.318   7.399 -1.3510 -0.3386  1.1907
  675MOL0     H91106   4.299   8.350   7.379 -0.4445 -0.6521  0.8911
  675MOL0     H91107   3.827   8.415   7.271 -0.1632 -0.5998 -0.4124
  675MOL0     H91108   3.637   8.471   7.117  0.4803 -2.4240 -0.3837
  675MOL0     H91109   1.997   8.517   5.873 -0.6973  0.0819  0.7762
  675MOL0     H91110   1.780   8.448   5.937 -0.6069  0.0936 -0.3390
  675MOL0     H91111   1.565   8.055   6.078 -3.0416 -1.3556 -0.7901
  675MOL0     H91112   1.343   7.969   6.098  0.2438  1.9963 -0.8991
  675MOL0     H91113   1.083   8.135   6.350  2.1319 -0.2363 -0.3016
  675MOL0     H91114   1.037   7.971   6.417  1.9810 -1.1499 -0.3358
  675MOL0     H91115   0.966   7.928   6.166 -1.3642 -0.2873  1.5021
  675MOL0     H91116   1.001   8.089   6.136  1.6954  1.8989  1.9062
  675MOL0     H91117   0.830   8.181   6.263 -2.1287 -0.0989 -1.4752
  675MOL0     H91118   0.805   8.028   6.357  1.1716  1.5013  2.3188
  675MOL0     H91119   0.775   8.082   6.063 -2.1911  0.5611 -1.0204
  675MOL0     H91120   0.734   7.925   6.140 -1.6840 -0.0813 -0.7241
  675MOL0     H91121   0.389   8.149   6.241 -0.6037  2.0612 -3.9975
  675MOL0     H91122   1.279   8.162   6.466 -0.9909 -4.3682  0.1358
  675MOL0     H91123   1.445   8.346   6.539  2.4936  0.1033  3.1496
  675MOL0     H91124   1.564   8.215   6.564 -1.3750 -0.9431 -0.0777
  675MOL0     H91125   1.591   8.357   6.453  1.4359 -1.0290 -0.1687
  676MOL0     O91126   4.832   5.794   5.365 -0.2724  0.3058 -0.3341
  676MOL0     C91127   4.767   5.765   5.265 -0.0585 -0.2125  0.3641
  676MOL0     O91128   4.803   5.785   5.134  0.2283  0.1402  0.5388
  676MOL0     C91129   4.931   5.831   5.101 -0.1152 -0.4114 -0.5938
  676MOL0     C91130   4.990   5.941   5.169 -0.0429  1.4793 -0.4884
  676MOL0     C91131   5.118   5.975   5.134 -0.1624  0.3177  1.2042
  676MOL0     C91132   5.182   5.914   5.023  0.2203 -0.6375  0.0452
  676MOL0     O91133   5.297   5.965   4.978 -0.7857  0.1175  0.2066
  676MOL0     C91134   5.409   5.882   4.939  0.1698  0.3988 -0.2751
  676MOL0     C91135   5.472   5.960   4.828  0.6611  0.0223  0.0730
  676MOL0     C91136   5.620   5.928   4.814 -0.6034 -0.7695 -0.8234
  676MOL0     C91137   5.646   5.781   4.787 -0.4935  1.0160  0.7257
  676MOL0     C91138   5.783   5.748   4.733 -0.0376  0.1936  0.8088
  676MOL0     C91139   5.808   5.605   4.668  0.2595 -0.8806  0.0924
  676MOL0     C91140   5.807   5.492   4.775 -0.2036 -0.0450 -0.2306
  676MOL0     C91141   5.813   5.354   4.698 -0.2338  0.5212  0.9521
  676MOL0     N91142   5.924   5.351   4.604  0.3837  0.9171  0.1700
  676MOL0     C91143   6.061   5.354   4.632  0.0331  0.3735  0.3197
  676MOL0     C91144   6.115   5.347   4.505  0.8027  0.4109  0.0318
  676MOL0     C91145   6.269   5.348   4.481 -1.0034 -0.5204  0.6770
  676MOL0     C91146   6.308   5.376   4.337 -0.0062 -0.6247  0.9202
  676MOL0     C91147   6.451   5.412   4.319 -0.8201 -0.4939  0.1924
  676MOL0     C91148   6.550   5.299   4.341  0.0655  0.4489 -0.2023
  676MOL0     O91149   6.630   5.278   4.222  0.4426  0.3670 -0.2888
  676MOL0     C91150   6.742   5.346   4.204  0.7565  0.1480 -0.1977
  676MOL0     C91151   6.781   5.453   4.282  0.3395  0.9390 -0.1329
  676MOL0     C91152   6.912   5.500   4.267 -0.0699 -0.6660  1.2294
  676MOL0     C91153   6.995   5.450   4.166 -1.2612  0.1674  0.4068
  676MOL0     C91154   7.125   5.508   4.134  0.4803 -1.3857 -0.1741
  676MOL0     O91155   7.206   5.443   4.045 -0.0313  0.0464 -0.7954
  676MOL0     C91156   7.344   5.460   4.053 -0.1694  0.4045  0.8143
  676MOL0     C91157   7.411   5.431   4.167  0.0592 -1.2542 -0.2914
  676MOL0     C91158   7.550   5.433   4.165  0.8160 -0.6230  0.2694
  676MOL0     C91159   7.619   5.456   4.045 -1.3353  0.2434 -0.1060
  676MOL0     O91160   7.755   5.436   4.027  0.1322  0.4547  0.4397
  676MOL0     C91161   7.831   5.376   4.128  0.2100 -0.5973  0.0179
  676MOL0     C91162   7.976   5.360   4.077  0.1639 -0.0255 -0.4494
  676MOL0     C91163   8.036   5.491   4.026 -0.6535 -0.1185 -0.5938
  676MOL0     C91164   8.183   5.476   3.972  0.8574  0.7444  0.0475
  676MOL0     C91165   8.243   5.604   3.921 -0.0132 -0.0579  0.2508
  676MOL0     C91166   8.390   5.603   3.902 -0.4025  0.3565  0.4922
  676MOL0     C91167   8.450   5.728   3.835 -0.3672 -0.4314  0.1378
  676MOL0     C91168   8.434   5.853   3.912  0.1149  0.0310  0.2491
  676MOL0    Cl91169   8.511   5.991   3.826 -0.8105 -0.3437  0.1354
  676MOL0     C91170   7.546   5.486   3.927 -0.4048  0.1741 -0.0876
  676MOL0     C91171   7.408   5.494   3.936 -0.0279 -0.5571 -0.0058
  676MOL0     O91172   7.166   5.597   4.210  0.2398  0.4071  0.3882
  676MOL0     C91173   6.949   5.344   4.082  0.0019  0.5399 -0.1881
  676MOL0     C91174   6.827   5.288   4.104  0.4448  0.3460 -0.4397
  676MOL0     N91175   6.014   5.344   4.412 -0.0170 -0.7144 -1.1188
  676MOL0     N91176   5.903   5.338   4.473 -0.5049  0.3534 -0.2292
  676MOL0     C91177   5.121   5.805   4.959  0.0018  0.1641 -0.4960
  676MOL0     C91178   4.996   5.761   5.002 -1.2639  0.0704  0.3585
  676MOL0     C91179   4.649   5.695   5.276  0.7704  0.0699 -0.4608
  676MOL0     C91180   4.634   5.574   5.210  0.5801 -0.4013 -0.9202
  676MOL0     C91181   4.514   5.501   5.224  0.7372 -0.2684  0.3013
  676MOL0     C91182   4.402   5.547   5.299 -0.0704  0.5173 -0.0831
  676MOL0     O91183   4.282   5.484   5.314 -0.8446  0.2284 -0.2976
  676MOL0     C91184   4.279   5.341   5.282 -0.3305  0.6262 -0.3433
  676MOL0     C91185   4.152   5.278   5.340  0.3197  0.2308 -0.0305
  676MOL0     C91186   4.027   5.324   5.273 -0.2164 -0.1675 -0.0546
  676MOL0     C91187   3.913   5.237   5.328  0.3958 -0.0911  0.1056
  676MOL0     C91188   3.787   5.286   5.290  0.3501  0.2012  0.1867
  676MOL0     C91189   3.679   5.329   5.246  0.6620 -0.1074 -0.2310
  676MOL0     C91190   4.413   5.675   5.358 -0.1088  0.0484  0.1079
  676MOL0     C91191   4.534   5.753   5.350 -0.2912 -0.2586 -0.8224
  676MOL0     C91192   4.548   5.878   5.431 -0.3495 -0.6564  0.8675
  676MOL0     H91193   4.941   6.007   5.239 -2.5984 -0.7732  0.0247
  676MOL0     H91194   5.184   6.045   5.186  0.9199 -0.7787  1.3618
  676MOL0     H91195   5.483   5.870   5.019  0.3525  0.9323 -0.3596
  676MOL0     H91196   5.387   5.785   4.893  1.2242  0.1323 -0.2436
  676MOL0     H91197   5.473   6.067   4.849  1.1946  0.1481 -0.5712
  676MOL0     H91198   5.425   5.954   4.729  2.1201  1.2784 -0.7346
  676MOL0     H91199   5.666   5.955   4.910 -1.0791 -1.7122 -0.3136
  676MOL0     H91200   5.667   5.989   4.736 -1.2593  0.7739 -0.0577
  676MOL0     H91201   5.633   5.727   4.882 -1.6974  0.3247  0.1904
  676MOL0     H91202   5.570   5.737   4.722 -1.1239  2.4666  0.4582
  676MOL0     H91203   5.787   5.811   4.643  1.0312 -0.6211  0.2672
  676MOL0     H91204   5.869   5.778   4.794  2.9345  0.0130 -2.8902
  676MOL0     H91205   5.722   5.578   4.606 -1.0307 -1.5418  2.0750
  676MOL0     H91206   5.897   5.606   4.604 -0.3519 -2.9291 -0.8745
  676MOL0     H91207   5.722   5.482   4.844 -0.2840 -1.7431 -0.5129
  676MOL0     H91208   5.898   5.490   4.835 -0.3481  1.5666  0.0764
  676MOL0     H91209   5.829   5.275   4.772  0.5603  0.7419  1.0269
  676MOL0     H91210   5.723   5.324   4.643  0.3950 -0.8577  0.6112
  676MOL0     H91211   6.111   5.360   4.728 -0.7200  2.5706  0.6229
  676MOL0     H91212   6.301   5.432   4.543  1.3635  0.4867 -1.7301
  676MOL0     H91213   6.320   5.259   4.518  0.2530 -0.6822 -1.2944
  676MOL0     H91214   6.273   5.296   4.272 -1.4240  1.1489 -0.5843
  676MOL0     H91215   6.242   5.458   4.309 -1.1739 -0.2021  4.3795
  676MOL0     H91216   6.475   5.494   4.387 -0.0117  1.2671 -2.1011
  676MOL0     H91217   6.462   5.450   4.218 -2.0552  1.7369  0.8379
  676MOL0     H91218   6.488   5.213   4.366 -1.5230  1.5211 -0.3367
  676MOL0     H91219   6.616   5.321   4.426  1.8689  2.3119 -1.9622
  676MOL0     H91220   6.711   5.509   4.342  0.1479  0.0729  0.4639
  676MOL0     H91221   6.965   5.574   4.327  0.7260 -1.2233  1.2327
  676MOL0     H91222   7.350   5.417   4.255 -1.2872  1.2225 -0.7153
  676MOL0     H91223   7.597   5.410   4.260  0.5728 -0.4660  0.4287
  676MOL0     H91224   7.837   5.442   4.215  3.9051 -1.2857  0.4559
  676MOL0     H91225   7.788   5.279   4.154 -2.5207  0.8810  1.3990
  676MOL0     H91226   8.039   5.326   4.159  1.6611  0.1583 -1.4929
  676MOL0     H91227   7.971   5.288   3.994 -1.6111 -0.2543 -0.1894
  676MOL0     H91228   7.969   5.525   3.946 -0.7158  1.8842  0.2694
  676MOL0     H91229   8.030   5.570   4.101  0.4761 -0.0226 -0.5817
  676MOL0     H91230   8.175   5.396   3.898 -0.6579 -4.4719  5.0990
  676MOL0     H91231   8.240   5.427   4.052 -0.2977 -0.1370  0.3382
  676MOL0     H91232   8.208   5.686   3.985 -2.1057 -1.9477  1.7087
  676MOL0     H91233   8.193   5.622   3.826  0.1118 -1.8326 -0.1890
  676MOL0     H91234   8.439   5.594   3.999  3.0580  1.7531 -0.9861
  676MOL0     H91235   8.415   5.521   3.834  2.1361  2.4297 -1.2725
  676MOL0     H91236   8.401   5.747   3.739  0.0214  0.5886  0.1289
  676MOL0     H91237   8.556   5.711   3.813 -0.4896 -0.6989 -0.2516
  676MOL0     H91238   8.328   5.874   3.931 -0.3802  0.1394 -2.3212
  676MOL0     H91239   8.486   5.840   4.008 -0.6685 -1.4336  0.5114
  676MOL0     H91240   7.591   5.513   3.832 -0.4885 -2.3003 -0.8913
  676MOL0     H91241   7.350   5.522   3.849 -1.2492  0.3141  1.0423
  676MOL0     H91242   7.008   5.306   3.999  0.4868 -0.3578  0.5539
  676MOL0     H91243   6.791   5.218   4.030  1.6203 -2.0331  1.1109
  676MOL0     H91244   5.161   5.763   4.867  0.1193 -4.5500  1.4459
  676MOL0     H91245   4.951   5.668   4.967 -2.2745  0.2853  1.0364
  676MOL0     H91246   4.711   5.525   5.151  0.4565 -2.1660  0.3006
  676MOL0     H91247   4.510   5.400   5.185 -1.1198 -0.2523  0.3447
  676MOL0     H91248   4.361   5.296   5.338 -1.3895 -0.0648  0.7135
  676MOL0     H91249   4.293   5.310   5.178 -1.2381  0.5009 -0.4386
  676MOL0     H91250   4.145   5.310   5.444  1.6683 -0.6816  0.3553
  676MOL0     H91251   4.161   5.170   5.348  1.8553  0.3679  0.2619
  676MOL0     H91252   4.044   5.299   5.168  1.7113 -0.8542  0.3849
  676MOL0     H91253   4.019   5.431   5.291  2.4474 -0.2083  2.1417
  676MOL0     H91254   3.930   5.135   5.293  0.0533 -0.9891  2.3422
  676MOL0     H91255   3.936   5.235   5.435  1.5513  1.8639 -0.0636
  676MOL0     H91256   3.592   5.368   5.198 -0.3783 -1.2929  0.6470
  676MOL0     H91257   4.324   5.709   5.409  0.2434  2.8036 -0.9286
  676MOL0     H91258   4.459   5.942   5.425 -0.0090 -0.3086 -2.6456
  676MOL0     H91259   4.559   5.847   5.535 -0.2447  0.6166  1.2615
  676MOL0     H91260   4.633   5.944   5.412 -2.7220  2.7603  0.9980
  677MOL0     O91261   5.533   2.429   5.339  0.2257  0.2415  0.0950
  677MOL0     C91262   5.500   2.328   5.405 -0.3242  0.4528  0.0309
  677MOL0     O91263   5.585   2.259   5.492  0.8902 -0.1966  0.3327
  677MOL0     C91264   5.712   2.307   5.491  0.3954 -0.3627 -0.1136
  677MOL0     C91265   5.759   2.387   5.595  0.1895  0.4578 -1.1034
  677MOL0     C91266   5.896   2.428   5.591  0.8519  0.8266  0.1375
  677MOL0     C91267   5.981   2.375   5.485 -0.3921 -0.3302  0.1173
  677MOL0     O91268   6.114   2.397   5.490  0.9003 -0.3952 -0.2924
  677MOL0     C91269   6.143   2.508   5.411  0.1711 -0.8507  1.0531
  677MOL0     C91270   6.246   2.470   5.302  0.0011 -0.1816 -0.0054
  677MOL0     C91271   6.364   2.401   5.366 -0.0018  1.2908  0.2214
  677MOL0     C91272   6.488   2.391   5.276 -0.1800  0.0515  0.1404
  677MOL0     C91273   6.608   2.343   5.355 -0.4525  0.4375 -0.2686
  677MOL0     C91274   6.728   2.330   5.258  0.1883  0.5572  0.4580
  677MOL0     C91275   6.854   2.306   5.355  0.1495  0.5311 -0.6463
  677MOL0     C91276   6.888   2.160   5.359 -0.1893 -0.0210 -0.7515
  677MOL0     N91277   7.026   2.133   5.410  0.9988 -0.4700  0.3705
  677MOL0     C91278   7.132   2.143   5.326 -0.3725 -0.0723  0.8275
  677MOL0     C91279   7.239   2.134   5.411 -0.7684  0.5206 -0.0029
  677MOL0     C91280   7.389   2.152   5.366  0.0476  0.0348  0.0931
  677MOL0     C91281   7.414   2.045   5.252  0.4282 -0.5297  0.9796
  677MOL0     C91282   7.556   2.032   5.208 -0.9309  0.5003  0.6596
  677MOL0     C91283   7.581   1.930   5.097  0.8793 -0.6213  0.0103
  677MOL0     O91284   7.707   1.944   5.025  0.8134 -0.3360 -0.3877
  677MOL0     C91285   7.821   1.888   5.066 -0.1378  0.1657 -0.7858
  677MOL0     C91286   7.840   1.821   5.186 -0.0035 -1.5244 -0.4258
  677MOL0     C91287   7.967   1.779   5.222 -1.5010 -0.1569  0.2292
  677MOL0     C91288   8.080   1.787   5.130  0.8113  0.7526 -0.5682
  677MOL0     C91289   8.208   1.724   5.165 -0.6410 -0.6217 -0.3359
  677MOL0     O91290   8.217   1.669   5.286  0.2619  0.0327 -0.1383
  677MOL0     C91291   8.319   1.591   5.320  0.2728  0.0187 -0.1758
  677MOL0     C91292   8.391   1.612   5.443 -0.4321 -0.5438 -1.0406
  677MOL0     C91293   8.496   1.527   5.485  0.4742 -0.0484 -0.0243
  677MOL0     C91294   8.534   1.410   5.403  0.7002 -0.0597  0.5935
  677MOL0     O91295   8.629   1.314   5.424  0.7771 -0.1412 -0.9758
  677MOL0     C91296   8.705   1.338   5.552  0.6330  0.3761  0.3513
  677MOL0     C91297   8.768   1.201   5.573  0.7717  0.4517  0.1026
  677MOL0     C91298   8.912   1.189   5.527  0.4307  0.1131  0.1872
  677MOL0     C91299   8.924   1.156   5.375  0.5246  0.5114  0.1143
  677MOL0     C91300   9.066   1.135   5.337 -0.2552 -0.0141  0.4337
  677MOL0     C91301   9.139   1.002   5.382 -0.0963 -0.2707  0.2991
  677MOL0     C91302   9.266   0.990   5.306 -0.5290 -0.3397 -1.1464
  677MOL0     C91303   9.379   1.054   5.376 -0.3666 -0.6070  0.4126
  677MOL0    Cl91304   9.535   1.038   5.288 -0.1776  0.1175  0.1555
  677MOL0     C91305   8.467   1.393   5.283 -0.1344  0.6175  0.2608
  677MOL0     C91306   8.355   1.471   5.244  0.7979  0.2229 -0.3976
  677MOL0     O91307   8.293   1.716   5.078 -0.8789 -0.0871  0.5596
  677MOL0     C91308   8.058   1.846   5.005 -0.0709 -0.6008  0.7800
  677MOL0     C91309   7.931   1.896   4.974  0.3285 -0.2088 -0.5848
  677MOL0     N91310   7.194   2.130   5.541 -0.0097 -0.5650  0.5887
  677MOL0     N91311   7.062   2.133   5.538  0.3512  0.6338  0.1027
  677MOL0     C91312   5.925   2.294   5.379 -1.0105  0.0533  0.0637
  677MOL0     C91313   5.793   2.254   5.386  0.4050 -0.9142 -0.2295
  677MOL0     C91314   5.359   2.285   5.394  0.6077  1.1863 -0.0873
  677MOL0     C91315   5.332   2.154   5.437  0.1672 -0.5139 -0.7671
  677MOL0     C91316   5.204   2.105   5.452 -0.4580 -0.6202  0.9177
  677MOL0     C91317   5.091   2.183   5.421  0.3499 -0.2106 -0.3059
  677MOL0     O91318   4.972   2.117   5.411 -0.2674  0.5723 -0.3143
  677MOL0     C91319   4.843   2.184   5.393 -0.6775 -0.3715  0.2666
  677MOL0     C91320   4.812   2.256   5.525  0.7640  0.1458  0.2373
  677MOL0     C91321   4.864   2.192   5.658 -0.1948  0.3507 -0.6455
  677MOL0     C91322   4.849   2.277   5.783  0.5172  0.0042 -0.3132
  677MOL0     C91323   4.900   2.412   5.779 -0.2596 -0.0635  0.2331
  677MOL0     C91324   4.963   2.513   5.782  0.2981  0.1193 -0.6025
  677MOL0     C91325   5.107   2.316   5.384 -0.1490  0.6595 -0.3087
  677MOL0     C91326   5.241   2.369   5.373  0.1737  0.1646  0.4864
  677MOL0     C91327   5.242   2.516   5.337 -0.0884 -0.1898 -1.4127
  677MOL0     H91328   5.690   2.420   5.672  0.8538  1.1894 -0.8067
  677MOL0     H91329   5.928   2.494   5.671 -0.0044  2.2409 -0.6531
  677MOL0     H91330   6.062   2.541   5.345  3.5990  0.1985 -3.1042
  677MOL0     H91331   6.178   2.592   5.471 -1.6794  0.8848 -0.1764
  677MOL0     H91332   6.267   2.565   5.253  0.4485  1.5021  3.1388
  677MOL0     H91333   6.195   2.407   5.229  1.3212 -0.5262 -0.6515
  677MOL0     H91334   6.330   2.303   5.399 -1.2662  2.0685  1.3430
  677MOL0     H91335   6.387   2.453   5.459 -1.6965  0.4490  1.1580
  677MOL0     H91336   6.480   2.334   5.183  2.0955  1.1681 -0.8108
  677MOL0     H91337   6.516   2.486   5.231 -2.9168  0.9734  0.1980
  677MOL0     H91338   6.630   2.422   5.428  2.7392 -1.5468  1.1150
  677MOL0     H91339   6.586   2.251   5.411  0.1063 -0.0087 -0.7730
  677MOL0     H91340   6.716   2.245   5.189 -1.0892 -0.3173  1.6982
  677MOL0     H91341   6.742   2.420   5.197 -1.2790  1.2938  1.1479
  677MOL0     H91342   6.845   2.347   5.456  1.2868 -1.3925  0.2676
  677MOL0     H91343   6.935   2.367   5.314  0.6212  0.7133  0.5278
  677MOL0     H91344   6.815   2.109   5.423  1.2199 -1.6959 -0.4022
  677MOL0     H91345   6.867   2.113   5.263 -3.7255 -0.5384  0.1441
  677MOL0     H91346   7.133   2.166   5.220 -1.3014  4.0280  1.5218
  677MOL0     H91347   7.403   2.255   5.333 -1.4445  1.0322  2.3788
  677MOL0     H91348   7.448   2.136   5.457 -0.7965  3.0670  1.3014
  677MOL0     H91349   7.381   1.953   5.301  3.6155 -0.5803  3.2751
  677MOL0     H91350   7.344   2.075   5.173 -0.1763  1.2694  2.1421
  677MOL0     H91351   7.617   2.006   5.295  1.0127  1.4827 -0.3364
  677MOL0     H91352   7.589   2.128   5.166  0.3805 -0.3007 -0.2090
  677MOL0     H91353   7.498   1.938   5.027  1.8697 -1.8312 -1.3822
  677MOL0     H91354   7.575   1.832   5.146 -1.0490 -1.0760 -1.0129
  677MOL0     H91355   7.752   1.796   5.244  0.0563  0.3424  0.5693
  677MOL0     H91356   7.969   1.723   5.315 -3.3582 -0.3752  0.1751
  677MOL0     H91357   8.361   1.695   5.506  2.2796  1.2382 -1.9031
  677MOL0     H91358   8.546   1.565   5.574  0.2838  1.2859 -0.4533
  677MOL0     H91359   8.781   1.416   5.541 -0.2586  1.2335  0.1758
  677MOL0     H91360   8.636   1.361   5.634 -1.2831  0.7088 -1.2809
  677MOL0     H91361   8.762   1.181   5.681  2.8211 -1.2291 -0.0142
  677MOL0     H91362   8.700   1.132   5.523 -0.1133 -0.8392  2.8812
  677MOL0     H91363   8.957   1.288   5.544 -0.6794  0.6370  0.2084
  677MOL0     H91364   8.968   1.117   5.588 -0.8272  0.1998  1.5152
  677MOL0     H91365   8.869   1.228   5.315 -2.1356 -0.8453  0.7850
  677MOL0     H91366   8.877   1.057   5.367  2.0921 -0.1364 -2.3102
  677MOL0     H91367   9.127   1.214   5.380 -1.4918  2.0760 -1.4182
  677MOL0     H91368   9.071   1.142   5.228  1.3226 -0.7139  0.4401
  677MOL0     H91369   9.145   1.015   5.490 -1.5686  0.9447  0.2765
  677MOL0     H91370   9.085   0.910   5.358  1.1458 -0.7060 -0.9205
  677MOL0     H91371   9.259   1.032   5.206 -1.1045 -1.4483 -1.5950
  677MOL0     H91372   9.299   0.888   5.283 -0.9027 -0.2842 -1.9411
  677MOL0     H91373   9.353   1.159   5.391 -1.5117 -0.4847 -1.9732
  677MOL0     H91374   9.399   1.007   5.473  2.6312 -1.1494 -0.3570
  677MOL0     H91375   8.500   1.303   5.231 -1.5961 -1.3138  2.4491
  677MOL0     H91376   8.301   1.446   5.153 -0.8382  1.1423  0.2964
  677MOL0     H91377   8.147   1.862   4.945 -0.8809 -0.5078 -0.4367
  677MOL0     H91378   7.917   1.946   4.878 -1.0379  1.8025  0.5981
  677MOL0     H91379   5.987   2.264   5.296 -1.0526 -0.6703  0.2824
  677MOL0     H91380   5.760   2.178   5.316 -0.0144 -1.4138  0.4911
  677MOL0     H91381   5.410   2.088   5.471 -2.3381 -2.4129  1.7548
  677MOL0     H91382   5.200   2.007   5.499  3.5376 -0.6596  1.5388
  677MOL0     H91383   4.771   2.102   5.388  0.5076 -1.4128 -0.3000
  677MOL0     H91384   4.841   2.251   5.307  3.2301  1.7970  1.6241
  677MOL0     H91385   4.703   2.265   5.520  0.6451 -1.6580 -2.7855
  677MOL0     H91386   4.854   2.357   5.522  1.4604 -0.1769 -1.5757
  677MOL0     H91387   4.969   2.159   5.650 -0.6528 -2.1157  1.9539
  677MOL0     H91388   4.809   2.100   5.681  1.2276 -0.6845 -1.2220
  677MOL0     H91389   4.743   2.279   5.811  0.3188 -0.7710 -0.9823
  677MOL0     H91390   4.893   2.224   5.868  0.1227  1.8976  1.1347
  677MOL0     H91391   5.019   2.600   5.756  0.9031 -0.8013 -2.5814
  677MOL0     H91392   5.017   2.374   5.370 -0.2571  0.8636  1.1003
  677MOL0     H91393   5.153   2.575   5.359 -0.0418 -0.8586  0.8014
  677MOL0     H91394   5.322   2.567   5.392 -0.2581 -0.4213 -0.9462
  677MOL0     H91395   5.259   2.534   5.230 -2.6322 -0.4350 -1.9052
  678MOL0     O91396   2.181   7.168   3.738 -0.6244 -0.6771 -0.2790
  678MOL0     C91397   2.151   7.143   3.625  0.1822 -0.4266 -0.8162
  678MOL0     O91398   2.235   7.079   3.542  0.5907 -0.5259  0.7919
  678MOL0     C91399   2.371   7.067   3.569 -0.2363  0.0090  0.6695
  678MOL0     C91400   2.480   7.121   3.493  0.5880 -0.4206 -0.8589
  678MOL0     C91401   2.608   7.084   3.528 -1.0831  0.0433  0.2415
  678MOL0     C91402   2.642   6.989   3.628 -0.1291 -0.3752 -0.1835
  678MOL0     O91403   2.774   6.957   3.652 -0.2404  0.0726 -0.3169
  678MOL0     C91404   2.800   6.841   3.741  0.3375 -0.0931  0.3979
  678MOL0     C91405   2.948   6.813   3.740  0.8051  0.6236 -0.4715
  678MOL0     C91406   3.022   6.924   3.808 -0.8008  0.7099  0.0616
  678MOL0     C91407   3.145   6.868   3.870 -0.3947 -0.7375 -0.3913
  678MOL0     C91408   3.243   6.810   3.771 -0.3877 -0.0854 -0.8029
  678MOL0     C91409   3.389   6.849   3.805 -0.8800  0.1951 -0.2699
  678MOL0     C91410   3.489   6.769   3.723 -0.1439 -0.0818 -0.1789
  678MOL0     C91411   3.584   6.858   3.642 -0.0359 -0.3159  0.7040
  678MOL0     N91412   3.530   6.912   3.520 -0.1942 -0.5714 -0.6594
  678MOL0     C91413   3.414   6.984   3.501  0.1474 -0.2663 -0.2923
  678MOL0     C91414   3.410   7.016   3.367  0.1488 -0.3613  0.9000
  678MOL0     C91415   3.293   7.082   3.295 -0.1926  0.1503 -0.5764
  678MOL0     C91416   3.328   7.184   3.195  0.0051 -0.2505 -0.0503
  678MOL0     C91417   3.381   7.130   3.058  0.3377  0.1548  0.1204
  678MOL0     C91418   3.416   7.248   2.959  0.6703  1.2058 -0.3551
  678MOL0     O91419   3.505   7.331   3.027 -0.1146  0.3190  0.0572
  678MOL0     C91420   3.639   7.313   3.024  0.5478  0.3779 -0.2666
  678MOL0     C91421   3.702   7.208   2.945 -0.2908 -0.6083  0.3153
  678MOL0     C91422   3.838   7.204   2.923  0.4147 -0.4139 -0.1127
  678MOL0     C91423   3.917   7.307   2.979 -0.5914 -0.0386  0.0603
  678MOL0     C91424   4.063   7.296   2.961 -0.0014  0.3636 -0.0537
  678MOL0     O91425   4.126   7.407   3.006 -0.2395 -0.6504  0.6113
  678MOL0     C91426   4.264   7.414   3.019  0.7463 -0.0870  0.0108
  678MOL0     C91427   4.341   7.406   2.906 -0.4515 -0.1964  0.2081
  678MOL0     C91428   4.480   7.409   2.917  0.0937  0.1744 -0.4522
  678MOL0     C91429   4.548   7.411   3.044  0.6181 -0.6086  0.9655
  678MOL0     O91430   4.689   7.409   3.063 -0.5778 -0.2731 -0.5690
  678MOL0     C91431   4.758   7.491   2.963 -0.4688 -0.2080  0.0057
  678MOL0     C91432   4.904   7.504   2.986  0.0262  0.1672  0.0835
  678MOL0     C91433   4.938   7.556   3.124  0.3663 -0.3262 -0.4584
  678MOL0     C91434   5.089   7.574   3.136 -0.6747 -0.1794 -0.1693
  678MOL0     C91435   5.160   7.676   3.040  0.2794 -0.1611 -0.0674
  678MOL0     C91436   5.301   7.706   3.093 -0.5681 -0.0286  0.5264
  678MOL0     C91437   5.400   7.756   2.983  0.6642  0.7873 -0.0609
  678MOL0     C91438   5.541   7.741   3.041  0.4296  0.4327  0.4010
  678MOL0    Cl91439   5.642   7.862   2.967 -0.0238 -0.0500 -0.1576
  678MOL0     C91440   4.463   7.433   3.155  0.0296 -0.1186  0.9162
  678MOL0     C91441   4.325   7.428   3.146  0.3556 -0.6857 -0.4471
  678MOL0     O91442   4.121   7.201   2.901  0.1257 -0.0302 -0.1488
  678MOL0     C91443   3.858   7.405   3.062  0.0316 -0.9296  0.0099
  678MOL0     C91444   3.721   7.407   3.083  0.1758  0.7450 -0.5031
  678MOL0     N91445   3.507   6.937   3.312 -0.2420  1.5924  0.4484
  678MOL0     N91446   3.572   6.871   3.398 -0.4490 -0.4503  0.0626
  678MOL0     C91447   2.535   6.933   3.701 -0.9969  0.3548 -0.5164
  678MOL0     C91448   2.409   6.970   3.673  0.2162 -0.4066 -0.2330
  678MOL0     C91449   2.011   7.168   3.590  0.1510 -0.6956  0.1207
  678MOL0     C91450   1.934   7.247   3.678 -0.1999  0.1198  0.0160
  678MOL0     C91451   1.795   7.268   3.661 -1.0813  0.3368  0.1131
  678MOL0     C91452   1.735   7.198   3.557  0.1596  0.2751 -0.5106
  678MOL0     O91453   1.593   7.201   3.556 -0.7480 -0.0309 -0.0108
  678MOL0     C91454   1.514   7.143   3.446  0.4350 -0.3588  0.4594
  678MOL0     C91455   1.367   7.173   3.460 -0.3586  0.4881 -0.1160
  678MOL0     C91456   1.364   7.331   3.448  0.8242 -0.6858  0.2796
  678MOL0     C91457   1.220   7.385   3.432  0.0518  0.5720  0.7937
  678MOL0     C91458   1.156   7.314   3.320  0.0217 -0.0211 -0.5557
  678MOL0     C91459   1.115   7.254   3.225  0.5222 -0.2563 -0.5095
  678MOL0     C91460   1.810   7.138   3.459 -0.4717  0.2736  0.3427
  678MOL0     C91461   1.952   7.131   3.472 -0.0576  0.6747 -0.8915
  678MOL0     C91462   2.024   7.078   3.357  0.0279 -0.4260 -0.1134
  678MOL0     H91463   2.456   7.188   3.411 -2.8295 -1.7815 -1.1320
  678MOL0     H91464   2.687   7.112   3.459  0.6298 -1.2151  1.5942
  678MOL0     H91465   2.771   6.858   3.845 -0.9335 -0.8738  0.1877
  678MOL0     H91466   2.740   6.756   3.709 -0.9697  1.7503 -2.5203
  678MOL0     H91467   2.982   6.814   3.636 -1.1905  2.7173 -1.1725
  678MOL0     H91468   2.962   6.715   3.788 -0.3977 -0.4039 -2.1075
  678MOL0     H91469   2.964   6.964   3.892 -0.9333  0.5749  0.0348
  678MOL0     H91470   3.043   7.006   3.739 -1.0385  0.4342 -0.3456
  678MOL0     H91471   3.181   6.953   3.928 -3.6854  2.6229 -2.7696
  678MOL0     H91472   3.120   6.785   3.936  3.8639 -1.2404  0.8687
  678MOL0     H91473   3.228   6.702   3.775 -2.1761  0.1250 -1.2004
  678MOL0     H91474   3.211   6.847   3.673 -0.9278 -1.5518 -1.2020
  678MOL0     H91475   3.399   6.955   3.782 -0.7128  0.0945 -0.6736
  678MOL0     H91476   3.403   6.835   3.913 -1.9127 -1.3715 -0.3069
  678MOL0     H91477   3.439   6.705   3.649 -0.7584  2.7165 -2.3788
  678MOL0     H91478   3.559   6.718   3.788 -0.9088 -0.5992  0.2498
  678MOL0     H91479   3.609   6.943   3.706 -0.7305  0.5917 -0.1920
  678MOL0     H91480   3.670   6.796   3.617  0.2952  0.4273 -0.0166
  678MOL0     H91481   3.341   7.025   3.569  0.3070  1.2106 -0.9809
  678MOL0     H91482   3.224   7.005   3.258 -0.4769  0.2560 -0.2717
  678MOL0     H91483   3.246   7.123   3.385  1.0444 -0.4284  0.3598
  678MOL0     H91484   3.247   7.254   3.174 -0.1582 -0.0089  1.3091
  678MOL0     H91485   3.401   7.248   3.246 -1.8423  0.9067  1.2411
  678MOL0     H91486   3.306   7.060   3.020 -1.2592  1.0388  1.5430
  678MOL0     H91487   3.471   7.070   3.073 -0.3193 -2.0012 -3.2875
  678MOL0     H91488   3.330   7.312   2.934  0.2078  0.6283 -0.2754
  678MOL0     H91489   3.460   7.212   2.866  2.6830  2.1493  0.1882
  678MOL0     H91490   3.651   7.127   2.893  1.0614 -0.2794 -1.6269
  678MOL0     H91491   3.892   7.134   2.861  0.9309  0.5976 -0.8316
  678MOL0     H91492   4.297   7.402   2.807 -1.0973  0.0513  0.4749
  678MOL0     H91493   4.540   7.394   2.828  0.5645  0.2682 -0.1558
  678MOL0     H91494   4.741   7.447   2.864 -0.7796  2.6787 -1.3403
  678MOL0     H91495   4.719   7.593   2.951  1.1625  0.5792  1.0556
  678MOL0     H91496   4.949   7.404   2.981 -0.6420 -0.2298  1.5057
  678MOL0     H91497   4.941   7.570   2.906 -0.8974  1.2322  0.5107
  678MOL0     H91498   4.885   7.650   3.142  0.4757 -0.4545  0.5570
  678MOL0     H91499   4.895   7.489   3.200  1.2035 -0.4284 -0.0640
  678MOL0     H91500   5.136   7.476   3.127  0.6994  0.4892 -0.4777
  678MOL0     H91501   5.098   7.618   3.236 -3.5871 -3.0016  1.5431
  678MOL0     H91502   5.109   7.773   3.037 -0.3001 -0.4223  0.8688
  678MOL0     H91503   5.163   7.633   2.939  1.7558  0.1003 -0.1458
  678MOL0     H91504   5.288   7.782   3.170 -0.4204  0.3000  0.2282
  678MOL0     H91505   5.334   7.611   3.136  0.9684 -0.2420 -0.9921
  678MOL0     H91506   5.372   7.859   2.960  1.2758  0.9071 -0.3117
  678MOL0     H91507   5.393   7.691   2.895  0.6428  1.5250 -0.6154
  678MOL0     H91508   5.549   7.751   3.149 -0.9358  0.6223  0.4989
  678MOL0     H91509   5.577   7.640   3.019 -1.5369 -1.1898  3.8887
  678MOL0     H91510   4.498   7.423   3.257 -1.2607 -0.7762  1.3160
  678MOL0     H91511   4.267   7.438   3.237 -0.0506 -1.9484 -0.5488
  678MOL0     H91512   3.912   7.478   3.121 -2.9989  0.3727  1.4326
  678MOL0     H91513   3.674   7.472   3.155  1.8625  0.2765  1.0981
  678MOL0     H91514   2.538   6.864   3.784 -2.2352 -2.1120 -2.3752
  678MOL0     H91515   2.336   6.900   3.712 -0.9188 -0.2095 -1.9138
  678MOL0     H91516   1.985   7.280   3.767  0.3109  0.1122 -0.2714
  678MOL0     H91517   1.743   7.318   3.741  0.1545  0.5641  0.8044
  678MOL0     H91518   1.521   7.034   3.442 -1.1118 -0.4883  0.6783
  678MOL0     H91519   1.528   7.181   3.345 -2.2696 -0.8807 -0.1698
  678MOL0     H91520   1.324   7.146   3.557  3.4503  2.9964  2.5487
  678MOL0     H91521   1.312   7.123   3.380 -1.8981  4.0623 -1.4693
  678MOL0     H91522   1.423   7.368   3.363  0.1366 -0.4556 -0.1104
  678MOL0     H91523   1.403   7.376   3.539  1.2440  1.8568 -1.0449
  678MOL0     H91524   1.169   7.364   3.527  1.6271  0.9961  1.7717
  678MOL0     H91525   1.215   7.493   3.416 -0.5330  0.5336  0.7009
  678MOL0     H91526   1.098   7.201   3.134 -0.0221 -0.3392 -0.3639
  678MOL0     H91527   1.768   7.103   3.366  1.9344 -2.5407  0.1747
  678MOL0     H91528   2.085   6.988   3.370  0.9801 -0.4247 -3.5761
  678MOL0     H91529   1.954   7.072   3.273  1.8870  1.9448 -1.9666
  678MOL0     H91530   2.096   7.157   3.334  0.6599 -0.5340  1.3920
  679MOL0     O91531   9.499   7.057   7.593  0.1059 -0.4407 -0.0880
  679MOL0     C91532   9.493   6.940   7.560 -0.5604 -0.4247 -0.1142
  679MOL0     O91533   9.594   6.866   7.512 -0.5421 -0.0488  0.1798
  679MOL0     C91534   9.733   6.885   7.534  0.7404 -0.5032 -0.4514
  679MOL0     C91535   9.816   6.802   7.456 -0.2786  0.6394 -0.2507
  679MOL0     C91536   9.961   6.807   7.469  0.1829 -0.0477 -0.1192
  679MOL0     C91537  10.015   6.900   7.559  0.0255 -0.1093  0.5076
  679MOL0     O91538  10.151   6.928   7.564 -0.5795  0.2217 -0.5812
  679MOL0     C91539  10.222   6.947   7.690  0.6400 -0.7380 -0.5026
  679MOL0     C91540  10.375   6.957   7.672  0.3497 -0.8011 -0.9896
  679MOL0     C91541  10.457   6.826   7.650 -1.3547 -0.4337 -0.4239
  679MOL0     C91542  10.410   6.762   7.514 -0.2315 -0.3450 -0.4777
  679MOL0     C91543  10.516   6.651   7.480 -0.1444  0.1742 -0.4502
  679MOL0     C91544  10.466   6.570   7.367  0.2112 -0.5600  0.6281
  679MOL0     C91545  10.591   6.492   7.309  0.4862 -0.3488  0.5846
  679MOL0     C91546  10.627   6.376   7.396  0.3280  1.1370  0.4204
  679MOL0     N91547  10.748   6.309   7.347  0.5624  0.0765  0.4926
  679MOL0     C91548  10.874   6.363   7.350 -0.1704 -0.8099 -0.9845
  679MOL0     C91549  10.952   6.268   7.296  0.1197  0.9541 -0.8674
  679MOL0     C91550  11.100   6.284   7.285  0.0045 -0.0955  0.3430
  679MOL0     C91551  11.136   6.312   7.137 -0.2113 -0.8596 -0.0804
  679MOL0     C91552  11.277   6.382   7.128  0.7150 -0.4264  0.5180
  679MOL0     C91553  11.291   6.461   6.994  0.0305  0.0459 -0.3830
  679MOL0     O91554  11.425   6.483   6.956 -0.5349 -0.6889  0.0578
  679MOL0     C91555  11.497   6.574   7.035 -0.0215 -0.1091  0.0368
  679MOL0     C91556  11.628   6.533   7.061 -0.2858  0.1079  0.3366
  679MOL0     C91557  11.714   6.611   7.134  0.8308  0.5629  0.9841
  679MOL0     C91558  11.676   6.739   7.184 -0.2971 -0.2561 -0.3482
  679MOL0     C91559  11.759   6.820   7.270 -0.0274 -0.2645  0.0744
  679MOL0     O91560  11.710   6.935   7.309 -0.4291 -0.1490  0.2794
  679MOL0     C91561  11.799   7.016   7.377  1.0109  0.4281 -0.6623
  679MOL0     C91562  11.850   7.132   7.319 -0.0682  0.6525 -0.1643
  679MOL0     C91563  11.946   7.210   7.388 -0.3293 -0.2622  0.0295
  679MOL0     C91564  11.993   7.169   7.512 -0.5751  0.1395  0.0807
  679MOL0     O91565  12.080   7.258   7.575 -0.0114  0.0045 -0.0285
  679MOL0     C91566  12.148   7.213   7.685 -1.0374 -0.6222 -0.1368
  679MOL0     C91567  12.236   7.318   7.750 -0.7649  0.2771 -0.2163
  679MOL0     C91568  12.167   7.449   7.787 -0.0923 -0.6975 -0.4093
  679MOL0     C91569  12.071   7.445   7.907 -0.1794  0.7261 -0.0324
  679MOL0     C91570  12.023   7.582   7.940  0.4810  0.1791  0.0926
  679MOL0     C91571  12.111   7.649   8.045 -0.1317  0.6603 -0.4064
  679MOL0     C91572  12.052   7.777   8.094  0.3258 -0.4776  0.0219
  679MOL0     C91573  12.145   7.843   8.192 -0.1399  0.3660  0.0667
  679MOL0    Cl91574  12.314   7.861   8.145 -0.2959  0.2426  0.3933
  679MOL0     C91575  11.933   7.064   7.578  0.2499  0.9288  0.0738
  679MOL0     C91576  11.832   6.988   7.508  0.1852  0.4171  0.0767
  679MOL0     O91577  11.870   6.775   7.298  0.2184 -0.0043  0.5718
  679MOL0     C91578  11.545   6.780   7.147 -0.4448 -0.6688 -0.2044
  679MOL0     C91579  11.454   6.700   7.078 -0.0916  0.1877 -0.5026
  679MOL0     N91580  10.871   6.158   7.263 -0.8028  0.0615  0.0632
  679MOL0     N91581  10.752   6.184   7.298  0.9040  0.1159 -0.2844
  679MOL0     C91582   9.920   6.980   7.638  0.3056 -0.4469  0.4103
  679MOL0     C91583   9.783   6.974   7.627 -0.1227 -0.1890  0.0402
  679MOL0     C91584   9.367   6.868   7.550 -0.2207 -0.3711 -0.5060
  679MOL0     C91585   9.370   6.737   7.493 -0.9728 -0.6466  0.3557
  679MOL0     C91586   9.260   6.650   7.490  0.1640 -0.4353  0.1982
  679MOL0     C91587   9.141   6.684   7.558  0.3074 -0.2234  0.4379
  679MOL0     O91588   9.040   6.582   7.571  0.3067  0.9766 -0.6649
  679MOL0     C91589   8.909   6.601   7.620  0.3859  0.1045 -0.6716
  679MOL0     C91590   8.837   6.470   7.640 -0.1984  0.0010 -0.0849
  679MOL0     C91591   8.686   6.494   7.676 -0.2383  1.2376 -0.1838
  679MOL0     C91592   8.600   6.375   7.627 -0.0859  0.7279 -0.0751
  679MOL0     C91593   8.649   6.248   7.678  1.0193 -0.0988  0.0088
  679MOL0     C91594   8.663   6.139   7.713  0.1085  0.7647 -0.6933
  679MOL0     C91595   9.131   6.808   7.621  0.1187 -0.1208 -0.3618
  679MOL0     C91596   9.240   6.903   7.617 -0.2134 -0.4627  0.3702
  679MOL0     C91597   9.221   7.041   7.682  0.1745 -0.1446 -0.3091
  679MOL0     H91598   9.784   6.731   7.381  1.7031  1.5485 -2.0697
  679MOL0     H91599  10.021   6.740   7.409  2.4281 -0.6315  2.5625
  679MOL0     H91600  10.181   7.029   7.751 -0.9982 -0.7049 -1.5638
  679MOL0     H91601  10.216   6.862   7.758  4.5264 -0.6783  0.1116
  679MOL0     H91602  10.407   7.022   7.754  0.8695  0.2687 -1.9935
  679MOL0     H91603  10.404   7.022   7.589  0.9894  1.0252  0.5968
  679MOL0     H91604  10.434   6.753   7.729  1.5660 -0.0797  0.8870
  679MOL0     H91605  10.564   6.850   7.653 -1.1738 -1.1942 -0.7200
  679MOL0     H91606  10.305   6.733   7.518 -0.1848 -0.4092  0.4640
  679MOL0     H91607  10.402   6.833   7.431 -1.0303 -1.8719 -1.7650
  679MOL0     H91608  10.605   6.694   7.433  0.1618  1.4026  1.1560
  679MOL0     H91609  10.531   6.590   7.569 -2.2787  1.1421  0.6463
  679MOL0     H91610  10.396   6.497   7.409 -1.3357  1.1478  1.1437
  679MOL0     H91611  10.411   6.626   7.290 -2.5482 -2.2996  1.1921
  679MOL0     H91612  10.679   6.557   7.299 -1.0037  1.5140 -1.3909
  679MOL0     H91613  10.560   6.458   7.210  2.5013 -1.0053  0.1251
  679MOL0     H91614  10.642   6.394   7.503  2.1969  0.3797  0.3222
  679MOL0     H91615  10.542   6.309   7.380  1.0829  1.0641 -5.0265
  679MOL0     H91616  10.903   6.463   7.379 -0.7954  0.2101 -3.6201
  679MOL0     H91617  11.120   6.368   7.352  0.2128  0.2870 -0.1909
  679MOL0     H91618  11.144   6.194   7.329  1.8747  1.2572  1.3736
  679MOL0     H91619  11.141   6.219   7.078  2.4075 -0.2326 -1.0159
  679MOL0     H91620  11.064   6.377   7.087  0.7175  1.8839  1.9399
  679MOL0     H91621  11.352   6.303   7.141 -0.0099 -1.4029 -0.9929
  679MOL0     H91622  11.287   6.449   7.214  0.7308 -0.2349  0.3686
  679MOL0     H91623  11.231   6.552   6.986 -0.6159 -0.4518 -1.4780
  679MOL0     H91624  11.232   6.405   6.920 -1.7098  0.7878  0.3964
  679MOL0     H91625  11.667   6.436   7.031 -1.0110  0.3089 -1.3689
  679MOL0     H91626  11.816   6.583   7.156  0.5497 -1.1081  0.2762
  679MOL0     H91627  11.829   7.163   7.218  0.0531  0.7887 -0.1475
  679MOL0     H91628  11.982   7.303   7.345  0.4906 -1.2025 -1.3973
  679MOL0     H91629  12.081   7.176   7.764 -0.8783  0.6199  0.6070
  679MOL0     H91630  12.202   7.124   7.651  1.5802  1.1463 -0.9296
  679MOL0     H91631  12.299   7.283   7.832 -3.2991 -1.8354  0.9643
  679MOL0     H91632  12.318   7.331   7.679 -1.8956  0.2201 -1.5691
  679MOL0     H91633  12.239   7.529   7.810 -2.0560  0.9134  0.3943
  679MOL0     H91634  12.122   7.483   7.693  3.0610 -0.2109 -1.8977
  679MOL0     H91635  12.104   7.393   7.998 -1.1121 -0.3510 -0.2839
  679MOL0     H91636  11.986   7.385   7.872  0.5223  0.3972 -1.2104
  679MOL0     H91637  11.924   7.568   7.985  2.0343  0.1657  3.8721
  679MOL0     H91638  12.007   7.640   7.848 -0.1005 -1.7350 -1.0784
  679MOL0     H91639  12.116   7.585   8.133  1.8851  1.5025  0.1463
  679MOL0     H91640  12.214   7.667   8.011  0.3591  0.8608  1.1202
  679MOL0     H91641  11.950   7.758   8.128  0.4436 -1.3930 -0.1121
  679MOL0     H91642  12.041   7.849   8.013  0.3140  1.7330  1.8865
  679MOL0     H91643  12.121   7.947   8.213  3.9440  1.8375 -1.5667
  679MOL0     H91644  12.140   7.782   8.283  2.0278 -1.4755 -0.9444
  679MOL0     H91645  11.951   7.036   7.681  0.1742 -1.7327 -0.5451
  679MOL0     H91646  11.780   6.915   7.569 -2.5863  1.0233 -1.3953
  679MOL0     H91647  11.507   6.870   7.193  2.1891 -1.2133  3.4848
  679MOL0     H91648  11.353   6.736   7.060 -0.4660 -1.1249 -1.1490
  679MOL0     H91649   9.958   7.055   7.706 -1.5018  0.2248  0.7514
  679MOL0     H91650   9.717   7.042   7.679 -2.7039 -1.1804 -1.7202
  679MOL0     H91651   9.453   6.702   7.433 -0.9801 -2.6870  1.4364
  679MOL0     H91652   9.263   6.552   7.444 -1.1728 -1.5972  2.4085
  679MOL0     H91653   8.856   6.658   7.542  1.9826  0.7713 -1.3044
  679MOL0     H91654   8.909   6.650   7.717 -1.7141 -2.7315  0.9038
  679MOL0     H91655   8.872   6.405   7.721 -1.8286 -1.3398 -0.4068
  679MOL0     H91656   8.843   6.408   7.550 -0.6770 -0.2312  0.0377
  679MOL0     H91657   8.652   6.583   7.622 -1.2069  0.0065 -1.7276
  679MOL0     H91658   8.682   6.506   7.784  5.5340 -0.1237  0.5064
  679MOL0     H91659   8.493   6.398   7.638  0.3665  2.5044  0.9679
  679MOL0     H91660   8.606   6.352   7.520  3.4036  0.5053  0.0475
  679MOL0     H91661   8.658   6.037   7.742  1.1141  1.5473  2.6290
  679MOL0     H91662   9.039   6.839   7.670  1.3497  0.5865  1.6495
  679MOL0     H91663   9.291   7.045   7.766  0.2263 -0.1904 -0.3504
  679MOL0     H91664   9.233   7.117   7.603 -0.4445  1.6552  1.2564
  679MOL0     H91665   9.117   7.045   7.715  0.7962 -0.4629  1.8012
  680MOL0     O91666   7.245   1.888   7.247  0.0188 -0.2970 -0.1757
  680MOL0     C91667   7.199   1.947   7.345  0.4594 -0.8384  0.2618
  680MOL0     O91668   7.072   1.940   7.384 -1.2366  0.3163 -0.4659
  680MOL0     C91669   6.976   1.889   7.301 -0.0613  0.1677  0.8954
  680MOL0     C91670   6.967   1.884   7.160 -0.4866 -0.0478 -0.3108
  680MOL0     C91671   6.858   1.823   7.092 -0.3037 -0.2225  0.5191
  680MOL0     C91672   6.756   1.778   7.168  0.0024 -0.3274  0.0820
  680MOL0     O91673   6.631   1.731   7.126  0.1964  0.0442  1.1497
  680MOL0     C91674   6.609   1.709   6.984 -0.3810 -0.1166  0.8552
  680MOL0     C91675   6.497   1.616   6.967  1.3171  0.3598 -0.4656
  680MOL0     C91676   6.358   1.668   6.967  1.0370  0.0766 -0.1836
  680MOL0     C91677   6.290   1.687   7.103 -0.2690 -0.2065 -0.0623
  680MOL0     C91678   6.145   1.726   7.090  0.2920 -0.1362 -0.0203
  680MOL0     C91679   6.058   1.621   7.020 -0.4208  0.4706 -1.1864
  680MOL0     C91680   5.919   1.674   7.009  0.2508  0.0512 -0.6668
  680MOL0     C91681   5.815   1.566   6.966 -0.6485  0.0010 -0.1845
  680MOL0     N91682   5.844   1.515   6.832  0.1395  0.6901 -0.1465
  680MOL0     C91683   5.936   1.418   6.804  0.5716  0.4929 -0.1514
  680MOL0     C91684   5.935   1.408   6.665  0.3018  0.0496  0.4731
  680MOL0     C91685   6.047   1.339   6.595  0.0872  0.3881  0.3636
  680MOL0     C91686   6.178   1.398   6.626  1.0779  0.1536 -0.6471
  680MOL0     C91687   6.282   1.316   6.564  0.5568  0.3854  0.2662
  680MOL0     C91688   6.419   1.386   6.566  0.4032 -0.3813 -0.3143
  680MOL0     O91689   6.518   1.282   6.536 -0.1770  0.1935 -0.2169
  680MOL0     C91690   6.652   1.310   6.552 -0.2218  0.1049 -1.2026
  680MOL0     C91691   6.703   1.433   6.593 -0.4029 -0.2312  0.0960
  680MOL0     C91692   6.840   1.451   6.620 -1.3230 -0.2465  0.5480
  680MOL0     C91693   6.928   1.340   6.609 -0.4140 -0.4681  0.1607
  680MOL0     C91694   7.061   1.360   6.648 -0.6232  0.7041 -0.0323
  680MOL0     O91695   7.085   1.471   6.733  0.1930 -0.2182  0.5289
  680MOL0     C91696   7.207   1.497   6.785  0.2361  0.2738 -0.6220
  680MOL0     C91697   7.323   1.430   6.768 -0.5173  0.2072 -0.8204
  680MOL0     C91698   7.439   1.456   6.843 -0.6235  0.4960  0.4634
  680MOL0     C91699   7.441   1.558   6.931  0.3632 -0.2918  0.4431
  680MOL0     O91700   7.543   1.577   7.011  0.1870 -0.6239  0.0381
  680MOL0     C91701   7.605   1.701   6.987 -0.1621  0.1350 -0.4226
  680MOL0     C91702   7.750   1.718   7.047  0.9567  0.1130  0.4743
  680MOL0     C91703   7.854   1.628   6.986  0.3052 -0.8350 -0.3374
  680MOL0     C91704   7.907   1.698   6.864 -0.3191  0.5933  0.6180
  680MOL0     C91705   7.992   1.604   6.780  0.2166 -0.5723  0.5484
  680MOL0     C91706   8.071   1.686   6.677 -0.4584 -0.8582  0.1724
  680MOL0     C91707   8.189   1.598   6.620  0.1828  0.3420 -0.1498
  680MOL0     C91708   8.274   1.692   6.527  0.3892 -0.1092  0.2641
  680MOL0    Cl91709   8.390   1.601   6.427 -0.1708  0.0603 -0.2093
  680MOL0     C91710   7.324   1.635   6.940  0.7671  0.0613  0.0522
  680MOL0     C91711   7.206   1.615   6.868 -0.5179 -0.2597 -0.0672
  680MOL0     O91712   7.150   1.277   6.615  0.0507 -0.2928  0.0328
  680MOL0     C91713   6.883   1.214   6.562 -0.8265  0.0347  1.2633
  680MOL0     C91714   6.746   1.202   6.541 -1.1421  0.2175 -0.2153
  680MOL0     N91715   5.831   1.483   6.617 -0.0745 -0.5039  0.0211
  680MOL0     N91716   5.777   1.542   6.716  0.6468 -0.7707  0.3799
  680MOL0     C91717   6.759   1.795   7.307 -0.4182 -0.5439 -0.5165
  680MOL0     C91718   6.867   1.847   7.369 -0.3453 -0.0356  0.3540
  680MOL0     C91719   7.284   2.020   7.434 -0.0212 -0.6359  0.9402
  680MOL0     C91720   7.238   2.045   7.566  0.1120  0.7089  0.2692
  680MOL0     C91721   7.320   2.120   7.652  0.6894  0.3439  1.3143
  680MOL0     C91722   7.442   2.172   7.604  0.6351  0.5405 -0.0463
  680MOL0     O91723   7.497   2.251   7.698  0.0525 -0.1529  0.2702
  680MOL0     C91724   7.625   2.306   7.673 -0.2498 -0.3481  0.0043
  680MOL0     C91725   7.672   2.385   7.795  0.5990 -0.4684 -0.0572
  680MOL0     C91726   7.592   2.510   7.830  0.3403  0.3956  0.1027
  680MOL0     C91727   7.664   2.608   7.932  0.0682  0.1174  0.1860
  680MOL0     C91728   7.678   2.559   8.064  0.2168 -0.0517  0.2979
  680MOL0     C91729   7.696   2.513   8.171  0.0489 -0.7159 -0.0271
  680MOL0     C91730   7.483   2.152   7.477  0.1262  0.2753 -0.3938
  680MOL0     C91731   7.407   2.076   7.395 -0.0059  0.9224  0.1925
  680MOL0     C91732   7.459   2.081   7.254  0.0114  0.6214 -0.1773
  680MOL0     H91733   7.051   1.934   7.113  1.0901 -1.1986  1.1274
  680MOL0     H91734   6.848   1.833   6.984 -0.5555  0.2775  0.5859
  680MOL0     H91735   6.604   1.796   6.918 -0.6608 -1.3342 -0.8051
  680MOL0     H91736   6.698   1.655   6.950  0.1010  1.0957  0.0991
  680MOL0     H91737   6.495   1.548   7.052  1.4098  0.0965 -0.6696
  680MOL0     H91738   6.519   1.556   6.877  1.5528 -0.3919  0.0785
  680MOL0     H91739   6.309   1.594   6.904 -2.2068  0.3893  1.7726
  680MOL0     H91740   6.355   1.757   6.904 -1.3680 -0.3414 -0.7260
  680MOL0     H91741   6.295   1.606   7.176 -0.2989  0.7672  1.0513
  680MOL0     H91742   6.338   1.772   7.153 -1.0634  0.0618  0.2512
  680MOL0     H91743   6.110   1.738   7.193 -1.2560 -4.0142  0.0935
  680MOL0     H91744   6.120   1.821   7.043 -0.5662  0.3103  1.2788
  680MOL0     H91745   6.086   1.600   6.916 -1.0467  0.1956 -1.3004
  680MOL0     H91746   6.060   1.536   7.088 -2.3891  3.0199  2.4195
  680MOL0     H91747   5.920   1.750   6.930  0.5887 -0.5059 -1.2090
  680MOL0     H91748   5.880   1.714   7.102  0.5479 -2.6412  0.7054
  680MOL0     H91749   5.829   1.488   7.042  0.6400  1.7125  1.4248
  680MOL0     H91750   5.716   1.612   6.960  0.2689  1.9426 -1.3626
  680MOL0     H91751   5.993   1.358   6.875  0.5571  1.1590  0.4358
  680MOL0     H91752   6.045   1.231   6.614  2.0322 -0.2817 -2.4953
  680MOL0     H91753   6.037   1.345   6.486 -3.7269  1.5631  0.6358
  680MOL0     H91754   6.192   1.500   6.590 -2.3381  0.3963 -1.6045
  680MOL0     H91755   6.186   1.390   6.735  1.5815 -2.8300 -0.8176
  680MOL0     H91756   6.251   1.291   6.462  0.2299  1.2585  0.1456
  680MOL0     H91757   6.285   1.221   6.618 -0.4758  0.4688  0.4862
  680MOL0     H91758   6.435   1.433   6.664 -2.1569 -1.0424  0.4851
  680MOL0     H91759   6.421   1.461   6.487 -2.9572 -2.3857 -2.5307
  680MOL0     H91760   6.639   1.519   6.610 -0.0793  1.0701 -4.0422
  680MOL0     H91761   6.874   1.549   6.651  1.8012 -1.3413  1.0345
  680MOL0     H91762   7.338   1.339   6.710 -0.0954 -2.0352  2.4399
  680MOL0     H91763   7.523   1.387   6.839 -2.6241 -2.0645  0.2746
  680MOL0     H91764   7.619   1.739   6.886  2.0007  0.1003 -0.1710
  680MOL0     H91765   7.538   1.781   7.021 -1.3942  0.1893 -2.7491
  680MOL0     H91766   7.783   1.822   7.040  1.8466 -0.1727  0.3453
  680MOL0     H91767   7.741   1.695   7.154 -2.9706 -1.8372 -0.0692
  680MOL0     H91768   7.937   1.603   7.053 -0.3983  0.4058  1.0339
  680MOL0     H91769   7.803   1.535   6.957 -0.4305  0.0149 -1.9009
  680MOL0     H91770   7.972   1.779   6.899 -0.5547 -0.2352  3.1452
  680MOL0     H91771   7.832   1.732   6.792  1.1495 -2.5163 -2.6916
  680MOL0     H91772   7.927   1.538   6.721 -1.5669 -0.2643  2.0730
  680MOL0     H91773   8.061   1.549   6.845 -1.5294 -1.6564  1.5758
  680MOL0     H91774   7.998   1.710   6.598 -0.6458 -0.3359  0.4920
  680MOL0     H91775   8.111   1.777   6.723  0.7016 -0.3829 -1.7001
  680MOL0     H91776   8.159   1.512   6.559 -1.6190  0.4823  0.4744
  680MOL0     H91777   8.247   1.553   6.700  1.1570 -3.4108 -2.7283
  680MOL0     H91778   8.212   1.746   6.455  1.5381 -1.8820 -2.1888
  680MOL0     H91779   8.315   1.773   6.588 -1.3271  1.5440 -0.6829
  680MOL0     H91780   7.321   1.719   7.009 -0.5543  1.1835 -1.3099
  680MOL0     H91781   7.121   1.681   6.860 -0.7481 -0.5521 -0.0201
  680MOL0     H91782   6.949   1.128   6.562 -1.8218 -0.7477  1.1302
  680MOL0     H91783   6.720   1.098   6.528 -0.8280  0.3409 -2.2324
  680MOL0     H91784   6.671   1.765   7.362  0.4038 -0.7531  0.7182
  680MOL0     H91785   6.881   1.846   7.477  1.8122 -0.2552  0.1113
  680MOL0     H91786   7.154   1.995   7.614  0.6378 -2.2023 -1.5852
  680MOL0     H91787   7.277   2.137   7.751  0.7336 -0.9551  1.5804
  680MOL0     H91788   7.628   2.383   7.596 -1.9796 -0.8268 -0.5818
  680MOL0     H91789   7.708   2.240   7.646  1.1874  0.6946  1.6432
  680MOL0     H91790   7.778   2.411   7.782  0.9759 -1.9130  0.0384
  680MOL0     H91791   7.669   2.319   7.882 -0.3566  1.0897  1.1514
  680MOL0     H91792   7.492   2.482   7.864  0.9544 -0.9596  0.8851
  680MOL0     H91793   7.587   2.566   7.737  0.2164 -0.8521 -0.6624
  680MOL0     H91794   7.762   2.643   7.900 -0.0074 -0.1604 -0.3630
  680MOL0     H91795   7.613   2.704   7.931  0.9883  0.7508 -4.0297
  680MOL0     H91796   7.703   2.473   8.270  1.7256 -1.6520 -0.4892
  680MOL0     H91797   7.571   2.208   7.450  0.4147  0.1781  0.3119
  680MOL0     H91798   7.466   1.983   7.206  0.6185 -0.5438  2.1397
  680MOL0     H91799   7.387   2.132   7.190 -0.7168 -3.1285 -2.6395
  680MOL0     H91800   7.560   2.122   7.251  0.4239 -0.2877  0.7280
  681MOL0     O91801   4.914   6.372   5.887  0.3165 -0.1352  0.4754
  681MOL0     C91802   4.866   6.418   5.780 -0.6259 -0.1894  0.0522
  681MOL0     O91803   4.929   6.509   5.689  0.2291  0.5575  0.6469
  681MOL0     C91804   5.061   6.536   5.679  0.1381  0.3711  0.1940
  681MOL0     C91805   5.163   6.469   5.750 -0.3520  0.0078 -0.3304
  681MOL0     C91806   5.299   6.497   5.721  0.1224  0.9505  0.1749
  681MOL0     C91807   5.341   6.589   5.620  0.2769 -0.6360 -0.1181
  681MOL0     O91808   5.473   6.618   5.584  0.5834  0.4736  0.3848
  681MOL0     C91809   5.573   6.519   5.608 -0.9225 -0.5442  0.7653
  681MOL0     C91810   5.708   6.589   5.576 -0.0739 -0.9947 -0.0819
  681MOL0     C91811   5.742   6.592   5.424 -0.0955 -0.1524  0.4398
  681MOL0     C91812   5.875   6.662   5.388 -0.2313 -0.0579  0.4313
  681MOL0     C91813   6.002   6.618   5.456  0.4786 -0.0451  0.5255
  681MOL0     C91814   6.134   6.671   5.397 -0.5131 -0.4416  0.2011
  681MOL0     C91815   6.259   6.615   5.469  0.9012 -0.1461 -0.5698
  681MOL0     C91816   6.385   6.690   5.431  0.2661 -0.0698  0.0443
  681MOL0     N91817   6.494   6.655   5.527 -0.1415 -0.0217  0.6989
  681MOL0     C91818   6.628   6.673   5.499 -0.1818  0.0849 -0.2742
  681MOL0     C91819   6.685   6.614   5.608 -0.6453  0.4995  0.0012
  681MOL0     C91820   6.832   6.586   5.634  0.6001  0.0781  0.2010
  681MOL0     C91821   6.879   6.443   5.665 -1.0569 -0.1830 -0.6760
  681MOL0     C91822   6.996   6.436   5.764  0.2210 -0.2335  0.2086
  681MOL0     C91823   7.130   6.501   5.707 -0.4679  0.2960 -0.0793
  681MOL0     O91824   7.115   6.628   5.643  0.1268  0.5779  0.4128
  681MOL0     C91825   7.235   6.683   5.609  0.2394  0.1047 -0.4636
  681MOL0     C91826   7.323   6.626   5.513 -0.0882  0.6756  0.2562
  681MOL0     C91827   7.436   6.700   5.472 -0.1313  0.1047  0.2114
  681MOL0     C91828   7.457   6.833   5.512 -0.3029 -0.4656  0.1752
  681MOL0     C91829   7.589   6.902   5.480 -0.2250  0.3613 -0.3990
  681MOL0     O91830   7.617   7.027   5.538  0.4789 -0.0147  0.9669
  681MOL0     C91831   7.740   7.084   5.503  0.4305 -0.2165  0.0631
  681MOL0     C91832   7.811   7.147   5.609  0.3986 -0.1003 -0.3063
  681MOL0     C91833   7.932   7.199   5.592 -0.5852  0.4808  0.4873
  681MOL0     C91834   7.989   7.218   5.461 -0.2978  0.1441  0.0931
  681MOL0     O91835   8.110   7.289   5.454 -0.2694  0.3029  0.2512
  681MOL0     C91836   8.138   7.354   5.333  0.2667 -0.1759  0.3077
  681MOL0     C91837   8.271   7.427   5.359  0.1826  0.1236 -0.4488
  681MOL0     C91838   8.383   7.320   5.360 -0.6407 -0.2254 -0.0233
  681MOL0     C91839   8.511   7.358   5.443  0.0373  0.4152 -0.3114
  681MOL0     C91840   8.583   7.481   5.378  0.6596  0.0124 -0.1582
  681MOL0     C91841   8.730   7.501   5.421 -1.1560  0.6147  0.1411
  681MOL0     C91842   8.827   7.405   5.340  0.0410  0.5243 -0.0336
  681MOL0     C91843   8.972   7.422   5.391 -0.2107  0.1512 -0.3932
  681MOL0    Cl91844   9.026   7.584   5.337 -0.1464 -0.4532  0.3853
  681MOL0     C91845   7.913   7.167   5.356  0.6687  0.2022 -0.3375
  681MOL0     C91846   7.791   7.108   5.380 -0.4794  1.0084  0.4186
  681MOL0     O91847   7.663   6.841   5.401  0.2256  0.7257 -0.0733
  681MOL0     C91848   7.361   6.893   5.598 -0.8440  0.3299 -0.3352
  681MOL0     C91849   7.260   6.812   5.656  0.0926 -0.4349 -0.6095
  681MOL0     N91850   6.584   6.577   5.698 -0.7558 -0.1646 -0.3040
  681MOL0     N91851   6.475   6.603   5.648  0.1843 -0.1373 -0.1820
  681MOL0     C91852   5.236   6.668   5.577  0.6778 -0.2363  0.5648
  681MOL0     C91853   5.102   6.641   5.598  0.3556  0.5675  0.0579
  681MOL0     C91854   4.730   6.353   5.743  0.5023  0.6844  0.4738
  681MOL0     C91855   4.700   6.351   5.601 -0.0564 -0.0598 -0.0907
  681MOL0     C91856   4.582   6.293   5.569  0.1585  0.1612 -0.3854
  681MOL0     C91857   4.488   6.241   5.664  0.2899 -0.9046 -0.0414
  681MOL0     O91858   4.384   6.163   5.628 -0.1028  0.2418  0.1192
  681MOL0     C91859   4.312   6.182   5.509  0.3688 -0.3173 -0.1434
  681MOL0     C91860   4.243   6.311   5.497 -0.7936 -0.0111  0.0987
  681MOL0     C91861   4.139   6.341   5.605  0.2784 -0.2939 -0.9014
  681MOL0     C91862   4.046   6.230   5.632  0.1804 -1.0783  0.5024
  681MOL0     C91863   3.931   6.286   5.706 -0.4559  0.7690 -0.1636
  681MOL0     C91864   3.830   6.333   5.753 -0.1622  0.5171  0.1122
  681MOL0     C91865   4.516   6.250   5.796 -0.0490  0.7008  0.5840
  681MOL0     C91866   4.641   6.299   5.840 -0.7070  0.2949 -0.0546
  681MOL0     C91867   4.657   6.319   5.991  0.0292 -0.5399  0.3405
  681MOL0     H91868   5.147   6.391   5.824  1.3128 -1.4850 -1.4489
  681MOL0     H91869   5.366   6.425   5.767 -1.9455 -1.2511 -0.0789
  681MOL0     H91870   5.565   6.472   5.706 -3.2328 -0.8525  0.4931
  681MOL0     H91871   5.561   6.439   5.535 -2.5540  0.7259 -0.4270
  681MOL0     H91872   5.779   6.527   5.631  1.6332 -0.6632 -1.8007
  681MOL0     H91873   5.698   6.685   5.628 -0.5475 -2.0555  1.8683
  681MOL0     H91874   5.670   6.653   5.369 -0.9073 -1.1353  0.3919
  681MOL0     H91875   5.743   6.486   5.398 -2.2264  0.3724 -2.2044
  681MOL0     H91876   5.880   6.654   5.279 -0.5403  3.4594  0.0729
  681MOL0     H91877   5.871   6.767   5.416 -0.6236  0.1195 -0.2754
  681MOL0     H91878   5.989   6.664   5.555 -2.0988  0.7884 -0.1065
  681MOL0     H91879   5.997   6.509   5.463 -1.5823 -0.1113 -0.9671
  681MOL0     H91880   6.146   6.641   5.292  2.3758  1.8468 -0.2793
  681MOL0     H91881   6.136   6.780   5.400  1.7791 -0.4333  0.6838
  681MOL0     H91882   6.273   6.508   5.455 -1.7600 -0.4625 -1.1957
  681MOL0     H91883   6.243   6.622   5.577  1.2223 -0.7971 -0.4781
  681MOL0     H91884   6.409   6.665   5.327 -0.5194 -0.5942 -0.0180
  681MOL0     H91885   6.367   6.798   5.433  0.0161 -0.1140  0.3432
  681MOL0     H91886   6.673   6.703   5.404 -1.7088  3.1448 -0.1705
  681MOL0     H91887   6.887   6.628   5.550 -2.2962  5.6518  0.6866
  681MOL0     H91888   6.848   6.648   5.723 -1.0325  1.4597 -0.4197
  681MOL0     H91889   6.798   6.373   5.688 -2.5887  1.3700 -1.0996
  681MOL0     H91890   6.915   6.403   5.570 -0.2007 -0.6777 -0.1470
  681MOL0     H91891   7.017   6.332   5.790  1.3023 -0.5638 -1.7773
  681MOL0     H91892   6.977   6.488   5.858 -0.8950  0.9940 -0.6510
  681MOL0     H91893   7.170   6.431   5.634 -1.8422 -1.5001  0.8044
  681MOL0     H91894   7.211   6.503   5.780  0.1894  0.2126 -0.8043
  681MOL0     H91895   7.311   6.525   5.477  0.6638  1.6525 -3.1482
  681MOL0     H91896   7.501   6.651   5.399 -0.0810 -0.5256  0.6711
  681MOL0     H91897   7.767   7.149   5.709 -2.3805 -0.0022 -1.4308
  681MOL0     H91898   7.982   7.233   5.682 -0.2801 -2.9570  1.7268
  681MOL0     H91899   8.145   7.284   5.249 -0.5967  0.3204 -0.1889
  681MOL0     H91900   8.068   7.430   5.298  2.8162  2.3928  0.3909
  681MOL0     H91901   8.282   7.493   5.274 -1.4195  0.7212 -0.2369
  681MOL0     H91902   8.275   7.488   5.450 -2.3479 -0.4693  0.1436
  681MOL0     H91903   8.343   7.236   5.416 -3.3260  1.5466  0.9079
  681MOL0     H91904   8.415   7.290   5.260  0.8651  0.0529  0.3452
  681MOL0     H91905   8.573   7.269   5.456  0.0559  0.6760  1.8650
  681MOL0     H91906   8.484   7.377   5.548  0.5320  0.1482 -0.1358
  681MOL0     H91907   8.519   7.567   5.396 -0.9713 -1.0271 -0.8135
  681MOL0     H91908   8.581   7.462   5.270  0.9217  0.1542 -0.1892
  681MOL0     H91909   8.753   7.604   5.391 -0.7898 -0.2112 -2.7254
  681MOL0     H91910   8.738   7.489   5.529  0.7003 -1.6810 -0.1874
  681MOL0     H91911   8.813   7.419   5.233 -1.1389  1.4961  0.2294
  681MOL0     H91912   8.801   7.302   5.367  1.0926 -0.2135 -1.6683
  681MOL0     H91913   8.978   7.410   5.499  3.3207  0.8339 -0.4051
  681MOL0     H91914   9.029   7.337   5.355  0.9341  0.4502  0.6676
  681MOL0     H91915   7.951   7.163   5.255  1.9783 -0.9043  0.1537
  681MOL0     H91916   7.742   7.074   5.289  0.5466 -1.8780  0.8296
  681MOL0     H91917   7.375   6.997   5.627  2.0083 -0.0749  0.0699
  681MOL0     H91918   7.186   6.863   5.717  1.7137  0.9060  0.3381
  681MOL0     H91919   5.271   6.748   5.513  0.1996 -1.0791 -0.7803
  681MOL0     H91920   5.017   6.686   5.547  0.8525  0.9420 -0.4612
  681MOL0     H91921   4.772   6.377   5.525  1.7852 -2.6959  0.6088
  681MOL0     H91922   4.569   6.288   5.462 -1.0049  3.8765 -0.5686
  681MOL0     H91923   4.233   6.106   5.506  0.0462 -0.0796  1.4407
  681MOL0     H91924   4.375   6.158   5.423 -1.2909 -3.3953 -0.6455
  681MOL0     H91925   4.190   6.307   5.402 -1.6123  1.9414  0.4203
  681MOL0     H91926   4.323   6.386   5.497 -1.4938  0.7404  0.2769
  681MOL0     H91927   4.081   6.429   5.575  0.0147 -0.2203 -0.2060
  681MOL0     H91928   4.187   6.370   5.699 -1.0138 -0.5862 -0.1249
  681MOL0     H91929   4.027   6.170   5.543  2.4053  1.3550 -1.7627
  681MOL0     H91930   4.100   6.159   5.696 -0.0205 -0.1416  1.7660
  681MOL0     H91931   3.740   6.369   5.798 -0.4842  0.5244 -0.5336
  681MOL0     H91932   4.450   6.198   5.865  1.4894 -2.1986  0.0488
  681MOL0     H91933   4.564   6.291   6.041 -0.1224  0.1596  0.4658
  681MOL0     H91934   4.737   6.250   6.020  2.6141  2.3303  0.6713
  681MOL0     H91935   4.697   6.417   6.022 -1.3937 -0.1662  1.0718
  682MOL0     O91936  10.326   4.355   3.894 -0.7212 -0.0028 -1.5351
  682MOL0     C91937  10.380   4.286   3.811  0.5424 -1.4507 -0.6996
  682MOL0     O91938  10.513   4.253   3.805  0.1182 -0.0133 -1.2562
  682MOL0     C91939  10.611   4.331   3.866 -0.2560  0.5181  0.5422
  682MOL0     C91940  10.592   4.468   3.892 -0.1656  0.0303 -0.1464
  682MOL0     C91941  10.695   4.543   3.947  0.2173  0.5697  0.0344
  682MOL0     C91942  10.811   4.480   3.995  0.3770  0.0067 -0.8612
  682MOL0     O91943  10.922   4.546   4.051 -0.3675  0.0110 -0.4237
  682MOL0     C91944  10.926   4.683   4.074  0.0090 -1.2431  1.1127
  682MOL0     C91945  10.939   4.748   3.938  0.0189  0.3934 -0.3129
  682MOL0     C91946  10.998   4.888   3.946 -0.0923 -0.0982 -0.1750
  682MOL0     C91947  11.146   4.911   3.990  0.4824 -0.0510 -0.4798
  682MOL0     C91948  11.184   5.063   3.989  0.5176  0.1063 -0.2192
  682MOL0     C91949  11.297   5.092   3.887  0.3579  0.0010  0.1077
  682MOL0     C91950  11.319   5.245   3.884  0.1890 -0.7157 -0.2157
  682MOL0     C91951  11.390   5.305   4.018 -0.1585  1.2639  0.3420
  682MOL0     N91952  11.443   5.442   4.000  0.1318  0.4548  0.1917
  682MOL0     C91953  11.367   5.556   3.984  0.1061 -0.2518 -0.1282
  682MOL0     C91954  11.468   5.656   3.992  0.0316  0.2946 -0.5083
  682MOL0     C91955  11.459   5.804   3.976 -0.1021  0.5773  0.0854
  682MOL0     C91956  11.575   5.877   4.044 -0.5152  0.5670 -0.2323
  682MOL0     C91957  11.556   6.027   4.061 -1.0888  0.4710 -0.3491
  682MOL0     C91958  11.686   6.083   4.114 -0.4219  0.1428 -0.3326
  682MOL0     O91959  11.701   6.230   4.104  0.2925  0.9105 -0.1119
  682MOL0     C91960  11.836   6.270   4.085 -0.0875  1.1357 -0.6364
  682MOL0     C91961  11.954   6.187   4.104  0.3822  0.4232  0.6554
  682MOL0     C91962  12.085   6.232   4.082  0.3236 -0.2498  0.0953
  682MOL0     C91963  12.103   6.366   4.049  0.5110  0.2181  0.0257
  682MOL0     C91964  12.235   6.421   4.009  0.3933  0.3860 -0.1272
  682MOL0     O91965  12.239   6.559   3.993  0.8362  0.5488  1.4258
  682MOL0     C91966  12.359   6.611   3.947  0.2525  0.0658 -0.2428
  682MOL0     C91967  12.478   6.571   4.013  0.1592  0.7260 -0.2556
  682MOL0     C91968  12.598   6.624   3.972 -0.4556 -0.6082  0.1472
  682MOL0     C91969  12.601   6.708   3.853 -0.7740  0.1264  0.2798
  682MOL0     O91970  12.727   6.751   3.812 -0.1042  0.0735 -0.5949
  682MOL0     C91971  12.741   6.886   3.768 -0.3601 -0.1284  0.2693
  682MOL0     C91972  12.894   6.904   3.739 -0.0941 -0.2715  0.8287
  682MOL0     C91973  12.983   6.862   3.858  0.3204  0.3723 -0.2544
  682MOL0     C91974  13.116   6.923   3.852  0.0069 -0.4549 -0.7280
  682MOL0     C91975  13.211   6.879   3.965 -0.3674  1.2985 -0.3185
  682MOL0     C91976  13.294   7.006   4.001  0.2575  1.2827  0.0061
  682MOL0     C91977  13.441   6.963   4.037 -0.1749  0.1811 -0.5001
  682MOL0     C91978  13.450   6.853   4.153 -0.0177  0.0957  0.5648
  682MOL0    Cl91979  13.618   6.830   4.211  0.0169 -0.5483 -0.2833
  682MOL0     C91980  12.481   6.737   3.790  0.4687 -0.3143  0.9093
  682MOL0     C91981  12.356   6.697   3.841 -0.4904 -0.1892  0.1379
  682MOL0     O91982  12.329   6.342   3.986  0.4578 -0.1052 -0.9163
  682MOL0     C91983  11.988   6.451   4.033 -0.5033  0.0689 -0.1454
  682MOL0     C91984  11.860   6.403   4.055  0.1906 -0.3477  0.4192
  682MOL0     N91985  11.592   5.597   4.020  0.4309  0.4783  0.0626
  682MOL0     N91986  11.573   5.475   4.036  0.4823  0.2688 -0.2668
  682MOL0     C91987  10.823   4.350   3.984  0.5337  0.7370  0.2236
  682MOL0     C91988  10.730   4.272   3.910 -1.4384 -0.5633 -0.1050
  682MOL0     C91989  10.294   4.235   3.702  0.7199  0.7516 -0.2712
  682MOL0     C91990  10.351   4.133   3.620 -1.0915 -0.6800 -0.0304
  682MOL0     C91991  10.277   4.062   3.531 -0.9490 -0.8185  0.0059
  682MOL0     C91992  10.141   4.086   3.512 -0.9526 -0.6079  0.7180
  682MOL0     O91993  10.083   3.998   3.424  0.1383 -0.6086 -0.1253
  682MOL0     C91994   9.951   4.021   3.373 -0.5574 -0.2686 -0.3936
  682MOL0     C91995   9.845   3.972   3.477 -1.3278 -0.0725 -0.4731
  682MOL0     C91996   9.705   3.981   3.417 -0.0530  0.0161 -0.2333
  682MOL0     C91997   9.616   3.895   3.512  0.4478 -0.1185 -0.0089
  682MOL0     C91998   9.479   3.874   3.462  0.9807 -0.8368 -0.2574
  682MOL0     C91999   9.372   3.839   3.419  0.0863  1.5326 -0.2696
  682MOL0     C92000  10.086   4.189   3.582  0.0263 -0.1543 -0.1039
  682MOL0     C92001  10.158   4.267   3.674  1.4361  0.0683 -0.3481
  682MOL0     C92002  10.075   4.358   3.759  0.7649 -0.6175 -0.7040
  682MOL0     H92003  10.509   4.524   3.853  1.1600  3.0600  1.0776
  682MOL0     H92004  10.686   4.651   3.952  0.2600  0.5824 -0.1232
  682MOL0     H92005  10.834   4.723   4.119 -2.0772 -2.1391 -2.0831
  682MOL0     H92006  11.010   4.715   4.137  0.9968  2.0842 -1.5867
  682MOL0     H92007  10.857   4.751   3.865  1.4248 -0.5561 -2.0044
  682MOL0     H92008  11.017   4.691   3.887  1.8159  0.8910  1.7134
  682MOL0     H92009  10.932   4.947   4.011  0.2698 -1.5080  1.5719
  682MOL0     H92010  10.992   4.934   3.847  1.8181 -0.4890 -0.5104
  682MOL0     H92011  11.156   4.872   4.092 -1.6213  0.2344 -0.1393
  682MOL0     H92012  11.214   4.850   3.929 -2.0881 -1.4015 -2.1700
  682MOL0     H92013  11.096   5.112   3.948  0.6350 -0.0141 -0.6168
  682MOL0     H92014  11.213   5.108   4.085  0.6496  1.5256 -0.9026
  682MOL0     H92015  11.391   5.046   3.917  0.4824  1.0952  1.5160
  682MOL0     H92016  11.281   5.050   3.788  0.0477 -0.4555  0.3496
  682MOL0     H92017  11.226   5.292   3.851  0.0561  0.0700  1.1884
  682MOL0     H92018  11.395   5.254   3.806  0.3296 -0.7877 -0.0885
  682MOL0     H92019  11.322   5.313   4.103  0.1734  1.1721  0.6146
  682MOL0     H92020  11.473   5.245   4.056 -0.9283 -0.6282 -0.7788
  682MOL0     H92021  11.260   5.570   3.973  0.3392  1.2978 -0.6221
  682MOL0     H92022  11.462   5.827   3.869  1.2911  1.9903  0.3872
  682MOL0     H92023  11.361   5.838   4.008  1.4549  4.4050  1.3729
  682MOL0     H92024  11.602   5.828   4.138 -0.4437 -2.2865 -1.6360
  682MOL0     H92025  11.661   5.856   3.979  0.3206 -2.2954  1.5901
  682MOL0     H92026  11.472   6.063   4.121 -0.9251  0.7986 -0.3143
  682MOL0     H92027  11.541   6.071   3.961  3.0330 -0.6670 -1.6685
  682MOL0     H92028  11.771   6.038   4.061  1.5365  3.6803 -0.4878
  682MOL0     H92029  11.698   6.054   4.219 -1.4100  1.4697  0.1680
  682MOL0     H92030  11.946   6.083   4.136 -1.4977 -0.3704 -2.0835
  682MOL0     H92031  12.164   6.159   4.096  2.5367  1.6065 -1.7820
  682MOL0     H92032  12.486   6.504   4.098  2.1737 -0.2935 -1.1659
  682MOL0     H92033  12.684   6.597   4.032  0.0375 -2.3576 -1.2643
  682MOL0     H92034  12.671   6.920   3.691  0.5762  2.1369  0.3275
  682MOL0     H92035  12.718   6.954   3.851 -2.1590 -1.8555  1.2676
  682MOL0     H92036  12.912   6.850   3.646  2.0761  0.4653  0.7641
  682MOL0     H92037  12.914   7.011   3.736 -0.5478 -0.1945  0.4928
  682MOL0     H92038  12.934   6.888   3.952 -0.6267  0.4053 -0.7411
  682MOL0     H92039  12.982   6.753   3.868 -1.9122  0.2685 -0.9699
  682MOL0     H92040  13.096   7.030   3.861 -2.7421 -0.7954 -1.9753
  682MOL0     H92041  13.155   6.904   3.752 -0.2604 -1.7312 -0.5996
  682MOL0     H92042  13.282   6.802   3.933 -2.9939 -1.3388 -0.2363
  682MOL0     H92043  13.153   6.853   4.054  0.1592 -0.0383 -0.3385
  682MOL0     H92044  13.303   7.075   3.917 -1.0638  2.2728  0.6354
  682MOL0     H92045  13.249   7.051   4.091  0.9859 -1.5385  1.9278
  682MOL0     H92046  13.508   7.045   4.063  0.5265 -0.6466  0.3545
  682MOL0     H92047  13.482   6.923   3.944 -0.0217 -0.2208 -0.2618
  682MOL0     H92048  13.398   6.903   4.236 -1.3468  3.3402 -2.0030
  682MOL0     H92049  13.397   6.760   4.132 -0.0754 -0.0292  1.2380
  682MOL0     H92050  12.472   6.789   3.695 -0.0758 -1.3686  0.3677
  682MOL0     H92051  12.268   6.727   3.784  0.7738  3.0427 -0.3532
  682MOL0     H92052  11.999   6.553   3.998 -1.6619  0.9058  1.7736
  682MOL0     H92053  11.771   6.465   4.043 -0.0879 -0.9306 -0.6561
  682MOL0     H92054  10.916   4.321   4.032  0.3116 -0.2754  0.0791
  682MOL0     H92055  10.752   4.168   3.888  2.8464  0.1549 -0.0794
  682MOL0     H92056  10.453   4.098   3.628 -1.1528 -1.2446 -1.4262
  682MOL0     H92057  10.331   3.995   3.465 -0.8766  0.1773 -0.9871
  682MOL0     H92058   9.932   3.962   3.283 -1.3548 -1.0802  0.2790
  682MOL0     H92059   9.939   4.127   3.351  1.1950  0.6934  2.7476
  682MOL0     H92060   9.849   4.027   3.571 -0.7099  0.2472 -0.6830
  682MOL0     H92061   9.870   3.867   3.497 -1.0101 -0.4924 -2.7685
  682MOL0     H92062   9.712   3.939   3.316 -2.4705 -1.3392  0.0766
  682MOL0     H92063   9.673   4.085   3.415 -2.5506 -0.6892  0.0476
  682MOL0     H92064   9.672   3.803   3.530  2.0315  0.2658 -2.4966
  682MOL0     H92065   9.616   3.952   3.605  2.9205 -0.0075 -0.0086
  682MOL0     H92066   9.275   3.812   3.383  0.0933  0.8206  0.2114
  682MOL0     H92067   9.984   4.215   3.557 -0.8803 -1.1773  2.1671
  682MOL0     H92068  10.117   4.456   3.781 -0.0892 -0.6619  1.3785
  682MOL0     H92069   9.970   4.362   3.727 -0.4867 -1.3437  2.7915
  682MOL0     H92070  10.081   4.303   3.854  3.5945  0.8978  0.0907
  683MOL0     O92071   7.775   9.947   5.243 -0.4032  0.1270  0.7320
  683MOL0     C92072   7.702  10.046   5.272  0.1915  0.1110  0.1366
  683MOL0     O92073   7.750  10.168   5.315 -0.2098 -0.5650  0.7209
  683MOL0     C92074   7.885  10.174   5.335 -0.2141 -0.2021 -0.4289
  683MOL0     C92075   7.938  10.159   5.464 -0.1697 -0.0016 -0.2592
  683MOL0     C92076   8.077  10.173   5.490  0.1472  0.3139 -0.6490
  683MOL0     C92077   8.160  10.208   5.383  0.1425 -0.1329  0.7201
  683MOL0     O92078   8.295  10.208   5.389 -0.9370 -0.1279 -0.1866
  683MOL0     C92079   8.354  10.226   5.515  1.0675 -0.7690  0.3648
  683MOL0     C92080   8.500  10.252   5.473  0.6568 -0.3119 -0.6905
  683MOL0     C92081   8.598  10.239   5.589 -0.1188 -1.0241  0.0367
  683MOL0     C92082   8.733  10.317   5.579 -0.2802 -0.0134  0.2952
  683MOL0     C92083   8.833  10.246   5.681 -0.2869  0.1369  1.0375
  683MOL0     C92084   8.969  10.319   5.671  1.0215 -0.9776 -0.3063
  683MOL0     C92085   9.056  10.307   5.799 -0.0411 -0.8930  0.1965
  683MOL0     C92086   9.120  10.172   5.819  0.9386  0.2073  0.7255
  683MOL0     N92087   9.226  10.126   5.728  0.4609  0.1773 -0.3215
  683MOL0     C92088   9.315  10.211   5.672  0.2903 -0.2088  0.5020
  683MOL0     C92089   9.394  10.133   5.595  0.1086 -0.4322 -0.8704
  683MOL0     C92090   9.500  10.196   5.520 -0.3476  0.4073 -0.3212
  683MOL0     C92091   9.571  10.104   5.417  0.4563  0.8479 -0.1815
  683MOL0     C92092   9.700  10.173   5.377  0.2954 -0.1309  0.0611
  683MOL0     C92093   9.806  10.154   5.478  1.0512  0.3759 -1.2994
  683MOL0     O92094   9.913  10.235   5.457 -0.4624  0.0940 -0.0226
  683MOL0     C92095  10.029  10.190   5.400 -0.3906  0.4562 -0.0096
  683MOL0     C92096  10.140  10.266   5.415 -0.1984 -0.2893 -0.1695
  683MOL0     C92097  10.257  10.227   5.340  0.7028 -0.1323  0.1649
  683MOL0     C92098  10.266  10.110   5.270 -0.7077  0.3540  0.5046
  683MOL0     C92099  10.390  10.070   5.192  0.2807  0.3277 -0.2482
  683MOL0     O92100  10.378   9.967   5.106 -0.1450  0.0674  0.3071
  683MOL0     C92101  10.486   9.930   5.031  0.4850 -0.2684 -0.8031
  683MOL0     C92102  10.615   9.918   5.078  0.1727  0.4729  0.1143
  683MOL0     C92103  10.715   9.871   4.995  0.4843  0.2878 -0.5438
  683MOL0     C92104  10.693   9.846   4.862 -0.1420  0.5005 -0.5909
  683MOL0     O92105  10.808   9.824   4.788  0.3127  0.1781 -0.5497
  683MOL0     C92106  10.819   9.728   4.685 -0.5634  0.6936  1.0488
  683MOL0     C92107  10.885   9.603   4.738 -0.2843 -0.7907  1.4548
  683MOL0     C92108  10.804   9.542   4.855 -0.8749 -0.0914  0.8471
  683MOL0     C92109  10.665   9.483   4.821  0.0745 -0.0031 -0.3021
  683MOL0     C92110  10.556   9.507   4.930  0.3830 -0.6080  0.7932
  683MOL0     C92111  10.413   9.477   4.879 -0.0899  0.7193 -0.4885
  683MOL0     C92112  10.310   9.518   4.987 -0.6550  0.7194 -0.3892
  683MOL0     C92113  10.233   9.650   4.969 -0.3757 -0.4593 -0.7328
  683MOL0    Cl92114  10.171   9.690   4.804  0.0613  0.0309  0.1290
  683MOL0     C92115  10.562   9.866   4.808 -0.3290 -0.1940  0.2794
  683MOL0     C92116  10.462   9.911   4.895  0.4170  0.2163  0.4883
  683MOL0     O92117  10.487  10.137   5.205 -0.2322  0.3200 -0.2859
  683MOL0     C92118  10.152  10.031   5.264 -0.4496 -0.3387  0.7323
  683MOL0     C92119  10.031  10.072   5.328 -0.9652 -0.2993  0.0198
  683MOL0     N92120   9.343  10.001   5.606 -0.2926 -0.2100  0.3545
  683MOL0     N92121   9.237   9.996   5.678 -0.4672  0.0070  0.0455
  683MOL0     C92122   8.110  10.220   5.254 -0.4654 -0.8253  0.1059
  683MOL0     C92123   7.968  10.207   5.229 -0.5922  0.5128 -1.1332
  683MOL0     C92124   7.553  10.051   5.258 -0.6031  0.4194  1.6768
  683MOL0     C92125   7.492  10.173   5.197  0.2018  0.7357 -0.4369
  683MOL0     C92126   7.360  10.168   5.155  0.2471 -0.4419 -0.2640
  683MOL0     C92127   7.277  10.052   5.188  0.1105 -0.3530  0.4791
  683MOL0     O92128   7.138  10.049   5.159 -0.7909  0.5050  0.3379
  683MOL0     C92129   7.080  10.155   5.083  0.4883  0.1825  0.9011
  683MOL0     C92130   6.957  10.104   5.006  0.0395 -0.2088 -0.1271
  683MOL0     C92131   6.853  10.045   5.108  0.5808  0.9243 -0.0117
  683MOL0     C92132   6.765  10.152   5.163 -0.1396 -0.2324 -0.3183
  683MOL0     C92133   6.667  10.182   5.062  0.0612  0.2591 -1.0026
  683MOL0     C92134   6.577  10.189   4.986 -1.4277  0.8946  0.6143
  683MOL0     C92135   7.334   9.951   5.248 -0.2232 -0.1125 -0.4664
  683MOL0     C92136   7.472   9.941   5.274  0.2180 -0.5383  1.1064
  683MOL0     C92137   7.518   9.811   5.327  0.0572 -0.3973  0.1279
  683MOL0     H92138   7.883  10.124   5.551  0.7253 -1.8456 -0.4002
  683MOL0     H92139   8.122  10.159   5.588 -0.5926 -0.0901 -0.3555
  683MOL0     H92140   8.307  10.311   5.564 -0.6033 -1.1121 -0.5740
  683MOL0     H92141   8.348  10.132   5.571 -0.3435 -0.4359  0.7882
  683MOL0     H92142   8.509  10.353   5.434  0.4392 -0.2946 -0.6976
  683MOL0     H92143   8.532  10.181   5.397  0.1814 -2.6134  1.1098
  683MOL0     H92144   8.622  10.137   5.621  1.0378  0.4188  4.4968
  683MOL0     H92145   8.551  10.291   5.673  1.0029  1.7704 -0.9370
  683MOL0     H92146   8.760  10.314   5.473 -0.1325  1.8007  0.2401
  683MOL0     H92147   8.702  10.414   5.620 -3.3518 -0.1706 -1.3423
  683MOL0     H92148   8.795  10.258   5.783 -0.0641  1.1905  1.0104
  683MOL0     H92149   8.855  10.142   5.653  1.2671  1.0598 -1.4446
  683MOL0     H92150   9.025  10.294   5.580  1.4306 -0.5162 -0.1893
  683MOL0     H92151   8.949  10.426   5.669 -0.7427 -1.2994 -1.3739
  683MOL0     H92152   8.993  10.333   5.885  1.9421 -1.1599  1.7999
  683MOL0     H92153   9.135  10.382   5.809 -1.0830  0.3968 -0.8426
  683MOL0     H92154   9.190  10.180   5.903  1.5933 -3.8177  0.7243
  683MOL0     H92155   9.040  10.099   5.828 -1.4813  2.5765 -0.1567
  683MOL0     H92156   9.334  10.317   5.684  2.7963 -0.7119  1.6516
  683MOL0     H92157   9.452  10.281   5.471 -1.3540  0.0545  0.0320
  683MOL0     H92158   9.561  10.246   5.596 -0.3664 -0.9756  0.6227
  683MOL0     H92159   9.588  10.004   5.458  0.1888  0.5857 -0.7051
  683MOL0     H92160   9.512  10.080   5.329  3.5036 -1.0083 -1.8925
  683MOL0     H92161   9.679  10.280   5.365  1.9654  0.1419 -0.8561
  683MOL0     H92162   9.742  10.136   5.283 -1.0763  1.4859 -1.2609
  683MOL0     H92163   9.844  10.053   5.494  3.1842  1.4523  1.1594
  683MOL0     H92164   9.768  10.182   5.577 -0.7851 -0.3113 -1.7827
  683MOL0     H92165  10.153  10.353   5.479 -0.2934 -1.6854  1.8263
  683MOL0     H92166  10.341  10.296   5.338 -0.3525  1.2333  1.2466
  683MOL0     H92167  10.624   9.927   5.186 -1.7279  2.4997  0.1743
  683MOL0     H92168  10.815   9.859   5.036  0.7823  0.0746 -1.3089
  683MOL0     H92169  10.718   9.713   4.646 -0.0387  1.1132 -0.5606
  683MOL0     H92170  10.895   9.765   4.616  2.1196  1.6512  4.2536
  683MOL0     H92171  10.887   9.533   4.654  1.5884 -1.3776  1.9610
  683MOL0     H92172  10.987   9.630   4.763 -0.3817  0.6906  0.3635
  683MOL0     H92173  10.868   9.459   4.886  2.1808  1.9677  0.4352
  683MOL0     H92174  10.798   9.613   4.938  3.5669  0.0170  1.3370
  683MOL0     H92175  10.673   9.383   4.778  0.4699  0.5697 -1.6200
  683MOL0     H92176  10.634   9.541   4.733 -0.6278 -0.8805 -0.6454
  683MOL0     H92177  10.562   9.611   4.964  3.1299  0.0265 -1.3078
  683MOL0     H92178  10.582   9.437   5.010  1.5120 -4.5536 -2.6635
  683MOL0     H92179  10.392   9.527   4.784 -2.5576  3.2069  1.2101
  683MOL0     H92180  10.402   9.368   4.867  0.7143  0.6190 -0.3945
  683MOL0     H92181  10.354   9.515   5.087  2.3516  1.3348 -1.5915
  683MOL0     H92182  10.241   9.433   4.982  3.0240 -2.5349 -1.1467
  683MOL0     H92183  10.148   9.657   5.037 -0.2733 -0.2006 -0.6315
  683MOL0     H92184  10.291   9.732   5.012  0.3029 -0.6920 -1.1856
  683MOL0     H92185  10.537   9.852   4.704  2.3734 -2.8147 -0.1822
  683MOL0     H92186  10.363   9.920   4.853  0.3462 -2.9046 -0.2467
  683MOL0     H92187  10.151   9.941   5.203 -0.3586 -1.1246  1.8662
  683MOL0     H92188   9.947  10.004   5.325 -2.1874  1.1921 -1.2667
  683MOL0     H92189   8.187  10.243   5.181 -0.8344 -1.7186 -0.5863
  683MOL0     H92190   7.931  10.219   5.128  1.9873 -2.9245 -2.6627
  683MOL0     H92191   7.552  10.260   5.172  1.1983  1.0633  2.7186
  683MOL0     H92192   7.315  10.255   5.110  0.1201 -0.5640 -0.3756
  683MOL0     H92193   7.147  10.182   5.001  1.0661 -0.8452  1.0180
  683MOL0     H92194   7.063  10.245   5.143 -1.6101  0.3541  0.1426
  683MOL0     H92195   6.993  10.029   4.934  2.7383 -1.5434  2.4102
  683MOL0     H92196   6.909  10.179   4.943  1.1900  1.0536  0.4654
  683MOL0     H92197   6.900   9.986   5.187 -0.6845 -0.9241 -0.5927
  683MOL0     H92198   6.788   9.977   5.053  2.3365 -0.3526 -0.5632
  683MOL0     H92199   6.707  10.114   5.247  0.3120  0.6630  0.4059
  683MOL0     H92200   6.818  10.243   5.192 -2.4800  1.4005 -0.8261
  683MOL0     H92201   6.485  10.192   4.931  0.9189  0.0649 -3.7891
  683MOL0     H92202   7.265   9.871   5.274  1.3394 -0.5763  2.6361
  683MOL0     H92203   7.581   9.827   5.415 -1.4499 -1.4076  1.4542
  683MOL0     H92204   7.441   9.738   5.352  0.2261 -0.0762  1.7065
  683MOL0     H92205   7.577   9.753   5.255 -1.5213 -1.7726 -0.1050
  684MOL0     O92206   8.681   5.632   4.861 -0.5014  0.3317  0.0289
  684MOL0     C92207   8.656   5.746   4.895 -0.1670  0.2627  1.1013
  684MOL0     O92208   8.727   5.824   4.979  0.1880 -0.0053  0.7841
  684MOL0     C92209   8.866   5.821   4.978 -0.2565 -0.4550  0.0717
  684MOL0     C92210   8.925   5.925   5.052  0.8029  1.0349  0.7877
  684MOL0     C92211   9.058   5.942   5.049  0.0249  0.4290 -0.2909
  684MOL0     C92212   9.143   5.868   4.978 -0.2972 -0.4448  0.0608
  684MOL0     O92213   9.276   5.898   4.983 -1.0766 -0.9293  0.5243
  684MOL0     C92214   9.379   5.818   4.910  0.7008 -0.5056  0.8192
  684MOL0     C92215   9.526   5.858   4.950 -0.1135 -0.4351  0.3285
  684MOL0     C92216   9.623   5.776   4.867  0.4743  0.3821  0.6222
  684MOL0     C92217   9.763   5.776   4.921 -1.2938  0.3930  0.2687
  684MOL0     C92218   9.822   5.636   4.916  0.4449  0.0016 -0.4462
  684MOL0     C92219   9.853   5.594   4.777 -0.3553  0.7539 -0.4088
  684MOL0     C92220   9.928   5.458   4.770  0.3301  0.2779 -0.6587
  684MOL0     C92221   9.844   5.340   4.808 -0.2404  0.0041 -0.4654
  684MOL0     N92222   9.916   5.211   4.795  0.1518 -0.5330  0.2914
  684MOL0     C92223  10.031   5.187   4.857  0.0724  0.3192  0.3377
  684MOL0     C92224  10.051   5.056   4.851 -0.2999 -0.4703 -0.1973
  684MOL0     C92225  10.156   4.980   4.936 -1.4608 -0.0956  0.2647
  684MOL0     C92226  10.294   4.993   4.868 -0.3574 -0.4003  0.2743
  684MOL0     C92227  10.375   4.864   4.880 -0.8541 -0.2547 -0.3968
  684MOL0     C92228  10.512   4.876   4.820  0.4924  0.0227 -0.1508
  684MOL0     O92229  10.596   4.762   4.832  0.0174 -0.0408  0.0564
  684MOL0     C92230  10.730   4.785   4.796 -0.4863 -0.4834 -0.3913
  684MOL0     C92231  10.810   4.678   4.816 -0.0447  0.3739 -0.0355
  684MOL0     C92232  10.944   4.684   4.795 -0.1979 -0.1255  0.7971
  684MOL0     C92233  11.003   4.790   4.740  0.1879 -0.4925  0.1090
  684MOL0     C92234  11.150   4.809   4.731  0.5540  0.0123  0.0934
  684MOL0     O92235  11.231   4.707   4.779 -0.4216 -0.5482  0.3838
  684MOL0     C92236  11.363   4.718   4.745  0.5910 -0.1184  0.6987
  684MOL0     C92237  11.458   4.741   4.841 -0.3409 -0.3717  0.1654
  684MOL0     C92238  11.597   4.733   4.804 -0.0193 -0.0679 -0.2946
  684MOL0     C92239  11.635   4.713   4.670 -0.1632  0.8052  0.2303
  684MOL0     O92240  11.773   4.722   4.642  0.3138  0.4486 -0.3887
  684MOL0     C92241  11.805   4.795   4.520 -0.2788  0.5444 -0.4298
  684MOL0     C92242  11.960   4.800   4.523  1.0020  0.4823 -0.5475
  684MOL0     C92243  12.030   4.903   4.425  1.0256 -0.3748 -0.0612
  684MOL0     C92244  12.166   4.850   4.374 -0.4894  0.8130 -0.4681
  684MOL0     C92245  12.244   4.933   4.270  0.1404  0.1168  0.2543
  684MOL0     C92246  12.389   4.956   4.295 -0.7176  0.0559 -0.4755
  684MOL0     C92247  12.411   5.045   4.413 -0.1482  0.0068  0.2554
  684MOL0     C92248  12.555   5.103   4.419 -0.6593  0.2505 -0.0523
  684MOL0    Cl92249  12.582   5.210   4.276 -0.1537  0.1767 -0.3949
  684MOL0     C92250  11.535   4.678   4.575 -0.5167 -0.0525 -0.6975
  684MOL0     C92251  11.399   4.680   4.615  0.4300 -0.3108  0.0538
  684MOL0     O92252  11.193   4.909   4.669 -0.0112  0.8936  0.2875
  684MOL0     C92253  10.921   4.897   4.703  0.3610  0.6529  0.0457
  684MOL0     C92254  10.787   4.900   4.729 -0.2794 -0.5848 -0.0184
  684MOL0     N92255   9.945   5.001   4.781  0.1069 -0.4911  0.0846
  684MOL0     N92256   9.877   5.102   4.734  0.4908 -0.1877 -0.5322
  684MOL0     C92257   9.087   5.762   4.912 -0.4362 -0.3870  0.7371
  684MOL0     C92258   8.948   5.737   4.903 -0.7941 -0.4099 -0.1527
  684MOL0     C92259   8.526   5.804   4.842  0.4065 -0.0904  0.1488
  684MOL0     C92260   8.452   5.872   4.941 -0.0226 -0.4039 -0.8961
  684MOL0     C92261   8.321   5.924   4.909 -0.2139  0.4776 -0.2473
  684MOL0     C92262   8.267   5.906   4.785 -0.2012  0.1142 -0.0094
  684MOL0     O92263   8.136   5.931   4.756  0.1878 -0.1813 -0.0239
  684MOL0     C92264   8.114   6.036   4.658 -0.0467  0.2399  0.0461
  684MOL0     C92265   8.028   6.143   4.718 -0.1912 -0.2294 -0.2916
  684MOL0     C92266   7.879   6.105   4.749 -0.6889  0.0956 -0.5172
  684MOL0     C92267   7.803   6.214   4.817  0.0760  0.2580  0.2024
  684MOL0     C92268   7.662   6.193   4.833 -0.6922  0.4052  0.4787
  684MOL0     C92269   7.544   6.180   4.844  0.4180  0.0571  0.6113
  684MOL0     C92270   8.346   5.841   4.687 -0.7780 -0.5896  0.3239
  684MOL0     C92271   8.474   5.785   4.718 -0.4526 -0.1652  0.6381
  684MOL0     C92272   8.547   5.705   4.604  0.5467  0.2721 -0.0477
  684MOL0     H92273   8.855   5.994   5.097 -2.4590 -1.1094 -0.6164
  684MOL0     H92274   9.096   6.028   5.103 -1.8988 -0.0256  1.9194
  684MOL0     H92275   9.360   5.711   4.926 -3.2606 -0.0390  0.2092
  684MOL0     H92276   9.371   5.831   4.802 -3.8562 -0.3626  0.9979
  684MOL0     H92277   9.536   5.829   5.055 -1.2858 -1.5777  0.1668
  684MOL0     H92278   9.541   5.966   4.943 -2.0057 -0.0851  1.0931
  684MOL0     H92279   9.624   5.821   4.767 -1.8215  0.9995  0.8086
  684MOL0     H92280   9.588   5.673   4.859 -0.1660  0.5535  1.1534
  684MOL0     H92281   9.830   5.834   4.856  0.1498 -0.2820  1.0950
  684MOL0     H92282   9.757   5.812   5.024 -2.0787 -0.2038  0.4371
  684MOL0     H92283   9.914   5.635   4.975  0.3481  0.4759 -0.2872
  684MOL0     H92284   9.754   5.558   4.952 -0.2045 -1.0262 -3.5469
  684MOL0     H92285   9.758   5.582   4.725 -1.4969 -0.4583  1.7958
  684MOL0     H92286   9.908   5.674   4.727  1.1646  0.5145  0.7807
  684MOL0     H92287  10.018   5.470   4.831  0.4278  0.7260 -0.8887
  684MOL0     H92288   9.962   5.434   4.669 -0.9819 -0.2172 -1.0049
  684MOL0     H92289   9.816   5.348   4.914 -1.4322  1.4730 -0.8548
  684MOL0     H92290   9.748   5.343   4.756 -0.3767  0.0950 -0.2088
  684MOL0     H92291  10.093   5.257   4.912 -1.4354  2.1154 -0.1476
  684MOL0     H92292  10.162   5.024   5.036 -1.3913 -0.8844  0.6192
  684MOL0     H92293  10.127   4.875   4.943  0.0870 -0.7083 -1.6984
  684MOL0     H92294  10.295   5.021   4.763 -0.0271  1.4005  0.7197
  684MOL0     H92295  10.346   5.071   4.924 -2.4698  0.9544  0.4248
  684MOL0     H92296  10.317   4.784   4.834 -0.3856  0.2868 -2.0055
  684MOL0     H92297  10.392   4.852   4.987 -0.4231  3.7174  0.1385
  684MOL0     H92298  10.560   4.968   4.854  2.0964 -0.5257 -0.8316
  684MOL0     H92299  10.495   4.894   4.713 -0.2643 -1.3902 -0.2813
  684MOL0     H92300  10.780   4.582   4.859 -1.6943  1.2543  0.8650
  684MOL0     H92301  11.009   4.600   4.815  1.9213  1.9907  3.7686
  684MOL0     H92302  11.436   4.751   4.946  0.3943  1.7999  0.1619
  684MOL0     H92303  11.675   4.766   4.872  1.9251 -1.4082 -1.7597
  684MOL0     H92304  11.771   4.728   4.440  1.5981  0.4923 -1.2412
  684MOL0     H92305  11.755   4.893   4.515 -0.5865  0.3483 -1.5079
  684MOL0     H92306  11.989   4.822   4.626 -3.3686  0.5086  0.8900
  684MOL0     H92307  11.987   4.700   4.490  1.3592  1.1460 -2.4157
  684MOL0     H92308  11.964   4.927   4.341 -0.3220  0.6825  1.2434
  684MOL0     H92309  12.046   4.995   4.483  0.2067 -0.3019  0.0494
  684MOL0     H92310  12.147   4.753   4.326  0.7452  0.9425 -1.2817
  684MOL0     H92311  12.223   4.816   4.461 -1.0299 -1.6216 -0.9743
  684MOL0     H92312  12.191   5.028   4.257  0.4860  0.2449 -0.2685
  684MOL0     H92313  12.245   4.881   4.173  1.4877 -0.4353  0.5429
  684MOL0     H92314  12.442   4.860   4.300  0.0090  0.3824 -1.5115
  684MOL0     H92315  12.445   4.998   4.210  0.7187 -0.6777  0.0706
  684MOL0     H92316  12.376   4.991   4.502  1.9285 -1.8741  0.0364
  684MOL0     H92317  12.348   5.133   4.397  2.5254  2.1313  0.5786
  684MOL0     H92318  12.561   5.166   4.509  2.6122  1.7417 -1.1532
  684MOL0     H92319  12.624   5.020   4.435  1.6334  1.6828 -1.8458
  684MOL0     H92320  11.569   4.668   4.472  0.3769  1.1337 -0.5428
  684MOL0     H92321  11.333   4.651   4.534  0.4629 -0.5032  0.0957
  684MOL0     H92322  10.963   4.985   4.656  1.0431  1.0855  1.4070
  684MOL0     H92323  10.722   4.983   4.703 -1.0588 -2.1378 -3.5456
  684MOL0     H92324   9.154   5.704   4.849 -1.3099  1.0730 -1.6921
  684MOL0     H92325   8.903   5.661   4.840  2.6069 -0.8087 -2.3300
  684MOL0     H92326   8.495   5.881   5.040  0.5140  2.1793 -1.2814
  684MOL0     H92327   8.262   5.980   4.980  1.0345  0.5363  0.7679
  684MOL0     H92328   8.063   5.986   4.575 -1.2731  1.2483  0.1584
  684MOL0     H92329   8.205   6.079   4.616  0.6123 -1.9009 -0.8713
  684MOL0     H92330   8.020   6.226   4.646 -1.6675 -0.0432  0.0532
  684MOL0     H92331   8.073   6.176   4.812  2.4527 -1.2661 -1.1109
  684MOL0     H92332   7.891   6.019   4.816  0.8039  1.0870  0.5493
  684MOL0     H92333   7.820   6.073   4.663  0.0637 -0.0250 -0.9934
  684MOL0     H92334   7.834   6.229   4.921  0.2422  0.5646  0.1110
  684MOL0     H92335   7.821   6.313   4.773  1.8381  0.0906  0.4626
  684MOL0     H92336   7.443   6.147   4.860  0.7383 -0.0428  2.6864
  684MOL0     H92337   8.303   5.813   4.591 -2.0408 -1.5949  1.1553
  684MOL0     H92338   8.499   5.737   4.511  0.4598 -0.1079 -0.1365
  684MOL0     H92339   8.653   5.732   4.606  0.6864 -0.3264  1.0027
  684MOL0     H92340   8.540   5.596   4.610  1.3209  0.1534 -0.9622
  685MOL0     O92341   4.244   0.861   6.284 -0.0414 -0.3253  0.0027
  685MOL0     C92342   4.171   0.965   6.266  0.2087  1.2121 -0.0952
  685MOL0     O92343   4.216   1.087   6.259 -0.5650  0.1979 -0.0965
  685MOL0     C92344   4.351   1.094   6.279  0.4792  0.0779 -1.2109
  685MOL0     C92345   4.441   1.039   6.199 -1.0408 -0.3609  0.3238
  685MOL0     C92346   4.577   1.043   6.233  0.1577  0.8200  0.0869
  685MOL0     C92347   4.616   1.102   6.361 -0.1035 -0.7423  0.7087
  685MOL0     O92348   4.739   1.103   6.419  0.3155  0.0542  0.3365
  685MOL0     C92349   4.851   1.096   6.331 -0.3858  0.2343  0.9463
  685MOL0     C92350   4.992   1.113   6.397 -0.1597 -0.0477 -0.3636
  685MOL0     C92351   5.106   1.087   6.292 -0.2449 -0.0625 -0.2252
  685MOL0     C92352   5.241   1.142   6.347  0.0851  0.0323  0.0444
  685MOL0     C92353   5.351   1.151   6.247 -0.7465 -0.4311  0.0082
  685MOL0     C92354   5.481   1.211   6.315 -0.1243  0.0142 -0.1222
  685MOL0     C92355   5.587   1.241   6.203 -0.2430  0.5254  0.1502
  685MOL0     C92356   5.730   1.253   6.271  0.0277  0.6560 -0.2107
  685MOL0     N92357   5.792   1.122   6.318 -0.4853  0.1052  0.1426
  685MOL0     C92358   5.778   1.054   6.433 -0.5358  0.0096 -0.1156
  685MOL0     C92359   5.863   0.944   6.420  0.5018 -0.3150 -0.2193
  685MOL0     C92360   5.883   0.840   6.524 -0.6739  0.1082 -0.8985
  685MOL0     C92361   5.959   0.886   6.645  0.9710 -0.3839 -0.9524
  685MOL0     C92362   6.007   0.755   6.709  1.2791  0.5171  0.1243
  685MOL0     C92363   6.122   0.794   6.807  0.5388  0.6748  0.6155
  685MOL0     O92364   6.187   0.680   6.865 -0.0471  0.0223 -0.1091
  685MOL0     C92365   6.311   0.709   6.926  0.1638 -0.2797  0.2131
  685MOL0     C92366   6.368   0.593   6.983 -0.5643 -0.5163  0.0836
  685MOL0     C92367   6.491   0.601   7.061  0.5786 -0.4341  0.1789
  685MOL0     C92368   6.559   0.724   7.065 -0.5603  0.5899  0.3581
  685MOL0     C92369   6.695   0.740   7.128  0.3281  0.3114 -0.0589
  685MOL0     O92370   6.747   0.624   7.180 -0.7383  0.1557  0.2217
  685MOL0     C92371   6.865   0.624   7.246 -0.5629  0.3767 -0.2481
  685MOL0     C92372   6.975   0.551   7.189  0.3587  0.3122  0.2733
  685MOL0     C92373   7.104   0.556   7.243  0.2903 -0.0373  0.1200
  685MOL0     C92374   7.124   0.624   7.368  0.4973  0.7303 -0.0898
  685MOL0     O92375   7.240   0.624   7.438  0.3116 -0.6332 -0.3832
  685MOL0     C92376   7.361   0.621   7.361 -0.4687 -0.1792 -0.1679
  685MOL0     C92377   7.482   0.655   7.448 -1.1746  0.0559 -0.1713
  685MOL0     C92378   7.607   0.653   7.366  0.4753 -1.0491  0.8279
  685MOL0     C92379   7.716   0.722   7.453 -0.9613 -0.6037  0.2665
  685MOL0     C92380   7.847   0.721   7.372  0.2795 -0.2333 -0.2172
  685MOL0     C92381   7.965   0.757   7.455  0.1089  0.0750 -0.0992
  685MOL0     C92382   8.087   0.757   7.369 -0.2759 -0.2758 -0.1241
  685MOL0     C92383   8.212   0.806   7.450  0.1997 -1.1044  0.9125
  685MOL0    Cl92384   8.367   0.814   7.368 -0.1352  0.1562  0.0496
  685MOL0     C92385   7.019   0.688   7.425 -0.7840  0.2089 -0.3928
  685MOL0     C92386   6.896   0.702   7.366  0.3719 -0.3738  0.3841
  685MOL0     O92387   6.754   0.850   7.122  0.2671  0.4647 -0.2466
  685MOL0     C92388   6.491   0.838   7.012 -0.6310  0.0647 -0.1062
  685MOL0     C92389   6.371   0.827   6.949  0.6043 -0.0167 -0.8529
  685MOL0     N92390   5.927   0.958   6.296  0.3915  1.1973 -0.3676
  685MOL0     N92391   5.890   1.065   6.243  0.1842  0.3276  0.7738
  685MOL0     C92392   4.517   1.162   6.436 -0.3431  0.3467  0.2382
  685MOL0     C92393   4.389   1.163   6.392 -0.5404  0.1038  0.0954
  685MOL0     C92394   4.026   0.929   6.243 -0.1040  0.1896  0.0931
  685MOL0     C92395   3.954   1.035   6.193  0.2332  0.6714  0.6319
  685MOL0     C92396   3.815   1.021   6.168  0.5803 -0.7926 -0.9331
  685MOL0     C92397   3.753   0.900   6.187  0.7604  0.0690  0.3596
  685MOL0     O92398   3.617   0.874   6.174  0.4160 -0.3716 -0.2311
  685MOL0     C92399   3.545   0.909   6.057 -0.1613  0.0348 -0.0574
  685MOL0     C92400   3.394   0.861   6.038  0.3923 -0.7702 -0.4382
  685MOL0     C92401   3.356   0.826   5.889 -0.1497 -0.0751 -0.1665
  685MOL0     C92402   3.209   0.784   5.882 -1.0781  0.7460 -0.5097
  685MOL0     C92403   3.184   0.739   5.747  0.7560 -0.4435 -0.1531
  685MOL0     C92404   3.159   0.688   5.634  0.1381 -0.7783  0.5008
  685MOL0     C92405   3.829   0.795   6.235  0.2150 -0.4063 -0.7337
  685MOL0     C92406   3.967   0.799   6.271  1.3207 -0.2427 -0.2056
  685MOL0     C92407   4.046   0.674   6.304  0.0508 -0.8808  0.1751
  685MOL0     H92408   4.411   0.981   6.112 -0.0152  0.0659 -0.3287
  685MOL0     H92409   4.648   0.994   6.168  0.0608 -1.1289  1.3878
  685MOL0     H92410   4.856   0.993   6.296 -0.7242  0.5576 -0.0682
  685MOL0     H92411   4.839   1.160   6.244  1.2958  1.5803  1.6429
  685MOL0     H92412   5.004   1.041   6.479 -1.5162 -1.4936 -1.3897
  685MOL0     H92413   4.995   1.217   6.433  1.2799 -0.7167  1.6575
  685MOL0     H92414   5.089   1.137   6.197  2.7642 -1.2131 -1.4730
  685MOL0     H92415   5.102   0.979   6.278 -0.8221  0.2197 -2.5186
  685MOL0     H92416   5.221   1.245   6.379  1.8530 -0.0913  1.7261
  685MOL0     H92417   5.269   1.085   6.436  0.0228  0.8043  0.5655
  685MOL0     H92418   5.362   1.050   6.205 -1.9456  0.6963 -3.3362
  685MOL0     H92419   5.329   1.217   6.163  0.8563 -0.6026 -0.5787
  685MOL0     H92420   5.458   1.312   6.350  2.8005  2.1056 -3.5058
  685MOL0     H92421   5.515   1.139   6.390 -1.4294  0.1662  0.6253
  685MOL0     H92422   5.568   1.338   6.156  2.6331  0.8469 -0.4862
  685MOL0     H92423   5.590   1.164   6.125 -1.6185 -0.1563  0.7346
  685MOL0     H92424   5.790   1.291   6.188  0.8386  0.6049  0.3406
  685MOL0     H92425   5.728   1.331   6.349  1.0209 -1.7301  2.3689
  685MOL0     H92426   5.725   1.060   6.527  1.1925 -0.2784  0.9389
  685MOL0     H92427   5.785   0.800   6.551 -0.5210  1.0676  1.2685
  685MOL0     H92428   5.941   0.757   6.483 -1.7847 -1.6056  0.8434
  685MOL0     H92429   6.036   0.954   6.606  1.0821 -0.4093 -0.7808
  685MOL0     H92430   5.892   0.935   6.716 -1.2749 -2.7440 -1.3354
  685MOL0     H92431   6.041   0.675   6.641  0.7685 -0.4351  0.9617
  685MOL0     H92432   5.921   0.721   6.768  2.1983  0.4225  1.4496
  685MOL0     H92433   6.070   0.866   6.872 -0.3450 -0.2243  0.9263
  685MOL0     H92434   6.195   0.859   6.757  1.2939  0.4287  1.3730
  685MOL0     H92435   6.327   0.493   6.979  0.5511 -1.2450  3.3281
  685MOL0     H92436   6.533   0.514   7.110  1.5029 -0.2420 -0.2405
  685MOL0     H92437   6.947   0.488   7.105  1.1478 -0.5801  0.6611
  685MOL0     H92438   7.178   0.495   7.192 -1.2233 -1.5000 -0.4148
  685MOL0     H92439   7.380   0.526   7.311  2.5166  1.1283 -1.7886
  685MOL0     H92440   7.372   0.704   7.291  3.1699  0.1508  0.5730
  685MOL0     H92441   7.463   0.754   7.490  1.1885  0.4733  0.0649
  685MOL0     H92442   7.492   0.583   7.529  2.8120 -0.1667 -0.6735
  685MOL0     H92443   7.624   0.549   7.335 -1.7619 -0.4145 -3.1200
  685MOL0     H92444   7.589   0.708   7.274 -1.6954 -3.5143 -0.3412
  685MOL0     H92445   7.741   0.664   7.542  0.0057 -0.4464  0.1100
  685MOL0     H92446   7.680   0.820   7.483 -1.8691  0.1435 -2.9055
  685MOL0     H92447   7.833   0.788   7.287  0.7187 -0.9821 -0.8907
  685MOL0     H92448   7.870   0.622   7.331  1.1830  0.4392 -1.3888
  685MOL0     H92449   7.942   0.856   7.495 -1.3041 -0.4489  0.4182
  685MOL0     H92450   7.977   0.697   7.545  0.7223  1.3484  0.7065
  685MOL0     H92451   8.068   0.821   7.283  0.9751  0.1987 -0.0683
  685MOL0     H92452   8.114   0.659   7.327 -0.1540 -1.1073  1.7713
  685MOL0     H92453   8.188   0.906   7.487 -3.2890 -1.4817  0.0158
  685MOL0     H92454   8.218   0.743   7.539 -1.5483  1.4403  3.0009
  685MOL0     H92455   7.028   0.725   7.527 -0.6814 -1.0002  0.0512
  685MOL0     H92456   6.815   0.762   7.406  1.2740 -0.4969  2.5082
  685MOL0     H92457   6.535   0.937   7.013 -2.4038  1.0457 -3.2632
  685MOL0     H92458   6.321   0.908   6.897 -2.3033 -0.8635  0.4242
  685MOL0     H92459   4.553   1.221   6.520  0.6532  1.3095 -0.8402
  685MOL0     H92460   4.312   1.213   6.449  1.2363  2.0900  0.9019
  685MOL0     H92461   3.999   1.133   6.184 -1.1270  1.2458 -0.1500
  685MOL0     H92462   3.752   1.105   6.137 -0.1678  0.1878  2.7627
  685MOL0     H92463   3.601   0.857   5.979  4.0705  1.3445  1.8473
  685MOL0     H92464   3.560   1.016   6.037  2.6937 -0.3710 -0.4146
  685MOL0     H92465   3.330   0.941   6.076 -0.4495  0.1388 -3.4672
  685MOL0     H92466   3.370   0.774   6.100  1.6744 -0.1842  0.9327
  685MOL0     H92467   3.417   0.740   5.861 -1.6039 -0.9060 -0.9215
  685MOL0     H92468   3.371   0.913   5.824  0.8285 -1.0701 -1.2973
  685MOL0     H92469   3.206   0.694   5.943  2.1634  0.4172 -0.6496
  685MOL0     H92470   3.143   0.865   5.913  0.1036  0.7984  2.1604
  685MOL0     H92471   3.141   0.639   5.541 -1.0567  0.0510  0.2673
  685MOL0     H92472   3.777   0.700   6.251 -1.1579  0.4027 -0.2314
  685MOL0     H92473   4.128   0.657   6.234 -0.7043 -2.1218 -0.4430
  685MOL0     H92474   4.089   0.688   6.404  0.0076 -2.7629  0.4919
  685MOL0     H92475   3.980   0.587   6.305  0.4331 -1.1743 -0.0784
  686MOL0     O92476   5.312   4.428   6.899 -0.3980 -0.4082  0.5094
  686MOL0     C92477   5.277   4.543   6.862 -0.0813 -0.1424 -0.4051
  686MOL0     O92478   5.362   4.639   6.812  0.0828  0.4602 -0.3404
  686MOL0     C92479   5.496   4.610   6.801  0.7472 -0.1661 -0.0023
  686MOL0     C92480   5.569   4.552   6.905  0.3054  0.1014 -0.4359
  686MOL0     C92481   5.705   4.520   6.889  0.4200 -0.1175  0.4331
  686MOL0     C92482   5.773   4.555   6.766  0.1351  0.2180  0.3858
  686MOL0     O92483   5.904   4.519   6.739  0.6252  0.3290  0.7643
  686MOL0     C92484   5.989   4.473   6.849  0.6553 -0.3741 -0.7540
  686MOL0     C92485   6.141   4.501   6.826 -0.4404 -0.2353 -0.3784
  686MOL0     C92486   6.199   4.423   6.707  0.1831  0.3008 -1.1510
  686MOL0     C92487   6.310   4.492   6.633 -1.0096 -0.4098 -0.7857
  686MOL0     C92488   6.440   4.491   6.709 -0.0100 -0.0608 -0.1229
  686MOL0     C92489   6.543   4.566   6.632 -0.5207 -0.6525 -0.3114
  686MOL0     C92490   6.680   4.567   6.712 -0.6766 -0.2144  0.3377
  686MOL0     C92491   6.768   4.650   6.630  0.1706 -0.9196 -0.3471
  686MOL0     N92492   6.897   4.647   6.689 -0.2139 -0.9746  0.0139
  686MOL0     C92493   7.008   4.561   6.668 -0.5968  0.2936 -0.6762
  686MOL0     C92494   7.101   4.603   6.754 -0.1108 -0.0639  0.5332
  686MOL0     C92495   7.227   4.524   6.771 -0.8127 -0.3930 -0.6375
  686MOL0     C92496   7.324   4.508   6.651 -0.0086  1.2668  0.0177
  686MOL0     C92497   7.418   4.395   6.695  0.5330  0.2098  0.5767
  686MOL0     C92498   7.529   4.375   6.598  0.5049 -0.3340 -0.3780
  686MOL0     O92499   7.624   4.285   6.655 -0.2854  0.5287 -0.5207
  686MOL0     C92500   7.746   4.275   6.594  0.2047 -0.0995  0.3747
  686MOL0     C92501   7.835   4.178   6.662 -0.8198 -0.2101  0.7581
  686MOL0     C92502   7.964   4.151   6.606  0.3029  0.4463  0.0649
  686MOL0     C92503   8.002   4.229   6.483 -0.3964  0.0879  0.7110
  686MOL0     C92504   8.143   4.219   6.435 -0.7956  0.3775  0.1015
  686MOL0     O92505   8.231   4.190   6.541  1.0931 -0.2428  0.1460
  686MOL0     C92506   8.361   4.179   6.526 -0.6580 -0.2445 -0.2608
  686MOL0     C92507   8.436   4.234   6.425 -0.3766  0.3943 -0.4187
  686MOL0     C92508   8.575   4.220   6.426  0.2583 -0.0975 -0.4605
  686MOL0     C92509   8.637   4.146   6.521  0.6581  0.4922  1.1363
  686MOL0     O92510   8.769   4.127   6.507 -0.4512 -0.2821  0.5263
  686MOL0     C92511   8.837   4.026   6.586 -0.7236  0.1067  0.0161
  686MOL0     C92512   8.966   3.971   6.524 -0.5655 -0.1063  0.1457
  686MOL0     C92513   9.042   3.865   6.614  0.0857  0.0438  0.3616
  686MOL0     C92514   8.954   3.762   6.696 -1.2260 -0.6039  0.3100
  686MOL0     C92515   9.027   3.647   6.761 -0.6781  0.4569 -0.6354
  686MOL0     C92516   9.095   3.548   6.662  0.4330 -0.0661  0.1072
  686MOL0     C92517   9.163   3.438   6.743  0.0984 -0.0034 -0.4201
  686MOL0     C92518   9.229   3.347   6.647  0.5063  0.7552 -0.1914
  686MOL0    Cl92519   9.305   3.212   6.750  0.1449  0.2751  0.2420
  686MOL0     C92520   8.559   4.094   6.623 -0.8243 -0.4122  0.2034
  686MOL0     C92521   8.424   4.108   6.627  0.0504 -0.6698 -0.5986
  686MOL0     O92522   8.174   4.234   6.318  0.2497 -0.0434 -0.0621
  686MOL0     C92523   7.913   4.320   6.427 -0.8406  0.1009  0.0780
  686MOL0     C92524   7.787   4.348   6.484 -0.5439 -0.6871  0.7467
  686MOL0     N92525   7.056   4.713   6.817 -0.8798  0.2793 -0.3563
  686MOL0     N92526   6.930   4.728   6.782  0.0176  0.8208 -0.4932
  686MOL0     C92527   5.697   4.611   6.664  0.3484 -0.2829  0.1239
  686MOL0     C92528   5.568   4.654   6.686 -0.1083 -0.9262  0.1516
  686MOL0     C92529   5.126   4.592   6.874  0.4209 -0.2637 -0.1227
  686MOL0     C92530   5.090   4.705   6.796  0.8253 -0.3532 -0.9520
  686MOL0     C92531   4.961   4.743   6.783  1.0645  0.0776 -0.3692
  686MOL0     C92532   4.860   4.693   6.861  0.2198  0.2024 -0.3221
  686MOL0     O92533   4.729   4.736   6.853 -0.5301 -0.5728 -0.1127
  686MOL0     C92534   4.695   4.877   6.837 -0.2195 -0.4300 -1.0431
  686MOL0     C92535   4.547   4.909   6.857  0.0362 -0.2026  0.1135
  686MOL0     C92536   4.461   4.804   6.800  0.1996  0.2859  0.0746
  686MOL0     C92537   4.310   4.838   6.814  0.4094  0.2128 -0.3731
  686MOL0     C92538   4.207   4.743   6.755 -0.5940  0.1483  0.2813
  686MOL0     C92539   4.122   4.663   6.715 -0.2397  0.4152  0.2915
  686MOL0     C92540   4.888   4.591   6.945 -0.3059 -0.6704 -0.2330
  686MOL0     C92541   5.018   4.531   6.946  0.2186 -0.1719 -0.1100
  686MOL0     C92542   5.038   4.407   7.026  1.0060  0.1650  0.6852
  686MOL0     H92543   5.514   4.524   6.994 -0.3933 -2.9457 -1.6948
  686MOL0     H92544   5.753   4.462   6.967  1.2848 -0.2955 -0.2074
  686MOL0     H92545   5.976   4.537   6.937 -0.8555  0.6774 -1.6958
  686MOL0     H92546   5.969   4.368   6.873 -1.7467  0.3680  0.9046
  686MOL0     H92547   6.202   4.485   6.915  2.4492  3.1387 -1.5336
  686MOL0     H92548   6.141   4.605   6.792 -0.8290  0.7178  2.3369
  686MOL0     H92549   6.116   4.414   6.636  1.1089 -2.9883 -1.9451
  686MOL0     H92550   6.240   4.331   6.749 -1.0458  0.5265  0.6663
  686MOL0     H92551   6.338   4.440   6.541 -0.3897  2.4677 -2.3376
  686MOL0     H92552   6.285   4.596   6.615  2.5069  0.3911 -1.9106
  686MOL0     H92553   6.422   4.529   6.810  2.3235 -0.4010  0.4713
  686MOL0     H92554   6.475   4.388   6.721  0.0203 -0.0596 -0.1983
  686MOL0     H92555   6.560   4.519   6.535 -1.7426 -0.6561 -0.5493
  686MOL0     H92556   6.509   4.670   6.620 -3.1200 -1.3191  0.6436
  686MOL0     H92557   6.721   4.468   6.733 -0.7267  0.0006  1.5050
  686MOL0     H92558   6.666   4.611   6.811  0.5335 -0.3302  0.5704
  686MOL0     H92559   6.766   4.615   6.526 -0.6565  1.0264 -1.0390
  686MOL0     H92560   6.729   4.752   6.628  1.8097 -0.2755 -0.9711
  686MOL0     H92561   7.007   4.472   6.606  0.5371  0.7764 -1.4121
  686MOL0     H92562   7.282   4.588   6.840  0.1680 -3.3708  1.5686
  686MOL0     H92563   7.199   4.430   6.820  1.8453 -0.7743  0.3029
  686MOL0     H92564   7.265   4.472   6.566 -0.6533  2.1674  0.0667
  686MOL0     H92565   7.381   4.601   6.640  1.6591  0.1581 -1.1440
  686MOL0     H92566   7.357   4.304   6.693  0.8173 -0.0085 -2.3000
  686MOL0     H92567   7.455   4.412   6.796  1.3580  1.7920  0.0452
  686MOL0     H92568   7.566   4.477   6.584  1.1895 -0.4481  0.4995
  686MOL0     H92569   7.498   4.324   6.506  0.0403 -0.3665 -0.2042
  686MOL0     H92570   7.800   4.122   6.748  0.4163 -1.3655  0.5379
  686MOL0     H92571   8.025   4.078   6.659  0.2956  0.8969  0.7123
  686MOL0     H92572   8.401   4.289   6.338  3.0316  1.4501 -1.2493
  686MOL0     H92573   8.628   4.251   6.336 -1.2495  0.9068 -1.0565
  686MOL0     H92574   8.874   4.070   6.679  0.7840  0.9407 -0.9337
  686MOL0     H92575   8.773   3.938   6.599 -1.7410  0.9163  0.6280
  686MOL0     H92576   8.943   3.924   6.428 -3.5539  2.1597 -0.3724
  686MOL0     H92577   9.030   4.057   6.505 -2.0989  0.5178 -2.7881
  686MOL0     H92578   9.108   3.813   6.543 -0.7165 -0.7527  0.1855
  686MOL0     H92579   9.106   3.922   6.682 -1.3289  2.1143  0.0384
  686MOL0     H92580   8.874   3.725   6.630  0.1090 -4.0921  0.4557
  686MOL0     H92581   8.906   3.821   6.775  2.2061  1.4069  1.1057
  686MOL0     H92582   8.966   3.583   6.824  0.7001 -1.3042 -1.0318
  686MOL0     H92583   9.099   3.696   6.826 -0.9475  0.4314 -0.3161
  686MOL0     H92584   9.018   3.507   6.596  1.7262 -1.6425 -0.4803
  686MOL0     H92585   9.167   3.599   6.598  1.6367 -0.8727  0.7731
  686MOL0     H92586   9.091   3.388   6.807  0.0648  1.0735  0.3925
  686MOL0     H92587   9.237   3.476   6.814 -2.1505  1.2241  1.3831
  686MOL0     H92588   9.158   3.297   6.581 -2.3769  0.5252  2.8409
  686MOL0     H92589   9.306   3.399   6.588 -0.0661 -0.7298 -2.3606
  686MOL0     H92590   8.597   4.030   6.702  0.8277  0.9867  0.5815
  686MOL0     H92591   8.367   4.061   6.706  0.4863 -1.1907 -0.5879
  686MOL0     H92592   7.942   4.374   6.337 -1.3469 -1.2014 -0.9073
  686MOL0     H92593   7.732   4.428   6.436 -1.5678 -0.5324  2.1155
  686MOL0     H92594   5.741   4.625   6.566  1.3379 -0.2543  0.5549
  686MOL0     H92595   5.524   4.709   6.603  1.2028 -0.8695 -0.5270
  686MOL0     H92596   5.171   4.749   6.740  0.4224  2.5431  0.5610
  686MOL0     H92597   4.940   4.820   6.710 -0.1439 -0.3050 -0.4474
  686MOL0     H92598   4.739   4.909   6.742  1.0045  1.6258  0.1411
  686MOL0     H92599   4.746   4.933   6.917 -3.0927  0.5089  0.2782
  686MOL0     H92600   4.521   5.005   6.810 -1.5417 -0.3998  0.5002
  686MOL0     H92601   4.526   4.929   6.963  1.1639  3.1697 -0.1589
  686MOL0     H92602   4.471   4.708   6.852  0.9739 -0.2803 -1.0872
  686MOL0     H92603   4.493   4.782   6.698  0.3370 -2.4952  0.6529
  686MOL0     H92604   4.279   4.848   6.918 -0.0369 -4.1742  0.0722
  686MOL0     H92605   4.295   4.936   6.766  0.2760  0.3066 -0.1392
  686MOL0     H92606   4.057   4.587   6.676 -0.0004  0.9761 -1.2509
  686MOL0     H92607   4.806   4.546   7.001 -2.3065 -1.2832 -3.4229
  686MOL0     H92608   4.954   4.337   7.018 -0.3749  1.5438  2.3094
  686MOL0     H92609   5.117   4.343   6.984 -0.7651 -0.8898 -1.2629
  686MOL0     H92610   5.058   4.435   7.130 -1.9885  0.3427  1.2971
  687MOL0     O92611   8.581   4.479   2.595  0.0579 -0.2478 -0.4945
  687MOL0     C92612   8.543   4.383   2.670 -0.7589 -0.8104 -0.2443
  687MOL0     O92613   8.604   4.264   2.682 -0.2143  0.7484 -0.1262
  687MOL0     C92614   8.718   4.237   2.609  0.5044  0.4071  0.2153
  687MOL0     C92615   8.730   4.251   2.465  0.2378 -0.5176  0.4733
  687MOL0     C92616   8.846   4.212   2.408  0.0484  0.0462 -0.2097
  687MOL0     C92617   8.954   4.164   2.479 -0.5734 -0.1707  0.7650
  687MOL0     O92618   9.070   4.151   2.398  0.2871 -0.2542 -0.3486
  687MOL0     C92619   9.182   4.083   2.448 -0.0737  0.5706  0.2340
  687MOL0     C92620   9.281   4.179   2.509  0.6333 -0.8522  0.0708
  687MOL0     C92621   9.405   4.117   2.563  0.4420  0.3936  0.8549
  687MOL0     C92622   9.489   4.223   2.638  0.5970 -0.3105 -0.1927
  687MOL0     C92623   9.618   4.157   2.676 -0.7322  0.1525  0.6318
  687MOL0     C92624   9.741   4.256   2.689 -0.2652 -0.3901 -0.1883
  687MOL0     C92625   9.879   4.185   2.680 -0.1414  0.5161 -0.4904
  687MOL0     C92626   9.989   4.291   2.698 -0.3036 -0.3148 -0.2641
  687MOL0     N92627  10.127   4.234   2.676  0.2115 -0.4950 -0.0061
  687MOL0     C92628  10.204   4.171   2.766 -0.3937  0.1834 -0.8320
  687MOL0     C92629  10.325   4.151   2.709 -0.0911 -0.0909 -0.4975
  687MOL0     C92630  10.438   4.078   2.775  0.3062  0.2523 -0.5731
  687MOL0     C92631  10.512   4.174   2.866  0.4450  0.2615 -0.9470
  687MOL0     C92632  10.663   4.142   2.863 -0.0148 -0.0609  1.1165
  687MOL0     C92633  10.746   4.215   2.970  0.4078 -0.3636  0.8122
  687MOL0     O92634  10.872   4.163   2.973 -0.0631  0.5661  0.3565
  687MOL0     C92635  10.958   4.191   3.072  0.2775  0.5024  0.0829
  687MOL0     C92636  10.946   4.301   3.157  0.1685  0.5957 -0.0938
  687MOL0     C92637  11.051   4.330   3.250  0.4777 -0.2535  0.1956
  687MOL0     C92638  11.169   4.259   3.251 -0.0710 -0.6759 -0.6239
  687MOL0     C92639  11.287   4.304   3.330  0.5043  0.4648  0.4285
  687MOL0     O92640  11.396   4.224   3.324  0.3012 -0.3100 -0.6055
  687MOL0     C92641  11.520   4.268   3.377  1.3084  1.0249  0.1796
  687MOL0     C92642  11.537   4.318   3.509  0.2533 -0.5399  0.1842
  687MOL0     C92643  11.659   4.380   3.540 -0.2578 -1.4585  0.3045
  687MOL0     C92644  11.764   4.381   3.450  0.9316 -0.3745 -0.1217
  687MOL0     O92645  11.880   4.452   3.467 -0.6611  0.1013  0.3413
  687MOL0     C92646  11.925   4.468   3.600  0.6188 -0.6537  0.3171
  687MOL0     C92647  12.068   4.498   3.623 -0.1128 -0.3682  0.0977
  687MOL0     C92648  12.133   4.569   3.505 -0.1599 -0.1983  0.7018
  687MOL0     C92649  12.285   4.616   3.542  0.2631  0.1683 -0.5943
  687MOL0     C92650  12.379   4.500   3.573  0.5566 -0.0657  0.7210
  687MOL0     C92651  12.523   4.539   3.591  0.5149 -0.7020 -0.3738
  687MOL0     C92652  12.619   4.418   3.579  0.2734  0.4511  0.0415
  687MOL0     C92653  12.761   4.475   3.550  1.2408  0.6589  0.6865
  687MOL0    Cl92654  12.877   4.346   3.539 -0.3022 -0.2502  0.1364
  687MOL0     C92655  11.742   4.321   3.325 -0.9676 -0.5588 -0.2417
  687MOL0     C92656  11.620   4.261   3.285 -0.7255 -0.1246 -0.0305
  687MOL0     O92657  11.279   4.412   3.386  0.1175 -0.0582 -0.1987
  687MOL0     C92658  11.180   4.154   3.173 -0.4051  0.7690 -0.3839
  687MOL0     C92659  11.073   4.115   3.085 -0.1948 -0.6771 -0.0824
  687MOL0     N92660  10.313   4.218   2.584  0.0094 -0.1595 -0.0318
  687MOL0     N92661  10.190   4.259   2.561  0.2386 -0.0966 -0.2129
  687MOL0     C92662   8.946   4.152   2.614  0.4492 -0.1173  0.1990
  687MOL0     C92663   8.828   4.181   2.680  0.1156 -0.7190  0.5062
  687MOL0     C92664   8.419   4.414   2.761 -0.6333  0.8726 -0.3288
  687MOL0     C92665   8.350   4.535   2.735  0.1358 -0.0214 -0.0373
  687MOL0     C92666   8.239   4.569   2.807 -0.8369 -0.4570  0.0556
  687MOL0     C92667   8.184   4.489   2.914  0.0144  0.8871  0.3473
  687MOL0     O92668   8.066   4.520   2.983 -0.5871 -0.6376 -0.1137
  687MOL0     C92669   8.025   4.661   2.983 -0.5159  0.2800  1.0185
  687MOL0     C92670   7.924   4.675   3.086  0.9402 -0.8693  0.3352
  687MOL0     C92671   7.817   4.566   3.090 -0.2517  0.2404  0.4663
  687MOL0     C92672   7.701   4.625   3.171  0.2786  0.1661  0.4924
  687MOL0     C92673   7.591   4.531   3.171 -0.4628  0.0294 -0.7490
  687MOL0     C92674   7.493   4.458   3.169  0.2898 -0.5449 -0.3788
  687MOL0     C92675   8.257   4.377   2.946 -0.1840  0.3514 -0.5972
  687MOL0     C92676   8.372   4.333   2.870 -0.1057  0.0145  0.0303
  687MOL0     C92677   8.431   4.202   2.906  0.2000  0.2913 -0.1900
  687MOL0     H92678   8.664   4.309   2.402  2.3819 -0.9704 -2.3777
  687MOL0     H92679   8.850   4.224   2.300  2.9130  1.4621 -0.0447
  687MOL0     H92680   9.147   4.005   2.517  3.0143 -1.9359 -0.7823
  687MOL0     H92681   9.224   4.032   2.361 -1.9119 -2.3811  0.9281
  687MOL0     H92682   9.232   4.238   2.587  0.6501  1.9599 -1.8950
  687MOL0     H92683   9.315   4.240   2.425 -0.6591 -0.9992 -0.5841
  687MOL0     H92684   9.460   4.086   2.474 -1.3576 -0.7966  0.1196
  687MOL0     H92685   9.390   4.028   2.625  1.5472  0.2015  0.8696
  687MOL0     H92686   9.502   4.309   2.572 -0.2697 -1.4901 -1.9533
  687MOL0     H92687   9.438   4.265   2.726  0.5709  1.1686 -0.8882
  687MOL0     H92688   9.594   4.108   2.770 -1.7591 -0.3416  0.1372
  687MOL0     H92689   9.645   4.080   2.603 -0.6640 -0.2332  1.0618
  687MOL0     H92690   9.741   4.331   2.610  1.0508  1.1186  1.1873
  687MOL0     H92691   9.736   4.313   2.782  0.7224  0.3162 -0.5472
  687MOL0     H92692   9.877   4.148   2.577  1.9157 -1.4494  0.0954
  687MOL0     H92693   9.887   4.109   2.758 -1.9873  0.7642 -0.0019
  687MOL0     H92694   9.976   4.365   2.619 -0.4158 -1.6884 -1.5903
  687MOL0     H92695   9.993   4.345   2.794  1.6629  0.3671 -0.6803
  687MOL0     H92696  10.181   4.144   2.869  0.6825 -0.7419 -0.8219
  687MOL0     H92697  10.400   3.995   2.835  0.9778  0.3428 -0.0096
  687MOL0     H92698  10.505   4.040   2.698  0.0958 -0.1362 -0.5659
  687MOL0     H92699  10.502   4.280   2.840 -0.2833  0.1534 -1.1402
  687MOL0     H92700  10.461   4.172   2.962  1.0032 -0.4575 -0.6509
  687MOL0     H92701  10.709   4.172   2.769 -2.1458  1.7597  0.5600
  687MOL0     H92702  10.683   4.036   2.877  1.5784  0.0631  0.0039
  687MOL0     H92703  10.697   4.209   3.068 -0.1529  0.6495  0.6085
  687MOL0     H92704  10.750   4.321   2.943  0.4042 -0.4881  0.3258
  687MOL0     H92705  10.867   4.375   3.147  0.8145  1.0096 -2.6804
  687MOL0     H92706  11.019   4.412   3.314 -1.8183 -1.6714  1.0149
  687MOL0     H92707  11.452   4.309   3.576  0.1548  3.3223  0.8139
  687MOL0     H92708  11.666   4.428   3.637 -0.8353 -0.1309 -0.2975
  687MOL0     H92709  11.870   4.554   3.640  1.6808  1.3234 -2.1596
  687MOL0     H92710  11.896   4.380   3.658 -2.9788 -2.0397 -3.1124
  687MOL0     H92711  12.079   4.553   3.717 -2.0895  0.6869 -0.2242
  687MOL0     H92712  12.115   4.402   3.644  1.6629  1.1529  4.1910
  687MOL0     H92713  12.135   4.501   3.419  1.9385  2.1945 -1.3102
  687MOL0     H92714  12.081   4.663   3.483 -1.2128 -0.9031  0.0871
  687MOL0     H92715  12.275   4.670   3.636  1.1029 -3.5422  1.8775
  687MOL0     H92716  12.322   4.684   3.465 -0.2277  0.0080 -0.9765
  687MOL0     H92717  12.386   4.441   3.481 -1.4631 -0.5848  0.8483
  687MOL0     H92718  12.338   4.440   3.655 -0.0161 -0.6866  0.0001
  687MOL0     H92719  12.544   4.617   3.517  0.4554  1.4062  1.6975
  687MOL0     H92720  12.531   4.573   3.694  0.8707 -1.3369 -0.1852
  687MOL0     H92721  12.586   4.353   3.497  1.2818 -0.6290  0.4656
  687MOL0     H92722  12.611   4.356   3.668  0.9529 -2.4616 -1.7810
  687MOL0     H92723  12.758   4.520   3.451  1.4799 -0.2539  0.2561
  687MOL0     H92724  12.795   4.549   3.623 -0.7118  0.6765  1.6496
  687MOL0     H92725  11.824   4.330   3.254  2.1085  1.2269  3.1859
  687MOL0     H92726  11.608   4.215   3.188  0.4709  0.0271 -0.2747
  687MOL0     H92727  11.264   4.086   3.178 -0.1062  1.1884  0.5069
  687MOL0     H92728  11.075   4.027   3.022 -0.6181  0.3543 -1.5933
  687MOL0     H92729   9.033   4.128   2.675  1.0930  5.5219  2.1088
  687MOL0     H92730   8.821   4.174   2.788  1.5579 -0.5126  0.6226
  687MOL0     H92731   8.373   4.601   2.653 -0.5764 -0.1520 -0.3453
  687MOL0     H92732   8.183   4.662   2.796  0.0405 -0.0356 -0.9854
  687MOL0     H92733   7.976   4.707   2.897  0.0336  2.5094  1.8337
  687MOL0     H92734   8.119   4.715   2.997  2.0696 -2.8475 -2.1685
  687MOL0     H92735   7.874   4.772   3.078  0.7150 -1.1416 -2.9916
  687MOL0     H92736   7.976   4.665   3.181  3.0200  0.4583 -0.6007
  687MOL0     H92737   7.861   4.478   3.137 -0.5002 -0.5858 -0.7854
  687MOL0     H92738   7.785   4.539   2.989  0.4594 -0.0539  0.3123
  687MOL0     H92739   7.744   4.638   3.271  0.9967  0.2472  0.1796
  687MOL0     H92740   7.667   4.722   3.132 -3.3355 -1.1252  0.1066
  687MOL0     H92741   7.410   4.390   3.168 -0.2662  0.0541  1.1037
  687MOL0     H92742   8.229   4.310   3.026  0.6690 -0.8304 -1.2548
  687MOL0     H92743   8.360   4.148   2.970  1.8330 -1.4841  0.1982
  687MOL0     H92744   8.470   4.139   2.826 -0.0081  0.5875 -0.5297
  687MOL0     H92745   8.524   4.217   2.962  0.9583  0.8979 -1.5566
  688MOL0     O92746   2.739  10.203   2.796  0.0303 -0.2346  0.1086
  688MOL0     C92747   2.679  10.308   2.764  0.4499 -0.8318  0.3704
  688MOL0     O92748   2.719  10.403   2.676 -0.4205  0.4403 -0.0101
  688MOL0     C92749   2.826  10.366   2.586  0.0366  0.8327  0.4056
  688MOL0     C92750   2.817  10.379   2.446 -0.8070  0.0548  0.8330
  688MOL0     C92751   2.927  10.342   2.367  0.0963  0.1978  1.0298
  688MOL0     C92752   3.047  10.310   2.421 -0.2311  0.3270 -0.6919
  688MOL0     O92753   3.144  10.275   2.337 -0.2404  0.8389  0.0992
  688MOL0     C92754   3.284  10.314   2.376  0.2505 -0.1673  0.0976
  688MOL0     C92755   3.387  10.263   2.271  0.1459  1.0590  0.0585
  688MOL0     C92756   3.527  10.252   2.340 -0.0764 -0.7172  0.2786
  688MOL0     C92757   3.576  10.371   2.411  0.5990 -0.6119  0.1717
  688MOL0     C92758   3.719  10.353   2.470  0.5508  0.2218 -0.0583
  688MOL0     C92759   3.775  10.460   2.554  0.7894 -0.9703  0.2414
  688MOL0     C92760   3.927  10.448   2.588  0.3148  0.1364  0.4604
  688MOL0     C92761   4.010  10.510   2.470 -0.5384  0.6408 -0.4675
  688MOL0     N92762   4.149  10.520   2.518 -0.6511 -0.1308  0.3126
  688MOL0     C92763   4.231  10.629   2.506 -0.2149  0.3113  0.1582
  688MOL0     C92764   4.353  10.586   2.535 -1.1780 -0.2141 -0.6008
  688MOL0     C92765   4.483  10.672   2.538  0.6656 -0.2170  0.0471
  688MOL0     C92766   4.574  10.643   2.415 -0.3205  0.3941 -0.0258
  688MOL0     C92767   4.575  10.508   2.347 -0.6269  0.8123 -0.0284
  688MOL0     C92768   4.652  10.398   2.425  0.0723  0.2354 -0.2587
  688MOL0     O92769   4.785  10.449   2.452 -0.0851  0.6076  0.3319
  688MOL0     C92770   4.869  10.376   2.549  0.1904  0.2506  0.2533
  688MOL0     C92771   4.979  10.454   2.599 -0.0113  0.4135  0.1955
  688MOL0     C92772   5.073  10.391   2.679  0.6263  0.0863  0.1015
  688MOL0     C92773   5.062  10.257   2.724 -0.2541  0.1600  0.0316
  688MOL0     C92774   5.172  10.198   2.806 -0.1811 -0.6594 -0.1535
  688MOL0     O92775   5.133  10.107   2.897  0.1786 -0.1366  0.0812
  688MOL0     C92776   5.227  10.060   2.987 -0.3149  1.2833 -0.2375
  688MOL0     C92777   5.212  10.099   3.118  0.1025  0.4095 -1.0582
  688MOL0     C92778   5.316  10.064   3.210 -0.3217  0.2397 -0.2150
  688MOL0     C92779   5.426   9.986   3.181  0.6794 -0.5323  0.7131
  688MOL0     O92780   5.511   9.954   3.279  0.3033 -0.3048  0.2981
  688MOL0     C92781   5.630   9.885   3.242  0.6390  0.5091  0.9017
  688MOL0     C92782   5.724   9.864   3.361 -0.6217 -0.1619 -0.2743
  688MOL0     C92783   5.859   9.814   3.314 -0.0925  0.5061 -0.1835
  688MOL0     C92784   5.955   9.819   3.435  0.4976  0.2455  0.4531
  688MOL0     C92785   6.096   9.755   3.397  0.8282  0.4717  0.2776
  688MOL0     C92786   6.173   9.695   3.521  0.8667  0.0561 -0.0083
  688MOL0     C92787   6.184   9.790   3.643  0.3654 -0.4429 -0.4646
  688MOL0     C92788   6.204   9.706   3.771 -0.5253  0.5863 -0.8129
  688MOL0    Cl92789   6.334   9.575   3.751 -0.3222 -0.2880  0.2033
  688MOL0     C92790   5.429   9.945   3.044 -0.9063  0.7193 -0.4370
  688MOL0     C92791   5.338   9.989   2.948 -0.8756 -0.4754  0.3643
  688MOL0     O92792   5.284  10.253   2.787  0.6646 -0.1730 -0.1563
  688MOL0     C92793   4.945  10.187   2.681  0.1817 -0.2303  0.3639
  688MOL0     C92794   4.855  10.245   2.591  0.9020 -0.0866  0.2252
  688MOL0     N92795   4.340  10.461   2.582 -0.4858 -0.0046  0.8143
  688MOL0     N92796   4.224  10.415   2.561  0.0492  0.2495 -0.5699
  688MOL0     C92797   3.059  10.319   2.561  0.5662 -1.0089  0.0698
  688MOL0     C92798   2.952  10.334   2.644  0.1900 -0.3000  0.6948
  688MOL0     C92799   2.557  10.337   2.833  0.0286 -0.0579  0.6432
  688MOL0     C92800   2.460  10.414   2.772  1.0846  0.1910 -0.4120
  688MOL0     C92801   2.331  10.436   2.824  0.0196  0.1922 -0.4443
  688MOL0     C92802   2.293  10.377   2.948  0.2108 -0.4639 -0.2873
  688MOL0     O92803   2.168  10.412   2.997 -0.1938 -0.2442 -0.2926
  688MOL0     C92804   2.131  10.358   3.126 -0.2212  0.1809  0.2865
  688MOL0     C92805   1.991  10.422   3.166  0.2719 -0.1004 -0.9815
  688MOL0     C92806   1.883  10.383   3.069 -0.2491 -0.4236 -0.0457
  688MOL0     C92807   1.748  10.440   3.120  0.0719  0.2757  0.7815
  688MOL0     C92808   1.637  10.370   3.061  0.4439 -0.8271  0.0444
  688MOL0     C92809   1.536  10.315   3.018  0.1742 -0.4427 -0.1520
  688MOL0     C92810   2.393  10.303   3.014 -0.4573  0.0829 -0.1654
  688MOL0     C92811   2.524  10.291   2.964  0.2751  0.2566  0.4774
  688MOL0     C92812   2.618  10.195   3.035  0.6053 -0.3265 -0.1141
  688MOL0     H92813   2.726  10.409   2.395 -1.6888 -3.7246 -0.1042
  688MOL0     H92814   2.910  10.352   2.261 -1.2215 -1.2218  1.0625
  688MOL0     H92815   3.302  10.421   2.382  4.2495 -0.6284 -0.6917
  688MOL0     H92816   3.299  10.275   2.477 -0.7560  0.0417  0.3427
  688MOL0     H92817   3.395  10.334   2.188  1.0942 -1.2788 -1.9531
  688MOL0     H92818   3.358  10.163   2.238  3.6719  0.4287 -1.5873
  688MOL0     H92819   3.593  10.221   2.258 -1.6153 -0.7560 -0.9863
  688MOL0     H92820   3.518  10.164   2.405 -0.8613  0.0939  1.2851
  688MOL0     H92821   3.560  10.454   2.342 -0.8031  0.5070  1.7344
  688MOL0     H92822   3.509  10.386   2.497  2.5861 -0.9151  1.8467
  688MOL0     H92823   3.710  10.265   2.535 -0.9505 -0.0548 -0.5989
  688MOL0     H92824   3.785  10.333   2.385 -0.1644  2.5381 -1.2464
  688MOL0     H92825   3.754  10.556   2.506  0.1023 -0.9702  0.5255
  688MOL0     H92826   3.715  10.471   2.645  0.5720 -2.4520  0.3048
  688MOL0     H92827   3.945  10.340   2.587  0.3980  0.1308  1.4061
  688MOL0     H92828   3.942  10.485   2.690 -0.1092 -2.3176  1.4959
  688MOL0     H92829   4.018  10.440   2.387  0.6890  2.8435 -2.3063
  688MOL0     H92830   3.968  10.607   2.441 -1.7592  0.1193 -0.5055
  688MOL0     H92831   4.205  10.723   2.457  3.4602  0.1534 -2.5714
  688MOL0     H92832   4.465  10.778   2.558 -0.8985 -1.1406  4.9251
  688MOL0     H92833   4.534  10.643   2.630  1.0811  2.5845  0.7877
  688MOL0     H92834   4.546  10.716   2.338 -0.3981  1.2016  0.7476
  688MOL0     H92835   4.675  10.673   2.446 -0.2398 -1.4847  1.7009
  688MOL0     H92836   4.630  10.513   2.252 -0.9698 -0.4486 -0.3101
  688MOL0     H92837   4.478  10.469   2.316 -0.3024 -2.0847  2.1770
  688MOL0     H92838   4.663  10.303   2.373  4.4032  0.5081 -0.2207
  688MOL0     H92839   4.597  10.367   2.514 -0.4191  0.7101 -0.3928
  688MOL0     H92840   4.991  10.557   2.569 -0.7419  0.5218  0.2573
  688MOL0     H92841   5.160  10.454   2.696 -0.0385  1.2271 -0.6272
  688MOL0     H92842   5.122  10.155   3.140 -0.3371 -0.1250 -1.4752
  688MOL0     H92843   5.311  10.094   3.314  0.7028  0.7015 -0.2897
  688MOL0     H92844   5.607   9.784   3.205  0.4684  0.2094  1.8205
  688MOL0     H92845   5.677   9.946   3.164 -1.8985  4.1737  1.9825
  688MOL0     H92846   5.740   9.958   3.414 -3.2333 -0.3534  1.0171
  688MOL0     H92847   5.681   9.791   3.429  1.8128 -0.1637  1.3671
  688MOL0     H92848   5.853   9.708   3.288  2.2881 -0.5409  2.8789
  688MOL0     H92849   5.894   9.866   3.224  0.3894  0.7012  0.1151
  688MOL0     H92850   5.900   9.763   3.511  1.3796 -0.1055  0.8441
  688MOL0     H92851   5.964   9.923   3.469  0.4374  0.9115 -1.4682
  688MOL0     H92852   6.137   9.840   3.343  2.4313 -0.9247 -0.7867
  688MOL0     H92853   6.085   9.671   3.328 -1.5385  0.4831  0.5568
  688MOL0     H92854   6.127   9.602   3.556  0.6336  0.8846  1.9855
  688MOL0     H92855   6.271   9.663   3.485  0.8433  2.3015 -2.3247
  688MOL0     H92856   6.096   9.852   3.660 -1.0945 -2.4936 -0.0993
  688MOL0     H92857   6.272   9.853   3.626  1.1179 -1.7721 -1.7747
  688MOL0     H92858   6.223   9.763   3.863  0.2280  2.8655 -2.2725
  688MOL0     H92859   6.110   9.660   3.802 -0.9090  2.0614  0.3486
  688MOL0     H92860   5.507   9.876   3.012 -1.7044  1.0602 -3.4224
  688MOL0     H92861   5.349   9.964   2.843 -1.2104  1.0831 -0.0703
  688MOL0     H92862   4.931  10.084   2.712  2.7685 -1.3865 -1.9172
  688MOL0     H92863   4.772  10.192   2.544 -1.5033  3.9368 -0.5799
  688MOL0     H92864   3.152  10.298   2.612  0.8667 -1.3295 -0.6006
  688MOL0     H92865   2.962  10.338   2.752 -2.8270 -0.3295  1.0525
  688MOL0     H92866   2.476  10.456   2.673 -1.9404  2.5896 -0.0188
  688MOL0     H92867   2.248  10.494   2.784 -0.4050 -0.2499 -0.2088
  688MOL0     H92868   2.200  10.384   3.207  1.2041  0.9365 -1.1223
  688MOL0     H92869   2.131  10.249   3.116 -1.0616  0.2892 -1.1731
  688MOL0     H92870   2.002  10.529   3.186 -0.0237  0.2929 -2.7805
  688MOL0     H92871   1.979  10.376   3.265  2.9097  0.6304 -0.2336
  688MOL0     H92872   1.873  10.274   3.077  0.2383 -0.5871 -1.4802
  688MOL0     H92873   1.916  10.423   2.973  1.0616  4.1016  2.0110
  688MOL0     H92874   1.738  10.434   3.229  1.5121 -1.1082  0.8691
  688MOL0     H92875   1.738  10.544   3.085  1.5013  0.2552  0.2367
  688MOL0     H92876   1.447  10.274   2.974  1.4853 -1.2440 -2.2208
  688MOL0     H92877   2.373  10.273   3.117 -0.2420 -0.5596 -0.3088
  688MOL0     H92878   2.718  10.232   3.061  0.7402  0.4217 -1.6102
  688MOL0     H92879   2.559  10.161   3.121 -1.8705 -0.3843 -1.7252
  688MOL0     H92880   2.640  10.105   2.977  0.9074 -1.0243  1.0325
  689MOL0     O92881   8.670   9.493   5.866  0.8506 -0.4024  0.4083
  689MOL0     C92882   8.593   9.399   5.870 -0.0908  0.0181  0.1046
  689MOL0     O92883   8.629   9.277   5.843  0.3725  0.2948 -0.2364
  689MOL0     C92884   8.764   9.241   5.834 -0.2422  0.5979  0.5425
  689MOL0     C92885   8.879   9.305   5.894  0.4902 -0.2681 -0.4422
  689MOL0     C92886   9.006   9.270   5.864  0.1579  0.4808  0.4681
  689MOL0     C92887   9.029   9.161   5.784 -0.6488  0.1437 -1.0812
  689MOL0     O92888   9.152   9.110   5.739 -0.5841 -0.2024 -0.5190
  689MOL0     C92889   9.275   9.197   5.742  0.7784 -0.0773  0.7894
  689MOL0     C92890   9.395   9.104   5.754  0.2458  0.8449 -0.1967
  689MOL0     C92891   9.525   9.181   5.771  0.4451 -0.3075  0.6297
  689MOL0     C92892   9.632   9.100   5.840 -0.5494 -0.0443 -0.1092
  689MOL0     C92893   9.772   9.171   5.806  0.4852  0.1430 -0.2177
  689MOL0     C92894   9.892   9.082   5.851  0.1554  0.7383  0.1290
  689MOL0     C92895  10.032   9.150   5.837 -0.1337 -0.0957  0.4464
  689MOL0     C92896  10.071   9.188   5.697  0.8079  0.2159  0.6673
  689MOL0     N92897  10.223   9.179   5.692  0.2931  0.0449 -0.2114
  689MOL0     C92898  10.311   9.237   5.783 -0.8167  0.3132 -0.8498
  689MOL0     C92899  10.434   9.179   5.743  0.4876  0.1772  0.3367
  689MOL0     C92900  10.567   9.200   5.803  0.4416 -0.2821  0.4604
  689MOL0     C92901  10.642   9.307   5.727 -0.2522  0.8209  0.1967
  689MOL0     C92902  10.674   9.264   5.588 -0.4835  0.8360 -0.1623
  689MOL0     C92903  10.748   9.130   5.570 -0.1271 -0.4105  0.2052
  689MOL0     O92904  10.779   9.113   5.430 -0.0706  0.5232  0.6200
  689MOL0     C92905  10.890   9.174   5.363  0.7020  0.3105 -0.6301
  689MOL0     C92906  10.879   9.167   5.225  0.0465  0.1213  0.0337
  689MOL0     C92907  10.977   9.232   5.143  0.0323  0.0248  0.3387
  689MOL0     C92908  11.092   9.287   5.198 -0.0589  0.0193 -0.7493
  689MOL0     C92909  11.200   9.346   5.118  0.0951  0.1969  0.5670
  689MOL0     O92910  11.175   9.358   4.983 -0.0192 -0.8409 -0.5015
  689MOL0     C92911  11.258   9.424   4.894  0.0927  0.5187 -0.3287
  689MOL0     C92912  11.236   9.389   4.761  0.3349  0.4812  0.1810
  689MOL0     C92913  11.309   9.447   4.659 -0.0742  0.6943  0.8665
  689MOL0     C92914  11.403   9.546   4.682 -0.2389 -0.0218  0.0985
  689MOL0     O92915  11.486   9.602   4.597  0.7253 -0.0012  0.2504
  689MOL0     C92916  11.434   9.628   4.458  0.2934 -0.3815  0.0836
  689MOL0     C92917  11.515   9.551   4.347 -0.5855  0.0159 -0.9782
  689MOL0     C92918  11.671   9.593   4.344 -0.2480 -0.6092 -0.1640
  689MOL0     C92919  11.752   9.550   4.221 -1.2169  0.0737  0.7549
  689MOL0     C92920  11.904   9.561   4.247 -0.1906 -0.7672 -0.2651
  689MOL0     C92921  11.951   9.487   4.372  0.7693  0.1083  0.0411
  689MOL0     C92922  12.101   9.459   4.380 -1.1685 -0.1579 -0.0101
  689MOL0     C92923  12.137   9.365   4.499  0.5069  0.5523  0.0428
  689MOL0    Cl92924  12.319   9.349   4.504 -0.4432  0.0005 -0.0370
  689MOL0     C92925  11.425   9.584   4.823  0.5954  0.1453 -0.0593
  689MOL0     C92926  11.350   9.523   4.929  0.1893 -0.4366  0.1881
  689MOL0     O92927  11.306   9.364   5.170 -0.1719  1.1118  0.0445
  689MOL0     C92928  11.103   9.275   5.341 -0.4945  0.0883  0.4381
  689MOL0     C92929  11.000   9.225   5.416  0.6390  0.2346 -0.1232
  689MOL0     N92930  10.407   9.080   5.649 -0.4220  0.4525  0.8754
  689MOL0     N92931  10.285   9.080   5.619  0.4777 -0.3068 -0.3238
  689MOL0     C92932   8.922   9.091   5.725  0.6062 -0.1835 -0.2368
  689MOL0     C92933   8.790   9.133   5.748 -0.2952 -0.8833 -0.5228
  689MOL0     C92934   8.446   9.425   5.884 -0.5167  0.5090 -0.8697
  689MOL0     C92935   8.368   9.336   5.810  0.3056 -0.1454  0.9423
  689MOL0     C92936   8.231   9.350   5.816  0.1459 -0.0561 -0.0979
  689MOL0     C92937   8.172   9.441   5.896 -0.8361 -0.0838  0.3478
  689MOL0     O92938   8.029   9.434   5.913  0.3534  0.0979 -0.3517
  689MOL0     C92939   7.952   9.395   5.802  0.3045 -0.0450  0.8478
  689MOL0     C92940   7.807   9.454   5.801  0.2625  0.4364 -0.7922
  689MOL0     C92941   7.719   9.392   5.921  0.4364  0.4064  0.6108
  689MOL0     C92942   7.602   9.482   5.950  0.5105 -0.1678  0.1007
  689MOL0     C92943   7.483   9.401   5.990  0.1427 -0.0038  0.2879
  689MOL0     C92944   7.396   9.339   6.033  0.6024 -0.8653  0.3746
  689MOL0     C92945   8.249   9.521   5.984 -0.4203 -0.1693  0.1834
  689MOL0     C92946   8.391   9.517   5.973 -0.1668  0.2426 -0.2030
  689MOL0     C92947   8.479   9.592   6.072  0.4185 -0.4207 -0.2739
  689MOL0     H92948   8.862   9.383   5.967  0.8605  0.8858 -1.5596
  689MOL0     H92949   9.078   9.333   5.916  0.2931  0.7102  0.0036
  689MOL0     H92950   9.274   9.253   5.648 -1.2724  1.8929  1.8972
  689MOL0     H92951   9.266   9.273   5.819 -1.6956  0.1504  0.3691
  689MOL0     H92952   9.391   9.025   5.678 -2.0218  1.5494 -0.8885
  689MOL0     H92953   9.382   9.058   5.852 -0.0464  1.8771  0.2596
  689MOL0     H92954   9.505   9.269   5.833  1.2029  0.4033 -0.1194
  689MOL0     H92955   9.559   9.226   5.678 -1.4574 -1.3473 -0.6518
  689MOL0     H92956   9.605   9.112   5.946 -1.2456  5.3271 -0.5963
  689MOL0     H92957   9.632   8.995   5.812  2.3033  0.5976 -3.0599
  689MOL0     H92958   9.776   9.200   5.700 -3.2707 -2.7091 -1.3579
  689MOL0     H92959   9.769   9.253   5.879  0.0255 -2.4447  2.8872
  689MOL0     H92960   9.874   9.061   5.957  0.3210  0.8596  0.1814
  689MOL0     H92961   9.879   8.986   5.800 -1.5175  1.9478 -1.9190
  689MOL0     H92962  10.099   9.070   5.871  0.6552  0.0996 -0.5994
  689MOL0     H92963  10.038   9.237   5.902 -0.8486 -0.0503  0.4638
  689MOL0     H92964  10.016   9.133   5.619 -0.1404  1.3412  0.5174
  689MOL0     H92965  10.035   9.289   5.675  1.5312  0.1660 -0.8934
  689MOL0     H92966  10.295   9.320   5.851 -1.3985 -0.4886  0.0212
  689MOL0     H92967  10.544   9.231   5.905  0.9205 -0.8168  0.7443
  689MOL0     H92968  10.623   9.106   5.806 -1.0960 -1.4095 -2.2275
  689MOL0     H92969  10.576   9.394   5.725 -1.5250 -0.1275 -0.9529
  689MOL0     H92970  10.735   9.332   5.778 -0.7223 -2.3621  2.9935
  689MOL0     H92971  10.736   9.340   5.540 -1.0154  1.2135 -0.2664
  689MOL0     H92972  10.584   9.260   5.526  0.9349 -0.7823 -2.2527
  689MOL0     H92973  10.685   9.050   5.611 -1.3179  0.1822 -0.4343
  689MOL0     H92974  10.841   9.130   5.627 -0.7515 -3.4686  1.4286
  689MOL0     H92975  10.785   9.140   5.179 -0.8116  0.0719  1.7239
  689MOL0     H92976  10.971   9.243   5.035  1.7183  4.9412  0.5273
  689MOL0     H92977  11.160   9.315   4.738 -1.1828  1.6577  1.2367
  689MOL0     H92978  11.279   9.416   4.559 -0.9865 -1.3079  1.7233
  689MOL0     H92979  11.332   9.594   4.439  0.3025  0.6556 -2.0885
  689MOL0     H92980  11.438   9.737   4.450  0.8389 -0.4621 -0.9556
  689MOL0     H92981  11.495   9.444   4.356 -0.3566  0.0551  0.1325
  689MOL0     H92982  11.463   9.589   4.259 -3.5672 -1.8092 -0.1385
  689MOL0     H92983  11.673   9.702   4.347  1.6751 -0.6312  1.7270
  689MOL0     H92984  11.709   9.541   4.432  1.5812  0.1707 -0.4307
  689MOL0     H92985  11.745   9.614   4.132  0.4695  1.3085  1.4594
  689MOL0     H92986  11.730   9.445   4.199 -0.6241 -0.5572  2.9538
  689MOL0     H92987  11.929   9.667   4.262 -0.0466 -0.5290 -2.0597
  689MOL0     H92988  11.968   9.541   4.161  2.8867  2.9252  0.8714
  689MOL0     H92989  11.918   9.535   4.464  0.9385 -0.6672  0.5114
  689MOL0     H92990  11.903   9.389   4.361 -0.5707  0.5962  1.2162
  689MOL0     H92991  12.153   9.555   4.378  0.1307 -0.8478 -0.7677
  689MOL0     H92992  12.143   9.417   4.288  1.7094  2.0677  0.1277
  689MOL0     H92993  12.089   9.396   4.592 -3.1735 -0.3905 -1.3213
  689MOL0     H92994  12.093   9.267   4.473  1.2668 -0.8280  3.4882
  689MOL0     H92995  11.499   9.659   4.848  1.0915  0.3236 -1.8896
  689MOL0     H92996  11.352   9.559   5.031  0.8001  2.3252 -0.7147
  689MOL0     H92997  11.198   9.307   5.384  0.0509 -1.8091  0.7254
  689MOL0     H92998  11.009   9.204   5.522  2.4976 -0.8971 -0.4660
  689MOL0     H92999   8.933   9.005   5.659 -0.8724 -0.1242 -0.6076
  689MOL0     H93000   8.704   9.086   5.702 -0.7459  0.0056 -0.6079
  689MOL0     H93001   8.406   9.259   5.742  0.2697  0.8110 -0.1984
  689MOL0     H93002   8.174   9.292   5.744 -1.3872  0.0629  0.9868
  689MOL0     H93003   7.952   9.285   5.798 -0.4300 -0.0705  1.2940
  689MOL0     H93004   7.994   9.432   5.709 -0.7907 -0.1422  0.2933
  689MOL0     H93005   7.761   9.435   5.703 -0.8782 -2.7000  0.2166
  689MOL0     H93006   7.809   9.562   5.817 -0.0793  0.5102 -1.2271
  689MOL0     H93007   7.777   9.392   6.014  0.9026 -2.3633  0.4015
  689MOL0     H93008   7.693   9.292   5.887 -1.7203  1.2429 -0.4021
  689MOL0     H93009   7.635   9.552   6.027  0.0707 -0.8583  0.9302
  689MOL0     H93010   7.565   9.520   5.854  1.2903 -1.6980 -0.8344
  689MOL0     H93011   7.329   9.272   6.084 -1.4790  0.0780 -0.9996
  689MOL0     H93012   8.197   9.591   6.049 -2.2632  0.1744 -1.5652
  689MOL0     H93013   8.411   9.648   6.137  0.1199  1.2057 -1.9049
  689MOL0     H93014   8.538   9.523   6.133  4.4885  0.5570 -2.6929
  689MOL0     H93015   8.549   9.660   6.022  1.2354 -1.0040  0.0424
  690MOL0     O93016   3.766   8.006   4.634 -0.1422 -0.0296 -0.4625
  690MOL0     C93017   3.725   7.893   4.659  0.4012 -0.2505 -0.2776
  690MOL0     O93018   3.799   7.781   4.692 -0.2931  0.8106 -0.2217
  690MOL0     C93019   3.928   7.799   4.724  0.8165 -0.7378  0.2843
  690MOL0     C93020   4.019   7.718   4.661  0.1927 -0.6685 -0.1911
  690MOL0     C93021   4.150   7.720   4.706  0.2269  0.0017  0.2848
  690MOL0     C93022   4.199   7.802   4.805 -0.4746  0.4530 -0.5009
  690MOL0     O93023   4.332   7.814   4.834  0.0982 -0.6608 -0.2644
  690MOL0     C93024   4.434   7.742   4.766 -0.3169  1.1944 -0.1810
  690MOL0     C93025   4.432   7.591   4.805  0.3152  0.1550 -0.6050
  690MOL0     C93026   4.533   7.564   4.917  0.5424  0.8379 -0.5417
  690MOL0     C93027   4.540   7.407   4.927 -0.4072 -0.1695 -0.0564
  690MOL0     C93028   4.591   7.345   5.055 -0.2559  1.2706  0.0582
  690MOL0     C93029   4.646   7.206   5.017  0.4028 -0.4359  0.1927
  690MOL0     C93030   4.690   7.124   5.132  0.0354  0.2607 -0.8039
  690MOL0     C93031   4.827   7.047   5.099  0.1105 -0.4958  0.1235
  690MOL0     N93032   4.873   6.998   5.231  0.3499  0.3128  0.2830
  690MOL0     C93033   4.941   7.069   5.322 -0.3312 -0.1531 -0.5482
  690MOL0     C93034   4.938   6.993   5.435  0.5873 -0.0789  0.3330
  690MOL0     C93035   5.008   7.037   5.553 -0.4394 -0.3418 -0.9166
  690MOL0     C93036   5.151   7.070   5.525  1.3773 -1.0082  0.2309
  690MOL0     C93037   5.240   7.038   5.640 -0.8108  0.2541 -0.1446
  690MOL0     C93038   5.382   7.101   5.616  0.2927 -0.0120 -1.0129
  690MOL0     O93039   5.446   7.038   5.506  0.8354  0.9340 -0.1367
  690MOL0     C93040   5.580   7.067   5.501 -0.5180 -0.3827 -0.2022
  690MOL0     C93041   5.631   7.196   5.463 -0.5239 -0.0876 -0.1859
  690MOL0     C93042   5.773   7.214   5.456  1.0920  0.4511 -0.5082
  690MOL0     C93043   5.857   7.118   5.509 -0.6051  0.8846 -0.9966
  690MOL0     C93044   6.002   7.137   5.514 -0.0017  0.2533  0.0901
  690MOL0     O93045   6.069   7.052   5.594 -0.5592 -0.4982 -0.8623
  690MOL0     C93046   6.206   7.060   5.613  0.6647 -1.1622 -0.1641
  690MOL0     C93047   6.294   7.168   5.586 -1.0333  0.0699 -0.2777
  690MOL0     C93048   6.430   7.148   5.612 -0.7403  0.4545  0.4707
  690MOL0     C93049   6.482   7.031   5.669 -0.0306  0.0059  0.0785
  690MOL0     O93050   6.617   7.002   5.684  0.3811  0.5450 -0.3987
  690MOL0     C93051   6.694   7.008   5.568  0.6531 -0.8578  0.6055
  690MOL0     C93052   6.824   6.936   5.606  1.1040 -1.2983  0.0262
  690MOL0     C93053   6.911   6.911   5.488  0.6829 -0.3213  0.7857
  690MOL0     C93054   6.960   7.043   5.415  0.2405 -0.0465 -0.5670
  690MOL0     C93055   7.059   7.015   5.303 -0.2798  0.5476  0.5163
  690MOL0     C93056   7.134   7.142   5.262  0.3358  0.1837 -0.1070
  690MOL0     C93057   7.232   7.109   5.151  0.0132 -0.5635  0.4761
  690MOL0     C93058   7.357   7.031   5.181 -0.3967  0.2534 -0.3939
  690MOL0    Cl93059   7.458   7.146   5.273  0.0650  0.2294  0.3991
  690MOL0     C93060   6.386   6.929   5.704  0.6137 -0.3830  0.2237
  690MOL0     C93061   6.252   6.937   5.664 -0.7536  0.5322  0.2068
  690MOL0     O93062   6.047   7.234   5.443 -0.6060 -0.1569  0.4534
  690MOL0     C93063   5.809   6.997   5.559 -0.6898  0.1427  0.7111
  690MOL0     C93064   5.673   6.970   5.551  1.4310 -0.8131  0.3802
  690MOL0     N93065   4.859   6.878   5.408 -0.6025 -0.2603 -0.7325
  690MOL0     N93066   4.821   6.886   5.284 -0.5187  1.1260  0.2405
  690MOL0     C93067   4.104   7.880   4.865 -0.3141 -0.5571 -0.6299
  690MOL0     C93068   3.971   7.889   4.819 -0.6700 -0.1092 -0.0728
  690MOL0     C93069   3.589   7.866   4.630  0.1585  0.3669  0.6789
  690MOL0     C93070   3.531   7.915   4.510 -0.3662 -0.1622 -0.7292
  690MOL0     C93071   3.397   7.902   4.481 -0.8365 -0.9846 -0.3913
  690MOL0     C93072   3.314   7.849   4.576  0.8311  0.2438 -0.0405
  690MOL0     O93073   3.173   7.850   4.567  0.1423 -0.3952 -0.9161
  690MOL0     C93074   3.110   7.858   4.436 -0.1242  0.0330 -0.0175
  690MOL0     C93075   3.064   7.996   4.392  0.5059  0.0628  0.1232
  690MOL0     C93076   2.944   8.045   4.471 -0.0048 -0.0757 -0.4213
  690MOL0     C93077   2.812   7.984   4.420  0.1152  0.4209 -0.2868
  690MOL0     C93078   2.704   8.066   4.471 -0.5792 -0.3744  0.0034
  690MOL0     C93079   2.614   8.135   4.517 -0.3370 -0.0576 -0.7137
  690MOL0     C93080   3.365   7.790   4.694  0.5358  0.3223 -0.8127
  690MOL0     C93081   3.503   7.799   4.724  0.7152  0.5169 -0.0112
  690MOL0     C93082   3.542   7.740   4.852 -0.7013  0.1162  0.1051
  690MOL0     H93083   3.983   7.655   4.580  2.4152 -0.1388 -1.6685
  690MOL0     H93084   4.208   7.646   4.651 -1.0736 -0.1449 -0.9423
  690MOL0     H93085   4.427   7.761   4.658 -0.3487  1.4267 -0.1381
  690MOL0     H93086   4.532   7.785   4.785 -0.3460  1.5723 -0.8434
  690MOL0     H93087   4.458   7.535   4.714  0.4213 -0.1771 -0.3743
  690MOL0     H93088   4.330   7.564   4.834  0.3170 -1.4344 -1.9243
  690MOL0     H93089   4.497   7.604   5.013  1.2540  1.7612 -0.6413
  690MOL0     H93090   4.632   7.604   4.895  1.6929 -2.0540 -1.1285
  690MOL0     H93091   4.445   7.365   4.893 -0.0268 -0.5387 -0.6713
  690MOL0     H93092   4.619   7.381   4.856  1.4956  1.3895  1.3679
  690MOL0     H93093   4.676   7.403   5.094  0.2642  0.8557 -0.4346
  690MOL0     H93094   4.518   7.331   5.135  0.2053  1.8697  0.6007
  690MOL0     H93095   4.564   7.154   4.966 -1.0072  2.3280 -0.6019
  690MOL0     H93096   4.726   7.219   4.944 -2.3272  0.0286 -2.9368
  690MOL0     H93097   4.617   7.042   5.136  0.2482 -0.0196 -2.3007
  690MOL0     H93098   4.707   7.177   5.226  1.5566 -0.0370 -0.8834
  690MOL0     H93099   4.809   6.964   5.030  0.3353  0.3270 -0.9628
  690MOL0     H93100   4.903   7.109   5.051  0.5258 -0.7950  0.3925
  690MOL0     H93101   4.998   7.160   5.311  1.0118 -0.8986  0.0033
  690MOL0     H93102   4.961   7.121   5.604  0.5127 -0.0626 -0.4914
  690MOL0     H93103   5.002   6.952   5.622 -1.9804 -0.0596 -0.6644
  690MOL0     H93104   5.180   7.013   5.436 -0.2009 -0.3646 -0.7365
  690MOL0     H93105   5.160   7.176   5.498  0.7062 -1.5997 -2.6724
  690MOL0     H93106   5.236   6.932   5.668  2.3756 -0.1071 -0.7267
  690MOL0     H93107   5.192   7.081   5.729  0.5185  2.5253 -0.4471
  690MOL0     H93108   5.446   7.086   5.703 -1.3710 -1.4757  0.0353
  690MOL0     H93109   5.385   7.205   5.580  0.1605  0.1206 -0.6422
  690MOL0     H93110   5.574   7.283   5.433  0.7529  1.0798  0.6264
  690MOL0     H93111   5.818   7.304   5.415  2.1065  0.6270  0.9382
  690MOL0     H93112   6.265   7.265   5.547  0.8773  1.1962  0.9946
  690MOL0     H93113   6.499   7.229   5.589  1.4551 -0.7350  2.3794
  690MOL0     H93114   6.656   6.946   5.486  2.3409 -2.5149  1.0059
  690MOL0     H93115   6.723   7.106   5.529  0.7342 -2.1849 -3.0857
  690MOL0     H93116   6.882   6.989   5.682  0.9958 -1.8342  0.4947
  690MOL0     H93117   6.791   6.844   5.655 -2.9343  0.0079  0.1750
  690MOL0     H93118   7.009   6.870   5.515  1.1108 -1.8496 -2.4961
  690MOL0     H93119   6.866   6.851   5.408  0.3881  1.6270 -0.5821
  690MOL0     H93120   6.996   7.114   5.489  0.4807 -0.2835 -0.4560
  690MOL0     H93121   6.883   7.102   5.364 -0.6618 -1.0328 -0.3976
  690MOL0     H93122   7.013   6.968   5.215 -0.4343 -0.0167  0.8980
  690MOL0     H93123   7.135   6.941   5.329  1.4349  0.1322 -4.4701
  690MOL0     H93124   7.064   7.217   5.225 -1.3305 -1.6239 -0.7765
  690MOL0     H93125   7.189   7.181   5.349 -1.3580 -0.0646  1.1242
  690MOL0     H93126   7.263   7.203   5.105  0.1341 -0.9081 -0.1501
  690MOL0     H93127   7.185   7.045   5.075  2.2670 -1.3193 -0.3522
  690MOL0     H93128   7.337   6.943   5.244  0.0788 -0.0846 -0.7042
  690MOL0     H93129   7.398   6.988   5.089  1.0898 -0.5288  0.5767
  690MOL0     H93130   6.421   6.835   5.747  0.0287 -1.5974 -1.7780
  690MOL0     H93131   6.197   6.846   5.681  1.5435 -1.4355 -1.9947
  690MOL0     H93132   5.878   6.921   5.593 -0.5585  0.0089  0.1578
  690MOL0     H93133   5.632   6.872   5.571  2.1577 -0.7463  2.4303
  690MOL0     H93134   4.130   7.950   4.944 -1.2147  0.7359 -1.4299
  690MOL0     H93135   3.904   7.954   4.874  1.2124  0.5408  1.5884
  690MOL0     H93136   3.598   7.962   4.440 -0.3379 -2.2882 -2.2234
  690MOL0     H93137   3.356   7.944   4.390 -0.5296  2.4148  0.8799
  690MOL0     H93138   3.023   7.790   4.438 -0.3407  0.3236  1.2175
  690MOL0     H93139   3.172   7.817   4.356 -1.8741 -3.7497  0.3344
  690MOL0     H93140   3.037   7.989   4.286 -0.1937 -5.0441  0.3995
  690MOL0     H93141   3.145   8.069   4.403  0.4095  0.2753 -0.5506
  690MOL0     H93142   2.940   8.154   4.456  1.8573 -0.1034 -1.3529
  690MOL0     H93143   2.950   8.028   4.579 -0.6511  1.3127 -0.1382
  690MOL0     H93144   2.805   7.967   4.312  1.5471 -0.3766 -0.2816
  690MOL0     H93145   2.807   7.885   4.468  3.0922  0.7180  0.8668
  690MOL0     H93146   2.529   8.183   4.560 -0.5817 -3.0630  2.5732
  690MOL0     H93147   3.292   7.738   4.755 -0.5883  0.2153 -2.1723
  690MOL0     H93148   3.461   7.671   4.877 -1.1945  0.6770  0.0753
  690MOL0     H93149   3.639   7.688   4.852  0.7081  2.4695  2.5531
  690MOL0     H93150   3.554   7.817   4.929  3.5595 -0.5487  0.3735
  691MOL0     O93151   8.726   3.338   5.041  0.3992  0.2961 -0.4204
  691MOL0     C93152   8.737   3.231   5.096  0.4919 -0.2054  0.0603
  691MOL0     O93153   8.839   3.198   5.185  0.0184  0.4948  0.2186
  691MOL0     C93154   8.933   3.299   5.213  0.4756  0.2586 -0.1490
  691MOL0     C93155   9.065   3.254   5.223 -0.8968  0.4829  0.2931
  691MOL0     C93156   9.172   3.334   5.260 -0.0555 -0.3706  0.4343
  691MOL0     C93157   9.144   3.469   5.278 -0.5998 -0.5193  0.3546
  691MOL0     O93158   9.246   3.562   5.293 -0.0423  0.1840 -0.6419
  691MOL0     C93159   9.241   3.682   5.224 -0.2595 -0.2682  0.1595
  691MOL0     C93160   9.381   3.748   5.202 -0.5010  0.1986 -0.0616
  691MOL0     C93161   9.380   3.894   5.233  0.3546  0.5019  0.3876
  691MOL0     C93162   9.310   3.984   5.130 -0.1034  0.8487 -0.6717
  691MOL0     C93163   9.327   4.132   5.173  0.6487 -0.2179 -0.3082
  691MOL0     C93164   9.195   4.195   5.239  0.0817 -0.1596 -0.1715
  691MOL0     C93165   9.168   4.151   5.385 -0.0446 -0.8955 -0.6421
  691MOL0     C93166   9.117   4.275   5.470  0.6122  1.7555 -0.4784
  691MOL0     N93167   9.055   4.227   5.601 -0.2681 -0.3452  0.2779
  691MOL0     C93168   9.136   4.165   5.697  0.9657  0.0800 -0.0148
  691MOL0     C93169   9.058   4.138   5.796  0.3956  0.8018 -0.6209
  691MOL0     C93170   9.091   4.069   5.926  0.3152  0.5247  1.2208
  691MOL0     C93171   9.203   4.144   5.994 -0.7983  0.7663  0.1358
  691MOL0     C93172   9.221   4.093   6.140  0.0257 -0.3183 -0.4917
  691MOL0     C93173   9.364   4.099   6.184  0.7199  0.0892  0.1624
  691MOL0     O93174   9.378   4.046   6.314  0.0140  0.0213  0.3492
  691MOL0     C93175   9.517   4.035   6.357  0.5941  0.1217 -0.4953
  691MOL0     C93176   9.532   3.975   6.481 -0.6088 -1.0492 -0.4450
  691MOL0     C93177   9.665   3.959   6.527 -0.0579 -0.7152 -0.3591
  691MOL0     C93178   9.781   4.013   6.462 -0.0360 -0.3251  0.1533
  691MOL0     C93179   9.910   4.013   6.520  0.6233  0.5679  0.0572
  691MOL0     O93180  10.005   4.082   6.454  0.0885  0.5503 -0.8953
  691MOL0     C93181  10.122   4.106   6.514  0.2917 -0.1570 -0.7347
  691MOL0     C93182  10.143   4.207   6.615 -0.4146 -0.0519 -0.0591
  691MOL0     C93183  10.273   4.221   6.677 -0.1199  0.2779  0.1447
  691MOL0     C93184  10.383   4.141   6.639  0.8866 -0.0029  0.2504
  691MOL0     O93185  10.513   4.154   6.689 -0.4633  0.4764 -0.1031
  691MOL0     C93186  10.541   4.225   6.803 -0.2698  0.0240 -0.4673
  691MOL0     C93187  10.673   4.168   6.848 -0.5393 -1.2407 -0.1932
  691MOL0     C93188  10.752   4.265   6.946 -0.2508 -0.3149  0.5211
  691MOL0     C93189  10.898   4.251   6.937 -0.9468 -0.4256  0.4323
  691MOL0     C93190  10.972   4.365   7.019  0.2242  0.1151 -0.2369
  691MOL0     C93191  11.112   4.344   7.072  0.2726 -0.5347  0.1515
  691MOL0     C93192  11.119   4.407   7.213 -0.6541  0.3117  0.5071
  691MOL0     C93193  11.272   4.433   7.238  0.9771 -0.3844 -0.0362
  691MOL0    Cl93194  11.353   4.277   7.277 -0.1427 -0.2695 -0.0352
  691MOL0     C93195  10.363   4.047   6.534  0.6133 -0.3039 -0.5275
  691MOL0     C93196  10.237   4.035   6.475 -0.6401  0.2756 -0.9086
  691MOL0     O93197   9.932   3.956   6.635  0.3001 -0.5734 -0.6546
  691MOL0     C93198   9.758   4.063   6.336  0.5011  0.2064  1.1610
  691MOL0     C93199   9.628   4.068   6.284 -1.1127  0.7566  0.5244
  691MOL0     N93200   8.931   4.196   5.763  0.5808  0.5254 -0.7950
  691MOL0     N93201   8.931   4.252   5.653  0.5024 -0.0469 -0.0897
  691MOL0     C93202   9.014   3.516   5.270  0.6391  0.7593 -0.2653
  691MOL0     C93203   8.907   3.431   5.240  0.2925 -0.1208 -0.1676
  691MOL0     C93204   8.647   3.123   5.068 -0.1466  0.8761  0.7900
  691MOL0     C93205   8.705   3.002   5.028 -0.1332  0.3077  1.2718
  691MOL0     C93206   8.623   2.889   4.990 -0.1527 -0.9727  0.7196
  691MOL0     C93207   8.485   2.900   4.976 -0.6882 -0.6477  0.2457
  691MOL0     O93208   8.398   2.796   4.938  0.1793 -0.0166  0.2250
  691MOL0     C93209   8.443   2.689   4.852 -0.8258  0.2294 -0.7945
  691MOL0     C93210   8.326   2.610   4.788  0.1801 -0.0465 -0.6234
  691MOL0     C93211   8.363   2.524   4.677  0.4649 -0.0085 -0.3674
  691MOL0     C93212   8.255   2.454   4.597 -0.6864 -0.8302 -0.3497
  691MOL0     C93213   8.157   2.551   4.550  0.0866  0.1118  0.5022
  691MOL0     C93214   8.078   2.640   4.519 -1.0454  0.3415 -1.1701
  691MOL0     C93215   8.423   3.024   5.013 -0.7060 -0.1343  0.1967
  691MOL0     C93216   8.503   3.138   5.059  0.1149 -0.5897  0.3943
  691MOL0     C93217   8.434   3.263   5.113  0.1441 -0.4548  0.1720
  691MOL0     H93218   9.089   3.151   5.202 -1.0326  0.0893  1.9363
  691MOL0     H93219   9.273   3.296   5.278  0.2292  0.8304  1.4965
  691MOL0     H93220   9.203   3.663   5.124 -0.4783  0.7280  0.0415
  691MOL0     H93221   9.174   3.752   5.275 -1.3403  1.1606 -3.0147
  691MOL0     H93222   9.419   3.726   5.102 -2.1875  1.2629 -0.9877
  691MOL0     H93223   9.450   3.707   5.276  0.6667 -1.2898 -1.8941
  691MOL0     H93224   9.486   3.921   5.236  0.2582  0.8148  2.0198
  691MOL0     H93225   9.341   3.907   5.335  1.9197 -3.4707  1.6736
  691MOL0     H93226   9.352   3.967   5.031 -0.4751  1.7891 -0.9961
  691MOL0     H93227   9.202   3.963   5.125 -0.4339  1.5296  1.8811
  691MOL0     H93228   9.405   4.123   5.249  1.0425 -1.0395 -0.7982
  691MOL0     H93229   9.371   4.176   5.083  2.0840 -0.8260  0.0577
  691MOL0     H93230   9.203   4.304   5.246 -0.2732 -0.1043 -0.5904
  691MOL0     H93231   9.115   4.168   5.170 -0.0107  0.2600 -0.2322
  691MOL0     H93232   9.246   4.096   5.439 -1.9194 -1.5806  1.5152
  691MOL0     H93233   9.089   4.075   5.380  1.5670 -2.6979 -0.2255
  691MOL0     H93234   9.194   4.350   5.490 -0.4520  2.8648 -0.3411
  691MOL0     H93235   9.041   4.324   5.408 -2.0883 -1.7059 -0.2378
  691MOL0     H93236   9.242   4.147   5.685  0.9224  1.1321 -2.5509
  691MOL0     H93237   8.995   4.067   5.978 -0.6158  0.5247 -0.4164
  691MOL0     H93238   9.117   3.966   5.901 -0.4873  0.9224 -1.7494
  691MOL0     H93239   9.303   4.124   5.953  0.4589  1.4337  2.6884
  691MOL0     H93240   9.194   4.253   6.000 -0.5332  0.7433  1.0464
  691MOL0     H93241   9.184   3.990   6.140  0.7843 -0.7344 -4.1124
  691MOL0     H93242   9.169   4.163   6.206  0.1916  2.1054 -2.7641
  691MOL0     H93243   9.407   4.199   6.185  2.5122 -0.6054 -1.7856
  691MOL0     H93244   9.428   4.043   6.116  1.1572  1.3184 -0.4643
  691MOL0     H93245   9.443   3.938   6.531 -2.1335  1.2097 -1.2738
  691MOL0     H93246   9.678   3.915   6.626 -0.4154 -0.6391 -0.2763
  691MOL0     H93247  10.065   4.277   6.642  0.4094  0.1935  1.8088
  691MOL0     H93248  10.278   4.283   6.766 -2.1371  1.2868 -0.3745
  691MOL0     H93249  10.567   4.327   6.773  2.5816 -1.0004 -1.9441
  691MOL0     H93250  10.463   4.232   6.879  0.3765  0.3984  0.1736
  691MOL0     H93251  10.653   4.073   6.898  0.9932  0.7127  4.8325
  691MOL0     H93252  10.734   4.144   6.761  0.8503 -2.8019  1.1404
  691MOL0     H93253  10.726   4.370   6.929 -0.7474 -0.5616 -0.3082
  691MOL0     H93254  10.718   4.237   7.046 -0.0165 -0.9642  0.4269
  691MOL0     H93255  10.938   4.274   6.838  1.2626  1.2477  1.6064
  691MOL0     H93256  10.941   4.158   6.976  0.8223 -0.1999 -0.8158
  691MOL0     H93257  10.908   4.378   7.107 -0.3214 -1.8838 -0.3027
  691MOL0     H93258  10.967   4.457   6.961 -0.9662 -0.2246 -0.6865
  691MOL0     H93259  11.139   4.238   7.082 -0.4013 -0.7646 -0.4085
  691MOL0     H93260  11.178   4.392   7.000 -0.3423  0.5464  0.2893
  691MOL0     H93261  11.088   4.353   7.303 -0.0923 -1.1790 -0.1632
  691MOL0     H93262  11.070   4.505   7.219 -0.4358  0.4188  0.5331
  691MOL0     H93263  11.316   4.478   7.149 -3.4246 -2.2606 -3.5615
  691MOL0     H93264  11.282   4.504   7.320 -0.0063 -1.7723  1.3377
  691MOL0     H93265  10.452   3.994   6.503  1.8058  1.6064 -0.5886
  691MOL0     H93266  10.216   3.960   6.400 -1.0678  0.0496 -0.5639
  691MOL0     H93267   9.834   4.093   6.264 -0.0419 -0.7533  0.1632
  691MOL0     H93268   9.612   4.105   6.183  1.3418  0.4177 -0.0398
  691MOL0     H93269   8.989   3.620   5.292 -1.4536  0.7709 -2.3734
  691MOL0     H93270   8.804   3.466   5.237  0.4280  0.2103 -1.3346
  691MOL0     H93271   8.810   2.981   5.014 -0.5139  0.0152 -1.9884
  691MOL0     H93272   8.671   2.796   4.962  1.5463 -0.4419  1.6670
  691MOL0     H93273   8.500   2.623   4.918 -0.6797  2.2497  1.2103
  691MOL0     H93274   8.513   2.731   4.779 -0.1519 -0.9263 -0.8466
  691MOL0     H93275   8.259   2.685   4.747  0.7147  0.5904 -0.3605
  691MOL0     H93276   8.268   2.566   4.870  0.6386  2.6401  1.2778
  691MOL0     H93277   8.430   2.449   4.720  0.0728 -2.4313 -3.5925
  691MOL0     H93278   8.421   2.585   4.607  2.2759 -2.0062 -0.7065
  691MOL0     H93279   8.310   2.404   4.517  2.5479 -1.1836  1.8730
  691MOL0     H93280   8.204   2.377   4.656  2.3308 -2.3004  0.5521
  691MOL0     H93281   8.008   2.711   4.481  0.1434  1.1067 -2.0246
  691MOL0     H93282   8.315   3.021   5.013 -0.7395  0.8496  0.9137
  691MOL0     H93283   8.453   3.349   5.048  0.0002  0.7812  1.7095
  691MOL0     H93284   8.326   3.250   5.127  0.0240 -2.0826 -1.7958
  691MOL0     H93285   8.468   3.274   5.216  0.2466 -1.6472  0.2734
  692MOL0     O93286   4.407   8.308   8.562  0.1822  0.4697  0.3749
  692MOL0     C93287   4.324   8.385   8.508 -0.3795  0.2209  0.0694
  692MOL0     O93288   4.334   8.523   8.517  0.1248 -0.3693  0.1506
  692MOL0     C93289   4.446   8.600   8.546  0.0013 -0.6488  0.0592
  692MOL0     C93290   4.419   8.729   8.585 -0.5319 -0.2283  0.8437
  692MOL0     C93291   4.529   8.821   8.614  0.4181  0.2177  0.2146
  692MOL0     C93292   4.663   8.781   8.599  0.6042  0.6832 -0.1622
  692MOL0     O93293   4.761   8.877   8.622 -0.3221  0.5667  0.0878
  692MOL0     C93294   4.892   8.826   8.667 -0.4660  0.5849  1.0693
  692MOL0     C93295   4.972   8.913   8.768 -0.2995  0.1462 -0.1127
  692MOL0     C93296   5.109   8.845   8.798 -0.4501  0.0104 -0.4051
  692MOL0     C93297   5.197   8.937   8.883 -0.4449 -0.8886 -0.0885
  692MOL0     C93298   5.333   8.955   8.807  0.5502 -0.4398 -0.3650
  692MOL0     C93299   5.411   8.823   8.780 -0.1222 -0.2174 -0.2204
  692MOL0     C93300   5.564   8.864   8.753 -0.6567  0.7643 -0.0193
  692MOL0     C93301   5.656   8.942   8.848  0.2428 -0.8591 -0.1819
  692MOL0     N93302   5.760   8.987   8.763  0.0263 -1.0113  0.9248
  692MOL0     C93303   5.769   9.111   8.695 -0.4680 -0.0882  0.3996
  692MOL0     C93304   5.891   9.106   8.635 -0.2386 -0.6392 -0.0322
  692MOL0     C93305   5.947   9.211   8.539 -0.7659 -0.3127 -0.4453
  692MOL0     C93306   5.917   9.169   8.389 -0.2618 -0.1167  0.1456
  692MOL0     C93307   5.980   9.270   8.293  0.1038  0.3283  0.2894
  692MOL0     C93308   5.997   9.221   8.152  0.1589 -1.0488  0.2266
  692MOL0     O93309   6.090   9.114   8.150  0.4222 -0.1622  0.1139
  692MOL0     C93310   6.159   9.102   8.036 -0.6296  0.1935 -0.4667
  692MOL0     C93311   6.291   9.054   8.056  0.7782 -0.1676 -0.5727
  692MOL0     C93312   6.375   9.036   7.950 -0.6443  0.3950 -0.2528
  692MOL0     C93313   6.334   9.068   7.817 -0.0433  0.9097  0.1144
  692MOL0     C93314   6.427   9.058   7.705 -0.4640 -0.0513 -0.6491
  692MOL0     O93315   6.549   9.021   7.738  0.1066  1.0455  0.4556
  692MOL0     C93316   6.649   8.988   7.644 -0.0075  0.1448 -0.6627
  692MOL0     C93317   6.642   8.988   7.504 -0.3856 -0.2160 -0.0983
  692MOL0     C93318   6.759   8.961   7.431 -0.2797  0.0356 -0.2861
  692MOL0     C93319   6.872   8.939   7.497  0.6794 -0.3358  0.3592
  692MOL0     O93320   6.967   8.899   7.402 -0.1398 -0.6097  0.1784
  692MOL0     C93321   7.102   8.901   7.454 -0.7822 -0.2674  1.3077
  692MOL0     C93322   7.199   8.912   7.329  0.1625 -0.3186  0.5576
  692MOL0     C93323   7.349   8.895   7.379 -0.4550 -0.0135  0.2916
  692MOL0     C93324   7.444   8.925   7.266 -0.0723 -0.3558  0.2557
  692MOL0     C93325   7.584   8.918   7.317  0.2034 -0.4710  0.2749
  692MOL0     C93326   7.682   8.942   7.201 -0.1352 -0.1416 -0.2252
  692MOL0     C93327   7.828   8.927   7.262  0.5305 -0.5148  0.4427
  692MOL0     C93328   7.924   8.911   7.148  0.1600  0.4498 -0.0022
  692MOL0    Cl93329   7.921   8.747   7.078  0.3053 -0.0929 -0.2813
  692MOL0     C93330   6.887   8.941   7.636  0.0304  0.3168 -0.7636
  692MOL0     C93331   6.772   8.966   7.711 -0.5669 -1.0023 -0.2295
  692MOL0     O93332   6.380   9.083   7.597 -0.3973 -0.5545 -0.2205
  692MOL0     C93333   6.206   9.126   7.798 -0.2030 -0.2236 -0.0920
  692MOL0     C93334   6.118   9.135   7.904 -0.0969 -0.8801  0.5381
  692MOL0     N93335   5.957   8.990   8.676 -0.2172  0.3922  0.8287
  692MOL0     N93336   5.887   8.929   8.753  0.0794  0.2575 -0.7943
  692MOL0     C93337   4.689   8.644   8.565 -0.3877 -0.1518 -0.3702
  692MOL0     C93338   4.578   8.557   8.535  0.4579  0.0811  0.0482
  692MOL0     C93339   4.213   8.327   8.411  0.1030  0.6705 -0.3025
  692MOL0     C93340   4.164   8.403   8.303  0.5950  0.3071  0.2078
  692MOL0     C93341   4.075   8.354   8.210  0.1925 -0.1869 -1.3608
  692MOL0     C93342   4.027   8.219   8.232  1.0763 -0.5606  0.7115
  692MOL0     O93343   3.923   8.175   8.148  0.0813  1.3306 -0.0354
  692MOL0     C93344   3.927   8.034   8.117  0.4139 -0.7116 -0.8017
  692MOL0     C93345   3.854   8.029   7.977  0.4550  0.6163  0.6427
  692MOL0     C93346   3.922   8.133   7.884  0.8126 -0.0497  0.2181
  692MOL0     C93347   3.838   8.128   7.763  0.3752 -0.0208 -0.0201
  692MOL0     C93348   3.859   8.242   7.673  0.1471  0.1930  0.4696
  692MOL0     C93349   3.863   8.338   7.600  0.0681  0.7155  0.3696
  692MOL0     C93350   4.067   8.147   8.343  0.0921 -0.2394 -0.2258
  692MOL0     C93351   4.161   8.197   8.431  0.5188  0.0841 -0.6199
  692MOL0     C93352   4.196   8.109   8.550 -0.5528 -0.4847  0.4870
  692MOL0     H93353   4.315   8.755   8.599 -0.5456 -1.5104  3.8831
  692MOL0     H93354   4.508   8.924   8.641  2.7790  0.8770 -0.2226
  692MOL0     H93355   4.877   8.730   8.718  0.5412  0.9963  2.2127
  692MOL0     H93356   4.955   8.817   8.578 -1.5915 -2.7510  0.4516
  692MOL0     H93357   4.919   8.927   8.863  1.1978  0.2802  0.7210
  692MOL0     H93358   4.985   9.008   8.715 -3.4906  0.5933 -0.3393
  692MOL0     H93359   5.157   8.809   8.707 -1.2514 -2.8814  0.2175
  692MOL0     H93360   5.080   8.758   8.858 -1.9590  1.3072  0.8363
  692MOL0     H93361   5.152   9.036   8.898 -0.9806 -1.0179 -0.7622
  692MOL0     H93362   5.211   8.900   8.985 -0.9881  0.1367  0.3758
  692MOL0     H93363   5.318   9.012   8.715  0.9571 -0.9609 -0.7516
  692MOL0     H93364   5.386   9.022   8.876 -4.6599  1.3017  2.5221
  692MOL0     H93365   5.401   8.744   8.855 -1.7102  1.4498  1.4126
  692MOL0     H93366   5.370   8.781   8.688 -1.2862 -1.0180  0.6445
  692MOL0     H93367   5.556   8.918   8.658 -0.9625 -0.6474 -0.8113
  692MOL0     H93368   5.621   8.774   8.733 -1.1820  0.8479 -2.1516
  692MOL0     H93369   5.599   9.026   8.889 -0.8501 -1.9899  0.6888
  692MOL0     H93370   5.698   8.881   8.928  4.4155 -0.3496 -1.7448
  692MOL0     H93371   5.695   9.190   8.692 -1.8458 -1.2973  1.5785
  692MOL0     H93372   5.900   9.307   8.563 -1.4225 -0.4309 -1.1745
  692MOL0     H93373   6.052   9.218   8.568 -0.4567 -0.1081 -1.5452
  692MOL0     H93374   5.962   9.072   8.369  1.2725  0.5252  0.3225
  692MOL0     H93375   5.808   9.167   8.375 -0.5979 -0.2097  2.3523
  692MOL0     H93376   6.081   9.285   8.331  0.5778  0.6313 -1.0179
  692MOL0     H93377   5.931   9.367   8.286 -0.3964  0.1633  1.3018
  692MOL0     H93378   6.034   9.303   8.090 -0.1705 -0.3586  0.9257
  692MOL0     H93379   5.896   9.202   8.115 -0.5981  2.1413  0.3762
  692MOL0     H93380   6.322   9.033   8.158  1.0874 -1.2392 -0.8769
  692MOL0     H93381   6.469   8.992   7.979 -0.5538 -0.1813 -1.3846
  692MOL0     H93382   6.551   9.028   7.462 -1.1862 -1.2520  0.6141
  692MOL0     H93383   6.757   8.960   7.322 -1.5890  1.3039 -0.3043
  692MOL0     H93384   7.121   8.990   7.515 -0.2410  0.8415 -0.4152
  692MOL0     H93385   7.122   8.811   7.514 -1.5126 -0.8906  0.6399
  692MOL0     H93386   7.183   8.839   7.250  0.7648  1.2171 -1.0599
  692MOL0     H93387   7.188   9.011   7.283  1.9252 -2.1635 -4.4839
  692MOL0     H93388   7.368   8.956   7.468 -1.9361  3.4526 -1.5502
  692MOL0     H93389   7.365   8.792   7.412 -1.5718  0.1060  1.3068
  692MOL0     H93390   7.432   9.024   7.222  0.9871 -0.9946 -1.5783
  692MOL0     H93391   7.426   8.853   7.186 -2.1605  1.2525 -0.8258
  692MOL0     H93392   7.601   8.818   7.360  2.2306 -0.3475 -0.1247
  692MOL0     H93393   7.599   8.996   7.393 -1.3651 -0.0650  0.1850
  692MOL0     H93394   7.659   8.871   7.122  1.9042  1.4271 -2.3365
  692MOL0     H93395   7.670   9.039   7.152  2.2276  1.1045  1.4390
  692MOL0     H93396   7.824   8.841   7.329  1.3153 -1.0564 -0.1982
  692MOL0     H93397   7.856   9.013   7.324 -0.7232 -0.3206  0.7806
  692MOL0     H93398   7.878   8.967   7.067  0.4078 -0.3286 -0.6974
  692MOL0     H93399   8.021   8.950   7.180 -0.4215  3.0861 -1.2330
  692MOL0     H93400   6.985   8.919   7.677  0.7079  0.1575 -2.4028
  692MOL0     H93401   6.778   8.955   7.819  0.4067  0.7654 -0.0781
  692MOL0     H93402   6.174   9.157   7.699  1.5065  1.3340 -0.2182
  692MOL0     H93403   6.019   9.179   7.896  1.3076  2.2240 -2.2354
  692MOL0     H93404   4.791   8.607   8.555 -0.7091 -1.6706  1.3933
  692MOL0     H93405   4.604   8.455   8.509  0.1837  0.2202 -0.8315
  692MOL0     H93406   4.202   8.504   8.294  0.8112  0.5030  2.7123
  692MOL0     H93407   4.041   8.417   8.128  0.5334  1.7691 -0.0644
  692MOL0     H93408   3.866   7.978   8.188 -0.8723  0.8098 -0.6343
  692MOL0     H93409   4.027   7.992   8.112  0.3304 -0.8558 -1.2645
  692MOL0     H93410   3.748   8.046   7.996  0.8316  1.6775  1.9576
  692MOL0     H93411   3.872   7.928   7.938  0.8981  0.8523  0.2373
  692MOL0     H93412   4.020   8.098   7.851  0.4438  0.2576 -1.2740
  692MOL0     H93413   3.919   8.235   7.924  0.2275  0.6742 -1.5760
  692MOL0     H93414   3.856   8.033   7.711  0.3211 -0.7150  1.1854
  692MOL0     H93415   3.732   8.133   7.790  0.5827  0.3312  0.7728
  692MOL0     H93416   3.871   8.419   7.530  1.7906  1.1698  1.0379
  692MOL0     H93417   4.019   8.051   8.357 -0.4004  0.2919  1.9480
  692MOL0     H93418   4.299   8.072   8.547  0.5781  2.4536 -1.2020
  692MOL0     H93419   4.180   8.171   8.639 -2.0246  0.8820 -0.6619
  692MOL0     H93420   4.126   8.025   8.551 -0.1260 -0.8575  2.6938
  693MOL0     O93421   7.767  10.035   1.549  0.0132  0.5500 -0.4901
  693MOL0     C93422   7.698  10.066   1.452  0.6573  1.1892 -0.0767
  693MOL0     O93423   7.740  10.134   1.344  0.0696 -0.3891 -0.1607
  693MOL0     C93424   7.868  10.192   1.351  0.2693 -0.0721 -0.1189
  693MOL0     C93425   7.984  10.119   1.323  0.6211  0.8045  0.2155
  693MOL0     C93426   8.113  10.179   1.312  0.3309  0.1623 -0.2520
  693MOL0     C93427   8.128  10.314   1.352  0.2516  0.8152  0.1382
  693MOL0     O93428   8.253  10.358   1.387  0.2048  0.8404 -0.1607
  693MOL0     C93429   8.272  10.408   1.526  0.2229  0.3187  0.4133
  693MOL0     C93430   8.285  10.559   1.540 -0.8914  0.0543  0.8397
  693MOL0     C93431   8.258  10.592   1.685  0.5392 -0.7208 -0.6409
  693MOL0     C93432   8.311  10.735   1.718  0.4791  0.6414 -0.2063
  693MOL0     C93433   8.287  10.773   1.873 -0.3675  0.1967 -0.0619
  693MOL0     C93434   8.347  10.910   1.914  0.4073 -0.6635 -0.0128
  693MOL0     C93435   8.353  10.921   2.071 -0.3544 -0.0002  0.1793
  693MOL0     C93436   8.408  11.056   2.119 -0.2510  0.1731  0.1320
  693MOL0     N93437   8.564  11.067   2.101  0.6795 -0.9676 -0.3201
  693MOL0     C93438   8.656  10.971   2.126  0.0752  0.3471 -0.0585
  693MOL0     C93439   8.776  11.042   2.125  0.0845  0.8442  0.3916
  693MOL0     C93440   8.923  10.994   2.136 -0.1771 -0.4545  0.6757
  693MOL0     C93441   8.973  10.986   2.281  1.0235 -0.2967  0.2207
  693MOL0     C93442   9.126  10.992   2.303 -0.8634 -0.3150  0.0423
  693MOL0     C93443   9.177  10.932   2.434 -0.5236  0.4151 -0.6923
  693MOL0     O93444   9.318  10.963   2.463  0.9942 -0.5015  0.7166
  693MOL0     C93445   9.407  10.880   2.397  0.2042 -0.7552 -0.8877
  693MOL0     C93446   9.516  10.943   2.344 -0.0899  0.2054 -0.2300
  693MOL0     C93447   9.626  10.875   2.295  0.4011 -0.5233 -0.5419
  693MOL0     C93448   9.629  10.739   2.320 -0.7494  0.3541  0.0510
  693MOL0     C93449   9.753  10.653   2.286  0.0909  0.4255 -0.1931
  693MOL0     O93450   9.864  10.709   2.220 -0.4566  0.2708  0.3062
  693MOL0     C93451   9.987  10.657   2.188  0.3404  1.0781  0.5881
  693MOL0     C93452  10.061  10.735   2.097 -0.2630  0.7517 -0.8101
  693MOL0     C93453  10.192  10.700   2.076 -0.1832  0.1347 -0.0784
  693MOL0     C93454  10.240  10.573   2.124  0.4086 -0.0943  0.5024
  693MOL0     O93455  10.367  10.524   2.089  0.3135 -0.7939  0.2756
  693MOL0     C93456  10.473  10.623   2.068 -0.6675 -0.0304  0.1594
  693MOL0     C93457  10.595  10.533   2.061 -0.4609 -0.4388 -0.4890
  693MOL0     C93458  10.716  10.618   2.018  0.9376  0.0157 -0.4041
  693MOL0     C93459  10.825  10.531   1.953 -0.0615 -0.2725  0.0999
  693MOL0     C93460  10.882  10.423   2.045 -0.3361  0.2339 -0.0843
  693MOL0     C93461  11.006  10.360   1.988 -0.6509  0.5176  0.3331
  693MOL0     C93462  11.067  10.274   2.094 -0.2634 -0.0013 -0.1921
  693MOL0     C93463  11.101  10.342   2.231  0.2248  0.2507 -0.5544
  693MOL0    Cl93464  11.202  10.238   2.324  0.5371  0.4493  0.5428
  693MOL0     C93465  10.151  10.489   2.193  0.4930  0.0609  0.1012
  693MOL0     C93466  10.029  10.530   2.229 -0.3193  0.0387  0.3727
  693MOL0     O93467   9.737  10.534   2.308 -0.0197  0.2112  0.2314
  693MOL0     C93468   9.518  10.669   2.374 -0.5352  0.4731 -0.0208
  693MOL0     C93469   9.409  10.740   2.411  0.2188  0.2085  0.1675
  693MOL0     N93470   8.745  11.176   2.105  0.2428  0.2456 -0.0264
  693MOL0     N93471   8.623  11.194   2.092 -1.0296 -0.2148 -0.0460
  693MOL0     C93472   8.012  10.390   1.367 -0.0056 -0.0124 -0.5771
  693MOL0     C93473   7.888  10.330   1.369  0.6109  0.1089 -0.0682
  693MOL0     C93474   7.553  10.025   1.451 -0.1467  0.3457  0.5004
  693MOL0     C93475   7.492  10.010   1.326 -0.0029  0.5047 -0.1746
  693MOL0     C93476   7.358   9.980   1.313  0.0467  0.0968 -0.0105
  693MOL0     C93477   7.283   9.952   1.422 -0.1095 -0.3248  0.7808
  693MOL0     O93478   7.150   9.918   1.422  0.7483  0.7547 -0.1552
  693MOL0     C93479   7.085   9.893   1.299  0.9711 -0.4766 -0.2294
  693MOL0     C93480   7.112   9.743   1.273  0.5580 -0.2828 -0.1031
  693MOL0     C93481   7.067   9.710   1.131 -0.6518  0.5310  0.1596
  693MOL0     C93482   7.099   9.566   1.076 -1.4477 -0.1373 -0.3176
  693MOL0     C93483   7.240   9.559   1.050  0.3195 -0.8518 -0.4419
  693MOL0     C93484   7.356   9.537   1.040 -1.0002  0.0240 -0.1179
  693MOL0     C93485   7.340   9.966   1.544 -0.3060 -0.4442 -0.0464
  693MOL0     C93486   7.478  10.000   1.562 -0.2541 -0.1975  0.0460
  693MOL0     C93487   7.527  10.004   1.705  0.5369  0.8828  0.8904
  693MOL0     H93488   7.971  10.014   1.298 -4.7830  1.2110  0.2379
  693MOL0     H93489   8.199  10.114   1.302  0.3907 -0.3996  2.9863
  693MOL0     H93490   8.184  10.378   1.584 -0.8326  2.4278 -0.0134
  693MOL0     H93491   8.365  10.368   1.568  2.3521  2.8002 -1.5855
  693MOL0     H93492   8.219  10.608   1.467  2.2004  1.0730 -1.4800
  693MOL0     H93493   8.386  10.578   1.502 -0.6398 -5.6432 -2.6390
  693MOL0     H93494   8.308  10.520   1.750  2.6418  3.5084  2.9387
  693MOL0     H93495   8.150  10.588   1.700  0.3502  2.7418 -0.1944
  693MOL0     H93496   8.419  10.739   1.699  0.3828  2.4372 -0.5884
  693MOL0     H93497   8.258  10.810   1.659 -1.6413  0.4260  1.3045
  693MOL0     H93498   8.183  10.778   1.906 -0.0206 -2.2604  1.6843
  693MOL0     H93499   8.341  10.696   1.930  0.9711  1.0170 -0.1641
  693MOL0     H93500   8.446  10.926   1.871 -0.2315  1.5226 -0.8068
  693MOL0     H93501   8.273  10.984   1.883 -0.7292 -0.8325  2.0935
  693MOL0     H93502   8.412  10.841   2.118  0.0027 -1.1969 -2.1227
  693MOL0     H93503   8.249  10.909   2.101  0.0834 -1.9716  1.0624
  693MOL0     H93504   8.344  11.134   2.077 -0.6660  0.7853  1.8369
  693MOL0     H93505   8.396  11.071   2.227 -0.8387 -1.9858  0.4207
  693MOL0     H93506   8.645  10.864   2.135 -4.0502  0.6300 -0.0080
  693MOL0     H93507   8.931  10.899   2.084  1.4757  0.4413 -0.7945
  693MOL0     H93508   8.975  11.072   2.079 -2.8289  0.4734 -0.6817
  693MOL0     H93509   8.942  11.077   2.334  1.6520 -0.0316  0.1354
  693MOL0     H93510   8.917  10.899   2.318  0.6290 -0.7582 -1.3809
  693MOL0     H93511   9.171  11.091   2.299  1.8569 -1.4626 -0.0997
  693MOL0     H93512   9.178  10.932   2.228 -0.3470 -1.3610  1.2038
  693MOL0     H93513   9.172  10.822   2.429  1.0538  0.2096  0.8938
  693MOL0     H93514   9.123  10.968   2.522  3.0630  1.0976  1.4559
  693MOL0     H93515   9.526  11.051   2.353  3.0108 -0.1454  2.1205
  693MOL0     H93516   9.715  10.926   2.258  2.5814 -1.6808  2.7205
  693MOL0     H93517  10.019  10.828   2.058  0.5882  1.2191 -0.6236
  693MOL0     H93518  10.255  10.776   2.031 -0.1151 -0.5559 -1.1943
  693MOL0     H93519  10.465  10.677   1.973  3.3882  2.6804  1.0830
  693MOL0     H93520  10.469  10.688   2.156 -2.6994 -0.9473  0.7923
  693MOL0     H93521  10.613  10.480   2.155  2.1324  1.1701  0.0102
  693MOL0     H93522  10.572  10.458   1.984 -0.7957 -0.3974 -0.4315
  693MOL0     H93523  10.672  10.695   1.954 -3.0981 -1.2458  0.5607
  693MOL0     H93524  10.754  10.677   2.101  1.1343  0.9465 -1.1458
  693MOL0     H93525  10.907  10.587   1.907 -0.3511 -0.0393 -0.1444
  693MOL0     H93526  10.786  10.466   1.875 -0.6994 -0.0781  0.2494
  693MOL0     H93527  10.802  10.351   2.064 -1.2036  0.4968 -2.3737
  693MOL0     H93528  10.901  10.472   2.140 -0.3484 -2.7793  1.5886
  693MOL0     H93529  10.987  10.296   1.902  1.8444  0.1833 -0.0644
  693MOL0     H93530  11.086  10.431   1.962  1.5176 -2.0146 -0.4324
  693MOL0     H93531  11.157  10.230   2.051 -1.4810 -1.3358 -1.4798
  693MOL0     H93532  10.989  10.200   2.113 -2.3676  2.3764  1.1577
  693MOL0     H93533  11.146  10.439   2.210  0.7260  0.0377 -0.5004
  693MOL0     H93534  11.009  10.354   2.289  1.2830  2.3521  0.8056
  693MOL0     H93535  10.183  10.389   2.220 -1.1334 -0.6258 -0.3742
  693MOL0     H93536   9.961  10.465   2.282 -0.6539  0.1053  0.0274
  693MOL0     H93537   9.515  10.563   2.399  2.1165  1.1572  4.1746
  693MOL0     H93538   9.337  10.680   2.466  2.5342 -1.5086  1.4963
  693MOL0     H93539   8.021  10.495   1.392  1.7599 -0.0774 -0.8042
  693MOL0     H93540   7.804  10.399   1.377  1.6471  1.2253  1.9475
  693MOL0     H93541   7.550  10.027   1.236  0.8207  0.6988  0.3802
  693MOL0     H93542   7.322   9.972   1.211  1.5914 -0.9599 -0.5036
  693MOL0     H93543   7.115   9.952   1.212  2.8106  1.1051  1.3916
  693MOL0     H93544   6.978   9.908   1.316  1.3522  1.8421  0.4415
  693MOL0     H93545   7.046   9.683   1.337 -2.7054  0.8216 -2.1887
  693MOL0     H93546   7.215   9.719   1.298  0.2841  2.2243  4.6754
  693MOL0     H93547   7.109   9.778   1.057  1.3885 -2.3657 -1.5421
  693MOL0     H93548   6.958   9.713   1.131 -0.6395  1.1272 -0.8128
  693MOL0     H93549   7.070   9.482   1.141 -2.0157  0.9413  0.8646
  693MOL0     H93550   7.045   9.553   0.982 -2.8378  0.7270  0.3442
  693MOL0     H93551   7.463   9.535   1.035 -0.9400 -0.2203  0.9412
  693MOL0     H93552   7.288   9.948   1.638  0.7424  0.0158  0.6419
  693MOL0     H93553   7.601   9.926   1.726  0.4717  0.5147 -0.1574
  693MOL0     H93554   7.576  10.102   1.713  1.7069  0.2157  2.5655
  693MOL0     H93555   7.443   9.999   1.774  1.3064 -0.3586  1.7663
  694MOL0     O93556   4.749   2.863   6.410 -0.4467  0.2140 -0.0412
  694MOL0     C93557   4.689   2.865   6.518 -0.0249  0.5908  0.5194
  694MOL0     O93558   4.743   2.862   6.643 -0.0135 -0.3194  0.3794
  694MOL0     C93559   4.874   2.831   6.641 -0.6957 -0.4862 -0.8431
  694MOL0     C93560   4.922   2.705   6.620  0.5498 -0.2326 -0.3996
  694MOL0     C93561   5.058   2.679   6.606  0.2893 -0.2414 -0.6422
  694MOL0     C93562   5.149   2.780   6.644 -0.2909  0.6668 -0.3148
  694MOL0     O93563   5.283   2.743   6.640 -0.0764  0.2393 -0.8404
  694MOL0     C93564   5.393   2.830   6.679  0.4541 -0.2963  0.5052
  694MOL0     C93565   5.524   2.769   6.622 -0.7828  0.0066 -0.3118
  694MOL0     C93566   5.631   2.865   6.621 -0.0992  0.6722 -0.0866
  694MOL0     C93567   5.763   2.799   6.572  0.6734 -0.7420 -0.4315
  694MOL0     C93568   5.868   2.917   6.581 -0.7946  0.0838  0.1490
  694MOL0     C93569   6.008   2.850   6.549 -0.0680 -0.2233  0.1067
  694MOL0     C93570   6.103   2.944   6.480 -0.3874 -0.5543  0.0274
  694MOL0     C93571   6.251   2.903   6.483 -0.2625  0.7726  0.3517
  694MOL0     N93572   6.340   3.002   6.423 -0.7122 -0.4260 -0.0518
  694MOL0     C93573   6.368   3.042   6.297 -1.5416 -0.6183 -0.4595
  694MOL0     C93574   6.481   3.125   6.321  0.1206  0.7453  0.4491
  694MOL0     C93575   6.548   3.198   6.208 -0.4129 -0.1323 -0.1520
  694MOL0     C93576   6.678   3.125   6.157 -0.5044 -0.1345 -0.0494
  694MOL0     C93577   6.793   3.144   6.262 -0.0849 -0.4022  1.2483
  694MOL0     C93578   6.936   3.125   6.205 -0.9031  0.1374 -0.2604
  694MOL0     O93579   7.024   3.151   6.315 -0.5338  0.2885 -0.4678
  694MOL0     C93580   7.152   3.157   6.276 -0.8800 -0.5001 -0.5405
  694MOL0     C93581   7.240   3.211   6.378  0.1921 -0.1517 -0.0567
  694MOL0     C93582   7.372   3.230   6.345 -0.8731  0.6924 -0.3488
  694MOL0     C93583   7.435   3.168   6.230  1.1286 -0.0658 -0.3969
  694MOL0     C93584   7.582   3.164   6.209 -1.1718 -0.6001  0.3435
  694MOL0     O93585   7.638   3.102   6.104 -0.2456 -0.4344  0.2193
  694MOL0     C93586   7.772   3.112   6.067  0.1382  0.1371  0.2140
  694MOL0     C93587   7.821   3.157   5.943  0.2541  0.5722  0.3921
  694MOL0     C93588   7.962   3.167   5.913  0.2315  0.0988  0.3097
  694MOL0     C93589   8.064   3.135   6.003  0.4618  0.6947 -0.1153
  694MOL0     O93590   8.199   3.126   5.975  0.3674  0.2066  0.5592
  694MOL0     C93591   8.245   3.046   5.867 -0.0462 -0.1808  0.2554
  694MOL0     C93592   8.392   3.009   5.872  0.9030  0.1457 -0.5598
  694MOL0     C93593   8.431   2.909   5.983 -1.0829 -0.0006 -0.6237
  694MOL0     C93594   8.581   2.864   5.967  0.5448  0.3614  0.0214
  694MOL0     C93595   8.599   2.772   6.094 -0.2542 -0.0356 -0.2630
  694MOL0     C93596   8.726   2.669   6.092 -0.3967 -0.6912 -0.4479
  694MOL0     C93597   8.725   2.566   5.976 -0.2517  0.2871 -0.0390
  694MOL0     C93598   8.862   2.496   5.970  0.0264 -0.1718  0.1699
  694MOL0    Cl93599   8.978   2.622   5.933 -0.0771  0.3738 -0.1396
  694MOL0     C93600   8.012   3.082   6.117  0.5794  0.2732 -0.6692
  694MOL0     C93601   7.877   3.066   6.144  1.5551  0.0190  0.5789
  694MOL0     O93602   7.646   3.228   6.295 -0.7430 -1.1538  0.4627
  694MOL0     C93603   7.348   3.106   6.142  0.2846  0.2093 -0.0508
  694MOL0     C93604   7.207   3.106   6.166 -0.7984 -0.1418 -0.2569
  694MOL0     N93605   6.505   3.136   6.451 -0.2592  0.4005  0.2980
  694MOL0     N93606   6.425   3.055   6.515 -0.8570  0.0349 -0.0628
  694MOL0     C93607   5.104   2.903   6.683 -0.7456 -0.7413 -0.4150
  694MOL0     C93608   4.970   2.927   6.678 -0.1820  0.2082 -0.4984
  694MOL0     C93609   4.541   2.877   6.515 -0.4369 -1.0644 -0.1288
  694MOL0     C93610   4.470   2.853   6.390  0.5051 -0.4636 -0.1483
  694MOL0     C93611   4.337   2.848   6.382  0.0467 -1.0415 -0.2901
  694MOL0     C93612   4.263   2.876   6.494 -0.1332 -0.2868 -0.5692
  694MOL0     O93613   4.129   2.885   6.506 -0.1139  0.7305 -0.0863
  694MOL0     C93614   4.047   2.875   6.385 -0.5867 -0.2454  0.1743
  694MOL0     C93615   3.895   2.840   6.399  0.3706 -0.4380 -0.2757
  694MOL0     C93616   3.822   2.968   6.438 -0.1097  0.4078  0.1231
  694MOL0     C93617   3.811   3.071   6.319  0.0559  0.3263 -0.8552
  694MOL0     C93618   3.717   3.176   6.348 -0.3242 -0.0994 -0.1672
  694MOL0     C93619   3.651   3.274   6.381 -0.2214  0.9016  0.1222
  694MOL0     C93620   4.319   2.905   6.616 -1.2551  0.1742  0.0635
  694MOL0     C93621   4.460   2.906   6.630 -0.3245 -0.2164 -0.3688
  694MOL0     C93622   4.512   2.942   6.767 -0.3918 -0.2924  0.4004
  694MOL0     H93623   4.851   2.624   6.605 -1.3653  0.7191  2.6196
  694MOL0     H93624   5.095   2.580   6.581 -2.9663 -2.4155  2.1752
  694MOL0     H93625   5.381   2.920   6.619 -0.6211 -1.0466 -0.4636
  694MOL0     H93626   5.389   2.854   6.786 -1.3960  2.1435 -0.0409
  694MOL0     H93627   5.505   2.738   6.519 -2.0477 -3.8247  0.8701
  694MOL0     H93628   5.559   2.680   6.676 -0.1030  0.5012  0.0881
  694MOL0     H93629   5.653   2.903   6.721  1.8269  0.4292 -0.3797
  694MOL0     H93630   5.612   2.940   6.543  1.1560  0.4451 -0.6256
  694MOL0     H93631   5.791   2.721   6.643 -0.9456  0.3737  1.5861
  694MOL0     H93632   5.758   2.768   6.467 -0.7264  2.0459 -1.3025
  694MOL0     H93633   5.838   2.987   6.502  1.4831  0.8191 -0.1338
  694MOL0     H93634   5.871   2.965   6.680 -1.4889  1.1015 -0.3083
  694MOL0     H93635   6.045   2.817   6.647 -1.2739  2.7290  1.6850
  694MOL0     H93636   5.988   2.768   6.480 -4.9699  0.9535 -0.2145
  694MOL0     H93637   6.099   3.041   6.529  1.1191 -1.3010  1.7449
  694MOL0     H93638   6.068   2.958   6.377 -1.3061  1.5995  0.5798
  694MOL0     H93639   6.284   2.873   6.583 -0.5308  1.0178  0.5170
  694MOL0     H93640   6.261   2.806   6.434 -0.1323  0.2387  1.3978
  694MOL0     H93641   6.326   3.018   6.200  1.1232  0.0477 -1.8932
  694MOL0     H93642   6.480   3.216   6.124 -0.7779 -2.4018 -0.4020
  694MOL0     H93643   6.576   3.299   6.240  0.7091  0.1863 -1.9850
  694MOL0     H93644   6.654   3.018   6.154 -0.5495 -0.1660  1.0397
  694MOL0     H93645   6.709   3.158   6.058  0.1618 -0.7546 -0.0561
  694MOL0     H93646   6.788   3.085   6.355 -0.5329  1.1374  2.2428
  694MOL0     H93647   6.795   3.242   6.310  3.6810 -0.1207  0.8183
  694MOL0     H93648   6.941   3.184   6.113  0.1278 -0.4071 -0.5757
  694MOL0     H93649   6.940   3.017   6.185 -0.5505 -0.3462  2.1348
  694MOL0     H93650   7.198   3.248   6.471 -0.2105 -0.0015 -0.2951
  694MOL0     H93651   7.432   3.282   6.419 -0.2003  1.6442 -1.5267
  694MOL0     H93652   7.745   3.186   5.870 -1.5282 -2.3989  0.8947
  694MOL0     H93653   7.983   3.213   5.817  0.1214 -2.6727 -1.1280
  694MOL0     H93654   8.182   2.958   5.847  0.7527 -0.1961 -2.6131
  694MOL0     H93655   8.232   3.095   5.770 -0.7397 -0.8161  0.0177
  694MOL0     H93656   8.429   2.967   5.778  1.4952  0.9872 -0.7182
  694MOL0     H93657   8.449   3.097   5.903 -2.3999  1.3103  3.0293
  694MOL0     H93658   8.415   2.961   6.077 -0.6960  1.0061 -1.1077
  694MOL0     H93659   8.363   2.823   5.973 -1.2248  0.3006 -2.6304
  694MOL0     H93660   8.651   2.948   5.971  2.6699 -1.2896 -0.6134
  694MOL0     H93661   8.594   2.803   5.878 -1.9120 -1.4965  0.8229
  694MOL0     H93662   8.512   2.712   6.122  1.1563 -1.2168  1.8474
  694MOL0     H93663   8.606   2.824   6.191 -0.8397 -1.5961  0.6489
  694MOL0     H93664   8.817   2.729   6.098 -1.3151  0.8675 -1.4154
  694MOL0     H93665   8.715   2.611   6.184 -2.8917  2.2352  1.2984
  694MOL0     H93666   8.713   2.610   5.877  0.4596  0.9792  0.1671
  694MOL0     H93667   8.643   2.496   5.996 -1.3485  2.1755  2.7225
  694MOL0     H93668   8.877   2.444   6.065 -2.7309 -0.9130  0.2964
  694MOL0     H93669   8.867   2.421   5.890  1.9665 -0.0414  0.1249
  694MOL0     H93670   8.075   3.036   6.192 -1.4815 -2.5889 -0.5678
  694MOL0     H93671   7.844   3.018   6.235  0.1021  0.0119  0.0697
  694MOL0     H93672   7.384   3.064   6.048  0.9260 -1.4728  0.8962
  694MOL0     H93673   7.133   3.071   6.094 -1.2421 -0.1138  0.1813
  694MOL0     H93674   5.176   2.976   6.718 -2.5469  0.4452  0.9675
  694MOL0     H93675   4.940   3.025   6.712  3.5404  0.5907  2.4055
  694MOL0     H93676   4.524   2.837   6.298  1.1544  1.6452 -0.1728
  694MOL0     H93677   4.294   2.821   6.286  0.5024  1.0178 -1.1504
  694MOL0     H93678   4.083   2.792   6.323 -0.1385  0.0935 -0.0248
  694MOL0     H93679   4.064   2.961   6.320 -0.2478 -1.6861 -1.7339
  694MOL0     H93680   3.883   2.775   6.487 -1.2731 -0.3191 -0.3787
  694MOL0     H93681   3.859   2.788   6.310  0.7397 -0.8349 -0.1954
  694MOL0     H93682   3.862   3.012   6.530  1.3005 -0.4333 -0.0500
  694MOL0     H93683   3.724   2.927   6.462  0.9960 -2.0737  0.7504
  694MOL0     H93684   3.906   3.122   6.302 -0.5847  1.8536 -0.0563
  694MOL0     H93685   3.786   3.018   6.226 -0.5574  0.7655 -0.9470
  694MOL0     H93686   3.595   3.361   6.408 -0.6096  0.5322  0.5084
  694MOL0     H93687   4.258   2.920   6.705  1.7788 -1.5175  2.6201
  694MOL0     H93688   4.554   2.850   6.811  0.0672 -1.6347 -2.5744
  694MOL0     H93689   4.594   3.013   6.758  1.0629 -1.7276  1.5898
  694MOL0     H93690   4.439   2.985   6.836 -1.0101 -1.8611  0.7793
  695MOL0     O93691   9.008   3.513   0.797  0.0416  0.0840  0.6067
  695MOL0     C93692   8.983   3.446   0.902  0.4050  0.5900 -0.4162
  695MOL0     O93693   9.073   3.366   0.975  0.0829 -0.0678  0.2010
  695MOL0     C93694   9.206   3.367   0.948  0.2836 -0.1176  0.3487
  695MOL0     C93695   9.272   3.248   0.931 -0.8401  0.4248 -0.4000
  695MOL0     C93696   9.412   3.247   0.914  0.0010  0.4262 -0.5283
  695MOL0     C93697   9.486   3.362   0.891 -0.1291  0.7095  0.1589
  695MOL0     O93698   9.621   3.375   0.876  0.3756  0.3967 -0.2419
  695MOL0     C93699   9.694   3.264   0.817 -0.5655  0.3238  0.2067
  695MOL0     C93700   9.847   3.278   0.819  0.6366 -0.1538  0.7893
  695MOL0     C93701   9.897   3.358   0.694  0.3935 -0.2904 -0.3003
  695MOL0     C93702  10.038   3.408   0.716  0.5485 -0.7089 -0.3460
  695MOL0     C93703  10.107   3.482   0.596 -0.4266  0.0870 -0.3988
  695MOL0     C93704  10.245   3.508   0.636 -0.6224  0.3970  0.4471
  695MOL0     C93705  10.342   3.390   0.620 -0.5976  0.7590  0.0344
  695MOL0     C93706  10.493   3.426   0.643 -0.1853  0.3190 -0.7380
  695MOL0     N93707  10.586   3.315   0.638 -0.1477  0.6841  0.3653
  695MOL0     C93708  10.648   3.243   0.740  0.2178 -0.6511  0.4136
  695MOL0     C93709  10.748   3.174   0.673 -0.4246 -0.4409  0.0821
  695MOL0     C93710  10.864   3.103   0.742 -0.2186 -0.4989  0.0196
  695MOL0     C93711  10.978   3.195   0.796  0.1875  0.2225  0.1159
  695MOL0     C93712  11.072   3.112   0.886 -0.0410  0.9723 -0.4993
  695MOL0     C93713  11.164   3.014   0.815  0.0461  0.1874  0.4863
  695MOL0     O93714  11.226   2.912   0.902  0.2131  0.4065  0.0445
  695MOL0     C93715  11.142   2.832   0.975 -0.1119  0.5765 -0.2666
  695MOL0     C93716  11.128   2.845   1.110  0.1348 -0.0700  0.2708
  695MOL0     C93717  11.030   2.763   1.182 -0.2053  0.2968 -0.1812
  695MOL0     C93718  10.951   2.676   1.105 -0.1969 -0.6527 -0.9487
  695MOL0     C93719  10.851   2.597   1.175 -0.6179 -0.3092  0.6488
  695MOL0     O93720  10.887   2.559   1.304  0.1951  0.3228  0.7256
  695MOL0     C93721  10.804   2.492   1.382  0.3890  0.5448  0.4212
  695MOL0     C93722  10.855   2.402   1.477 -0.7125 -0.0799  0.1848
  695MOL0     C93723  10.770   2.336   1.570 -0.0526  0.7409  0.2036
  695MOL0     C93724  10.634   2.360   1.583 -0.4559 -0.6881  0.1566
  695MOL0     O93725  10.561   2.280   1.670  0.4083 -0.6398 -0.0265
  695MOL0     C93726  10.419   2.302   1.695  0.3255 -0.8767 -0.0362
  695MOL0     C93727  10.364   2.181   1.773  0.5157  0.5644 -0.7126
  695MOL0     C93728  10.426   2.162   1.907 -0.4970 -0.0663 -0.0701
  695MOL0     C93729  10.366   2.040   1.978 -0.4799 -0.1977  0.8304
  695MOL0     C93730  10.452   1.996   2.089 -0.2849  0.4215 -0.7228
  695MOL0     C93731  10.396   1.866   2.162  0.7173 -1.2695 -0.2769
  695MOL0     C93732  10.397   1.740   2.064 -0.3429  0.5106 -0.0701
  695MOL0     C93733  10.350   1.614   2.132 -0.6414  0.0252  0.9569
  695MOL0    Cl93734  10.181   1.632   2.173 -0.3869 -0.5406  0.0415
  695MOL0     C93735  10.578   2.446   1.480  0.2146 -0.9399  0.6453
  695MOL0     C93736  10.664   2.507   1.382 -0.4453  0.1908  0.3802
  695MOL0     O93737  10.743   2.568   1.122 -0.8584  0.2352  0.1470
  695MOL0     C93738  10.973   2.671   0.971  0.3134  0.3585 -0.4593
  695MOL0     C93739  11.077   2.738   0.899  0.7282 -1.2022 -0.4164
  695MOL0     N93740  10.718   3.184   0.538  0.9157  0.3368  0.7078
  695MOL0     N93741  10.621   3.275   0.515  0.2338  0.6106  0.0602
  695MOL0     C93742   9.417   3.477   0.913 -0.1315  0.3554  1.0477
  695MOL0     C93743   9.281   3.479   0.949 -0.8497  0.1540  0.0847
  695MOL0     C93744   8.845   3.447   0.960  0.4807 -0.4208  0.0928
  695MOL0     C93745   8.815   3.327   1.025 -0.0697 -0.3589 -0.1006
  695MOL0     C93746   8.691   3.316   1.101 -0.6907  0.3043 -0.3896
  695MOL0     C93747   8.597   3.422   1.096 -0.8186 -0.3980 -1.2410
  695MOL0     O93748   8.481   3.417   1.166  0.1962  0.6207  0.5453
  695MOL0     C93749   8.427   3.305   1.225  0.1604 -0.3444  0.2805
  695MOL0     C93750   8.451   3.302   1.383 -0.2187 -0.5392  0.0416
  695MOL0     C93751   8.408   3.172   1.448  0.4139  0.0227  0.2212
  695MOL0     C93752   8.496   3.048   1.414  0.2991  0.2752 -0.1169
  695MOL0     C93753   8.442   2.931   1.481 -0.3997  0.4145  0.4995
  695MOL0     C93754   8.393   2.824   1.520  0.1826 -0.0924  0.7338
  695MOL0     C93755   8.622   3.539   1.017 -0.3111 -0.4550 -0.1595
  695MOL0     C93756   8.749   3.559   0.958 -0.2353  0.8879  0.4863
  695MOL0     C93757   8.797   3.699   0.929 -0.4251 -0.3946  0.4085
  695MOL0     H93758   9.220   3.153   0.926 -0.2927 -0.1568  2.8002
  695MOL0     H93759   9.460   3.151   0.901 -2.4846 -0.7620 -1.6788
  695MOL0     H93760   9.679   3.175   0.879 -0.9576  1.4005  1.6902
  695MOL0     H93761   9.658   3.234   0.718 -0.9832 -3.8020  1.3882
  695MOL0     H93762   9.885   3.177   0.807 -1.4264 -0.7098 -1.9202
  695MOL0     H93763   9.880   3.318   0.916  2.1914 -1.0215  0.6527
  695MOL0     H93764   9.847   3.454   0.678  1.4890  0.8202  2.3398
  695MOL0     H93765   9.885   3.295   0.605 -1.5131  2.7338 -2.4037
  695MOL0     H93766  10.028   3.468   0.806  1.0775 -0.0171 -0.7331
  695MOL0     H93767  10.096   3.318   0.739 -2.7386 -3.5191 -2.0094
  695MOL0     H93768  10.112   3.418   0.507  1.2768 -2.2298  1.2238
  695MOL0     H93769  10.067   3.580   0.568  3.6095  2.2366  0.5793
  695MOL0     H93770  10.294   3.588   0.580 -0.3053 -0.3649 -0.3840
  695MOL0     H93771  10.240   3.540   0.741  0.9417 -0.5925  0.8614
  695MOL0     H93772  10.322   3.340   0.525  0.0413 -0.2949  0.4458
  695MOL0     H93773  10.309   3.317   0.694  0.0825  1.3472  0.9402
  695MOL0     H93774  10.530   3.505   0.577 -0.4457  1.6043  0.5850
  695MOL0     H93775  10.505   3.473   0.742 -0.7338 -0.9220 -0.0573
  695MOL0     H93776  10.633   3.262   0.845 -1.0448 -0.1898  0.1655
  695MOL0     H93777  10.813   3.059   0.828  1.6738  1.1339  2.1111
  695MOL0     H93778  10.910   3.027   0.678 -1.1845 -3.4408  2.5979
  695MOL0     H93779  11.040   3.240   0.718 -0.4581  0.3904 -0.2989
  695MOL0     H93780  10.934   3.277   0.853 -0.2744 -0.8902  1.4136
  695MOL0     H93781  11.007   3.056   0.953 -1.3413  0.3470 -2.2136
  695MOL0     H93782  11.135   3.186   0.938  1.8673 -0.4679 -0.6428
  695MOL0     H93783  11.241   3.073   0.764 -0.0318 -0.5816 -0.5624
  695MOL0     H93784  11.110   2.959   0.737  0.2386 -0.0494  0.5164
  695MOL0     H93785  11.180   2.920   1.169  1.3600 -1.3065  0.8023
  695MOL0     H93786  11.029   2.768   1.290 -0.1152 -2.0075 -0.0350
  695MOL0     H93787  10.961   2.385   1.494  0.0491  2.6543 -1.2074
  695MOL0     H93788  10.813   2.270   1.644  2.0855 -1.1281 -2.4767
  695MOL0     H93789  10.390   2.398   1.738  0.2330  0.3056 -2.5491
  695MOL0     H93790  10.357   2.294   1.605 -1.9884  0.5502  1.3435
  695MOL0     H93791  10.258   2.197   1.794  0.6099 -1.8004  2.1645
  695MOL0     H93792  10.383   2.097   1.705  2.8972  0.0436  0.4939
  695MOL0     H93793  10.535   2.160   1.914 -0.4224 -3.7612  0.0064
  695MOL0     H93794  10.400   2.247   1.970  0.4096 -1.3488  2.1394
  695MOL0     H93795  10.364   1.952   1.912 -0.7421  0.5178 -0.1441
  695MOL0     H93796  10.260   2.061   1.994 -0.6951 -1.3823  1.0343
  695MOL0     H93797  10.460   2.074   2.165 -1.9395 -2.0243  2.1640
  695MOL0     H93798  10.552   1.975   2.050 -0.2299 -3.0510  0.9728
  695MOL0     H93799  10.457   1.848   2.251  1.7078  0.3412 -0.5957
  695MOL0     H93800  10.294   1.870   2.200  1.4835 -0.9640  1.8475
  695MOL0     H93801  10.494   1.711   2.021 -0.9076 -1.4943 -0.0519
  695MOL0     H93802  10.328   1.752   1.980  0.1300 -1.8508 -0.8599
  695MOL0     H93803  10.366   1.533   2.060  1.4341  1.8449 -0.7863
  695MOL0     H93804  10.412   1.601   2.221  2.3137  1.8281 -0.6475
  695MOL0     H93805  10.470   2.454   1.468  0.3913 -1.9709 -2.6913
  695MOL0     H93806  10.613   2.571   1.311 -1.0042  1.6653  2.0372
  695MOL0     H93807  10.916   2.589   0.927  0.0166  0.8123 -0.9207
  695MOL0     H93808  11.108   2.709   0.799  2.1316  1.4949 -0.8391
  695MOL0     H93809   9.472   3.570   0.911  1.6302 -0.6148 -2.0731
  695MOL0     H93810   9.218   3.566   0.967  0.2903  0.7333  1.4845
  695MOL0     H93811   8.871   3.238   1.002 -2.3934 -1.4713 -1.9877
  695MOL0     H93812   8.677   3.223   1.154  0.1648  0.1297 -0.4538
  695MOL0     H93813   8.460   3.212   1.176 -0.4361 -0.8909  0.8911
  695MOL0     H93814   8.320   3.310   1.204  0.0649 -0.1256  0.7890
  695MOL0     H93815   8.400   3.387   1.429 -2.0433 -0.8741 -1.2745
  695MOL0     H93816   8.557   3.308   1.409  0.3997 -3.7573 -1.3081
  695MOL0     H93817   8.310   3.151   1.404  1.8012 -0.0077 -3.1286
  695MOL0     H93818   8.406   3.181   1.557  2.2607  1.8083  0.1585
  695MOL0     H93819   8.492   3.021   1.309  1.6979  1.5229 -0.5276
  695MOL0     H93820   8.601   3.068   1.436  1.5974 -0.6749 -4.5778
  695MOL0     H93821   8.351   2.735   1.563  1.2420 -0.6443  0.6774
  695MOL0     H93822   8.553   3.623   1.014 -1.3686 -1.3102 -1.2192
  695MOL0     H93823   8.738   3.786   0.959 -1.3479 -1.3919  1.6345
  695MOL0     H93824   8.897   3.713   0.971 -1.6939  0.9268  3.2389
  695MOL0     H93825   8.807   3.713   0.821  2.8123 -0.6321  0.5867
  696MOL0     O93826   9.194  10.082   7.332 -0.0799 -0.9200  0.4076
  696MOL0     C93827   9.143  10.121   7.230 -0.4126 -0.6118  0.6750
  696MOL0     O93828   9.228  10.159   7.116  0.2970  0.0362 -0.0045
  696MOL0     C93829   9.363  10.170   7.136  0.0440  0.2332 -0.8429
  696MOL0     C93830   9.439  10.054   7.129 -0.6400  0.5500  0.6562
  696MOL0     C93831   9.577  10.057   7.136  0.1626  0.5550 -0.6482
  696MOL0     C93832   9.647  10.179   7.158  0.7296 -0.6652 -0.1350
  696MOL0     O93833   9.782  10.198   7.178  0.3008  0.2461  0.0224
  696MOL0     C93834   9.862  10.129   7.079 -0.1815  0.8873 -1.1126
  696MOL0     C93835  10.014  10.158   7.105 -0.2470  0.2150  0.7816
  696MOL0     C93836  10.066  10.271   7.007  0.9108  0.1427 -0.3685
  696MOL0     C93837  10.205  10.337   7.039  0.1476 -0.2003 -0.9296
  696MOL0     C93838  10.319  10.229   7.017 -0.0753  0.1323 -0.2561
  696MOL0     C93839  10.459  10.286   7.048 -0.2059 -0.4259 -0.1439
  696MOL0     C93840  10.557  10.176   7.015  0.0809 -0.5691  0.2361
  696MOL0     C93841  10.694  10.225   7.026 -0.6149 -0.0368  0.4595
  696MOL0     N93842  10.801  10.117   7.015 -0.7581  0.0948  0.3458
  696MOL0     C93843  10.851  10.054   7.123 -0.9214  0.0893  0.1725
  696MOL0     C93844  10.947   9.973   7.071  0.2027 -0.8822 -0.4449
  696MOL0     C93845  11.037   9.877   7.137  0.1265  0.9533  0.0709
  696MOL0     C93846  11.175   9.938   7.171 -0.3187 -0.4746  0.2680
  696MOL0     C93847  11.297   9.850   7.197 -0.2262  0.3048  0.2288
  696MOL0     C93848  11.320   9.799   7.337 -0.8383  0.2214 -0.4137
  696MOL0     O93849  11.431   9.706   7.339  0.5798  0.2555 -0.0028
  696MOL0     C93850  11.549   9.780   7.350 -0.4504  0.5397  0.7063
  696MOL0     C93851  11.599   9.849   7.464 -0.5068 -0.1648 -0.1806
  696MOL0     C93852  11.721   9.917   7.463  0.5621 -0.1386 -0.3165
  696MOL0     C93853  11.797   9.918   7.342  0.1801 -0.2800 -0.1761
  696MOL0     C93854  11.925   9.984   7.340 -0.1524  0.1528  0.3776
  696MOL0     O93855  11.965  10.026   7.464 -0.3073  0.2259  0.6593
  696MOL0     C93856  12.098  10.056   7.482  0.2129  0.0798 -0.0602
  696MOL0     C93857  12.191   9.961   7.466 -0.2067 -0.4934 -0.3772
  696MOL0     C93858  12.327   9.989   7.499 -0.1395 -0.2038  0.1366
  696MOL0     C93859  12.366  10.120   7.548  0.0831  0.0587  0.0585
  696MOL0     O93860  12.500  10.151   7.579  0.8954 -0.4320 -0.1293
  696MOL0     C93861  12.541  10.292   7.564  0.1455  0.3389 -0.0475
  696MOL0     C93862  12.688  10.300   7.580 -0.1921  0.1444  0.0408
  696MOL0     C93863  12.758  10.234   7.458 -0.0821 -1.2726  0.1227
  696MOL0     C93864  12.906  10.201   7.492 -0.0127 -0.1969 -0.5756
  696MOL0     C93865  12.993  10.137   7.383 -0.9524 -0.9267 -0.6066
  696MOL0     C93866  13.119  10.050   7.440  0.2589 -0.2804 -0.0305
  696MOL0     C93867  13.201   9.975   7.335  0.6776  0.3842 -0.1318
  696MOL0     C93868  13.322   9.900   7.399  0.1198 -0.1615 -0.0400
  696MOL0    Cl93869  13.403   9.817   7.260  0.2584  0.3431 -0.0861
  696MOL0     C93870  12.268  10.218   7.549 -0.8127 -0.2335 -0.3477
  696MOL0     C93871  12.138  10.186   7.519  0.5072 -0.3286  0.0804
  696MOL0     O93872  11.987   9.992   7.234  0.0135  0.5393  0.6446
  696MOL0     C93873  11.747   9.855   7.232 -0.0462 -0.0421  0.0878
  696MOL0     C93874  11.629   9.782   7.235 -0.2587 -0.3728  0.2647
  696MOL0     N93875  10.959   9.983   6.936  0.1131 -0.1405 -0.3329
  696MOL0     N93876  10.857  10.062   6.904  0.6187 -0.1647 -0.1116
  696MOL0     C93877   9.568  10.294   7.184  0.0107  0.2733 -0.4047
  696MOL0     C93878   9.426  10.298   7.163  0.5643  0.4212  0.2376
  696MOL0     C93879   8.996  10.124   7.236  0.4382  0.8444  0.6900
  696MOL0     C93880   8.929  10.055   7.335  0.3130  0.2067 -0.4176
  696MOL0     C93881   8.790  10.032   7.333 -0.2638  0.2369  0.5899
  696MOL0     C93882   8.710  10.092   7.234 -0.3992 -0.0222  0.7157
  696MOL0     O93883   8.571  10.062   7.255 -0.2336 -0.6826  0.1842
  696MOL0     C93884   8.483  10.127   7.164 -0.7249  0.2858 -0.2281
  696MOL0     C93885   8.353  10.066   7.160  0.0626  0.1720 -0.0397
  696MOL0     C93886   8.257  10.095   7.272  0.8674 -0.6709 -0.2724
  696MOL0     C93887   8.110  10.045   7.250  0.6454 -0.0262  0.1484
  696MOL0     C93888   8.055  10.131   7.142  0.6635 -0.4000  0.7772
  696MOL0     C93889   7.996  10.175   7.052  0.1961  0.2360  0.4429
  696MOL0     C93890   8.775  10.175   7.134  0.0287  0.5255 -0.3461
  696MOL0     C93891   8.917  10.184   7.130  0.2372 -0.5359 -0.6552
  696MOL0     C93892   8.972  10.270   7.017 -0.4955 -0.0685 -0.4087
  696MOL0     H93893   9.386   9.963   7.102 -1.1832  1.2612 -0.7776
  696MOL0     H93894   9.639   9.969   7.124  0.6748  0.8724 -0.3180
  696MOL0     H93895   9.843  10.021   7.074 -0.2628  0.6699  1.9105
  696MOL0     H93896   9.839  10.179   6.984  2.1624  1.8408 -1.2455
  696MOL0     H93897  10.072  10.069   7.081 -1.3072 -0.1106 -0.6776
  696MOL0     H93898  10.020  10.185   7.211 -2.9982  0.5259  0.9433
  696MOL0     H93899   9.982  10.340   6.998  1.0392  0.2523 -0.7371
  696MOL0     H93900  10.080  10.229   6.907 -2.5543  1.7427 -1.6713
  696MOL0     H93901  10.221  10.411   6.960  1.5146 -2.0377 -2.4683
  696MOL0     H93902  10.221  10.390   7.134  0.8949  1.1745 -1.7788
  696MOL0     H93903  10.304  10.138   7.077 -3.5829  1.5167  1.2287
  696MOL0     H93904  10.313  10.193   6.914  0.1751 -0.7641  0.0301
  696MOL0     H93905  10.471  10.376   6.987 -0.7739 -0.5818 -0.4965
  696MOL0     H93906  10.468  10.315   7.153  1.1874  1.0932 -0.6392
  696MOL0     H93907  10.554  10.149   6.909 -1.0490  2.0759 -0.4844
  696MOL0     H93908  10.561  10.084   7.075  1.9053 -1.7141 -1.4931
  696MOL0     H93909  10.713  10.295   6.944  2.8488  0.5716  1.6526
  696MOL0     H93910  10.708  10.279   7.119  0.4558  1.6528 -0.6237
  696MOL0     H93911  10.819  10.065   7.227 -0.4552 -1.6605  0.5441
  696MOL0     H93912  10.987   9.844   7.229  0.5692  1.7794  0.6156
  696MOL0     H93913  11.045   9.792   7.070 -3.5935  0.4864  0.0099
  696MOL0     H93914  11.207  10.003   7.090  0.8778 -1.3827 -0.0123
  696MOL0     H93915  11.149  10.006   7.253 -1.2236  0.8579 -1.0617
  696MOL0     H93916  11.382   9.913   7.169  0.1751 -0.7627 -1.1170
  696MOL0     H93917  11.314   9.768   7.126 -0.6534 -0.2789  0.7877
  696MOL0     H93918  11.231   9.744   7.369 -0.9669  1.3815  1.3797
  696MOL0     H93919  11.331   9.874   7.416  2.5741  0.7757 -1.2636
  696MOL0     H93920  11.537   9.852   7.554  0.9232 -1.8985  0.9410
  696MOL0     H93921  11.761   9.961   7.554  1.5098 -0.4010 -0.5903
  696MOL0     H93922  12.157   9.864   7.430 -1.1756 -0.6629  0.9194
  696MOL0     H93923  12.400   9.909   7.497  1.0564  0.8534 -1.0579
  696MOL0     H93924  12.515  10.334   7.467 -2.5287 -1.2617 -0.1319
  696MOL0     H93925  12.498  10.353   7.645 -0.7522 -1.7192  1.1147
  696MOL0     H93926  12.718  10.406   7.578 -1.5760  0.5811  0.7556
  696MOL0     H93927  12.724  10.257   7.674  1.2995  1.1608 -0.0255
  696MOL0     H93928  12.697  10.146   7.435 -2.2676 -0.2576  1.7146
  696MOL0     H93929  12.763  10.306   7.376 -0.6101 -1.4436 -0.0587
  696MOL0     H93930  12.900  10.134   7.578 -0.3746  0.3891 -0.1312
  696MOL0     H93931  12.958  10.292   7.524 -0.5593  0.4813 -1.5376
  696MOL0     H93932  13.021  10.228   7.330 -2.4942  0.9816  1.6561
  696MOL0     H93933  12.930  10.069   7.325  0.3943 -2.1165 -0.7248
  696MOL0     H93934  13.184  10.126   7.485 -0.0680 -0.4023  0.6689
  696MOL0     H93935  13.081   9.976   7.511  1.5834 -1.1548 -0.1878
  696MOL0     H93936  13.244  10.031   7.252  1.5387  1.0052  0.7175
  696MOL0     H93937  13.122   9.911   7.294 -0.8647  2.5644 -0.7627
  696MOL0     H93938  13.388   9.978   7.439  1.5824 -0.2741 -2.0807
  696MOL0     H93939  13.299   9.829   7.479  0.5302  0.7736  0.9379
  696MOL0     H93940  12.291  10.322   7.572 -1.2652 -0.0484 -0.7175
  696MOL0     H93941  12.060  10.261   7.509  1.1786  0.6135  1.4548
  696MOL0     H93942  11.803   9.854   7.139 -0.6630 -0.9458 -0.2892
  696MOL0     H93943  11.606   9.729   7.144  1.1021 -0.8928  0.2083
  696MOL0     H93944   9.627  10.383   7.202  0.5404  0.2162 -1.7372
  696MOL0     H93945   9.365  10.386   7.174 -0.6993 -0.1248 -1.8537
  696MOL0     H93946   8.985  10.004   7.412 -0.1129 -3.1020 -2.1018
  696MOL0     H93947   8.741   9.973   7.410 -1.1261 -0.7069 -0.6372
  696MOL0     H93948   8.519  10.144   7.062 -0.9171 -0.0342 -0.3504
  696MOL0     H93949   8.467  10.230   7.197  0.0554  0.5303 -0.5724
  696MOL0     H93950   8.371   9.958   7.154 -1.0533  0.0015 -0.5216
  696MOL0     H93951   8.305  10.100   7.068  0.7591 -3.2421 -1.8447
  696MOL0     H93952   8.267  10.200   7.300 -2.5821 -0.7381  1.7417
  696MOL0     H93953   8.292  10.042   7.362  2.1906 -0.5099 -0.6658
  696MOL0     H93954   8.106   9.941   7.215 -0.0475  0.1793 -0.3987
  696MOL0     H93955   8.048  10.045   7.340  1.3010  1.4639  0.6302
  696MOL0     H93956   7.942  10.223   6.973 -2.1743  1.0502  2.4423
  696MOL0     H93957   8.720  10.217   7.051  2.0024 -0.9402 -2.5390
  696MOL0     H93958   9.022  10.208   6.942  1.6556  1.3749 -0.2587
  696MOL0     H93959   8.894  10.327   6.965 -0.5314 -0.3168 -0.6304
  696MOL0     H93960   9.034  10.353   7.053 -2.1670  0.9797  0.1961
  697MOL0     O93961   3.122  11.147   9.870 -0.4322  0.1141 -0.0786
  697MOL0     C93962   3.035  11.186   9.788  0.0244  0.7058 -0.4789
  697MOL0     O93963   3.056  11.260   9.680 -0.1527  0.0189  0.0324
  697MOL0     C93964   3.179  11.319   9.661  0.2465  0.3236 -0.3507
  697MOL0     C93965   3.257  11.273   9.552 -0.1462  0.4189  0.3063
  697MOL0     C93966   3.376  11.339   9.514  0.2418  0.1007 -0.4250
  697MOL0     C93967   3.425  11.449   9.593  0.0621 -0.1240  0.1262
  697MOL0     O93968   3.546  11.516   9.580 -0.2919 -0.9519  0.5102
  697MOL0     C93969   3.615  11.515   9.455  0.0235  0.9784 -0.7337
  697MOL0     C93970   3.713  11.631   9.447 -0.4090 -0.0396  0.3597
  697MOL0     C93971   3.834  11.601   9.533 -0.1784  0.5131 -0.0317
  697MOL0     C93972   3.942  11.705   9.517  0.3878  0.3316  0.5747
  697MOL0     C93973   4.066  11.680   9.604  0.8609 -0.2396  0.0544
  697MOL0     C93974   4.125  11.536   9.597  0.4470 -0.8120 -0.1345
  697MOL0     C93975   4.262  11.534   9.667 -0.3160 -0.0650  0.8067
  697MOL0     C93976   4.281  11.403   9.758  0.0280 -0.2063  0.4158
  697MOL0     N93977   4.417  11.401   9.806 -0.3307 -0.2022 -0.4332
  697MOL0     C93978   4.475  11.486   9.890  0.0677 -0.4301 -0.5357
  697MOL0     C93979   4.603  11.437   9.905 -0.0183 -0.8665 -0.1617
  697MOL0     C93980   4.704  11.483  10.004 -0.9084  0.2269 -0.3037
  697MOL0     C93981   4.845  11.456   9.956 -0.1028 -0.1206  0.0039
  697MOL0     C93982   4.935  11.527  10.066  0.0737  0.0230  0.2215
  697MOL0     C93983   5.076  11.514  10.016  0.6884  0.3744 -1.0728
  697MOL0     O93984   5.177  11.557  10.106  0.0958 -0.2758  0.1013
  697MOL0     C93985   5.186  11.694  10.134 -0.0005 -0.4220  0.8458
  697MOL0     C93986   5.265  11.732  10.242  0.3201 -0.0534 -0.3391
  697MOL0     C93987   5.269  11.855  10.286 -1.6108  0.0379 -0.6058
  697MOL0     C93988   5.202  11.954  10.218 -0.6724 -0.4642 -0.4796
  697MOL0     C93989   5.218  12.095  10.252  0.4158  0.2511 -0.2231
  697MOL0     O93990   5.311  12.122  10.352 -0.7568 -1.0896  0.3802
  697MOL0     C93991   5.305  12.247  10.416  0.3238  0.1452  0.4674
  697MOL0     C93992   5.419  12.324  10.431 -0.4882  0.7838  0.6063
  697MOL0     C93993   5.417  12.441  10.503 -1.1870  0.4824 -0.4383
  697MOL0     C93994   5.303  12.490  10.563  0.1890  0.2756 -0.3888
  697MOL0     O93995   5.295  12.602  10.646  0.0075 -0.0202  0.6043
  697MOL0     C93996   5.418  12.678  10.650 -0.4436 -0.6141 -0.2636
  697MOL0     C93997   5.387  12.806  10.731  0.5498  0.3200  0.3549
  697MOL0     C93998   5.517  12.896  10.743  0.1603 -0.0757  0.0285
  697MOL0     C93999   5.531  12.977  10.862 -0.0938  1.0930 -0.3120
  697MOL0     C94000   5.666  13.046  10.871  0.4675 -0.3135  0.1535
  697MOL0     C94001   5.702  13.114  11.009  0.2724  0.8056  0.4446
  697MOL0     C94002   5.845  13.157  10.993 -0.0261  0.4928 -0.4372
  697MOL0     C94003   5.947  13.042  10.982  0.4845 -0.1339  0.1006
  697MOL0    Cl94004   5.901  12.888  11.067 -0.5273  0.0611  0.3342
  697MOL0     C94005   5.189  12.408  10.553  0.9071  0.2759 -0.5386
  697MOL0     C94006   5.189  12.284  10.481  0.2415  0.3963  0.4472
  697MOL0     O94007   5.173  12.182  10.173  0.0024  0.0222  0.1716
  697MOL0     C94008   5.115  11.925  10.105 -0.2525 -0.1246 -0.0614
  697MOL0     C94009   5.113  11.786  10.058 -0.2176 -0.4481  0.5214
  697MOL0     N94010   4.618  11.329   9.822 -0.8673 -0.3052 -0.0279
  697MOL0     N94011   4.509  11.311   9.758  1.0699 -0.2287  0.2730
  697MOL0     C94012   3.345  11.487   9.698  0.0212 -0.2424 -0.8605
  697MOL0     C94013   3.222  11.429   9.736 -0.6096 -0.0017 -0.4804
  697MOL0     C94014   2.896  11.135   9.800 -0.2733 -0.2890 -0.3787
  697MOL0     C94015   2.821  11.109   9.684 -1.1429  0.2248  0.1943
  697MOL0     C94016   2.689  11.058   9.689 -0.5545  0.5114 -0.0839
  697MOL0     C94017   2.626  11.037   9.808 -0.2169  0.5176  0.3054
  697MOL0     O94018   2.504  10.973   9.815 -0.5396  0.2005  0.3883
  697MOL0     C94019   2.394  11.023   9.743 -1.0069 -0.0367  0.3626
  697MOL0     C94020   2.260  10.946   9.784 -0.4185  0.1302  0.2456
  697MOL0     C94021   2.144  10.995   9.702 -0.1982 -0.7680  0.0378
  697MOL0     C94022   2.031  10.899   9.708  0.4056  0.1079  0.3228
  697MOL0     C94023   1.953  10.903   9.837 -0.4649 -0.5705  0.2792
  697MOL0     C94024   1.900  10.898   9.947  0.6928 -0.0452  0.0558
  697MOL0     C94025   2.704  11.056   9.933  0.1937 -0.2811  0.1479
  697MOL0     C94026   2.831  11.103   9.930  0.8358  0.0247  1.2458
  697MOL0     C94027   2.891  11.137  10.060 -0.2354  0.3031 -0.1472
  697MOL0     H94028   3.216  11.196   9.489 -3.9167  0.5611  2.3155
  697MOL0     H94029   3.434  11.303   9.429 -1.9951 -1.0334 -1.5790
  697MOL0     H94030   3.658  11.415   9.444 -1.8388  0.2167 -1.5671
  697MOL0     H94031   3.540  11.532   9.376  2.3525  3.3346 -2.6402
  697MOL0     H94032   3.675  11.731   9.470 -3.2898 -0.3066 -2.4744
  697MOL0     H94033   3.739  11.638   9.341 -0.4487  0.2175  0.3663
  697MOL0     H94034   3.877  11.505   9.501 -0.1655  0.9399 -1.3453
  697MOL0     H94035   3.801  11.607   9.637 -1.5260 -2.2236 -0.2007
  697MOL0     H94036   3.970  11.699   9.411  1.7420 -2.4852  0.9931
  697MOL0     H94037   3.892  11.800   9.539 -0.5789  0.5969 -2.3326
  697MOL0     H94038   4.135  11.757   9.569 -0.6106  0.7960 -0.6616
  697MOL0     H94039   4.031  11.703   9.705  3.2351  1.0218  0.6496
  697MOL0     H94040   4.058  11.461   9.639  0.8984 -1.5971 -0.7996
  697MOL0     H94041   4.131  11.509   9.491 -2.8983  0.3517 -0.7528
  697MOL0     H94042   4.285  11.626   9.721 -0.8376  0.9284 -0.6104
  697MOL0     H94043   4.332  11.541   9.583 -0.2084 -0.5538  0.8534
  697MOL0     H94044   4.209  11.408   9.840 -2.1351  0.7552 -1.4289
  697MOL0     H94045   4.265  11.308   9.706  1.8626 -1.3060  1.7275
  697MOL0     H94046   4.442  11.573   9.947 -0.8470 -2.3009  2.0385
  697MOL0     H94047   4.683  11.589  10.022  0.9361  0.7670 -1.1524
  697MOL0     H94048   4.679  11.431  10.097  0.7228 -2.1332 -1.1012
  697MOL0     H94049   4.866  11.349   9.958  1.9593  0.2518  1.7058
  697MOL0     H94050   4.864  11.499   9.857 -1.4280  3.2760  1.0463
  697MOL0     H94051   4.923  11.470  10.158  0.7449 -0.3110  0.1112
  697MOL0     H94052   4.906  11.633  10.066  2.1468  0.6793  2.4655
  697MOL0     H94053   5.077  11.558   9.916 -2.5277 -0.2245 -1.4975
  697MOL0     H94054   5.088  11.406  10.003  1.6671  0.1723  1.0991
  697MOL0     H94055   5.318  11.649  10.287 -0.5343 -0.5772 -0.2669
  697MOL0     H94056   5.342  11.873  10.364 -1.6436 -0.6847 -0.4053
  697MOL0     H94057   5.516  12.303  10.388 -0.3356  0.1751  1.2301
  697MOL0     H94058   5.514  12.489  10.506 -0.3267 -1.2287  0.6875
  697MOL0     H94059   5.509  12.643  10.699 -0.2408  1.3091  0.8072
  697MOL0     H94060   5.438  12.709  10.547 -1.1490  1.3345  0.1493
  697MOL0     H94061   5.316  12.869  10.678  0.2758  1.1695  1.6882
  697MOL0     H94062   5.349  12.786  10.832 -1.7401 -0.3234 -0.5817
  697MOL0     H94063   5.613  12.844  10.736  0.7875  0.8515  1.1943
  697MOL0     H94064   5.511  12.958  10.653  1.2442 -1.9239 -1.3947
  697MOL0     H94065   5.514  12.916  10.951 -2.4060  0.0770 -1.3721
  697MOL0     H94066   5.446  13.046  10.861  0.8043  2.3117  1.6439
  697MOL0     H94067   5.676  13.126  10.796  0.5390  1.2072  1.7307
  697MOL0     H94068   5.735  12.964  10.846 -0.7754 -0.8048 -1.8959
  697MOL0     H94069   5.647  13.207  11.028  3.2961  3.3289 -2.0053
  697MOL0     H94070   5.694  13.036  11.085  2.0278 -0.8040 -0.8915
  697MOL0     H94071   5.871  13.221  11.078  3.0468 -1.9319  0.6297
  697MOL0     H94072   5.848  13.228  10.909 -1.8849  2.9185  1.3898
  697MOL0     H94073   5.955  13.011  10.878 -0.6446 -4.4377  1.0737
  697MOL0     H94074   6.039  13.080  11.027 -1.4311 -0.1287  4.6449
  697MOL0     H94075   5.103  12.439  10.611  1.8268 -0.5768  1.3781
  697MOL0     H94076   5.103  12.218  10.489  1.9530 -1.9705  0.2159
  697MOL0     H94077   5.053  12.002  10.060 -0.0014 -0.0227 -0.2354
  697MOL0     H94078   5.067  11.771   9.961  0.3994  0.2210  0.1133
  697MOL0     H94079   3.363  11.570   9.765  1.3258 -0.7723 -0.5139
  697MOL0     H94080   3.161  11.476   9.812 -0.6065  2.3473 -1.8188
  697MOL0     H94081   2.867  11.114   9.586  0.1367 -2.1165  0.5969
  697MOL0     H94082   2.647  11.041   9.590  1.7054  0.8194 -1.1716
  697MOL0     H94083   2.410  11.004   9.637 -1.2157 -0.3927  0.3939
  697MOL0     H94084   2.375  11.129   9.763  2.0929  0.6463  0.1837
  697MOL0     H94085   2.240  10.962   9.891 -0.1158  0.1808  0.2956
  697MOL0     H94086   2.282  10.841   9.761  1.3203  1.0929 -3.0819
  697MOL0     H94087   2.170  11.011   9.597  3.2823  3.5090  1.2413
  697MOL0     H94088   2.115  11.090   9.749  0.0141 -1.5675  1.8233
  697MOL0     H94089   1.963  10.923   9.625  1.2053 -2.0875 -1.0557
  697MOL0     H94090   2.064  10.797   9.691 -0.6803 -0.5601  1.9646
  697MOL0     H94091   1.836  10.889  10.033 -1.1680 -1.2491 -1.3620
  697MOL0     H94092   2.657  11.042  10.030  0.2503 -0.3305  0.1677
  697MOL0     H94093   2.818  11.184  10.127  1.3956  4.0302 -0.6909
  697MOL0     H94094   2.930  11.046  10.105  1.1057  0.9279  0.0118
  697MOL0     H94095   2.971  11.211  10.049 -1.9653  2.0837 -1.4818
  698MOL0     O94096   0.630   1.324   3.378  0.4321 -0.1946  0.5734
  698MOL0     C94097   0.597   1.246   3.287  0.1751 -0.7406 -0.3446
  698MOL0     O94098   0.680   1.212   3.179  0.1152  0.0289 -0.1227
  698MOL0     C94099   0.803   1.283   3.161  0.5230  0.7887 -1.0377
  698MOL0     C94100   0.811   1.410   3.094  0.6591  0.3564 -0.4340
  698MOL0     C94101   0.930   1.474   3.085 -0.1936 -0.7846  0.2611
  698MOL0     C94102   1.042   1.427   3.151  0.7244 -0.5477 -0.9486
  698MOL0     O94103   1.161   1.496   3.128 -0.4426  0.1088 -0.2244
  698MOL0     C94104   1.281   1.414   3.117  0.4436  0.0453 -0.0506
  698MOL0     C94105   1.376   1.449   3.229  0.2288  0.5157 -0.1354
  698MOL0     C94106   1.510   1.372   3.219 -0.1509  0.0396 -1.0429
  698MOL0     C94107   1.605   1.430   3.318 -0.4983  0.4860 -0.6802
  698MOL0     C94108   1.752   1.404   3.278 -0.3980  0.5148  0.3805
  698MOL0     C94109   1.834   1.433   3.408  0.0255  0.1880  0.3519
  698MOL0     C94110   1.987   1.410   3.389 -0.0651  0.2722  0.2500
  698MOL0     C94111   2.068   1.440   3.510 -0.2622 -0.2222  0.3682
  698MOL0     N94112   2.213   1.418   3.495  0.6062  1.3014  0.3513
  698MOL0     C94113   2.296   1.322   3.543  0.0973  0.0596  0.6632
  698MOL0     C94114   2.419   1.351   3.494 -0.6650  0.5719  0.2414
  698MOL0     C94115   2.546   1.275   3.490  0.8561 -0.1197 -0.8660
  698MOL0     C94116   2.643   1.313   3.610 -1.0384 -0.0459 -0.3387
  698MOL0     C94117   2.771   1.233   3.595  0.1955 -0.8528  0.0548
  698MOL0     C94118   2.749   1.088   3.622  0.2453 -0.2624 -0.0113
  698MOL0     O94119   2.870   1.017   3.647 -0.1078 -1.2135  0.6157
  698MOL0     C94120   2.869   0.882   3.666  0.3198  0.3800  0.0195
  698MOL0     C94121   2.749   0.808   3.638  0.2885  0.5101  0.6048
  698MOL0     C94122   2.743   0.664   3.655  0.0617 -0.2099  0.3712
  698MOL0     C94123   2.864   0.599   3.682 -0.6389 -0.3623  0.4762
  698MOL0     C94124   2.858   0.452   3.700 -0.3177  0.5569 -0.0097
  698MOL0     O94125   2.769   0.376   3.633  0.1163  0.1011  0.5138
  698MOL0     C94126   2.775   0.242   3.622 -0.4331  0.2856  0.6036
  698MOL0     C94127   2.671   0.178   3.548  0.5904  0.1080 -0.5265
  698MOL0     C94128   2.667   0.043   3.525  0.3230  0.9286  0.0079
  698MOL0     C94129   2.775  -0.044   3.570  0.2826 -0.5736 -0.7483
  698MOL0     O94130   2.765  -0.179   3.536  0.1807  0.7951 -0.0965
  698MOL0     C94131   2.833  -0.279   3.612 -0.0262  0.2203  0.2847
  698MOL0     C94132   2.754  -0.318   3.733  0.4678  0.5322  0.4563
  698MOL0     C94133   2.625  -0.394   3.697  0.9916  0.1208  0.1804
  698MOL0     C94134   2.637  -0.547   3.735  0.4361  0.0244  0.2307
  698MOL0     C94135   2.739  -0.629   3.650 -0.3242  0.2850 -0.1334
  698MOL0     C94136   2.709  -0.617   3.499  0.0249 -0.9489 -0.1212
  698MOL0     C94137   2.583  -0.676   3.441 -0.4253 -0.0295  0.5848
  698MOL0     C94138   2.548  -0.818   3.484 -0.2382  0.0217  0.1068
  698MOL0    Cl94139   2.399  -0.865   3.400  0.3269 -0.5112 -0.3495
  698MOL0     C94140   2.876   0.016   3.648 -0.2896  0.2411 -0.0463
  698MOL0     C94141   2.881   0.157   3.664  0.3355 -0.8521 -0.7490
  698MOL0     O94142   2.932   0.411   3.790  0.2525 -0.2512  0.7574
  698MOL0     C94143   2.987   0.669   3.699  0.1702  0.0676  0.3964
  698MOL0     C94144   2.981   0.812   3.699 -0.2341  0.2956 -0.2896
  698MOL0     N94145   2.412   1.475   3.431  0.3809 -1.1278 -0.1305
  698MOL0     N94146   2.292   1.511   3.437 -0.1305  0.0517  0.2192
  698MOL0     C94147   1.032   1.301   3.219  0.1141  0.1443 -0.7666
  698MOL0     C94148   0.918   1.225   3.222  0.5399 -1.0043  0.4519
  698MOL0     C94149   0.467   1.180   3.292 -0.5033  0.8948 -0.3165
  698MOL0     C94150   0.474   1.041   3.280 -0.1855  0.7233 -0.3293
  698MOL0     C94151   0.351   0.966   3.283 -0.0340 -0.2680 -0.5590
  698MOL0     C94152   0.232   1.021   3.289  0.1795 -0.1525 -0.5641
  698MOL0     O94153   0.116   0.942   3.297 -0.2776  0.5803 -0.1662
  698MOL0     C94154   0.023   0.969   3.404 -0.2156  1.4431  0.3777
  698MOL0     C94155  -0.121   0.933   3.367 -0.1138 -1.5154 -0.5765
  698MOL0     C94156  -0.219   0.969   3.475 -0.1822  0.2808  0.0867
  698MOL0     C94157  -0.364   0.999   3.422  0.2796  0.6131 -1.2176
  698MOL0     C94158  -0.364   1.127   3.349  0.6476 -0.3083  1.1485
  698MOL0     C94159  -0.359   1.241   3.311  1.2536  0.6350 -0.1896
  698MOL0     C94160   0.226   1.157   3.287 -0.4295 -0.0920 -0.2095
  698MOL0     C94161   0.339   1.235   3.300  0.3928 -0.0883 -0.1104
  698MOL0     C94162   0.323   1.384   3.283 -0.1359 -0.0762  0.1718
  698MOL0     H94163   0.721   1.449   3.049  0.3314  0.2671  0.1330
  698MOL0     H94164   0.930   1.566   3.028 -0.3063 -0.2497  1.0988
  698MOL0     H94165   1.250   1.309   3.118 -1.6810  0.6361  0.2195
  698MOL0     H94166   1.327   1.438   3.021  2.9352  0.8785  1.2514
  698MOL0     H94167   1.331   1.425   3.326  0.0883 -1.9554 -0.7476
  698MOL0     H94168   1.387   1.558   3.225  0.2251  0.5406  0.4667
  698MOL0     H94169   1.543   1.380   3.115  0.7363  1.1871 -0.7005
  698MOL0     H94170   1.485   1.266   3.232  1.2790 -0.1939  0.0986
  698MOL0     H94171   1.591   1.539   3.316 -3.8517  0.1647 -2.4094
  698MOL0     H94172   1.590   1.390   3.419  1.1400 -0.3824 -0.7519
  698MOL0     H94173   1.780   1.300   3.257 -1.7434 -0.3816  2.6648
  698MOL0     H94174   1.773   1.461   3.187 -3.5001  2.0613  0.4976
  698MOL0     H94175   1.838   1.539   3.435  2.5083  0.2852 -0.1013
  698MOL0     H94176   1.792   1.383   3.496 -1.7902 -1.1583 -1.1943
  698MOL0     H94177   2.016   1.467   3.300 -0.3200 -0.9236 -0.6354
  698MOL0     H94178   2.008   1.304   3.373  0.4872  0.6362 -1.7115
  698MOL0     H94179   2.064   1.547   3.535  1.4259 -0.6560  2.9588
  698MOL0     H94180   2.035   1.387   3.600  1.2279  1.3308  1.9039
  698MOL0     H94181   2.256   1.234   3.592 -1.6668 -0.8215 -2.0830
  698MOL0     H94182   2.505   1.174   3.500  1.0463 -0.3131 -1.8908
  698MOL0     H94183   2.603   1.296   3.399 -1.4689 -0.7604 -2.5689
  698MOL0     H94184   2.668   1.419   3.607  0.2602 -0.3363 -2.4703
  698MOL0     H94185   2.596   1.287   3.705 -2.4356  0.4081 -0.8747
  698MOL0     H94186   2.833   1.273   3.676 -1.1128  0.6869  0.3432
  698MOL0     H94187   2.823   1.252   3.500 -0.6312 -0.4563 -0.3295
  698MOL0     H94188   2.699   1.053   3.531  4.4691 -1.3307 -2.1482
  698MOL0     H94189   2.685   1.068   3.708 -0.3701  0.1280 -0.3691
  698MOL0     H94190   2.659   0.856   3.602  0.7281 -0.1556 -1.5517
  698MOL0     H94191   2.647   0.616   3.640 -1.0376  2.1299 -0.6962
  698MOL0     H94192   2.583   0.229   3.512  0.6430 -0.3920 -1.4041
  698MOL0     H94193   2.576   0.010   3.477  0.5580  1.4968 -0.8436
  698MOL0     H94194   2.850  -0.367   3.550 -1.8719  0.0657 -0.0427
  698MOL0     H94195   2.933  -0.249   3.644  1.6454 -2.0377 -2.4166
  698MOL0     H94196   2.814  -0.381   3.800 -0.9988 -1.0157  0.3686
  698MOL0     H94197   2.723  -0.235   3.797 -0.5148  1.1896 -0.8341
  698MOL0     H94198   2.538  -0.359   3.754 -1.8401 -2.7355 -2.0743
  698MOL0     H94199   2.600  -0.381   3.591 -0.3877 -3.3887 -0.0538
  698MOL0     H94200   2.539  -0.595   3.729  0.5673 -0.9235  3.7353
  698MOL0     H94201   2.658  -0.570   3.840 -3.2180  2.8263  1.7793
  698MOL0     H94202   2.737  -0.734   3.682  0.3613 -0.3780 -2.0988
  698MOL0     H94203   2.839  -0.597   3.681 -0.1940 -2.2136  2.5213
  698MOL0     H94204   2.712  -0.513   3.465 -1.8828 -0.5434  0.8313
  698MOL0     H94205   2.783  -0.677   3.445 -0.4798  0.8794 -3.0809
  698MOL0     H94206   2.593  -0.669   3.332  1.6918  1.3576  0.7991
  698MOL0     H94207   2.503  -0.606   3.466  0.8905  2.2871 -1.2479
  698MOL0     H94208   2.638  -0.879   3.473 -0.4018 -0.8561  2.8989
  698MOL0     H94209   2.527  -0.825   3.591 -2.1070 -0.6765 -0.2681
  698MOL0     H94210   2.961  -0.037   3.690  0.1941  1.4908  0.6186
  698MOL0     H94211   2.970   0.205   3.704 -0.5982 -1.4689  2.2798
  698MOL0     H94212   3.083   0.625   3.724  0.3018  0.7283  1.0996
  698MOL0     H94213   3.069   0.866   3.731 -1.7146  1.1319  2.7902
  698MOL0     H94214   1.122   1.253   3.256  0.0123  0.1549 -0.5109
  698MOL0     H94215   0.916   1.125   3.263  1.5238 -1.2317 -0.0428
  698MOL0     H94216   0.578   1.012   3.292  0.2544  3.0607  2.7750
  698MOL0     H94217   0.350   0.857   3.276  2.5350 -0.3390 -0.4732
  698MOL0     H94218   0.040   1.074   3.432 -1.0759  2.1519 -1.6120
  698MOL0     H94219   0.054   0.905   3.487  1.4192  1.3551 -0.2558
  698MOL0     H94220  -0.117   0.827   3.342  3.1526 -1.6263 -0.1071
  698MOL0     H94221  -0.149   0.988   3.277 -2.5591 -1.8313 -0.0670
  698MOL0     H94222  -0.180   1.046   3.541 -0.5538  1.6974 -1.2768
  698MOL0     H94223  -0.218   0.881   3.539  0.4116  0.6343  0.5656
  698MOL0     H94224  -0.390   0.914   3.360  2.9668  0.0799 -1.7211
  698MOL0     H94225  -0.427   1.002   3.512  2.5040 -1.1489  0.5496
  698MOL0     H94226  -0.352   1.341   3.273  0.6693  0.6334 -0.3126
  698MOL0     H94227   0.129   1.205   3.291 -1.3484 -1.8044 -1.0153
  698MOL0     H94228   0.219   1.417   3.273 -1.3178 -3.2716  0.7043
  698MOL0     H94229   0.358   1.410   3.383  0.6790 -0.8984  0.1124
  698MOL0     H94230   0.388   1.422   3.204 -1.7342  0.6491 -0.8517
  699MOL0     O94231   9.793   3.629   0.380  0.5597 -0.3055  0.1097
  699MOL0     C94232   9.722   3.690   0.305  0.4885  0.3174 -0.3029
  699MOL0     O94233   9.770   3.755   0.190 -0.0582 -0.4459 -0.0837
  699MOL0     C94234   9.892   3.748   0.138 -0.2418  0.2015  0.4854
  699MOL0     C94235  10.005   3.692   0.207  0.0909  0.5419  0.0442
  699MOL0     C94236  10.123   3.663   0.129 -0.3143 -0.4452  0.1085
  699MOL0     C94237  10.131   3.691  -0.010 -0.6164  0.7351 -0.3908
  699MOL0     O94238  10.250   3.658  -0.064 -0.6636  0.6080 -0.2230
  699MOL0     C94239  10.271   3.702  -0.197 -0.0940 -0.1445 -0.7388
  699MOL0     C94240  10.412   3.646  -0.248 -0.6689  1.3051 -0.3163
  699MOL0     C94241  10.533   3.704  -0.182 -1.0024 -0.4612  0.1662
  699MOL0     C94242  10.647   3.593  -0.177  0.9423 -0.1521 -0.2411
  699MOL0     C94243  10.780   3.668  -0.150  0.1762  0.2582 -0.5219
  699MOL0     C94244  10.896   3.573  -0.165  0.2305 -0.1162  0.7277
  699MOL0     C94245  11.032   3.636  -0.141  0.3212 -0.3058 -0.1873
  699MOL0     C94246  11.087   3.708  -0.254 -0.7473 -0.7115 -0.1879
  699MOL0     N94247  11.121   3.631  -0.380  0.3237  0.4393  0.5302
  699MOL0     C94248  11.188   3.509  -0.386 -0.7906 -0.6528 -0.8611
  699MOL0     C94249  11.202   3.480  -0.516 -0.3140 -0.7393 -0.8814
  699MOL0     C94250  11.272   3.362  -0.565 -0.9804  0.2391  0.4818
  699MOL0     C94251  11.419   3.353  -0.540 -0.4865  0.0258  0.3233
  699MOL0     C94252  11.481   3.224  -0.591 -0.4207  0.1989 -0.1367
  699MOL0     C94253  11.633   3.209  -0.566 -0.5321  0.1009  1.0067
  699MOL0     O94254  11.673   3.068  -0.565 -0.2148 -0.6298  0.2869
  699MOL0     C94255  11.808   3.030  -0.563 -0.7436 -0.0405  0.0254
  699MOL0     C94256  11.917   3.117  -0.582  0.2715  0.0519  0.0229
  699MOL0     C94257  12.046   3.065  -0.574 -0.1855  0.1327  0.5743
  699MOL0     C94258  12.074   2.928  -0.543 -0.9561 -1.1870  0.6098
  699MOL0     C94259  12.214   2.886  -0.529  0.4377  0.2923  0.6358
  699MOL0     O94260  12.308   2.964  -0.584  0.1852  0.6811  0.1072
  699MOL0     C94261  12.440   2.916  -0.562  0.2454 -0.1054  0.0566
  699MOL0     C94262  12.486   2.821  -0.650  0.0812 -0.0056 -0.4794
  699MOL0     C94263  12.612   2.761  -0.620  0.9892 -0.3388  0.5696
  699MOL0     C94264  12.680   2.805  -0.502  0.2850  0.0403  0.2219
  699MOL0     O94265  12.807   2.752  -0.481 -0.0315  0.0271  0.4828
  699MOL0     C94266  12.913   2.825  -0.535  0.4431  0.1136  0.1377
  699MOL0     C94267  12.983   2.754  -0.647 -0.0473  0.2431 -0.1466
  699MOL0     C94268  13.060   2.639  -0.590 -0.1485 -0.8300  0.3977
  699MOL0     C94269  13.192   2.681  -0.537 -0.5673  0.9739  0.3911
  699MOL0     C94270  13.306   2.576  -0.504  0.5479  0.1005  0.4231
  699MOL0     C94271  13.436   2.651  -0.451 -0.1995  0.8970 -0.3900
  699MOL0     C94272  13.554   2.556  -0.432  1.1604  0.4672  0.2069
  699MOL0     C94273  13.680   2.633  -0.409  0.0973 -0.3183 -0.7015
  699MOL0    Cl94274  13.701   2.688  -0.235 -0.0896 -0.1400  0.4994
  699MOL0     C94275  12.628   2.907  -0.420 -0.6086  0.3470  0.1774
  699MOL0     C94276  12.508   2.964  -0.447 -0.3621  0.1652  0.7039
  699MOL0     O94277  12.231   2.781  -0.467 -0.0709  0.4227  0.0550
  699MOL0     C94278  11.964   2.845  -0.541 -0.3652  0.5623 -0.4663
  699MOL0     C94279  11.833   2.895  -0.546 -0.4558  0.3443 -0.3652
  699MOL0     N94280  11.139   3.573  -0.595 -0.4444 -0.4594  0.9612
  699MOL0     N94281  11.084   3.655  -0.513  0.6482 -0.2052 -0.4238
  699MOL0     C94282  10.028   3.759  -0.070  0.4100 -0.9918 -0.3433
  699MOL0     C94283   9.907   3.797   0.004 -0.9154 -0.2046  1.0125
  699MOL0     C94284   9.573   3.702   0.336  0.1761  0.2268 -0.5126
  699MOL0     C94285   9.512   3.805   0.272  0.1544 -0.2524 -0.0931
  699MOL0     C94286   9.372   3.824   0.293 -0.6709 -1.2388  0.1384
  699MOL0     C94287   9.295   3.745   0.366 -0.6872 -0.1688 -1.7797
  699MOL0     O94288   9.165   3.768   0.366  0.3816  0.4922  0.5586
  699MOL0     C94289   9.076   3.683   0.448 -0.3571  0.4403 -0.3199
  699MOL0     C94290   8.935   3.733   0.449 -0.5853  0.3361  0.0192
  699MOL0     C94291   8.845   3.617   0.493  0.3157 -0.9674  0.8511
  699MOL0     C94292   8.698   3.671   0.487 -0.0579 -0.0555 -0.6207
  699MOL0     C94293   8.657   3.685   0.346 -0.5660 -0.7996 -0.3092
  699MOL0     C94294   8.641   3.700   0.227 -0.3198  0.1509  0.9221
  699MOL0     C94295   9.361   3.637   0.426 -0.0366 -0.3184  0.1641
  699MOL0     C94296   9.493   3.618   0.418 -0.6516  1.6051  0.6982
  699MOL0     C94297   9.561   3.508   0.509  0.1737 -0.0424  0.6096
  699MOL0     H94298  10.011   3.677   0.314 -2.0759 -0.7384  0.0368
  699MOL0     H94299  10.207   3.627   0.187 -1.3924  0.2965  2.2139
  699MOL0     H94300  10.191   3.673  -0.265 -0.5586 -1.2207  0.2226
  699MOL0     H94301  10.263   3.811  -0.207 -0.0048 -0.2816 -2.7406
  699MOL0     H94302  10.426   3.652  -0.356 -1.9016 -2.1305 -0.7690
  699MOL0     H94303  10.413   3.538  -0.232  2.6718  1.5366  2.1826
  699MOL0     H94304  10.516   3.733  -0.077 -1.2398  0.1820 -0.0410
  699MOL0     H94305  10.564   3.799  -0.226  3.7887 -0.9905  1.8589
  699MOL0     H94306  10.623   3.516  -0.103 -0.4171  0.6404  0.1808
  699MOL0     H94307  10.653   3.546  -0.276 -0.7280 -0.1754 -0.3705
  699MOL0     H94308  10.788   3.744  -0.228 -3.1368  0.1525 -1.0702
  699MOL0     H94309  10.786   3.722  -0.055  0.2351  2.2669 -1.6262
  699MOL0     H94310  10.881   3.487  -0.099  0.2390 -0.0299  0.8423
  699MOL0     H94311  10.882   3.530  -0.264  0.8592  0.0332  0.5701
  699MOL0     H94312  11.101   3.555  -0.113  0.2957 -0.0352  0.6904
  699MOL0     H94313  11.025   3.705  -0.057 -1.1006 -0.2710 -0.3244
  699MOL0     H94314  11.018   3.789  -0.278 -0.6388  0.4154  2.8231
  699MOL0     H94315  11.182   3.758  -0.233 -1.2238 -0.2854  1.0438
  699MOL0     H94316  11.236   3.459  -0.302  0.3993  1.8544  0.0523
  699MOL0     H94317  11.216   3.278  -0.523 -2.6988 -0.0235 -2.1031
  699MOL0     H94318  11.265   3.359  -0.674  0.9394  0.6187  0.3067
  699MOL0     H94319  11.467   3.435  -0.594 -0.9898 -0.5116 -0.9818
  699MOL0     H94320  11.437   3.367  -0.433 -0.0028  1.3496  0.0869
  699MOL0     H94321  11.467   3.198  -0.696 -0.3379  0.9882 -0.3447
  699MOL0     H94322  11.427   3.144  -0.539 -2.6863  1.1721 -0.8893
  699MOL0     H94323  11.653   3.247  -0.466  1.5125 -1.1334  1.1230
  699MOL0     H94324  11.692   3.265  -0.640 -0.0420  1.4248  2.3598
  699MOL0     H94325  11.898   3.224  -0.590 -0.6918  0.0394  1.6018
  699MOL0     H94326  12.129   3.131  -0.595 -1.6845  1.6938 -0.8193
  699MOL0     H94327  12.425   2.781  -0.730 -2.4047 -0.8348  1.7004
  699MOL0     H94328  12.662   2.693  -0.689 -0.1950 -0.4368 -0.2068
  699MOL0     H94329  12.877   2.915  -0.586 -0.7612 -0.0848  0.6209
  699MOL0     H94330  12.980   2.853  -0.453  0.7751 -2.3470  0.7923
  699MOL0     H94331  12.905   2.715  -0.713 -1.0695 -1.7599  2.0743
  699MOL0     H94332  13.051   2.821  -0.700 -2.3832  2.3722 -0.6594
  699MOL0     H94333  13.003   2.578  -0.519  0.9175 -2.7226 -0.3070
  699MOL0     H94334  13.081   2.585  -0.682  0.0294 -0.0122 -0.0563
  699MOL0     H94335  13.173   2.744  -0.450 -0.9175  1.7100 -0.2020
  699MOL0     H94336  13.244   2.748  -0.606  2.8436 -1.2500  0.5447
  699MOL0     H94337  13.335   2.515  -0.590 -3.3403 -2.3220  0.5877
  699MOL0     H94338  13.266   2.512  -0.425 -1.4339  0.8070  0.0637
  699MOL0     H94339  13.468   2.719  -0.531 -0.0016  1.5939  0.2765
  699MOL0     H94340  13.420   2.707  -0.359 -1.5419  3.0683 -1.8622
  699MOL0     H94341  13.550   2.495  -0.523 -2.4345 -0.2329  0.6540
  699MOL0     H94342  13.545   2.491  -0.344  1.6640  1.7405  1.2259
  699MOL0     H94343  13.765   2.572  -0.439  2.4304  2.3854  0.0268
  699MOL0     H94344  13.680   2.722  -0.473 -0.8630  0.5931  0.5153
  699MOL0     H94345  12.687   2.941  -0.336 -1.2798  0.0159  0.7894
  699MOL0     H94346  12.466   3.032  -0.373 -0.7958 -2.3275  2.8854
  699MOL0     H94347  11.989   2.742  -0.517  1.9677  1.2059  0.0901
  699MOL0     H94348  11.738   2.843  -0.549 -0.1449 -0.1910 -3.1400
  699MOL0     H94349  10.022   3.797  -0.172 -0.5464 -2.2683 -0.7891
  699MOL0     H94350   9.834   3.856  -0.051  1.7552 -0.3039 -3.0718
  699MOL0     H94351   9.549   3.889   0.213 -1.0747 -0.7206 -1.6154
  699MOL0     H94352   9.311   3.903   0.252 -3.3539 -1.9188  2.5256
  699MOL0     H94353   9.106   3.683   0.553 -0.0337  0.1417 -0.4093
  699MOL0     H94354   9.079   3.577   0.420 -0.6600  0.3881 -0.1638
  699MOL0     H94355   8.911   3.758   0.345  0.3873  1.3744  0.0177
  699MOL0     H94356   8.918   3.824   0.507  1.3244  0.7698 -0.0205
  699MOL0     H94357   8.864   3.592   0.598  0.3498  2.0529  1.6817
  699MOL0     H94358   8.856   3.538   0.419  4.3132  0.4274 -0.3034
  699MOL0     H94359   8.635   3.596   0.535  0.9503  0.1341  1.0836
  699MOL0     H94360   8.670   3.757   0.548 -1.0182 -2.0777  1.9705
  699MOL0     H94361   8.619   3.704   0.122  1.4031  0.7164  0.5409
  699MOL0     H94362   9.315   3.573   0.500 -0.1363 -1.4482 -0.8534
  699MOL0     H94363   9.622   3.564   0.580  0.1802  4.5678 -2.5975
  699MOL0     H94364   9.498   3.434   0.559  1.0603 -0.3990  1.2224
  699MOL0     H94365   9.621   3.448   0.440 -2.2370 -2.7908  0.7109
  700MOL0     O94366   1.024   0.071   1.647 -0.0208 -0.2941  0.5319
  700MOL0     C94367   0.990   0.131   1.749  0.2785 -0.2130  0.6077
  700MOL0     O94368   1.072   0.163   1.859  0.5493 -1.1208 -0.2732
  700MOL0     C94369   1.210   0.156   1.863  1.4482 -0.1349 -0.9400
  700MOL0     C94370   1.258   0.224   1.974  0.4705 -0.8530 -1.5120
  700MOL0     C94371   1.386   0.235   2.009  0.1110  0.4051  0.1589
  700MOL0     C94372   1.480   0.177   1.920 -0.2618 -1.0209  0.4220
  700MOL0     O94373   1.613   0.185   1.956  0.1878  0.2665  0.2821
  700MOL0     C94374   1.710   0.201   1.856 -0.6943  0.1389  0.5381
  700MOL0     C94375   1.812   0.313   1.888  0.1349  0.2299  0.2111
  700MOL0     C94376   1.951   0.303   1.825  0.1238  0.0074  0.0897
  700MOL0     C94377   2.024   0.195   1.897  0.9264 -0.6558  0.0181
  700MOL0     C94378   2.166   0.192   1.843 -0.2304 -0.2106 -0.1632
  700MOL0     C94379   2.263   0.088   1.895  0.1415  0.0324  0.1236
  700MOL0     C94380   2.412   0.114   1.857  0.9218  0.5478  0.1673
  700MOL0     C94381   2.498   0.003   1.911 -0.5448 -0.3262 -1.0552
  700MOL0     N94382   2.578   0.040   2.031  0.3392 -0.0702 -0.5166
  700MOL0     C94383   2.692   0.117   2.042  1.2099  0.1025 -0.2048
  700MOL0     C94384   2.708   0.145   2.173 -0.2937 -0.2272  0.8861
  700MOL0     C94385   2.817   0.226   2.223 -0.4313 -0.4263  0.6590
  700MOL0     C94386   2.945   0.155   2.269  0.6830  0.0346 -0.4721
  700MOL0     C94387   2.911   0.031   2.338 -0.0507 -0.5220 -0.1930
  700MOL0     C94388   3.028  -0.025   2.417  1.1636  0.6135 -0.1982
  700MOL0     O94389   3.130  -0.054   2.324 -0.5529  0.2934 -0.0512
  700MOL0     C94390   3.232  -0.138   2.372  0.2401  0.2221 -0.3319
  700MOL0     C94391   3.312  -0.206   2.281 -0.5510 -0.4259 -0.2005
  700MOL0     C94392   3.418  -0.285   2.324  0.0518 -0.0643  0.1692
  700MOL0     C94393   3.440  -0.318   2.451 -0.2886 -0.1639 -0.5412
  700MOL0     C94394   3.550  -0.396   2.498  0.0361 -0.2726  0.5254
  700MOL0     O94395   3.561  -0.424   2.628  0.3003 -0.1130 -0.5931
  700MOL0     C94396   3.682  -0.452   2.690 -0.3786  0.1971 -0.5314
  700MOL0     C94397   3.679  -0.541   2.799  0.0581  0.5515  0.1319
  700MOL0     C94398   3.795  -0.587   2.859 -0.0824 -0.1078 -0.1660
  700MOL0     C94399   3.922  -0.549   2.818  0.6625  0.2847  0.9654
  700MOL0     O94400   4.022  -0.572   2.904  0.2326  0.5113  0.3396
  700MOL0     C94401   4.155  -0.567   2.848 -0.5284 -0.0676  0.0923
  700MOL0     C94402   4.248  -0.597   2.967 -0.1365  0.0640  0.1083
  700MOL0     C94403   4.274  -0.479   3.064  0.8597 -0.3489  0.1689
  700MOL0     C94404   4.302  -0.532   3.208  0.6764 -0.8018  0.3646
  700MOL0     C94405   4.417  -0.633   3.224 -0.3175  0.9485  0.5783
  700MOL0     C94406   4.458  -0.675   3.366  0.3095 -0.3421  0.0429
  700MOL0     C94407   4.342  -0.732   3.449 -0.6786  0.4562  0.1538
  700MOL0     C94408   4.388  -0.797   3.578 -0.6590  0.0397  0.0023
  700MOL0    Cl94409   4.237  -0.860   3.656 -0.1199  0.0352  0.5446
  700MOL0     C94410   3.932  -0.461   2.703 -0.1180  0.3080  0.2389
  700MOL0     C94411   3.811  -0.405   2.654  0.7217  0.5517  0.1759
  700MOL0     O94412   3.630  -0.434   2.415 -0.4500  0.7604  0.7948
  700MOL0     C94413   3.354  -0.253   2.542  0.2769  0.8815 -0.0870
  700MOL0     C94414   3.255  -0.162   2.506  0.1834 -0.2914 -0.2622
  700MOL0     N94415   2.608   0.097   2.246  0.6640  0.2714  0.4489
  700MOL0     N94416   2.533   0.029   2.162 -0.1328  0.3506 -0.0798
  700MOL0     C94417   1.436   0.126   1.792 -0.2517 -0.4140  0.4242
  700MOL0     C94418   1.300   0.120   1.765 -0.8960  0.3323 -0.3107
  700MOL0     C94419   0.845   0.169   1.763 -0.2083 -0.9998  0.2041
  700MOL0     C94420   0.819   0.304   1.807 -0.2191  1.0232  0.0935
  700MOL0     C94421   0.689   0.359   1.795 -0.4478  0.2497  0.1917
  700MOL0     C94422   0.579   0.272   1.762 -0.1456 -0.4849  0.7868
  700MOL0     O94423   0.456   0.325   1.736  0.3366 -0.1168  0.2777
  700MOL0     C94424   0.415   0.446   1.800 -0.5361  1.3377 -0.0228
  700MOL0     C94425   0.261   0.447   1.815 -0.0135 -0.4623  0.3743
  700MOL0     C94426   0.180   0.429   1.688 -0.4709  0.0263  0.6266
  700MOL0     C94427   0.214   0.504   1.557  0.0839 -0.0023 -0.4528
  700MOL0     C94428   0.211   0.652   1.578 -0.7981  0.4663 -0.0179
  700MOL0     C94429   0.218   0.774   1.588  0.5001  0.6173 -0.6998
  700MOL0     C94430   0.610   0.138   1.737  0.6864  0.2209  0.0895
  700MOL0     C94431   0.740   0.089   1.722  0.0548 -0.4419 -1.2133
  700MOL0     C94432   0.761  -0.051   1.669 -0.3319 -0.7860  0.2319
  700MOL0     H94433   1.178   0.258   2.039 -0.4224  0.6227 -3.2854
  700MOL0     H94434   1.415   0.271   2.107  1.4414 -2.7989  1.0861
  700MOL0     H94435   1.754   0.100   1.855 -2.0675 -0.4787 -0.1795
  700MOL0     H94436   1.661   0.220   1.759 -0.1484 -1.1293 -0.0121
  700MOL0     H94437   1.815   0.312   1.997 -1.6467 -1.8858  0.3154
  700MOL0     H94438   1.768   0.412   1.872  0.1693  1.2113  4.9156
  700MOL0     H94439   2.006   0.397   1.831 -0.4223  0.3648 -0.3147
  700MOL0     H94440   1.931   0.280   1.720  0.8477 -0.9842  0.1650
  700MOL0     H94441   2.023   0.225   2.002 -1.5407  2.1231 -0.6672
  700MOL0     H94442   1.968   0.102   1.898 -0.8412  0.3768  0.2718
  700MOL0     H94443   2.153   0.176   1.736 -4.5613 -0.9980  0.2830
  700MOL0     H94444   2.212   0.285   1.879  0.5801 -1.3928  2.0521
  700MOL0     H94445   2.263   0.097   2.004  0.5738  1.0990  0.0443
  700MOL0     H94446   2.230  -0.007   1.852  0.6943  0.5724 -1.5675
  700MOL0     H94447   2.437   0.211   1.902 -0.8952  0.0022  2.5879
  700MOL0     H94448   2.421   0.127   1.749  1.1586 -0.1504  0.0985
  700MOL0     H94449   2.440  -0.083   1.944  1.1343 -0.1406  3.0146
  700MOL0     H94450   2.560  -0.034   1.829  0.5045 -3.4381  0.9426
  700MOL0     H94451   2.756   0.144   1.959  1.4903 -0.2333 -0.1003
  700MOL0     H94452   2.846   0.296   2.145  0.5972 -2.0629 -0.4748
  700MOL0     H94453   2.770   0.280   2.307  0.6417  0.0768  0.9515
  700MOL0     H94454   3.006   0.134   2.181 -3.2334 -1.7723 -3.0445
  700MOL0     H94455   3.003   0.212   2.343 -0.5105  0.2350  0.3339
  700MOL0     H94456   2.871  -0.048   2.272 -1.1734  0.7820 -1.1356
  700MOL0     H94457   2.836   0.059   2.413  1.1563  2.8618 -0.1161
  700MOL0     H94458   2.995  -0.117   2.466  1.1849  0.5485 -0.3060
  700MOL0     H94459   3.051   0.053   2.490 -0.6495 -0.5307  1.7291
  700MOL0     H94460   3.298  -0.200   2.174 -0.9845  1.6053 -0.0648
  700MOL0     H94461   3.472  -0.334   2.243 -0.4815 -1.3637  0.5638
  700MOL0     H94462   3.587  -0.573   2.847  0.7244  0.2544  1.2202
  700MOL0     H94463   3.779  -0.654   2.943 -0.5401  0.0065 -0.1636
  700MOL0     H94464   4.171  -0.644   2.772 -0.8131  1.0967 -1.1790
  700MOL0     H94465   4.173  -0.468   2.807  1.8752 -0.9908 -1.3285
  700MOL0     H94466   4.219  -0.689   3.020 -0.9879  0.5985  0.6009
  700MOL0     H94467   4.344  -0.624   2.922  0.0316  1.1789 -0.2149
  700MOL0     H94468   4.355  -0.421   3.019 -0.0672 -0.0436 -1.1501
  700MOL0     H94469   4.181  -0.423   3.077 -0.7262 -2.9650  0.9033
  700MOL0     H94470   4.204  -0.572   3.234  0.2452 -1.2309 -1.7358
  700MOL0     H94471   4.327  -0.449   3.275 -4.1198 -0.2915  1.8978
  700MOL0     H94472   4.502  -0.604   3.161  0.9088 -3.2245  0.0330
  700MOL0     H94473   4.400  -0.724   3.167  0.6202 -0.8406  2.9882
  700MOL0     H94474   4.539  -0.749   3.367  1.7814  1.2192  0.9631
  700MOL0     H94475   4.497  -0.588   3.418 -1.6345  0.1061  0.8510
  700MOL0     H94476   4.283  -0.801   3.388  1.9068  0.2173 -2.3504
  700MOL0     H94477   4.275  -0.652   3.482  0.1763  0.5216  1.7978
  700MOL0     H94478   4.456  -0.881   3.567 -1.7600 -0.7619 -0.8888
  700MOL0     H94479   4.445  -0.720   3.631 -0.6096 -0.3353  0.4931
  700MOL0     H94480   4.023  -0.427   2.654 -0.4743  5.4555  2.5072
  700MOL0     H94481   3.807  -0.340   2.568 -4.5801 -1.6658 -1.6632
  700MOL0     H94482   3.371  -0.284   2.644  3.0549  1.7670 -0.1916
  700MOL0     H94483   3.202  -0.110   2.586  1.5852 -1.3492  1.4309
  700MOL0     H94484   1.506   0.094   1.715  0.3938 -0.1803  0.9010
  700MOL0     H94485   1.274   0.080   1.667 -0.3172 -3.0471  0.7923
  700MOL0     H94486   0.895   0.375   1.839  0.8374 -0.2989  0.6318
  700MOL0     H94487   0.676   0.466   1.805 -0.0507  0.3981 -0.7506
  700MOL0     H94488   0.442   0.533   1.740  1.6402 -1.5928 -3.7662
  700MOL0     H94489   0.451   0.450   1.903  1.1277  0.7326 -0.5505
  700MOL0     H94490   0.229   0.543   1.856 -1.2741 -1.4794  1.8908
  700MOL0     H94491   0.238   0.367   1.886 -0.1593  0.9396  1.9598
  700MOL0     H94492   0.075   0.447   1.715 -1.3840 -0.8274 -2.0519
  700MOL0     H94493   0.189   0.322   1.669  0.1151  0.0384  0.8131
  700MOL0     H94494   0.309   0.461   1.524  2.4119  2.1167  2.8512
  700MOL0     H94495   0.145   0.486   1.474  1.5276 -1.0543 -1.4643
  700MOL0     H94496   0.234   0.877   1.614  2.3353  1.2618 -3.8348
  700MOL0     H94497   0.529   0.072   1.709  1.6851 -0.8547 -0.3972
  700MOL0     H94498   0.841  -0.110   1.714  2.9645  1.5091 -2.1405
  700MOL0     H94499   0.667  -0.108   1.670 -0.6965 -0.2877 -1.3291
  700MOL0     H94500   0.792  -0.056   1.564  2.1923 -2.7373  0.9763
  701MOL0     O94501   2.625   6.310   0.103 -0.6129  0.5262 -0.2934
  701MOL0     C94502   2.569   6.318  -0.007 -0.4428 -0.1896  0.5992
  701MOL0     O94503   2.632   6.368  -0.119 -0.2864  0.0418  0.2919
  701MOL0     C94504   2.768   6.385  -0.114  0.0690 -0.0515  0.2742
  701MOL0     C94505   2.822   6.476  -0.027 -0.1739 -1.0758 -0.1276
  701MOL0     C94506   2.959   6.498  -0.017 -0.1709  0.7306 -0.4325
  701MOL0     C94507   3.043   6.449  -0.115  0.3911  0.7074  0.1073
  701MOL0     O94508   3.166   6.495  -0.124 -0.1417 -0.8151  0.3015
  701MOL0     C94509   3.220   6.546  -0.249  0.2372 -0.3335  0.4295
  701MOL0     C94510   3.342   6.634  -0.214  0.9249 -0.0468 -0.7376
  701MOL0     C94511   3.443   6.534  -0.147  0.5001  0.1548 -0.6746
  701MOL0     C94512   3.521   6.611  -0.038  0.1517 -0.3831  0.1611
  701MOL0     C94513   3.656   6.548  -0.007  0.2156 -0.1454  0.8328
  701MOL0     C94514   3.762   6.655   0.052 -0.1028  0.6035  0.8012
  701MOL0     C94515   3.729   6.696   0.199  0.2467  0.2440  0.0396
  701MOL0     C94516   3.728   6.576   0.296 -0.6704  0.3769 -0.5365
  701MOL0     N94517   3.786   6.610   0.432  0.2446  0.0548  0.1726
  701MOL0     C94518   3.916   6.624   0.466  0.1731 -0.8756 -0.5494
  701MOL0     C94519   3.916   6.689   0.586  0.4252  0.3193 -0.2452
  701MOL0     C94520   4.034   6.741   0.661  0.8075 -0.0662 -0.7182
  701MOL0     C94521   4.062   6.883   0.613 -0.1455  1.0707 -0.5155
  701MOL0     C94522   4.158   6.959   0.704  0.0794  0.3256 -0.4318
  701MOL0     C94523   4.178   7.109   0.673  0.4508 -0.1297 -0.1719
  701MOL0     O94524   4.222   7.127   0.534  0.9109 -0.7573 -0.6491
  701MOL0     C94525   4.348   7.102   0.496 -0.3951  0.2142  0.5267
  701MOL0     C94526   4.460   7.051   0.571 -0.1055  0.4116  1.0325
  701MOL0     C94527   4.587   7.043   0.521  0.3030 -0.0974 -0.7949
  701MOL0     C94528   4.606   7.072   0.388 -0.6819  0.2181  0.0258
  701MOL0     C94529   4.748   7.077   0.330  0.2623  0.6696  0.1244
  701MOL0     O94530   4.846   7.008   0.400 -0.4659 -0.4936  0.0922
  701MOL0     C94531   4.974   6.991   0.335 -0.0128 -0.0311 -0.5702
  701MOL0     C94532   5.028   6.863   0.327  0.3184 -0.1526  0.4674
  701MOL0     C94533   5.154   6.840   0.267  0.1569  0.3261  0.1892
  701MOL0     C94534   5.224   6.939   0.204  0.6088 -0.8509  0.0794
  701MOL0     O94535   5.346   6.912   0.154  0.9280  0.2953 -0.5379
  701MOL0     C94536   5.412   7.003   0.071 -0.5774  0.4598 -0.2041
  701MOL0     C94537   5.557   6.949   0.044  0.3386  0.7298  1.3125
  701MOL0     C94538   5.644   7.054  -0.029 -0.4385  0.1532 -0.2830
  701MOL0     C94539   5.787   6.997  -0.059  0.6122 -0.1263 -0.6635
  701MOL0     C94540   5.863   7.098  -0.139  0.0075 -0.1518  0.4445
  701MOL0     C94541   5.999   7.036  -0.188 -0.6017  0.4588  0.0441
  701MOL0     C94542   6.101   7.144  -0.232  0.6560 -0.7450 -0.3917
  701MOL0     C94543   6.233   7.082  -0.276 -1.2873  0.2620 -0.5661
  701MOL0    Cl94544   6.362   7.211  -0.315  0.2852 -0.5351 -0.0732
  701MOL0     C94545   5.163   7.070   0.207  0.1195 -0.6249  0.2023
  701MOL0     C94546   5.043   7.095   0.281 -0.6835  0.3722 -0.3989
  701MOL0     O94547   4.760   7.134   0.218 -0.0255  0.3779 -0.8718
  701MOL0     C94548   4.503   7.121   0.312 -0.3058 -0.0142 -0.1924
  701MOL0     C94549   4.373   7.137   0.358  0.3297 -0.8917  0.2301
  701MOL0     N94550   3.789   6.721   0.621  0.3291 -0.0470 -0.3912
  701MOL0     N94551   3.713   6.681   0.527 -0.6180 -0.4029 -0.2651
  701MOL0     C94552   2.988   6.376  -0.221 -0.0911  0.6488  0.6012
  701MOL0     C94553   2.848   6.335  -0.214 -0.8215  0.0875 -0.5755
  701MOL0     C94554   2.426   6.285  -0.005  0.2550  0.6664 -0.3531
  701MOL0     C94555   2.356   6.295  -0.124 -0.2323  1.0408  0.3043
  701MOL0     C94556   2.218   6.264  -0.137 -0.0057 -0.3172  0.5312
  701MOL0     C94557   2.147   6.218  -0.032  0.0859  0.4990 -0.3943
  701MOL0     O94558   2.017   6.178  -0.042  0.0761  0.0548 -0.0302
  701MOL0     C94559   1.912   6.280  -0.032  0.4800  0.1212 -0.2276
  701MOL0     C94560   1.934   6.403  -0.114  0.6526 -0.2995  0.2924
  701MOL0     C94561   1.812   6.502  -0.105  0.0293 -0.7874 -1.3277
  701MOL0     C94562   1.778   6.544   0.040  0.2684  0.3826 -0.4483
  701MOL0     C94563   1.892   6.597   0.108 -0.0494  0.4682  0.6101
  701MOL0     C94564   1.982   6.640   0.170 -0.1835 -0.7308  0.0269
  701MOL0     C94565   2.210   6.217   0.092  0.3568 -0.1335 -0.3088
  701MOL0     C94566   2.351   6.246   0.109 -0.4475  0.1788  0.3586
  701MOL0     C94567   2.400   6.234   0.250 -0.1352 -0.2453  0.3897
  701MOL0     H94568   2.761   6.519   0.052  0.8893 -3.1483  1.9768
  701MOL0     H94569   3.012   6.559   0.055  2.7572 -0.8706 -1.0663
  701MOL0     H94570   3.252   6.457  -0.303 -0.1111 -1.2141  1.6386
  701MOL0     H94571   3.140   6.595  -0.305 -0.4503  0.2836  1.9062
  701MOL0     H94572   3.322   6.720  -0.149  1.0115  0.0332 -0.8155
  701MOL0     H94573   3.378   6.672  -0.310 -0.5364  0.9972 -0.9018
  701MOL0     H94574   3.517   6.499  -0.221  1.4566 -0.2943  0.4685
  701MOL0     H94575   3.397   6.443  -0.106 -0.0523  0.2973 -0.9696
  701MOL0     H94576   3.537   6.714  -0.073  2.1508 -0.9828 -0.8392
  701MOL0     H94577   3.472   6.626   0.059  4.2435  2.0259  2.1542
  701MOL0     H94578   3.629   6.470   0.065 -2.2179 -2.0310 -1.8722
  701MOL0     H94579   3.694   6.509  -0.102  0.0674  2.7881 -0.5313
  701MOL0     H94580   3.864   6.615   0.048  0.0948  1.1027  0.7348
  701MOL0     H94581   3.758   6.749  -0.004 -0.4374  0.7386  1.0481
  701MOL0     H94582   3.627   6.732   0.214 -1.1887 -4.5815  5.2247
  701MOL0     H94583   3.802   6.771   0.232 -1.1714  1.8085 -0.2557
  701MOL0     H94584   3.633   6.524   0.312 -0.3139  0.2303  1.2834
  701MOL0     H94585   3.792   6.499   0.254 -2.3999 -3.2012  2.7536
  701MOL0     H94586   4.003   6.588   0.413  1.4672  1.1099  0.1079
  701MOL0     H94587   4.029   6.738   0.770  1.8297  3.8972 -0.4051
  701MOL0     H94588   4.122   6.679   0.643  0.9165 -0.5726  1.3177
  701MOL0     H94589   4.105   6.878   0.512 -0.1047  0.0682 -0.4563
  701MOL0     H94590   3.964   6.932   0.608 -2.0669 -2.4439 -0.3220
  701MOL0     H94591   4.258   6.915   0.711  0.2424  0.3412 -2.1084
  701MOL0     H94592   4.112   6.950   0.802  1.0606 -3.8086 -0.1426
  701MOL0     H94593   4.251   7.146   0.745  0.1744 -1.5195  0.8555
  701MOL0     H94594   4.084   7.161   0.692  1.0505  0.0727  2.6425
  701MOL0     H94595   4.445   7.018   0.673 -0.3903 -1.8549  0.3149
  701MOL0     H94596   4.667   7.002   0.582  0.0926  0.0584 -0.4087
  701MOL0     H94597   4.961   6.782   0.354 -0.3382 -0.5186 -1.9764
  701MOL0     H94598   5.191   6.739   0.255 -0.9388 -0.2804  1.7025
  701MOL0     H94599   5.351   7.017  -0.018 -0.7061 -2.0769 -0.5677
  701MOL0     H94600   5.434   7.093   0.131  0.9957 -2.4527  4.0670
  701MOL0     H94601   5.593   6.916   0.142  0.0114 -2.2427  0.5204
  701MOL0     H94602   5.551   6.858  -0.016 -0.5661 -0.5017  3.1646
  701MOL0     H94603   5.594   7.077  -0.124 -0.4542  0.8175 -0.1137
  701MOL0     H94604   5.661   7.137   0.040  0.1573 -0.1174 -0.1048
  701MOL0     H94605   5.768   6.907  -0.117 -0.4485  0.2018 -0.8607
  701MOL0     H94606   5.828   6.957   0.034 -3.0407 -2.0669  0.2888
  701MOL0     H94607   5.887   7.177  -0.067  0.8265  1.6925 -1.7357
  701MOL0     H94608   5.805   7.150  -0.217 -1.5685  1.0051  2.2788
  701MOL0     H94609   6.035   6.985  -0.098 -0.1777 -2.0049 -1.4161
  701MOL0     H94610   5.981   6.950  -0.254  1.5759  0.6034 -0.8289
  701MOL0     H94611   6.121   7.211  -0.148  4.6184  0.1210 -1.7898
  701MOL0     H94612   6.059   7.201  -0.316 -0.1031 -2.5053 -1.2773
  701MOL0     H94613   6.262   7.014  -0.196 -0.1042 -1.9222 -2.7299
  701MOL0     H94614   6.219   7.021  -0.366 -0.7935 -3.2104  1.5690
  701MOL0     H94615   5.203   7.156   0.154 -1.0634 -1.1979 -1.7096
  701MOL0     H94616   4.986   7.187   0.289 -2.5998 -0.9190  2.8310
  701MOL0     H94617   4.530   7.148   0.211 -1.1293  1.7077  0.0175
  701MOL0     H94618   4.300   7.175   0.287  1.7666  1.8328  0.0982
  701MOL0     H94619   3.052   6.342  -0.302 -0.6223 -2.1509  1.2286
  701MOL0     H94620   2.813   6.277  -0.299  1.4594 -2.7417  0.2359
  701MOL0     H94621   2.411   6.328  -0.212 -0.9326  1.2989 -0.0419
  701MOL0     H94622   2.159   6.280  -0.227 -0.2536  2.9057  1.1608
  701MOL0     H94623   1.912   6.308   0.074  0.7983  0.7437 -0.3873
  701MOL0     H94624   1.816   6.238  -0.062 -0.2037  1.1921  0.4106
  701MOL0     H94625   1.944   6.372  -0.218 -1.2622 -2.3931  0.6501
  701MOL0     H94626   2.025   6.457  -0.084 -0.8465  2.7679 -0.2390
  701MOL0     H94627   1.721   6.455  -0.145 -0.5040 -1.1115  0.2019
  701MOL0     H94628   1.833   6.584  -0.175 -2.9820  0.3166 -1.0726
  701MOL0     H94629   1.697   6.617   0.034 -0.8962 -0.8879 -0.8703
  701MOL0     H94630   1.740   6.462   0.102  3.9061 -1.1520  0.0476
  701MOL0     H94631   2.062   6.683   0.227  0.0298 -1.2066  0.0868
  701MOL0     H94632   2.151   6.170   0.169  1.3402  0.2214  0.6828
  701MOL0     H94633   2.487   6.168   0.254  0.6925  0.8398  3.8310
  701MOL0     H94634   2.439   6.328   0.289 -1.1552  0.2461  0.2537
  701MOL0     H94635   2.319   6.201   0.316 -0.3737 -1.2747 -0.3981
  702MOL0     O94636  10.068   2.718  11.097 -0.1991 -0.2340 -0.1275
  702MOL0     C94637  10.017   2.830  11.090 -0.6473  0.1626 -0.1617
  702MOL0     O94638  10.056   2.938  11.174 -0.4226  0.3211  0.9183
  702MOL0     C94639  10.184   2.944  11.223 -0.4131  0.2041 -0.0200
  702MOL0     C94640  10.296   2.875  11.172  1.1215 -0.1504 -0.0003
  702MOL0     C94641  10.421   2.865  11.225  0.0120 -0.7162  0.1747
  702MOL0     C94642  10.444   2.938  11.341  0.2382  0.2378  0.0618
  702MOL0     O94643  10.563   2.916  11.405 -0.0254 -0.0945 -0.3405
  702MOL0     C94644  10.607   3.020  11.490 -0.4231 -0.6185  0.7638
  702MOL0     C94645  10.755   3.011  11.515 -0.9456 -0.0440 -0.7480
  702MOL0     C94646  10.837   3.149  11.512  0.5803 -0.1935 -0.5003
  702MOL0     C94647  10.989   3.111  11.513 -0.3010  0.0009  0.8408
  702MOL0     C94648  11.085   3.226  11.472  0.3387  0.1702  0.1299
  702MOL0     C94649  11.236   3.197  11.463 -0.0831 -0.0493  0.2893
  702MOL0     C94650  11.313   3.330  11.435  0.8625 -0.3174  1.6460
  702MOL0     C94651  11.459   3.311  11.403  0.7782  0.1943  0.6001
  702MOL0     N94652  11.484   3.225  11.291 -0.5248 -0.1519  0.6940
  702MOL0     C94653  11.547   3.106  11.309 -0.4775  0.7219  0.5202
  702MOL0     C94654  11.603   3.069  11.184  0.6351  0.2900 -0.0788
  702MOL0     C94655  11.666   2.931  11.145  0.2366  0.9358 -0.1177
  702MOL0     C94656  11.817   2.934  11.139  0.5103 -0.2832  0.1765
  702MOL0     C94657  11.867   2.794  11.121 -0.3751  0.1867 -0.0183
  702MOL0     C94658  12.018   2.780  11.131 -0.1819  0.1111 -0.0109
  702MOL0     O94659  12.065   2.843  11.251  0.1039  0.0325 -0.2151
  702MOL0     C94660  12.195   2.860  11.251 -0.7034 -0.1857 -0.4577
  702MOL0     C94661  12.236   2.934  11.362 -0.6326 -0.0558 -0.0647
  702MOL0     C94662  12.370   2.958  11.376 -0.5577 -0.5273 -0.2998
  702MOL0     C94663  12.474   2.912  11.290  0.1771 -0.0847  0.4965
  702MOL0     C94664  12.616   2.940  11.317  0.4083 -0.4259  0.8783
  702MOL0     O94665  12.645   3.023  11.420 -0.1136  0.0166  0.1440
  702MOL0     C94666  12.771   3.041  11.475 -0.4875  0.0565  0.1246
  702MOL0     C94667  12.878   2.946  11.461 -0.0663  0.3243  0.0140
  702MOL0     C94668  13.007   2.969  11.515  0.5631  0.2142  0.7055
  702MOL0     C94669  13.036   3.085  11.586  0.8229  0.0922  0.1257
  702MOL0     O94670  13.162   3.118  11.631 -0.0017 -0.6642 -0.8607
  702MOL0     C94671  13.239   3.003  11.678  0.3786 -0.2047 -0.7933
  702MOL0     C94672  13.355   3.046  11.777  1.3455  0.1726 -0.6766
  702MOL0     C94673  13.451   3.153  11.729  1.0049 -0.1373  0.9423
  702MOL0     C94674  13.576   3.146  11.807 -0.3176  0.9974 -0.1570
  702MOL0     C94675  13.688   3.239  11.755  0.1385  0.2648  0.0320
  702MOL0     C94676  13.685   3.393  11.794 -0.7165  0.7916 -0.3942
  702MOL0     C94677  13.807   3.467  11.737  0.3345 -0.4746  0.3397
  702MOL0     C94678  13.813   3.615  11.775  0.9160  0.1067 -0.1940
  702MOL0    Cl94679  13.946   3.690  11.701  0.0151  0.3532 -0.0328
  702MOL0     C94680  12.927   3.180  11.590 -0.0482 -0.4046  0.0834
  702MOL0     C94681  12.805   3.157  11.538 -0.0996  0.3646  0.2948
  702MOL0     O94682  12.690   2.908  11.228  0.0848  1.0820  0.3966
  702MOL0     C94683  12.427   2.837  11.186  0.2805  0.3924  0.7579
  702MOL0     C94684  12.294   2.809  11.165  0.2228 -0.3411 -0.2535
  702MOL0     N94685  11.564   3.172  11.090  0.4698  0.4649  0.1249
  702MOL0     N94686  11.496   3.262  11.159 -0.0177 -0.2088 -0.4243
  702MOL0     C94687  10.333   3.000  11.402 -0.4409 -0.6261  0.3447
  702MOL0     C94688  10.210   3.009  11.340 -0.4724 -0.3151 -1.0102
  702MOL0     C94689   9.903   2.870  10.996  0.6578 -0.0456 -0.6687
  702MOL0     C94690   9.887   3.002  10.959  0.2015  0.2987  0.1064
  702MOL0     C94691   9.770   3.042  10.884 -0.2253  0.7544 -0.0456
  702MOL0     C94692   9.683   2.946  10.828 -0.2324 -1.4255  0.3027
  702MOL0     O94693   9.575   3.002  10.761 -0.2228  0.1600  0.0282
  702MOL0     C94694   9.486   2.909  10.695 -0.0415 -1.1071 -0.0823
  702MOL0     C94695   9.365   2.992  10.640  0.3547 -0.2755 -0.3844
  702MOL0     C94696   9.264   3.028  10.759  0.2646  0.6508 -0.0371
  702MOL0     C94697   9.128   3.077  10.715  0.2224 -0.0711  0.5551
  702MOL0     C94698   9.050   2.968  10.660  0.5971  0.0965  0.5696
  702MOL0     C94699   8.985   2.880  10.602  0.1120 -0.6681 -0.5081
  702MOL0     C94700   9.716   2.815  10.850  0.9571 -0.1164  0.4668
  702MOL0     C94701   9.822   2.774  10.934  0.2737  0.4109  0.3310
  702MOL0     C94702   9.830   2.623  10.956 -0.5327  0.5154 -0.0143
  702MOL0     H94703  10.281   2.819  11.080  2.0684 -1.4566  0.6193
  702MOL0     H94704  10.498   2.811  11.171  0.7530  0.1187  0.3799
  702MOL0     H94705  10.590   3.114  11.438 -0.6060 -1.3456 -0.5260
  702MOL0     H94706  10.553   3.017  11.585  2.1481 -1.7422  2.2924
  702MOL0     H94707  10.797   2.953  11.432  0.1635  1.6737 -1.4468
  702MOL0     H94708  10.784   2.958  11.606 -0.1041  1.8945  0.1650
  702MOL0     H94709  10.817   3.208  11.601  0.2269 -2.6932  1.1876
  702MOL0     H94710  10.805   3.208  11.425  0.7392 -0.7454 -0.9431
  702MOL0     H94711  11.019   3.072  11.611  3.6124  4.8047  1.9410
  702MOL0     H94712  10.998   3.040  11.430  0.9146  1.3647 -0.2378
  702MOL0     H94713  11.051   3.263  11.375  0.7876  1.0209  0.2900
  702MOL0     H94714  11.070   3.310  11.541 -0.6399  1.4920 -1.6244
  702MOL0     H94715  11.278   3.138  11.545 -1.5447  1.1174  1.9696
  702MOL0     H94716  11.243   3.137  11.373 -1.0791 -0.2174  0.3125
  702MOL0     H94717  11.294   3.398  11.518 -2.8975 -1.1687  1.6746
  702MOL0     H94718  11.263   3.381  11.352 -1.6729  0.1711  3.3574
  702MOL0     H94719  11.500   3.408  11.373  0.3449  0.5061  0.9973
  702MOL0     H94720  11.509   3.267  11.490  2.9064  0.5688 -0.3426
  702MOL0     H94721  11.558   3.045  11.398  0.2570 -0.1028 -0.1223
  702MOL0     H94722  11.640   2.858  11.222  1.8129 -0.1117 -0.5374
  702MOL0     H94723  11.614   2.905  11.052 -0.8585 -0.0247  0.7343
  702MOL0     H94724  11.845   3.003  11.059 -1.3407 -0.2933 -0.5321
  702MOL0     H94725  11.859   2.972  11.233  1.2294  0.6612 -0.5054
  702MOL0     H94726  11.835   2.758  11.023 -1.5669  1.1253  0.0026
  702MOL0     H94727  11.824   2.724  11.194  0.0403 -1.0733 -0.9448
  702MOL0     H94728  12.060   2.820  11.038  0.0759 -1.0432 -0.4048
  702MOL0     H94729  12.031   2.672  11.133 -1.0424  0.0122  0.3480
  702MOL0     H94730  12.152   2.974  11.418 -2.2952 -1.4733 -1.4299
  702MOL0     H94731  12.393   3.030  11.455 -0.6148  1.0455 -1.6640
  702MOL0     H94732  12.860   2.855  11.405  0.3034 -0.7677  1.5994
  702MOL0     H94733  13.085   2.901  11.481 -1.4080 -2.2054  0.7119
  702MOL0     H94734  13.166   2.935  11.722  0.6080 -1.3607 -2.1172
  702MOL0     H94735  13.282   2.943  11.596  1.7459 -1.3601  0.7086
  702MOL0     H94736  13.299   3.073  11.867  0.3374 -0.9394 -0.9493
  702MOL0     H94737  13.411   2.955  11.802  2.7133  1.1685  0.0471
  702MOL0     H94738  13.472   3.140  11.623  0.4874 -2.4140  1.0691
  702MOL0     H94739  13.406   3.249  11.758  3.6546  1.5035  0.0313
  702MOL0     H94740  13.620   3.046  11.798 -2.1274  0.2275 -0.9939
  702MOL0     H94741  13.546   3.163  11.911 -2.8452 -1.4968 -0.3598
  702MOL0     H94742  13.711   3.220  11.649 -0.0905 -0.5599  0.1248
  702MOL0     H94743  13.774   3.197  11.808  0.0015 -0.3198 -0.2073
  702MOL0     H94744  13.595   3.444  11.759 -1.5786  0.4980  1.2843
  702MOL0     H94745  13.678   3.405  11.902 -2.5441  0.4011 -0.4349
  702MOL0     H94746  13.802   3.450  11.629 -1.8057 -0.5175  0.3976
  702MOL0     H94747  13.900   3.421  11.773 -0.7686 -1.1120  2.5487
  702MOL0     H94748  13.723   3.663  11.736  1.5096 -1.4143 -3.7674
  702MOL0     H94749  13.827   3.633  11.882 -2.8665 -0.8252  0.5924
  702MOL0     H94750  12.933   3.276  11.641 -0.0835  0.4239 -1.4284
  702MOL0     H94751  12.725   3.229  11.548  1.3689  2.1797 -0.4854
  702MOL0     H94752  12.495   2.804  11.109 -0.6988 -0.4027  0.2160
  702MOL0     H94753  12.264   2.754  11.077  1.2196 -1.2999 -0.0131
  702MOL0     H94754  10.335   3.045  11.501  0.8514 -2.3545  1.1491
  702MOL0     H94755  10.124   3.049  11.392 -0.4846  1.3186 -2.2055
  702MOL0     H94756   9.950   3.086  10.984 -2.1170  1.9272  0.8798
  702MOL0     H94757   9.748   3.148  10.870  0.6913  1.1232  1.1318
  702MOL0     H94758   9.452   2.842  10.774  0.9130  0.9906  2.2452
  702MOL0     H94759   9.536   2.851  10.617 -0.9939 -0.7826 -0.9412
  702MOL0     H94760   9.323   2.936  10.556 -0.6403 -0.7736  0.4242
  702MOL0     H94761   9.402   3.087  10.600  0.7074  0.7172  2.1625
  702MOL0     H94762   9.301   3.091  10.841 -1.0014 -1.8520  2.6241
  702MOL0     H94763   9.249   2.931  10.807  4.3640 -0.4246 -0.5055
  702MOL0     H94764   9.079   3.125  10.800  0.6523 -0.2189  0.8859
  702MOL0     H94765   9.137   3.151  10.635 -1.6971 -0.8438 -0.4698
  702MOL0     H94766   8.913   2.816  10.554 -0.6388  1.3997 -2.3380
  702MOL0     H94767   9.653   2.735  10.811  0.3422 -0.3323  1.8286
  702MOL0     H94768   9.742   2.574  10.913 -0.3767 -0.9466  1.2581
  702MOL0     H94769   9.918   2.582  10.905 -0.9000 -0.2959 -0.0063
  702MOL0     H94770   9.830   2.602  11.063 -0.8741  4.0399  0.8029
  703MOL0     O94771  10.675   7.356   5.372 -0.1743  0.3225 -0.5727
  703MOL0     C94772  10.606   7.256   5.368 -0.1013  0.8895 -0.7519
  703MOL0     O94773  10.475   7.251   5.336  0.4066 -0.3172  0.0840
  703MOL0     C94774  10.405   7.367   5.300 -0.4892  0.0759  0.6367
  703MOL0     C94775  10.396   7.384   5.163 -0.2172 -0.2111  0.3793
  703MOL0     C94776  10.327   7.490   5.106  0.0269  0.2285 -0.3547
  703MOL0     C94777  10.261   7.575   5.187 -0.4678  0.3731 -0.2852
  703MOL0     O94778  10.179   7.671   5.133 -0.0143 -0.4140  0.3992
  703MOL0     C94779  10.074   7.729   5.219 -0.6414 -0.3865  0.0936
  703MOL0     C94780   9.979   7.817   5.130  0.0627  0.1872 -0.4830
  703MOL0     C94781  10.027   7.963   5.117  0.8333 -0.1923  0.2424
  703MOL0     C94782  10.154   7.980   5.031  0.4689  1.1116  0.3200
  703MOL0     C94783  10.208   8.118   5.050 -0.5642 -0.4094 -0.1135
  703MOL0     C94784  10.364   8.118   5.062 -0.1989  0.0284 -0.1771
  703MOL0     C94785  10.416   8.047   5.192  0.8171 -0.1454  0.1241
  703MOL0     C94786  10.568   8.030   5.192 -0.2036  0.1663  0.2878
  703MOL0     N94787  10.626   7.939   5.098 -0.5880 -0.8228  0.4435
  703MOL0     C94788  10.597   7.806   5.093 -0.4615  0.0014 -0.8889
  703MOL0     C94789  10.652   7.761   4.971  0.3916  0.5890 -0.5875
  703MOL0     C94790  10.648   7.615   4.938  0.3066  0.5252  0.3756
  703MOL0     C94791  10.704   7.523   5.052 -0.6470  0.3902  0.4094
  703MOL0     C94792  10.863   7.544   5.065 -0.0204  0.9727 -0.5472
  703MOL0     C94793  10.940   7.503   4.938  0.0375 -0.8291  0.0213
  703MOL0     O94794  11.072   7.520   4.975  0.2534 -0.5397  0.1822
  703MOL0     C94795  11.178   7.532   4.888 -0.0397 -0.0649 -0.2447
  703MOL0     C94796  11.304   7.530   4.946 -0.0595 -1.0726  0.6064
  703MOL0     C94797  11.417   7.563   4.868 -0.3400 -1.3962  0.7399
  703MOL0     C94798  11.407   7.578   4.726 -0.4168  0.1671  0.4773
  703MOL0     C94799  11.529   7.571   4.642 -0.0948  0.0958 -0.3352
  703MOL0     O94800  11.508   7.574   4.507 -0.0185  0.5397 -0.4371
  703MOL0     C94801  11.608   7.568   4.408  0.4631  0.1866  0.0496
  703MOL0     C94802  11.576   7.539   4.278  0.1103  0.7135  0.1836
  703MOL0     C94803  11.669   7.492   4.184  0.2222 -0.3427  0.3199
  703MOL0     C94804  11.805   7.497   4.224  1.0263 -0.4265  0.4539
  703MOL0     O94805  11.888   7.471   4.118 -0.4914 -0.2970 -0.4348
  703MOL0     C94806  12.023   7.416   4.154  0.4867 -0.2804  1.0470
  703MOL0     C94807  12.129   7.526   4.144 -0.0758 -0.8083 -0.5792
  703MOL0     C94808  12.273   7.472   4.150  0.8324  0.7187  0.1187
  703MOL0     C94809  12.365   7.572   4.088 -0.1369  0.1226  0.2080
  703MOL0     C94810  12.511   7.536   4.111 -0.3861  0.1203 -0.0466
  703MOL0     C94811  12.552   7.398   4.057 -0.1378  0.1807 -0.1777
  703MOL0     C94812  12.710   7.389   4.053  0.5267 -0.0682  0.3205
  703MOL0     C94813  12.770   7.358   4.191 -0.6494  0.0038 -0.1491
  703MOL0    Cl94814  12.941   7.333   4.167  0.0963  0.2003  0.2974
  703MOL0     C94815  11.839   7.540   4.347  0.0181  0.0640  0.1684
  703MOL0     C94816  11.743   7.577   4.442 -0.3152  0.1985 -0.5122
  703MOL0     O94817  11.636   7.575   4.699 -0.1546 -0.4431 -0.0117
  703MOL0     C94818  11.281   7.566   4.667 -0.5215 -0.4337 -0.5137
  703MOL0     C94819  11.169   7.555   4.748  0.1586 -0.1110 -0.3997
  703MOL0     N94820  10.707   7.863   4.901  0.7160  0.4896  0.0924
  703MOL0     N94821  10.690   7.971   4.979 -0.0706  0.0981 -0.7120
  703MOL0     C94822  10.271   7.560   5.325  0.4645  0.1580 -0.5476
  703MOL0     C94823  10.340   7.456   5.384  0.0530  1.0356  0.4287
  703MOL0     C94824  10.683   7.122   5.399  0.4511 -0.5109 -0.2244
  703MOL0     C94825  10.819   7.134   5.424  0.5568  0.3601 -0.3063
  703MOL0     C94826  10.891   7.020   5.470  0.8954  0.8189  0.4705
  703MOL0     C94827  10.824   6.893   5.491 -0.1331 -0.3204 -0.3536
  703MOL0     O94828  10.886   6.780   5.537  0.3151  0.1134 -0.1972
  703MOL0     C94829  11.023   6.781   5.581 -0.3312  1.1825  0.7130
  703MOL0     C94830  11.060   6.650   5.652 -0.8085  0.2960 -0.3994
  703MOL0     C94831  11.207   6.653   5.685  0.6653  0.3240 -0.5784
  703MOL0     C94832  11.247   6.513   5.726  0.0577 -0.2195  1.1538
  703MOL0     C94833  11.239   6.417   5.614  0.7372  0.7698 -0.2580
  703MOL0     C94834  11.234   6.352   5.513 -0.6881  0.1382 -0.5564
  703MOL0     C94835  10.692   6.885   5.453  0.2160 -0.1129 -0.3621
  703MOL0     C94836  10.616   6.994   5.403  0.6275  0.2098 -1.1041
  703MOL0     C94837  10.465   6.973   5.388 -0.5645  0.2913  0.1120
  703MOL0     H94838  10.447   7.320   5.091 -1.1791  1.4819 -1.9532
  703MOL0     H94839  10.324   7.509   4.999  0.1773 -0.9078 -0.5734
  703MOL0     H94840  10.011   7.649   5.258 -1.4482  0.8224  1.3670
  703MOL0     H94841  10.116   7.791   5.299  0.1105 -2.6203  1.5250
  703MOL0     H94842   9.878   7.825   5.170 -1.5772 -0.6072 -4.0585
  703MOL0     H94843   9.955   7.774   5.032 -1.2056  0.4137 -0.2933
  703MOL0     H94844  10.045   7.991   5.221 -1.1284 -1.1274  0.8765
  703MOL0     H94845   9.947   8.026   5.078 -0.7027 -2.0719  0.1883
  703MOL0     H94846  10.228   7.903   5.054  0.9635  1.0163 -1.4544
  703MOL0     H94847  10.130   7.964   4.925 -0.5542  0.8992  0.5745
  703MOL0     H94848  10.176   8.183   4.968  0.3159  0.0359 -0.1095
  703MOL0     H94849  10.171   8.170   5.138  2.7192  1.7120  0.1838
  703MOL0     H94850  10.406   8.066   4.975  0.2586 -2.3551  1.3776
  703MOL0     H94851  10.411   8.217   5.064 -1.2017  0.5093  1.1803
  703MOL0     H94852  10.370   7.948   5.193  0.2984  0.0633  2.3370
  703MOL0     H94853  10.384   8.100   5.282  3.8788 -0.1000  1.3052
  703MOL0     H94854  10.608   8.132   5.187 -0.8734  0.4254  0.0690
  703MOL0     H94855  10.612   7.987   5.282  1.0956 -3.0654 -1.7208
  703MOL0     H94856  10.534   7.755   5.164 -0.8748  1.1000 -0.4431
  703MOL0     H94857  10.544   7.585   4.921 -0.8090  1.8916  3.9540
  703MOL0     H94858  10.716   7.601   4.854 -0.7234 -1.5256 -0.1946
  703MOL0     H94859  10.656   7.546   5.148  0.0613  3.4076  0.1566
  703MOL0     H94860  10.686   7.419   5.025  0.2775  0.8184 -2.0910
  703MOL0     H94861  10.886   7.489   5.157 -1.8544  1.0476 -0.0015
  703MOL0     H94862  10.884   7.649   5.088 -1.3540  1.0530  0.4441
  703MOL0     H94863  10.911   7.572   4.858 -0.6361 -1.0212  0.0880
  703MOL0     H94864  10.912   7.404   4.901 -4.3102  0.0977  0.2263
  703MOL0     H94865  11.316   7.530   5.054  1.4365  1.6720  0.5446
  703MOL0     H94866  11.514   7.568   4.915  0.8499 -3.8702 -1.2395
  703MOL0     H94867  11.477   7.543   4.234  0.8554 -1.8106 -2.0089
  703MOL0     H94868  11.634   7.466   4.085  1.0519 -2.2028  0.4788
  703MOL0     H94869  12.018   7.370   4.254 -0.7899 -0.2540  1.0139
  703MOL0     H94870  12.032   7.334   4.082  1.5268  0.8390 -0.1307
  703MOL0     H94871  12.109   7.578   4.050 -2.7749 -0.7311 -0.0416
  703MOL0     H94872  12.122   7.605   4.220  0.2008 -0.5390 -0.8347
  703MOL0     H94873  12.301   7.441   4.251  0.5985 -0.5651 -0.1929
  703MOL0     H94874  12.278   7.384   4.085  0.1244  0.0734  0.9068
  703MOL0     H94875  12.350   7.675   4.123 -0.8518 -0.2733  1.1195
  703MOL0     H94876  12.340   7.570   3.982  0.5510  0.8028  0.0294
  703MOL0     H94877  12.534   7.552   4.217 -1.3510  1.5074 -0.0076
  703MOL0     H94878  12.572   7.617   4.071 -1.1406  1.4702  1.4099
  703MOL0     H94879  12.516   7.317   4.121 -0.4399  0.8350  0.4955
  703MOL0     H94880  12.520   7.387   3.953  0.2285 -2.6393 -0.0650
  703MOL0     H94881  12.750   7.485   4.021 -2.3192  0.5385 -1.8074
  703MOL0     H94882  12.737   7.312   3.980 -1.2086  0.9227 -1.4813
  703MOL0     H94883  12.749   7.442   4.258  0.0949  1.8458 -2.0887
  703MOL0     H94884  12.731   7.266   4.233  0.4798 -0.5374 -0.2490
  703MOL0     H94885  11.943   7.547   4.378  0.6436  0.6950 -1.8869
  703MOL0     H94886  11.786   7.608   4.537 -0.1996  2.2400 -1.2015
  703MOL0     H94887  11.273   7.580   4.560 -1.7372 -3.0431 -0.8307
  703MOL0     H94888  11.075   7.576   4.697  0.7524  0.6747 -1.2029
  703MOL0     H94889  10.226   7.629   5.396  0.6492 -0.2208 -0.0528
  703MOL0     H94890  10.361   7.450   5.490  0.6006  1.0959  0.3285
  703MOL0     H94891  10.878   7.225   5.416  3.3453 -1.3314 -0.2045
  703MOL0     H94892  10.997   7.025   5.495  0.3885 -1.0335  3.5656
  703MOL0     H94893  11.032   6.865   5.650 -2.8139  1.4140  0.8446
  703MOL0     H94894  11.086   6.799   5.494  1.0688  1.0925  1.6826
  703MOL0     H94895  11.029   6.561   5.595 -0.5901 -1.2636  1.7748
  703MOL0     H94896  11.011   6.654   5.749 -0.3093  1.6316 -0.1838
  703MOL0     H94897  11.220   6.714   5.775 -3.9421  1.8040 -0.6501
  703MOL0     H94898  11.274   6.683   5.603 -2.7499  1.2060 -3.2617
  703MOL0     H94899  11.351   6.518   5.759  0.7633 -2.3820 -0.5153
  703MOL0     H94900  11.183   6.478   5.807 -2.4571 -1.3918 -1.1751
  703MOL0     H94901  11.234   6.291   5.425 -0.1594  0.0038 -0.4722
  703MOL0     H94902  10.652   6.785   5.470  2.4291 -0.8296  1.1338
  703MOL0     H94903  10.444   7.026   5.294  1.0369  2.0114  0.6571
  703MOL0     H94904  10.438   6.868   5.375  0.1585 -0.1056  1.6545
  703MOL0     H94905  10.415   7.017   5.475  0.6696 -0.1177  1.0556
  704MOL0     O94906   6.752   2.329  10.935 -0.3939 -0.9616  0.5113
  704MOL0     C94907   6.796   2.431  10.986 -0.6041 -0.2096  0.3022
  704MOL0     O94908   6.925   2.451  11.021 -0.3580 -0.0077 -0.6109
  704MOL0     C94909   7.031   2.374  10.982  0.6033  0.7648  0.1175
  704MOL0     C94910   7.142   2.427  10.925  0.1677 -0.4323 -0.3839
  704MOL0     C94911   7.261   2.348  10.892  0.4665  0.4839  0.0797
  704MOL0     C94912   7.253   2.207  10.904  1.2427  0.1005 -0.3024
  704MOL0     O94913   7.345   2.122  10.859 -0.3120 -0.4475  0.0490
  704MOL0     C94914   7.441   2.168  10.759 -0.4492 -0.1892 -0.2108
  704MOL0     C94915   7.529   2.050  10.726 -0.1373 -0.0788  0.0543
  704MOL0     C94916   7.631   2.092  10.621 -0.0890  0.1845  0.4431
  704MOL0     C94917   7.696   1.963  10.579 -0.5183  0.5273 -0.2807
  704MOL0     C94918   7.802   1.986  10.471  0.2042 -0.7559  0.3539
  704MOL0     C94919   7.883   1.862  10.458  0.5736  0.7144 -0.4702
  704MOL0     C94920   8.003   1.888  10.367 -0.0982 -0.7835  0.2205
  704MOL0     C94921   8.080   1.756  10.335 -0.2384  0.2826 -0.1594
  704MOL0     N94922   8.181   1.785  10.239 -0.8656 -0.4400  0.0449
  704MOL0     C94923   8.188   1.750  10.104  0.4754  1.0664 -0.4496
  704MOL0     C94924   8.309   1.798  10.059  1.3225 -0.8096  0.3533
  704MOL0     C94925   8.355   1.777   9.922 -0.4487 -0.1194 -0.1143
  704MOL0     C94926   8.345   1.905   9.840  0.5598 -0.4513  0.0682
  704MOL0     C94927   8.376   1.873   9.695 -0.0401  0.0711  0.3585
  704MOL0     C94928   8.519   1.834   9.671 -0.2075  0.1722 -0.0511
  704MOL0     O94929   8.553   1.853   9.534  0.1009 -0.1573  0.3299
  704MOL0     C94930   8.685   1.874   9.504  0.6147 -0.5937 -0.3432
  704MOL0     C94931   8.759   1.767   9.464  0.4187 -0.2981  0.0227
  704MOL0     C94932   8.900   1.775   9.449 -0.6821  0.7355  0.4487
  704MOL0     C94933   8.964   1.899   9.434 -0.7581  0.4064 -0.7256
  704MOL0     C94934   9.106   1.910   9.383  0.3255  0.2621  1.2491
  704MOL0     O94935   9.162   2.037   9.385  0.0662 -0.1436  0.4546
  704MOL0     C94936   9.295   2.036   9.383 -0.1526  0.2582  0.5416
  704MOL0     C94937   9.380   1.985   9.283  0.2738 -0.4897 -0.0891
  704MOL0     C94938   9.517   1.965   9.308  0.1873 -0.1849 -0.0883
  704MOL0     C94939   9.579   2.015   9.423  0.4163  0.0401  0.1962
  704MOL0     O94940   9.713   1.996   9.438  0.6748  0.1279 -0.4913
  704MOL0     C94941   9.763   1.963   9.563 -0.7124  0.3154  0.5971
  704MOL0     C94942   9.909   1.921   9.529 -0.1860 -0.6854  0.0640
  704MOL0     C94943   9.983   2.023   9.451  1.2067  0.2210  0.1593
  704MOL0     C94944  10.128   1.963   9.424 -0.2463 -0.7580  0.3697
  704MOL0     C94945  10.225   2.074   9.370  0.0445  0.2990  0.0903
  704MOL0     C94946  10.368   2.031   9.367 -0.6660  0.3536 -0.6717
  704MOL0     C94947  10.478   2.129   9.320  0.2690  0.0950  0.3724
  704MOL0     C94948  10.605   2.061   9.368 -0.2510 -0.3984  0.0253
  704MOL0    Cl94949  10.632   2.101   9.544 -0.0579 -0.1616  0.2646
  704MOL0     C94950   9.494   2.059   9.534 -0.4594  0.3137  1.5039
  704MOL0     C94951   9.352   2.059   9.506  0.1263 -0.0654 -0.6105
  704MOL0     O94952   9.154   1.808   9.334  0.0955 -0.3732 -0.0022
  704MOL0     C94953   8.886   2.007   9.478 -0.6024  0.0557 -0.6347
  704MOL0     C94954   8.751   1.995   9.517  0.5632  0.7413  0.0665
  704MOL0     N94955   8.370   1.866  10.159  0.0919 -0.7899  0.2068
  704MOL0     N94956   8.293   1.863  10.266  0.2120 -0.5845  0.0959
  704MOL0     C94957   7.137   2.153  10.960 -0.1956 -0.6271 -0.5017
  704MOL0     C94958   7.029   2.237  10.994 -0.9607 -0.0455 -1.3492
  704MOL0     C94959   6.700   2.544  11.001  0.0973  0.1644  0.0596
  704MOL0     C94960   6.565   2.521  10.976  0.8079  0.0198  0.8396
  704MOL0     C94961   6.470   2.621  11.007 -0.2464 -0.1184  0.1686
  704MOL0     C94962   6.512   2.746  11.050  0.3642 -0.9732 -0.5129
  704MOL0     O94963   6.414   2.837  11.074 -0.5729  0.1634  0.2438
  704MOL0     C94964   6.447   2.966  11.132 -0.9320  0.7922 -0.2346
  704MOL0     C94965   6.457   2.964  11.289  0.1187  0.7612 -0.0484
  704MOL0     C94966   6.467   3.111  11.331  0.1591  0.0767  0.3907
  704MOL0     C94967   6.582   3.200  11.276 -0.4079 -0.4118 -0.0212
  704MOL0     C94968   6.711   3.133  11.280 -0.6289  0.2255 -0.3939
  704MOL0     C94969   6.816   3.072  11.269 -0.0566 -0.1183  0.6978
  704MOL0     C94970   6.649   2.768  11.072  0.9441 -0.4418 -0.0098
  704MOL0     C94971   6.739   2.671  11.046  0.6153 -0.0271  0.1702
  704MOL0     C94972   6.886   2.711  11.071 -0.7771  0.4407 -1.0925
  704MOL0     H94973   7.144   2.535  10.916 -1.6468 -0.3477 -0.1703
  704MOL0     H94974   7.349   2.402  10.859 -1.2609  2.7107 -1.2285
  704MOL0     H94975   7.394   2.204  10.667  1.4011  1.9089 -0.4011
  704MOL0     H94976   7.506   2.250  10.790  0.1420 -0.1194 -1.5834
  704MOL0     H94977   7.463   1.981  10.674  1.1813 -0.4307 -1.2171
  704MOL0     H94978   7.576   2.001  10.813  0.0081  0.3870  0.2399
  704MOL0     H94979   7.714   2.149  10.663 -0.0564 -0.4322  1.2265
  704MOL0     H94980   7.586   2.146  10.537  0.4877 -2.8509 -2.0074
  704MOL0     H94981   7.743   1.916  10.665  3.6700  1.4882 -1.8279
  704MOL0     H94982   7.626   1.892  10.533  1.0421  0.0464 -2.0243
  704MOL0     H94983   7.761   2.010  10.373 -0.0933 -0.1618  0.6241
  704MOL0     H94984   7.861   2.073  10.500 -1.3347  0.0703  1.1156
  704MOL0     H94985   7.911   1.822  10.556 -1.6090 -0.2638 -0.1927
  704MOL0     H94986   7.825   1.779  10.416  1.1810  0.2799 -0.4666
  704MOL0     H94987   8.066   1.964  10.415 -1.5718  0.0222  0.9713
  704MOL0     H94988   7.969   1.926  10.271  3.8999 -4.1950 -2.9104
  704MOL0     H94989   8.123   1.719  10.429  0.9016 -0.0174 -0.7801
  704MOL0     H94990   8.004   1.686  10.298 -2.7730  2.0232  1.4369
  704MOL0     H94991   8.116   1.683  10.055  0.9818  1.1810 -1.3749
  704MOL0     H94992   8.457   1.738   9.917 -0.8563 -1.0792 -1.5879
  704MOL0     H94993   8.307   1.696   9.866  0.9966  0.4304 -2.2892
  704MOL0     H94994   8.242   1.943   9.843 -0.8890 -3.9932  2.4045
  704MOL0     H94995   8.416   1.982   9.873 -1.3645  2.6870 -2.5478
  704MOL0     H94996   8.358   1.970   9.647  0.3960  0.9123  1.8472
  704MOL0     H94997   8.307   1.798   9.655 -0.4839  0.4499  0.3948
  704MOL0     H94998   8.549   1.731   9.692 -1.6975 -0.0067  1.4247
  704MOL0     H94999   8.577   1.909   9.726 -0.7261  1.6350 -1.4167
  704MOL0     H95000   8.713   1.669   9.457  0.6281 -0.6757  2.8849
  704MOL0     H95001   8.958   1.690   9.414 -0.6537  1.1826 -0.6404
  704MOL0     H95002   9.329   1.953   9.192 -0.1168 -2.3339  0.7367
  704MOL0     H95003   9.580   1.915   9.235  2.8542  2.1046  0.4816
  704MOL0     H95004   9.766   2.048   9.631  0.7407  0.1663  0.7714
  704MOL0     H95005   9.694   1.890   9.605 -0.5882 -1.1091 -1.5263
  704MOL0     H95006   9.959   1.907   9.626  0.1789 -1.1161 -0.1809
  704MOL0     H95007   9.908   1.818   9.492 -1.7159 -1.1755  1.3460
  704MOL0     H95008   9.936   2.040   9.353 -0.8631 -3.4055  0.3232
  704MOL0     H95009   9.990   2.118   9.505  1.8183 -0.9225  2.2038
  704MOL0     H95010  10.127   1.891   9.342  0.3612 -0.7816  0.3756
  704MOL0     H95011  10.162   1.911   9.514 -2.1214 -3.3149 -0.2872
  704MOL0     H95012  10.225   2.167   9.427  2.6637  1.1876 -1.2086
  704MOL0     H95013  10.178   2.104   9.276 -1.0578 -1.0208  0.1944
  704MOL0     H95014  10.388   2.013   9.473 -1.5645 -2.5829 -0.8988
  704MOL0     H95015  10.384   1.942   9.305 -1.1354 -0.6332  0.5752
  704MOL0     H95016  10.458   2.227   9.364 -1.5394  1.1988 -2.5711
  704MOL0     H95017  10.479   2.134   9.210 -0.4276  0.6614  0.3827
  704MOL0     H95018  10.610   1.952   9.357 -1.3714 -0.5472  0.8813
  704MOL0     H95019  10.681   2.099   9.298 -0.2106  0.1275  0.3518
  704MOL0     H95020   9.534   2.088   9.631  1.6175 -0.9964  1.1038
  704MOL0     H95021   9.297   2.091   9.594  0.9892 -1.9772  0.6935
  704MOL0     H95022   8.933   2.103   9.496 -2.0446  1.1841 -2.5509
  704MOL0     H95023   8.697   2.074   9.568  1.1073  1.3097 -0.2181
  704MOL0     H95024   7.134   2.045  10.971  0.7018 -0.8648 -2.2898
  704MOL0     H95025   6.941   2.191  11.037 -1.0759 -0.4623 -2.0290
  704MOL0     H95026   6.522   2.430  10.937 -1.1289  0.0457  2.7283
  704MOL0     H95027   6.364   2.607  10.986 -0.5304  2.1910 -0.1421
  704MOL0     H95028   6.370   3.036  11.099  0.1439  0.6763 -3.3060
  704MOL0     H95029   6.540   3.006  11.090  0.2849 -1.6460 -0.0402
  704MOL0     H95030   6.546   2.911  11.324  0.0837  0.0531 -0.9898
  704MOL0     H95031   6.368   2.918  11.333  0.7720  0.5515  1.1126
  704MOL0     H95032   6.472   3.124  11.439 -0.2437  0.0273  0.4161
  704MOL0     H95033   6.373   3.158  11.302  0.4362 -0.4415 -1.4829
  704MOL0     H95034   6.572   3.224  11.170  0.5808 -0.9819 -0.2522
  704MOL0     H95035   6.593   3.300  11.320 -0.7078 -0.0440 -0.7611
  704MOL0     H95036   6.913   3.028  11.264  0.0102  0.0123  0.8554
  704MOL0     H95037   6.685   2.868  11.095 -0.2770  0.1631 -0.5901
  704MOL0     H95038   6.949   2.704  10.982 -0.8187 -1.0062 -1.0363
  704MOL0     H95039   6.894   2.812  11.111  2.2529 -0.0817 -0.1299
  704MOL0     H95040   6.922   2.644  11.150 -3.6483 -1.7004 -1.4590
  705MOL0     O95041   4.346   6.192   8.007  0.0333 -0.0591 -0.0579
  705MOL0     C95042   4.318   6.180   7.887 -0.6169  0.0388 -1.1173
  705MOL0     O95043   4.403   6.148   7.791 -0.0997  0.6733  0.1912
  705MOL0     C95044   4.530   6.204   7.793  0.2474 -0.0425 -0.6012
  705MOL0     C95045   4.586   6.275   7.687  0.4572  0.0094 -1.0578
  705MOL0     C95046   4.721   6.302   7.691 -0.3712 -0.5046  1.1338
  705MOL0     C95047   4.810   6.281   7.799  0.8862 -0.3865 -0.5238
  705MOL0     O95048   4.933   6.328   7.783 -0.3725 -0.3153 -0.7112
  705MOL0     C95049   5.051   6.271   7.849 -0.7580 -0.0904 -0.4076
  705MOL0     C95050   5.155   6.382   7.836 -0.5143 -0.6669 -0.9283
  705MOL0     C95051   5.207   6.412   7.686 -0.1883  0.0339 -0.0082
  705MOL0     C95052   5.335   6.502   7.680 -0.2858  0.2119  1.1449
  705MOL0     C95053   5.350   6.570   7.551 -0.2863 -0.4877  0.0361
  705MOL0     C95054   5.467   6.672   7.556 -0.0758  0.1284 -0.2551
  705MOL0     C95055   5.605   6.600   7.584 -0.1379 -0.1596  0.0844
  705MOL0     C95056   5.710   6.709   7.592 -0.1578  0.5914  0.1005
  705MOL0     N95057   5.848   6.658   7.582  0.0332 -0.2615  0.4061
  705MOL0     C95058   5.932   6.655   7.470  0.2035  0.5609  0.5333
  705MOL0     C95059   6.050   6.600   7.511 -0.3891 -0.7743  0.4180
  705MOL0     C95060   6.177   6.607   7.425  0.1837  0.5665 -0.5213
  705MOL0     C95061   6.266   6.713   7.467 -0.1530  0.1633  0.0910
  705MOL0     C95062   6.340   6.661   7.588 -0.6456  0.1560  0.0818
  705MOL0     C95063   6.383   6.770   7.686 -0.6618 -0.2415 -0.2785
  705MOL0     O95064   6.460   6.875   7.625  0.1075 -0.2515  0.4995
  705MOL0     C95065   6.594   6.893   7.648 -0.2472 -0.4431 -0.1379
  705MOL0     C95066   6.677   6.822   7.739  0.4346  0.3882  0.0846
  705MOL0     C95067   6.805   6.854   7.751  0.0170 -0.1148  0.1171
  705MOL0     C95068   6.865   6.948   7.663 -0.6444  0.1942 -0.1113
  705MOL0     C95069   7.010   6.974   7.669  0.9836  0.1913  0.7906
  705MOL0     O95070   7.086   6.871   7.730  0.5435  0.7379  0.2250
  705MOL0     C95071   7.220   6.885   7.710  0.1734 -0.0771 -0.3705
  705MOL0     C95072   7.279   6.875   7.582 -0.3342  0.0112 -0.4401
  705MOL0     C95073   7.418   6.908   7.564 -0.7891 -0.3312 -0.0034
  705MOL0     C95074   7.505   6.935   7.679 -0.4946  0.1150 -0.4590
  705MOL0     O95075   7.637   6.959   7.659  0.4393 -0.7039  0.0248
  705MOL0     C95076   7.718   6.979   7.771 -0.3720 -0.9463  0.5758
  705MOL0     C95077   7.847   7.044   7.735 -0.0553  0.0792 -0.5131
  705MOL0     C95078   7.946   7.046   7.848  0.0583  0.6374 -0.0036
  705MOL0     C95079   8.066   6.954   7.820  0.3382  0.6084  0.0538
  705MOL0     C95080   8.176   6.962   7.919 -0.7337 -0.7146 -0.0790
  705MOL0     C95081   8.300   6.874   7.856  0.2340 -0.4563 -0.6831
  705MOL0     C95082   8.427   6.893   7.939 -0.3241 -0.8965 -0.1788
  705MOL0     C95083   8.545   6.803   7.904  0.2953 -0.2377  0.2057
  705MOL0    Cl95084   8.611   6.847   7.745 -0.4643  0.0850  0.0728
  705MOL0     C95085   7.435   6.947   7.807 -0.8698  0.5038  0.6612
  705MOL0     C95086   7.300   6.920   7.818 -0.1266 -0.4619 -0.4631
  705MOL0     O95087   7.049   7.085   7.632 -0.1719  0.3829  0.2681
  705MOL0     C95088   6.792   7.012   7.563 -0.3717  0.1379 -0.0387
  705MOL0     C95089   6.652   6.991   7.564  0.2936  0.1951 -0.0568
  705MOL0     N95090   6.033   6.583   7.647  0.3964 -0.5832  0.7149
  705MOL0     N95091   5.917   6.617   7.688  0.2190  0.4661 -0.4158
  705MOL0     C95092   4.762   6.210   7.905  0.9177 -0.5883  0.0780
  705MOL0     C95093   4.619   6.172   7.903 -0.7346  1.0772  0.6648
  705MOL0     C95094   4.169   6.187   7.862  0.3859 -0.1095 -0.2305
  705MOL0     C95095   4.078   6.200   7.975 -0.1663  0.5998  0.7192
  705MOL0     C95096   3.942   6.177   7.955  0.4462 -0.0677 -0.8899
  705MOL0     C95097   3.892   6.164   7.828  0.7460 -0.0230  0.3809
  705MOL0     O95098   3.758   6.138   7.792 -0.1667  0.4225 -0.6695
  705MOL0     C95099   3.657   6.121   7.895 -0.3499 -0.0221  0.2504
  705MOL0     C95100   3.532   6.070   7.832 -0.1681 -0.0023  0.2714
  705MOL0     C95101   3.457   6.176   7.751  0.6358 -0.1411 -0.5630
  705MOL0     C95102   3.314   6.129   7.708 -0.4346 -0.3094 -0.1353
  705MOL0     C95103   3.330   6.027   7.602  0.5310 -0.2791  0.2753
  705MOL0     C95104   3.358   5.945   7.507  0.4241  0.4122  0.0473
  705MOL0     C95105   3.974   6.167   7.715 -0.3396 -0.0158  0.1401
  705MOL0     C95106   4.110   6.180   7.728  0.4624 -0.7598 -0.1962
  705MOL0     C95107   4.195   6.188   7.600  0.6525  0.0722 -0.1800
  705MOL0     H95108   4.530   6.295   7.596 -2.5250  0.2932  0.6875
  705MOL0     H95109   4.767   6.347   7.604 -0.5443  0.4911  1.5432
  705MOL0     H95110   5.037   6.257   7.957  1.3682 -1.9326 -0.2965
  705MOL0     H95111   5.090   6.177   7.809  4.1838  1.1142  0.9030
  705MOL0     H95112   5.244   6.350   7.892 -1.4519 -3.6259 -0.9525
  705MOL0     H95113   5.119   6.477   7.877 -0.0116  0.1509 -2.3206
  705MOL0     H95114   5.129   6.468   7.633  0.3097 -0.8473 -1.7638
  705MOL0     H95115   5.227   6.322   7.627  1.5951  0.8462 -0.7196
  705MOL0     H95116   5.326   6.578   7.759 -1.0633 -1.0313  2.2903
  705MOL0     H95117   5.424   6.442   7.702  1.4758  2.2901  0.1018
  705MOL0     H95118   5.364   6.501   7.467 -2.0716  2.0654 -2.5970
  705MOL0     H95119   5.258   6.624   7.525  0.7567  0.7478 -1.2949
  705MOL0     H95120   5.472   6.721   7.458 -1.6484  0.7228 -0.0652
  705MOL0     H95121   5.442   6.749   7.628  0.5030  0.3727 -0.3102
  705MOL0     H95122   5.622   6.531   7.501 -0.3056  1.5410 -1.4247
  705MOL0     H95123   5.608   6.542   7.677  0.7582  1.6546  1.2528
  705MOL0     H95124   5.698   6.771   7.502 -0.0103 -0.8167 -0.9170
  705MOL0     H95125   5.697   6.766   7.685  0.7092 -0.0689  0.6394
  705MOL0     H95126   5.914   6.689   7.368 -1.0042 -1.0727  0.1684
  705MOL0     H95127   6.222   6.507   7.428 -2.9895 -0.9900 -0.3394
  705MOL0     H95128   6.144   6.627   7.322  0.7805 -1.0010 -1.0499
  705MOL0     H95129   6.339   6.738   7.389 -0.2318 -2.9089 -1.1026
  705MOL0     H95130   6.204   6.799   7.493 -0.5469  0.0404 -0.4357
  705MOL0     H95131   6.426   6.602   7.557 -0.8093 -0.3612  0.5922
  705MOL0     H95132   6.289   6.587   7.650  0.8974 -4.2045 -3.3900
  705MOL0     H95133   6.436   6.718   7.766 -0.0882  0.9600  0.1513
  705MOL0     H95134   6.289   6.811   7.726 -0.2999 -0.5844  0.9893
  705MOL0     H95135   6.634   6.738   7.793 -2.0163  1.0116 -0.7773
  705MOL0     H95136   6.870   6.815   7.828 -1.3162 -0.5868  1.0327
  705MOL0     H95137   7.212   6.845   7.502 -2.6952  2.0038  0.6419
  705MOL0     H95138   7.462   6.886   7.468 -2.5949 -1.2521 -0.6684
  705MOL0     H95139   7.671   7.036   7.852  1.2624  0.5869  0.5136
  705MOL0     H95140   7.737   6.878   7.808  0.3760 -1.0492 -0.0680
  705MOL0     H95141   7.898   6.980   7.662  0.8530 -1.1307  1.1216
  705MOL0     H95142   7.826   7.142   7.693  0.3534  0.0807 -0.7217
  705MOL0     H95143   7.995   7.143   7.835 -0.7821  1.0005 -0.5399
  705MOL0     H95144   7.902   7.038   7.948 -0.8431 -0.6986 -0.4912
  705MOL0     H95145   8.098   6.978   7.718  0.3034 -2.7458 -0.8671
  705MOL0     H95146   8.030   6.851   7.818  0.4655  0.5377 -2.8061
  705MOL0     H95147   8.152   6.939   8.023 -1.1938  2.4664  0.6220
  705MOL0     H95148   8.203   7.068   7.927 -0.0944 -1.0073  5.1199
  705MOL0     H95149   8.271   6.769   7.862 -0.1036 -0.3163  0.5799
  705MOL0     H95150   8.315   6.908   7.753 -0.5219  5.5115  0.8068
  705MOL0     H95151   8.405   6.872   8.044 -0.3443 -2.6489 -0.5043
  705MOL0     H95152   8.462   6.996   7.926  2.3642 -1.8500 -0.9757
  705MOL0     H95153   8.628   6.798   7.974 -1.6346 -3.3709  2.5723
  705MOL0     H95154   8.513   6.698   7.909  0.8484 -0.4215 -0.0674
  705MOL0     H95155   7.490   6.956   7.900  0.3141 -3.5625  0.5293
  705MOL0     H95156   7.254   6.920   7.916 -1.0560 -1.4262 -0.8735
  705MOL0     H95157   6.828   7.094   7.502 -1.0797  0.7481  0.3482
  705MOL0     H95158   6.590   7.054   7.501  2.3522  1.7976 -0.5709
  705MOL0     H95159   4.818   6.187   7.995  0.3611  2.3717  1.2861
  705MOL0     H95160   4.598   6.099   7.980  0.5076 -1.2844 -1.0952
  705MOL0     H95161   4.121   6.217   8.073  3.3998 -0.5671 -0.4777
  705MOL0     H95162   3.878   6.177   8.042  1.5741  1.6090 -0.0115
  705MOL0     H95163   3.650   6.209   7.960  2.1973  0.8332 -0.4847
  705MOL0     H95164   3.693   6.041   7.961  0.8286  0.2127 -0.0708
  705MOL0     H95165   3.469   6.023   7.908  2.2840 -1.5184  1.4883
  705MOL0     H95166   3.574   5.999   7.761  0.9596  0.2838  0.6238
  705MOL0     H95167   3.513   6.205   7.662 -0.5215 -0.2933 -1.3598
  705MOL0     H95168   3.446   6.267   7.811 -2.2912 -0.3089 -0.6652
  705MOL0     H95169   3.267   6.090   7.798  1.3613 -0.7740  0.6414
  705MOL0     H95170   3.247   6.206   7.668 -2.3223 -1.3667  0.8466
  705MOL0     H95171   3.372   5.887   7.418  0.6430  0.7834 -0.1643
  705MOL0     H95172   3.928   6.168   7.617  0.9363 -1.6636 -0.5095
  705MOL0     H95173   4.257   6.099   7.613  0.4172  0.3388  4.2134
  705MOL0     H95174   4.136   6.195   7.508  2.8355  1.6403 -1.5696
  705MOL0     H95175   4.247   6.284   7.597 -2.3177  1.7747 -1.8174
  706MOL0     O95176   0.942   2.374   2.842  0.2257 -0.5529 -0.4280
  706MOL0     C95177   0.913   2.351   2.960  0.1779 -0.1699 -0.0369
  706MOL0     O95178   0.998   2.359   3.064  0.4465 -0.2411  0.2814
  706MOL0     C95179   1.110   2.436   3.042  0.1519 -0.5694  0.2226
  706MOL0     C95180   1.123   2.566   3.083 -0.4160 -0.7776 -0.3043
  706MOL0     C95181   1.239   2.644   3.074 -0.6714 -0.2985 -0.2887
  706MOL0     C95182   1.354   2.583   3.021 -0.2538  0.1882  0.9440
  706MOL0     O95183   1.474   2.652   3.008 -0.2207  0.5558  0.2100
  706MOL0     C95184   1.489   2.779   3.078  0.0222  0.0405 -0.5234
  706MOL0     C95185   1.633   2.832   3.045 -0.0777  0.2406 -0.2275
  706MOL0     C95186   1.753   2.743   3.093 -0.5122 -0.3969  0.3603
  706MOL0     C95187   1.879   2.805   3.027 -0.0326  0.3866 -0.0706
  706MOL0     C95188   1.992   2.737   3.096 -0.0353  0.2946 -0.2386
  706MOL0     C95189   2.118   2.803   3.047 -0.5169  0.3350  0.2490
  706MOL0     C95190   2.245   2.762   3.104 -0.3681 -0.1170  1.2285
  706MOL0     C95191   2.288   2.614   3.078  0.2803  0.3037  0.5788
  706MOL0     N95192   2.418   2.595   3.149 -0.1932 -0.6675  0.2909
  706MOL0     C95193   2.527   2.562   3.081 -0.0131 -0.0138 -0.2959
  706MOL0     C95194   2.612   2.525   3.187 -0.2934  0.6107  0.1684
  706MOL0     C95195   2.747   2.472   3.164 -0.1386  0.2212 -0.0523
  706MOL0     C95196   2.840   2.589   3.113  0.3714 -0.1259 -1.0799
  706MOL0     C95197   2.852   2.705   3.216 -0.4849 -1.3290 -0.0179
  706MOL0     C95198   2.872   2.655   3.355  0.4728  0.2265 -0.2540
  706MOL0     O95199   2.950   2.750   3.413 -0.1956  0.2176 -0.2909
  706MOL0     C95200   3.017   2.733   3.533 -0.3019 -0.3560 -0.0398
  706MOL0     C95201   3.104   2.837   3.580  1.5006 -0.1558  0.3730
  706MOL0     C95202   3.158   2.828   3.709 -0.1302  0.3852  0.1442
  706MOL0     C95203   3.128   2.723   3.794 -0.3245  0.5977 -0.2973
  706MOL0     C95204   3.204   2.708   3.921  0.4959 -0.1598 -0.0498
  706MOL0     O95205   3.292   2.810   3.955 -0.3136 -0.2416 -0.5160
  706MOL0     C95206   3.347   2.809   4.081 -0.8181  0.2211 -0.2643
  706MOL0     C95207   3.279   2.778   4.197  0.5538  0.5044  1.0067
  706MOL0     C95208   3.323   2.798   4.323 -0.3283  0.1353  0.4117
  706MOL0     C95209   3.445   2.855   4.348  0.1355  0.0299 -0.8418
  706MOL0     O95210   3.487   2.875   4.484 -0.1190  0.1213 -0.1621
  706MOL0     C95211   3.609   2.824   4.526 -1.1727 -0.4343 -0.6725
  706MOL0     C95212   3.622   2.823   4.676 -0.2796 -0.8225  0.0169
  706MOL0     C95213   3.511   2.728   4.742 -1.0029 -0.2222  0.3807
  706MOL0     C95214   3.538   2.581   4.705 -0.0878  0.5197 -0.7812
  706MOL0     C95215   3.423   2.493   4.764 -0.2406 -0.8258  1.1445
  706MOL0     C95216   3.283   2.523   4.717  0.4072  0.1686 -0.5487
  706MOL0     C95217   3.287   2.529   4.559  0.1074  0.3691 -0.3468
  706MOL0     C95218   3.141   2.521   4.509  0.1938  0.6817  0.3531
  706MOL0    Cl95219   3.139   2.492   4.339 -0.4238  0.1067 -0.1406
  706MOL0     C95220   3.513   2.902   4.235 -0.0750  0.3016 -0.3619
  706MOL0     C95221   3.467   2.885   4.103 -1.0277  0.0735 -0.8154
  706MOL0     O95222   3.187   2.606   3.988  0.1366  0.1688  0.0270
  706MOL0     C95223   3.051   2.609   3.745  0.1250  0.0979 -0.2144
  706MOL0     C95224   2.991   2.623   3.615  0.4011  0.0349 -0.2606
  706MOL0     N95225   2.551   2.552   3.310 -0.2617  0.5246  0.1388
  706MOL0     N95226   2.433   2.578   3.282 -0.2740  0.1281  0.3641
  706MOL0     C95227   1.345   2.454   2.974  0.3970  0.5643 -0.4404
  706MOL0     C95228   1.225   2.383   2.988  0.1021  0.2797 -0.2538
  706MOL0     C95229   0.768   2.328   2.986  0.7493  0.2792 -0.7161
  706MOL0     C95230   0.718   2.374   3.111 -0.8713 -0.6296 -0.1214
  706MOL0     C95231   0.590   2.335   3.158  0.3659 -0.5325 -0.3701
  706MOL0     C95232   0.504   2.274   3.073 -0.2264  0.3984 -1.1566
  706MOL0     O95233   0.384   2.246   3.123 -0.1276  0.2160  0.9899
  706MOL0     C95234   0.297   2.167   3.037 -0.5729  1.1971  0.3118
  706MOL0     C95235   0.156   2.168   3.095  0.4547  0.3369  0.2659
  706MOL0     C95236   0.070   2.064   3.026  0.0759 -0.1742  0.3918
  706MOL0     C95237  -0.077   2.059   3.077  0.1888  0.8632 -0.4582
  706MOL0     C95238  -0.146   2.183   3.093  0.7873  0.2765 -0.2075
  706MOL0     C95239  -0.201   2.284   3.101  0.1920 -0.5690  0.2167
  706MOL0     C95240   0.541   2.238   2.947 -0.3818  0.0047 -0.2742
  706MOL0     C95241   0.677   2.251   2.908 -0.2776  0.7327  0.8324
  706MOL0     C95242   0.738   2.166   2.808 -0.4214 -0.1225  0.5429
  706MOL0     H95243   1.035   2.608   3.131 -0.3806  1.8552 -2.3385
  706MOL0     H95244   1.229   2.746   3.109 -0.2320 -0.9828  1.9714
  706MOL0     H95245   1.414   2.857   3.057 -0.4578 -0.6838 -1.6024
  706MOL0     H95246   1.478   2.757   3.184  1.3855 -1.3188 -0.6263
  706MOL0     H95247   1.637   2.931   3.089 -1.3140 -0.9505  2.8454
  706MOL0     H95248   1.648   2.848   2.938 -0.0699  3.0005  0.1280
  706MOL0     H95249   1.748   2.638   3.062  1.4021 -0.4016 -0.0146
  706MOL0     H95250   1.768   2.741   3.201  2.2708 -2.4347  0.0406
  706MOL0     H95251   1.874   2.776   2.922 -1.5147  1.0221 -0.1997
  706MOL0     H95252   1.887   2.914   3.032  0.3847  0.3179  0.9890
  706MOL0     H95253   1.977   2.757   3.203 -0.0883 -2.1776  0.2793
  706MOL0     H95254   1.982   2.629   3.083  1.2218  0.4505 -3.0413
  706MOL0     H95255   2.120   2.781   2.940 -1.4113  2.8360 -0.3605
  706MOL0     H95256   2.113   2.912   3.061 -0.5921  0.7156 -2.1940
  706MOL0     H95257   2.247   2.780   3.212  1.9107 -0.7049  1.3284
  706MOL0     H95258   2.317   2.827   3.054 -0.1096 -2.8083 -2.2849
  706MOL0     H95259   2.225   2.536   3.120  2.0285  0.2132  3.3169
  706MOL0     H95260   2.293   2.591   2.972 -0.8867 -1.2614  0.8377
  706MOL0     H95261   2.554   2.563   2.976  0.9300  2.9666 -0.1357
  706MOL0     H95262   2.793   2.424   3.251  1.6482  0.8147 -0.6281
  706MOL0     H95263   2.745   2.395   3.086 -0.2359 -2.4153  2.3954
  706MOL0     H95264   2.933   2.541   3.082  0.0177 -0.2386 -2.0006
  706MOL0     H95265   2.792   2.640   3.029  0.7269 -0.5392 -1.5382
  706MOL0     H95266   2.765   2.771   3.219  0.2839 -0.3073  2.4226
  706MOL0     H95267   2.937   2.770   3.193 -0.9846 -0.5084  0.4137
  706MOL0     H95268   2.909   2.553   3.371 -1.1875 -0.1273  1.9031
  706MOL0     H95269   2.774   2.645   3.404 -0.0804 -1.3380 -1.5761
  706MOL0     H95270   3.129   2.919   3.515  0.9436  1.5388  2.2028
  706MOL0     H95271   3.232   2.900   3.744  0.5217 -1.5826  3.2482
  706MOL0     H95272   3.185   2.726   4.186  0.1149  1.4761 -0.1564
  706MOL0     H95273   3.270   2.760   4.410 -1.6286  0.1245 -0.3670
  706MOL0     H95274   3.640   2.725   4.491 -0.5190 -1.1451  1.7304
  706MOL0     H95275   3.690   2.882   4.481 -2.1106  1.3496 -0.1702
  706MOL0     H95276   3.719   2.787   4.711  0.9678  0.7391 -1.6582
  706MOL0     H95277   3.607   2.927   4.707 -3.0843 -1.0143 -0.4611
  706MOL0     H95278   3.517   2.739   4.851 -1.2539  0.9843  0.2799
  706MOL0     H95279   3.413   2.759   4.705 -1.0716 -2.3017 -1.3560
  706MOL0     H95280   3.628   2.538   4.751 -1.0698  0.8757  1.5881
  706MOL0     H95281   3.551   2.566   4.597 -1.0554  0.2351 -0.8670
  706MOL0     H95282   3.440   2.488   4.872  1.4209 -0.3202  0.9344
  706MOL0     H95283   3.455   2.399   4.718  0.8832 -0.0678  0.3291
  706MOL0     H95284   3.208   2.450   4.751  0.6546 -0.0702 -0.5163
  706MOL0     H95285   3.253   2.618   4.763 -0.3200  0.2982 -1.2647
  706MOL0     H95286   3.354   2.455   4.514 -1.0571  0.6186 -2.6742
  706MOL0     H95287   3.331   2.624   4.527 -0.4919 -0.3397 -3.6108
  706MOL0     H95288   3.095   2.437   4.561  0.3412  0.2207 -0.2416
  706MOL0     H95289   3.089   2.613   4.537 -0.7973 -0.5923  3.0026
  706MOL0     H95290   3.597   2.965   4.265 -0.8483  0.9917  0.4088
  706MOL0     H95291   3.522   2.932   4.022 -3.7727  3.9142 -0.7318
  706MOL0     H95292   3.039   2.518   3.802  0.8611 -0.8857 -1.5599
  706MOL0     H95293   2.918   2.548   3.583 -1.0987  1.4548 -0.3073
  706MOL0     H95294   1.430   2.398   2.936  1.2544 -0.8779  3.1833
  706MOL0     H95295   1.224   2.283   2.946 -0.4899  1.3444 -2.9811
  706MOL0     H95296   0.777   2.424   3.187 -1.8234 -2.7606  2.1641
  706MOL0     H95297   0.567   2.352   3.263  3.8898 -3.2940  1.0531
  706MOL0     H95298   0.340   2.067   3.026 -0.9315  1.0221  0.4872
  706MOL0     H95299   0.277   2.213   2.939 -1.6252  1.4935  0.6489
  706MOL0     H95300   0.115   2.267   3.075  1.7092  0.7079 -0.5728
  706MOL0     H95301   0.148   2.148   3.202  1.4379 -2.1185 -0.0489
  706MOL0     H95302   0.119   1.966   3.023  0.9688  0.2834 -0.9132
  706MOL0     H95303   0.068   2.098   2.922 -1.0704 -1.7150 -0.1266
  706MOL0     H95304  -0.130   1.995   3.007  2.6617 -1.2359 -0.5807
  706MOL0     H95305  -0.073   2.009   3.175 -1.9333 -0.1628 -0.8446
  706MOL0     H95306  -0.238   2.385   3.101  0.8842 -0.2443  2.8538
  706MOL0     H95307   0.482   2.183   2.874 -1.0713 -0.3087  0.4961
  706MOL0     H95308   0.796   2.215   2.730 -2.1841 -0.0501 -0.7701
  706MOL0     H95309   0.792   2.079   2.848  0.5256  1.0841  1.9856
  706MOL0     H95310   0.652   2.125   2.755 -0.4435  2.6086 -1.7651
  707MOL0     O95311   5.174   3.313   4.265  0.6075 -0.0616  0.1362
  707MOL0     C95312   5.142   3.404   4.187 -0.1948 -0.2589 -0.0295
  707MOL0     O95313   5.236   3.489   4.131 -0.1741 -0.0703  0.5053
  707MOL0     C95314   5.365   3.459   4.113  0.5587 -0.5582 -0.7294
  707MOL0     C95315   5.405   3.341   4.049  0.3459 -0.3487 -0.6774
  707MOL0     C95316   5.538   3.307   4.035  0.2764  0.1966 -0.3352
  707MOL0     C95317   5.641   3.384   4.096  0.3013  0.5209 -0.7863
  707MOL0     O95318   5.768   3.335   4.095  0.2964 -0.1973 -0.5502
  707MOL0     C95319   5.840   3.391   3.988  0.3995 -0.4870  0.3358
  707MOL0     C95320   5.983   3.339   3.992 -1.9105 -0.4101  0.2585
  707MOL0     C95321   6.068   3.405   3.884  0.8037 -0.5060  0.8686
  707MOL0     C95322   6.207   3.351   3.889 -0.6896  0.7800  0.4180
  707MOL0     C95323   6.286   3.406   3.769 -0.1123  0.5838 -0.5791
  707MOL0     C95324   6.430   3.401   3.787 -0.0825 -0.7972  0.1880
  707MOL0     C95325   6.483   3.441   3.656  0.2723  1.1327  0.3300
  707MOL0     C95326   6.633   3.427   3.665  0.6530  0.0022  0.2445
  707MOL0     N95327   6.680   3.445   3.527  0.5259 -0.0183 -0.0295
  707MOL0     C95328   6.688   3.561   3.450 -0.0804 -1.3175  0.0796
  707MOL0     C95329   6.733   3.529   3.326  0.0163 -0.0465  0.0380
  707MOL0     C95330   6.757   3.614   3.202 -0.0025  0.3229  0.6398
  707MOL0     C95331   6.882   3.585   3.140  0.4014  0.7964 -0.2360
  707MOL0     C95332   6.993   3.676   3.184  0.5170  0.1825  0.0253
  707MOL0     C95333   7.139   3.622   3.185  0.1499  0.6595  1.2315
  707MOL0     O95334   7.195   3.646   3.048  0.1534  0.1601  0.7365
  707MOL0     C95335   7.331   3.604   3.026  0.6777 -0.7936  0.3681
  707MOL0     C95336   7.418   3.584   3.137 -0.3383 -0.5267 -0.4154
  707MOL0     C95337   7.554   3.569   3.115  0.4540 -0.3096  0.0415
  707MOL0     C95338   7.613   3.574   2.985  0.8600  0.0646 -0.1683
  707MOL0     C95339   7.754   3.580   2.966  0.5414  0.0804  0.3178
  707MOL0     O95340   7.829   3.632   3.068 -0.0492  0.8141 -0.0224
  707MOL0     C95341   7.962   3.660   3.037 -0.7888  0.7352 -0.4671
  707MOL0     C95342   8.017   3.792   3.024  0.0149 -0.5374  0.1979
  707MOL0     C95343   8.151   3.817   3.015 -0.4414  0.6066  0.0040
  707MOL0     C95344   8.241   3.710   2.996  0.5350  0.1160 -0.0647
  707MOL0     O95345   8.366   3.738   2.959 -0.2359 -0.2910  0.0436
  707MOL0     C95346   8.450   3.820   3.051 -0.0345  0.1597 -0.1407
  707MOL0     C95347   8.602   3.788   3.037  0.6440 -0.3363  0.3306
  707MOL0     C95348   8.688   3.894   3.119 -0.1797 -0.4992 -0.3038
  707MOL0     C95349   8.843   3.878   3.128  0.4418  0.3532  0.0592
  707MOL0     C95350   8.912   3.934   3.006  0.0546 -0.7058  0.8459
  707MOL0     C95351   9.056   3.903   3.027  0.3460 -0.0109 -0.0526
  707MOL0     C95352   9.163   3.970   2.929  0.6931 -0.3946 -0.1241
  707MOL0     C95353   9.295   3.969   2.988 -0.4758 -0.0682  0.0585
  707MOL0    Cl95354   9.368   3.805   3.007 -0.1552 -0.2179 -0.2941
  707MOL0     C95355   8.196   3.579   3.001 -0.3100 -0.0243  0.2279
  707MOL0     C95356   8.058   3.557   3.022  0.1639  0.7108 -0.2582
  707MOL0     O95357   7.793   3.533   2.858  0.6632  0.2019  0.0572
  707MOL0     C95358   7.523   3.573   2.877  0.2908 -0.9137  0.4168
  707MOL0     C95359   7.390   3.606   2.899  0.0012 -0.6596  0.7545
  707MOL0     N95360   6.751   3.393   3.329  0.2293  0.2494  0.0759
  707MOL0     N95361   6.712   3.344   3.437  0.3669 -0.4785 -1.6167
  707MOL0     C95362   5.606   3.503   4.160 -0.2739 -0.4090 -0.2826
  707MOL0     C95363   5.468   3.539   4.169 -0.1232 -0.4509 -0.3763
  707MOL0     C95364   5.002   3.456   4.175  0.2750  0.0025 -0.5063
  707MOL0     C95365   4.990   3.596   4.141 -0.8349  1.0909 -0.5451
  707MOL0     C95366   4.863   3.652   4.119 -0.0238  0.4112 -0.0340
  707MOL0     C95367   4.750   3.572   4.111 -0.4633 -0.8176 -1.2786
  707MOL0     O95368   4.624   3.623   4.091  0.1736 -0.7056  0.0420
  707MOL0     C95369   4.614   3.772   4.109  0.5506  0.4272  0.5710
  707MOL0     C95370   4.476   3.818   4.083  0.1266  0.0385  0.0457
  707MOL0     C95371   4.387   3.780   4.205  0.8413 -0.2546 -0.2496
  707MOL0     C95372   4.236   3.805   4.173 -0.1474 -0.3628  0.1446
  707MOL0     C95373   4.186   3.692   4.095  1.1250  0.0311 -0.5261
  707MOL0     C95374   4.144   3.597   4.025  0.3994  0.1915 -0.2073
  707MOL0     C95375   4.766   3.434   4.130  0.3486  0.9861  0.5851
  707MOL0     C95376   4.886   3.373   4.171  0.2325 -1.0426  0.0913
  707MOL0     C95377   4.880   3.229   4.210  0.3109 -0.5114 -0.4532
  707MOL0     H95378   5.327   3.282   4.001 -0.6295  1.7591 -1.8062
  707MOL0     H95379   5.561   3.214   3.984 -0.9276  0.2413 -1.0020
  707MOL0     H95380   5.786   3.368   3.895 -0.8851  3.5761 -0.1371
  707MOL0     H95381   5.829   3.500   3.999 -0.5188 -0.6668  1.4209
  707MOL0     H95382   5.986   3.230   3.983  1.7116 -0.3309 -1.1054
  707MOL0     H95383   6.040   3.353   4.084 -1.1264 -1.2378 -0.0879
  707MOL0     H95384   6.070   3.512   3.907  0.4837 -0.0546 -1.0057
  707MOL0     H95385   6.015   3.395   3.788 -1.1263  2.1357  1.5517
  707MOL0     H95386   6.251   3.382   3.985  1.2597 -0.9530  0.1614
  707MOL0     H95387   6.203   3.242   3.885  0.8938  0.7514 -1.9111
  707MOL0     H95388   6.252   3.343   3.686 -1.3889 -2.4877  2.0500
  707MOL0     H95389   6.253   3.510   3.761  0.3231  0.8399  0.7964
  707MOL0     H95390   6.469   3.471   3.862  1.4568  1.8610 -2.8482
  707MOL0     H95391   6.458   3.297   3.804 -1.5274 -1.1293  0.6685
  707MOL0     H95392   6.454   3.544   3.636  0.5302  1.1986  0.2877
  707MOL0     H95393   6.452   3.376   3.573 -3.4476  1.1339  1.5878
  707MOL0     H95394   6.665   3.498   3.741 -0.4610  0.0607  0.6729
  707MOL0     H95395   6.666   3.329   3.700 -1.1224 -0.7837 -0.1405
  707MOL0     H95396   6.661   3.664   3.474 -0.8714 -1.6096  0.4870
  707MOL0     H95397   6.677   3.589   3.131 -0.8010  2.3304  0.7655
  707MOL0     H95398   6.740   3.718   3.230  2.1358 -0.1338  4.2774
  707MOL0     H95399   6.910   3.480   3.153 -0.9255  0.3898 -0.4639
  707MOL0     H95400   6.874   3.588   3.031  1.2465  2.1317 -0.2774
  707MOL0     H95401   6.975   3.716   3.284  1.7962  1.4109 -0.2010
  707MOL0     H95402   6.996   3.759   3.113  3.0660  1.1835  1.1891
  707MOL0     H95403   7.141   3.515   3.207 -2.8470  0.0775 -0.7362
  707MOL0     H95404   7.190   3.673   3.267  0.7374 -0.7712  1.7873
  707MOL0     H95405   7.391   3.577   3.242  4.0234  1.7742  1.0706
  707MOL0     H95406   7.619   3.552   3.200 -0.7023 -1.9409  0.6391
  707MOL0     H95407   7.955   3.882   3.029  0.5498 -0.2150  1.6461
  707MOL0     H95408   8.197   3.916   3.010 -0.8396  0.8980  1.6784
  707MOL0     H95409   8.436   3.926   3.028 -0.7845  0.4649  1.5430
  707MOL0     H95410   8.418   3.799   3.153  1.9358  0.4728  0.6003
  707MOL0     H95411   8.631   3.691   3.077  0.6890  0.3507  2.0213
  707MOL0     H95412   8.625   3.795   2.930 -1.3054  0.3537 -0.0926
  707MOL0     H95413   8.671   3.990   3.070  0.6266  0.3470  1.0008
  707MOL0     H95414   8.651   3.885   3.222 -2.1593  1.8307 -0.7223
  707MOL0     H95415   8.867   3.772   3.142 -1.4292 -0.1656 -0.3576
  707MOL0     H95416   8.889   3.932   3.211  1.5508 -1.9711  1.0356
  707MOL0     H95417   8.914   4.043   3.000  0.2618 -0.7929 -2.3537
  707MOL0     H95418   8.868   3.890   2.915  1.0488 -3.1584  1.4739
  707MOL0     H95419   9.092   3.938   3.125 -0.7039  0.7632  0.0768
  707MOL0     H95420   9.064   3.794   3.034  0.1685 -0.1112 -1.2600
  707MOL0     H95421   9.128   4.074   2.921 -0.6896 -0.7540  0.8355
  707MOL0     H95422   9.182   3.918   2.835  0.2745 -0.5554 -0.1205
  707MOL0     H95423   9.360   4.035   2.930 -0.7584 -0.4221 -0.6788
  707MOL0     H95424   9.290   4.010   3.089  1.8913  5.3887 -1.6473
  707MOL0     H95425   8.264   3.498   2.977 -1.4061 -0.4335 -1.7637
  707MOL0     H95426   8.026   3.454   3.035 -0.5542  0.7746 -1.4033
  707MOL0     H95427   7.554   3.575   2.772 -0.2327 -2.2994  0.2270
  707MOL0     H95428   7.325   3.630   2.815  1.7043  1.1018 -0.1360
  707MOL0     H95429   5.681   3.558   4.216  0.3091  1.4616 -2.6904
  707MOL0     H95430   5.434   3.621   4.231  0.3707  1.1785 -2.1546
  707MOL0     H95431   5.077   3.660   4.139 -0.5353  0.6963 -0.2581
  707MOL0     H95432   4.863   3.760   4.104 -1.7852  0.4984  0.3798
  707MOL0     H95433   4.673   3.809   4.025 -0.4725 -1.8152 -1.2312
  707MOL0     H95434   4.650   3.802   4.208  0.8775 -2.9410  1.6283
  707MOL0     H95435   4.444   3.769   3.990 -0.5621  3.0580 -1.4111
  707MOL0     H95436   4.472   3.926   4.072 -2.2280  0.1352  1.1440
  707MOL0     H95437   4.405   3.839   4.295 -1.3420 -2.0331  1.4594
  707MOL0     H95438   4.397   3.676   4.239  2.6387  0.8035  2.7853
  707MOL0     H95439   4.179   3.815   4.266 -0.2360  1.9989 -0.0931
  707MOL0     H95440   4.223   3.903   4.126  0.7073  0.3617  1.3269
  707MOL0     H95441   4.122   3.514   3.961  3.6096 -1.2278  0.2950
  707MOL0     H95442   4.674   3.377   4.121  1.3404 -0.5024 -0.5912
  707MOL0     H95443   4.798   3.182   4.155 -0.8739  0.2923  0.5445
  707MOL0     H95444   4.973   3.185   4.174  1.1141  2.8017 -2.9853
  707MOL0     H95445   4.850   3.219   4.315 -1.5113  0.4297 -0.8419
  708MOL0     O95446   9.876   2.990   8.414 -0.1886  0.2722 -0.4665
  708MOL0     C95447   9.901   2.895   8.490  0.7984 -0.1553  0.3408
  708MOL0     O95448   9.978   2.893   8.601 -0.5040 -0.1785  0.5943
  708MOL0     C95449  10.069   2.994   8.610  0.1213 -0.4991 -1.1033
  708MOL0     C95450  10.201   2.969   8.603 -0.6390  0.3775 -0.1602
  708MOL0     C95451  10.306   3.063   8.603  0.7612 -0.1100  1.1279
  708MOL0     C95452  10.270   3.200   8.599  0.6720  0.2512  0.6819
  708MOL0     O95453  10.372   3.286   8.587  0.8817  0.2285  0.1851
  708MOL0     C95454  10.332   3.422   8.562  0.1146  0.0534  0.3059
  708MOL0     C95455  10.454   3.500   8.527  0.3329 -0.1081 -0.3824
  708MOL0     C95456  10.550   3.520   8.646 -0.4049 -0.8031 -0.1115
  708MOL0     C95457  10.676   3.587   8.601 -0.5951 -0.8694  0.5857
  708MOL0     C95458  10.743   3.659   8.725  0.3357  0.3971  0.6156
  708MOL0     C95459  10.826   3.560   8.802  0.1793  0.1763 -1.0571
  708MOL0     C95460  10.915   3.633   8.909 -0.6790 -0.3950 -0.3551
  708MOL0     C95461  11.051   3.685   8.858 -0.3634  0.2526  0.1486
  708MOL0     N95462  11.137   3.711   8.972 -0.4310 -0.0906  0.2818
  708MOL0     C95463  11.213   3.624   9.033  0.3258  0.1603  0.2390
  708MOL0     C95464  11.252   3.680   9.148 -0.0248  0.3272  0.4884
  708MOL0     C95465  11.333   3.605   9.246  0.8072 -0.5391  0.7546
  708MOL0     C95466  11.472   3.566   9.193 -0.4250  0.4883  0.0153
  708MOL0     C95467  11.560   3.480   9.278  0.1171 -0.0934  0.0690
  708MOL0     C95468  11.675   3.432   9.201  0.4473  0.6617  0.1547
  708MOL0     O95469  11.757   3.360   9.293 -1.4673 -0.4557  0.7586
  708MOL0     C95470  11.892   3.347   9.246  0.6863  0.7574 -0.2381
  708MOL0     C95471  11.976   3.315   9.349  0.1394  0.7744 -0.2575
  708MOL0     C95472  12.109   3.280   9.316 -0.9891 -0.5569 -0.0370
  708MOL0     C95473  12.150   3.266   9.185 -0.3339 -0.1029  1.4023
  708MOL0     C95474  12.286   3.216   9.154  0.6679 -0.1951  0.2302
  708MOL0     O95475  12.347   3.270   9.042  0.4242 -0.3508 -0.7456
  708MOL0     C95476  12.461   3.227   8.980  0.0809  0.3523 -0.5789
  708MOL0     C95477  12.539   3.114   9.021 -0.3325 -0.7544  0.3197
  708MOL0     C95478  12.660   3.077   8.948  0.6371 -0.2782  0.9179
  708MOL0     C95479  12.694   3.147   8.829  0.1467 -0.1694  0.1443
  708MOL0     O95480  12.801   3.120   8.750  0.0221  0.2081  0.4726
  708MOL0     C95481  12.905   3.019   8.793  1.1934 -0.2491 -0.1403
  708MOL0     C95482  13.045   3.068   8.743  0.3172  0.2106  0.7703
  708MOL0     C95483  13.171   3.022   8.825 -0.1099 -0.8387 -0.8213
  708MOL0     C95484  13.301   3.099   8.780 -0.8176 -0.3432  0.0654
  708MOL0     C95485  13.417   3.043   8.866 -0.0180 -0.3630  0.1154
  708MOL0     C95486  13.554   3.092   8.801 -0.1693  0.8631  0.0129
  708MOL0     C95487  13.682   3.026   8.872  0.1240 -0.3829 -0.4930
  708MOL0     C95488  13.816   3.073   8.803  0.1427  0.2227  0.1127
  708MOL0    Cl95489  13.830   3.251   8.815 -0.4733 -0.1738 -0.3866
  708MOL0     C95490  12.608   3.256   8.796  0.0381 -0.3340  0.2217
  708MOL0     C95491  12.500   3.300   8.872  0.9256  0.3529  0.3045
  708MOL0     O95492  12.336   3.132   9.224 -0.8052 -0.1832  0.5417
  708MOL0     C95493  12.068   3.306   9.081 -0.0374  0.2888 -0.0875
  708MOL0     C95494  11.938   3.360   9.111  0.0344 -0.8210 -0.1279
  708MOL0     N95495  11.212   3.809   9.148  0.4942  0.7990  0.0973
  708MOL0     N95496  11.139   3.824   9.038 -0.5514 -0.1741 -0.8300
  708MOL0     C95497  10.130   3.231   8.614  0.9765  0.0289 -0.3687
  708MOL0     C95498  10.031   3.130   8.623 -0.9313  0.6126 -0.6447
  708MOL0     C95499   9.831   2.763   8.452 -0.8480 -0.3445 -0.4130
  708MOL0     C95500   9.786   2.691   8.567 -0.4137 -0.1243  0.9211
  708MOL0     C95501   9.727   2.569   8.546  0.2611 -0.5095  0.1538
  708MOL0     C95502   9.719   2.497   8.428  0.9583  0.5570  0.2328
  708MOL0     O95503   9.668   2.369   8.398 -0.6050 -0.2342  0.6086
  708MOL0     C95504   9.629   2.295   8.513  0.6672  0.0698  0.6423
  708MOL0     C95505   9.749   2.231   8.580 -0.0692  0.2370 -0.2801
  708MOL0     C95506   9.837   2.158   8.484 -1.0429  1.0323  0.2138
  708MOL0     C95507   9.775   2.049   8.407  0.6306 -0.5333 -0.4106
  708MOL0     C95508   9.752   1.936   8.493 -0.1042  1.0539  0.6514
  708MOL0     C95509   9.724   1.832   8.555  0.1503  0.6786 -0.6709
  708MOL0     C95510   9.769   2.568   8.320 -0.4908 -0.5348  0.7855
  708MOL0     C95511   9.807   2.708   8.327 -0.3159  0.3227  0.3417
  708MOL0     C95512   9.838   2.778   8.191  0.2130  0.4859 -0.1317
  708MOL0     H95513  10.229   2.864   8.600  0.5655  0.6483  0.9976
  708MOL0     H95514  10.412   3.044   8.609  1.0972  1.6877  1.7480
  708MOL0     H95515  10.275   3.428   8.468  0.7844 -2.4661 -0.3480
  708MOL0     H95516  10.277   3.459   8.649 -1.5685  1.0476 -1.1016
  708MOL0     H95517  10.435   3.599   8.485  1.9099  1.3477  2.1141
  708MOL0     H95518  10.514   3.448   8.452  0.7423  1.2150 -1.0028
  708MOL0     H95519  10.569   3.420   8.686 -1.0200 -0.3982  1.2656
  708MOL0     H95520  10.502   3.583   8.722  1.3455 -1.0881  1.2881
  708MOL0     H95521  10.745   3.525   8.542 -0.1378  1.9930 -2.2334
  708MOL0     H95522  10.650   3.665   8.528  0.2502 -1.2649 -0.1576
  708MOL0     H95523  10.812   3.734   8.685  1.4352 -1.7217 -1.7615
  708MOL0     H95524  10.668   3.702   8.792 -1.1486 -1.3624  0.1424
  708MOL0     H95525  10.758   3.489   8.849  0.8660 -1.0635 -1.8826
  708MOL0     H95526  10.887   3.496   8.738 -0.7641 -1.1188 -0.7078
  708MOL0     H95527  10.936   3.561   8.989  2.0054 -0.9088 -1.4340
  708MOL0     H95528  10.867   3.721   8.953 -1.2112  0.4531 -2.4995
  708MOL0     H95529  11.101   3.606   8.801  0.7782  1.5647 -0.7267
  708MOL0     H95530  11.050   3.770   8.789 -0.0709  0.7419  0.7358
  708MOL0     H95531  11.222   3.518   9.011  0.4564  0.6371 -2.2728
  708MOL0     H95532  11.350   3.677   9.327  0.4361  1.3151 -0.7345
  708MOL0     H95533  11.281   3.513   9.275 -1.8312 -0.4315 -2.8588
  708MOL0     H95534  11.444   3.517   9.100 -0.4819  1.3483 -0.4331
  708MOL0     H95535  11.521   3.662   9.174 -3.4554  1.9601 -1.0651
  708MOL0     H95536  11.506   3.395   9.320 -1.4200  0.7831 -0.0319
  708MOL0     H95537  11.584   3.549   9.359  0.6402  1.5864 -1.4462
  708MOL0     H95538  11.726   3.517   9.154  2.5042  0.5698  2.0893
  708MOL0     H95539  11.651   3.367   9.116  0.5767 -0.5846  1.0495
  708MOL0     H95540  11.935   3.310   9.449  0.0473 -0.6000 -0.3423
  708MOL0     H95541  12.185   3.272   9.393 -0.1482  2.5955 -0.3840
  708MOL0     H95542  12.517   3.041   9.099 -1.6073 -0.1992  0.5008
  708MOL0     H95543  12.717   2.991   8.980  1.0645 -1.4141 -2.5200
  708MOL0     H95544  12.912   3.018   8.902 -1.1265  1.7938  0.1078
  708MOL0     H95545  12.874   2.919   8.763 -2.4519  0.3195  1.2639
  708MOL0     H95546  13.045   3.031   8.640 -0.7049  1.8394  0.1355
  708MOL0     H95547  13.053   3.177   8.736  1.4261  0.1867  1.3912
  708MOL0     H95548  13.151   3.047   8.930  2.4008  2.3015 -0.9395
  708MOL0     H95549  13.174   2.915   8.807 -5.6714 -1.0900 -1.8961
  708MOL0     H95550  13.301   3.206   8.806  3.0081 -0.0766 -0.4423
  708MOL0     H95551  13.316   3.082   8.673  2.6517  1.1965  0.1728
  708MOL0     H95552  13.413   2.934   8.859  0.0761 -0.7977  4.2902
  708MOL0     H95553  13.398   3.055   8.973  1.4697  1.6906  0.2069
  708MOL0     H95554  13.549   3.066   8.695 -0.1953 -0.6207  0.3558
  708MOL0     H95555  13.557   3.200   8.812 -3.1797  1.3080 -2.4006
  708MOL0     H95556  13.689   2.917   8.861  2.0669 -0.2314 -1.2350
  708MOL0     H95557  13.675   3.051   8.978 -3.8093 -2.5730 -0.0320
  708MOL0     H95558  13.909   3.032   8.844 -0.6349 -0.4962  1.1812
  708MOL0     H95559  13.807   3.036   8.700 -0.1228 -0.2820  0.3184
  708MOL0     H95560  12.647   3.309   8.710  0.3176 -2.8661 -1.3030
  708MOL0     H95561  12.451   3.387   8.830 -0.2909  0.1266  1.2109
  708MOL0     H95562  12.103   3.277   8.982 -2.0636 -2.7230 -0.0383
  708MOL0     H95563  11.866   3.388   9.035  0.9357 -0.7651 -0.9899
  708MOL0     H95564  10.088   3.330   8.628 -2.6277 -0.7563 -3.7466
  708MOL0     H95565   9.924   3.145   8.628 -1.2589 -0.8842 -2.3465
  708MOL0     H95566   9.812   2.710   8.670  2.3197 -1.2879  0.5352
  708MOL0     H95567   9.705   2.518   8.639  0.2962  1.1594  1.1187
  708MOL0     H95568   9.553   2.220   8.489  0.0911  1.3252 -1.8102
  708MOL0     H95569   9.573   2.361   8.581  2.7758  0.6503  1.9236
  708MOL0     H95570   9.719   2.162   8.659  2.9938  0.8928  1.6282
  708MOL0     H95571   9.812   2.309   8.622 -0.9775  0.9490 -0.1972
  708MOL0     H95572   9.924   2.116   8.534 -0.1660 -0.5012 -2.4422
  708MOL0     H95573   9.881   2.236   8.421  0.6318 -0.1298 -0.1082
  708MOL0     H95574   9.677   2.082   8.370  0.6663  0.8305  0.6122
  708MOL0     H95575   9.825   2.026   8.313 -0.7384 -1.0687 -1.0374
  708MOL0     H95576   9.690   1.732   8.575  0.6998  0.1540 -2.2294
  708MOL0     H95577   9.768   2.523   8.221  1.6222  0.0278  0.4542
  708MOL0     H95578   9.789   2.728   8.107 -0.2767 -0.2230  0.5483
  708MOL0     H95579   9.809   2.882   8.207 -0.7033  0.0675  1.0903
  708MOL0     H95580   9.945   2.774   8.171 -0.4296 -1.5620 -4.1743
  709MOL0     O95581   2.552   8.448   3.356  0.4932  0.1050 -0.2662
  709MOL0     C95582   2.551   8.561   3.305  0.0370 -0.3758 -0.0399
  709MOL0     O95583   2.666   8.630   3.271  0.1163 -0.3166 -0.3824
  709MOL0     C95584   2.796   8.591   3.311  0.7617 -0.3865 -0.2641
  709MOL0     C95585   2.835   8.472   3.374  0.5145 -0.3400  0.4206
  709MOL0     C95586   2.974   8.445   3.396  0.5601 -0.4395  0.3497
  709MOL0     C95587   3.070   8.541   3.357  0.8118  0.6575 -0.9584
  709MOL0     O95588   3.206   8.529   3.372  0.7715  0.8817  0.8066
  709MOL0     C95589   3.264   8.405   3.426 -0.1496 -0.4844  0.3939
  709MOL0     C95590   3.413   8.409   3.388  0.4677 -0.3504 -0.0659
  709MOL0     C95591   3.518   8.467   3.484 -0.9189 -0.1311  0.0569
  709MOL0     C95592   3.527   8.402   3.621 -0.3562 -0.1058  0.0492
  709MOL0     C95593   3.609   8.483   3.718 -0.3045  0.8357  0.1949
  709MOL0     C95594   3.760   8.475   3.682 -0.8615  0.3850 -0.2770
  709MOL0     C95595   3.852   8.518   3.807  0.1882 -0.2256 -1.2016
  709MOL0     C95596   4.003   8.494   3.779 -0.2935 -0.1154 -0.0674
  709MOL0     N95597   4.047   8.565   3.660  0.8109  0.0981  0.5485
  709MOL0     C95598   4.121   8.683   3.659 -1.1392  0.3320 -0.0558
  709MOL0     C95599   4.129   8.714   3.527 -0.7223 -0.4075 -0.7598
  709MOL0     C95600   4.197   8.832   3.471  0.1609 -0.3270 -0.6363
  709MOL0     C95601   4.344   8.795   3.466 -0.3128  0.6291  0.1570
  709MOL0     C95602   4.392   8.716   3.341 -0.2237  0.5728  0.2769
  709MOL0     C95603   4.408   8.804   3.218  0.3575  0.1030  0.3749
  709MOL0     O95604   4.483   8.922   3.244  0.0292 -0.7006  0.2798
  709MOL0     C95605   4.618   8.927   3.239  0.2539 -0.4712  0.0111
  709MOL0     C95606   4.678   9.051   3.254 -0.0017 -0.0110 -0.3117
  709MOL0     C95607   4.814   9.073   3.243 -0.3174 -0.4663 -0.3488
  709MOL0     C95608   4.895   8.967   3.215  0.0744  0.8929  0.8113
  709MOL0     C95609   5.040   8.985   3.192 -0.1525  0.6382  1.0944
  709MOL0     O95610   5.117   8.878   3.198 -0.5383  0.0152 -0.1040
  709MOL0     C95611   5.250   8.886   3.227 -1.0130 -0.3326  0.1457
  709MOL0     C95612   5.312   8.981   3.307 -0.4301  0.3689 -0.4004
  709MOL0     C95613   5.438   8.968   3.368  0.5289  0.1862 -0.5755
  709MOL0     C95614   5.509   8.853   3.341  0.3879 -0.1731  0.0338
  709MOL0     O95615   5.636   8.842   3.384 -0.2036  0.5013  0.0582
  709MOL0     C95616   5.736   8.939   3.344 -0.0485 -0.7665 -0.7772
  709MOL0     C95617   5.871   8.904   3.407  0.3520  0.0856  0.6662
  709MOL0     C95618   5.989   8.917   3.308  0.4541  0.4677 -0.8145
  709MOL0     C95619   6.124   8.910   3.382  0.8755 -0.3056 -0.0363
  709MOL0     C95620   6.247   8.913   3.284 -0.2835 -0.5616 -0.9916
  709MOL0     C95621   6.377   8.930   3.361 -0.4403  0.3836 -0.3440
  709MOL0     C95622   6.510   8.914   3.273  1.4423  0.3159  0.8117
  709MOL0     C95623   6.546   8.775   3.218  0.8069  0.3151 -0.1493
  709MOL0    Cl95624   6.695   8.811   3.130 -0.6363 -0.6163 -0.0316
  709MOL0     C95625   5.463   8.762   3.248 -0.4476 -0.6627 -0.6898
  709MOL0     C95626   5.336   8.778   3.191 -0.0912 -1.1678  0.2409
  709MOL0     O95627   5.084   9.099   3.176  0.0029  0.1748 -0.1587
  709MOL0     C95628   4.840   8.839   3.205 -0.3436 -0.5863  0.1747
  709MOL0     C95629   4.698   8.816   3.210 -0.4581 -0.1054  0.0997
  709MOL0     N95630   4.057   8.616   3.454  0.4309  0.1319 -0.3029
  709MOL0     N95631   4.012   8.532   3.529 -0.4812 -0.4553  0.1292
  709MOL0     C95632   3.032   8.663   3.308 -0.2704 -0.4069 -0.0494
  709MOL0     C95633   2.895   8.690   3.287  0.1047  0.4636  0.4695
  709MOL0     C95634   2.421   8.641   3.291  0.2412 -0.0211  0.2127
  709MOL0     C95635   2.431   8.770   3.230  0.0710 -0.0386  0.2327
  709MOL0     C95636   2.317   8.845   3.206  0.9757 -0.0605 -0.0657
  709MOL0     C95637   2.192   8.805   3.245  0.2954  0.0880 -0.3245
  709MOL0     O95638   2.089   8.898   3.225 -0.1992 -0.4572 -0.3036
  709MOL0     C95639   1.952   8.850   3.238  0.0518  0.6391 -0.0949
  709MOL0     C95640   1.919   8.900   3.383 -0.8500  0.2774  0.2342
  709MOL0     C95641   1.766   8.862   3.417 -0.4932  0.7060 -0.8624
  709MOL0     C95642   1.726   8.948   3.537 -0.2697 -0.1308 -0.3138
  709MOL0     C95643   1.589   8.907   3.580  0.6378 -0.7611  0.2419
  709MOL0     C95644   1.482   8.874   3.627  0.2713 -0.2614 -0.1691
  709MOL0     C95645   2.180   8.686   3.306 -0.2745  0.2176 -0.5509
  709MOL0     C95646   2.288   8.599   3.322 -1.0550 -0.3588  0.6428
  709MOL0     C95647   2.257   8.455   3.353  0.1398 -0.8468  0.1592
  709MOL0     H95648   2.774   8.395   3.420  3.3534 -1.0090  3.4815
  709MOL0     H95649   3.007   8.361   3.457  0.4377  0.5994  1.9152
  709MOL0     H95650   3.253   8.402   3.535  1.1277 -0.4524  0.5328
  709MOL0     H95651   3.220   8.318   3.377  1.2938 -0.0070 -1.8797
  709MOL0     H95652   3.426   8.462   3.293 -0.8193  3.3451  1.6157
  709MOL0     H95653   3.438   8.305   3.369  0.9788 -0.2533  0.0615
  709MOL0     H95654   3.495   8.574   3.485  0.3248  0.1535  0.2680
  709MOL0     H95655   3.612   8.465   3.427 -1.4468 -1.5487 -0.8317
  709MOL0     H95656   3.430   8.392   3.671  1.7402 -3.1470  4.1110
  709MOL0     H95657   3.554   8.296   3.609  0.4375  0.0495  0.4230
  709MOL0     H95658   3.583   8.588   3.703  0.6408  0.7435 -2.8280
  709MOL0     H95659   3.585   8.441   3.816  0.8880 -4.3308 -1.3628
  709MOL0     H95660   3.780   8.375   3.643  0.6040  0.0297  1.2985
  709MOL0     H95661   3.767   8.547   3.599  1.0626  1.1038  0.4535
  709MOL0     H95662   3.824   8.467   3.899  2.8821  2.2317  1.1770
  709MOL0     H95663   3.821   8.621   3.827 -1.4250 -0.9381  0.1286
  709MOL0     H95664   4.063   8.528   3.863  2.7611  0.6103 -2.3949
  709MOL0     H95665   4.021   8.387   3.766 -1.1819 -0.6503  2.5344
  709MOL0     H95666   4.161   8.731   3.748  1.2728 -2.1128  0.2932
  709MOL0     H95667   4.152   8.862   3.376  2.6600 -1.5653 -2.3313
  709MOL0     H95668   4.182   8.915   3.540 -0.5088 -0.1051 -1.0403
  709MOL0     H95669   4.404   8.886   3.464 -0.6103  0.8363 -1.7949
  709MOL0     H95670   4.380   8.758   3.562 -0.0009  4.8169  1.8521
  709MOL0     H95671   4.324   8.633   3.321  1.2410 -0.5667 -0.1613
  709MOL0     H95672   4.494   8.680   3.354 -0.7452 -1.1638 -0.1081
  709MOL0     H95673   4.306   8.839   3.197  0.1225 -1.9618 -2.5015
  709MOL0     H95674   4.441   8.753   3.127 -0.7182 -0.9423  0.5450
  709MOL0     H95675   4.622   9.140   3.280 -2.4540 -0.8916 -2.2260
  709MOL0     H95676   4.867   9.163   3.276  2.4509 -3.1436  3.5011
  709MOL0     H95677   5.261   9.063   3.355 -1.9580 -1.6474  1.5920
  709MOL0     H95678   5.471   9.047   3.434  0.2529  2.0279 -2.5082
  709MOL0     H95679   5.752   8.942   3.236  0.9499 -0.1715 -0.6285
  709MOL0     H95680   5.701   9.042   3.355  1.3235 -0.0134 -2.8389
  709MOL0     H95681   5.895   8.980   3.481 -0.6692  4.2787 -2.8592
  709MOL0     H95682   5.861   8.803   3.447 -3.1211  0.5305  1.2776
  709MOL0     H95683   5.976   8.842   3.230  1.5538  1.0579 -1.6063
  709MOL0     H95684   5.967   9.017   3.269  0.5724  0.9875  0.4086
  709MOL0     H95685   6.126   8.819   3.442  0.6944 -1.7017 -2.0289
  709MOL0     H95686   6.120   8.997   3.447  1.8044  2.3361 -3.2661
  709MOL0     H95687   6.239   8.996   3.213  1.7689  1.1084  0.6135
  709MOL0     H95688   6.247   8.817   3.231 -4.7086 -1.8969  0.9113
  709MOL0     H95689   6.373   9.032   3.400  2.7022  0.2082  0.7303
  709MOL0     H95690   6.377   8.861   3.447  0.4860 -0.6554 -1.1370
  709MOL0     H95691   6.599   8.952   3.325  2.4557 -0.5440 -0.2231
  709MOL0     H95692   6.495   8.981   3.188 -1.8185 -1.3388 -0.0593
  709MOL0     H95693   6.555   8.700   3.296 -4.2792 -0.3638  0.1647
  709MOL0     H95694   6.464   8.738   3.154 -0.3642 -3.9322  3.3401
  709MOL0     H95695   5.526   8.682   3.211 -0.0684  0.3888 -2.4063
  709MOL0     H95696   5.297   8.706   3.120 -1.4400  0.3441 -0.6093
  709MOL0     H95697   4.906   8.756   3.180 -0.7353 -1.0210  0.5532
  709MOL0     H95698   4.670   8.712   3.199 -2.8437  0.3961  0.7730
  709MOL0     H95699   3.103   8.739   3.277 -0.0995 -1.0969 -1.4622
  709MOL0     H95700   2.865   8.787   3.249 -1.7031 -0.0740  0.4441
  709MOL0     H95701   2.526   8.812   3.198 -1.1334 -0.1894 -4.2287
  709MOL0     H95702   2.318   8.941   3.155 -0.8410  1.4129  2.4582
  709MOL0     H95703   1.937   8.742   3.221 -1.4906  0.6327  1.0673
  709MOL0     H95704   1.888   8.892   3.159  0.3259  0.1872 -0.5640
  709MOL0     H95705   1.925   9.007   3.360  0.9692 -0.0911 -1.2370
  709MOL0     H95706   1.982   8.881   3.470 -0.8306  1.0509  0.4008
  709MOL0     H95707   1.761   8.756   3.444 -0.1582  0.7202 -0.7294
  709MOL0     H95708   1.705   8.887   3.330 -2.5636 -3.4375 -0.8372
  709MOL0     H95709   1.793   8.934   3.622  0.2499 -2.6481 -1.0544
  709MOL0     H95710   1.721   9.055   3.516 -3.4156 -0.0183  0.5334
  709MOL0     H95711   1.388   8.845   3.669 -0.4135  0.6084 -1.0397
  709MOL0     H95712   2.082   8.656   3.340  0.8891 -2.5957  0.6016
  709MOL0     H95713   2.320   8.415   3.433  2.0555 -0.0035 -0.8656
  709MOL0     H95714   2.157   8.445   3.398  1.5743  0.2075  4.0405
  709MOL0     H95715   2.269   8.386   3.270  0.1826 -0.1729 -0.4054
  710MOL0     O95716   8.293   9.316   3.567  0.1791  0.0409  0.3148
  710MOL0     C95717   8.282   9.271   3.453 -0.0994 -0.2300  0.1082
  710MOL0     O95718   8.392   9.241   3.376  0.3813 -0.0470 -0.0035
  710MOL0     C95719   8.513   9.211   3.435 -0.4919  0.0697  0.9543
  710MOL0     C95720   8.523   9.129   3.534 -0.3686  0.8915 -0.2359
  710MOL0     C95721   8.646   9.089   3.589 -0.1528  0.0790 -0.4258
  710MOL0     C95722   8.765   9.143   3.536 -0.5163  0.3124 -0.6769
  710MOL0     O95723   8.890   9.104   3.562 -0.1488  0.1946 -0.0184
  710MOL0     C95724   8.920   8.990   3.642 -0.0849 -0.2315 -0.1720
  710MOL0     C95725   9.072   8.973   3.631  0.5491 -0.7843 -0.2957
  710MOL0     C95726   9.126   8.946   3.489 -0.4819  0.1175  0.1253
  710MOL0     C95727   9.280   8.933   3.508 -0.5220  0.2364  0.3780
  710MOL0     C95728   9.348   8.913   3.371 -0.1682  0.9136 -0.0085
  710MOL0     C95729   9.501   8.905   3.376 -0.4848  0.2178  0.5675
  710MOL0     C95730   9.559   8.864   3.241  0.4445  0.3049  0.7762
  710MOL0     C95731   9.709   8.817   3.262  0.1021 -0.3607 -0.1948
  710MOL0     N95732   9.776   8.803   3.130 -0.2854  0.1269  0.6689
  710MOL0     C95733   9.752   8.702   3.036 -0.8747 -0.3003  0.7166
  710MOL0     C95734   9.856   8.718   2.946 -0.4606  0.4480  0.8719
  710MOL0     C95735   9.877   8.636   2.821  0.1301 -0.1588  0.8471
  710MOL0     C95736  10.028   8.606   2.799  0.5961 -0.1346  0.5007
  710MOL0     C95737  10.086   8.477   2.851  0.2059 -0.3463 -0.0456
  710MOL0     C95738  10.227   8.455   2.788  0.1017  0.0898 -0.4365
  710MOL0     O95739  10.309   8.563   2.834 -0.8832  0.0146 -0.0003
  710MOL0     C95740  10.438   8.571   2.795 -0.7634 -1.1420 -0.3858
  710MOL0     C95741  10.535   8.660   2.858  0.9257  0.5302  0.5017
  710MOL0     C95742  10.668   8.663   2.833  0.2132  0.4617 -0.3126
  710MOL0     C95743  10.716   8.575   2.736  0.2088 -0.6931  0.8464
  710MOL0     C95744  10.860   8.578   2.701  0.5498  0.3668  0.2294
  710MOL0     O95745  10.920   8.477   2.621 -0.2228 -0.1169 -0.3690
  710MOL0     C95746  11.050   8.476   2.570 -0.1367 -0.1039  0.4159
  710MOL0     C95747  11.071   8.385   2.465  0.5094 -0.0126 -0.5302
  710MOL0     C95748  11.201   8.392   2.409 -0.3119  0.3288 -0.5525
  710MOL0     C95749  11.310   8.472   2.453 -0.0433 -0.2443 -0.3624
  710MOL0     O95750  11.437   8.458   2.404 -0.2472 -0.3724  0.4830
  710MOL0     C95751  11.469   8.356   2.302 -0.6507 -0.7978 -0.1037
  710MOL0     C95752  11.608   8.372   2.259 -0.0402 -0.0368  1.0548
  710MOL0     C95753  11.649   8.261   2.156  0.3440  0.2304 -0.3745
  710MOL0     C95754  11.795   8.278   2.097  0.7863 -0.5364  0.1863
  710MOL0     C95755  11.845   8.156   2.021  0.2162 -0.6599 -0.1976
  710MOL0     C95756  11.749   8.110   1.906  0.1721  0.6387 -1.0953
  710MOL0     C95757  11.727   8.205   1.790 -0.1659  0.0192 -0.7890
  710MOL0     C95758  11.607   8.159   1.712 -0.2840 -0.9132 -0.1221
  710MOL0    Cl95759  11.604   8.248   1.572  0.0933 -0.3358  0.2389
  710MOL0     C95760  11.283   8.567   2.552  0.1576  0.6436 -0.1054
  710MOL0     C95761  11.156   8.566   2.616 -0.3148  0.2558  0.0351
  710MOL0     O95762  10.915   8.682   2.738  0.2632 -0.4115  0.0369
  710MOL0     C95763  10.628   8.487   2.667 -0.4629 -0.9648  0.6874
  710MOL0     C95764  10.489   8.490   2.693 -0.2377  0.7672  0.3608
  710MOL0     N95765   9.932   8.825   2.984  0.3694  0.0635  1.0390
  710MOL0     N95766   9.882   8.875   3.096  0.0018  0.1584 -0.5920
  710MOL0     C95767   8.752   9.253   3.455 -0.0963 -0.5324 -0.0176
  710MOL0     C95768   8.631   9.285   3.399  0.3780  0.2204 -0.4412
  710MOL0     C95769   8.152   9.221   3.390  0.3841 -0.2174  0.1235
  710MOL0     C95770   8.161   9.104   3.312 -0.2200 -0.2700  0.0639
  710MOL0     C95771   8.054   9.052   3.255  0.2078  0.1426  0.0915
  710MOL0     C95772   7.927   9.106   3.275 -0.2790 -0.2080 -0.0082
  710MOL0     O95773   7.823   9.042   3.216  0.3807 -0.1374  0.6910
  710MOL0     C95774   7.694   9.068   3.266  0.7474  0.2860 -0.1380
  710MOL0     C95775   7.602   8.947   3.247 -0.3923 -0.0252  0.5263
  710MOL0     C95776   7.455   8.973   3.292  0.2528  0.4197  0.1286
  710MOL0     C95777   7.423   8.933   3.437 -0.4471 -0.2830 -1.0901
  710MOL0     C95778   7.278   8.903   3.451  0.1735  0.4310  0.5609
  710MOL0     C95779   7.158   8.876   3.469 -0.1078  0.4413 -0.1645
  710MOL0     C95780   7.920   9.233   3.347  0.9137  1.3991 -0.1457
  710MOL0     C95781   8.029   9.289   3.408 -0.3495  0.8253  1.1617
  710MOL0     C95782   8.006   9.413   3.490 -0.4205  0.3020  0.7059
  710MOL0     H95783   8.436   9.079   3.574 -0.7891  0.5025 -1.6161
  710MOL0     H95784   8.653   9.002   3.654  1.6573 -0.4391 -1.2572
  710MOL0     H95785   8.889   9.002   3.746 -0.0226 -0.6653 -0.1008
  710MOL0     H95786   8.865   8.897   3.625 -0.1622 -0.5725  1.6784
  710MOL0     H95787   9.097   8.894   3.702  0.5887  0.4464  1.1149
  710MOL0     H95788   9.106   9.068   3.672 -2.7576  0.0562  0.8732
  710MOL0     H95789   9.116   9.029   3.419  0.3781  1.1966  1.2367
  710MOL0     H95790   9.084   8.855   3.444  0.1436  0.6374 -1.5691
  710MOL0     H95791   9.320   9.031   3.535  0.2595 -0.7011  2.8987
  710MOL0     H95792   9.305   8.862   3.586  2.1094 -1.2195 -1.6438
  710MOL0     H95793   9.308   8.819   3.332  0.3579 -0.0032  1.5909
  710MOL0     H95794   9.328   8.996   3.302 -1.4009  0.9766  0.3954
  710MOL0     H95795   9.544   9.003   3.397  2.6815 -0.5634 -1.4537
  710MOL0     H95796   9.525   8.826   3.447 -2.4146 -1.1202 -0.1859
  710MOL0     H95797   9.551   8.939   3.162 -0.2727 -2.3514 -1.8617
  710MOL0     H95798   9.494   8.781   3.212  0.9377  0.7491 -1.8092
  710MOL0     H95799   9.761   8.890   3.325  0.3051 -1.4225  0.9267
  710MOL0     H95800   9.709   8.725   3.323 -0.0261 -0.8655 -0.9400
  710MOL0     H95801   9.670   8.632   3.034  0.0984 -1.5257  1.8499
  710MOL0     H95802   9.819   8.543   2.821  1.5077 -1.0629 -0.9186
  710MOL0     H95803   9.847   8.687   2.729  3.0904 -1.8714 -1.2025
  710MOL0     H95804  10.050   8.605   2.691 -2.6119 -6.1020 -0.5877
  710MOL0     H95805  10.086   8.686   2.846  0.1881 -0.3301  1.3447
  710MOL0     H95806  10.019   8.395   2.824  0.3783  0.3380 -2.7871
  710MOL0     H95807  10.101   8.495   2.958 -0.9833  1.5194 -0.1435
  710MOL0     H95808  10.207   8.466   2.681  3.3337 -2.1794 -1.4479
  710MOL0     H95809  10.281   8.364   2.818 -1.3902 -0.6829 -0.0054
  710MOL0     H95810  10.484   8.720   2.933 -1.6944 -0.1570 -0.6183
  710MOL0     H95811  10.737   8.727   2.887  2.0397 -1.1828 -0.5698
  710MOL0     H95812  10.998   8.305   2.457  0.1300 -0.2891  3.4227
  710MOL0     H95813  11.225   8.319   2.332  1.1635 -1.9116  1.8738
  710MOL0     H95814  11.465   8.259   2.354  1.3526  0.6954  3.1872
  710MOL0     H95815  11.410   8.348   2.210  4.4566 -0.9578 -3.8118
  710MOL0     H95816  11.614   8.463   2.199 -1.1726 -0.2336  0.6162
  710MOL0     H95817  11.683   8.374   2.338  1.5543 -0.8177 -0.3756
  710MOL0     H95818  11.645   8.167   2.213 -2.0839  1.7635  2.2323
  710MOL0     H95819  11.583   8.248   2.070  0.6015 -2.4016 -0.2578
  710MOL0     H95820  11.864   8.308   2.177  0.9385  2.0492 -0.8147
  710MOL0     H95821  11.791   8.369   2.036 -1.5199 -1.1084 -0.6308
  710MOL0     H95822  11.863   8.076   2.093  0.6494 -0.9268 -0.6005
  710MOL0     H95823  11.943   8.173   1.975  0.7934 -2.3695  0.3204
  710MOL0     H95824  11.782   8.011   1.873  0.9439  0.4416  0.1648
  710MOL0     H95825  11.654   8.085   1.955  0.6033 -1.1190 -1.0563
  710MOL0     H95826  11.810   8.202   1.719 -0.3443  1.5738 -1.0981
  710MOL0     H95827  11.714   8.305   1.833 -2.6345 -1.2057  1.5794
  710MOL0     H95828  11.603   8.053   1.685 -1.0177 -0.7854 -0.5530
  710MOL0     H95829  11.515   8.176   1.767  0.0205  3.5037 -0.6191
  710MOL0     H95830  11.358   8.633   2.593 -0.8491  0.7961  1.6115
  710MOL0     H95831  11.135   8.631   2.700 -1.2057 -0.6158  0.5092
  710MOL0     H95832  10.674   8.421   2.594  0.1251  1.4056 -1.1967
  710MOL0     H95833  10.421   8.430   2.633  0.8971  0.4194 -0.6212
  710MOL0     H95834   8.842   9.307   3.423  0.3673 -1.8665 -1.0806
  710MOL0     H95835   8.610   9.368   3.333  0.2766 -1.7771 -3.0895
  710MOL0     H95836   8.254   9.051   3.298  1.4795  1.8332  2.3538
  710MOL0     H95837   8.062   8.961   3.196 -3.6908  1.1700 -2.4952
  710MOL0     H95838   7.657   9.163   3.225  2.1499  1.4861  1.2125
  710MOL0     H95839   7.697   9.083   3.374 -1.2875  2.0062 -0.2462
  710MOL0     H95840   7.645   8.867   3.309  0.9496  0.8299  0.7413
  710MOL0     H95841   7.610   8.918   3.142 -1.3940  4.7035 -1.0872
  710MOL0     H95842   7.391   8.920   3.221 -0.7972  0.1883  1.2196
  710MOL0     H95843   7.430   9.078   3.275 -0.8792  0.4360  1.6877
  710MOL0     H95844   7.483   8.846   3.465 -1.4033 -0.3773  0.8369
  710MOL0     H95845   7.446   9.013   3.509 -0.5577 -0.7875 -0.4880
  710MOL0     H95846   7.051   8.873   3.470 -0.1619  0.8375 -1.8205
  710MOL0     H95847   7.823   9.282   3.350  1.2418  2.0109  0.8811
  710MOL0     H95848   8.058   9.388   3.583  2.0472 -1.2733 -0.9800
  710MOL0     H95849   8.059   9.493   3.439 -0.9792 -0.5582 -1.3570
  710MOL0     H95850   7.901   9.437   3.511 -0.9235 -0.0224 -1.2527
  711MOL0     O95851   4.549   5.308   6.911 -0.3446 -0.6916  0.6680
  711MOL0     C95852   4.535   5.378   7.013  0.3082 -0.1113  0.6409
  711MOL0     O95853   4.632   5.421   7.088  0.6400  0.2545  0.0176
  711MOL0     C95854   4.751   5.359   7.104 -0.3861  0.5457  0.7557
  711MOL0     C95855   4.783   5.223   7.059  1.4657 -0.0906 -0.5312
  711MOL0     C95856   4.911   5.167   7.110  0.2376  0.4160  0.4710
  711MOL0     C95857   4.988   5.230   7.201  0.6273  0.7348 -0.0326
  711MOL0     O95858   5.096   5.158   7.245 -0.3301  0.6768  0.4428
  711MOL0     C95859   5.195   5.205   7.332 -0.1606 -0.2574 -0.4322
  711MOL0     C95860   5.282   5.312   7.279 -0.6076 -0.0378  0.9257
  711MOL0     C95861   5.392   5.253   7.182  0.5850 -0.2884  0.3439
  711MOL0     C95862   5.482   5.378   7.152 -0.8285  0.3450 -0.2827
  711MOL0     C95863   5.600   5.339   7.065  0.1318  0.3126 -0.4456
  711MOL0     C95864   5.716   5.444   7.063  0.0291  0.3561 -0.3513
  711MOL0     C95865   5.849   5.404   7.016  0.4940  0.0426  0.3239
  711MOL0     C95866   5.923   5.527   6.967  0.0663  0.0004 -0.4122
  711MOL0     N95867   6.053   5.473   6.929  0.2768 -0.4329  0.4411
  711MOL0     C95868   6.152   5.458   7.025 -0.3898  0.1497  0.3188
  711MOL0     C95869   6.237   5.369   6.969  0.2478  0.8991 -0.0756
  711MOL0     C95870   6.352   5.306   7.047  0.0376  0.5369 -0.6353
  711MOL0     C95871   6.487   5.315   6.967  0.5966 -0.5521  0.1771
  711MOL0     C95872   6.478   5.222   6.842 -0.5532 -0.2884  0.9568
  711MOL0     C95873   6.614   5.165   6.795 -0.5208 -0.1642 -0.4451
  711MOL0     O95874   6.715   5.266   6.780 -0.7828 -0.4364  0.0931
  711MOL0     C95875   6.843   5.234   6.760 -0.1768  0.4810 -0.2671
  711MOL0     C95876   6.942   5.331   6.764 -0.9404 -0.0727 -0.0417
  711MOL0     C95877   7.077   5.307   6.748 -0.2766  0.1222 -0.2295
  711MOL0     C95878   7.123   5.175   6.733 -0.5507  0.4744 -0.3774
  711MOL0     C95879   7.265   5.150   6.727 -0.7091  1.1637  0.1213
  711MOL0     O95880   7.299   5.013   6.713  0.3874  0.0626  0.5047
  711MOL0     C95881   7.426   4.971   6.705 -0.7225  0.4501  0.2628
  711MOL0     C95882   7.455   4.869   6.614 -0.5419  0.0516 -0.2080
  711MOL0     C95883   7.584   4.818   6.595 -0.0676 -0.0723 -0.4415
  711MOL0     C95884   7.690   4.863   6.677  0.1967 -0.5265  0.0605
  711MOL0     O95885   7.814   4.805   6.677 -0.4012 -0.5860 -0.3953
  711MOL0     C95886   7.843   4.679   6.615 -0.2088 -0.5461  0.0439
  711MOL0     C95887   7.940   4.594   6.691 -0.1331 -0.0945  0.2613
  711MOL0     C95888   8.086   4.606   6.640  0.0315 -0.5424 -0.3039
  711MOL0     C95889   8.180   4.517   6.721  0.0634  0.4663  0.4054
  711MOL0     C95890   8.319   4.500   6.654  0.0492 -0.2324 -0.8705
  711MOL0     C95891   8.429   4.454   6.754 -1.3746  0.2950  0.7400
  711MOL0     C95892   8.572   4.488   6.695  0.1221  0.2094  0.8172
  711MOL0     C95893   8.682   4.481   6.806  0.7199 -0.3815 -0.4575
  711MOL0    Cl95894   8.683   4.324   6.875  0.0414 -0.0507 -0.2476
  711MOL0     C95895   7.661   4.964   6.771 -0.8431  0.5035 -1.2123
  711MOL0     C95896   7.528   5.007   6.796 -0.0872 -0.4209  1.2068
  711MOL0     O95897   7.344   5.244   6.741 -0.1668  0.8516 -0.1340
  711MOL0     C95898   7.024   5.073   6.723 -0.5522 -0.0104 -0.4976
  711MOL0     C95899   6.890   5.103   6.738 -0.1207 -0.8478  0.0987
  711MOL0     N95900   6.198   5.343   6.838 -1.0741  0.1797 -0.4959
  711MOL0     N95901   6.085   5.411   6.810  0.1341  0.1621 -0.7914
  711MOL0     C95902   4.942   5.355   7.253  0.4991 -0.2674  0.0342
  711MOL0     C95903   4.833   5.419   7.205 -0.3113  0.0701  1.1514
  711MOL0     C95904   4.410   5.458   7.024  0.7259  0.0299 -0.2739
  711MOL0     C95905   4.405   5.575   7.104 -0.2045  0.1238  0.0335
  711MOL0     C95906   4.294   5.656   7.117  0.2722 -0.6073  0.1430
  711MOL0     C95907   4.173   5.622   7.058  0.1484  0.4305  0.2157
  711MOL0     O95908   4.071   5.704   7.076  0.7578 -0.1349  0.5820
  711MOL0     C95909   3.954   5.690   6.991  0.7151  0.5029  0.5454
  711MOL0     C95910   3.874   5.818   7.012  0.8008 -0.2105  0.9371
  711MOL0     C95911   3.746   5.808   6.932  0.0999 -0.4434 -0.1895
  711MOL0     C95912   3.670   5.938   6.986 -0.7601 -0.2447  0.1834
  711MOL0     C95913   3.542   5.943   6.932  0.6445 -0.5610 -0.2728
  711MOL0     C95914   3.438   5.964   6.872  0.3988  0.3038 -0.2347
  711MOL0     C95915   4.175   5.507   6.976 -0.6043  0.2817 -0.2949
  711MOL0     C95916   4.290   5.419   6.968  0.2253  0.5483 -0.3502
  711MOL0     C95917   4.264   5.288   6.889 -0.2281 -0.7252 -0.1127
  711MOL0     H95918   4.730   5.167   6.983 -1.1735  0.8027  0.5522
  711MOL0     H95919   4.937   5.067   7.076 -0.1080  1.1166 -2.1206
  711MOL0     H95920   5.144   5.240   7.422 -0.6274 -1.0464 -0.3791
  711MOL0     H95921   5.265   5.127   7.363  1.3761  0.7443 -1.2416
  711MOL0     H95922   5.337   5.349   7.367 -1.4551 -0.3248  1.5962
  711MOL0     H95923   5.219   5.393   7.240 -0.5036  0.7302  2.2795
  711MOL0     H95924   5.359   5.211   7.087  0.6068  0.6171 -0.0760
  711MOL0     H95925   5.451   5.176   7.232  0.3393 -1.7631 -1.5202
  711MOL0     H95926   5.419   5.448   7.096 -1.2792  0.2851  0.1405
  711MOL0     H95927   5.526   5.422   7.241  0.6597 -0.3102 -0.6682
  711MOL0     H95928   5.646   5.250   7.109  3.6863  2.7179  1.1383
  711MOL0     H95929   5.563   5.330   6.962 -0.2361 -0.9948 -0.2163
  711MOL0     H95930   5.677   5.528   7.006 -0.5314  0.0679 -0.3986
  711MOL0     H95931   5.733   5.490   7.161  2.7942 -1.3869  0.1074
  711MOL0     H95932   5.836   5.337   6.931  1.6320  1.0173 -0.6511
  711MOL0     H95933   5.902   5.352   7.096  0.3015  0.3599  0.6632
  711MOL0     H95934   5.879   5.564   6.874 -1.7268 -1.2503 -0.1237
  711MOL0     H95935   5.911   5.607   7.042 -5.6814 -1.1440  0.3622
  711MOL0     H95936   6.157   5.494   7.127 -0.3371 -2.9520  1.5088
  711MOL0     H95937   6.364   5.357   7.143  0.8359  4.4148 -2.5706
  711MOL0     H95938   6.330   5.200   7.059  0.5741  0.6644  1.9612
  711MOL0     H95939   6.507   5.415   6.929 -0.8147 -0.1238  0.5045
  711MOL0     H95940   6.569   5.286   7.033  2.3618 -0.5919 -1.8985
  711MOL0     H95941   6.430   5.279   6.761  0.0525  2.3625  2.3359
  711MOL0     H95942   6.412   5.139   6.869  0.2791 -0.7970  1.4584
  711MOL0     H95943   6.596   5.126   6.695 -2.6206  0.7280 -0.4772
  711MOL0     H95944   6.649   5.083   6.858 -1.6098  0.3096  0.8139
  711MOL0     H95945   6.929   5.437   6.780  3.3536  0.8794 -1.5348
  711MOL0     H95946   7.144   5.392   6.758  1.0478 -0.9582  0.3154
  711MOL0     H95947   7.367   4.829   6.564 -2.5012  1.2463  2.0797
  711MOL0     H95948   7.606   4.738   6.524  0.2823 -1.1701  0.8724
  711MOL0     H95949   7.757   4.611   6.612 -0.9515  0.3562 -2.9180
  711MOL0     H95950   7.872   4.697   6.511 -0.1521 -2.1677 -0.2574
  711MOL0     H95951   7.925   4.622   6.795 -0.1376  0.1599  0.1942
  711MOL0     H95952   7.913   4.489   6.679  0.5641 -0.3382  0.7940
  711MOL0     H95953   8.086   4.568   6.537 -2.0301 -0.0753 -0.5102
  711MOL0     H95954   8.125   4.708   6.642  1.0652 -0.9369  0.3867
  711MOL0     H95955   8.128   4.420   6.727 -0.2517  0.7036  2.5584
  711MOL0     H95956   8.189   4.562   6.820  0.0776  0.5520  0.3646
  711MOL0     H95957   8.348   4.597   6.613  0.4321 -0.1846 -0.4910
  711MOL0     H95958   8.311   4.434   6.566 -1.0773  0.9911 -1.7336
  711MOL0     H95959   8.419   4.514   6.844  1.0105 -1.3873  2.2363
  711MOL0     H95960   8.400   4.351   6.778 -2.3792  0.5847  0.8065
  711MOL0     H95961   8.580   4.587   6.650  2.7866 -0.3037 -0.0192
  711MOL0     H95962   8.597   4.415   6.617  3.5600  0.8409  1.1876
  711MOL0     H95963   8.773   4.504   6.749 -1.2826  2.2758 -2.8751
  711MOL0     H95964   8.667   4.562   6.879  1.2004  0.0757 -0.8591
  711MOL0     H95965   7.740   5.009   6.831 -2.7393  0.6823  1.3058
  711MOL0     H95966   7.490   5.073   6.873 -1.2172 -0.2877  0.5647
  711MOL0     H95967   7.042   4.966   6.716 -0.9111  0.0072 -1.8523
  711MOL0     H95968   6.826   5.017   6.716 -1.0765  0.3425 -2.2032
  711MOL0     H95969   4.995   5.393   7.340 -0.0294  0.0404  0.2264
  711MOL0     H95970   4.788   5.510   7.244 -2.1373 -0.7927  1.1681
  711MOL0     H95971   4.493   5.604   7.160 -0.4860 -1.7651  1.5702
  711MOL0     H95972   4.287   5.745   7.178  1.4658 -0.5391  0.2099
  711MOL0     H95973   3.898   5.599   7.011  1.4162  0.1389  0.8836
  711MOL0     H95974   3.988   5.683   6.887 -1.8035  0.7601 -0.3800
  711MOL0     H95975   3.936   5.900   6.972 -2.2907  2.5397  1.3588
  711MOL0     H95976   3.855   5.839   7.118 -0.3211 -2.6571  1.2781
  711MOL0     H95977   3.697   5.711   6.943 -1.3086  0.3011  0.4415
  711MOL0     H95978   3.766   5.828   6.827  1.0517 -2.0181 -0.3311
  711MOL0     H95979   3.674   5.937   7.096 -0.5338  0.9679  0.2001
  711MOL0     H95980   3.736   6.023   6.966 -2.4208  1.2170  0.6616
  711MOL0     H95981   3.343   5.976   6.824 -0.2990 -2.8266  0.1844
  711MOL0     H95982   4.083   5.471   6.931  0.5573 -3.0543 -0.3107
  711MOL0     H95983   4.313   5.292   6.791 -1.5285 -0.8594 -0.7951
  711MOL0     H95984   4.303   5.208   6.952 -2.1543 -1.2968  0.4211
  711MOL0     H95985   4.157   5.285   6.866 -0.3068  1.2625 -0.2071
  712MOL0     O95986   0.619   4.361   6.473 -0.4842 -0.0667  0.2121
  712MOL0     C95987   0.610   4.385   6.349  0.4398  0.1023  0.0567
  712MOL0     O95988   0.679   4.480   6.279 -0.3769 -0.7278 -0.0249
  712MOL0     C95989   0.802   4.528   6.322 -0.6961  0.1529 -0.0435
  712MOL0     C95990   0.893   4.462   6.407  0.7534 -0.7624 -0.3426
  712MOL0     C95991   1.010   4.531   6.452 -0.7741  0.0904  0.2838
  712MOL0     C95992   1.037   4.668   6.420  0.1857  0.0167  0.5120
  712MOL0     O95993   1.133   4.751   6.479  0.4205 -0.4734  0.5088
  712MOL0     C95994   1.209   4.704   6.586 -0.5462  0.3626  0.4289
  712MOL0     C95995   1.347   4.666   6.538 -0.3174  0.4502  0.2752
  712MOL0     C95996   1.453   4.655   6.648 -0.6301  0.6578  1.0115
  712MOL0     C95997   1.585   4.626   6.580 -0.3906 -0.2422  0.8991
  712MOL0     C95998   1.698   4.581   6.670 -0.1164  0.6019  0.5425
  712MOL0     C95999   1.748   4.680   6.776 -0.6155  0.1515  0.9261
  712MOL0     C96000   1.901   4.677   6.799 -0.9471  0.0922  0.1671
  712MOL0     C96001   1.946   4.800   6.872  0.3029 -0.1216  0.8300
  712MOL0     N96002   2.093   4.805   6.864  0.7279  0.5398 -0.5158
  712MOL0     C96003   2.159   4.866   6.766  0.4812 -0.3213  0.4907
  712MOL0     C96004   2.288   4.842   6.801 -0.0015 -0.6952 -0.5214
  712MOL0     C96005   2.413   4.870   6.728  0.1330 -0.3539 -0.8933
  712MOL0     C96006   2.425   4.774   6.613  0.1313 -0.1206  0.1559
  712MOL0     C96007   2.531   4.829   6.501 -0.2624 -0.0014 -0.3463
  712MOL0     C96008   2.668   4.848   6.565 -0.2320 -0.0268  0.0812
  712MOL0     O96009   2.720   4.728   6.621 -0.0942 -0.1769 -0.6734
  712MOL0     C96010   2.845   4.740   6.684 -0.1159  0.4875  0.4100
  712MOL0     C96011   2.950   4.643   6.656 -0.6651  0.0971  0.4158
  712MOL0     C96012   3.055   4.648   6.745 -0.9168  0.3001  0.5767
  712MOL0     C96013   3.084   4.751   6.822 -0.3455  0.0583  0.6102
  712MOL0     C96014   3.206   4.760   6.893  0.2526  0.3095  0.0304
  712MOL0     O96015   3.295   4.660   6.866 -0.2047  0.2900 -0.7057
  712MOL0     C96016   3.402   4.667   6.951 -0.1291 -0.4253 -0.0678
  712MOL0     C96017   3.534   4.704   6.917 -0.4770  0.0824  0.5077
  712MOL0     C96018   3.638   4.688   7.007 -0.1875 -0.0450  0.3208
  712MOL0     C96019   3.611   4.656   7.139  0.8758  0.3371  0.8144
  712MOL0     O96020   3.701   4.637   7.235 -0.7193  0.1452 -0.5564
  712MOL0     C96021   3.832   4.586   7.197 -0.4166  0.7857 -0.6161
  712MOL0     C96022   3.938   4.703   7.192  0.4496 -0.8887  0.0568
  712MOL0     C96023   4.075   4.647   7.148  0.4537 -0.2904  0.4916
  712MOL0     C96024   4.181   4.743   7.201 -0.4453 -0.8720 -0.9132
  712MOL0     C96025   4.316   4.684   7.171 -0.6265 -0.6363 -0.6304
  712MOL0     C96026   4.417   4.785   7.226 -0.3160 -0.4888  0.5300
  712MOL0     C96027   4.555   4.708   7.235 -0.2120  0.1120 -0.1126
  712MOL0     C96028   4.657   4.799   7.307 -0.1751 -0.2595  0.1661
  712MOL0    Cl96029   4.663   4.955   7.217 -0.4062 -0.2527 -0.2960
  712MOL0     C96030   3.480   4.624   7.175 -0.2138  0.4117  0.8713
  712MOL0     C96031   3.374   4.623   7.082  0.1747 -0.5699 -0.3884
  712MOL0     O96032   3.217   4.850   6.973 -0.1719  0.5935  0.7063
  712MOL0     C96033   2.981   4.849   6.841 -0.5299  0.3400 -0.0573
  712MOL0     C96034   2.858   4.843   6.777  0.2679 -0.1629 -0.5891
  712MOL0     N96035   2.293   4.753   6.906 -0.5550 -0.3115 -0.3470
  712MOL0     N96036   2.174   4.728   6.942 -0.1838 -0.1301  0.3550
  712MOL0     C96037   0.959   4.722   6.311  0.3229  0.2874  0.2379
  712MOL0     C96038   0.847   4.647   6.266 -0.2923  0.1672 -0.0427
  712MOL0     C96039   0.493   4.323   6.283 -1.1540  0.2147  0.0652
  712MOL0     C96040   0.431   4.406   6.186 -0.4590 -0.1662 -0.1954
  712MOL0     C96041   0.322   4.365   6.109  0.2421  0.6567 -1.4430
  712MOL0     C96042   0.276   4.227   6.122 -0.2756  0.0533  0.3153
  712MOL0     O96043   0.189   4.151   6.036  0.0470  0.2566 -0.1402
  712MOL0     C96044   0.142   4.227   5.923  1.5835 -0.4451 -0.5993
  712MOL0     C96045   0.020   4.153   5.866  1.2403 -0.2423 -0.0091
  712MOL0     C96046  -0.009   4.215   5.724  0.8625 -0.2153  0.1750
  712MOL0     C96047  -0.155   4.192   5.694 -0.4559 -0.1404 -0.4023
  712MOL0     C96048  -0.190   4.205   5.554  0.0363  0.0717  0.0197
  712MOL0     C96049  -0.227   4.228   5.444 -0.1306 -0.1588  0.2394
  712MOL0     C96050   0.332   4.145   6.222  0.5500  0.0989  0.1213
  712MOL0     C96051   0.447   4.189   6.299  0.0909 -0.5667 -0.5726
  712MOL0     C96052   0.517   4.094   6.395 -0.1322  0.3543  0.2780
  712MOL0     H96053   0.869   4.371   6.462  0.3254  0.1541  1.0276
  712MOL0     H96054   1.070   4.473   6.521 -3.2638 -0.2481  2.3182
  712MOL0     H96055   1.236   4.789   6.650  0.1770  0.3853  0.1043
  712MOL0     H96056   1.161   4.631   6.652  0.2653 -1.0459 -0.4920
  712MOL0     H96057   1.383   4.744   6.470  0.2734 -0.1603 -0.1249
  712MOL0     H96058   1.340   4.570   6.486 -0.6770  1.2367 -1.1621
  712MOL0     H96059   1.427   4.581   6.725  0.1363 -1.7359 -0.8901
  712MOL0     H96060   1.453   4.744   6.712  1.4142  0.5480  1.2107
  712MOL0     H96061   1.569   4.544   6.509  1.6049 -0.6554  0.8631
  712MOL0     H96062   1.615   4.709   6.515 -1.2316 -0.7177 -0.1178
  712MOL0     H96063   1.676   4.488   6.723  1.7587 -0.9076 -1.1547
  712MOL0     H96064   1.787   4.552   6.615  0.2601  1.1674  0.8458
  712MOL0     H96065   1.728   4.779   6.733  2.8620  0.4523 -0.2963
  712MOL0     H96066   1.693   4.682   6.871 -0.9402 -1.1084  0.7816
  712MOL0     H96067   1.948   4.676   6.700 -1.3728  1.9705 -0.0892
  712MOL0     H96068   1.924   4.589   6.861 -1.0591 -2.6630 -3.3499
  712MOL0     H96069   1.910   4.895   6.833  0.9638  0.7923  2.3511
  712MOL0     H96070   1.911   4.803   6.976  1.6883  4.7588  1.3912
  712MOL0     H96071   2.124   4.935   6.690  1.3423  3.2788  3.0635
  712MOL0     H96072   2.415   4.972   6.689  1.3096 -0.3560 -0.8755
  712MOL0     H96073   2.500   4.855   6.793 -0.0494  0.9259 -0.3344
  712MOL0     H96074   2.462   4.674   6.637  1.0280 -0.5402 -2.6489
  712MOL0     H96075   2.330   4.769   6.558 -1.8655  2.8706  2.9787
  712MOL0     H96076   2.500   4.924   6.458  0.1925  0.4286  0.2405
  712MOL0     H96077   2.538   4.746   6.430  2.7028 -0.5378  0.4206
  712MOL0     H96078   2.655   4.923   6.644 -0.5433 -1.6769  1.6669
  712MOL0     H96079   2.734   4.884   6.486  0.3255 -0.6052  0.2714
  712MOL0     H96080   2.942   4.559   6.588  2.8990 -0.0289 -0.0709
  712MOL0     H96081   3.130   4.569   6.749 -1.5405 -0.3193  0.2215
  712MOL0     H96082   3.562   4.741   6.819 -0.3568  1.1895  0.9351
  712MOL0     H96083   3.738   4.715   6.978 -0.1956 -1.5912 -1.3029
  712MOL0     H96084   3.855   4.518   7.280 -2.7455  0.7759  0.1037
  712MOL0     H96085   3.829   4.542   7.097 -2.1416  3.4630 -1.8460
  712MOL0     H96086   3.905   4.772   7.114  0.5323  0.0234  0.8229
  712MOL0     H96087   3.937   4.750   7.290  0.1934  1.1914 -0.8917
  712MOL0     H96088   4.076   4.544   7.185 -1.1212 -0.7385 -0.6107
  712MOL0     H96089   4.077   4.647   7.039 -1.2669  2.3420  0.3803
  712MOL0     H96090   4.163   4.753   7.308  1.1195  1.5384 -0.7957
  712MOL0     H96091   4.172   4.844   7.158 -0.3659 -0.1160  0.7690
  712MOL0     H96092   4.334   4.673   7.064 -2.4939 -1.4730 -0.9131
  712MOL0     H96093   4.319   4.587   7.221  0.8911 -0.3000 -0.0291
  712MOL0     H96094   4.424   4.865   7.152  0.6130 -1.8531 -0.9267
  712MOL0     H96095   4.391   4.829   7.323 -1.2768 -1.4645  0.7420
  712MOL0     H96096   4.586   4.697   7.131 -1.4184  2.3940 -0.7955
  712MOL0     H96097   4.544   4.612   7.287 -1.8774  0.2923 -0.0835
  712MOL0     H96098   4.628   4.819   7.411 -0.3076 -1.1348  0.3038
  712MOL0     H96099   4.758   4.758   7.318 -0.9075 -1.8952  1.2400
  712MOL0     H96100   3.462   4.617   7.282  0.5504 -2.0315  0.8936
  712MOL0     H96101   3.267   4.607   7.093 -0.3013  0.6504 -2.5925
  712MOL0     H96102   2.998   4.924   6.918  0.6859 -0.8356  0.8827
  712MOL0     H96103   2.776   4.909   6.805  2.0685  2.3027 -0.7362
  712MOL0     H96104   0.992   4.815   6.265 -0.1139  1.1598  1.6425
  712MOL0     H96105   0.792   4.697   6.187 -2.0414 -1.7832 -0.1519
  712MOL0     H96106   0.463   4.508   6.167 -1.1219  0.6842  2.6650
  712MOL0     H96107   0.290   4.429   6.027  0.7034  1.1306 -1.2570
  712MOL0     H96108   0.222   4.236   5.850 -1.3331 -0.9229 -4.1045
  712MOL0     H96109   0.114   4.332   5.937  4.1860  0.2823 -0.4626
  712MOL0     H96110  -0.068   4.148   5.931  2.2242 -0.3297  1.3606
  712MOL0     H96111   0.042   4.049   5.842  0.7425 -0.0589 -1.3185
  712MOL0     H96112   0.050   4.184   5.638 -1.8490  1.6945 -2.5821
  712MOL0     H96113  -0.015   4.324   5.734  0.3481 -0.4025  2.6588
  712MOL0     H96114  -0.197   4.100   5.736  2.5111 -2.1047 -1.3968
  712MOL0     H96115  -0.206   4.280   5.733 -0.3909 -0.0338 -0.5535
  712MOL0     H96116  -0.270   4.259   5.351 -1.0272 -3.3912 -0.5594
  712MOL0     H96117   0.289   4.046   6.220  0.5042  0.1138  0.3681
  712MOL0     H96118   0.509   4.126   6.499 -3.1268 -1.1255  0.6277
  712MOL0     H96119   0.465   3.999   6.377 -1.1888  1.3599 -2.5151
  712MOL0     H96120   0.622   4.086   6.366 -0.7352  1.3009 -2.4492
  713MOL0     O96121   3.757   0.205   4.416 -0.8333  0.1723 -0.5548
  713MOL0     C96122   3.757   0.252   4.305 -0.3794 -0.2957 -0.1600
  713MOL0     O96123   3.685   0.363   4.268  0.1580 -1.2857  0.7195
  713MOL0     C96124   3.624   0.440   4.365  0.1396 -0.3077  0.2658
  713MOL0     C96125   3.687   0.565   4.404 -0.0503  0.2311  0.0509
  713MOL0     C96126   3.628   0.642   4.503 -0.7801 -0.0650  0.1793
  713MOL0     C96127   3.514   0.596   4.564  0.2673  0.4992  0.8025
  713MOL0     O96128   3.451   0.673   4.659 -0.1350  0.3854 -0.1626
  713MOL0     C96129   3.362   0.764   4.600  0.7611 -0.0267  0.4228
  713MOL0     C96130   3.219   0.705   4.566  0.4549  0.5420 -0.3265
  713MOL0     C96131   3.156   0.645   4.693  0.5436  0.2209  0.1374
  713MOL0     C96132   3.151   0.730   4.823  0.6632 -0.3166 -0.3689
  713MOL0     C96133   3.126   0.643   4.941 -0.1308  0.4543 -0.1537
  713MOL0     C96134   3.242   0.550   4.990 -0.1501 -0.6577  0.2253
  713MOL0     C96135   3.366   0.635   4.998  0.0306  0.7452 -0.3964
  713MOL0     C96136   3.474   0.561   5.081 -0.8833 -1.2235 -0.5850
  713MOL0     N96137   3.538   0.445   5.010  1.0387 -0.1804 -0.2087
  713MOL0     C96138   3.578   0.431   4.884  0.2249 -0.4189  1.1938
  713MOL0     C96139   3.649   0.311   4.878 -0.3655 -0.7114 -0.0205
  713MOL0     C96140   3.706   0.248   4.760 -0.1622 -0.7146 -0.1544
  713MOL0     C96141   3.838   0.182   4.800  0.2506 -0.4173  0.1022
  713MOL0     C96142   3.918   0.164   4.673 -0.7261 -0.1436  0.9061
  713MOL0     C96143   4.053   0.108   4.711 -0.1353 -0.1590  0.7212
  713MOL0     O96144   4.133   0.203   4.775 -0.5470  0.4094 -0.4668
  713MOL0     C96145   4.259   0.176   4.809 -0.3792  0.5285 -0.2794
  713MOL0     C96146   4.330   0.278   4.877 -0.0411 -0.1326  0.1610
  713MOL0     C96147   4.464   0.254   4.917 -0.2807  0.3246  0.5024
  713MOL0     C96148   4.524   0.122   4.894  0.7723  0.4365 -0.6534
  713MOL0     C96149   4.658   0.086   4.950 -0.6701  0.1117  0.0131
  713MOL0     O96150   4.687  -0.042   4.958 -0.3585  0.3344 -0.3153
  713MOL0     C96151   4.823  -0.082   4.944 -0.1635 -0.5539 -0.1033
  713MOL0     C96152   4.903  -0.030   4.836 -1.0733 -0.2831 -0.0686
  713MOL0     C96153   5.036  -0.087   4.825 -0.2421  0.0187  0.7220
  713MOL0     C96154   5.078  -0.196   4.900  1.2157 -0.6592  0.1989
  713MOL0     O96155   5.207  -0.234   4.893 -0.8087  0.9854 -0.0163
  713MOL0     C96156   5.223  -0.378   4.901 -0.4549  0.5283 -0.4481
  713MOL0     C96157   5.377  -0.393   4.867  0.6800 -0.1671 -0.3048
  713MOL0     C96158   5.463  -0.355   4.982  0.2603 -0.2635  0.1207
  713MOL0     C96159   5.599  -0.425   4.970  0.1047  0.0371 -0.3438
  713MOL0     C96160   5.711  -0.331   4.914 -0.1489 -0.8555  0.1576
  713MOL0     C96161   5.841  -0.418   4.877  0.8907  0.0157 -0.5636
  713MOL0     C96162   5.935  -0.436   5.003 -0.8871 -0.0381  0.2205
  713MOL0     C96163   6.039  -0.328   5.026 -0.3289  0.0924 -0.1040
  713MOL0    Cl96164   6.143  -0.275   4.887 -0.3159 -0.0995 -0.0535
  713MOL0     C96165   4.994  -0.235   5.000 -0.4625 -0.2222 -0.6154
  713MOL0     C96166   4.868  -0.182   5.028 -0.1797  0.3094  0.3923
  713MOL0     O96167   4.735   0.178   4.996  0.0025 -0.3352  0.5857
  713MOL0     C96168   4.442   0.015   4.845  0.8537  0.0638  0.0544
  713MOL0     C96169   4.309   0.051   4.803  0.0150  0.9218 -0.1796
  713MOL0     N96170   3.659   0.265   5.011  0.9081 -0.2909 -0.0143
  713MOL0     N96171   3.589   0.344   5.085 -0.3070 -0.6114 -0.5623
  713MOL0     C96172   3.460   0.473   4.537  0.5419 -0.0120 -0.1268
  713MOL0     C96173   3.506   0.401   4.429 -1.2135  0.0296 -0.6465
  713MOL0     C96174   3.834   0.187   4.196  0.4495  1.2895 -0.4932
  713MOL0     C96175   3.846   0.247   4.066  0.6221 -0.0054  0.1356
  713MOL0     C96176   3.885   0.176   3.949 -0.4968 -0.7915 -1.0631
  713MOL0     C96177   3.934   0.045   3.968 -0.8330 -0.1777  0.6694
  713MOL0     O96178   3.982  -0.031   3.864 -0.0557  0.4310  0.2087
  713MOL0     C96179   4.009   0.028   3.734  0.3903  0.9018 -0.2007
  713MOL0     C96180   4.084  -0.075   3.654 -0.6681  0.4642 -0.1545
  713MOL0     C96181   4.021  -0.213   3.656  0.1679 -0.2165 -0.2282
  713MOL0     C96182   4.081  -0.296   3.545 -0.5261  0.2990 -0.2930
  713MOL0     C96183   4.020  -0.428   3.523  0.6299  0.9792  0.1813
  713MOL0     C96184   3.966  -0.540   3.521 -0.9430  0.5582 -0.3890
  713MOL0     C96185   3.951  -0.008   4.098 -0.4253 -0.1908 -0.0412
  713MOL0     C96186   3.892   0.053   4.212  0.9389  0.1168  0.5024
  713MOL0     C96187   3.902  -0.025   4.335  0.0832  0.7770  0.3170
  713MOL0     H96188   3.781   0.594   4.360  1.5584 -1.6108  2.0770
  713MOL0     H96189   3.664   0.741   4.529 -0.5728 -0.1111  0.0722
  713MOL0     H96190   3.340   0.842   4.673 -1.3565 -0.6438  0.5200
  713MOL0     H96191   3.406   0.810   4.510 -1.6166  1.7436  0.0551
  713MOL0     H96192   3.236   0.630   4.488 -2.4645 -0.2157 -0.3617
  713MOL0     H96193   3.148   0.780   4.529  0.3524  1.0895  0.9354
  713MOL0     H96194   3.220   0.557   4.703  1.0146  0.4133 -0.9836
  713MOL0     H96195   3.054   0.615   4.669  0.2870  1.3227 -0.2060
  713MOL0     H96196   3.236   0.798   4.836  0.7636 -0.5360  0.1841
  713MOL0     H96197   3.060   0.791   4.821 -0.2749 -1.7166 -1.6214
  713MOL0     H96198   3.098   0.710   5.023 -1.7686 -1.0530  0.6000
  713MOL0     H96199   3.049   0.569   4.917  0.4183  0.4051 -1.8738
  713MOL0     H96200   3.217   0.504   5.086 -3.8393 -4.0349 -2.0539
  713MOL0     H96201   3.264   0.464   4.926  0.6688 -1.4741  1.5417
  713MOL0     H96202   3.344   0.729   5.050  0.0037  0.2277  0.5453
  713MOL0     H96203   3.421   0.676   4.912  2.8246  1.5846  1.6158
  713MOL0     H96204   3.549   0.639   5.096  0.6888 -2.9044  0.7841
  713MOL0     H96205   3.442   0.529   5.180  1.6601  2.4483  1.6667
  713MOL0     H96206   3.556   0.496   4.800  2.3505 -2.8244 -1.4409
  713MOL0     H96207   3.638   0.170   4.726 -1.2590  0.7915 -1.5627
  713MOL0     H96208   3.705   0.319   4.677  2.7312  0.0261  0.3167
  713MOL0     H96209   3.889   0.236   4.880  0.9699  0.1387 -0.7207
  713MOL0     H96210   3.815   0.080   4.835 -2.2759  0.1782  0.3708
  713MOL0     H96211   3.924   0.249   4.605 -1.4281 -0.9309 -0.1761
  713MOL0     H96212   3.867   0.082   4.622  1.6495 -0.5430 -1.0055
  713MOL0     H96213   4.111   0.088   4.621  1.1894  2.6559  0.8344
  713MOL0     H96214   4.052   0.017   4.772 -0.3628 -1.0550 -0.5899
  713MOL0     H96215   4.284   0.373   4.903 -1.4123 -0.4149 -1.1236
  713MOL0     H96216   4.524   0.336   4.957  1.2645 -0.4969 -0.0292
  713MOL0     H96217   4.866   0.051   4.773  0.6243  0.6296  0.0301
  713MOL0     H96218   5.115  -0.052   4.759 -0.9583 -0.6241 -0.5172
  713MOL0     H96219   5.206  -0.419   5.001  0.9972  1.4024  0.1990
  713MOL0     H96220   5.152  -0.426   4.833  2.5635  0.2738 -3.7452
  713MOL0     H96221   5.396  -0.494   4.830 -1.0914 -0.4233 -0.6054
  713MOL0     H96222   5.400  -0.321   4.788 -0.5991  2.3525  1.4894
  713MOL0     H96223   5.466  -0.247   5.001  0.2825 -0.6743  2.9098
  713MOL0     H96224   5.402  -0.403   5.059  0.4087  0.5729  0.7823
  713MOL0     H96225   5.590  -0.523   4.923 -2.1978 -0.0109  0.0646
  713MOL0     H96226   5.615  -0.452   5.075  0.4092  0.6938 -0.2172
  713MOL0     H96227   5.738  -0.248   4.981  0.5066 -0.9495  0.0093
  713MOL0     H96228   5.671  -0.277   4.826  0.2657  2.4839  1.8392
  713MOL0     H96229   5.803  -0.517   4.849  0.7411 -0.2751  0.5906
  713MOL0     H96230   5.893  -0.372   4.793  0.0035  0.4086 -0.9126
  713MOL0     H96231   5.993  -0.526   4.980 -2.1763 -0.8762  0.1599
  713MOL0     H96232   5.889  -0.457   5.100  2.2184 -3.6036  1.1975
  713MOL0     H96233   5.980  -0.244   5.064  0.0370  0.1703  0.2962
  713MOL0     H96234   6.110  -0.358   5.104  1.0859 -1.9748 -2.0556
  713MOL0     H96235   5.029  -0.310   5.070  0.8538  0.2012 -0.7949
  713MOL0     H96236   4.795  -0.211   5.103 -0.8599  1.9085  0.3819
  713MOL0     H96237   4.468  -0.088   4.826 -1.2935 -0.1901 -2.0837
  713MOL0     H96238   4.252  -0.014   4.738  0.7552  0.7434 -0.6608
  713MOL0     H96239   3.364   0.446   4.582 -0.6039  0.5446 -2.1099
  713MOL0     H96240   3.444   0.312   4.420  0.0558 -0.9187 -0.3121
  713MOL0     H96241   3.816   0.351   4.061 -1.1511 -0.3763  1.8209
  713MOL0     H96242   3.888   0.224   3.852  0.3988 -2.7162 -2.0417
  713MOL0     H96243   4.069   0.118   3.746  1.7272 -0.0892  0.9663
  713MOL0     H96244   3.913   0.050   3.686 -0.5924 -3.1005 -0.4355
  713MOL0     H96245   4.189  -0.079   3.684 -0.8872  2.4252  1.0359
  713MOL0     H96246   4.077  -0.034   3.553 -0.8014  0.0898 -0.3021
  713MOL0     H96247   3.912  -0.208   3.650  0.2383  1.0273 -0.7848
  713MOL0     H96248   4.049  -0.264   3.749  3.2254  0.3435 -0.7592
  713MOL0     H96249   4.075  -0.237   3.452 -2.4105  0.1788 -0.2891
  713MOL0     H96250   4.185  -0.320   3.568 -0.0087  0.3242 -2.3897
  713MOL0     H96251   3.912  -0.631   3.504 -2.0647  0.8665  1.2592
  713MOL0     H96252   3.995  -0.107   4.102 -0.0115 -0.0695 -1.2750
  713MOL0     H96253   3.971   0.019   4.407 -1.7145 -0.5403  3.0242
  713MOL0     H96254   3.805  -0.024   4.386 -0.0895 -3.2095  0.3999
  713MOL0     H96255   3.929  -0.128   4.311 -1.0356  0.2939  1.0594
  714MOL0     O96256   4.783   7.243   3.689  0.2612  0.2012 -0.5844
  714MOL0     C96257   4.739   7.222   3.578 -0.6638 -0.9633  0.5947
  714MOL0     O96258   4.813   7.240   3.462  0.1110 -0.2513 -0.2391
  714MOL0     C96259   4.946   7.285   3.454 -0.1708 -0.0092  0.4566
  714MOL0     C96260   5.026   7.240   3.346  1.0489 -0.4864  0.5861
  714MOL0     C96261   5.157   7.278   3.329  0.7538 -0.8470 -0.2258
  714MOL0     C96262   5.215   7.355   3.424  0.3564 -0.5560 -0.1829
  714MOL0     O96263   5.345   7.381   3.387 -0.1894 -0.2952  0.3576
  714MOL0     C96264   5.432   7.448   3.482 -0.3579  0.4431  0.2162
  714MOL0     C96265   5.572   7.399   3.443  0.3844  0.1680 -0.3055
  714MOL0     C96266   5.599   7.436   3.301 -0.5654  0.8487 -0.3436
  714MOL0     C96267   5.749   7.401   3.263  0.0593  0.4820  0.0439
  714MOL0     C96268   5.832   7.533   3.264  0.5678  0.2673  0.1823
  714MOL0     C96269   5.979   7.510   3.202  0.1710  0.8429  0.2344
  714MOL0     C96270   5.984   7.503   3.049  0.0811  0.1498  0.4584
  714MOL0     C96271   5.910   7.617   2.978 -0.8186 -0.3170  0.7312
  714MOL0     N96272   5.905   7.590   2.834  0.0425 -0.8308  0.5399
  714MOL0     C96273   6.015   7.577   2.745 -0.0699 -0.3742 -0.1186
  714MOL0     C96274   5.953   7.548   2.629  0.7721 -0.3773 -0.5601
  714MOL0     C96275   6.010   7.529   2.490  0.1341  0.5608  0.4484
  714MOL0     C96276   6.111   7.411   2.490 -0.3318 -0.2883 -1.2708
  714MOL0     C96277   6.050   7.282   2.531  0.4287  1.7026  0.7485
  714MOL0     C96278   6.070   7.246   2.671  0.1292 -0.0568 -0.3782
  714MOL0     O96279   6.206   7.231   2.707 -0.7761  0.2319  0.6060
  714MOL0     C96280   6.242   7.221   2.839  0.5438  0.4614 -0.1101
  714MOL0     C96281   6.158   7.190   2.948 -0.4481  0.4542  0.4836
  714MOL0     C96282   6.212   7.206   3.072 -0.8855 -0.0653 -0.7816
  714MOL0     C96283   6.345   7.230   3.097  0.0143 -0.2748  0.3793
  714MOL0     C96284   6.402   7.231   3.234  0.2924 -0.7262 -0.0252
  714MOL0     O96285   6.540   7.238   3.225 -0.0698 -0.2674  0.8223
  714MOL0     C96286   6.605   7.254   3.342  0.6286 -0.0644  0.0654
  714MOL0     C96287   6.689   7.358   3.364 -0.2429  0.2042 -0.1718
  714MOL0     C96288   6.782   7.346   3.463 -0.3398 -0.7800  0.3520
  714MOL0     C96289   6.790   7.239   3.547  0.1646 -0.7659  0.2762
  714MOL0     O96290   6.886   7.241   3.646  0.3218 -1.2249 -0.4396
  714MOL0     C96291   6.952   7.122   3.673  0.1846  0.1730  0.4351
  714MOL0     C96292   7.007   7.047   3.546 -0.7560  0.1386  0.3134
  714MOL0     C96293   7.138   7.115   3.487  0.8458 -0.0847 -0.5049
  714MOL0     C96294   7.111   7.187   3.355  0.9741  0.7690 -0.3948
  714MOL0     C96295   7.220   7.285   3.297 -0.2835 -0.3999  0.6381
  714MOL0     C96296   7.341   7.204   3.245  0.7913 -0.6971  0.1388
  714MOL0     C96297   7.453   7.289   3.210 -1.0034  0.9133  0.2746
  714MOL0     C96298   7.577   7.201   3.178  0.3196 -0.5750 -0.5104
  714MOL0    Cl96299   7.716   7.301   3.131 -0.1413 -0.0878 -0.2031
  714MOL0     C96300   6.695   7.135   3.527  0.2258  0.3760 -0.4436
  714MOL0     C96301   6.601   7.144   3.432  0.2573 -0.7741  0.0835
  714MOL0     O96302   6.332   7.223   3.332 -0.3965 -0.4086 -0.6244
  714MOL0     C96303   6.434   7.245   2.983 -0.2282  0.2771  1.0705
  714MOL0     C96304   6.373   7.245   2.858 -0.2366  0.2349 -0.1138
  714MOL0     N96305   5.816   7.551   2.648  0.7355 -0.3456  0.2649
  714MOL0     N96306   5.788   7.559   2.772  0.4556 -0.5624 -0.1504
  714MOL0     C96307   5.144   7.397   3.529 -0.0454  0.7354  0.2456
  714MOL0     C96308   5.013   7.362   3.549 -0.0430  0.5661 -0.6486
  714MOL0     C96309   4.588   7.208   3.568 -0.0113  0.3114 -0.5426
  714MOL0     C96310   4.514   7.268   3.676  0.3146  0.1653 -0.5151
  714MOL0     C96311   4.369   7.258   3.685 -0.4597  0.2145  0.5028
  714MOL0     C96312   4.304   7.198   3.575  0.3598 -0.0185 -0.3943
  714MOL0     O96313   4.164   7.220   3.578 -0.5251 -0.0668 -0.4856
  714MOL0     C96314   4.090   7.136   3.489  0.3719 -0.2730 -0.1151
  714MOL0     C96315   3.945   7.156   3.511 -0.2297  0.3910  0.8116
  714MOL0     C96316   3.890   7.301   3.482 -0.7153  0.4791 -0.1966
  714MOL0     C96317   3.741   7.286   3.445 -0.2334 -1.1410  0.6478
  714MOL0     C96318   3.668   7.404   3.420 -1.2934 -0.1342  0.1781
  714MOL0     C96319   3.591   7.501   3.402  0.7908  0.3628  0.7330
  714MOL0     C96320   4.381   7.127   3.480 -0.5030  0.5920  0.4175
  714MOL0     C96321   4.516   7.136   3.467 -0.4085  0.4126  0.8020
  714MOL0     C96322   4.587   7.078   3.358 -0.4028 -0.7514  0.3308
  714MOL0     H96323   4.966   7.195   3.267  0.2076  2.3700 -0.5113
  714MOL0     H96324   5.203   7.247   3.235 -1.0401 -3.0158 -0.4731
  714MOL0     H96325   5.416   7.556   3.476 -2.6886  0.2514  1.5750
  714MOL0     H96326   5.409   7.423   3.586 -0.5785  1.8000  0.5111
  714MOL0     H96327   5.582   7.293   3.465  2.2851  0.6716  1.5635
  714MOL0     H96328   5.640   7.451   3.510  0.7163 -0.9908  0.2777
  714MOL0     H96329   5.586   7.543   3.282  2.6100  1.6382  1.1891
  714MOL0     H96330   5.534   7.378   3.236 -1.4116  0.0237  1.1770
  714MOL0     H96331   5.790   7.335   3.339  1.8682  0.5501 -0.7990
  714MOL0     H96332   5.770   7.360   3.163  1.7628 -0.8771  0.9083
  714MOL0     H96333   5.774   7.603   3.203 -0.8590 -3.3547 -3.0261
  714MOL0     H96334   5.832   7.582   3.362  1.8081 -0.4915  0.5815
  714MOL0     H96335   6.045   7.592   3.231  1.8252 -0.6286  0.8350
  714MOL0     H96336   6.024   7.419   3.244 -1.5973  0.2591  0.9955
  714MOL0     H96337   5.936   7.410   3.017 -2.4346  1.3957  0.4466
  714MOL0     H96338   6.085   7.506   3.006 -0.2655 -0.8942 -0.4797
  714MOL0     H96339   5.808   7.637   3.012 -0.9490 -0.0234  0.1878
  714MOL0     H96340   5.956   7.715   2.995 -2.4337  0.9316 -1.5790
  714MOL0     H96341   6.119   7.598   2.764 -0.0195 -0.2940 -0.4932
  714MOL0     H96342   5.938   7.524   2.407 -0.0031 -0.3859  0.6144
  714MOL0     H96343   6.072   7.615   2.465 -2.3099  1.9342 -1.3011
  714MOL0     H96344   6.145   7.398   2.387  0.5771 -2.2414 -0.7704
  714MOL0     H96345   6.197   7.448   2.547 -0.3078  1.7521 -2.5361
  714MOL0     H96346   6.073   7.199   2.464 -3.2286 -0.3420  1.7506
  714MOL0     H96347   5.944   7.289   2.507  0.5458  1.0727 -0.0054
  714MOL0     H96348   6.011   7.157   2.696 -0.2386  0.4465  0.6095
  714MOL0     H96349   6.032   7.332   2.727  0.7387  0.4213 -0.6914
  714MOL0     H96350   6.054   7.161   2.946 -0.6962  1.2900 -1.7841
  714MOL0     H96351   6.157   7.199   3.165  2.0742 -1.0334  1.0465
  714MOL0     H96352   6.695   7.443   3.297  1.9671  2.5412  2.7119
  714MOL0     H96353   6.848   7.432   3.471 -1.7310  0.3384  0.2244
  714MOL0     H96354   7.033   7.135   3.744  0.5862  1.5632 -0.2393
  714MOL0     H96355   6.876   7.058   3.718 -0.6942 -1.2155 -2.7086
  714MOL0     H96356   7.033   6.942   3.560  2.7660  0.6537 -1.2680
  714MOL0     H96357   6.934   7.031   3.466  1.5921 -1.1823 -1.7317
  714MOL0     H96358   7.172   7.183   3.566  0.9300 -0.3410 -0.3194
  714MOL0     H96359   7.218   7.040   3.477 -0.8845 -2.3922  1.6215
  714MOL0     H96360   7.018   7.242   3.375  0.5751  1.0971 -2.8575
  714MOL0     H96361   7.088   7.119   3.273  0.0999  1.3167 -0.6278
  714MOL0     H96362   7.250   7.349   3.380 -2.3075  0.3110  0.8664
  714MOL0     H96363   7.179   7.342   3.213 -1.0426  2.0772  2.5704
  714MOL0     H96364   7.370   7.126   3.317  2.1613 -2.1683 -1.8690
  714MOL0     H96365   7.295   7.156   3.157  0.5083 -0.4204  0.1375
  714MOL0     H96366   7.470   7.358   3.293 -3.0746  0.4088  1.1865
  714MOL0     H96367   7.432   7.343   3.117  0.4907  0.6586 -0.2356
  714MOL0     H96368   7.619   7.145   3.262  1.5824 -2.0585 -2.0484
  714MOL0     H96369   7.549   7.130   3.099 -2.0610 -1.5367  1.1104
  714MOL0     H96370   6.689   7.052   3.597 -0.7849 -0.5636 -1.6053
  714MOL0     H96371   6.518   7.074   3.423 -0.7150  0.4929 -1.4125
  714MOL0     H96372   6.541   7.254   2.996 -0.3442 -0.2093  2.5780
  714MOL0     H96373   6.444   7.260   2.778  0.2024  1.9771  0.5659
  714MOL0     H96374   5.187   7.443   3.618 -1.5112  1.8082  0.4352
  714MOL0     H96375   4.963   7.388   3.642 -0.1541  0.4441 -0.6730
  714MOL0     H96376   4.566   7.323   3.753  2.4996 -1.9318 -0.3890
  714MOL0     H96377   4.307   7.300   3.764  0.0685 -2.0485  2.2267
  714MOL0     H96378   4.104   7.029   3.511 -1.3264 -0.5065 -0.0271
  714MOL0     H96379   4.111   7.155   3.383 -0.1059 -0.3222 -0.2195
  714MOL0     H96380   3.918   7.127   3.614  2.0698  1.5275  1.8073
  714MOL0     H96381   3.898   7.090   3.437  2.0941 -0.4785  0.0320
  714MOL0     H96382   3.944   7.351   3.401 -0.0132  0.7632  0.4383
  714MOL0     H96383   3.910   7.349   3.578  1.0414 -0.9453  0.2044
  714MOL0     H96384   3.737   7.224   3.355  0.0843 -2.4774  1.5096
  714MOL0     H96385   3.699   7.234   3.532 -1.9714  1.2782  1.3388
  714MOL0     H96386   3.527   7.586   3.390  1.0697  0.8884  2.5947
  714MOL0     H96387   4.323   7.077   3.403 -1.2600 -1.0134  1.9625
  714MOL0     H96388   4.664   7.010   3.396  0.3433 -0.6076 -0.9028
  714MOL0     H96389   4.526   7.026   3.283 -0.8908  1.3769 -0.8328
  714MOL0     H96390   4.636   7.155   3.299 -2.8810  0.5065 -0.2046
  715MOL0     O96391   7.890  10.249   0.631  0.1897  0.1926  0.4901
  715MOL0     C96392   7.836  10.270   0.524  0.0656  0.3160  0.3698
  715MOL0     O96393   7.873  10.212   0.404  0.1370  0.2744  0.3830
  715MOL0     C96394   7.994  10.145   0.392  0.3340  0.0019  0.0565
  715MOL0     C96395   8.043  10.051   0.483 -0.6804 -0.0185 -0.4392
  715MOL0     C96396   8.170   9.989   0.470  0.1098  0.4970  0.2243
  715MOL0     C96397   8.233  10.011   0.343 -1.6659  0.1209 -0.1607
  715MOL0     O96398   8.348   9.939   0.327  0.2998 -0.3075 -0.5853
  715MOL0     C96399   8.398   9.889   0.196  0.0197  0.9107 -0.4624
  715MOL0     C96400   8.495   9.773   0.229 -0.8995 -0.1450 -0.1847
  715MOL0     C96401   8.637   9.817   0.284  0.7889 -1.1096  0.3660
  715MOL0     C96402   8.729   9.696   0.269 -0.1120  0.4945  0.9437
  715MOL0     C96403   8.860   9.705   0.346  1.2695 -0.2741  0.2482
  715MOL0     C96404   8.917   9.569   0.364  0.5746  0.0184 -0.7205
  715MOL0     C96405   9.030   9.587   0.466 -0.2651  0.8172  0.0429
  715MOL0     C96406   9.121   9.464   0.469 -0.4119  0.0883  0.9105
  715MOL0     N96407   9.217   9.469   0.581  0.0849  0.0814  0.1771
  715MOL0     C96408   9.190   9.434   0.709 -0.8247 -0.6871 -0.5590
  715MOL0     C96409   9.300   9.475   0.785 -0.7797 -0.2324 -0.1329
  715MOL0     C96410   9.330   9.464   0.936  0.1783 -0.8274 -0.2319
  715MOL0     C96411   9.477   9.501   0.969 -0.3425  0.6160  0.0015
  715MOL0     C96412   9.501   9.494   1.115 -0.2104  0.0439 -0.1206
  715MOL0     C96413   9.638   9.559   1.159  0.7460  0.9184  0.9793
  715MOL0     O96414   9.747   9.527   1.074  0.0878 -0.0774  0.8761
  715MOL0     C96415   9.879   9.545   1.112  0.9232  0.7771 -0.1980
  715MOL0     C96416   9.918   9.653   1.190  0.5692  0.0686 -0.3434
  715MOL0     C96417  10.050   9.677   1.215 -0.0451 -1.4886  0.2657
  715MOL0     C96418  10.144   9.580   1.188 -0.2386  0.2196 -0.1143
  715MOL0     C96419  10.289   9.602   1.220 -0.7740  0.5466 -0.5338
  715MOL0     O96420  10.370   9.490   1.211  0.2036  0.9017 -0.1085
  715MOL0     C96421  10.506   9.486   1.247  0.1913  0.3384 -0.0168
  715MOL0     C96422  10.591   9.597   1.245  0.6896  0.3172  0.3850
  715MOL0     C96423  10.717   9.592   1.309  0.5170  0.2451 -0.0295
  715MOL0     C96424  10.770   9.478   1.365  0.5888 -1.1415  0.3472
  715MOL0     O96425  10.891   9.469   1.430 -0.4286 -0.3865 -0.3920
  715MOL0     C96426  10.941   9.586   1.499  0.0140 -0.1915 -0.0911
  715MOL0     C96427  11.019   9.555   1.621 -0.0612 -0.3798  0.4219
  715MOL0     C96428  11.050   9.686   1.693 -0.3036 -0.4875  0.4052
  715MOL0     C96429  11.153   9.647   1.806  0.2080 -0.3345  0.5133
  715MOL0     C96430  11.235   9.767   1.857 -0.0670  0.4367  0.3874
  715MOL0     C96431  11.323   9.825   1.751 -0.4049 -0.0606  0.3350
  715MOL0     C96432  11.432   9.917   1.798  0.3711 -0.2855  0.3688
  715MOL0     C96433  11.560   9.836   1.826 -0.8582 -0.3166  0.2046
  715MOL0    Cl96434  11.651   9.802   1.681 -0.0622 -0.2602  0.4040
  715MOL0     C96435  10.691   9.362   1.356  0.1582 -0.0432  0.6632
  715MOL0     C96436  10.561   9.368   1.301 -0.1428  0.1239 -0.7522
  715MOL0     O96437  10.325   9.722   1.244  0.7655  0.2726 -0.1650
  715MOL0     C96438  10.094   9.466   1.123  0.8757  0.7152  0.4164
  715MOL0     C96439   9.967   9.448   1.074 -0.3338  0.1519 -0.0131
  715MOL0     N96440   9.386   9.539   0.690  0.3768  0.9774  0.1820
  715MOL0     N96441   9.334   9.528   0.571 -0.4242  0.0535 -0.2028
  715MOL0     C96442   8.189  10.100   0.254  1.3782  0.3040  0.5514
  715MOL0     C96443   8.064  10.165   0.275  0.1472  0.1217 -0.2745
  715MOL0     C96444   7.721  10.369   0.520 -0.3942 -0.5431  0.0948
  715MOL0     C96445   7.655  10.386   0.639  0.2541 -0.8005  0.5135
  715MOL0     C96446   7.559  10.484   0.659 -0.1439  0.7020 -0.4389
  715MOL0     C96447   7.496  10.536   0.547 -0.2817  0.0206  0.1080
  715MOL0     O96448   7.382  10.609   0.546 -0.3941  0.3539  0.7264
  715MOL0     C96449   7.318  10.644   0.669 -0.9560 -0.4837  0.1952
  715MOL0     C96450   7.219  10.548   0.720 -0.0023  0.3282  0.1432
  715MOL0     C96451   7.171  10.587   0.864 -0.4572  0.9407 -0.5604
  715MOL0     C96452   7.038  10.668   0.867  0.8794 -0.9864 -0.5638
  715MOL0     C96453   6.919  10.590   0.822  0.2285  0.0215  0.4458
  715MOL0     C96454   6.817  10.533   0.801  0.0024 -0.1631  1.0433
  715MOL0     C96455   7.555  10.522   0.421 -1.1668  0.2904 -0.5115
  715MOL0     C96456   7.665  10.430   0.408 -0.0477  0.2498  0.1322
  715MOL0     C96457   7.712  10.411   0.270  0.4832  0.6010  0.2397
  715MOL0     H96458   7.987  10.027   0.573  0.9021  1.7400  1.0983
  715MOL0     H96459   8.214   9.908   0.528 -1.2592 -1.4057 -1.2654
  715MOL0     H96460   8.312   9.858   0.136 -1.4097 -0.7961  2.2712
  715MOL0     H96461   8.452   9.960   0.132  0.4294  1.6258  0.6583
  715MOL0     H96462   8.519   9.713   0.141 -0.0255 -1.8200  1.1398
  715MOL0     H96463   8.456   9.695   0.295 -0.6620 -0.7841 -0.7802
  715MOL0     H96464   8.631   9.843   0.390  1.5070 -2.9972  0.9047
  715MOL0     H96465   8.679   9.903   0.231  1.0222 -0.2955  1.8197
  715MOL0     H96466   8.667   9.617   0.311  0.6890 -0.7221 -0.0781
  715MOL0     H96467   8.740   9.662   0.165 -2.9027 -0.0872  0.7528
  715MOL0     H96468   8.926   9.775   0.294  0.2430  0.3510 -0.2371
  715MOL0     H96469   8.839   9.745   0.446 -3.2951  1.2045 -1.0689
  715MOL0     H96470   8.836   9.500   0.392 -0.1523  1.4204  0.7699
  715MOL0     H96471   8.953   9.533   0.267 -0.8551 -0.2419 -1.1778
  715MOL0     H96472   8.987   9.595   0.566  0.9138 -4.5062  1.2741
  715MOL0     H96473   9.089   9.674   0.438 -0.5222  0.7054 -0.8993
  715MOL0     H96474   9.049   9.383   0.476 -1.4680  0.7911 -1.2432
  715MOL0     H96475   9.176   9.453   0.375 -1.4729 -3.1671  0.5473
  715MOL0     H96476   9.108   9.387   0.761 -1.0536 -0.4326 -0.6860
  715MOL0     H96477   9.257   9.534   0.978 -0.9719 -2.3190  0.3511
  715MOL0     H96478   9.297   9.367   0.973  0.0171 -1.2632 -1.4738
  715MOL0     H96479   9.550   9.439   0.917 -1.2493 -0.9034  0.4779
  715MOL0     H96480   9.488   9.604   0.933 -1.3686  0.5525 -0.5045
  715MOL0     H96481   9.508   9.391   1.151  1.6547  0.2895  0.3391
  715MOL0     H96482   9.422   9.542   1.173 -1.2108 -1.7607  0.0650
  715MOL0     H96483   9.665   9.541   1.264 -0.8846 -0.6957  1.1703
  715MOL0     H96484   9.618   9.664   1.136 -0.7513  0.6379  0.9441
  715MOL0     H96485   9.840   9.726   1.212 -1.3948 -2.0395  0.0971
  715MOL0     H96486  10.070   9.768   1.270 -1.9987 -0.2280 -0.9608
  715MOL0     H96487  10.548   9.687   1.201  1.2164  0.0827 -0.6561
  715MOL0     H96488  10.788   9.674   1.313  1.5597 -0.6149 -0.6721
  715MOL0     H96489  11.016   9.636   1.436  1.5883 -0.9606  1.1085
  715MOL0     H96490  10.867   9.655   1.539  1.4061  0.6589  1.1014
  715MOL0     H96491  10.962   9.485   1.682 -0.8498 -1.2995 -1.2926
  715MOL0     H96492  11.108   9.506   1.581 -0.0158 -0.2851  0.4062
  715MOL0     H96493  11.102   9.750   1.621 -1.5433 -1.6122 -1.5869
  715MOL0     H96494  10.959   9.733   1.733 -0.8059  0.5255 -1.8012
  715MOL0     H96495  11.226   9.571   1.778 -1.9841 -2.9202  1.3568
  715MOL0     H96496  11.086   9.613   1.885 -0.3175 -1.0508 -0.2277
  715MOL0     H96497  11.303   9.733   1.935  0.9484  2.0836  0.2590
  715MOL0     H96498  11.168   9.849   1.884 -0.8108  0.3938 -1.2011
  715MOL0     H96499  11.365   9.739   1.697 -1.1605 -0.1994 -0.0480
  715MOL0     H96500  11.260   9.876   1.677 -1.5662 -3.3883 -1.2132
  715MOL0     H96501  11.403   9.971   1.888  2.7350  2.5156 -0.4224
  715MOL0     H96502  11.457   9.986   1.716  2.4582 -0.4049  0.8654
  715MOL0     H96503  11.628   9.893   1.889  1.6994 -1.7806 -1.0795
  715MOL0     H96504  11.532   9.746   1.882  2.6524 -1.3950  0.4373
  715MOL0     H96505  10.730   9.267   1.392 -1.1639 -0.2361  1.6551
  715MOL0     H96506  10.501   9.279   1.285 -1.6899  0.8771  0.5746
  715MOL0     H96507  10.170   9.393   1.096  1.0839  0.8478  0.6358
  715MOL0     H96508   9.946   9.353   1.026  0.5223 -1.6980  2.9763
  715MOL0     H96509   8.248  10.106   0.163  0.0089  0.6218 -0.3570
  715MOL0     H96510   8.026  10.225   0.193  0.8367 -2.2753 -2.4821
  715MOL0     H96511   7.689  10.327   0.723 -1.0882  0.3954  1.9783
  715MOL0     H96512   7.514  10.501   0.756  2.6765 -3.1062  1.8343
  715MOL0     H96513   7.261  10.735   0.645  0.6768  0.9872  1.5706
  715MOL0     H96514   7.396  10.681   0.736  1.9021 -1.1319 -2.5249
  715MOL0     H96515   7.282  10.458   0.727  1.2895  1.1839 -0.0994
  715MOL0     H96516   7.136  10.527   0.652 -2.3841  0.4053  2.8372
  715MOL0     H96517   7.246  10.641   0.922  2.5387 -3.1689 -0.1752
  715MOL0     H96518   7.157  10.489   0.910 -2.0764  0.6743 -1.5371
  715MOL0     H96519   7.026  10.717   0.964 -1.1600  0.1378 -1.3171
  715MOL0     H96520   7.064  10.748   0.797 -0.6183 -0.1707 -0.2489
  715MOL0     H96521   6.719  10.497   0.776  1.1317 -2.3951 -0.5810
  715MOL0     H96522   7.502  10.559   0.334 -3.4024  0.5806  0.9154
  715MOL0     H96523   7.626  10.430   0.205  1.0006 -0.3450 -0.7441
  715MOL0     H96524   7.805  10.464   0.248  0.9540 -1.4055 -3.2998
  715MOL0     H96525   7.719  10.307   0.240 -0.0148  0.9178 -1.0618
  716MOL0     O96526   6.070   3.299   1.569  0.0847  0.1659 -0.5040
  716MOL0     C96527   6.069   3.421   1.591 -0.3299 -0.3344 -0.3042
  716MOL0     O96528   6.186   3.497   1.608 -0.4390  0.3202 -0.0020
  716MOL0     C96529   6.307   3.431   1.582 -0.1113 -0.2340  0.1400
  716MOL0     C96530   6.393   3.487   1.490  0.2470  0.1921 -1.1363
  716MOL0     C96531   6.523   3.436   1.471  0.6665  1.1639 -0.0129
  716MOL0     C96532   6.567   3.324   1.543 -0.1977  0.0033  0.1090
  716MOL0     O96533   6.688   3.259   1.515 -0.3116 -0.5594 -0.3340
  716MOL0     C96534   6.781   3.323   1.434  0.2015 -0.7607  1.3034
  716MOL0     C96535   6.905   3.231   1.436  0.4515  0.1468  1.0264
  716MOL0     C96536   7.008   3.294   1.343  0.4442  1.5013 -0.3644
  716MOL0     C96537   7.142   3.224   1.360  0.3642 -0.1313 -0.3231
  716MOL0     C96538   7.225   3.260   1.241 -0.7337 -0.4465 -0.3642
  716MOL0     C96539   7.372   3.205   1.251  0.2841  0.1744  0.1618
  716MOL0     C96540   7.470   3.277   1.346 -0.1544  0.8584 -1.0041
  716MOL0     C96541   7.508   3.410   1.299 -0.4267 -0.8679  0.1174
  716MOL0     N96542   7.581   3.404   1.174 -0.0581  0.2532  0.2069
  716MOL0     C96543   7.535   3.440   1.048 -0.2949 -0.7036 -0.3114
  716MOL0     C96544   7.632   3.398   0.967  0.4156 -0.0278 -0.7976
  716MOL0     C96545   7.637   3.419   0.812 -0.5215 -0.3924 -0.4295
  716MOL0     C96546   7.651   3.570   0.785  0.4068  0.1604  0.0819
  716MOL0     C96547   7.690   3.601   0.638 -0.3992 -0.2013  0.7841
  716MOL0     C96548   7.711   3.750   0.618 -0.3656 -0.2733  1.1527
  716MOL0     O96549   7.758   3.782   0.487  0.1158 -0.2323  0.5971
  716MOL0     C96550   7.865   3.863   0.487 -0.7112 -0.0303  0.0061
  716MOL0     C96551   7.858   3.990   0.432 -0.0940 -0.4613  0.5305
  716MOL0     C96552   7.965   4.081   0.432  0.7980 -0.3663 -1.0849
  716MOL0     C96553   8.087   4.033   0.470  0.8194 -0.0617 -0.3969
  716MOL0     C96554   8.202   4.125   0.464 -0.1204  0.4498  0.2844
  716MOL0     O96555   8.179   4.255   0.464 -0.3477 -0.6098 -0.6775
  716MOL0     C96556   8.290   4.337   0.450 -0.1057  0.5908  0.4530
  716MOL0     C96557   8.354   4.397   0.565  0.3441 -0.2042  0.4392
  716MOL0     C96558   8.463   4.486   0.551 -0.3778  0.2249 -0.7706
  716MOL0     C96559   8.515   4.507   0.421 -0.2258 -0.9828 -0.3796
  716MOL0     O96560   8.616   4.603   0.429  0.1227 -0.4683  0.2452
  716MOL0     C96561   8.651   4.674   0.313  0.0774  0.1346  1.0166
  716MOL0     C96562   8.798   4.731   0.310 -0.9141  0.4717 -0.5388
  716MOL0     C96563   8.908   4.616   0.260  0.0078 -0.1190 -0.0513
  716MOL0     C96564   8.941   4.637   0.117 -0.3568  0.7858 -0.4472
  716MOL0     C96565   8.990   4.514   0.047 -1.0504 -0.3511 -0.3100
  716MOL0     C96566   9.135   4.519   0.032 -0.1629 -0.8346  0.1180
  716MOL0     C96567   9.177   4.401  -0.060  0.4789  0.5372 -0.2505
  716MOL0     C96568   9.176   4.429  -0.217  0.0749 -0.4385  0.7215
  716MOL0    Cl96569   9.274   4.314  -0.303 -0.0628 -0.0175  0.3515
  716MOL0     C96570   8.453   4.443   0.313 -1.0085  0.0434  0.1635
  716MOL0     C96571   8.341   4.367   0.326 -0.5802 -0.0014  0.0368
  716MOL0     O96572   8.310   4.067   0.458 -0.3010  0.0447  0.3880
  716MOL0     C96573   8.102   3.898   0.503  0.0117  1.0264 -0.2887
  716MOL0     C96574   7.989   3.816   0.520 -0.6681  0.4258  0.4644
  716MOL0     N96575   7.730   3.337   1.040 -0.8856 -0.4093  0.4907
  716MOL0     N96576   7.697   3.345   1.163 -1.2619  0.6183 -0.3614
  716MOL0     C96577   6.485   3.282   1.644  0.2520 -0.3847 -0.1530
  716MOL0     C96578   6.356   3.333   1.665 -0.4700  0.4344  0.3010
  716MOL0     C96579   5.939   3.494   1.594  0.3062 -0.4850 -0.3104
  716MOL0     C96580   5.941   3.622   1.647 -0.2738  0.3507 -0.6327
  716MOL0     C96581   5.827   3.698   1.651  1.4944 -0.0394 -0.0136
  716MOL0     C96582   5.697   3.648   1.633  0.5535  0.0969  0.0522
  716MOL0     O96583   5.578   3.702   1.663 -0.2714 -0.1450 -0.0066
  716MOL0     C96584   5.580   3.832   1.714  0.8878  0.3075  0.3606
  716MOL0     C96585   5.429   3.874   1.728 -0.7140  0.5302  0.0878
  716MOL0     C96586   5.357   3.823   1.852 -0.2893 -0.1860  0.8436
  716MOL0     C96587   5.200   3.809   1.838  0.5884 -0.1232 -0.1681
  716MOL0     C96588   5.148   3.941   1.793  0.0068  0.0775 -0.6361
  716MOL0     C96589   5.106   4.050   1.763 -0.6461 -0.0445 -1.0696
  716MOL0     C96590   5.698   3.517   1.584  0.2918 -0.5486 -0.1747
  716MOL0     C96591   5.819   3.446   1.552 -0.2482 -0.9305  1.1543
  716MOL0     C96592   5.797   3.318   1.468 -0.3007 -0.9819 -0.4205
  716MOL0     H96593   6.352   3.571   1.435  0.6398  1.0777 -0.0991
  716MOL0     H96594   6.585   3.481   1.394 -0.7767  1.2469 -1.1689
  716MOL0     H96595   6.747   3.349   1.333  0.6949  1.6633  1.6918
  716MOL0     H96596   6.815   3.421   1.470  0.5826  0.3629 -1.7584
  716MOL0     H96597   6.868   3.135   1.399  0.9157  1.0393 -2.0091
  716MOL0     H96598   6.942   3.228   1.539  1.5911  1.2735  0.6833
  716MOL0     H96599   7.019   3.403   1.352 -0.2286  1.7793 -2.2817
  716MOL0     H96600   6.970   3.276   1.242 -0.5239 -1.9985  0.4952
  716MOL0     H96601   7.186   3.250   1.457  0.7245  0.3718 -0.6120
  716MOL0     H96602   7.135   3.115   1.364  1.9963 -0.2352  1.1963
  716MOL0     H96603   7.176   3.219   1.152 -0.8406 -2.5507  0.6141
  716MOL0     H96604   7.224   3.369   1.231 -3.2067 -0.2306  1.3026
  716MOL0     H96605   7.377   3.098   1.271  2.8622  0.1177 -0.4210
  716MOL0     H96606   7.420   3.217   1.153  0.6008  4.5814  0.6371
  716MOL0     H96607   7.559   3.215   1.361 -0.8536  0.3442  1.3813
  716MOL0     H96608   7.421   3.290   1.443 -1.8875 -0.9558 -1.5546
  716MOL0     H96609   7.420   3.470   1.277  0.1813 -0.1183 -0.3148
  716MOL0     H96610   7.563   3.460   1.379 -0.0918  1.1716 -1.3130
  716MOL0     H96611   7.438   3.484   1.027  0.5622  1.0042 -0.8807
  716MOL0     H96612   7.726   3.378   0.764  1.0174 -0.5854  2.4098
  716MOL0     H96613   7.548   3.374   0.767 -1.3578 -0.3536  1.1215
  716MOL0     H96614   7.551   3.601   0.818  0.8389 -0.2548  1.8974
  716MOL0     H96615   7.731   3.607   0.850  0.2257  0.7005 -0.0011
  716MOL0     H96616   7.614   3.572   0.566  0.4847  0.7970 -0.6083
  716MOL0     H96617   7.783   3.551   0.606 -2.3434 -1.7004 -3.1839
  716MOL0     H96618   7.787   3.781   0.691  0.0995  0.3273  0.4265
  716MOL0     H96619   7.622   3.812   0.633  1.4083  2.5700  0.6486
  716MOL0     H96620   7.762   4.026   0.397 -0.0194 -0.1409  0.6532
  716MOL0     H96621   7.952   4.182   0.396 -2.7985 -0.0251  0.7080
  716MOL0     H96622   8.297   4.380   0.656 -2.5122  0.7214 -1.0454
  716MOL0     H96623   8.501   4.541   0.636 -3.1613  1.6084 -0.2909
  716MOL0     H96624   8.626   4.623   0.219  0.1963 -0.3752  1.2612
  716MOL0     H96625   8.596   4.768   0.320  0.9014  0.6285  1.0176
  716MOL0     H96626   8.805   4.807   0.232  0.4289  0.1604 -0.7320
  716MOL0     H96627   8.828   4.785   0.400 -1.0666 -0.4279  0.0589
  716MOL0     H96628   8.994   4.634   0.326 -0.7981  2.1623  0.4921
  716MOL0     H96629   8.869   4.515   0.273 -1.8974  0.7670  1.8915
  716MOL0     H96630   9.023   4.710   0.117 -1.6718  2.3484  1.5717
  716MOL0     H96631   8.861   4.681   0.057  0.2488  0.2132 -1.7107
  716MOL0     H96632   8.951   4.525  -0.054  0.6527  0.9002 -0.8678
  716MOL0     H96633   8.948   4.423   0.092 -0.1131 -1.0032 -0.7172
  716MOL0     H96634   9.172   4.613  -0.011 -1.7631 -1.0919 -1.9954
  716MOL0     H96635   9.179   4.511   0.132 -0.6627  2.7071  0.7532
  716MOL0     H96636   9.135   4.307  -0.024  2.5151  0.3938  2.0558
  716MOL0     H96637   9.284   4.384  -0.044  0.4344 -3.2359 -2.7612
  716MOL0     H96638   9.073   4.414  -0.250  0.1769 -3.6185  1.5333
  716MOL0     H96639   9.223   4.523  -0.247 -1.7892 -0.2710 -1.9894
  716MOL0     H96640   8.494   4.444   0.212  1.4789 -0.5755  1.1038
  716MOL0     H96641   8.301   4.321   0.236 -0.1195 -1.5665  0.5898
  716MOL0     H96642   8.195   3.850   0.532 -0.5241  0.1613  0.0193
  716MOL0     H96643   7.995   3.712   0.551 -2.3898  0.0928 -0.2564
  716MOL0     H96644   6.522   3.201   1.707  0.2787 -1.1131 -1.0726
  716MOL0     H96645   6.300   3.286   1.746  1.4825  0.5114  1.7546
  716MOL0     H96646   6.033   3.667   1.682 -1.2912  0.2416  2.4437
  716MOL0     H96647   5.846   3.802   1.675  0.4454 -0.4389  2.9273
  716MOL0     H96648   5.626   3.893   1.636 -0.6527 -2.1129 -2.6880
  716MOL0     H96649   5.642   3.835   1.804  3.1364 -2.6778 -0.9157
  716MOL0     H96650   5.378   3.842   1.637  2.4340  1.0101 -1.9973
  716MOL0     H96651   5.430   3.983   1.737  4.0447  1.2850 -4.5137
  716MOL0     H96652   5.375   3.894   1.933  2.2383  0.5948 -0.3257
  716MOL0     H96653   5.401   3.730   1.888 -0.2608 -0.7156 -0.4957
  716MOL0     H96654   5.170   3.726   1.772  1.0774 -0.2101 -0.2832
  716MOL0     H96655   5.158   3.790   1.937  3.4549 -0.6763  1.0199
  716MOL0     H96656   5.077   4.150   1.740 -2.3601 -0.3804 -0.5633
  716MOL0     H96657   5.597   3.480   1.566  0.0733  0.5506 -1.3639
  716MOL0     H96658   5.809   3.241   1.545  1.7977  0.3944  0.7116
  716MOL0     H96659   5.699   3.318   1.420  0.5600  0.5547 -2.3118
  716MOL0     H96660   5.880   3.300   1.399  2.5705  3.8124  1.2442
  717MOL0     O96661   9.922   6.933   4.053  0.2776 -0.5358 -0.0218
  717MOL0     C96662   9.879   7.023   4.129  0.0565  0.1263 -0.8201
  717MOL0     O96663   9.958   7.116   4.195  0.1369  0.5602  0.9373
  717MOL0     C96664  10.093   7.110   4.190  0.6059 -0.5539 -0.0853
  717MOL0     C96665  10.175   7.079   4.304  0.0865 -0.1057 -0.6863
  717MOL0     C96666  10.309   7.083   4.297  0.0140 -0.4168  0.2559
  717MOL0     C96667  10.377   7.112   4.176  0.3735 -1.2689 -0.3990
  717MOL0     O96668  10.515   7.108   4.158 -0.2722 -0.1761 -0.2970
  717MOL0     C96669  10.594   7.111   4.276 -0.3317 -0.2976  0.3780
  717MOL0     C96670  10.739   7.115   4.226 -0.2995 -0.0946 -0.6501
  717MOL0     C96671  10.846   7.053   4.316  0.5254  0.7068 -0.4002
  717MOL0     C96672  10.982   7.092   4.268 -0.8703 -0.7265  1.0078
  717MOL0     C96673  11.070   7.044   4.380 -0.2050 -0.2866  0.1448
  717MOL0     C96674  11.045   7.095   4.515  0.5184  0.2683 -0.9568
  717MOL0     C96675  11.165   7.056   4.605  0.0582 -0.3244  0.5006
  717MOL0     C96676  11.147   7.115   4.747 -0.3856  0.2526  0.2155
  717MOL0     N96677  11.275   7.111   4.826 -0.2405 -0.5272  0.6092
  717MOL0     C96678  11.372   7.206   4.847 -0.3289 -0.0141  0.0940
  717MOL0     C96679  11.459   7.136   4.923  0.1280 -0.3434  0.1395
  717MOL0     C96680  11.583   7.201   4.993  0.5561  0.0822 -0.0799
  717MOL0     C96681  11.699   7.197   4.893 -0.6244 -0.7336 -0.5226
  717MOL0     C96682  11.839   7.200   4.962  0.5845 -0.2252 -0.2796
  717MOL0     C96683  11.887   7.333   5.032  0.1729  0.4792  0.3021
  717MOL0     O96684  12.028   7.307   5.060  0.4614  0.3356  0.8050
  717MOL0     C96685  12.113   7.414   5.041 -0.6511  0.4862 -0.2458
  717MOL0     C96686  12.076   7.548   5.014  0.1109  0.5268 -0.2554
  717MOL0     C96687  12.176   7.647   5.021  0.9581 -0.1734  0.0899
  717MOL0     C96688  12.315   7.613   5.021 -0.0766  0.4812 -0.9805
  717MOL0     C96689  12.422   7.712   5.039 -1.0615  0.1297 -0.6647
  717MOL0     O96690  12.538   7.679   5.100  0.9512  0.1678 -0.1153
  717MOL0     C96691  12.643   7.771   5.096  0.0168  0.3228  0.7383
  717MOL0     C96692  12.649   7.873   5.190 -0.0255 -0.6599 -0.7457
  717MOL0     C96693  12.768   7.956   5.195 -0.2435  0.4926 -0.9475
  717MOL0     C96694  12.881   7.915   5.128 -0.2304  0.4450 -0.3424
  717MOL0     O96695  12.998   7.965   5.162 -0.8493 -0.3018 -0.1532
  717MOL0     C96696  13.061   8.044   5.062 -0.0897 -0.0753  0.2955
  717MOL0     C96697  13.180   8.114   5.122  0.0320  0.3388 -0.6111
  717MOL0     C96698  13.307   8.034   5.085  0.3719  0.2383 -0.0597
  717MOL0     C96699  13.415   8.075   5.186  0.2772 -0.0617  0.1815
  717MOL0     C96700  13.531   7.979   5.175 -0.0860 -0.0098 -0.0792
  717MOL0     C96701  13.619   7.995   5.046  0.2923  0.1583  0.0335
  717MOL0     C96702  13.719   7.871   5.047  1.0621 -0.6315  0.2776
  717MOL0     C96703  13.832   7.881   4.946  0.0138  0.9353 -0.5994
  717MOL0    Cl96704  13.955   8.007   5.018  0.2894  0.3767  0.1609
  717MOL0     C96705  12.872   7.819   5.023  0.4624 -0.4359 -0.2751
  717MOL0     C96706  12.752   7.739   5.010 -0.0057 -0.8632  0.6840
  717MOL0     O96707  12.396   7.824   5.003 -0.1164 -0.0032 -0.1412
  717MOL0     C96708  12.347   7.476   5.026 -0.4579  0.8523 -0.3930
  717MOL0     C96709  12.245   7.378   5.046  1.0498  0.2030  0.2847
  717MOL0     N96710  11.419   7.006   4.950  0.6579  0.9592 -0.0126
  717MOL0     N96711  11.302   7.001   4.896  0.4129  0.1757  0.0522
  717MOL0     C96712  10.303   7.129   4.056 -0.9441 -0.1474  0.1695
  717MOL0     C96713  10.163   7.129   4.068  0.9646  1.2833 -0.6209
  717MOL0     C96714   9.737   7.055   4.138  0.4764 -0.8192  0.7885
  717MOL0     C96715   9.710   7.185   4.183  0.7957 -0.1252  0.6063
  717MOL0     C96716   9.577   7.223   4.193  0.1285  0.1204  1.1565
  717MOL0     C96717   9.467   7.156   4.148  0.1671  0.2718 -0.0552
  717MOL0     O96718   9.344   7.221   4.124  1.0131 -0.7128 -0.1584
  717MOL0     C96719   9.237   7.158   4.056  0.1509  0.9466 -0.1609
  717MOL0     C96720   9.262   7.159   3.906  0.9969 -0.1961 -0.6106
  717MOL0     C96721   9.159   7.077   3.828  0.1809 -0.2593  0.0455
  717MOL0     C96722   9.169   7.107   3.676  1.0529  0.3660  0.0258
  717MOL0     C96723   9.070   7.024   3.605 -0.2173 -0.1192 -0.0872
  717MOL0     C96724   9.002   6.951   3.537 -0.3101  0.1305 -0.1314
  717MOL0     C96725   9.497   7.021   4.128  0.5802 -0.2913  0.1085
  717MOL0     C96726   9.629   6.970   4.118 -0.8633  0.3568 -0.6739
  717MOL0     C96727   9.651   6.817   4.111 -0.6938 -0.2954 -0.0767
  717MOL0     H96728  10.130   7.064   4.402 -0.7076 -1.5244 -1.2311
  717MOL0     H96729  10.360   7.070   4.391  2.0399 -0.6657 -0.8336
  717MOL0     H96730  10.577   7.200   4.337  1.3233 -0.0324  0.4850
  717MOL0     H96731  10.570   7.025   4.338 -3.3587  1.3086  1.6607
  717MOL0     H96732  10.762   7.222   4.227 -2.2233  0.3494  0.5615
  717MOL0     H96733  10.753   7.077   4.124  3.0298 -1.0201  0.0155
  717MOL0     H96734  10.828   6.946   4.314 -0.7315  0.8981 -0.1365
  717MOL0     H96735  10.820   7.093   4.415  1.8909 -0.5011  0.4755
  717MOL0     H96736  10.998   7.045   4.171  1.7391  4.6792 -1.5944
  717MOL0     H96737  10.999   7.200   4.258  2.8230 -1.1292  1.5295
  717MOL0     H96738  11.059   6.935   4.386 -3.2201 -0.1256 -0.6611
  717MOL0     H96739  11.170   7.075   4.348  0.2932 -1.7878  0.1925
  717MOL0     H96740  11.026   7.202   4.512  0.5213  0.2890 -0.3474
  717MOL0     H96741  10.957   7.044   4.556  0.1811  2.0290  0.6310
  717MOL0     H96742  11.253   7.105   4.562 -1.5608  1.6782 -0.7151
  717MOL0     H96743  11.190   6.949   4.610 -0.7255 -0.6336 -1.3730
  717MOL0     H96744  11.108   7.216   4.734 -1.8286 -0.6647 -4.2826
  717MOL0     H96745  11.070   7.056   4.798  1.7540 -4.1611 -1.1182
  717MOL0     H96746  11.379   7.301   4.795  0.3420  0.2336  0.6284
  717MOL0     H96747  11.553   7.300   5.029 -0.9918 -0.8106  1.2427
  717MOL0     H96748  11.612   7.143   5.081 -0.7876 -1.5563 -0.6804
  717MOL0     H96749  11.691   7.102   4.840  1.4342 -2.3134  1.7586
  717MOL0     H96750  11.688   7.278   4.821  1.1926  1.1743  1.1806
  717MOL0     H96751  11.910   7.168   4.885  0.8605  1.0296 -0.5627
  717MOL0     H96752  11.837   7.130   5.046 -1.4020  0.4549  0.3045
  717MOL0     H96753  11.823   7.362   5.115 -3.5566 -0.7249 -1.8909
  717MOL0     H96754  11.869   7.403   4.950 -1.3689 -2.4057 -2.0078
  717MOL0     H96755  11.975   7.583   4.996 -0.0140  0.4116  0.2190
  717MOL0     H96756  12.137   7.748   5.025  0.7061 -0.2297 -0.7154
  717MOL0     H96757  12.562   7.901   5.249 -0.9511  0.5802 -2.5883
  717MOL0     H96758  12.777   8.036   5.268  1.2386 -0.2780 -0.2465
  717MOL0     H96759  13.093   7.986   4.975  4.4961  2.7935 -0.2773
  717MOL0     H96760  12.979   8.105   5.023  1.5565 -0.1046 -3.7243
  717MOL0     H96761  13.204   8.210   5.075  0.4549  1.0720  1.0165
  717MOL0     H96762  13.162   8.122   5.230  0.1543 -0.3967 -0.5355
  717MOL0     H96763  13.282   7.927   5.086 -1.1719  0.5461 -1.4755
  717MOL0     H96764  13.332   8.063   4.983 -0.2684  2.4718  0.3758
  717MOL0     H96765  13.381   8.066   5.289 -1.7474  2.0567 -0.2214
  717MOL0     H96766  13.445   8.181   5.184  1.0422 -0.2006  2.0755
  717MOL0     H96767  13.501   7.876   5.195  1.1962 -0.2402  0.8061
  717MOL0     H96768  13.594   8.004   5.261 -1.1009 -1.0009  0.9916
  717MOL0     H96769  13.553   7.994   4.960  1.0706  0.3630 -0.5802
  717MOL0     H96770  13.666   8.094   5.040  2.5790 -0.9484 -1.9705
  717MOL0     H96771  13.665   7.779   5.023 -1.6562  0.8152  0.4271
  717MOL0     H96772  13.771   7.865   5.143  3.1646  1.8503 -0.5810
  717MOL0     H96773  13.880   7.783   4.933  0.3276  1.0431 -0.2631
  717MOL0     H96774  13.805   7.911   4.844  1.2892  2.0251 -0.6490
  717MOL0     H96775  12.954   7.796   4.956 -0.3544 -2.0417 -0.7979
  717MOL0     H96776  12.748   7.662   4.933 -0.7056  0.5498 -0.7589
  717MOL0     H96777  12.450   7.443   5.034 -0.5791  0.3610 -0.8393
  717MOL0     H96778  12.247   7.272   5.069 -1.0317  0.3082  1.1164
  717MOL0     H96779  10.342   7.144   3.955 -0.8069  0.3326  0.2922
  717MOL0     H96780  10.106   7.133   3.976  1.9680  2.3705 -1.2243
  717MOL0     H96781   9.785   7.260   4.207  1.0013 -0.8866  2.5707
  717MOL0     H96782   9.556   7.329   4.208 -0.4025  0.2111 -0.1060
  717MOL0     H96783   9.144   7.213   4.074 -0.0851  0.3096  0.6787
  717MOL0     H96784   9.220   7.056   4.092 -0.9331  0.5889 -1.5579
  717MOL0     H96785   9.353   7.098   3.899  0.7268 -0.7291  0.2478
  717MOL0     H96786   9.281   7.254   3.857  0.2333  0.5682  0.5120
  717MOL0     H96787   9.061   7.122   3.847  0.0309 -0.4788 -0.2022
  717MOL0     H96788   9.163   6.968   3.842 -0.1005 -0.4174 -1.0253
  717MOL0     H96789   9.131   7.206   3.648 -0.6254 -0.9894 -3.0215
  717MOL0     H96790   9.268   7.097   3.632  0.2595  0.4440 -1.8819
  717MOL0     H96791   8.942   6.889   3.475  0.6347 -3.2820  2.0479
  717MOL0     H96792   9.416   6.956   4.097  0.4667  0.7948 -2.0873
  717MOL0     H96793   9.559   6.758   4.116  0.2641 -1.8002  0.5605
  717MOL0     H96794   9.696   6.796   4.014  0.1874  1.4608 -0.0744
  717MOL0     H96795   9.713   6.781   4.194  1.2500 -1.1825 -1.8300
  718MOL0     O96796   6.262   7.761   2.653 -0.7463  0.5831 -0.1475
  718MOL0     C96797   6.230   7.881   2.659 -0.0467 -0.4034  0.7455
  718MOL0     O96798   6.239   7.972   2.555  0.2407  0.4881  0.3606
  718MOL0     C96799   6.358   7.978   2.484  0.2821 -0.2816  0.8307
  718MOL0     C96800   6.490   7.952   2.535  0.0106  0.0353 -0.2773
  718MOL0     C96801   6.598   7.968   2.452 -0.4797  0.1114  0.4665
  718MOL0     C96802   6.586   7.995   2.317  0.1410 -0.3216 -0.2868
  718MOL0     O96803   6.693   7.987   2.224 -0.4763  0.0617  0.5218
  718MOL0     C96804   6.802   7.900   2.252  0.6015 -0.2071  0.5434
  718MOL0     C96805   6.875   7.868   2.123  0.5247  0.1323  0.1737
  718MOL0     C96806   7.022   7.817   2.146  0.9857 -0.6570 -0.1651
  718MOL0     C96807   7.038   7.671   2.183 -0.0768  0.0282 -0.1139
  718MOL0     C96808   7.191   7.628   2.170 -0.5105  0.5368  0.1879
  718MOL0     C96809   7.256   7.644   2.033  0.2516  0.8366  0.1971
  718MOL0     C96810   7.385   7.559   2.026 -0.5260 -0.3380  0.8901
  718MOL0     C96811   7.498   7.615   2.129  0.0006 -0.2294  0.3159
  718MOL0     N96812   7.626   7.561   2.081 -0.0595 -0.7056 -0.5876
  718MOL0     C96813   7.684   7.574   1.959  0.1973  0.0434  0.4771
  718MOL0     C96814   7.804   7.515   1.967 -1.2500  0.4439 -0.9987
  718MOL0     C96815   7.894   7.491   1.860 -0.0584 -0.5649 -0.7807
  718MOL0     C96816   8.037   7.517   1.903 -0.0330 -0.6152  0.1749
  718MOL0     C96817   8.046   7.660   1.971  0.1359  0.2170  0.5794
  718MOL0     C96818   8.186   7.695   2.016  0.3013  0.6048 -0.5524
  718MOL0     O96819   8.234   7.826   1.986  0.0132 -0.1442  0.5697
  718MOL0     C96820   8.368   7.858   2.021 -0.1103  0.5144 -0.5391
  718MOL0     C96821   8.462   7.760   2.073 -0.1629 -0.1655 -0.5161
  718MOL0     C96822   8.587   7.791   2.112 -0.3428  0.1706  0.3411
  718MOL0     C96823   8.630   7.920   2.108 -0.4444 -0.0161  0.3702
  718MOL0     C96824   8.765   7.960   2.151 -0.0615  1.3001 -0.1246
  718MOL0     O96825   8.803   8.089   2.126 -0.3582  0.2465  0.5494
  718MOL0     C96826   8.922   8.135   2.175 -0.4496 -0.6571 -0.1332
  718MOL0     C96827   9.042   8.069   2.219 -0.6881  0.0949  0.2357
  718MOL0     C96828   9.140   8.138   2.290  0.1559 -0.3744  0.8942
  718MOL0     C96829   9.139   8.283   2.295  0.4402 -0.5036  0.9354
  718MOL0     O96830   9.227   8.361   2.363  0.6720 -0.8683 -0.0226
  718MOL0     C96831   9.303   8.301   2.472 -0.3010 -0.4574 -0.0164
  718MOL0     C96832   9.444   8.272   2.420 -0.1044 -0.5456  0.7056
  718MOL0     C96833   9.523   8.408   2.401  0.0122 -0.8925 -0.9152
  718MOL0     C96834   9.669   8.370   2.370 -0.2449 -0.1502 -0.1901
  718MOL0     C96835   9.760   8.497   2.383 -0.5593 -0.0446  0.0859
  718MOL0     C96836   9.902   8.483   2.334 -0.5522  0.0959  0.0747
  718MOL0     C96837   9.988   8.595   2.388  0.3755  0.0063  0.3181
  718MOL0     C96838  10.045   8.682   2.279 -0.3296 -0.9665 -0.0761
  718MOL0    Cl96839  10.217   8.696   2.315  0.0007 -0.5469  0.3822
  718MOL0     C96840   9.029   8.342   2.240 -0.4755 -0.1441 -0.7130
  718MOL0     C96841   8.926   8.277   2.179  0.4775  0.3492  0.7255
  718MOL0     O96842   8.825   7.878   2.223  0.1115 -0.5666  0.2628
  718MOL0     C96843   8.542   8.016   2.052 -1.0563 -0.0983 -0.8103
  718MOL0     C96844   8.414   7.985   2.011  1.4407 -0.3710 -0.0612
  718MOL0     N96845   7.824   7.460   2.093 -0.0367  0.2599  0.3037
  718MOL0     N96846   7.713   7.482   2.154 -0.4537  0.2758 -0.1060
  718MOL0     C96847   6.458   8.024   2.272  0.0356 -0.7850  0.2456
  718MOL0     C96848   6.342   8.014   2.349 -0.0392 -0.0217 -0.1605
  718MOL0     C96849   6.144   7.923   2.761  0.4506 -0.4082  0.0129
  718MOL0     C96850   6.028   8.002   2.732  0.0399 -0.3728 -0.5783
  718MOL0     C96851   5.946   8.061   2.824 -0.9518 -0.1153 -0.6133
  718MOL0     C96852   5.976   8.037   2.958 -0.0255  0.1076 -0.1206
  718MOL0     O96853   5.903   8.080   3.062  0.0236  0.7054 -0.3236
  718MOL0     C96854   5.780   8.159   3.049  0.3318 -0.7227  0.6491
  718MOL0     C96855   5.817   8.308   3.035 -0.1330  0.4370  0.3357
  718MOL0     C96856   5.898   8.360   3.161  0.7449 -0.3622 -0.4341
  718MOL0     C96857   5.928   8.509   3.146 -0.3311  0.0744  0.5375
  718MOL0     C96858   6.015   8.548   3.035 -0.3430 -0.8352 -0.4140
  718MOL0     C96859   6.084   8.569   2.935  1.1980  0.4448 -0.7448
  718MOL0     C96860   6.083   7.955   2.993 -0.4390 -0.3475  0.1885
  718MOL0     C96861   6.164   7.894   2.899 -0.6226  0.4914  0.3948
  718MOL0     C96862   6.273   7.803   2.945  0.8284 -0.3863 -0.6645
  718MOL0     H96863   6.499   7.906   2.633  4.5934 -1.0877 -0.9909
  718MOL0     H96864   6.697   7.954   2.494 -0.0342  0.3211 -0.4828
  718MOL0     H96865   6.877   7.946   2.317  1.5341  2.2547 -2.0881
  718MOL0     H96866   6.778   7.801   2.293 -1.1990 -0.0518 -0.0554
  718MOL0     H96867   6.886   7.956   2.059  1.7042  2.2271  3.0478
  718MOL0     H96868   6.820   7.795   2.063 -1.3218  0.7740  1.0278
  718MOL0     H96869   7.080   7.877   2.218  0.6278 -0.2076 -0.2445
  718MOL0     H96870   7.074   7.840   2.053 -2.2319  0.9049 -1.7390
  718MOL0     H96871   7.001   7.651   2.284 -5.5886  1.6586 -1.4735
  718MOL0     H96872   6.975   7.609   2.119  0.2491 -0.0941 -0.3153
  718MOL0     H96873   7.247   7.691   2.240 -1.8362 -0.3368  2.1528
  718MOL0     H96874   7.206   7.521   2.191 -3.4097  0.0055 -0.0201
  718MOL0     H96875   7.187   7.603   1.959 -0.4447 -0.4557  1.5157
  718MOL0     H96876   7.276   7.749   2.012  1.6549  0.4815 -0.3673
  718MOL0     H96877   7.416   7.578   1.923  2.5905  0.1631  1.8185
  718MOL0     H96878   7.356   7.455   2.043  1.5784 -1.5355 -2.0591
  718MOL0     H96879   7.487   7.723   2.128  0.1747 -0.1501  2.7096
  718MOL0     H96880   7.493   7.577   2.231  1.7399  0.9899  0.8973
  718MOL0     H96881   7.647   7.617   1.867  1.3857 -1.3602 -0.7120
  718MOL0     H96882   7.889   7.387   1.826  0.9764 -0.5096 -1.1273
  718MOL0     H96883   7.863   7.556   1.777 -4.3915 -0.8134  0.4115
  718MOL0     H96884   8.070   7.439   1.972  0.2384 -0.4153  0.2679
  718MOL0     H96885   8.102   7.508   1.816  0.9126 -1.0514  0.9080
  718MOL0     H96886   7.978   7.661   2.057 -1.2496 -1.5861 -0.4398
  718MOL0     H96887   8.015   7.733   1.896  0.0856 -0.6315 -0.2324
  718MOL0     H96888   8.256   7.619   1.981  0.0934 -0.2632  0.8147
  718MOL0     H96889   8.181   7.689   2.126  0.9090 -0.2452 -0.5675
  718MOL0     H96890   8.436   7.658   2.097  0.5224 -0.1224  0.4537
  718MOL0     H96891   8.648   7.716   2.160  0.7975 -0.0803 -1.4052
  718MOL0     H96892   9.037   7.961   2.208 -0.4536  0.2263 -1.4202
  718MOL0     H96893   9.226   8.080   2.323  0.7896  0.2482  0.3643
  718MOL0     H96894   9.304   8.376   2.552 -0.7241  0.5158 -0.8824
  718MOL0     H96895   9.263   8.211   2.518  0.1246 -1.1217 -0.9149
  718MOL0     H96896   9.499   8.216   2.497  2.8035  0.2023 -0.6696
  718MOL0     H96897   9.450   8.219   2.324 -0.0834 -0.2927  0.5672
  718MOL0     H96898   9.492   8.453   2.306 -1.3304 -2.4017 -1.2160
  718MOL0     H96899   9.509   8.484   2.479  0.3383  0.5108 -2.1634
  718MOL0     H96900   9.670   8.342   2.264  1.0774 -2.4952  0.3699
  718MOL0     H96901   9.704   8.291   2.437 -0.8245 -0.0657  0.2144
  718MOL0     H96902   9.762   8.522   2.490 -0.5060  1.7868 -0.2995
  718MOL0     H96903   9.717   8.581   2.328 -1.5198 -0.8185 -0.3738
  718MOL0     H96904   9.939   8.386   2.371  0.6102 -0.4091 -2.2669
  718MOL0     H96905   9.906   8.466   2.226  0.7812  2.9740 -0.4186
  718MOL0     H96906  10.070   8.557   2.449  0.7293  2.7327  1.6892
  718MOL0     H96907   9.932   8.657   2.458 -1.2767 -1.9159  0.8082
  718MOL0     H96908  10.031   8.646   2.177  1.0130 -1.8717  0.0360
  718MOL0     H96909  10.001   8.782   2.293 -0.1961 -1.1092  1.4849
  718MOL0     H96910   9.032   8.450   2.243  2.2214 -0.1085  3.5915
  718MOL0     H96911   8.834   8.323   2.143  0.3800  0.7942  1.5134
  718MOL0     H96912   8.578   8.119   2.044 -3.3067  0.9018  0.7881
  718MOL0     H96913   8.348   8.068   1.986 -0.1878 -0.4560  3.3907
  718MOL0     H96914   6.450   8.038   2.164 -2.0003  0.6364  0.5279
  718MOL0     H96915   6.241   8.021   2.310 -0.1636 -2.3242 -0.4005
  718MOL0     H96916   6.005   8.025   2.628 -2.4978  0.0916  0.0168
  718MOL0     H96917   5.863   8.126   2.799 -1.2718  0.4063  1.5409
  718MOL0     H96918   5.727   8.137   3.142 -1.7238 -2.1706 -0.7766
  718MOL0     H96919   5.714   8.116   2.973  0.1950 -0.2402  0.4907
  718MOL0     H96920   5.727   8.370   3.026  0.5236  1.2431 -0.9767
  718MOL0     H96921   5.872   8.319   2.941  1.4645 -1.8426  0.9286
  718MOL0     H96922   5.998   8.315   3.164  1.3388  0.4883 -3.7239
  718MOL0     H96923   5.840   8.349   3.252  0.1550  1.8011 -0.4916
  718MOL0     H96924   5.834   8.564   3.138 -0.4828  0.0511  1.8560
  718MOL0     H96925   5.983   8.545   3.234  1.9605  2.3382 -1.6432
  718MOL0     H96926   6.149   8.583   2.852  0.6794 -0.8497 -1.3946
  718MOL0     H96927   6.113   7.942   3.097  4.3884  2.2792 -0.5869
  718MOL0     H96928   6.283   7.803   3.053 -0.5205 -0.9046 -0.5187
  718MOL0     H96929   6.254   7.701   2.911 -2.2078 -0.4005  0.7185
  718MOL0     H96930   6.370   7.844   2.915  3.0725 -1.6003  4.0563
  719MOL0     O96931   5.356   5.592   1.581 -0.7518 -0.4801  0.1996
  719MOL0     C96932   5.307   5.698   1.535 -1.5235  0.4284 -0.1815
  719MOL0     O96933   5.380   5.796   1.466 -0.2098  0.1645 -0.4783
  719MOL0     C96934   5.505   5.762   1.431  0.8805 -0.2086  0.7578
  719MOL0     C96935   5.525   5.679   1.321  0.8376 -0.2144  0.8487
  719MOL0     C96936   5.651   5.639   1.269 -1.0954 -0.7607 -0.8629
  719MOL0     C96937   5.764   5.678   1.349 -0.7235  0.1541 -0.3429
  719MOL0     O96938   5.895   5.629   1.338  0.0781 -0.7658  0.3029
  719MOL0     C96939   5.936   5.603   1.202 -0.4069  0.6648 -0.0620
  719MOL0     C96940   6.071   5.526   1.213  1.0348  0.0537 -1.1582
  719MOL0     C96941   6.179   5.605   1.281  0.0824  0.0442  0.4273
  719MOL0     C96942   6.313   5.526   1.269  0.6409 -0.1097  0.2906
  719MOL0     C96943   6.381   5.508   1.127  0.0249  0.2344  0.1156
  719MOL0     C96944   6.521   5.441   1.158  0.8195  0.4287 -1.4533
  719MOL0     C96945   6.631   5.427   1.064  0.6740 -0.8282  0.3742
  719MOL0     C96946   6.762   5.370   1.126  0.0801 -0.0032 -0.1487
  719MOL0     N96947   6.873   5.381   1.029  1.1364  0.0793 -0.7125
  719MOL0     C96948   7.013   5.382   1.056  0.2149  1.1044  0.0179
  719MOL0     C96949   7.073   5.353   0.940  0.2818  0.2353 -0.2619
  719MOL0     C96950   7.213   5.328   0.930 -1.0263 -0.2542 -0.2395
  719MOL0     C96951   7.252   5.236   0.809  0.3609  0.0980 -0.4299
  719MOL0     C96952   7.396   5.213   0.783 -0.3262  0.4148  0.2795
  719MOL0     C96953   7.477   5.332   0.736 -0.2743 -0.0962 -0.1086
  719MOL0     O96954   7.425   5.361   0.602 -0.3750 -0.8923  0.2603
  719MOL0     C96955   7.519   5.391   0.504 -0.3561  0.3545  0.3596
  719MOL0     C96956   7.584   5.281   0.441  0.5013 -0.6715  0.0146
  719MOL0     C96957   7.690   5.306   0.353  0.3265  0.3502 -0.1555
  719MOL0     C96958   7.730   5.439   0.317  1.2043 -0.2700 -0.0233
  719MOL0     C96959   7.847   5.451   0.235  0.0958 -0.1612  0.5461
  719MOL0     O96960   7.945   5.361   0.237  0.0194  0.5763  0.3400
  719MOL0     C96961   8.050   5.378   0.151 -0.2472 -0.2259 -0.7540
  719MOL0     C96962   8.038   5.344   0.015 -0.1866 -0.8730 -0.3978
  719MOL0     C96963   8.144   5.359  -0.077 -0.0857 -0.8089 -0.0638
  719MOL0     C96964   8.271   5.394  -0.028  0.3456  0.5848 -0.8393
  719MOL0     O96965   8.383   5.407  -0.105  0.0149  0.3062  1.1886
  719MOL0     C96966   8.358   5.472  -0.234 -0.3468 -0.1169  0.3449
  719MOL0     C96967   8.504   5.512  -0.274 -0.8567 -0.0732 -0.1600
  719MOL0     C96968   8.510   5.535  -0.428 -0.4719  0.3084 -1.2342
  719MOL0     C96969   8.647   5.576  -0.469 -0.7728  0.5675  0.7256
  719MOL0     C96970   8.654   5.616  -0.621 -0.2062 -0.1472 -0.9644
  719MOL0     C96971   8.775   5.679  -0.673 -0.5706  0.2144  1.0872
  719MOL0     C96972   8.899   5.585  -0.674 -0.3549  0.2252  0.1889
  719MOL0     C96973   9.014   5.647  -0.749 -0.1091  0.3054  0.4156
  719MOL0    Cl96974   9.101   5.777  -0.651 -0.1868  0.3155  0.1618
  719MOL0     C96975   8.286   5.418   0.107 -0.3990  0.2771  0.0710
  719MOL0     C96976   8.180   5.421   0.195 -1.0396  0.3285  0.2738
  719MOL0     O96977   7.837   5.545   0.155 -0.0902  0.6391  0.0080
  719MOL0     C96978   7.655   5.546   0.383  0.2753  0.4674 -0.0124
  719MOL0     C96979   7.552   5.522   0.477 -0.5334  0.5116 -0.5189
  719MOL0     N96980   6.974   5.349   0.841 -0.3737  0.3720 -0.2358
  719MOL0     N96981   6.862   5.355   0.898 -0.7860 -0.7242  0.6369
  719MOL0     C96982   5.746   5.750   1.469  0.5127 -0.3081 -0.1794
  719MOL0     C96983   5.615   5.799   1.506 -0.1167  0.0168 -0.0820
  719MOL0     C96984   5.167   5.736   1.560  0.3701  0.0201 -0.6400
  719MOL0     C96985   5.078   5.630   1.583  0.3932 -0.1331 -0.3627
  719MOL0     C96986   4.945   5.647   1.635 -0.9273  0.4962 -0.2557
  719MOL0     C96987   4.894   5.777   1.643 -0.3305  0.0177  0.2084
  719MOL0     O96988   4.763   5.808   1.672  0.5675 -0.1409  0.2710
  719MOL0     C96989   4.675   5.782   1.563 -0.1760  0.3519  0.1453
  719MOL0     C96990   4.708   5.852   1.435  0.5364  0.7540  0.6365
  719MOL0     C96991   4.624   5.799   1.323 -0.3329  0.5322  0.1346
  719MOL0     C96992   4.619   5.899   1.212  0.3471  0.3931  0.2952
  719MOL0     C96993   4.505   5.992   1.243 -0.3328  0.7734  0.5627
  719MOL0     C96994   4.407   6.052   1.273 -0.2972 -0.5118 -1.2821
  719MOL0     C96995   4.979   5.886   1.611  0.2046  0.2121  0.2111
  719MOL0     C96996   5.113   5.864   1.580  0.2674 -0.6437  1.0622
  719MOL0     C96997   5.193   5.991   1.566  0.9340 -0.1874 -0.5086
  719MOL0     H96998   5.435   5.647   1.270  1.2760  1.1574 -0.9118
  719MOL0     H96999   5.658   5.573   1.184 -0.1999 -0.8007 -0.7670
  719MOL0     H97000   5.868   5.543   1.140  0.8260 -0.2382 -0.5685
  719MOL0     H97001   5.963   5.695   1.151 -0.9131 -0.7443 -3.0959
  719MOL0     H97002   6.100   5.507   1.109  1.1125 -0.0182 -1.1238
  719MOL0     H97003   6.058   5.423   1.250 -2.3479 -0.3255 -2.9961
  719MOL0     H97004   6.167   5.617   1.389  1.9638  1.8250  0.5054
  719MOL0     H97005   6.184   5.698   1.223  0.3458 -1.3156 -1.8430
  719MOL0     H97006   6.384   5.565   1.343  0.4561 -1.7576  1.3966
  719MOL0     H97007   6.286   5.428   1.310 -1.6148  0.8058  1.1777
  719MOL0     H97008   6.326   5.451   1.052  0.9573  0.7638 -1.0094
  719MOL0     H97009   6.399   5.604   1.077 -0.5271  0.5471  0.5129
  719MOL0     H97010   6.552   5.493   1.249 -3.1895 -1.2799  1.1781
  719MOL0     H97011   6.496   5.339   1.190  0.1040  1.4520  1.5495
  719MOL0     H97012   6.663   5.520   1.015  5.0592 -2.0266  0.5544
  719MOL0     H97013   6.588   5.363   0.987 -2.0851 -0.3797  1.4121
  719MOL0     H97014   6.782   5.435   1.212 -1.8593  0.9276 -0.3311
  719MOL0     H97015   6.745   5.265   1.153  0.3257 -0.0616 -0.2216
  719MOL0     H97016   7.078   5.384   1.143  0.0655  2.3997  0.1182
  719MOL0     H97017   7.262   5.424   0.909  2.7320 -2.1601 -1.1385
  719MOL0     H97018   7.254   5.286   1.023  1.4984  1.2577 -0.5583
  719MOL0     H97019   7.229   5.135   0.846 -0.2757  0.4791  0.2529
  719MOL0     H97020   7.191   5.248   0.719  0.7492  2.2535 -0.4376
  719MOL0     H97021   7.402   5.134   0.706  0.3037  1.5612 -0.8943
  719MOL0     H97022   7.437   5.172   0.875 -2.4617  1.4162  1.7465
  719MOL0     H97023   7.583   5.306   0.733 -0.0158  0.9402 -0.1925
  719MOL0     H97024   7.461   5.415   0.806  2.7834 -0.0044  0.5970
  719MOL0     H97025   7.559   5.186   0.487  0.0422 -0.6799 -0.2461
  719MOL0     H97026   7.738   5.218   0.310 -0.5297  0.6912 -1.9044
  719MOL0     H97027   7.944   5.308  -0.025  0.7888 -1.4964 -2.2439
  719MOL0     H97028   8.126   5.352  -0.183 -0.4380  1.3277 -0.1886
  719MOL0     H97029   8.315   5.404  -0.308 -2.6128 -0.6683  2.0537
  719MOL0     H97030   8.306   5.568  -0.227 -0.6978 -0.3233  0.6011
  719MOL0     H97031   8.541   5.595  -0.214 -0.3985  1.5572 -2.5841
  719MOL0     H97032   8.569   5.428  -0.249 -1.5679 -0.6128 -0.0777
  719MOL0     H97033   8.475   5.450  -0.487 -1.0316 -0.1433 -0.2667
  719MOL0     H97034   8.448   5.619  -0.461 -1.9626 -1.9506 -4.6734
  719MOL0     H97035   8.718   5.498  -0.442  1.3191  1.8000 -0.8790
  719MOL0     H97036   8.665   5.667  -0.411  0.8431  0.1545  0.9061
  719MOL0     H97037   8.568   5.683  -0.638 -1.3017 -0.6526  1.9696
  719MOL0     H97038   8.629   5.523  -0.672 -0.9312 -0.6683  0.2964
  719MOL0     H97039   8.765   5.709  -0.778  4.0938 -1.2597 -0.0383
  719MOL0     H97040   8.791   5.766  -0.609 -1.1102 -1.3930  3.5430
  719MOL0     H97041   8.871   5.488  -0.716  1.3449  1.7339 -5.2777
  719MOL0     H97042   8.941   5.575  -0.573  1.7959  2.2036 -0.4089
  719MOL0     H97043   9.091   5.569  -0.760 -0.4319 -0.1436  1.2110
  719MOL0     H97044   8.974   5.678  -0.846  0.8464  1.2150  0.2982
  719MOL0     H97045   8.384   5.456   0.135  0.2853 -0.0618 -1.7195
  719MOL0     H97046   8.213   5.437   0.297  0.1255 -1.5886  0.2428
  719MOL0     H97047   7.691   5.646   0.364  0.6073 -0.0628 -2.6164
  719MOL0     H97048   7.496   5.599   0.530 -1.1683 -0.7116  0.6277
  719MOL0     H97049   5.838   5.777   1.520  1.4363 -2.6773 -0.4345
  719MOL0     H97050   5.604   5.868   1.589 -0.6366  2.3602 -1.9810
  719MOL0     H97051   5.108   5.527   1.566  2.3825  0.5711 -1.5412
  719MOL0     H97052   4.883   5.561   1.660 -1.2704 -0.1604 -2.9992
  719MOL0     H97053   4.581   5.823   1.601  0.1852  0.8049  0.5607
  719MOL0     H97054   4.667   5.673   1.554  2.1326  0.1072  0.6342
  719MOL0     H97055   4.812   5.834   1.407  0.8846  2.3948  0.8142
  719MOL0     H97056   4.700   5.959   1.452  2.2586  1.0670 -0.3249
  719MOL0     H97057   4.526   5.760   1.351 -0.8464  0.6471 -1.3998
  719MOL0     H97058   4.674   5.710   1.284 -1.5128  0.2958 -0.8851
  719MOL0     H97059   4.707   5.962   1.198 -0.2978  1.4500  0.8414
  719MOL0     H97060   4.610   5.841   1.120  3.1199 -0.5693  0.5345
  719MOL0     H97061   4.316   6.098   1.305  0.4613 -0.6410  1.3222
  719MOL0     H97062   4.944   5.987   1.625 -0.1333  0.1452 -0.1114
  719MOL0     H97063   5.145   6.072   1.622 -2.3958 -1.3080 -1.4827
  719MOL0     H97064   5.295   5.972   1.602  1.1457 -0.7619 -1.3733
  719MOL0     H97065   5.199   6.019   1.461 -1.5620  0.1415 -0.6282
  720MOL0     O97066   9.384   1.231   4.838  0.2475  0.2453 -0.4981
  720MOL0     C97067   9.400   1.320   4.919 -0.2428  0.5725 -0.1344
  720MOL0     O97068   9.519   1.385   4.932  0.3303 -0.1307 -0.2529
  720MOL0     C97069   9.635   1.310   4.907  0.3232  0.8202 -0.1712
  720MOL0     C97070   9.664   1.204   4.982  0.8687  1.1017 -0.2304
  720MOL0     C97071   9.781   1.137   4.961 -0.6745  0.1164  0.4518
  720MOL0     C97072   9.879   1.181   4.866  0.6761 -0.1423  0.3497
  720MOL0     O97073   9.992   1.119   4.837  0.6433  1.2247 -0.0238
  720MOL0     C97074  10.052   1.027   4.931  0.5414  0.7604 -0.0188
  720MOL0     C97075  10.142   1.092   5.032  0.4882 -0.1158 -0.9101
  720MOL0     C97076  10.248   1.186   4.976 -0.5110  1.5556 -0.3469
  720MOL0     C97077  10.361   1.225   5.070  0.4573 -0.1256 -0.1218
  720MOL0     C97078  10.482   1.267   4.993 -0.6343 -0.1734  0.2320
  720MOL0     C97079  10.597   1.309   5.088 -0.5810  0.6934 -0.4635
  720MOL0     C97080  10.719   1.323   5.009  0.2328  0.3619 -0.3250
  720MOL0     C97081  10.841   1.378   5.078  0.0419  0.3912  0.3873
  720MOL0     N97082  10.903   1.272   5.157 -1.8747  0.5745  0.4257
  720MOL0     C97083  11.021   1.206   5.130 -0.4981  0.1249  0.4517
  720MOL0     C97084  11.047   1.116   5.228  0.8750  0.8540 -0.0513
  720MOL0     C97085  11.161   1.018   5.225  0.5259 -0.3118  0.3310
  720MOL0     C97086  11.297   1.090   5.186 -0.2744 -0.0881  0.1094
  720MOL0     C97087  11.417   1.006   5.245  1.0084 -0.4637  0.0461
  720MOL0     C97088  11.537   1.027   5.157  0.3966  0.2599  0.7739
  720MOL0     O97089  11.660   0.989   5.220 -0.3766  0.1314 -0.3074
  720MOL0     C97090  11.778   0.993   5.151 -0.4636 -1.0294  0.3812
  720MOL0     C97091  11.793   1.041   5.024 -0.6310  0.6679  0.7901
  720MOL0     C97092  11.917   1.041   4.958 -0.1492 -0.0805  1.1542
  720MOL0     C97093  12.028   0.988   5.017  0.6679 -0.2821 -0.3933
  720MOL0     C97094  12.162   0.991   4.957 -0.2169  0.3251  0.6372
  720MOL0     O97095  12.276   0.949   5.033  0.3606  0.0689 -0.2914
  720MOL0     C97096  12.396   0.960   4.982 -0.7010  0.0538  0.2447
  720MOL0     C97097  12.492   1.030   5.066  0.6690 -0.0354  0.3294
  720MOL0     C97098  12.627   1.049   5.027 -0.0090 -0.7839 -0.5850
  720MOL0     C97099  12.672   0.998   4.905 -0.0390  0.2092 -0.5572
  720MOL0     O97100  12.805   1.022   4.866  0.0352  0.0129  0.6295
  720MOL0     C97101  12.906   0.967   4.953 -0.4887 -0.1713 -1.3678
  720MOL0     C97102  13.013   1.081   4.985  0.4021 -0.0525  0.1276
  720MOL0     C97103  13.150   1.013   5.029 -0.7254 -0.5891  0.3120
  720MOL0     C97104  13.260   1.028   4.926 -0.0222  0.2133 -0.0531
  720MOL0     C97105  13.322   1.167   4.915 -0.1286  0.7527 -0.1075
  720MOL0     C97106  13.405   1.211   5.033 -0.2754  0.3128  0.4050
  720MOL0     C97107  13.537   1.140   5.043 -0.1697 -0.0660 -0.2826
  720MOL0     C97108  13.615   1.208   5.158 -0.1233 -0.0397 -1.1316
  720MOL0    Cl97109  13.774   1.127   5.176  0.2497  0.5008 -0.0738
  720MOL0     C97110  12.586   0.913   4.827 -0.2388  0.9344 -0.0430
  720MOL0     C97111  12.451   0.895   4.867 -0.0008  0.5826 -0.4009
  720MOL0     O97112  12.169   1.054   4.856 -0.4234  0.0802 -0.5571
  720MOL0     C97113  12.018   0.935   5.149 -0.1955  0.1673 -0.1435
  720MOL0     C97114  11.890   0.929   5.211  0.3705  0.7867 -0.2563
  720MOL0     N97115  10.936   1.128   5.316  0.5293 -0.3062  0.2629
  720MOL0     N97116  10.858   1.224   5.279 -0.3231  0.6698  0.1293
  720MOL0     C97117   9.848   1.296   4.793  0.1308  0.5700  0.0035
  720MOL0     C97118   9.726   1.362   4.811  0.1607  0.1651  1.3265
  720MOL0     C97119   9.283   1.363   4.994 -0.4860  0.1392 -0.0012
  720MOL0     C97120   9.156   1.326   4.951  0.1378  0.1840  0.0643
  720MOL0     C97121   9.039   1.366   5.011 -0.2517 -0.1812  0.4521
  720MOL0     C97122   9.032   1.445   5.122 -0.1121  0.5832  0.4770
  720MOL0     O97123   8.911   1.472   5.182  0.3248  0.0289 -0.5415
  720MOL0     C97124   8.900   1.596   5.251 -0.3378 -0.6027 -0.5003
  720MOL0     C97125   8.759   1.645   5.226  1.2072  0.2903 -0.0696
  720MOL0     C97126   8.732   1.794   5.232  0.0232 -1.1067 -1.3963
  720MOL0     C97127   8.762   1.859   5.370  0.6225 -0.0673 -0.3214
  720MOL0     C97128   8.898   1.879   5.404 -0.7322 -0.1239  0.9981
  720MOL0     C97129   9.019   1.886   5.432 -0.0279 -0.0323  1.0198
  720MOL0     C97130   9.163   1.486   5.165 -0.9757 -0.1332 -0.0042
  720MOL0     C97131   9.286   1.442   5.115 -0.8077 -0.3466 -0.5359
  720MOL0     C97132   9.413   1.470   5.186 -0.9944  0.8501 -0.0358
  720MOL0     H97133   9.596   1.160   5.054 -0.5974 -0.8228 -2.6487
  720MOL0     H97134   9.792   1.056   5.033 -1.8565  0.8509  1.4911
  720MOL0     H97135   9.986   0.958   4.984  0.6481 -0.5208 -1.4927
  720MOL0     H97136  10.116   0.969   4.864  0.6595  1.0883 -0.1969
  720MOL0     H97137  10.191   1.018   5.097  0.3395  0.8873  0.3852
  720MOL0     H97138  10.084   1.151   5.104  0.4233 -0.4211 -0.7103
  720MOL0     H97139  10.191   1.276   4.949 -2.3472  0.6789  0.4077
  720MOL0     H97140  10.293   1.130   4.894  1.3985  3.0156 -0.3763
  720MOL0     H97141  10.335   1.313   5.130  1.9099  1.0742 -1.1835
  720MOL0     H97142  10.382   1.138   5.133 -2.0862 -1.9230 -1.6168
  720MOL0     H97143  10.502   1.197   4.911 -2.2457  2.3061 -2.4904
  720MOL0     H97144  10.461   1.363   4.946  0.4472 -0.8893 -1.8079
  720MOL0     H97145  10.584   1.406   5.138 -2.2156  1.4082 -2.1457
  720MOL0     H97146  10.618   1.231   5.162  3.8415  0.4478 -1.6862
  720MOL0     H97147  10.700   1.391   4.926 -0.5338  0.6109  0.0395
  720MOL0     H97148  10.749   1.227   4.965 -0.5187  0.4137 -0.9793
  720MOL0     H97149  10.908   1.424   5.004  2.1534  3.1716  3.7240
  720MOL0     H97150  10.813   1.445   5.160 -1.3561 -1.3333  1.3775
  720MOL0     H97151  11.068   1.234   5.036 -0.2413  0.0307  0.5523
  720MOL0     H97152  11.173   0.964   5.320  3.9686  1.3413  1.0000
  720MOL0     H97153  11.131   0.952   5.144  2.1971  0.9683 -1.4386
  720MOL0     H97154  11.290   1.101   5.078 -1.6064  2.8072  0.3781
  720MOL0     H97155  11.302   1.195   5.218  0.3617  0.8952 -2.9420
  720MOL0     H97156  11.392   0.901   5.264  0.8542 -0.2258  1.2317
  720MOL0     H97157  11.446   1.048   5.342  1.3185  0.1569 -0.3077
  720MOL0     H97158  11.548   1.134   5.137  0.7179  0.1850  0.5550
  720MOL0     H97159  11.525   0.969   5.066  0.0727  4.4247 -2.1007
  720MOL0     H97160  11.709   1.088   4.976  0.0955 -0.7127 -2.0143
  720MOL0     H97161  11.937   1.077   4.858 -1.5710  0.6716  1.1112
  720MOL0     H97162  12.462   1.074   5.160 -0.8260  0.6736 -0.4568
  720MOL0     H97163  12.691   1.117   5.084 -0.9131 -0.8425  0.5452
  720MOL0     H97164  12.866   0.938   5.050 -1.2133 -0.1276 -1.6423
  720MOL0     H97165  12.959   0.886   4.902  0.1743 -0.2550 -0.5628
  720MOL0     H97166  13.032   1.135   4.891 -2.9585  1.1982  0.0307
  720MOL0     H97167  12.975   1.148   5.063 -2.0759 -2.2129  0.9166
  720MOL0     H97168  13.174   1.055   5.127 -0.6481 -0.1864  0.1231
  720MOL0     H97169  13.131   0.906   5.043 -0.2657 -0.7025  0.0885
  720MOL0     H97170  13.221   0.986   4.833 -1.8481 -1.5671  1.4056
  720MOL0     H97171  13.344   0.966   4.959  0.0779  0.7118  0.6621
  720MOL0     H97172  13.245   1.242   4.894 -0.2420  0.4221 -0.9098
  720MOL0     H97173  13.390   1.171   4.830  0.8171 -1.9022  0.4185
  720MOL0     H97174  13.426   1.318   5.021 -0.8847  0.4830  0.7916
  720MOL0     H97175  13.346   1.195   5.123 -0.3052  1.8734  0.6862
  720MOL0     H97176  13.589   1.130   4.947 -1.5251  0.4558 -1.0972
  720MOL0     H97177  13.511   1.037   5.069  0.4619 -1.0038 -3.0141
  720MOL0     H97178  13.629   1.316   5.149  0.0004  0.0824  0.2845
  720MOL0     H97179  13.562   1.185   5.251  1.2034  0.3740 -0.2554
  720MOL0     H97180  12.613   0.872   4.730  0.3580  3.2494 -0.9371
  720MOL0     H97181  12.385   0.830   4.809 -0.3098  1.3296 -0.9017
  720MOL0     H97182  12.095   0.875   5.197 -0.9416 -1.3993 -0.8689
  720MOL0     H97183  11.870   0.880   5.306  1.3320  2.0997  0.6791
  720MOL0     H97184   9.921   1.332   4.721  1.4998 -2.3223 -0.2282
  720MOL0     H97185   9.704   1.458   4.766  1.1950 -1.2764 -2.6656
  720MOL0     H97186   9.153   1.271   4.858 -3.2124  3.1056 -1.7937
  720MOL0     H97187   8.944   1.346   4.962  0.1878  1.3429 -1.1543
  720MOL0     H97188   8.974   1.664   5.207  1.2326 -2.7023 -1.2830
  720MOL0     H97189   8.919   1.585   5.359  3.5921  0.7690 -0.8909
  720MOL0     H97190   8.682   1.601   5.289  1.0482  3.3259  2.0811
  720MOL0     H97191   8.719   1.625   5.127  0.7290  1.9030 -0.2349
  720MOL0     H97192   8.626   1.811   5.212 -0.0087  1.5319  0.4426
  720MOL0     H97193   8.789   1.846   5.154  0.5854  3.2613  1.5606
  720MOL0     H97194   8.713   1.957   5.366  2.8426  1.0669 -1.1109
  720MOL0     H97195   8.715   1.793   5.444  3.8146 -1.7501  0.3823
  720MOL0     H97196   9.123   1.887   5.458  1.4251 -1.8225 -3.6813
  720MOL0     H97197   9.165   1.528   5.266 -0.6734 -1.0644  0.3877
  720MOL0     H97198   9.398   1.492   5.292  1.1005  0.8916  0.2854
  720MOL0     H97199   9.473   1.379   5.184  1.2939  2.2771  0.4724
  720MOL0     H97200   9.462   1.550   5.131 -4.0008  0.7448 -3.2546
  721MOL0     O97201   2.750  10.869   9.412  0.0264  0.8812 -0.9304
  721MOL0     C97202   2.722  10.774   9.490 -0.4110 -0.5930  0.5025
  721MOL0     O97203   2.812  10.698   9.553 -0.1691 -0.4845 -0.1297
  721MOL0     C97204   2.944  10.720   9.519 -0.2877 -0.3532 -0.0653
  721MOL0     C97205   2.990  10.652   9.407 -0.4045 -0.0106 -0.4967
  721MOL0     C97206   3.129  10.673   9.378  0.7961 -0.2845 -0.1941
  721MOL0     C97207   3.204  10.765   9.449  0.0658 -0.4869 -0.0685
  721MOL0     O97208   3.341  10.785   9.423  0.9796 -0.2012 -0.1953
  721MOL0     C97209   3.392  10.813   9.294 -0.3012  0.0848 -0.4871
  721MOL0     C97210   3.543  10.829   9.303 -0.3064  0.2985 -0.1568
  721MOL0     C97211   3.589  10.945   9.385  0.2225  0.3635 -0.2906
  721MOL0     C97212   3.733  10.970   9.360 -0.8045  0.2323 -1.0089
  721MOL0     C97213   3.759  11.110   9.409 -0.6096 -0.2988 -0.6295
  721MOL0     C97214   3.910  11.140   9.387  0.0926 -1.3482 -0.6750
  721MOL0     C97215   3.979  11.122   9.254  0.0188  0.0240 -0.0040
  721MOL0     C97216   3.892  11.159   9.133 -0.1637 -0.4756  0.3785
  721MOL0     N97217   3.908  11.305   9.119 -0.0445 -1.2640  0.3500
  721MOL0     C97218   4.010  11.372   9.062 -0.4737 -0.0458 -0.3132
  721MOL0     C97219   4.006  11.495   9.104  0.1814 -0.4271 -0.6089
  721MOL0     C97220   4.103  11.603   9.079  0.6142 -0.5431  0.4932
  721MOL0     C97221   4.227  11.605   9.171 -0.5118  0.1948 -0.3636
  721MOL0     C97222   4.337  11.510   9.128  0.3580  0.6264 -0.2596
  721MOL0     C97223   4.482  11.561   9.157  0.1590 -0.5747 -0.2252
  721MOL0     O97224   4.476  11.591   9.298 -0.0722 -0.3128  0.1266
  721MOL0     C97225   4.601  11.600   9.352  0.2127 -0.2258 -1.1519
  721MOL0     C97226   4.699  11.686   9.299 -1.5816  0.5594 -0.3291
  721MOL0     C97227   4.818  11.715   9.372  0.2404  0.5444  0.1305
  721MOL0     C97228   4.833  11.654   9.497  0.1000  0.1743  0.2635
  721MOL0     C97229   4.970  11.669   9.568 -0.5451  0.0373 -0.4002
  721MOL0     O97230   5.071  11.734   9.492 -0.2934 -0.3697 -0.6619
  721MOL0     C97231   5.191  11.784   9.545  0.2662  0.6279 -0.0805
  721MOL0     C97232   5.244  11.755   9.671 -0.7196 -0.3668 -0.4446
  721MOL0     C97233   5.367  11.812   9.713 -0.0652  0.4841 -0.3636
  721MOL0     C97234   5.437  11.897   9.634 -0.6323 -0.2517 -0.7336
  721MOL0     O97235   5.563  11.920   9.669  0.3831 -0.3323  0.9722
  721MOL0     C97236   5.640  12.036   9.632  0.5339  0.0579  0.5197
  721MOL0     C97237   5.790  12.025   9.682 -0.5455 -0.0071 -0.3344
  721MOL0     C97238   5.859  11.894   9.645 -0.0563  0.1090  1.2070
  721MOL0     C97239   5.901  11.911   9.490  0.0209 -0.3565  0.4149
  721MOL0     C97240   5.983  11.795   9.438 -0.5829  0.0924 -0.1123
  721MOL0     C97241   6.019  11.825   9.289 -0.6526 -0.3039 -0.2801
  721MOL0     C97242   6.117  11.724   9.227  0.2146 -0.0360  0.3432
  721MOL0     C97243   6.139  11.758   9.082 -0.2759  0.2947 -0.7886
  721MOL0    Cl97244   6.232  11.911   9.076  0.5053  0.0685  0.2049
  721MOL0     C97245   5.389  11.915   9.498  0.6327 -0.5621 -0.1080
  721MOL0     C97246   5.263  11.868   9.466  0.7868  0.0737  0.0864
  721MOL0     O97247   4.974  11.640   9.687  0.0792  0.0111  0.3199
  721MOL0     C97248   4.736  11.573   9.557 -0.0994  0.3739  0.2903
  721MOL0     C97249   4.618  11.554   9.484  0.2965 -0.7045  0.1410
  721MOL0     N97250   3.887  11.515   9.173 -0.5036  0.0865 -0.5892
  721MOL0     N97251   3.829  11.401   9.182 -0.5447 -0.0134  0.0032
  721MOL0     C97252   3.154  10.827   9.562  0.1090  0.5634  0.1102
  721MOL0     C97253   3.025  10.809   9.597  1.4150  0.5120 -0.2796
  721MOL0     C97254   2.576  10.739   9.509  0.4020  0.4115 -0.6986
  721MOL0     C97255   2.539  10.652   9.622 -0.4407  0.5763  0.0657
  721MOL0     C97256   2.411  10.597   9.646 -0.8701 -0.5256 -0.1376
  721MOL0     C97257   2.313  10.636   9.567  0.8421  0.6301  1.0464
  721MOL0     O97258   2.185  10.583   9.586 -0.2130 -0.2843  0.1651
  721MOL0     C97259   2.177  10.439   9.561  0.7982 -0.0178 -0.9772
  721MOL0     C97260   2.071  10.402   9.458  0.4335 -0.3928 -0.3480
  721MOL0     C97261   2.084  10.467   9.327 -0.0880 -0.5328 -0.1436
  721MOL0     C97262   2.229  10.448   9.265  0.2568  0.1454 -0.2251
  721MOL0     C97263   2.261  10.306   9.245  0.2378  0.3682  0.8103
  721MOL0     C97264   2.284  10.187   9.223 -0.4732 -0.5047 -0.1937
  721MOL0     C97265   2.335  10.739   9.467  0.0573 -0.0951 -0.9467
  721MOL0     C97266   2.461  10.792   9.438 -1.1144  0.3590 -0.1566
  721MOL0     C97267   2.475  10.904   9.341  0.0713 -0.2596  1.0662
  721MOL0     H97268   2.930  10.582   9.350 -0.5947  0.7913 -1.3154
  721MOL0     H97269   3.175  10.614   9.299 -0.2477  0.4207 -1.3613
  721MOL0     H97270   3.371  10.733   9.223  3.0031  1.3234 -3.1451
  721MOL0     H97271   3.348  10.907   9.260 -4.9444 -2.0288 -1.0101
  721MOL0     H97272   3.576  10.837   9.199  0.1130 -0.1186 -0.0592
  721MOL0     H97273   3.581  10.735   9.343 -0.4317  0.9848  1.7070
  721MOL0     H97274   3.576  10.910   9.488  0.1009  0.9584 -0.0994
  721MOL0     H97275   3.528  11.034   9.369 -0.3228 -0.2053 -1.4781
  721MOL0     H97276   3.806  10.896   9.394  0.5698  2.1683  0.4970
  721MOL0     H97277   3.747  10.971   9.251  0.4767 -2.7634 -0.9624
  721MOL0     H97278   3.701  11.182   9.352  0.0292 -1.8097 -3.3542
  721MOL0     H97279   3.731  11.118   9.515 -1.1118 -0.9104 -0.7117
  721MOL0     H97280   3.918  11.247   9.411  0.5905 -1.5522  0.0876
  721MOL0     H97281   3.973  11.091   9.462  0.4616 -0.3897 -0.3323
  721MOL0     H97282   4.014  11.020   9.235  2.9528  0.3794  2.6372
  721MOL0     H97283   4.067  11.186   9.244 -0.8811  0.9717 -2.9403
  721MOL0     H97284   3.923  11.107   9.042  0.6900 -0.1372  0.4722
  721MOL0     H97285   3.786  11.136   9.151 -0.2253  0.4905  1.3464
  721MOL0     H97286   4.090  11.320   9.010  0.2652  1.4532 -0.7494
  721MOL0     H97287   4.144  11.600   8.977  3.4218 -1.8288  1.5662
  721MOL0     H97288   4.054  11.701   9.081  1.4320 -0.1201  0.3659
  721MOL0     H97289   4.265  11.707   9.163 -0.5173  0.2233 -0.0409
  721MOL0     H97290   4.202  11.600   9.278 -0.1585  1.2528 -0.2200
  721MOL0     H97291   4.322  11.492   9.022  0.8520  0.6248 -0.3329
  721MOL0     H97292   4.325  11.412   9.174 -1.1615  0.2285 -1.4449
  721MOL0     H97293   4.508  11.646   9.093 -2.2247  1.5113  1.3740
  721MOL0     H97294   4.556  11.482   9.144  2.1458  1.2520 -0.5757
  721MOL0     H97295   4.680  11.725   9.199  1.3416  0.8419 -0.8717
  721MOL0     H97296   4.889  11.779   9.321  0.2050 -0.7557 -1.6161
  721MOL0     H97297   5.199  11.685   9.741  1.0175 -0.3575  0.7218
  721MOL0     H97298   5.413  11.795   9.810 -0.9915 -2.0639 -0.2805
  721MOL0     H97299   5.641  12.043   9.523  0.4484  0.3185  0.5374
  721MOL0     H97300   5.595  12.129   9.669 -1.4103 -0.6249  0.0061
  721MOL0     H97301   5.846  12.113   9.651  0.8431 -1.1770 -1.3127
  721MOL0     H97302   5.803  12.033   9.790  1.5088  3.8901 -0.7047
  721MOL0     H97303   5.947  11.877   9.709  1.4332  0.1736 -0.7366
  721MOL0     H97304   5.791  11.810   9.658 -0.4271 -0.4667 -3.1254
  721MOL0     H97305   5.958  12.002   9.471 -0.9537 -0.1452 -1.9280
  721MOL0     H97306   5.805  11.925   9.439 -0.4746 -0.6216  1.2537
  721MOL0     H97307   5.923  11.704   9.445  0.0013 -0.2884 -0.0242
  721MOL0     H97308   6.070  11.769   9.498 -1.8750 -3.0024  0.6131
  721MOL0     H97309   5.929  11.810   9.229 -0.2459  0.4099 -1.0877
  721MOL0     H97310   6.060  11.927   9.290 -0.7597 -0.2275  1.9137
  721MOL0     H97311   6.066  11.627   9.231  1.1719 -0.7727 -2.5726
  721MOL0     H97312   6.211  11.723   9.284 -1.4104  2.1622  3.3119
  721MOL0     H97313   6.201  11.679   9.037 -2.1856 -0.1783 -2.7748
  721MOL0     H97314   6.045  11.771   9.027 -0.3002  0.2657 -0.7536
  721MOL0     H97315   5.452  11.967   9.427  2.1560 -1.8367  0.2403
  721MOL0     H97316   5.225  11.877   9.365 -0.0808  2.1793  0.5526
  721MOL0     H97317   4.746  11.521   9.652  0.4332 -1.1805 -0.5877
  721MOL0     H97318   4.532  11.500   9.522  1.2718 -3.0801 -0.8224
  721MOL0     H97319   3.221  10.887   9.623  0.5121  1.0820 -0.8238
  721MOL0     H97320   2.980  10.855   9.684 -1.2696 -0.3914 -1.0748
  721MOL0     H97321   2.618  10.623   9.691  0.8622  0.9625 -1.2202
  721MOL0     H97322   2.384  10.522   9.719 -0.4393 -0.9111 -0.3684
  721MOL0     H97323   2.158  10.405   9.663  1.5339  1.5968 -0.2651
  721MOL0     H97324   2.272  10.391   9.534 -0.1671 -1.2930 -2.2340
  721MOL0     H97325   1.978  10.445   9.497  1.0387  3.0119 -2.2588
  721MOL0     H97326   2.060  10.294   9.442  1.9204 -0.5734 -0.3255
  721MOL0     H97327   2.046  10.569   9.342 -3.0780 -1.6239  0.5717
  721MOL0     H97328   2.015  10.419   9.257  0.2565 -0.3305 -0.6241
  721MOL0     H97329   2.255  10.497   9.171  4.2956 -1.4156 -0.1207
  721MOL0     H97330   2.304  10.485   9.335  0.9462  1.0849 -1.4315
  721MOL0     H97331   2.306  10.082   9.228  2.6851  0.0096 -1.0089
  721MOL0     H97332   2.241  10.766   9.420 -1.5206 -0.8187  1.5617
  721MOL0     H97333   2.549  10.874   9.267 -1.1291 -0.3031 -0.1620
  721MOL0     H97334   2.379  10.906   9.288  0.5770 -2.0801  0.0373
  721MOL0     H97335   2.491  11.007   9.376  2.2599 -0.6296  1.2942
  722MOL0     O97336   4.258   2.475   5.650  0.4695  0.3670 -0.3022
  722MOL0     C97337   4.241   2.592   5.686  0.2814  0.1491 -0.1475
  722MOL0     O97338   4.120   2.661   5.665 -0.4867  0.4714  0.2284
  722MOL0     C97339   4.028   2.596   5.581  0.9962  0.6755  0.1645
  722MOL0     C97340   3.894   2.588   5.628 -0.1965 -0.1723 -0.1862
  722MOL0     C97341   3.792   2.556   5.535  0.6625 -0.1111  0.2563
  722MOL0     C97342   3.823   2.507   5.404 -0.6269  0.6628  0.5195
  722MOL0     O97343   3.729   2.480   5.312  0.6486  0.2445  0.1733
  722MOL0     C97344   3.603   2.417   5.344 -0.3748 -0.2834 -0.1389
  722MOL0     C97345   3.517   2.407   5.222 -0.3095  0.1063 -0.0545
  722MOL0     C97346   3.468   2.547   5.166 -0.0069  0.2040 -0.5368
  722MOL0     C97347   3.378   2.625   5.268 -0.0192 -0.2638 -0.4729
  722MOL0     C97348   3.315   2.760   5.241 -0.2869  0.3361 -0.0219
  722MOL0     C97349   3.221   2.754   5.114  0.3159 -0.1723 -0.3969
  722MOL0     C97350   3.138   2.875   5.069 -0.0173 -1.2942  0.6741
  722MOL0     C97351   3.099   2.971   5.178  0.2243  0.0754 -0.6712
  722MOL0     N97352   3.207   3.069   5.225 -0.0494 -0.1586  0.1507
  722MOL0     C97353   3.283   3.151   5.142 -0.1078 -0.5593  0.4387
  722MOL0     C97354   3.367   3.222   5.225 -0.2450 -0.9200 -0.5941
  722MOL0     C97355   3.465   3.322   5.177  0.2172 -0.5584 -0.4963
  722MOL0     C97356   3.586   3.339   5.264  0.4196 -0.1857 -0.2556
  722MOL0     C97357   3.688   3.431   5.194 -0.3229  0.0626  0.3481
  722MOL0     C97358   3.816   3.439   5.266 -0.5601 -0.5824 -0.6850
  722MOL0     O97359   3.895   3.544   5.214 -0.1867 -0.1711  0.2694
  722MOL0     C97360   4.023   3.561   5.255  0.6710 -0.0658  0.3270
  722MOL0     C97361   4.092   3.462   5.326 -1.4140 -0.6610 -0.0111
  722MOL0     C97362   4.230   3.486   5.346  0.1522 -0.5225  0.1584
  722MOL0     C97363   4.297   3.601   5.303  0.2504 -0.5806  0.2837
  722MOL0     C97364   4.442   3.615   5.327  0.7103  0.2954  0.9131
  722MOL0     O97365   4.512   3.721   5.272 -0.5775 -0.4851 -0.4720
  722MOL0     C97366   4.650   3.729   5.285  0.3388  0.4367  0.0650
  722MOL0     C97367   4.734   3.611   5.272  0.6766 -0.6031  0.2673
  722MOL0     C97368   4.875   3.623   5.287 -0.7185 -0.6520 -0.1318
  722MOL0     C97369   4.932   3.751   5.320  0.2738  0.1795  0.5217
  722MOL0     O97370   5.063   3.760   5.367  0.2428  0.4274  0.1151
  722MOL0     C97371   5.162   3.690   5.286  1.6331 -0.0793 -0.2494
  722MOL0     C97372   5.287   3.776   5.306  0.4247 -0.0154  0.1664
  722MOL0     C97373   5.425   3.712   5.273  0.2859  0.1461  0.4277
  722MOL0     C97374   5.536   3.821   5.257  0.0533  0.0378  0.5115
  722MOL0     C97375   5.659   3.748   5.202  0.0113 -1.0122  0.4214
  722MOL0     C97376   5.787   3.841   5.206 -0.0431 -0.1614 -0.0203
  722MOL0     C97377   5.911   3.767   5.160  0.1637  0.3731 -0.1062
  722MOL0     C97378   5.930   3.793   5.011  0.2429  0.1768  0.4363
  722MOL0    Cl97379   6.092   3.731   4.949 -0.1437 -0.3077 -0.0585
  722MOL0     C97380   4.852   3.860   5.338 -0.7404  0.6117 -0.1820
  722MOL0     C97381   4.714   3.854   5.315 -0.3634 -0.3364 -0.5769
  722MOL0     O97382   4.495   3.530   5.394  0.0900  0.1023 -0.3103
  722MOL0     C97383   4.220   3.703   5.241 -0.6915 -0.3494 -0.0456
  722MOL0     C97384   4.083   3.684   5.223 -0.4984  0.3856  0.6822
  722MOL0     N97385   3.332   3.191   5.356  0.4374  0.5710 -0.4577
  722MOL0     N97386   3.250   3.091   5.352 -0.4723  0.4394 -0.5006
  722MOL0     C97387   3.960   2.505   5.367  0.5046 -0.1151  0.0500
  722MOL0     C97388   4.063   2.548   5.453  0.4558 -0.2840 -0.2090
  722MOL0     C97389   4.343   2.670   5.761 -0.0437 -0.1686 -0.7216
  722MOL0     C97390   4.298   2.793   5.820 -0.1253 -0.1349  0.2502
  722MOL0     C97391   4.381   2.871   5.898  0.7195 -1.7933 -0.8497
  722MOL0     C97392   4.507   2.821   5.930 -0.2670  0.0284 -0.1617
  722MOL0     O97393   4.572   2.899   6.024  0.5096 -0.3764 -0.0355
  722MOL0     C97394   4.707   2.877   6.053 -0.0416 -0.3003 -0.3267
  722MOL0     C97395   4.789   2.964   5.955  0.6217 -0.5082  0.2482
  722MOL0     C97396   4.937   2.946   6.000 -0.6219 -0.7917 -0.5314
  722MOL0     C97397   4.995   2.821   5.929  0.2539 -0.0059 -0.2610
  722MOL0     C97398   5.136   2.836   5.924  0.0381  0.4734  0.0537
  722MOL0     C97399   5.248   2.863   5.933  0.3719  0.4034  0.0712
  722MOL0     C97400   4.564   2.708   5.864 -0.2956  1.1667 -0.2501
  722MOL0     C97401   4.482   2.630   5.780  0.8056 -0.6681  0.5479
  722MOL0     C97402   4.548   2.514   5.701 -0.4684 -0.6426  0.7508
  722MOL0     H97403   3.869   2.612   5.731 -2.1069  0.2222 -0.7097
  722MOL0     H97404   3.691   2.561   5.574  1.0764  1.4098  1.1838
  722MOL0     H97405   3.622   2.319   5.389 -1.7263 -0.1631  0.7721
  722MOL0     H97406   3.554   2.477   5.422 -0.8802  0.1683 -0.7925
  722MOL0     H97407   3.434   2.340   5.247  1.2201 -1.5450  0.7842
  722MOL0     H97408   3.579   2.351   5.151  0.7974 -0.1376  1.0764
  722MOL0     H97409   3.408   2.540   5.075  2.7410 -4.0808 -2.3289
  722MOL0     H97410   3.548   2.616   5.139 -0.4445 -0.2899 -3.4017
  722MOL0     H97411   3.293   2.561   5.293 -1.3653  1.6714  0.1454
  722MOL0     H97412   3.442   2.641   5.355  0.6167 -1.3222 -0.7191
  722MOL0     H97413   3.266   2.786   5.335  2.0017 -2.3227  2.0832
  722MOL0     H97414   3.400   2.827   5.230  1.6804 -1.8359  0.9278
  722MOL0     H97415   3.284   2.731   5.028  2.2995 -0.3948  1.0460
  722MOL0     H97416   3.155   2.668   5.125 -0.2589  0.0405 -1.9088
  722MOL0     H97417   3.048   2.830   5.027 -1.4596  3.1762 -1.5898
  722MOL0     H97418   3.185   2.926   4.984 -0.2363 -2.4437 -0.1701
  722MOL0     H97419   3.017   3.029   5.134  0.2046  0.2669 -0.3852
  722MOL0     H97420   3.059   2.917   5.264 -1.4121 -1.6472 -2.4289
  722MOL0     H97421   3.285   3.165   5.034 -1.5904 -0.9760  0.3358
  722MOL0     H97422   3.499   3.304   5.075  0.7976  1.2447 -0.6677
  722MOL0     H97423   3.412   3.417   5.189  2.0717  0.3124  1.5685
  722MOL0     H97424   3.559   3.395   5.354  1.1029  1.5281 -1.0636
  722MOL0     H97425   3.633   3.247   5.299  0.3735  1.1353  3.7724
  722MOL0     H97426   3.643   3.530   5.196  0.0826  0.2476  1.3187
  722MOL0     H97427   3.716   3.395   5.095  0.7138 -1.5678  1.1799
  722MOL0     H97428   3.864   3.342   5.248 -1.1380 -0.8785 -0.6554
  722MOL0     H97429   3.796   3.468   5.369  0.6645  4.1962 -1.5468
  722MOL0     H97430   4.051   3.368   5.363  0.5356 -1.0265  1.3315
  722MOL0     H97431   4.284   3.408   5.397  1.2788 -0.6171 -1.1059
  722MOL0     H97432   4.685   3.515   5.258 -0.6868 -0.0917  1.2381
  722MOL0     H97433   4.938   3.535   5.287 -2.9957 -2.3679 -0.8378
  722MOL0     H97434   5.178   3.589   5.325  2.1429  0.3440  0.6619
  722MOL0     H97435   5.120   3.688   5.185 -2.3326 -0.8217  1.2166
  722MOL0     H97436   5.276   3.875   5.259 -0.0151  0.4337  1.1913
  722MOL0     H97437   5.284   3.804   5.412 -0.8702 -3.2204  1.0721
  722MOL0     H97438   5.448   3.641   5.353 -1.6815  1.4749  2.2800
  722MOL0     H97439   5.417   3.659   5.177 -0.8235  2.1749 -0.6783
  722MOL0     H97440   5.566   3.872   5.350  1.3272 -2.1256  1.3727
  722MOL0     H97441   5.498   3.892   5.183 -0.6288  1.1006  1.8157
  722MOL0     H97442   5.642   3.715   5.099 -0.9369 -3.4744  1.2794
  722MOL0     H97443   5.684   3.657   5.257  1.9547 -3.2667 -3.7090
  722MOL0     H97444   5.758   3.923   5.140  0.4282 -1.8307 -2.4639
  722MOL0     H97445   5.794   3.875   5.310 -1.6928 -1.8126  0.6948
  722MOL0     H97446   5.894   3.659   5.170  1.2492  0.1343 -0.6794
  722MOL0     H97447   6.001   3.779   5.221 -1.5343 -2.4941  3.3864
  722MOL0     H97448   5.852   3.745   4.952 -1.5684  3.3878 -0.0151
  722MOL0     H97449   5.923   3.900   4.987  1.8609  0.0154 -0.9373
  722MOL0     H97450   4.898   3.955   5.365 -2.7026  0.9728  2.2203
  722MOL0     H97451   4.652   3.943   5.311 -0.8744 -0.7284 -3.4493
  722MOL0     H97452   4.267   3.794   5.206 -0.1484 -1.2178 -1.6624
  722MOL0     H97453   4.024   3.759   5.171  0.1205  2.3640  2.6599
  722MOL0     H97454   3.981   2.473   5.265 -1.5670  0.2396 -0.5472
  722MOL0     H97455   4.164   2.560   5.414  0.3608 -2.8209 -1.4113
  722MOL0     H97456   4.192   2.819   5.819  0.1974  1.2439 -0.5939
  722MOL0     H97457   4.361   2.968   5.943  0.8718 -2.8680  1.7258
  722MOL0     H97458   4.731   2.771   6.044 -0.8534 -0.6323  1.0182
  722MOL0     H97459   4.721   2.906   6.158  2.0312 -1.0258 -0.3643
  722MOL0     H97460   4.758   3.069   5.955 -0.8907 -0.9243 -0.7152
  722MOL0     H97461   4.776   2.924   5.854 -0.5104 -0.7640  0.4836
  722MOL0     H97462   4.946   2.941   6.109  2.0348  1.1112 -0.5688
  722MOL0     H97463   5.001   3.029   5.969  0.7694 -1.0984  1.3103
  722MOL0     H97464   4.974   2.733   5.991 -1.6556  0.1959 -0.5340
  722MOL0     H97465   4.972   2.819   5.822  0.2750  2.9151 -0.4024
  722MOL0     H97466   5.354   2.878   5.934  0.4176  0.0659  0.3615
  722MOL0     H97467   4.664   2.667   5.867 -1.3525 -1.6316 -0.4050
  722MOL0     H97468   4.533   2.420   5.754  0.1335 -1.8049 -1.0396
  722MOL0     H97469   4.494   2.497   5.608 -1.6128 -0.8135  1.4300
  722MOL0     H97470   4.655   2.518   5.677 -0.9132  0.3036 -1.2553
  723MOL0     O97471   2.485   8.890   7.196 -0.2427 -0.0985  0.7886
  723MOL0     C97472   2.532   8.827   7.099 -0.5857 -0.0877 -0.3544
  723MOL0     O97473   2.644   8.864   7.039  0.4474  0.1443 -0.0844
  723MOL0     C97474   2.715   8.972   7.077 -0.3033  0.0516 -0.3112
  723MOL0     C97475   2.856   8.961   7.067 -0.1010 -0.8815  0.1885
  723MOL0     C97476   2.925   9.076   7.093  0.5856 -1.0679  0.1271
  723MOL0     C97477   2.866   9.200   7.137  0.5888 -0.5788  0.4205
  723MOL0     O97478   2.955   9.310   7.142 -0.2486  0.1437  0.6838
  723MOL0     C97479   2.909   9.427   7.216 -0.4264 -0.1682  0.7613
  723MOL0     C97480   2.892   9.389   7.361 -0.6573 -0.5215 -1.0003
  723MOL0     C97481   2.816   9.492   7.439 -0.2814 -0.3246 -0.2328
  723MOL0     C97482   2.879   9.631   7.422 -0.2771  0.0144  0.3506
  723MOL0     C97483   2.812   9.744   7.500 -0.3486 -0.4310  0.3652
  723MOL0     C97484   2.667   9.743   7.467 -0.1824 -0.0004  0.7871
  723MOL0     C97485   2.599   9.867   7.526 -1.1366 -0.0511 -0.3847
  723MOL0     C97486   2.468   9.891   7.460 -0.0889  0.6778  0.0170
  723MOL0     N97487   2.488   9.964   7.331 -0.0497 -0.0119 -0.1677
  723MOL0     C97488   2.545  10.090   7.320  0.2970 -0.1573 -0.2168
  723MOL0     C97489   2.587  10.105   7.187  0.1731  0.0246 -0.6015
  723MOL0     C97490   2.657  10.214   7.124  0.1702 -0.2911 -0.4851
  723MOL0     C97491   2.810  10.187   7.097 -0.2209 -0.3182 -0.1914
  723MOL0     C97492   2.888  10.149   7.231  0.1847 -0.5651 -0.1498
  723MOL0     C97493   3.040  10.143   7.196  0.1968  0.2157 -0.2057
  723MOL0     O97494   3.103  10.102   7.325  1.1982  0.0445  0.3079
  723MOL0     C97495   3.233  10.123   7.338  0.5705 -0.0342 -0.5338
  723MOL0     C97496   3.277  10.207   7.437  0.4758 -0.0215  0.0743
  723MOL0     C97497   3.413  10.212   7.474 -0.1936 -0.2673 -0.0848
  723MOL0     C97498   3.505  10.142   7.399  0.1703 -0.3275 -0.1795
  723MOL0     C97499   3.648  10.157   7.422 -0.0034  1.2087 -0.2957
  723MOL0     O97500   3.680  10.246   7.527 -0.7054  0.0148 -0.0047
  723MOL0     C97501   3.805  10.274   7.573 -1.8471  0.2586  0.3601
  723MOL0     C97502   3.909  10.184   7.566 -0.8356  1.2273 -0.4560
  723MOL0     C97503   4.032  10.230   7.608 -0.0757  0.6412  0.5665
  723MOL0     C97504   4.053  10.352   7.670 -0.5524 -0.1179  0.6482
  723MOL0     O97505   4.184  10.384   7.704 -0.0378 -0.3330 -0.2237
  723MOL0     C97506   4.217  10.527   7.720 -0.3092 -0.2847  0.0183
  723MOL0     C97507   4.367  10.542   7.728  0.3247 -0.5166  0.2889
  723MOL0     C97508   4.428  10.552   7.590  0.0968 -0.6194 -0.0763
  723MOL0     C97509   4.470  10.698   7.560 -0.9539 -0.7464  0.1837
  723MOL0     C97510   4.560  10.699   7.424  0.1561  0.5384  0.4501
  723MOL0     C97511   4.475  10.712   7.298 -0.1364 -0.4719  0.0160
  723MOL0     C97512   4.562  10.756   7.178 -0.5093  0.0148 -0.0625
  723MOL0     C97513   4.670  10.665   7.128 -0.2573  0.7720  0.8631
  723MOL0    Cl97514   4.715  10.746   6.972 -0.2497  0.0473 -0.1366
  723MOL0     C97515   3.944  10.433   7.694  0.0356  0.1365 -0.4871
  723MOL0     C97516   3.821  10.390   7.645  1.3180  0.1264 -0.4045
  723MOL0     O97517   3.727  10.089   7.360 -0.3665  0.1440 -0.6348
  723MOL0     C97518   3.459  10.052   7.292  0.1696  0.5054  0.1640
  723MOL0     C97519   3.323  10.049   7.263  0.6577  0.0344  0.5194
  723MOL0     N97520   2.557   9.985   7.120  0.1395  0.3775  0.6585
  723MOL0     N97521   2.498   9.908   7.209 -0.6895 -0.1429  0.2262
  723MOL0     C97522   2.725   9.206   7.142 -0.9976 -0.4751 -0.2105
  723MOL0     C97523   2.649   9.097   7.102  0.1529 -0.4832  0.7791
  723MOL0     C97524   2.462   8.706   7.063 -0.2306  0.1065  0.0963
  723MOL0     C97525   2.529   8.580   7.074 -0.6246  0.5036  0.2127
  723MOL0     C97526   2.466   8.465   7.036 -0.2668  0.4191  0.0642
  723MOL0     C97527   2.338   8.459   6.980 -0.8650 -0.9702  0.0132
  723MOL0     O97528   2.273   8.357   6.912 -0.1860 -0.0889 -0.1080
  723MOL0     C97529   2.363   8.281   6.825 -0.8559  0.4242  0.3659
  723MOL0     C97530   2.282   8.173   6.755 -0.5177 -0.9568  0.6230
  723MOL0     C97531   2.172   8.115   6.841 -0.1899  0.4189  0.2881
  723MOL0     C97532   2.123   7.992   6.773  0.0767 -0.2141 -0.2515
  723MOL0     C97533   2.017   8.025   6.676 -0.5285 -0.6614  0.7706
  723MOL0     C97534   1.936   8.065   6.593 -0.4165 -1.4642  0.2418
  723MOL0     C97535   2.268   8.581   6.980  0.7741 -0.2750  0.5986
  723MOL0     C97536   2.328   8.703   7.022  0.4792 -0.0377 -0.0358
  723MOL0     C97537   2.233   8.821   7.018  0.5713  0.0146 -0.2386
  723MOL0     H97538   2.904   8.877   7.018  0.3032  0.6940 -2.2866
  723MOL0     H97539   3.029   9.071   7.062  0.4044 -2.9797 -0.3156
  723MOL0     H97540   2.979   9.508   7.193  0.2490 -1.5330 -2.7581
  723MOL0     H97541   2.813   9.466   7.180 -1.7998 -3.1239  0.9220
  723MOL0     H97542   2.991   9.378   7.404 -1.2799  1.2354  1.1012
  723MOL0     H97543   2.837   9.296   7.378 -2.3112  0.3402 -1.4353
  723MOL0     H97544   2.807   9.460   7.543  0.5864 -0.0537 -0.0663
  723MOL0     H97545   2.716   9.503   7.396 -0.3163  2.2794  0.3329
  723MOL0     H97546   2.985   9.631   7.446 -0.6798  0.0093  2.2693
  723MOL0     H97547   2.873   9.659   7.316  0.9454 -1.1091 -0.0482
  723MOL0     H97548   2.821   9.726   7.608  1.1334  0.1120  0.3561
  723MOL0     H97549   2.857   9.841   7.478 -1.4637 -0.0264 -0.1928
  723MOL0     H97550   2.656   9.743   7.358 -2.7377 -2.3713  0.9149
  723MOL0     H97551   2.609   9.660   7.509 -0.4566 -0.9210 -1.2680
  723MOL0     H97552   2.667   9.952   7.536  2.2091 -2.0359 -3.4790
  723MOL0     H97553   2.576   9.837   7.628 -0.6507 -0.2016 -0.3160
  723MOL0     H97554   2.418   9.796   7.442 -0.9658  0.9481  0.9324
  723MOL0     H97555   2.393   9.936   7.525 -2.4468  0.2374 -2.2324
  723MOL0     H97556   2.536  10.161   7.401  0.5767 -2.6065  2.0896
  723MOL0     H97557   2.613  10.224   7.025  1.5012  2.3099 -0.9076
  723MOL0     H97558   2.639  10.303   7.185  0.4845 -0.8229  0.4006
  723MOL0     H97559   2.811  10.110   7.020 -0.5423 -1.0922  0.5599
  723MOL0     H97560   2.854  10.282   7.065 -1.1807  0.2896  0.2441
  723MOL0     H97561   2.852  10.049   7.257  1.7155 -0.7048  1.6658
  723MOL0     H97562   2.859  10.219   7.310 -2.1054 -0.6497 -0.8640
  723MOL0     H97563   3.068  10.239   7.152 -1.7098  0.7601 -0.3164
  723MOL0     H97564   3.047  10.067   7.118 -1.3166 -0.7746  0.5848
  723MOL0     H97565   3.200  10.262   7.492 -0.5187 -2.3854  1.1778
  723MOL0     H97566   3.446  10.282   7.550 -3.7554  1.3942  0.1561
  723MOL0     H97567   3.895  10.082   7.531  5.0785 -0.5236  1.1667
  723MOL0     H97568   4.114  10.162   7.588 -1.3896 -0.6992 -0.4573
  723MOL0     H97569   4.181  10.590   7.638 -2.5935 -2.4477 -0.7739
  723MOL0     H97570   4.156  10.567   7.801 -0.8075 -0.4988 -0.2426
  723MOL0     H97571   4.387  10.631   7.789  0.3410  0.2567 -0.8177
  723MOL0     H97572   4.410  10.454   7.777  0.6441 -1.1297 -1.0529
  723MOL0     H97573   4.512  10.482   7.585  1.4303  0.8931  0.1157
  723MOL0     H97574   4.361  10.513   7.512  0.6293 -2.7407  0.4668
  723MOL0     H97575   4.525  10.740   7.644 -1.4346  0.4177 -0.0637
  723MOL0     H97576   4.379  10.757   7.548 -0.6931 -0.7832 -3.0834
  723MOL0     H97577   4.625  10.612   7.412 -0.2849  0.3669 -0.9103
  723MOL0     H97578   4.619  10.791   7.423 -1.0012  1.3057  0.4440
  723MOL0     H97579   4.419  10.622   7.275 -0.4822  0.2828 -2.3728
  723MOL0     H97580   4.407  10.795   7.318  2.8097  2.1273  0.0786
  723MOL0     H97581   4.602  10.855   7.199  0.3158 -0.5745  1.2850
  723MOL0     H97582   4.484  10.765   7.101  0.4728 -0.5693 -1.1499
  723MOL0     H97583   4.751  10.645   7.198 -0.8411 -0.7719  1.1458
  723MOL0     H97584   4.618  10.571   7.109 -0.2556  0.5720  1.8130
  723MOL0     H97585   3.958  10.523   7.754 -0.6969  0.0713 -0.2164
  723MOL0     H97586   3.728  10.442   7.664  0.4297 -0.2608 -3.1943
  723MOL0     H97587   3.530   9.996   7.232  0.6095  0.9536  0.2563
  723MOL0     H97588   3.282   9.988   7.183  2.2034 -1.2178  0.6325
  723MOL0     H97589   2.679   9.301   7.170 -3.2235 -1.2232 -1.0816
  723MOL0     H97590   2.544   9.117   7.087  0.2242 -1.1749 -0.9170
  723MOL0     H97591   2.631   8.573   7.111 -0.3201 -3.3995 -0.9198
  723MOL0     H97592   2.520   8.372   7.042 -1.1642 -0.0366  1.6284
  723MOL0     H97593   2.440   8.228   6.883 -1.7078 -0.0873  1.0529
  723MOL0     H97594   2.406   8.350   6.753 -0.5491 -1.2018 -1.0685
  723MOL0     H97595   2.347   8.099   6.706  0.6665  0.0899  0.5831
  723MOL0     H97596   2.230   8.221   6.672  2.2462  0.6744 -0.2749
  723MOL0     H97597   2.090   8.187   6.853 -1.6011 -1.1440  0.3415
  723MOL0     H97598   2.228   8.086   6.930  0.2305 -2.6029 -0.8418
  723MOL0     H97599   2.204   7.933   6.730 -0.4585 -0.9604 -0.2658
  723MOL0     H97600   2.092   7.922   6.851  3.9154 -1.4314  0.3795
  723MOL0     H97601   1.855   8.096   6.530  1.0293 -2.2345 -2.1434
  723MOL0     H97602   2.165   8.575   6.944  0.7334 -1.6698  0.8801
  723MOL0     H97603   2.257   8.892   7.097 -1.3250 -0.3695  0.7473
  723MOL0     H97604   2.219   8.863   6.918 -0.2479  0.0364 -0.1209
  723MOL0     H97605   2.129   8.790   7.035  0.8315 -0.3845  0.7110
  724MOL0     O97606   8.832   8.522   4.680 -0.1544  0.1600 -0.2192
  724MOL0     C97607   8.811   8.420   4.746 -0.0484 -0.0179  0.2482
  724MOL0     O97608   8.884   8.375   4.849 -0.0567 -0.2082 -0.8253
  724MOL0     C97609   9.008   8.435   4.860 -0.0778  0.9795 -0.7282
  724MOL0     C97610   9.113   8.367   4.820 -0.4971  0.3171 -0.0767
  724MOL0     C97611   9.248   8.405   4.852  0.3055 -0.3724 -0.1442
  724MOL0     C97612   9.266   8.521   4.923  0.5751  0.0905 -0.1554
  724MOL0     O97613   9.386   8.549   4.978  0.4839 -0.5861 -0.2637
  724MOL0     C97614   9.483   8.446   5.013  0.0993 -1.0616 -0.6539
  724MOL0     C97615   9.583   8.535   5.079  0.2138 -0.9086  0.4977
  724MOL0     C97616   9.690   8.455   5.152  0.4660  0.3180 -0.2241
  724MOL0     C97617   9.821   8.538   5.182 -0.7942  0.4054 -0.6157
  724MOL0     C97618   9.938   8.453   5.236 -0.9572 -0.4686 -0.0839
  724MOL0     C97619  10.070   8.538   5.245  0.0843  0.0547 -0.1156
  724MOL0     C97620  10.192   8.472   5.300 -0.0981 -0.4264 -0.2758
  724MOL0     C97621  10.186   8.462   5.456  1.3011  0.1820  0.0826
  724MOL0     N97622  10.316   8.414   5.508 -0.0993 -0.5052  0.5436
  724MOL0     C97623  10.445   8.449   5.464  1.3743 -0.4938  0.3818
  724MOL0     C97624  10.537   8.356   5.510 -0.2427  0.0905  0.1935
  724MOL0     C97625  10.685   8.355   5.477  0.6635 -0.2248 -0.4355
  724MOL0     C97626  10.755   8.227   5.513  0.7004 -0.4708 -0.1920
  724MOL0     C97627  10.900   8.223   5.469  0.3677  0.0503 -1.3100
  724MOL0     C97628  10.993   8.340   5.515 -0.6014 -0.7635  0.4457
  724MOL0     O97629  11.124   8.289   5.502  0.1536 -0.9518 -0.3136
  724MOL0     C97630  11.224   8.383   5.526 -0.4304 -0.5387  0.2806
  724MOL0     C97631  11.208   8.519   5.565 -0.4607  0.9914  0.4719
  724MOL0     C97632  11.319   8.601   5.575 -0.4303 -0.3424  0.3014
  724MOL0     C97633  11.450   8.559   5.561  0.5518 -0.6927 -0.9321
  724MOL0     C97634  11.561   8.652   5.582  0.3299  0.3599 -0.1029
  724MOL0     O97635  11.541   8.767   5.649  0.4314  0.2009 -0.1536
  724MOL0     C97636  11.647   8.846   5.676 -1.0112 -0.0327 -0.1689
  724MOL0     C97637  11.663   8.942   5.585  0.1013 -0.3148 -0.8021
  724MOL0     C97638  11.758   9.045   5.590 -0.0810  0.0303 -0.5877
  724MOL0     C97639  11.844   9.054   5.699  0.2628  0.1862  0.3194
  724MOL0     O97640  11.936   9.151   5.735 -0.0590 -0.6307 -0.5881
  724MOL0     C97641  11.912   9.283   5.693 -0.1395  0.2526  0.1933
  724MOL0     C97642  11.986   9.373   5.796 -0.4878 -0.1782 -0.2859
  724MOL0     C97643  11.939   9.519   5.775  0.1964 -0.6657  0.0248
  724MOL0     C97644  12.006   9.626   5.862  0.6463 -0.0698  0.7086
  724MOL0     C97645  11.917   9.753   5.876  0.3884 -0.8535 -0.0026
  724MOL0     C97646  11.996   9.866   5.950 -0.2556  0.3038  0.3764
  724MOL0     C97647  11.993   9.837   6.105  0.3480 -0.4628  0.3449
  724MOL0     C97648  12.085   9.929   6.176  0.6448 -0.0214 -0.2630
  724MOL0    Cl97649  12.066  10.107   6.132  0.0918 -0.0771  0.0155
  724MOL0     C97650  11.835   8.942   5.790 -0.1015  0.9017  1.1338
  724MOL0     C97651  11.735   8.848   5.785 -0.2469  0.3561 -0.8693
  724MOL0     O97652  11.669   8.613   5.535  0.0334  0.0516  0.4249
  724MOL0     C97653  11.468   8.425   5.522  0.7722  0.1169  0.3375
  724MOL0     C97654  11.352   8.345   5.500  0.0925  0.5188 -0.5241
  724MOL0     N97655  10.458   8.264   5.583 -0.1232 -0.6187  0.4155
  724MOL0     N97656  10.329   8.300   5.575 -0.7919 -0.1792 -0.3391
  724MOL0     C97657   9.153   8.596   4.960  0.2002 -0.1322 -0.0533
  724MOL0     C97658   9.025   8.550   4.929 -0.2047  0.1890  0.3309
  724MOL0     C97659   8.687   8.354   4.703  0.6176  0.9654  0.9093
  724MOL0     C97660   8.651   8.358   4.563  0.6384 -0.7978 -0.3712
  724MOL0     C97661   8.527   8.314   4.524  0.5580  0.7394  0.3224
  724MOL0     C97662   8.436   8.260   4.616 -0.4568 -0.0171 -0.6255
  724MOL0     O97663   8.313   8.215   4.578 -0.1215 -0.4693  0.3301
  724MOL0     C97664   8.272   8.083   4.615 -0.0276  0.6084 -0.2769
  724MOL0     C97665   8.143   8.044   4.543  0.4714 -0.0962  0.1093
  724MOL0     C97666   8.012   8.111   4.577  0.3544 -0.2837  0.6592
  724MOL0     C97667   7.914   8.051   4.473  0.4482 -0.7992  0.5980
  724MOL0     C97668   7.877   7.911   4.493  0.3204  0.7609  0.0057
  724MOL0     C97669   7.866   7.789   4.509 -0.0331  0.2405  0.6435
  724MOL0     C97670   8.480   8.236   4.745  0.2198 -0.0285  0.6264
  724MOL0     C97671   8.605   8.282   4.794 -0.2649 -0.8713 -0.9030
  724MOL0     C97672   8.627   8.278   4.944 -0.4697 -0.5453  0.4699
  724MOL0     H97673   9.091   8.265   4.790  3.3500 -0.7861  0.2747
  724MOL0     H97674   9.336   8.345   4.831 -1.0481 -2.4759 -0.1332
  724MOL0     H97675   9.450   8.368   5.082  0.3564 -0.0681  0.6276
  724MOL0     H97676   9.524   8.400   4.923 -0.8971 -1.8741 -0.7033
  724MOL0     H97677   9.533   8.607   5.145  2.2408 -0.4561  1.6344
  724MOL0     H97678   9.633   8.585   4.996 -0.3430 -3.2395 -1.3415
  724MOL0     H97679   9.718   8.374   5.084 -0.5382 -0.8558  0.7183
  724MOL0     H97680   9.646   8.414   5.243 -1.1444  1.5622 -0.3788
  724MOL0     H97681   9.858   8.567   5.083  1.8915  0.0689  0.1909
  724MOL0     H97682   9.801   8.631   5.237 -1.1218  0.3178 -0.5890
  724MOL0     H97683   9.909   8.421   5.337 -0.8622  3.2541  1.2534
  724MOL0     H97684   9.949   8.365   5.171 -0.6608  0.3351 -1.1598
  724MOL0     H97685  10.091   8.590   5.151 -0.9369 -0.7076 -0.7971
  724MOL0     H97686  10.048   8.616   5.319  1.6020 -1.9820  2.6423
  724MOL0     H97687  10.272   8.529   5.253  0.3752 -1.7463 -1.1196
  724MOL0     H97688  10.191   8.367   5.269  1.5538 -0.3194 -0.7702
  724MOL0     H97689  10.164   8.564   5.491 -0.7952  0.1781 -1.0684
  724MOL0     H97690  10.105   8.392   5.479 -0.8649  0.8900 -4.2465
  724MOL0     H97691  10.465   8.532   5.397 -1.0105 -0.0491  0.1488
  724MOL0     H97692  10.708   8.371   5.372  1.0984 -2.1033 -0.6553
  724MOL0     H97693  10.733   8.441   5.526  1.1607 -1.5675  1.5315
  724MOL0     H97694  10.757   8.226   5.622  0.2653 -0.1162 -0.1776
  724MOL0     H97695  10.699   8.142   5.471  1.5146 -1.0442 -0.1224
  724MOL0     H97696  10.908   8.199   5.363  1.1118 -1.2434 -0.9853
  724MOL0     H97697  10.928   8.131   5.521 -0.2764  1.5794  2.0661
  724MOL0     H97698  10.965   8.382   5.612  0.8814  1.1770  0.0799
  724MOL0     H97699  10.975   8.420   5.443 -0.7264 -0.3636  0.9166
  724MOL0     H97700  11.114   8.567   5.588 -0.2712  1.8508 -0.4541
  724MOL0     H97701  11.304   8.702   5.611 -0.7899  0.0982 -1.0335
  724MOL0     H97702  11.589   8.948   5.505 -0.3485 -0.7213 -0.4222
  724MOL0     H97703  11.759   9.126   5.517 -0.5630 -0.0712 -0.7087
  724MOL0     H97704  11.956   9.295   5.594  1.6598 -0.0488  0.9110
  724MOL0     H97705  11.806   9.312   5.694 -0.3795 -0.5113  2.0466
  724MOL0     H97706  11.956   9.340   5.896 -1.2278 -1.0024 -0.7646
  724MOL0     H97707  12.094   9.359   5.784 -0.1935  0.8379  0.9464
  724MOL0     H97708  11.948   9.544   5.669 -0.7460 -0.4460 -0.0077
  724MOL0     H97709  11.832   9.522   5.799 -0.0749  1.2717 -1.1919
  724MOL0     H97710  12.101   9.650   5.814 -1.4251  3.6430 -2.1604
  724MOL0     H97711  12.014   9.583   5.962 -1.4901  2.1148  1.9342
  724MOL0     H97712  11.816   9.742   5.916  1.0842 -1.2738  1.7379
  724MOL0     H97713  11.905   9.785   5.772  2.6044  2.1872  0.5061
  724MOL0     H97714  12.100   9.877   5.916  0.1890  2.8660  2.2607
  724MOL0     H97715  11.948   9.961   5.929 -1.9844  0.2660  3.5262
  724MOL0     H97716  12.019   9.734   6.133  0.4324 -0.7498 -0.7347
  724MOL0     H97717  11.886   9.853   6.118  0.5079  0.4917  0.5098
  724MOL0     H97718  12.072   9.911   6.283  0.5262 -2.3621 -0.6121
  724MOL0     H97719  12.188   9.898   6.155  0.4772 -2.7061  2.2659
  724MOL0     H97720  11.907   8.932   5.872 -1.5820 -3.1469  2.1911
  724MOL0     H97721  11.725   8.779   5.869 -0.3092  2.1155  0.6356
  724MOL0     H97722  11.568   8.384   5.505  2.0189  3.2569 -0.5870
  724MOL0     H97723  11.353   8.246   5.456  0.4641 -0.5868  1.8171
  724MOL0     H97724   9.162   8.682   5.026 -0.4922 -0.8971  1.0530
  724MOL0     H97725   8.943   8.614   4.959 -0.9328  0.3291 -1.7644
  724MOL0     H97726   8.697   8.409   4.478  0.0406 -2.4684 -1.7722
  724MOL0     H97727   8.499   8.326   4.420  2.6899  0.3854 -0.3518
  724MOL0     H97728   8.260   8.073   4.723  4.6474 -1.9138  0.2925
  724MOL0     H97729   8.355   8.016   4.591 -0.5356  0.0933 -0.6048
  724MOL0     H97730   8.133   7.935   4.550 -1.4347 -0.2067 -2.7709
  724MOL0     H97731   8.158   8.058   4.435 -0.2525  0.1977  0.0399
  724MOL0     H97732   8.021   8.219   4.566 -0.8521 -0.1823  0.5321
  724MOL0     H97733   7.965   8.093   4.674  1.0822  1.5714  1.3956
  724MOL0     H97734   7.820   8.107   4.478  0.0686 -1.4864  1.1650
  724MOL0     H97735   7.963   8.063   4.376 -0.6500 -1.0605  0.0002
  724MOL0     H97736   7.856   7.682   4.511 -0.8052  0.3111  2.7835
  724MOL0     H97737   8.408   8.197   4.816 -0.3637  1.1684  0.7236
  724MOL0     H97738   8.532   8.273   4.998  0.2556 -2.0435  1.6854
  724MOL0     H97739   8.693   8.198   4.976  2.2138  1.6273  0.7271
  724MOL0     H97740   8.677   8.369   4.979 -0.7509 -1.1939  2.6849
  725MOL0     O97741   4.949   3.119   8.769  0.0441  0.0516 -0.4522
  725MOL0     C97742   4.847   3.097   8.831  0.8450 -0.4442 -0.6425
  725MOL0     O97743   4.849   3.049   8.963  0.4901  0.7792  0.1981
  725MOL0     C97744   4.971   3.016   9.014  0.2767 -0.8817  0.1535
  725MOL0     C97745   5.021   3.106   9.113 -0.2432  0.0647 -0.5437
  725MOL0     C97746   5.137   3.078   9.185  0.0936  0.6076 -0.3570
  725MOL0     C97747   5.207   2.956   9.151  0.6314  1.0076 -0.1877
  725MOL0     O97748   5.328   2.926   9.211  0.1482  0.0047  0.5215
  725MOL0     C97749   5.384   3.021   9.306 -0.8725 -0.5518 -0.0079
  725MOL0     C97750   5.542   3.009   9.314 -0.1699  0.0472  0.0668
  725MOL0     C97751   5.612   3.131   9.379 -0.1048 -0.1833  0.3195
  725MOL0     C97752   5.760   3.110   9.412 -0.1526 -0.1610  0.2400
  725MOL0     C97753   5.830   3.231   9.476  0.9146 -0.0160  0.1300
  725MOL0     C97754   5.974   3.181   9.491  0.2086 -0.3935 -1.0083
  725MOL0     C97755   6.064   3.291   9.563 -0.1813  0.3718  0.9988
  725MOL0     C97756   6.089   3.407   9.468  0.2136 -1.2344 -0.0506
  725MOL0     N97757   6.162   3.522   9.541  0.4767  0.8468  0.7682
  725MOL0     C97758   6.275   3.511   9.615  0.5955 -0.6181  0.2345
  725MOL0     C97759   6.305   3.634   9.660  0.7320  0.0284 -0.2175
  725MOL0     C97760   6.412   3.686   9.738 -0.3346  0.6711 -0.0546
  725MOL0     C97761   6.433   3.637   9.884  0.0703  0.8345  0.0568
  725MOL0     C97762   6.532   3.736   9.948  0.3374  0.3103  0.2367
  725MOL0     C97763   6.669   3.745   9.883  0.0408 -0.0445 -0.1620
  725MOL0     O97764   6.729   3.611   9.852  0.2462 -0.4876  0.4160
  725MOL0     C97765   6.837   3.603   9.767 -0.7798 -0.1081  0.4604
  725MOL0     C97766   6.928   3.712   9.753  0.3876  1.2698 -0.4029
  725MOL0     C97767   7.042   3.702   9.672  0.4776 -0.7695  0.0127
  725MOL0     C97768   7.066   3.592   9.589 -0.2859 -0.2841 -0.9457
  725MOL0     C97769   7.187   3.583   9.503 -0.3196 -0.0339  0.1702
  725MOL0     O97770   7.260   3.696   9.481  0.2787 -0.0119 -0.6369
  725MOL0     C97771   7.376   3.693   9.409 -0.0736 -0.4385  0.4820
  725MOL0     C97772   7.395   3.802   9.315 -0.6431  0.3838  0.2632
  725MOL0     C97773   7.499   3.800   9.227 -0.1270  0.5119 -0.2683
  725MOL0     C97774   7.611   3.713   9.243  0.1625  0.0407 -0.3650
  725MOL0     O97775   7.729   3.713   9.174  0.1813  0.0142  0.2378
  725MOL0     C97776   7.754   3.826   9.081  0.4376 -0.2749 -0.3122
  725MOL0     C97777   7.876   3.774   9.002 -0.6370  0.3441  0.2551
  725MOL0     C97778   7.887   3.857   8.870  0.0628  0.0036  0.6239
  725MOL0     C97779   8.000   3.819   8.770  0.7252 -0.2181  1.0054
  725MOL0     C97780   8.134   3.869   8.807 -1.2193 -0.5214  0.0541
  725MOL0     C97781   8.144   4.021   8.799  0.1451 -0.4988 -0.9769
  725MOL0     C97782   8.286   4.065   8.798  0.3111  0.1196  0.2815
  725MOL0     C97783   8.347   4.080   8.936 -0.0904 -0.6875  0.3965
  725MOL0    Cl97784   8.497   4.165   8.935 -0.2168  0.3129 -0.0348
  725MOL0     C97785   7.598   3.619   9.345  0.3193 -0.3284 -0.6290
  725MOL0     C97786   7.487   3.604   9.427  0.3453  0.0459  0.4850
  725MOL0     O97787   7.192   3.484   9.432  0.2322  0.2969  0.2915
  725MOL0     C97788   6.977   3.477   9.606 -0.3444 -0.3017  0.1196
  725MOL0     C97789   6.871   3.481   9.704 -0.4219 -0.0817 -0.3771
  725MOL0     N97790   6.215   3.725   9.601  0.7407 -0.6834 -0.3227
  725MOL0     N97791   6.130   3.656   9.532 -0.0481  0.3627 -0.4995
  725MOL0     C97792   5.159   2.875   9.048 -0.1364  0.5095 -0.4598
  725MOL0     C97793   5.040   2.904   8.976  0.3449 -0.2056 -0.0275
  725MOL0     C97794   4.715   3.141   8.776  0.6003  0.0875  0.4704
  725MOL0     C97795   4.612   3.153   8.872  0.7478  0.0502 -0.5500
  725MOL0     C97796   4.482   3.208   8.844 -0.1645  1.5273 -0.2437
  725MOL0     C97797   4.450   3.239   8.708  0.1563  0.0615  0.5086
  725MOL0     O97798   4.328   3.277   8.663  0.9557  0.0607  0.1462
  725MOL0     C97799   4.227   3.320   8.761  0.6707  0.3098  0.0429
  725MOL0     C97800   4.105   3.379   8.677 -0.1976  0.0819  0.2646
  725MOL0     C97801   4.019   3.486   8.759  1.0232 -0.3967  0.3888
  725MOL0     C97802   3.873   3.476   8.714  0.2023  1.1453 -0.0285
  725MOL0     C97803   3.817   3.336   8.742 -0.1874 -0.8329 -0.4257
  725MOL0     C97804   3.774   3.226   8.747 -0.7672  0.6045  0.6323
  725MOL0     C97805   4.552   3.219   8.610 -0.4804  0.9640  0.3928
  725MOL0     C97806   4.683   3.169   8.640 -0.4513  0.6142  0.3166
  725MOL0     C97807   4.782   3.161   8.527 -0.0594 -0.4639  0.5177
  725MOL0     H97808   4.955   3.189   9.134 -3.0115 -1.4629 -2.4833
  725MOL0     H97809   5.163   3.143   9.269 -2.1193  1.1187 -0.0080
  725MOL0     H97810   5.390   3.124   9.272  1.1537 -1.5276 -3.0981
  725MOL0     H97811   5.352   3.018   9.410  0.2377 -0.9779  0.3408
  725MOL0     H97812   5.581   3.003   9.212  0.0253  0.6884  0.0983
  725MOL0     H97813   5.571   2.919   9.368  2.4200  0.4191 -0.5796
  725MOL0     H97814   5.555   3.151   9.470 -2.8042 -0.5528 -1.1818
  725MOL0     H97815   5.597   3.216   9.311  2.8867 -0.2460 -0.5748
  725MOL0     H97816   5.765   3.022   9.477 -1.3790  0.7311  1.6144
  725MOL0     H97817   5.817   3.083   9.323  1.7782  1.3025  0.9689
  725MOL0     H97818   5.832   3.320   9.412  2.4729 -0.6309 -0.7463
  725MOL0     H97819   5.784   3.261   9.570  1.5935 -0.6408  0.6698
  725MOL0     H97820   5.992   3.095   9.556  2.3480  0.0332 -0.9537
  725MOL0     H97821   6.022   3.160   9.395 -0.0916  2.7018 -1.9504
  725MOL0     H97822   6.160   3.241   9.578 -1.0118 -1.4089  0.6223
  725MOL0     H97823   6.025   3.318   9.661 -1.2473  1.2425  0.3605
  725MOL0     H97824   6.143   3.382   9.376  1.2068  2.0029 -0.4900
  725MOL0     H97825   5.993   3.448   9.435 -0.5914 -0.4662  2.9029
  725MOL0     H97826   6.321   3.418   9.646  0.7061 -0.9234 -0.8269
  725MOL0     H97827   6.501   3.656   9.681 -1.0268  0.0572 -0.8309
  725MOL0     H97828   6.403   3.795   9.738  0.0992  0.7163 -0.9222
  725MOL0     H97829   6.339   3.638   9.941 -0.1757 -1.4855 -0.2192
  725MOL0     H97830   6.478   3.538   9.877 -0.0808  0.8730 -2.1650
  725MOL0     H97831   6.546   3.701  10.051 -1.9307  0.3685  0.6259
  725MOL0     H97832   6.487   3.833   9.970  0.9654  0.1949  2.2269
  725MOL0     H97833   6.731   3.803   9.952 -1.4836 -0.6755  1.8100
  725MOL0     H97834   6.666   3.804   9.790  0.8487  0.6750  0.2550
  725MOL0     H97835   6.915   3.799   9.817 -1.5660 -0.1214  1.2569
  725MOL0     H97836   7.110   3.786   9.663 -0.5914  0.0314 -0.9614
  725MOL0     H97837   7.314   3.870   9.289 -0.1837  0.1765 -1.9642
  725MOL0     H97838   7.485   3.875   9.150 -1.3506  0.2063 -0.3653
  725MOL0     H97839   7.670   3.836   9.011  1.2530  0.8637 -1.1698
  725MOL0     H97840   7.774   3.923   9.127 -1.2071 -0.2139  0.3627
  725MOL0     H97841   7.966   3.783   9.064 -0.8692  2.8272  0.3221
  725MOL0     H97842   7.861   3.668   8.977  0.2520  0.5275 -1.1391
  725MOL0     H97843   7.795   3.839   8.814  0.1839  1.8390 -0.2422
  725MOL0     H97844   7.895   3.963   8.896  2.2774  0.1706 -0.4712
  725MOL0     H97845   7.982   3.868   8.674  0.9541 -2.1419 -0.0812
  725MOL0     H97846   8.011   3.712   8.749  0.8229 -0.1415  0.6498
  725MOL0     H97847   8.203   3.824   8.735 -2.6799 -0.3940 -1.4785
  725MOL0     H97848   8.172   3.831   8.902  1.9194  0.7080 -0.6101
  725MOL0     H97849   8.106   4.042   8.699 -0.6742 -0.5805 -0.6915
  725MOL0     H97850   8.078   4.084   8.859  0.5043 -0.1077 -0.9908
  725MOL0     H97851   8.282   4.164   8.752 -1.5891  0.5747  1.3437
  725MOL0     H97852   8.340   3.990   8.740  0.0936 -0.2072  0.4954
  725MOL0     H97853   8.274   4.140   8.992  1.9836  1.4377  0.9718
  725MOL0     H97854   8.337   3.987   8.994 -2.8422 -1.1956 -0.7472
  725MOL0     H97855   7.674   3.544   9.364  0.8020  0.5161  0.9928
  725MOL0     H97856   7.470   3.537   9.512 -0.9427 -2.1183 -1.3599
  725MOL0     H97857   7.004   3.380   9.565  2.3045  0.8590 -1.1450
  725MOL0     H97858   6.806   3.397   9.725  1.2528 -1.8825 -1.9524
  725MOL0     H97859   5.206   2.779   9.026 -2.7177 -1.0862  0.6266
  725MOL0     H97860   5.017   2.843   8.890 -0.4702 -0.9167  0.6763
  725MOL0     H97861   4.631   3.122   8.974 -1.8890 -2.2909 -0.6508
  725MOL0     H97862   4.404   3.218   8.919  1.0366 -0.9590  1.4988
  725MOL0     H97863   4.262   3.388   8.839 -1.3704 -0.6581  1.8926
  725MOL0     H97864   4.200   3.237   8.826  0.6441  0.3471  0.0798
  725MOL0     H97865   4.045   3.296   8.639 -0.4603  0.0134  0.8020
  725MOL0     H97866   4.141   3.432   8.589  0.5422  1.8985  1.5966
  725MOL0     H97867   4.040   3.588   8.726 -4.0104  1.0683  0.9133
  725MOL0     H97868   4.036   3.477   8.866 -0.2956 -2.2366  0.4796
  725MOL0     H97869   3.817   3.562   8.750 -1.8828  0.6334 -1.8662
  725MOL0     H97870   3.867   3.491   8.606  0.1423 -2.2270 -0.6143
  725MOL0     H97871   3.752   3.122   8.751 -1.3923  0.7579  1.4046
  725MOL0     H97872   4.527   3.254   8.510  0.8449 -0.8433 -0.6249
  725MOL0     H97873   4.777   3.261   8.483 -2.3383 -1.1834 -1.0402
  725MOL0     H97874   4.884   3.125   8.543 -0.4138 -1.9073 -0.2189
  725MOL0     H97875   4.749   3.094   8.446  3.0495 -1.0700 -0.3835
  726MOL0     O97876   5.530   4.434   2.709 -0.0307 -0.3485  0.0903
  726MOL0     C97877   5.421   4.380   2.687  1.0693 -0.7985  0.2275
  726MOL0     O97878   5.328   4.432   2.604 -0.5881  0.0804  0.1075
  726MOL0     C97879   5.371   4.520   2.506  0.2883  0.6888  0.4308
  726MOL0     C97880   5.383   4.657   2.542  0.1093 -0.0960 -0.1973
  726MOL0     C97881   5.453   4.737   2.462 -0.0267 -0.5497  0.1325
  726MOL0     C97882   5.502   4.695   2.337 -0.1179  0.3048  0.3741
  726MOL0     O97883   5.570   4.779   2.245 -0.2608  0.3519 -0.4511
  726MOL0     C97884   5.670   4.858   2.303 -0.5529 -0.2496 -0.2971
  726MOL0     C97885   5.719   4.960   2.195  0.4051 -0.3556 -0.2021
  726MOL0     C97886   5.622   5.021   2.091  0.9005  0.9484  0.0822
  726MOL0     C97887   5.668   5.156   2.039  0.5774  0.2773 -0.4831
  726MOL0     C97888   5.593   5.210   1.920 -0.3815  0.4965 -0.6900
  726MOL0     C97889   5.649   5.350   1.900  0.0204 -0.5466  0.2489
  726MOL0     C97890   5.629   5.400   1.754  0.8951 -0.0991  0.1683
  726MOL0     C97891   5.653   5.552   1.729 -0.5736  0.2578  0.1783
  726MOL0     N97892   5.786   5.603   1.767 -0.2182 -0.1948  0.6958
  726MOL0     C97893   5.913   5.548   1.727  0.0821 -0.8201  0.4734
  726MOL0     C97894   5.989   5.642   1.778  0.2933  0.8661  0.2155
  726MOL0     C97895   6.137   5.656   1.749 -0.0412 -1.2458 -0.2315
  726MOL0     C97896   6.217   5.544   1.807  0.0577 -0.2215  0.1285
  726MOL0     C97897   6.257   5.429   1.717 -0.2063  0.2003 -0.0459
  726MOL0     C97898   6.305   5.304   1.787 -1.1123  0.0429 -0.4522
  726MOL0     O97899   6.371   5.217   1.693 -0.0817 -0.0710 -1.0811
  726MOL0     C97900   6.505   5.244   1.663  1.0697  0.2845  0.4745
  726MOL0     C97901   6.555   5.143   1.579 -0.3017  0.1049 -1.0963
  726MOL0     C97902   6.678   5.176   1.516 -0.4412 -0.2951  0.7465
  726MOL0     C97903   6.766   5.285   1.550 -1.0559 -0.2304 -0.6586
  726MOL0     C97904   6.901   5.297   1.480  0.4753 -0.0814  0.0201
  726MOL0     O97905   6.927   5.207   1.377 -1.0936  0.0928 -0.7347
  726MOL0     C97906   7.058   5.172   1.351  0.5122  0.7775 -0.6166
  726MOL0     C97907   7.163   5.184   1.450  0.0153 -0.4379 -0.6349
  726MOL0     C97908   7.293   5.141   1.421  0.1617  0.2613  0.0624
  726MOL0     C97909   7.324   5.091   1.295  0.3994 -0.1210 -0.0852
  726MOL0     O97910   7.450   5.057   1.252 -0.1092 -0.1857 -0.3660
  726MOL0     C97911   7.534   4.993   1.341  0.2964  0.0855 -0.2461
  726MOL0     C97912   7.632   4.909   1.254  0.2225  0.7133 -0.4206
  726MOL0     C97913   7.756   4.989   1.221 -0.1233  0.2819 -0.2382
  726MOL0     C97914   7.857   4.899   1.159  0.0408 -0.3141  0.4639
  726MOL0     C97915   7.985   4.981   1.143 -0.2557  0.4919  0.5904
  726MOL0     C97916   7.981   5.042   1.000  0.3102  0.7119 -1.0474
  726MOL0     C97917   8.101   5.142   0.971 -0.8650 -0.0985 -0.3268
  726MOL0     C97918   8.043   5.270   0.903  0.1994 -0.5954 -0.1622
  726MOL0    Cl97919   8.161   5.407   0.916  0.2900  0.2325 -0.1085
  726MOL0     C97920   7.222   5.087   1.200  0.2161  0.2189  0.0222
  726MOL0     C97921   7.086   5.122   1.222  0.6348 -0.0403  0.5975
  726MOL0     O97922   6.975   5.389   1.521  0.2414 -0.1543  0.2830
  726MOL0     C97923   6.714   5.374   1.645 -0.0562 -0.1470 -0.1360
  726MOL0     C97924   6.582   5.360   1.692  0.0487  0.1708  1.5952
  726MOL0     N97925   5.924   5.735   1.860 -0.6958  0.9901  0.0989
  726MOL0     N97926   5.798   5.709   1.855  0.1362 -0.0478  0.4386
  726MOL0     C97927   5.461   4.566   2.291  0.3857 -0.2251  1.0094
  726MOL0     C97928   5.397   4.480   2.386 -0.6484  0.1549 -0.0797
  726MOL0     C97929   5.387   4.263   2.773 -0.2646  0.3644  0.1447
  726MOL0     C97930   5.248   4.255   2.818  0.8500  0.8156 -0.3519
  726MOL0     C97931   5.211   4.131   2.893 -0.8781  1.4244 -0.1791
  726MOL0     C97932   5.308   4.025   2.922  0.6321 -0.4025 -0.5536
  726MOL0     O97933   5.291   3.901   2.973 -0.0882 -0.5636 -0.0709
  726MOL0     C97934   5.156   3.843   2.962 -0.7297 -0.0548  1.3115
  726MOL0     C97935   5.079   3.862   3.084 -0.6620 -0.3754  0.4696
  726MOL0     C97936   5.122   3.775   3.198  0.0539 -0.0097  0.1483
  726MOL0     C97937   5.054   3.830   3.322  0.1877  0.1833 -0.0348
  726MOL0     C97938   5.122   3.947   3.383  0.1339 -0.1988  0.2426
  726MOL0     C97939   5.187   4.041   3.438 -0.4092  0.8687  0.4791
  726MOL0     C97940   5.439   4.051   2.878 -0.0675  0.0874  0.3527
  726MOL0     C97941   5.475   4.160   2.809  0.0300  1.1219  0.1119
  726MOL0     C97942   5.624   4.161   2.757  0.0028 -1.2026  0.9989
  726MOL0     H97943   5.347   4.691   2.639  0.3426  0.1321 -0.1899
  726MOL0     H97944   5.457   4.843   2.488  0.6644 -0.8961  1.5254
  726MOL0     H97945   5.627   4.926   2.378  0.2904 -1.0802  0.9623
  726MOL0     H97946   5.760   4.807   2.336 -0.5425  0.8116  1.4034
  726MOL0     H97947   5.804   4.919   2.139  1.5566 -0.1660  1.3288
  726MOL0     H97948   5.764   5.051   2.236  3.4996 -1.8382 -0.0478
  726MOL0     H97949   5.526   5.051   2.134  0.9660  1.3248 -0.0259
  726MOL0     H97950   5.600   4.951   2.010  0.4418  0.7990  0.3381
  726MOL0     H97951   5.655   5.230   2.119  1.3960 -0.5525  0.4542
  726MOL0     H97952   5.775   5.160   2.016  0.6210  2.3851 -0.0956
  726MOL0     H97953   5.603   5.141   1.836 -2.9993 -1.7581  0.7041
  726MOL0     H97954   5.487   5.210   1.944  0.0918  0.0264  1.6934
  726MOL0     H97955   5.605   5.410   1.980 -3.3159 -0.6921 -1.2722
  726MOL0     H97956   5.758   5.345   1.911  0.0731  0.4006  0.2456
  726MOL0     H97957   5.527   5.390   1.716  1.2916 -0.2985 -0.8616
  726MOL0     H97958   5.678   5.336   1.681  0.3910  0.7709 -0.9603
  726MOL0     H97959   5.644   5.559   1.620  2.9837 -0.0702 -0.2699
  726MOL0     H97960   5.582   5.616   1.782 -0.2262  0.4145  0.4598
  726MOL0     H97961   5.952   5.482   1.650  2.0613  0.6403  0.1484
  726MOL0     H97962   6.148   5.668   1.641  0.1431  1.8503  0.0504
  726MOL0     H97963   6.175   5.750   1.790 -0.1640  0.1657 -3.1032
  726MOL0     H97964   6.312   5.587   1.842 -0.1424  1.4211 -1.2329
  726MOL0     H97965   6.163   5.495   1.888  1.7415 -3.7757 -0.7167
  726MOL0     H97966   6.325   5.467   1.640 -0.1802 -1.6775 -1.0006
  726MOL0     H97967   6.168   5.397   1.662  1.1377 -0.8850 -1.6964
  726MOL0     H97968   6.231   5.254   1.849 -0.8944  2.0079  1.5444
  726MOL0     H97969   6.380   5.337   1.860 -1.4950  0.1080 -0.0893
  726MOL0     H97970   6.497   5.052   1.564 -2.1852  1.3839 -1.9503
  726MOL0     H97971   6.703   5.115   1.430  1.5253  1.9919 -0.4086
  726MOL0     H97972   7.159   5.240   1.543  1.1664 -1.1571 -0.1397
  726MOL0     H97973   7.371   5.143   1.496  1.0080  0.9863 -0.8020
  726MOL0     H97974   7.590   5.057   1.410 -0.0389  0.6778 -0.5177
  726MOL0     H97975   7.489   4.916   1.405 -0.1422  1.0197  0.6105
  726MOL0     H97976   7.659   4.820   1.312  1.6611  0.8455 -0.8448
  726MOL0     H97977   7.592   4.869   1.160  0.1010 -1.2381  0.4142
  726MOL0     H97978   7.718   5.063   1.150 -0.2606 -2.7744 -3.6430
  726MOL0     H97979   7.802   5.026   1.313 -1.1713 -1.9651  1.2908
  726MOL0     H97980   7.810   4.876   1.063  0.1496 -0.0923  0.3573
  726MOL0     H97981   7.887   4.809   1.214  0.0392 -0.3157  0.4618
  726MOL0     H97982   8.070   4.912   1.147  0.2636  1.0142 -0.8306
  726MOL0     H97983   7.996   5.055   1.222 -2.2612  1.7556 -0.2503
  726MOL0     H97984   7.984   4.955   0.934 -1.1183 -0.0550 -0.1810
  726MOL0     H97985   7.885   5.095   0.994  1.0503  1.9908 -1.9058
  726MOL0     H97986   8.172   5.087   0.908 -0.0030  0.6386 -0.0204
  726MOL0     H97987   8.139   5.188   1.063 -1.8348  3.2804 -1.4657
  726MOL0     H97988   8.028   5.254   0.796 -3.1350 -0.5375  0.1758
  726MOL0     H97989   7.941   5.295   0.936 -0.2399 -1.6472 -0.6787
  726MOL0     H97990   7.249   5.050   1.102  3.6973  1.6352  0.3003
  726MOL0     H97991   7.005   5.108   1.152  0.1388 -1.8226  1.4752
  726MOL0     H97992   6.764   5.465   1.675 -1.8026  0.1364  2.1254
  726MOL0     H97993   6.535   5.437   1.753 -2.0879  1.2202 -1.1888
  726MOL0     H97994   5.489   4.538   2.190 -1.9363  1.4276 -0.1859
  726MOL0     H97995   5.382   4.380   2.347  0.8436 -0.9783  2.0357
  726MOL0     H97996   5.182   4.334   2.785  3.4712  3.4762  0.2857
  726MOL0     H97997   5.105   4.118   2.909 -0.7475  2.1910  1.4772
  726MOL0     H97998   5.169   3.735   2.957 -0.4352 -0.0232 -4.3998
  726MOL0     H97999   5.106   3.877   2.871 -0.1047 -4.2198 -0.7697
  726MOL0     H98000   4.975   3.834   3.064 -0.4300 -0.7556 -0.2222
  726MOL0     H98001   5.085   3.969   3.108  0.3639 -0.6598  1.5475
  726MOL0     H98002   5.230   3.780   3.212  0.4252 -0.9011 -2.0406
  726MOL0     H98003   5.097   3.670   3.179  0.5897  0.1406 -1.5364
  726MOL0     H98004   4.947   3.843   3.301 -0.1632  0.6944  1.8654
  726MOL0     H98005   5.048   3.752   3.399 -1.3260  0.6143  0.3288
  726MOL0     H98006   5.259   4.115   3.468  3.6474 -1.9598 -1.3154
  726MOL0     H98007   5.514   3.974   2.887 -1.7588 -1.7390 -0.4234
  726MOL0     H98008   5.679   4.252   2.783 -0.7557 -0.8173  1.2822
  726MOL0     H98009   5.687   4.074   2.778  2.3416 -0.8093 -3.2676
  726MOL0     H98010   5.622   4.166   2.648  2.4363  0.8682  0.9687
  727MOL0     O98011   6.751   5.816   5.029  0.3245  0.3810  0.4783
  727MOL0     C98012   6.645   5.868   5.072 -0.3688 -0.2584 -0.0158
  727MOL0     O98013   6.612   5.995   5.052 -0.1718 -0.3106 -0.6507
  727MOL0     C98014   6.711   6.074   5.003 -0.0565 -0.6414 -1.2010
  727MOL0     C98015   6.692   6.156   4.893  0.3754  0.2341 -0.3068
  727MOL0     C98016   6.788   6.246   4.846 -0.2805 -0.3006 -0.4406
  727MOL0     C98017   6.907   6.255   4.919 -0.4854 -0.3553 -0.0837
  727MOL0     O98018   7.014   6.340   4.885 -0.2711 -0.1678  0.4070
  727MOL0     C98019   7.023   6.387   4.747 -0.1185  0.7624 -0.7968
  727MOL0     C98020   7.171   6.431   4.729 -0.2968  0.0365  0.3127
  727MOL0     C98021   7.230   6.392   4.586  0.1133  0.2445  0.5727
  727MOL0     C98022   7.381   6.407   4.589 -0.4731 -0.4814  0.2065
  727MOL0     C98023   7.453   6.353   4.472 -0.2453 -0.6194  0.4608
  727MOL0     C98024   7.605   6.370   4.474 -0.0765  0.3915  0.0235
  727MOL0     C98025   7.671   6.325   4.341 -0.1912 -0.9357  0.1183
  727MOL0     C98026   7.824   6.340   4.339 -0.2915  1.1567 -0.6269
  727MOL0     N98027   7.873   6.478   4.362  0.3393 -0.4810 -0.4208
  727MOL0     C98028   7.949   6.513   4.470  0.3658  0.0772 -0.0954
  727MOL0     C98029   8.006   6.630   4.437  0.6308  0.0917  0.3593
  727MOL0     C98030   8.103   6.709   4.521  0.2077 -0.1192  0.4204
  727MOL0     C98031   8.251   6.659   4.529 -0.3198 -0.9633  0.7394
  727MOL0     C98032   8.261   6.509   4.571 -0.1524 -0.2991  0.9431
  727MOL0     C98033   8.407   6.460   4.572 -0.2133 -0.6820  0.0363
  727MOL0     O98034   8.418   6.322   4.599  0.0636  0.4768 -0.3014
  727MOL0     C98035   8.541   6.265   4.588 -0.0838 -0.0773 -0.3536
  727MOL0     C98036   8.660   6.332   4.539  0.7805  0.4715 -0.0507
  727MOL0     C98037   8.780   6.266   4.528 -0.5565 -0.0097 -0.0530
  727MOL0     C98038   8.793   6.131   4.578 -0.1921 -0.7947  0.5052
  727MOL0     C98039   8.930   6.071   4.573  0.2753 -0.9289 -0.0429
  727MOL0     O98040   9.029   6.146   4.513 -0.3304 -0.2803 -0.1690
  727MOL0     C98041   9.150   6.092   4.490  0.9084 -0.0335  0.2313
  727MOL0     C98042   9.204   6.131   4.368  0.9756  0.1648 -0.2472
  727MOL0     C98043   9.336   6.096   4.331  0.0346 -0.8620 -0.4820
  727MOL0     C98044   9.422   6.028   4.422 -0.2493  0.6028  0.9028
  727MOL0     O98045   9.551   6.007   4.383 -0.2109  0.0272  0.3738
  727MOL0     C98046   9.627   5.909   4.460  0.7898 -1.0869 -0.2630
  727MOL0     C98047   9.768   5.901   4.392 -0.2346  0.0714 -0.9643
  727MOL0     C98048   9.872   5.829   4.488  0.4824 -0.0575  0.4667
  727MOL0     C98049   9.992   5.773   4.411  0.2135  0.1839 -0.2663
  727MOL0     C98050  10.074   5.883   4.344  0.0079  0.1847  0.0334
  727MOL0     C98051  10.230   5.865   4.328  0.6957 -0.0968 -0.2247
  727MOL0     C98052  10.265   5.740   4.242  0.3270  0.3695 -0.1935
  727MOL0     C98053  10.420   5.732   4.242 -1.2617  0.2928  0.9969
  727MOL0    Cl98054  10.477   5.594   4.137 -0.0501  0.4667 -0.4835
  727MOL0     C98055   9.359   5.972   4.534  0.1113 -0.7718 -0.4052
  727MOL0     C98056   9.232   6.004   4.569  0.3174 -0.3817 -0.0445
  727MOL0     O98057   8.940   5.953   4.608 -0.6091  0.1200 -0.1990
  727MOL0     C98058   8.677   6.071   4.642  0.2125 -0.2655 -0.3676
  727MOL0     C98059   8.551   6.133   4.639  0.0311 -0.5373 -0.3680
  727MOL0     N98060   7.968   6.663   4.307 -0.2946 -0.0504  0.0898
  727MOL0     N98061   7.893   6.571   4.258 -0.1795 -0.5712  0.0437
  727MOL0     C98062   6.927   6.181   5.033  0.0474 -0.2802  0.1570
  727MOL0     C98063   6.831   6.087   5.072 -0.2945 -0.2752 -0.0655
  727MOL0     C98064   6.553   5.777   5.141  0.2596  0.1182 -0.1036
  727MOL0     C98065   6.592   5.639   5.145  0.5590 -1.0259  0.3434
  727MOL0     C98066   6.516   5.545   5.209  0.1970  0.3519 -1.0659
  727MOL0     C98067   6.409   5.583   5.286 -0.4475 -1.1787  0.1881
  727MOL0     O98068   6.364   5.488   5.369  0.2796 -0.4823  0.0084
  727MOL0     C98069   6.232   5.509   5.421  0.5089 -0.0809 -0.1673
  727MOL0     C98070   6.178   5.388   5.505  0.3006 -0.1068  1.1348
  727MOL0     C98071   6.038   5.418   5.558 -0.8889 -0.5228  0.3539
  727MOL0     C98072   5.929   5.375   5.465 -1.1242 -0.0816  0.0314
  727MOL0     C98073   5.803   5.440   5.492 -0.3483  0.3054 -1.0454
  727MOL0     C98074   5.706   5.503   5.494 -0.6812  0.8105 -0.4558
  727MOL0     C98075   6.361   5.715   5.279  0.2103 -0.5681  0.4005
  727MOL0     C98076   6.427   5.809   5.196  0.1106  0.5144  0.2982
  727MOL0     C98077   6.373   5.946   5.199 -0.5628  0.1765  0.4970
  727MOL0     H98078   6.607   6.141   4.827  0.3096 -1.3481  0.0822
  727MOL0     H98079   6.775   6.311   4.760 -2.1934  1.3679  0.9841
  727MOL0     H98080   7.008   6.311   4.671  2.2526  0.1735 -0.7727
  727MOL0     H98081   6.955   6.471   4.732 -0.7875 -0.0191 -2.2397
  727MOL0     H98082   7.233   6.379   4.803  1.6679 -1.0663 -1.9840
  727MOL0     H98083   7.181   6.539   4.743  0.5525  0.0244 -0.1734
  727MOL0     H98084   7.186   6.463   4.515  0.5345  2.0340  2.0273
  727MOL0     H98085   7.201   6.292   4.552 -0.8207  0.0626  1.8485
  727MOL0     H98086   7.401   6.513   4.607 -0.3758 -0.6264  0.9775
  727MOL0     H98087   7.424   6.354   4.675  0.0635  1.3600  1.1313
  727MOL0     H98088   7.422   6.250   4.453 -2.3203 -0.3384  1.9264
  727MOL0     H98089   7.415   6.410   4.386  0.9865  1.1621  1.0348
  727MOL0     H98090   7.638   6.473   4.489  1.2937  0.0026 -0.1851
  727MOL0     H98091   7.636   6.310   4.560  0.7331 -1.8884 -1.7360
  727MOL0     H98092   7.622   6.377   4.258 -1.4932  0.7775  1.8729
  727MOL0     H98093   7.647   6.219   4.333 -1.7795 -0.6937  1.1569
  727MOL0     H98094   7.866   6.287   4.425 -2.1802  2.0913  0.9599
  727MOL0     H98095   7.865   6.294   4.249 -1.7219  1.2267 -1.3348
  727MOL0     H98096   7.957   6.455   4.561  3.0009  2.1089  1.0643
  727MOL0     H98097   8.090   6.812   4.489 -1.6039 -0.2493  0.6806
  727MOL0     H98098   8.073   6.712   4.627  3.1247  0.7719  1.3208
  727MOL0     H98099   8.303   6.671   4.434  0.3066  0.9949  1.2988
  727MOL0     H98100   8.296   6.720   4.608 -0.4565 -0.2528  0.2735
  727MOL0     H98101   8.200   6.452   4.501  0.0036 -0.7857  1.2031
  727MOL0     H98102   8.221   6.498   4.672 -0.4746  0.2441  0.8820
  727MOL0     H98103   8.466   6.517   4.644  1.9458  1.5470 -3.1972
  727MOL0     H98104   8.438   6.474   4.468 -2.0528  1.0027 -0.3668
  727MOL0     H98105   8.648   6.433   4.502 -1.0312  1.0850  2.0450
  727MOL0     H98106   8.870   6.314   4.490  0.8720 -4.5004 -3.2241
  727MOL0     H98107   9.143   6.202   4.314  0.6297  2.5182  2.9629
  727MOL0     H98108   9.369   6.127   4.233  3.3487 -2.0562  0.0882
  727MOL0     H98109   9.645   5.951   4.560  1.7150 -0.0792 -0.8234
  727MOL0     H98110   9.584   5.809   4.463  0.1755 -0.8992  4.3195
  727MOL0     H98111   9.761   5.852   4.295 -1.1473 -0.2420 -0.7550
  727MOL0     H98112   9.805   6.001   4.370 -0.9236  0.1817 -1.6464
  727MOL0     H98113   9.901   5.895   4.570  0.5375 -0.9908  1.2063
  727MOL0     H98114   9.814   5.752   4.539 -1.9865  1.8229  0.6791
  727MOL0     H98115   9.960   5.699   4.338 -1.7211 -0.6781  1.3566
  727MOL0     H98116  10.056   5.716   4.480  0.0698 -0.8420 -0.9704
  727MOL0     H98117  10.057   5.975   4.399 -0.5009 -0.1680  0.4733
  727MOL0     H98118  10.030   5.906   4.247 -0.7052  1.6577  0.6818
  727MOL0     H98119  10.287   5.948   4.285  0.9685 -0.0227  0.2594
  727MOL0     H98120  10.270   5.841   4.427  1.4105 -1.3047 -0.7805
  727MOL0     H98121  10.220   5.747   4.143  0.2420  2.0295 -0.0593
  727MOL0     H98122  10.230   5.652   4.297  0.8946 -0.5004 -1.1864
  727MOL0     H98123  10.457   5.829   4.208 -0.2691 -0.8160 -1.2648
  727MOL0     H98124  10.467   5.723   4.340 -1.4443  2.6449  1.3708
  727MOL0     H98125   9.412   5.894   4.588 -1.7870 -1.3331  0.7432
  727MOL0     H98126   9.185   5.947   4.649 -0.8998 -1.7485 -1.6588
  727MOL0     H98127   8.678   5.974   4.691 -0.6158  1.0303  2.3833
  727MOL0     H98128   8.454   6.105   4.680 -1.2380  0.0217 -2.7875
  727MOL0     H98129   7.010   6.199   5.101 -1.6383  1.1673  1.9729
  727MOL0     H98130   6.839   6.038   5.168 -4.2813 -2.0542 -0.4672
  727MOL0     H98131   6.686   5.601   5.108  1.8933  2.5226 -0.3731
  727MOL0     H98132   6.545   5.441   5.221 -1.0501  0.0595 -0.3542
  727MOL0     H98133   6.167   5.518   5.334 -0.6544 -1.7265  0.5004
  727MOL0     H98134   6.231   5.597   5.486 -4.6884 -0.8366  1.1513
  727MOL0     H98135   6.256   5.373   5.581  1.7703 -0.1199 -0.3107
  727MOL0     H98136   6.175   5.300   5.439 -1.7154 -0.5573  1.7799
  727MOL0     H98137   6.040   5.527   5.570  0.7464  0.0811 -3.6785
  727MOL0     H98138   6.017   5.369   5.654  0.6157 -0.6588  0.6391
  727MOL0     H98139   5.962   5.396   5.362  0.6884 -1.8173  0.2181
  727MOL0     H98140   5.914   5.267   5.466 -0.5378 -0.1611  0.6209
  727MOL0     H98141   5.620   5.567   5.486  0.5586  2.6848  0.4320
  727MOL0     H98142   6.277   5.757   5.334 -1.3352 -2.4626 -0.3781
  727MOL0     H98143   6.384   5.999   5.104  2.9621 -1.2625 -0.0604
  727MOL0     H98144   6.268   5.943   5.231 -0.5249 -0.6693  0.5770
  727MOL0     H98145   6.430   6.001   5.275  0.6584  0.2229 -0.4370
  728MOL0     O98146   4.047   9.379   5.551  0.3545 -0.1335  0.1639
  728MOL0     C98147   4.056   9.297   5.465  0.8016  0.6189 -0.9358
  728MOL0     O98148   3.947   9.226   5.428  0.0354 -0.6473 -0.0304
  728MOL0     C98149   3.816   9.231   5.476 -0.6766 -0.2628  0.1335
  728MOL0     C98150   3.768   9.310   5.582 -0.2694  0.2750 -0.0836
  728MOL0     C98151   3.629   9.306   5.605  0.5350 -0.3100  0.2893
  728MOL0     C98152   3.540   9.205   5.553  0.0920 -0.1970  0.2733
  728MOL0     O98153   3.410   9.193   5.594  0.2698  0.1118  0.4511
  728MOL0     C98154   3.364   9.257   5.721  0.3923  0.3596  0.1586
  728MOL0     C98155   3.414   9.186   5.847 -0.9354  0.8175  0.4732
  728MOL0     C98156   3.387   9.037   5.860 -0.7576 -0.1312  0.0057
  728MOL0     C98157   3.241   9.006   5.885 -0.0941 -0.3338  0.1428
  728MOL0     C98158   3.216   8.857   5.905 -0.5466 -0.0439  0.5277
  728MOL0     C98159   3.066   8.835   5.897  0.7673  0.1417 -0.0002
  728MOL0     C98160   3.026   8.683   5.898 -0.2374  0.6703 -0.6312
  728MOL0     C98161   2.874   8.662   5.888 -0.4864  0.0428 -0.6060
  728MOL0     N98162   2.831   8.515   5.869  0.3169  0.4383  1.2846
  728MOL0     C98163   2.799   8.456   5.742 -0.1619  0.0483  0.6079
  728MOL0     C98164   2.802   8.322   5.777 -0.9455 -0.8682  0.1353
  728MOL0     C98165   2.793   8.217   5.670 -0.0775  0.3426  1.0515
  728MOL0     C98166   2.684   8.108   5.688  0.4034  0.1769 -0.5714
  728MOL0     C98167   2.651   8.043   5.556  0.5129  1.0661  0.4459
  728MOL0     C98168   2.760   7.945   5.511 -0.4025  0.1098 -0.6487
  728MOL0     O98169   2.799   7.979   5.372  0.4941  0.2870 -0.2621
  728MOL0     C98170   2.917   7.916   5.325 -0.3130  0.0571  0.0608
  728MOL0     C98171   2.947   7.944   5.193  0.2473 -0.2223 -0.3858
  728MOL0     C98172   3.055   7.896   5.123 -0.2096  0.2836 -0.8080
  728MOL0     C98173   3.142   7.808   5.191  0.8194 -0.1207 -0.2745
  728MOL0     C98174   3.240   7.733   5.117 -0.2880  0.0061 -0.5267
  728MOL0     O98175   3.307   7.645   5.193  0.1638 -0.0966  0.0491
  728MOL0     C98176   3.386   7.548   5.137  0.7007 -0.0947  0.2773
  728MOL0     C98177   3.361   7.463   5.030  0.1408 -0.0058  0.6885
  728MOL0     C98178   3.457   7.381   4.982  0.2618  0.7323 -0.5657
  728MOL0     C98179   3.585   7.369   5.037  0.4124 -0.1501 -0.7107
  728MOL0     O98180   3.681   7.280   4.977  0.0414 -0.1351 -0.3688
  728MOL0     C98181   3.807   7.257   5.042 -0.6484 -0.5211 -0.4343
  728MOL0     C98182   3.886   7.149   4.967  0.1696  0.2468  0.4851
  728MOL0     C98183   4.034   7.140   5.017  0.8707  0.0777  0.3974
  728MOL0     C98184   4.092   7.009   4.958  0.0712  0.4918 -0.4957
  728MOL0     C98185   4.249   7.007   4.952 -0.0252 -0.0197 -0.5883
  728MOL0     C98186   4.307   6.884   4.890  0.0438  0.1974  0.0766
  728MOL0     C98187   4.440   6.843   4.960  0.4655 -0.2354  0.7525
  728MOL0     C98188   4.495   6.704   4.920  0.4517  0.0964  0.5078
  728MOL0    Cl98189   4.667   6.695   4.944 -0.1488 -0.1281  0.1525
  728MOL0     C98190   3.612   7.457   5.144  0.0405  0.5762  0.2085
  728MOL0     C98191   3.517   7.542   5.189 -0.5386  0.2485  0.3805
  728MOL0     O98192   3.253   7.755   5.003  0.7468 -0.2750 -0.0702
  728MOL0     C98193   3.115   7.777   5.333 -0.3749 -0.0027  0.3241
  728MOL0     C98194   3.000   7.831   5.396 -0.2350  0.3387  0.7036
  728MOL0     N98195   2.852   8.309   5.901 -0.6632  0.4886  0.1059
  728MOL0     N98196   2.861   8.418   5.955 -0.0570 -0.0924 -0.0205
  728MOL0     C98197   3.593   9.117   5.458  0.5423 -0.6547 -0.5843
  728MOL0     C98198   3.725   9.145   5.414 -0.1101  0.7853  0.0410
  728MOL0     C98199   4.190   9.281   5.395 -0.1233 -0.3461  0.1915
  728MOL0     C98200   4.181   9.200   5.281 -0.3787  0.1735 -0.8506
  728MOL0     C98201   4.295   9.188   5.195 -0.0495 -0.0872 -0.1057
  728MOL0     C98202   4.424   9.253   5.224  0.2883  1.0999 -0.2088
  728MOL0     O98203   4.540   9.242   5.145  0.5828 -0.9744 -0.2849
  728MOL0     C98204   4.557   9.147   5.037  1.1883 -0.0789 -0.2530
  728MOL0     C98205   4.601   9.233   4.917 -0.1675  0.8935  0.2557
  728MOL0     C98206   4.589   9.153   4.783 -0.0136 -0.2949  0.2644
  728MOL0     C98207   4.446   9.177   4.720 -1.3132  0.6697 -0.0707
  728MOL0     C98208   4.343   9.088   4.774 -0.2792 -0.0639  0.1104
  728MOL0     C98209   4.256   9.018   4.815 -0.5119 -0.2832  0.8477
  728MOL0     C98210   4.443   9.334   5.326  1.2331 -0.2678  0.0582
  728MOL0     C98211   4.324   9.343   5.418 -0.0272  0.1974  1.0139
  728MOL0     C98212   4.352   9.437   5.525 -0.0015 -0.2681  0.2374
  728MOL0     H98213   3.823   9.392   5.626 -0.3033  0.1273  0.2379
  728MOL0     H98214   3.591   9.378   5.677  0.8082  1.0763 -0.9082
  728MOL0     H98215   3.386   9.363   5.731  4.0828 -0.1829 -0.5414
  728MOL0     H98216   3.255   9.247   5.718  0.5339 -1.3801 -1.2023
  728MOL0     H98217   3.370   9.233   5.935  0.6078  1.1125  1.1211
  728MOL0     H98218   3.521   9.206   5.852 -0.2351 -1.8228 -1.5764
  728MOL0     H98219   3.445   8.998   5.944  0.8015  0.8971 -0.5493
  728MOL0     H98220   3.419   8.983   5.770  0.8687  1.3583 -0.3787
  728MOL0     H98221   3.204   9.058   5.973 -0.0825 -0.5087  0.2516
  728MOL0     H98222   3.173   9.038   5.805 -0.6568 -3.4754 -0.8008
  728MOL0     H98223   3.267   8.800   5.826 -1.2310  1.4561 -1.0646
  728MOL0     H98224   3.254   8.823   6.001  0.8711 -3.4098 -1.0520
  728MOL0     H98225   3.028   8.888   5.985  0.3985  1.9565 -1.1732
  728MOL0     H98226   3.036   8.881   5.802  0.7448 -0.4792 -0.2984
  728MOL0     H98227   3.081   8.634   5.978  1.2661 -0.4941 -2.2912
  728MOL0     H98228   3.069   8.639   5.808  2.3213  4.0607 -1.2942
  728MOL0     H98229   2.823   8.702   5.977 -0.0902  3.0791 -1.6072
  728MOL0     H98230   2.847   8.724   5.801  1.4854  1.4560 -0.2738
  728MOL0     H98231   2.770   8.488   5.642 -1.4594 -2.3454  0.1482
  728MOL0     H98232   2.770   8.262   5.573 -0.7809 -1.8805  0.1052
  728MOL0     H98233   2.895   8.178   5.677 -0.3846 -0.4318  1.3673
  728MOL0     H98234   2.723   8.030   5.754 -0.8201  0.4061  0.4385
  728MOL0     H98235   2.594   8.153   5.730  2.4020  2.1779  1.9007
  728MOL0     H98236   2.635   8.122   5.482 -0.8332 -0.8061 -1.3451
  728MOL0     H98237   2.561   7.982   5.563  1.3762 -0.5021 -1.1941
  728MOL0     H98238   2.754   7.837   5.529  0.7463  0.0553 -0.5562
  728MOL0     H98239   2.849   7.973   5.568  0.5178 -0.3758 -1.8048
  728MOL0     H98240   2.892   8.021   5.139  0.7210  1.3031  1.2168
  728MOL0     H98241   3.078   7.918   5.020  1.9443  1.3184 -0.1678
  728MOL0     H98242   3.260   7.475   4.993  0.8673  1.7986 -0.8443
  728MOL0     H98243   3.436   7.313   4.900  0.5820  2.1329 -1.8545
  728MOL0     H98244   3.867   7.347   5.030 -2.0263  0.3837 -0.8185
  728MOL0     H98245   3.804   7.224   5.146 -2.4948  3.9259  1.1543
  728MOL0     H98246   3.839   7.051   4.975 -0.8528  0.6222 -0.6022
  728MOL0     H98247   3.876   7.184   4.863 -1.7238  0.2882  0.6568
  728MOL0     H98248   4.087   7.231   4.986  0.4990 -0.2326 -1.2464
  728MOL0     H98249   4.041   7.130   5.125  3.0776  3.0500  0.6502
  728MOL0     H98250   4.063   7.004   4.852  2.0328  0.6747 -1.0831
  728MOL0     H98251   4.046   6.921   5.004  2.0777  0.4934  1.7081
  728MOL0     H98252   4.288   7.025   5.053 -1.3301 -1.4510  0.2074
  728MOL0     H98253   4.286   7.086   4.886 -1.6167  2.5928  1.4505
  728MOL0     H98254   4.237   6.801   4.903  0.0256  0.3089  0.7112
  728MOL0     H98255   4.322   6.903   4.783 -0.6242 -0.5406 -0.1550
  728MOL0     H98256   4.428   6.834   5.068  0.5476 -3.1885  0.6169
  728MOL0     H98257   4.511   6.921   4.934 -2.2149  0.7787 -5.0122
  728MOL0     H98258   4.450   6.620   4.973 -0.2118 -1.2645 -2.0334
  728MOL0     H98259   4.471   6.695   4.813 -1.7458  2.5979  0.6903
  728MOL0     H98260   3.714   7.473   5.178  0.1872 -3.3019  2.0443
  728MOL0     H98261   3.534   7.602   5.277 -1.6827 -0.1036  0.8648
  728MOL0     H98262   3.160   7.696   5.389  0.6533 -1.2182 -2.0819
  728MOL0     H98263   2.996   7.800   5.500  2.1531 -0.8150  0.5050
  728MOL0     H98264   3.537   9.044   5.401 -1.4762  1.9514 -2.1567
  728MOL0     H98265   3.769   9.089   5.332  2.6132  2.8299 -0.0268
  728MOL0     H98266   4.084   9.158   5.254 -0.6645 -1.4744  2.2218
  728MOL0     H98267   4.273   9.130   5.106  1.8054 -1.3591  0.1954
  728MOL0     H98268   4.461   9.097   5.021 -0.9125  2.9207  1.7898
  728MOL0     H98269   4.638   9.079   5.065  1.5479 -0.5432 -2.2486
  728MOL0     H98270   4.704   9.266   4.933 -0.0661  0.2756  0.9107
  728MOL0     H98271   4.545   9.327   4.918 -1.1607  0.3178  0.6190
  728MOL0     H98272   4.609   9.049   4.809 -2.2782 -0.5554  1.1272
  728MOL0     H98273   4.669   9.176   4.712  0.2511 -3.6400 -0.6897
  728MOL0     H98274   4.421   9.282   4.733 -1.0619  0.4691  2.3670
  728MOL0     H98275   4.454   9.162   4.612 -1.4434 -0.4954  0.0654
  728MOL0     H98276   4.176   8.953   4.845 -0.5286 -0.4101  0.5379
  728MOL0     H98277   4.538   9.384   5.341  0.7272  0.3607  1.2920
  728MOL0     H98278   4.459   9.456   5.542 -0.0922  0.1983  0.2850
  728MOL0     H98279   4.297   9.531   5.524 -0.8567 -0.5112  4.3880
  728MOL0     H98280   4.320   9.384   5.616  0.5715 -1.1106 -0.0394
  729MOL0     O98281   0.622   8.309   6.605  0.3444 -0.0468 -0.2136
  729MOL0     C98282   0.647   8.200   6.653 -0.1809 -0.9348 -0.2709
  729MOL0     O98283   0.771   8.163   6.704 -0.1380  0.1027  0.2610
  729MOL0     C98284   0.891   8.230   6.671 -0.0161 -0.0610  0.6318
  729MOL0     C98285   0.995   8.244   6.763  0.5809  0.5294 -0.0893
  729MOL0     C98286   1.109   8.328   6.732 -0.2822  0.4196 -0.7250
  729MOL0     C98287   1.119   8.404   6.613  0.7491  0.3176 -0.0939
  729MOL0     O98288   1.223   8.483   6.582 -0.5080 -0.5540  0.3715
  729MOL0     C98289   1.215   8.600   6.502  0.2106  0.5876 -0.4595
  729MOL0     C98290   1.351   8.656   6.458  0.6585 -0.8168 -0.1655
  729MOL0     C98291   1.420   8.729   6.573  0.5367  0.1504 -0.7434
  729MOL0     C98292   1.556   8.782   6.533 -0.0476  0.0841 -0.2192
  729MOL0     C98293   1.642   8.838   6.643  0.1011  0.3304 -0.4438
  729MOL0     C98294   1.791   8.837   6.606  0.4282 -0.4098 -0.3336
  729MOL0     C98295   1.832   8.915   6.482 -0.3454 -0.2188  0.6030
  729MOL0     C98296   1.844   9.067   6.487  1.3571  0.1689  0.4436
  729MOL0     N98297   1.956   9.109   6.575 -0.2767 -0.2858 -0.0178
  729MOL0     C98298   1.949   9.128   6.708 -0.0867 -0.0059  0.4487
  729MOL0     C98299   2.069   9.184   6.739 -0.1975  0.4500 -0.1165
  729MOL0     C98300   2.107   9.244   6.874  0.1376  0.0508  0.5019
  729MOL0     C98301   2.242   9.322   6.868 -0.2944  0.3612  1.2056
  729MOL0     C98302   2.251   9.402   7.007  0.0386 -0.2504  0.1405
  729MOL0     C98303   2.379   9.480   7.026  1.1193  0.6271  0.2595
  729MOL0     O98304   2.496   9.424   6.974 -0.2945  0.4196 -0.0614
  729MOL0     C98305   2.609   9.498   6.961 -0.1853 -0.1532 -0.3551
  729MOL0     C98306   2.714   9.427   6.901 -0.8043  1.2211 -0.2118
  729MOL0     C98307   2.841   9.489   6.878 -0.5078  0.7180 -0.2682
  729MOL0     C98308   2.855   9.627   6.910 -0.3593  0.6316 -0.2618
  729MOL0     C98309   2.977   9.706   6.884 -0.0067 -0.5040  0.8242
  729MOL0     O98310   3.068   9.636   6.809 -0.2715 -0.5648  0.3451
  729MOL0     C98311   3.191   9.696   6.779 -0.1258  0.2810 -0.0217
  729MOL0     C98312   3.292   9.704   6.876 -0.1129 -0.0311  0.0170
  729MOL0     C98313   3.411   9.775   6.846 -0.4063 -0.1257 -0.0167
  729MOL0     C98314   3.433   9.822   6.714 -0.1146  0.0522  0.1745
  729MOL0     O98315   3.557   9.884   6.696  0.2588  0.4627  0.5527
  729MOL0     C98316   3.559   9.980   6.590  0.3944 -0.6470  0.3640
  729MOL0     C98317   3.616   9.913   6.464  0.2791 -0.7563  0.1488
  729MOL0     C98318   3.756   9.868   6.483  0.4732  0.2135 -1.1269
  729MOL0     C98319   3.830   9.834   6.351 -0.0158 -0.0688 -0.1876
  729MOL0     C98320   3.974   9.793   6.379  0.0982 -0.4538  0.3747
  729MOL0     C98321   4.070   9.814   6.252 -0.6646 -0.5999 -0.6824
  729MOL0     C98322   4.213   9.752   6.276  0.4212 -0.2101 -0.0560
  729MOL0     C98323   4.332   9.850   6.289 -0.6077  0.2608 -0.3936
  729MOL0    Cl98324   4.343   9.900   6.460  0.2687 -0.2464 -0.3157
  729MOL0     C98325   3.322   9.818   6.618 -0.5804 -1.0104 -0.1417
  729MOL0     C98326   3.207   9.755   6.657 -0.2362 -0.0226  0.8977
  729MOL0     O98327   2.992   9.821   6.924  0.0578 -0.2089  0.7513
  729MOL0     C98328   2.744   9.698   6.971 -0.8231  0.7914 -0.1241
  729MOL0     C98329   2.622   9.634   6.991  0.0174  0.3902  0.7759
  729MOL0     N98330   2.147   9.191   6.630  0.5475 -0.4663  0.6795
  729MOL0     N98331   2.076   9.162   6.527  0.6001  0.0557 -0.1324
  729MOL0     C98332   1.018   8.383   6.513  0.0204 -0.2743 -0.3450
  729MOL0     C98333   0.911   8.302   6.545 -0.2412  0.5194  0.1080
  729MOL0     C98334   0.539   8.108   6.693 -1.2035 -0.0652 -0.2775
  729MOL0     C98335   0.573   7.999   6.777  0.0923 -0.2563 -0.8369
  729MOL0     C98336   0.477   7.907   6.827  0.0260 -0.4966 -0.5504
  729MOL0     C98337   0.337   7.919   6.797  0.6040 -0.6583  0.2698
  729MOL0     O98338   0.261   7.821   6.845  0.0598  0.3944 -1.0003
  729MOL0     C98339   0.127   7.814   6.798 -0.3032 -0.5527  0.3482
  729MOL0     C98340   0.039   7.919   6.860 -0.0004  0.8574  0.1408
  729MOL0     C98341  -0.065   7.958   6.763 -0.1845  0.3083  0.6645
  729MOL0     C98342  -0.167   8.035   6.844 -1.0423  0.6660 -1.0404
  729MOL0     C98343  -0.276   8.090   6.767 -0.2311  0.3189  0.1945
  729MOL0     C98344  -0.373   8.117   6.697  0.4638  0.0900  0.5733
  729MOL0     C98345   0.303   8.027   6.713  0.2146 -0.5283  0.2735
  729MOL0     C98346   0.403   8.113   6.662  0.0615  0.2387  0.7322
  729MOL0     C98347   0.343   8.212   6.556  0.0310  0.2578  0.3962
  729MOL0     H98348   0.966   8.196   6.856  0.0173 -1.3458 -1.1908
  729MOL0     H98349   1.186   8.345   6.807 -1.0083 -0.5734  0.2827
  729MOL0     H98350   1.156   8.591   6.410 -0.2271  0.6869 -0.1905
  729MOL0     H98351   1.158   8.673   6.560 -3.9556 -3.6431  1.5201
  729MOL0     H98352   1.334   8.727   6.377  1.0644 -0.8544 -0.2875
  729MOL0     H98353   1.406   8.571   6.416 -1.1904 -2.0697 -0.1387
  729MOL0     H98354   1.432   8.661   6.658 -4.9970  0.9616  1.0954
  729MOL0     H98355   1.355   8.810   6.607 -0.3345 -0.4818 -0.8514
  729MOL0     H98356   1.611   8.699   6.487 -1.7735 -0.8358 -0.6817
  729MOL0     H98357   1.550   8.860   6.457  0.3592  0.5026  0.1771
  729MOL0     H98358   1.607   8.935   6.679 -0.5161 -0.2427  0.5379
  729MOL0     H98359   1.611   8.775   6.726 -2.3205  2.0511  0.0651
  729MOL0     H98360   1.848   8.856   6.698 -0.3426  1.7086 -0.2206
  729MOL0     H98361   1.812   8.732   6.585 -0.9243 -0.6064 -0.8690
  729MOL0     H98362   1.764   8.877   6.405  2.1411 -1.7315 -0.9821
  729MOL0     H98363   1.928   8.874   6.449  0.0504  0.5198  0.8066
  729MOL0     H98364   1.868   9.103   6.386  0.6421  1.9946  0.8985
  729MOL0     H98365   1.745   9.111   6.501  0.5514 -1.3669 -0.1739
  729MOL0     H98366   1.867   9.111   6.776 -1.0133  0.2992 -0.5620
  729MOL0     H98367   2.024   9.302   6.916  0.5763  1.3209 -0.3113
  729MOL0     H98368   2.125   9.168   6.950 -1.1762  0.1325  0.9122
  729MOL0     H98369   2.326   9.255   6.848 -0.9193 -0.0962 -0.0119
  729MOL0     H98370   2.253   9.403   6.795 -2.0341  0.5021  1.0492
  729MOL0     H98371   2.250   9.323   7.083  1.0951 -0.9956 -0.6085
  729MOL0     H98372   2.164   9.467   7.018 -0.6706 -1.4259  2.1674
  729MOL0     H98373   2.388   9.510   7.131 -2.6751 -0.6602  1.1272
  729MOL0     H98374   2.349   9.563   6.962  1.9559 -0.8964 -2.2757
  729MOL0     H98375   2.699   9.323   6.874 -1.4450  1.4422 -0.7476
  729MOL0     H98376   2.926   9.441   6.832 -0.5822  0.9834 -0.6849
  729MOL0     H98377   3.282   9.658   6.974 -1.3010  0.6285  0.2266
  729MOL0     H98378   3.492   9.796   6.916  0.8786 -1.5227 -1.0121
  729MOL0     H98379   3.465  10.035   6.574 -1.8849 -3.4499  2.7868
  729MOL0     H98380   3.632  10.055   6.620 -1.1664  0.6233  1.1354
  729MOL0     H98381   3.558   9.822   6.448  1.5405 -1.7390  0.9576
  729MOL0     H98382   3.601   9.988   6.386 -2.2244  0.9359  2.0884
  729MOL0     H98383   3.811   9.945   6.538  0.6605  1.0706 -2.4829
  729MOL0     H98384   3.740   9.777   6.543 -1.7287  0.5840 -1.0673
  729MOL0     H98385   3.824   9.914   6.276 -3.8824  0.1525  0.1935
  729MOL0     H98386   3.787   9.748   6.298  1.6517 -1.1902  0.1902
  729MOL0     H98387   3.975   9.690   6.416  2.8306 -0.9845 -0.8479
  729MOL0     H98388   4.022   9.859   6.451 -0.0489 -0.0693  0.1213
  729MOL0     H98389   4.027   9.765   6.164 -1.8642 -0.2542 -0.3146
  729MOL0     H98390   4.064   9.922   6.234  1.8670 -0.1165  0.9315
  729MOL0     H98391   4.240   9.700   6.184  3.1138 -0.5499  0.8377
  729MOL0     H98392   4.213   9.695   6.370  0.3518  0.6131  0.4500
  729MOL0     H98393   4.425   9.797   6.271 -0.1464  0.5805  0.9484
  729MOL0     H98394   4.321   9.933   6.219 -2.8306  2.0148  1.8301
  729MOL0     H98395   3.324   9.860   6.518 -2.9150  0.3459  0.3147
  729MOL0     H98396   3.131   9.739   6.581  1.4163  0.8043 -1.0356
  729MOL0     H98397   2.744   9.800   7.009 -0.4159  0.3831  1.0322
  729MOL0     H98398   2.536   9.690   7.027 -1.2724 -2.4017  2.3453
  729MOL0     H98399   1.020   8.432   6.416  0.9729  1.1731  0.3667
  729MOL0     H98400   0.831   8.287   6.474  1.1224 -0.6098 -1.2793
  729MOL0     H98401   0.676   7.984   6.807 -0.6803  1.4385  3.3192
  729MOL0     H98402   0.507   7.824   6.889 -0.6840 -2.8893 -3.1843
  729MOL0     H98403   0.084   7.715   6.818  3.5941 -2.8333 -1.2871
  729MOL0     H98404   0.129   7.815   6.688 -1.6243  1.0206  0.3029
  729MOL0     H98405   0.095   8.007   6.894  1.0863 -0.0298  0.6983
  729MOL0     H98406  -0.019   7.878   6.943 -2.8917  1.0135 -1.6753
  729MOL0     H98407  -0.109   7.867   6.722  0.2380  0.0812  0.7180
  729MOL0     H98408  -0.021   8.010   6.677  0.9778  0.3415  1.2615
  729MOL0     H98409  -0.205   7.973   6.926  0.5106  2.4639  1.1626
  729MOL0     H98410  -0.118   8.114   6.901 -0.8919  0.9901 -1.6130
  729MOL0     H98411  -0.460   8.147   6.642 -2.5079 -0.8110  4.3820
  729MOL0     H98412   0.200   8.046   6.683  0.9537  1.1401 -1.3724
  729MOL0     H98413   0.236   8.209   6.536 -0.2970  2.9411  1.2672
  729MOL0     H98414   0.361   8.314   6.591  0.1970  0.7025 -0.9308
  729MOL0     H98415   0.390   8.206   6.458 -1.8027 -0.1207 -0.4833
  730MOL0     O98416  10.396   7.142   9.504 -0.5650  0.3513  0.2153
  730MOL0     C98417  10.301   7.081   9.449  0.0996 -0.9879 -0.9028
  730MOL0     O98418  10.316   6.965   9.374 -0.4681 -0.4865 -0.4454
  730MOL0     C98419  10.441   6.903   9.382 -0.1041  0.0180 -0.3689
  730MOL0     C98420  10.521   6.885   9.264  0.9797 -0.1490  0.0306
  730MOL0     C98421  10.635   6.800   9.261  0.6039 -0.4487 -0.0377
  730MOL0     C98422  10.665   6.729   9.372 -0.0053  0.3408  0.0394
  730MOL0     O98423  10.776   6.649   9.347  0.6313 -0.3451 -0.6460
  730MOL0     C98424  10.830   6.575   9.454 -0.2101 -0.1879 -0.2712
  730MOL0     C98425  10.972   6.535   9.421  0.4083 -1.0617  0.7104
  730MOL0     C98426  10.979   6.400   9.346  0.4653  0.3150  0.0197
  730MOL0     C98427  11.008   6.283   9.438  0.0021  0.5230  0.1955
  730MOL0     C98428  11.020   6.145   9.371  0.0440  0.7392 -0.5419
  730MOL0     C98429  10.896   6.111   9.285 -0.3305 -0.3518  0.0094
  730MOL0     C98430  10.770   6.104   9.361  0.3155  0.9463 -0.6341
  730MOL0     C98431  10.648   6.050   9.271 -0.0325  0.0034  0.2773
  730MOL0     N98432  10.522   6.045   9.348  0.1489 -0.0816  0.3716
  730MOL0     C98433  10.400   6.090   9.310 -0.0041 -0.2940  0.4265
  730MOL0     C98434  10.311   6.059   9.409  0.8046  0.4599  1.1787
  730MOL0     C98435  10.159   6.081   9.406 -0.2225 -0.2697 -0.1846
  730MOL0     C98436  10.108   6.051   9.548  0.2176 -0.4698 -0.2802
  730MOL0     C98437   9.964   6.084   9.567 -0.0341 -0.1690  0.4226
  730MOL0     C98438   9.897   6.035   9.685 -0.1205 -0.2549 -0.3121
  730MOL0     O98439   9.773   6.109   9.709 -0.1248 -0.4572 -0.8209
  730MOL0     C98440   9.658   6.064   9.659 -0.0799 -0.2440  0.1480
  730MOL0     C98441   9.552   6.123   9.718  1.5298  0.1230  0.1974
  730MOL0     C98442   9.423   6.085   9.683  0.3357  0.1167 -0.7545
  730MOL0     C98443   9.406   5.991   9.587 -0.3272  0.7073  0.5905
  730MOL0     C98444   9.268   5.957   9.543 -0.5041  0.5869 -0.2415
  730MOL0     O98445   9.257   5.875   9.438 -0.1986 -0.4144  0.0602
  730MOL0     C98446   9.135   5.826   9.397 -0.1973  0.2074  0.9888
  730MOL0     C98447   9.043   5.906   9.328  0.0109 -0.7832 -0.0823
  730MOL0     C98448   8.924   5.865   9.272 -0.3765 -0.3918 -0.5488
  730MOL0     C98449   8.892   5.730   9.290  1.2349 -0.4743  0.7393
  730MOL0     O98450   8.770   5.691   9.233  0.2748  0.4495 -0.3313
  730MOL0     C98451   8.766   5.569   9.173 -0.2504 -0.0349 -0.7583
  730MOL0     C98452   8.636   5.524   9.124  0.1988 -0.9437  0.4185
  730MOL0     C98453   8.519   5.529   9.233 -0.5598 -0.1417 -0.3125
  730MOL0     C98454   8.406   5.430   9.202 -0.8322 -0.5740  0.2365
  730MOL0     C98455   8.297   5.446   9.309 -0.1705 -0.2296  0.4298
  730MOL0     C98456   8.192   5.332   9.285 -0.5269  0.6453 -1.0324
  730MOL0     C98457   8.072   5.358   9.397 -0.5187  0.1095  0.3620
  730MOL0     C98458   7.963   5.245   9.396 -0.3656 -0.4238 -0.2835
  730MOL0    Cl98459   7.882   5.209   9.241  0.4684 -0.1233 -0.4456
  730MOL0     C98460   8.982   5.643   9.353 -0.5855 -0.0853 -0.0771
  730MOL0     C98461   9.099   5.689   9.403 -0.0088  0.5654 -0.0615
  730MOL0     O98462   9.175   5.999   9.609 -0.4881 -0.5005  0.0694
  730MOL0     C98463   9.514   5.920   9.532  0.6333  0.8015  0.2130
  730MOL0     C98464   9.642   5.954   9.567  0.7708  0.0824  0.1329
  730MOL0     N98465  10.380   5.991   9.501 -0.0933 -0.4544 -0.5525
  730MOL0     N98466  10.504   5.974   9.467  0.1942 -0.2188 -0.2850
  730MOL0     C98467  10.593   6.742   9.488  0.5136  0.4426 -0.1974
  730MOL0     C98468  10.480   6.826   9.493  0.3906 -0.6721 -0.4647
  730MOL0     C98469  10.166   7.133   9.479  0.3696  0.3724 -0.2113
  730MOL0     C98470  10.053   7.066   9.423 -0.6793  0.5876  0.3657
  730MOL0     C98471   9.922   7.096   9.466 -0.8375 -0.4112  0.4253
  730MOL0     C98472   9.895   7.187   9.566  0.0002 -1.0178 -0.8937
  730MOL0     O98473   9.767   7.207   9.602  0.4934 -0.6870 -0.8622
  730MOL0     C98474   9.734   7.319   9.681  0.2315 -0.0831 -0.7105
  730MOL0     C98475   9.578   7.315   9.718 -0.4487 -1.1160  0.3142
  730MOL0     C98476   9.482   7.317   9.601 -0.6479 -0.5487  0.3318
  730MOL0     C98477   9.335   7.316   9.638  0.0186  0.6890  0.1790
  730MOL0     C98478   9.283   7.180   9.659  0.9743  0.6378 -0.2561
  730MOL0     C98479   9.248   7.066   9.685  0.2723 -0.6915 -0.4183
  730MOL0     C98480  10.001   7.265   9.614 -0.4956  0.0700 -0.1464
  730MOL0     C98481  10.133   7.240   9.577  0.8637 -0.7718  0.0888
  730MOL0     C98482  10.230   7.325   9.654 -0.5527 -0.3038 -0.4126
  730MOL0     H98483  10.483   6.923   9.170  0.1418 -0.5209  0.2077
  730MOL0     H98484  10.679   6.775   9.165 -0.9340 -4.0712  0.0384
  730MOL0     H98485  10.844   6.642   9.539 -2.3571  0.3423 -0.2736
  730MOL0     H98486  10.771   6.486   9.475  0.2453 -0.2548  0.7327
  730MOL0     H98487  11.031   6.534   9.513  1.0751 -1.0638  0.2937
  730MOL0     H98488  11.019   6.615   9.364 -0.5073  0.8386  2.4790
  730MOL0     H98489  11.057   6.407   9.270  0.5114  1.0727  0.1226
  730MOL0     H98490  10.890   6.379   9.288  0.8131 -0.9318 -0.0806
  730MOL0     H98491  11.105   6.295   9.486 -0.2153  3.6637  0.0816
  730MOL0     H98492  10.930   6.272   9.514 -0.4034 -1.8467 -0.4944
  730MOL0     H98493  11.108   6.140   9.306 -1.3139  0.2092 -2.4373
  730MOL0     H98494  11.039   6.075   9.453  0.8266  1.8969  0.3141
  730MOL0     H98495  10.875   6.186   9.209  0.1990 -2.1643 -2.0180
  730MOL0     H98496  10.922   6.018   9.233  3.8325  1.8925 -2.4952
  730MOL0     H98497  10.738   6.199   9.403  1.2641 -0.0088  2.4803
  730MOL0     H98498  10.780   6.034   9.444 -2.6442 -0.0256 -0.9961
  730MOL0     H98499  10.619   6.106   9.182 -1.2917  1.2640  1.4205
  730MOL0     H98500  10.676   5.952   9.233 -0.4324  1.3769 -4.2027
  730MOL0     H98501  10.384   6.143   9.216  0.7032 -0.5564  0.1458
  730MOL0     H98502  10.149   6.187   9.381  0.4608 -0.6286 -2.1735
  730MOL0     H98503  10.107   6.021   9.331 -2.3925  1.4489 -0.1796
  730MOL0     H98504  10.127   5.945   9.570 -1.1271 -0.2635  2.2020
  730MOL0     H98505  10.166   6.101   9.626  1.3235 -0.3695 -1.1371
  730MOL0     H98506   9.910   6.040   9.482  1.5984  0.5085 -1.0365
  730MOL0     H98507   9.965   6.193   9.557  3.0000 -0.3133 -3.6326
  730MOL0     H98508   9.968   6.036   9.768  0.4009 -0.2392 -0.7521
  730MOL0     H98509   9.884   5.927   9.677  0.0858 -0.3463  0.5195
  730MOL0     H98510   9.565   6.206   9.786 -0.8479  1.4349 -0.8048
  730MOL0     H98511   9.333   6.129   9.725  1.0053  0.5758  0.2240
  730MOL0     H98512   9.064   6.012   9.320 -0.7814 -0.5554  0.8262
  730MOL0     H98513   8.858   5.936   9.223  1.2516  0.9085 -0.9521
  730MOL0     H98514   8.835   5.564   9.088  0.5769 -1.1049 -0.0518
  730MOL0     H98515   8.804   5.494   9.244  2.3060  2.7766  1.0871
  730MOL0     H98516   8.601   5.587   9.041  0.2736 -3.0282 -1.2928
  730MOL0     H98517   8.639   5.422   9.085  0.5573 -0.7938  0.0440
  730MOL0     H98518   8.556   5.497   9.331 -0.1738  1.1925 -0.0013
  730MOL0     H98519   8.489   5.633   9.242 -2.2642 -0.1823 -3.8642
  730MOL0     H98520   8.438   5.326   9.210 -0.3231 -0.3652  1.1678
  730MOL0     H98521   8.377   5.444   9.098  2.2553  0.7439 -0.5562
  730MOL0     H98522   8.251   5.542   9.284  2.9714  1.1940 -0.3991
  730MOL0     H98523   8.334   5.440   9.412  0.2225 -0.3229  0.2856
  730MOL0     H98524   8.154   5.331   9.183 -0.8998 -0.7100 -0.9006
  730MOL0     H98525   8.243   5.238   9.310 -2.3648 -0.5931 -1.7350
  730MOL0     H98526   8.022   5.455   9.388  0.7892  1.0215  2.2358
  730MOL0     H98527   8.116   5.343   9.496 -1.2909 -0.0225  0.6944
  730MOL0     H98528   8.013   5.154   9.430  2.0274  0.7875 -0.3018
  730MOL0     H98529   7.891   5.257   9.476  1.3004 -1.4990  1.4502
  730MOL0     H98530   8.966   5.536   9.362 -1.2195  0.0468  0.4132
  730MOL0     H98531   9.174   5.631   9.455 -0.7543 -0.2638  0.1108
  730MOL0     H98532   9.501   5.833   9.468 -1.9765  0.4725  1.0810
  730MOL0     H98533   9.721   5.885   9.540  0.5252 -1.4681  2.9979
  730MOL0     H98534  10.615   6.686   9.577 -0.0728 -0.5011 -0.6290
  730MOL0     H98535  10.424   6.841   9.584  3.5865  1.2597  1.3902
  730MOL0     H98536  10.072   6.983   9.356 -3.0542  0.3685 -0.0999
  730MOL0     H98537   9.844   7.038   9.417 -2.9248  1.2088  1.6803
  730MOL0     H98538   9.753   7.410   9.624 -2.2978  1.5432  0.8263
  730MOL0     H98539   9.794   7.317   9.773  0.3530  0.5696 -0.7690
  730MOL0     H98540   9.547   7.405   9.773 -1.2324  0.5660 -2.6743
  730MOL0     H98541   9.548   7.226   9.775 -0.6057 -1.2643  0.0061
  730MOL0     H98542   9.506   7.229   9.541 -0.4197  0.2399 -0.7787
  730MOL0     H98543   9.488   7.408   9.540 -1.5483 -1.7843 -1.6959
  730MOL0     H98544   9.317   7.369   9.732 -0.3887 -0.5283  0.8179
  730MOL0     H98545   9.271   7.363   9.562 -0.1068 -0.2616 -0.3293
  730MOL0     H98546   9.208   6.968   9.699 -1.2473 -0.3146 -1.8079
  730MOL0     H98547   9.988   7.350   9.679 -0.0159 -0.2526  0.3918
  730MOL0     H98548  10.175   7.389   9.723 -0.5069  2.0341 -2.3715
  730MOL0     H98549  10.301   7.255   9.699  0.5206  1.2043  0.3515
  730MOL0     H98550  10.292   7.390   9.591  0.5194  1.2064  2.0557
  731MOL0     O98551   5.312  10.318   6.443 -0.3316 -0.0474  0.1419
  731MOL0     C98552   5.338  10.203   6.481 -0.0192 -0.4293 -0.2050
  731MOL0     O98553   5.462  10.152   6.492 -0.1413  0.1118 -0.2449
  731MOL0     C98554   5.571  10.222   6.441  0.0371 -0.0496 -0.3875
  731MOL0     C98555   5.634  10.189   6.319  0.3749  0.8509 -0.0653
  731MOL0     C98556   5.753  10.254   6.289 -0.0991  0.5001  0.8736
  731MOL0     C98557   5.810  10.352   6.362 -0.1543 -0.1035 -0.8894
  731MOL0     O98558   5.943  10.376   6.341  0.0780 -0.5099 -0.9496
  731MOL0     C98559   6.013  10.456   6.433  0.7459 -0.8537 -0.6072
  731MOL0     C98560   6.154  10.461   6.370  0.4249  0.0572 -0.2770
  731MOL0     C98561   6.251  10.554   6.446  0.6004 -0.0332 -0.7259
  731MOL0     C98562   6.381  10.579   6.365  0.3634  0.0102 -1.0455
  731MOL0     C98563   6.462  10.684   6.439  0.2018 -0.3468  0.6050
  731MOL0     C98564   6.598  10.716   6.372 -0.0439  0.5071 -0.0593
  731MOL0     C98565   6.699  10.787   6.462  0.1385  0.0054  0.5251
  731MOL0     C98566   6.832  10.784   6.396  0.1184  0.5474  0.3156
  731MOL0     N98567   6.926  10.873   6.465 -0.3103  0.6632 -0.2032
  731MOL0     C98568   6.996  10.858   6.582  0.3277  0.3850 -0.3220
  731MOL0     C98569   7.102  10.953   6.579 -0.7051  0.0895 -0.4442
  731MOL0     C98570   7.217  10.980   6.681  0.1109  0.0310  0.2034
  731MOL0     C98571   7.362  10.997   6.630  0.0029  0.4255 -0.0749
  731MOL0     C98572   7.452  11.034   6.748 -0.4911 -0.2354  0.1732
  731MOL0     C98573   7.587  11.002   6.699 -0.6813 -0.8045 -0.1546
  731MOL0     O98574   7.631  11.083   6.587 -0.5262 -1.1230 -0.0644
  731MOL0     C98575   7.766  11.084   6.561 -0.1650  0.0098  0.8502
  731MOL0     C98576   7.864  11.008   6.627 -0.1545  1.1115 -0.3363
  731MOL0     C98577   7.990  11.022   6.584 -0.5785  0.0768 -0.2850
  731MOL0     C98578   8.036  11.114   6.482  0.6751 -0.3872  0.0700
  731MOL0     C98579   8.173  11.123   6.422 -0.7432  0.0903  0.7538
  731MOL0     O98580   8.202  11.240   6.354  0.4405 -0.1951  0.0043
  731MOL0     C98581   8.325  11.241   6.288  0.9016  0.0876 -0.5346
  731MOL0     C98582   8.450  11.276   6.356 -0.5984  0.3653  0.3845
  731MOL0     C98583   8.569  11.255   6.287  0.1112  0.3060 -0.0483
  731MOL0     C98584   8.564  11.218   6.155 -0.0179 -0.1175 -0.1815
  731MOL0     O98585   8.679  11.212   6.083  0.2241  0.2707  0.7445
  731MOL0     C98586   8.737  11.086   6.078 -0.5003  0.1020 -0.3612
  731MOL0     C98587   8.878  11.086   6.013 -0.6768  0.1851  0.1336
  731MOL0     C98588   8.979  11.169   6.092  0.6553  0.0302  0.5308
  731MOL0     C98589   9.125  11.157   6.040 -0.0888 -0.6085  0.2140
  731MOL0     C98590   9.195  11.042   6.102 -0.0683  0.3059  0.0297
  731MOL0     C98591   9.341  11.022   6.061 -0.3672  0.0888  0.8826
  731MOL0     C98592   9.434  11.154   6.070  0.3861 -0.4901 -0.2347
  731MOL0     C98593   9.548  11.142   5.970 -0.1216  0.1168  1.2300
  731MOL0    Cl98594   9.628  10.988   6.024 -0.3000 -0.2181 -0.0241
  731MOL0     C98595   8.449  11.185   6.091 -0.5462  0.4416  0.6445
  731MOL0     C98596   8.330  11.186   6.154 -0.0707 -0.7392  0.4078
  731MOL0     O98597   8.242  11.024   6.448 -0.3650 -0.6266  0.3409
  731MOL0     C98598   7.941  11.195   6.422 -0.4563 -0.3176 -0.1636
  731MOL0     C98599   7.806  11.175   6.460 -0.0039  0.3438 -0.1123
  731MOL0     N98600   7.077  11.033   6.469 -0.9879  0.7769 -0.0231
  731MOL0     N98601   6.980  10.983   6.409 -0.2718  0.2932  0.2124
  731MOL0     C98602   5.742  10.391   6.477 -0.5432  0.0621  0.8752
  731MOL0     C98603   5.624  10.327   6.517  0.0919 -1.2561 -0.0104
  731MOL0     C98604   5.224  10.134   6.548 -0.5634 -0.0229 -0.1369
  731MOL0     C98605   5.094  10.166   6.510 -0.4224  0.2789  0.5348
  731MOL0     C98606   4.994  10.108   6.583 -0.5574  0.1365  0.4504
  731MOL0     C98607   5.016  10.027   6.691  0.3517  0.0607  0.0521
  731MOL0     O98608   4.930   9.954   6.761 -0.0990  0.4777 -0.6972
  731MOL0     C98609   4.797   9.913   6.713 -1.0856  0.1235  1.2296
  731MOL0     C98610   4.823   9.803   6.612  0.3071 -1.1548 -0.3051
  731MOL0     C98611   4.688   9.747   6.573 -0.0581 -0.2611  0.2038
  731MOL0     C98612   4.724   9.620   6.487  0.5067 -0.4966  0.1579
  731MOL0     C98613   4.610   9.565   6.410  0.6547 -0.2348 -0.5853
  731MOL0     C98614   4.513   9.513   6.362  0.6603  0.1782 -0.4373
  731MOL0     C98615   5.151   9.992   6.724 -0.3721  0.2310  0.3899
  731MOL0     C98616   5.255  10.043   6.651 -0.9493 -1.1849  0.3432
  731MOL0     C98617   5.398  10.002   6.694  0.7335 -0.6215 -0.1837
  731MOL0     H98618   5.587  10.119   6.251  0.9886  2.8437 -2.7091
  731MOL0     H98619   5.801  10.224   6.196  0.1099  2.5625  0.2594
  731MOL0     H98620   5.967  10.555   6.430 -0.3310 -1.3541 -3.2250
  731MOL0     H98621   6.011  10.410   6.532  1.4932 -3.7485 -1.8115
  731MOL0     H98622   6.143  10.495   6.266  1.1234  1.0463 -0.0437
  731MOL0     H98623   6.195  10.360   6.364 -1.7650 -0.8578 -0.8537
  731MOL0     H98624   6.270  10.504   6.542 -1.9695 -1.4554 -0.8683
  731MOL0     H98625   6.203  10.651   6.463 -0.5186 -0.3212 -2.0789
  731MOL0     H98626   6.446  10.492   6.351  2.3292  1.4329 -1.2212
  731MOL0     H98627   6.351  10.616   6.266  0.4702 -1.1542 -1.5272
  731MOL0     H98628   6.405  10.777   6.450 -1.5939 -1.2444 -0.6649
  731MOL0     H98629   6.477  10.634   6.535  0.3700 -4.4370 -1.3516
  731MOL0     H98630   6.639  10.616   6.357 -1.6576 -0.6411  2.5092
  731MOL0     H98631   6.578  10.761   6.274  0.0789 -0.4384 -0.5312
  731MOL0     H98632   6.713  10.740   6.560  0.7771  1.0941  0.9746
  731MOL0     H98633   6.660  10.889   6.469 -2.3610 -0.8423 -0.1213
  731MOL0     H98634   6.864  10.679   6.405 -2.1168 -0.6647 -3.4789
  731MOL0     H98635   6.840  10.809   6.289  1.8253  1.6448  0.6526
  731MOL0     H98636   6.978  10.781   6.656 -0.1148  0.6122 -0.1912
  731MOL0     H98637   7.193  11.073   6.735  1.1442 -0.3550  1.3635
  731MOL0     H98638   7.211  10.896   6.751 -3.4028 -0.0873 -0.0313
  731MOL0     H98639   7.401  10.905   6.587 -0.4507  1.1485 -2.1419
  731MOL0     H98640   7.361  11.076   6.554 -1.0045 -1.1042 -1.6882
  731MOL0     H98641   7.436  10.974   6.839 -3.6913  1.4737  0.8915
  731MOL0     H98642   7.444  11.138   6.781  1.1029  0.3746 -1.1852
  731MOL0     H98643   7.603  10.899   6.667  0.7764 -0.4291 -0.7014
  731MOL0     H98644   7.658  11.022   6.781 -0.2353  0.4314 -0.8095
  731MOL0     H98645   7.839  10.941   6.708 -1.3169  1.9442  0.0370
  731MOL0     H98646   8.057  10.957   6.640 -0.5579  2.1502  2.3047
  731MOL0     H98647   8.453  11.303   6.461 -0.5234  2.8797 -0.1906
  731MOL0     H98648   8.662  11.252   6.344 -0.3202 -0.7783  0.6403
  731MOL0     H98649   8.746  11.044   6.179 -0.3203  1.1411  0.0603
  731MOL0     H98650   8.678  11.016   6.019 -0.6850 -1.0144  1.0680
  731MOL0     H98651   8.906  10.982   5.996 -1.3549 -0.1757  1.1000
  731MOL0     H98652   8.872  11.133   5.914  0.1514  2.0055  0.9137
  731MOL0     H98653   8.945  11.272   6.077  0.3199 -0.1309  0.1410
  731MOL0     H98654   8.972  11.152   6.200  0.1028  1.9201  0.8251
  731MOL0     H98655   9.169  11.255   6.056 -2.9329  0.4263  2.5754
  731MOL0     H98656   9.126  11.143   5.932  1.5985  2.1895 -0.2290
  731MOL0     H98657   9.144  10.947   6.085 -1.3516  1.1201 -0.9044
  731MOL0     H98658   9.200  11.063   6.209  3.2960 -1.6482  0.3960
  731MOL0     H98659   9.390  10.948   6.125  1.1933 -1.0383 -1.4897
  731MOL0     H98660   9.335  10.994   5.956  0.6935  3.3093 -0.1733
  731MOL0     H98661   9.471  11.167   6.172 -1.7571  0.8098  0.4610
  731MOL0     H98662   9.392  11.247   6.030 -1.2494 -1.2394 -0.3356
  731MOL0     H98663   9.505  11.139   5.869 -1.5186  2.7013  1.6615
  731MOL0     H98664   9.617  11.228   5.969 -0.8433  0.7021  0.9661
  731MOL0     H98665   8.451  11.154   5.987 -0.1713 -1.7261  1.2541
  731MOL0     H98666   8.243  11.154   6.099 -0.9683 -0.0145  1.3802
  731MOL0     H98667   7.951  11.264   6.340 -2.6854 -1.1589 -1.2356
  731MOL0     H98668   7.722  11.224   6.412 -0.6541 -2.3112 -1.9297
  731MOL0     H98669   5.784  10.472   6.535  1.4931  0.2067 -0.6839
  731MOL0     H98670   5.572  10.343   6.611  0.4863 -3.0218  0.5441
  731MOL0     H98671   5.065  10.228   6.426 -0.1308  0.4047  0.5275
  731MOL0     H98672   4.891  10.111   6.546 -0.6414 -2.1128  0.3640
  731MOL0     H98673   4.736   9.993   6.670 -0.9501 -0.9198 -1.0356
  731MOL0     H98674   4.740   9.879   6.800 -0.7358  2.3603  2.3896
  731MOL0     H98675   4.882   9.718   6.647 -3.4428 -5.1655 -2.7312
  731MOL0     H98676   4.878   9.849   6.529  2.7539 -0.4338  1.5824
  731MOL0     H98677   4.629   9.820   6.517  1.3802 -0.3661 -1.5157
  731MOL0     H98678   4.636   9.715   6.664  2.2651 -2.4438  0.8861
  731MOL0     H98679   4.814   9.643   6.429 -0.2748 -0.2045 -0.9691
  731MOL0     H98680   4.765   9.540   6.550  2.0675  0.2339  0.1179
  731MOL0     H98681   4.427   9.469   6.315 -0.0855  0.1845  0.8583
  731MOL0     H98682   5.166   9.925   6.807  0.1837 -1.9885 -1.4045
  731MOL0     H98683   5.449   9.952   6.612  0.6784 -0.0808 -0.5536
  731MOL0     H98684   5.463  10.082   6.732 -0.1922  0.5213 -0.9699
  731MOL0     H98685   5.385   9.927   6.773  0.0373  0.7375  1.0521
  732MOL0     O98686   9.330  10.646   3.201  0.2803 -0.3591  0.5337
  732MOL0     C98687   9.277  10.611   3.302 -0.2380  0.2521 -0.1733
  732MOL0     O98688   9.317  10.642   3.429 -0.4044 -0.0776  0.6209
  732MOL0     C98689   9.423  10.726   3.443  0.4588  0.0195  0.4300
  732MOL0     C98690   9.554  10.682   3.471  0.8107  0.1362 -0.4917
  732MOL0     C98691   9.655  10.768   3.505  0.2139 -0.1845 -0.5357
  732MOL0     C98692   9.623  10.909   3.521  1.0273  0.2627 -0.4590
  732MOL0     O98693   9.712  11.001   3.574 -0.2866  0.6853 -0.2846
  732MOL0     C98694   9.844  10.952   3.612  0.1756 -0.1434 -0.3631
  732MOL0     C98695   9.954  11.049   3.660 -0.3632 -0.1092 -0.0045
  732MOL0     C98696   9.914  11.144   3.780  0.7355 -0.3323  0.5161
  732MOL0     C98697  10.019  11.248   3.814  0.4435  0.0689 -0.4872
  732MOL0     C98698  10.164  11.206   3.823 -0.3555  0.3025  0.4530
  732MOL0     C98699  10.253  11.305   3.911  0.0034  0.6960 -0.3415
  732MOL0     C98700  10.276  11.436   3.836 -0.0471  0.4383 -0.1908
  732MOL0     C98701  10.379  11.419   3.724  0.8609  0.7346  0.3532
  732MOL0     N98702  10.436  11.548   3.677 -0.8967  0.1719 -1.1054
  732MOL0     C98703  10.544  11.615   3.734 -0.0142 -0.5228  0.1611
  732MOL0     C98704  10.563  11.709   3.634 -0.8554  0.3767 -0.4089
  732MOL0     C98705  10.676  11.805   3.641 -0.6076  0.3401  0.4264
  732MOL0     C98706  10.799  11.759   3.552  0.5358  0.0932 -0.6499
  732MOL0     C98707  10.933  11.799   3.608  0.1748 -0.4442  0.1100
  732MOL0     C98708  11.041  11.760   3.504  0.3371  0.8742  0.1892
  732MOL0     O98709  11.168  11.795   3.558  0.1536 -0.6905 -0.4021
  732MOL0     C98710  11.281  11.790   3.484 -0.8716  0.6955  0.3502
  732MOL0     C98711  11.393  11.862   3.512  0.1692 -0.3376 -0.2447
  732MOL0     C98712  11.507  11.867   3.433  0.1901  0.6264 -0.0487
  732MOL0     C98713  11.520  11.797   3.310  0.0736  0.0079  0.0101
  732MOL0     C98714  11.635  11.814   3.217  0.1851 -0.1965  0.2646
  732MOL0     O98715  11.733  11.906   3.263 -0.4052 -0.0606  0.0364
  732MOL0     C98716  11.815  11.968   3.169 -0.5987 -0.5899 -0.8583
  732MOL0     C98717  11.775  12.012   3.045 -0.2935 -0.0163  0.2287
  732MOL0     C98718  11.856  12.095   2.963 -0.1945  0.5787 -0.6323
  732MOL0     C98719  11.985  12.123   3.010 -0.6890  0.6857 -1.3970
  732MOL0     O98720  12.071  12.179   2.922  0.3337 -0.0751  0.3778
  732MOL0     C98721  12.146  12.292   2.963 -0.4052  0.0378 -0.4040
  732MOL0     C98722  12.239  12.311   2.851 -0.2728  0.2487  0.2075
  732MOL0     C98723  12.363  12.219   2.852  0.2611  0.9762  0.9003
  732MOL0     C98724  12.454  12.294   2.957 -0.4769  0.5270  0.2882
  732MOL0     C98725  12.592  12.225   2.947  0.0247 -0.5767 -0.1661
  732MOL0     C98726  12.694  12.287   3.042 -0.3273 -0.5373 -0.3915
  732MOL0     C98727  12.829  12.215   3.023  0.4351 -0.7316 -0.6812
  732MOL0     C98728  12.940  12.251   3.124 -0.5189  0.1550 -0.4035
  732MOL0    Cl98729  13.091  12.195   3.048 -0.4743  0.4668 -0.0771
  732MOL0     C98730  12.033  12.075   3.137  0.5187 -0.2222 -0.1699
  732MOL0     C98731  11.935  12.013   3.222 -0.7686 -0.0043 -0.5878
  732MOL0     O98732  11.621  11.782   3.103 -0.0900  0.0118  0.1756
  732MOL0     C98733  11.401  11.721   3.281 -0.6412 -0.0462 -0.3593
  732MOL0     C98734  11.293  11.719   3.361 -0.2372  0.1627  0.1956
  732MOL0     N98735  10.459  11.703   3.538  0.0060 -0.6307 -0.1885
  732MOL0     N98736  10.391  11.599   3.561  0.2569  0.6157 -0.0538
  732MOL0     C98737   9.495  10.952   3.494  0.3579 -0.2732  0.0129
  732MOL0     C98738   9.395  10.861   3.448  0.5115 -0.5393 -0.0419
  732MOL0     C98739   9.191  10.488   3.292  0.4942 -0.0761  0.6224
  732MOL0     C98740   9.180  10.403   3.399 -0.0764  0.0039 -0.1129
  732MOL0     C98741   9.104  10.290   3.408  0.5351 -0.6864 -0.2861
  732MOL0     C98742   9.028  10.254   3.299  0.0806  0.2667 -0.0515
  732MOL0     O98743   8.960  10.132   3.298 -0.6451  0.2140  0.1646
  732MOL0     C98744   8.910  10.079   3.169 -0.1491 -0.0250  0.0963
  732MOL0     C98745   8.805   9.973   3.208 -0.0828  0.1998 -0.6195
  732MOL0     C98746   8.665  10.041   3.229  0.2607 -0.9349  0.1727
  732MOL0     C98747   8.541   9.970   3.285  0.0797  0.7631  0.2567
  732MOL0     C98748   8.418  10.046   3.255 -0.5582  0.0856 -0.2722
  732MOL0     C98749   8.320  10.106   3.220 -0.3601  0.2825  0.1642
  732MOL0     C98750   9.038  10.333   3.179 -0.4826 -0.0446 -0.1139
  732MOL0     C98751   9.120  10.446   3.178 -0.5277 -0.2419 -0.1396
  732MOL0     C98752   9.111  10.528   3.046  0.1571  1.4132 -0.8961
  732MOL0     H98753   9.577  10.576   3.468  0.5368 -0.2007  3.5520
  732MOL0     H98754   9.748  10.721   3.536  0.3870 -0.0528 -0.8530
  732MOL0     H98755   9.823  10.880   3.692 -1.2628 -1.8504 -2.1699
  732MOL0     H98756   9.878  10.890   3.529 -1.8040 -2.2002  0.2628
  732MOL0     H98757   9.980  11.111   3.574  0.0147 -1.9559 -1.2887
  732MOL0     H98758  10.037  10.986   3.691 -0.3481  0.8369  2.0515
  732MOL0     H98759   9.899  11.085   3.871 -1.1808  0.0994  0.5449
  732MOL0     H98760   9.820  11.197   3.760  1.3215 -0.6644 -4.0044
  732MOL0     H98761  10.011  11.321   3.732 -0.1869  0.7749  0.1829
  732MOL0     H98762   9.989  11.301   3.905  0.5169 -1.0177  0.1874
  732MOL0     H98763  10.160  11.114   3.882 -3.4722 -0.5130 -0.8268
  732MOL0     H98764  10.215  11.185   3.728  2.8859  2.1343  1.6360
  732MOL0     H98765  10.198  11.329   4.003  1.5532  3.1614  0.0208
  732MOL0     H98766  10.336  11.244   3.948 -0.8062 -0.0425  0.3403
  732MOL0     H98767  10.329  11.495   3.912 -1.4588  0.3823  0.8835
  732MOL0     H98768  10.182  11.479   3.801 -0.2893  0.3085  0.2985
  732MOL0     H98769  10.463  11.363   3.766  1.2030  2.5542  2.2770
  732MOL0     H98770  10.333  11.364   3.642 -1.5604 -0.3413  2.2939
  732MOL0     H98771  10.602  11.591   3.823  0.2402 -2.5624 -0.4993
  732MOL0     H98772  10.642  11.907   3.617  0.3166 -0.1307 -3.6919
  732MOL0     H98773  10.709  11.800   3.745 -2.0798  1.2683  0.9602
  732MOL0     H98774  10.791  11.652   3.531  2.3897 -0.6282  1.9019
  732MOL0     H98775  10.782  11.815   3.459  1.2948  0.9442 -0.2897
  732MOL0     H98776  10.951  11.742   3.699 -0.0498  1.7633  1.6090
  732MOL0     H98777  10.943  11.906   3.628 -0.2486 -0.5302  0.7917
  732MOL0     H98778  11.029  11.819   3.412  0.1687 -0.6688 -0.8127
  732MOL0     H98779  11.044  11.657   3.466  1.5154  0.6700  0.7824
  732MOL0     H98780  11.393  11.915   3.607 -0.8692 -1.8868  0.6731
  732MOL0     H98781  11.587  11.933   3.465  2.3061 -0.5774 -2.5433
  732MOL0     H98782  11.674  11.990   3.010 -0.1997  1.1686 -0.8640
  732MOL0     H98783  11.808  12.121   2.869 -2.6448 -0.2262  0.3111
  732MOL0     H98784  12.074  12.373   2.976 -1.6281 -1.2338  1.1246
  732MOL0     H98785  12.195  12.294   3.061 -1.3488  0.4159  0.0691
  732MOL0     H98786  12.174  12.285   2.767 -1.8191 -1.0962  1.7437
  732MOL0     H98787  12.269  12.417   2.850 -0.9102  0.4458 -1.2856
  732MOL0     H98788  12.333  12.116   2.871  0.6300  0.5523 -0.6695
  732MOL0     H98789  12.415  12.214   2.756 -0.5337  2.3224  0.3636
  732MOL0     H98790  12.414  12.298   3.059  0.3528  1.1519  0.6046
  732MOL0     H98791  12.465  12.397   2.922 -0.3772  1.2130  2.1917
  732MOL0     H98792  12.626  12.246   2.845  1.9052 -0.2643  0.4868
  732MOL0     H98793  12.580  12.118   2.963 -0.1804 -0.6258 -0.6372
  732MOL0     H98794  12.716  12.394   3.035  2.2029 -0.7993  1.7802
  732MOL0     H98795  12.661  12.266   3.144 -0.5876  0.7113 -0.2045
  732MOL0     H98796  12.862  12.239   2.922  1.0847 -2.8797 -1.0254
  732MOL0     H98797  12.819  12.108   3.041  0.7435 -0.2498  3.1250
  732MOL0     H98798  12.945  12.360   3.128  1.7442  0.0722  0.4598
  732MOL0     H98799  12.940  12.204   3.222 -1.0180  2.1215  0.5905
  732MOL0     H98800  12.135  12.089   3.172 -0.2663  1.4855  1.6546
  732MOL0     H98801  11.961  11.991   3.325 -2.1886 -2.1489 -0.6111
  732MOL0     H98802  11.408  11.662   3.191  1.5608  1.0180 -0.9513
  732MOL0     H98803  11.213  11.659   3.321  0.0385 -0.6828  0.8805
  732MOL0     H98804   9.476  11.058   3.504  2.5832 -0.0122  2.3789
  732MOL0     H98805   9.292  10.888   3.428  0.1981  0.2472  2.3671
  732MOL0     H98806   9.217  10.426   3.498 -1.5907 -0.4265  0.5787
  732MOL0     H98807   9.104  10.223   3.494 -1.7773 -0.6943 -0.2202
  732MOL0     H98808   8.994  10.039   3.111  0.0218  2.8968 -1.8568
  732MOL0     H98809   8.855  10.154   3.112 -0.9181  0.5745  1.5651
  732MOL0     H98810   8.839   9.930   3.304 -0.4308 -1.2477 -1.1143
  732MOL0     H98811   8.790   9.899   3.129  0.7475 -0.3328 -0.3007
  732MOL0     H98812   8.631  10.071   3.130  1.4601 -1.9257 -0.5805
  732MOL0     H98813   8.685  10.124   3.298  0.1184 -2.5947  2.3110
  732MOL0     H98814   8.543   9.870   3.241 -1.8028 -0.0749  1.9490
  732MOL0     H98815   8.551   9.953   3.393  0.9041 -0.5583  0.0006
  732MOL0     H98816   8.237  10.168   3.191 -0.8683 -0.0093  0.9584
  732MOL0     H98817   8.983  10.306   3.090 -0.5675  2.4667 -0.8894
  732MOL0     H98818   9.202  10.522   2.986  0.2489 -0.4293 -0.6260
  732MOL0     H98819   9.034  10.482   2.983 -1.5873  0.1319  1.9924
  732MOL0     H98820   9.086  10.633   3.061 -0.2541  1.0689  1.0769
  733MOL0     O98821   7.959   7.865   2.662 -0.3135  0.3671  1.2423
  733MOL0     C98822   7.878   7.948   2.690  0.9438  0.8173  0.2595
  733MOL0     O98823   7.896   8.046   2.786  0.1534  0.2103  0.2887
  733MOL0     C98824   8.031   8.056   2.838  0.7958  0.7130  0.9558
  733MOL0     C98825   8.135   8.110   2.778 -0.6664 -0.6461 -0.0883
  733MOL0     C98826   8.257   8.111   2.849  0.1571 -0.6215  0.6779
  733MOL0     C98827   8.277   8.057   2.977 -0.5673  0.0121 -1.0860
  733MOL0     O98828   8.405   8.060   3.029  0.3450 -0.1289  0.3664
  733MOL0     C98829   8.439   8.009   3.161  0.2261  0.0355 -1.0345
  733MOL0     C98830   8.586   8.039   3.196  0.5445 -0.2697  0.1062
  733MOL0     C98831   8.683   8.024   3.078 -0.2503  0.6165 -0.2671
  733MOL0     C98832   8.831   8.061   3.108  0.0090 -0.8593 -0.4911
  733MOL0     C98833   8.931   7.954   3.066  0.8735  0.2374  0.1573
  733MOL0     C98834   8.913   7.815   3.135  0.0057 -0.5458  0.6990
  733MOL0     C98835   9.033   7.723   3.132  0.1791  0.9121  0.5754
  733MOL0     C98836   9.055   7.662   2.989 -0.0116 -0.5256  0.0481
  733MOL0     N98837   9.187   7.615   2.968 -0.0639 -0.6356  0.3501
  733MOL0     C98838   9.238   7.508   3.038 -0.0630 -0.2055 -0.6647
  733MOL0     C98839   9.366   7.504   2.996  1.1427 -0.6515  0.9042
  733MOL0     C98840   9.462   7.403   3.045  0.2494  0.4056  0.0758
  733MOL0     C98841   9.552   7.344   2.935 -0.4168  0.4277 -0.1307
  733MOL0     C98842   9.628   7.226   2.996  0.2626 -1.1230  1.2483
  733MOL0     C98843   9.742   7.254   3.090  0.2774 -0.0883  0.8721
  733MOL0     O98844   9.848   7.292   3.009 -0.4383 -0.0149 -0.1965
  733MOL0     C98845   9.980   7.270   3.034  0.3240  0.0825  0.5206
  733MOL0     C98846  10.057   7.299   2.927  0.2796  0.3041 -0.5952
  733MOL0     C98847  10.193   7.283   2.934 -0.5774  0.0244 -0.4515
  733MOL0     C98848  10.258   7.232   3.051 -0.0672  0.2252  0.1924
  733MOL0     C98849  10.407   7.250   3.072  0.0312 -0.0119  0.7112
  733MOL0     O98850  10.467   7.310   2.967 -1.0011  1.0235 -0.0150
  733MOL0     C98851  10.602   7.295   2.945 -0.2924 -0.2367 -0.0354
  733MOL0     C98852  10.681   7.186   2.986 -0.1126  0.6875  0.3234
  733MOL0     C98853  10.823   7.197   2.979  0.9469  0.6696 -1.2245
  733MOL0     C98854  10.877   7.307   2.908 -0.0971  0.4058 -0.7429
  733MOL0     O98855  11.006   7.328   2.888 -0.3253 -0.1372  0.3668
  733MOL0     C98856  11.113   7.269   2.966 -0.5099  0.3893  0.1601
  733MOL0     C98857  11.235   7.365   2.979  0.9079 -0.1852  0.3370
  733MOL0     C98858  11.351   7.308   3.049 -0.3236  1.0871 -0.4738
  733MOL0     C98859  11.430   7.208   2.962 -0.0364  0.6082  0.3959
  733MOL0     C98860  11.574   7.198   3.016  0.4938  0.2300 -0.1593
  733MOL0     C98861  11.656   7.084   2.953 -0.0803 -0.2298  0.0296
  733MOL0     C98862  11.783   7.055   3.027 -0.5095  0.5318 -0.1540
  733MOL0     C98863  11.887   7.152   2.983 -0.0782  1.2129 -0.0558
  733MOL0    Cl98864  12.054   7.112   3.051  0.1235 -0.0716 -0.2367
  733MOL0     C98865  10.794   7.398   2.850  1.4473  0.2475 -0.3708
  733MOL0     C98866  10.654   7.385   2.856  0.4763 -0.2585  0.2970
  733MOL0     O98867  10.456   7.215   3.177 -0.1374 -0.5499  0.6472
  733MOL0     C98868  10.173   7.194   3.159  0.1132  0.0401 -0.8878
  733MOL0     C98869  10.035   7.206   3.144  0.2386 -0.5256  0.3017
  733MOL0     N98870   9.390   7.603   2.900 -0.1310 -0.9047 -0.3046
  733MOL0     N98871   9.277   7.668   2.881 -0.8622  0.1717 -0.3779
  733MOL0     C98872   8.168   8.005   3.041 -0.6486  0.0543 -0.6249
  733MOL0     C98873   8.045   7.999   2.966  0.5875 -0.1070  0.1827
  733MOL0     C98874   7.740   7.928   2.641 -0.7582  0.0469 -0.0788
  733MOL0     C98875   7.641   8.001   2.702  0.4166 -0.3765  0.2149
  733MOL0     C98876   7.507   7.998   2.669 -0.2258  0.7352  0.6746
  733MOL0     C98877   7.463   7.914   2.566 -0.5548  0.2202 -0.5685
  733MOL0     O98878   7.337   7.907   2.529  0.6707 -0.5019  0.5344
  733MOL0     C98879   7.233   7.883   2.621 -0.1846 -0.2175 -1.0285
  733MOL0     C98880   7.097   7.870   2.548  0.3368  0.2795 -0.6721
  733MOL0     C98881   6.980   7.838   2.649  0.3840  0.0196  0.8377
  733MOL0     C98882   6.976   7.948   2.755  0.2451  0.2719 -0.3715
  733MOL0     C98883   6.842   7.980   2.807 -1.0389 -0.3505  0.7599
  733MOL0     C98884   6.736   8.013   2.857  0.4522  0.2191 -0.3461
  733MOL0     C98885   7.560   7.854   2.491 -0.3303  0.0728 -0.7220
  733MOL0     C98886   7.701   7.863   2.525  0.2271  0.4785 -0.2611
  733MOL0     C98887   7.801   7.798   2.427  1.4486 -0.0482 -0.5590
  733MOL0     H98888   8.119   8.157   2.681  0.7532  2.1742  0.9357
  733MOL0     H98889   8.345   8.155   2.804 -0.1581 -1.8826 -1.3029
  733MOL0     H98890   8.375   8.047   3.242  0.6125 -0.1299 -0.6481
  733MOL0     H98891   8.431   7.900   3.157 -1.1160  0.0766 -0.1532
  733MOL0     H98892   8.625   7.981   3.281  0.8541  0.3115  0.3649
  733MOL0     H98893   8.583   8.145   3.222  0.6182 -0.6509  1.8004
  733MOL0     H98894   8.651   8.079   2.988  0.0335 -0.2226 -0.8991
  733MOL0     H98895   8.681   7.920   3.046  1.1948  1.0335 -1.9429
  733MOL0     H98896   8.861   8.151   3.053 -3.1899  0.3735 -0.4145
  733MOL0     H98897   8.833   8.080   3.215 -0.2798  1.2370 -0.8190
  733MOL0     H98898   8.909   7.939   2.960 -1.4046  0.4338  0.5521
  733MOL0     H98899   9.029   8.002   3.071 -0.2791  3.0741 -2.0714
  733MOL0     H98900   8.889   7.839   3.239 -1.3972  1.8640 -0.0993
  733MOL0     H98901   8.832   7.752   3.096  0.6111 -1.8423  1.4901
  733MOL0     H98902   9.018   7.637   3.198 -2.5567  1.0860  0.2939
  733MOL0     H98903   9.121   7.780   3.163  1.5733  0.6382 -2.4697
  733MOL0     H98904   8.987   7.577   2.975 -1.5847  0.0989  3.0845
  733MOL0     H98905   9.025   7.738   2.916 -0.7219 -1.2697 -0.4573
  733MOL0     H98906   9.189   7.447   3.114 -0.2734 -0.8878 -1.3349
  733MOL0     H98907   9.528   7.453   3.117  1.4351 -1.8533  0.6500
  733MOL0     H98908   9.403   7.328   3.099 -2.0051  0.7005 -1.7899
  733MOL0     H98909   9.487   7.299   2.860 -2.3475  0.4082  1.4693
  733MOL0     H98910   9.611   7.423   2.888 -2.1997  2.2695  0.5653
  733MOL0     H98911   9.676   7.177   2.911  0.3557 -1.4652  1.5012
  733MOL0     H98912   9.564   7.141   3.023  0.2968 -0.6943  2.7714
  733MOL0     H98913   9.755   7.160   3.144 -0.7852 -0.9661 -0.3395
  733MOL0     H98914   9.708   7.326   3.164 -1.5482 -1.4573  1.4310
  733MOL0     H98915  10.010   7.356   2.847  0.6985  3.7708  1.4468
  733MOL0     H98916  10.257   7.308   2.850 -1.4147  1.3519 -0.7279
  733MOL0     H98917  10.631   7.101   3.030  1.5408 -0.7863 -0.5108
  733MOL0     H98918  10.873   7.113   3.027 -1.2930 -0.9794 -1.6094
  733MOL0     H98919  11.083   7.242   3.068  0.3850  2.1935  0.9450
  733MOL0     H98920  11.150   7.182   2.910  1.7263  2.1494 -1.2492
  733MOL0     H98921  11.257   7.396   2.876 -0.4390 -2.3510 -0.6778
  733MOL0     H98922  11.196   7.449   3.036  1.6788 -1.4629  2.8946
  733MOL0     H98923  11.417   7.392   3.073  2.8518 -1.7009  1.4292
  733MOL0     H98924  11.329   7.256   3.143  0.1311  0.9962 -0.4132
  733MOL0     H98925  11.426   7.233   2.856  1.2034  3.4654  0.9225
  733MOL0     H98926  11.398   7.105   2.979  1.5935  0.0093  0.0092
  733MOL0     H98927  11.555   7.169   3.120  1.4438  2.8843  0.8298
  733MOL0     H98928  11.625   7.294   3.005  0.3195  0.1909 -1.5139
  733MOL0     H98929  11.597   6.992   2.950  0.6960 -0.7276 -0.7014
  733MOL0     H98930  11.674   7.121   2.851  0.8845 -1.2263 -0.1787
  733MOL0     H98931  11.799   6.949   3.008  1.2177  0.9228 -1.0206
  733MOL0     H98932  11.755   7.074   3.132  0.4675  0.8839  0.0538
  733MOL0     H98933  11.897   7.133   2.876 -1.1226 -1.3657  0.2247
  733MOL0     H98934  11.859   7.257   2.983  2.8553  2.0811 -1.1294
  733MOL0     H98935  10.832   7.484   2.795 -1.9541 -0.1025 -3.7023
  733MOL0     H98936  10.591   7.463   2.815  1.8559  1.0199  0.5092
  733MOL0     H98937  10.226   7.159   3.247  0.2330 -1.0633 -1.3752
  733MOL0     H98938   9.972   7.180   3.229 -3.8828  1.7525 -1.7276
  733MOL0     H98939   8.174   7.948   3.133 -1.8657 -0.4202 -0.8142
  733MOL0     H98940   7.960   7.958   3.020  0.7458  0.4798  0.9060
  733MOL0     H98941   7.668   8.063   2.787  3.7736 -2.1222  0.6176
  733MOL0     H98942   7.438   8.060   2.727 -1.6543 -0.9730  0.8683
  733MOL0     H98943   7.240   7.963   2.696  4.3385 -1.6937  0.4668
  733MOL0     H98944   7.256   7.787   2.669 -1.3940 -0.5067 -0.9857
  733MOL0     H98945   7.095   7.788   2.475  2.3375 -1.1638  0.7749
  733MOL0     H98946   7.080   7.967   2.499 -2.4080  1.1958  1.8610
  733MOL0     H98947   6.979   7.739   2.695  0.6300 -0.0672  0.6625
  733MOL0     H98948   6.885   7.851   2.597  1.1535  1.1876 -0.3661
  733MOL0     H98949   7.040   7.922   2.840 -1.9563 -0.7053  1.0851
  733MOL0     H98950   7.016   8.041   2.713 -0.1188  1.5492  1.9297
  733MOL0     H98951   6.640   8.035   2.901  1.4482 -0.5128  2.4392
  733MOL0     H98952   7.526   7.793   2.408 -4.6786 -1.9502  2.1556
  733MOL0     H98953   7.749   7.750   2.344  0.5629 -1.0056  0.5136
  733MOL0     H98954   7.865   7.877   2.388  1.5428 -0.7926 -1.9628
  733MOL0     H98955   7.853   7.723   2.488  1.4941  0.0670 -0.4556
  734MOL0     O98956  10.408   5.372   2.742  1.0042 -0.2122 -0.1537
  734MOL0     C98957  10.331   5.453   2.789  0.4219  0.0438  0.1336
  734MOL0     O98958  10.365   5.552   2.871 -0.2671  0.0500  0.6327
  734MOL0     C98959  10.478   5.562   2.946 -0.7568  0.5490  0.7719
  734MOL0     C98960  10.521   5.685   3.001 -0.3252 -0.3673  0.1801
  734MOL0     C98961  10.644   5.693   3.075  0.1314  0.3233  0.0333
  734MOL0     C98962  10.717   5.575   3.095 -0.3941  0.0961 -0.8703
  734MOL0     O98963  10.825   5.583   3.180 -0.7580  0.4046 -0.3655
  734MOL0     C98964  10.943   5.510   3.147  0.1434 -0.4405 -0.0754
  734MOL0     C98965  11.060   5.616   3.156  0.0127 -0.2337  0.8783
  734MOL0     C98966  11.029   5.740   3.070  0.2080 -0.0558 -0.2347
  734MOL0     C98967  10.962   5.857   3.146  0.0906  0.3642 -0.4257
  734MOL0     C98968  10.932   5.971   3.049 -0.1216 -0.4231  0.4569
  734MOL0     C98969  10.868   6.078   3.124  0.8118  0.5658 -0.1392
  734MOL0     C98970  10.821   6.194   3.037 -0.1827  0.2383  0.3655
  734MOL0     C98971  10.766   6.304   3.122 -0.2854 -0.4047  0.5061
  734MOL0     N98972  10.635   6.268   3.175  0.1570 -0.0620 -0.1068
  734MOL0     C98973  10.523   6.280   3.108  0.9172 -0.7926  1.4982
  734MOL0     C98974  10.422   6.222   3.178  0.1516  0.9425 -0.4832
  734MOL0     C98975  10.273   6.225   3.153 -0.6121  0.3577  1.2209
  734MOL0     C98976  10.194   6.241   3.284 -0.0060 -0.3672 -0.8719
  734MOL0     C98977  10.132   6.106   3.317  0.0792  0.2854  0.4321
  734MOL0     C98978  10.053   6.115   3.452 -0.1453  0.3811  0.0551
  734MOL0     O98979   9.967   6.230   3.446  0.1032  0.4159 -0.7673
  734MOL0     C98980   9.841   6.218   3.398  0.1266 -0.3545  0.3932
  734MOL0     C98981   9.766   6.336   3.401  0.1589 -0.0982  0.6344
  734MOL0     C98982   9.640   6.333   3.346  0.7750  0.5470 -0.4685
  734MOL0     C98983   9.580   6.219   3.292  0.5269  0.0764 -0.1215
  734MOL0     C98984   9.441   6.228   3.238  0.3340 -0.1846 -0.4174
  734MOL0     O98985   9.375   6.347   3.272  0.0605  0.3759  0.7404
  734MOL0     C98986   9.251   6.357   3.218 -0.0169 -0.3515 -0.5865
  734MOL0     C98987   9.144   6.290   3.280 -0.1775  0.3409 -0.0637
  734MOL0     C98988   9.012   6.306   3.233  0.1324  0.5274  0.3384
  734MOL0     C98989   8.990   6.384   3.120 -0.4840 -0.2260 -0.3577
  734MOL0     O98990   8.861   6.406   3.075 -0.1105  0.0315  0.1402
  734MOL0     C98991   8.757   6.325   3.128 -0.6465  0.4316  0.4828
  734MOL0     C98992   8.613   6.374   3.078 -0.7661 -0.6118 -0.4099
  734MOL0     C98993   8.510   6.355   3.183  0.3763 -0.9159 -0.2860
  734MOL0     C98994   8.374   6.417   3.140  0.3982 -0.6151  0.3810
  734MOL0     C98995   8.243   6.375   3.207  0.4850 -0.2722 -0.5609
  734MOL0     C98996   8.224   6.419   3.355 -0.5328  0.1401  0.0979
  734MOL0     C98997   8.226   6.573   3.383  0.4466 -0.2300 -0.0882
  734MOL0     C98998   8.139   6.655   3.291 -0.0698 -0.6214  0.0113
  734MOL0    Cl98999   8.191   6.823   3.301  0.5178 -0.4271 -0.1110
  734MOL0     C99000   9.091   6.445   3.055 -0.2877 -1.2776  0.0580
  734MOL0     C99001   9.226   6.432   3.102 -0.4314 -0.1019 -0.7572
  734MOL0     O99002   9.391   6.133   3.181  0.1899 -0.1448  0.3216
  734MOL0     C99003   9.652   6.097   3.296 -1.0115  1.3486  0.1130
  734MOL0     C99004   9.788   6.098   3.338  0.2541 -0.9257 -0.6702
  734MOL0     N99005  10.482   6.175   3.295 -0.0109 -0.8343 -1.2293
  734MOL0     N99006  10.607   6.213   3.301  0.5643 -0.1264  0.5771
  734MOL0     C99007  10.667   5.451   3.051 -0.5365 -0.3075  0.0444
  734MOL0     C99008  10.556   5.451   2.976  0.2074  0.7450  0.3435
  734MOL0     C99009  10.196   5.462   2.726 -0.0274  0.0902  0.1384
  734MOL0     C99010  10.189   5.431   2.589 -1.1957  0.0682  0.2340
  734MOL0     C99011  10.074   5.455   2.510 -0.3969 -0.0455  0.4292
  734MOL0     C99012   9.970   5.530   2.568  0.0933  0.5470  0.0047
  734MOL0     O99013   9.856   5.572   2.504  0.1833 -0.0382 -0.1187
  734MOL0     C99014   9.757   5.468   2.478  0.2673  0.6314 -1.2429
  734MOL0     C99015   9.636   5.524   2.404  0.6849  0.4221  0.2423
  734MOL0     C99016   9.660   5.518   2.253 -0.4598  0.6354  0.3287
  734MOL0     C99017   9.542   5.569   2.164  0.4512  0.9309  0.6940
  734MOL0     C99018   9.536   5.710   2.169 -0.2639 -0.4695  0.8084
  734MOL0     C99019   9.523   5.831   2.156 -1.1338  0.8505  0.8605
  734MOL0     C99020   9.977   5.561   2.703  0.2030 -0.1962  0.4162
  734MOL0     C99021  10.086   5.528   2.788 -0.4055  0.3835  1.2640
  734MOL0     C99022  10.080   5.561   2.932  0.4895  0.8545 -0.2869
  734MOL0     H99023  10.468   5.779   2.988 -1.2695 -0.7695  0.9699
  734MOL0     H99024  10.674   5.790   3.113 -1.4077  0.7808  0.1505
  734MOL0     H99025  10.959   5.426   3.215  0.4541 -1.4225 -1.3308
  734MOL0     H99026  10.938   5.473   3.044 -0.0920  2.5612 -1.2328
  734MOL0     H99027  11.151   5.567   3.119  1.6622  3.5612 -0.5977
  734MOL0     H99028  11.085   5.641   3.259  2.4951 -4.0934  1.4240
  734MOL0     H99029  10.974   5.718   2.978  0.6562  2.0270 -1.0655
  734MOL0     H99030  11.126   5.773   3.032  0.8071 -0.6941  0.7020
  734MOL0     H99031  10.872   5.836   3.205  0.1679  1.9209  0.2883
  734MOL0     H99032  11.032   5.879   3.227 -1.2410  0.3242  0.7796
  734MOL0     H99033  11.034   6.004   3.026 -0.0963  1.1487  2.5959
  734MOL0     H99034  10.876   5.946   2.958  0.9143 -1.6159  0.1151
  734MOL0     H99035  10.789   6.040   3.190 -0.1133  2.2566 -0.2211
  734MOL0     H99036  10.941   6.117   3.195 -0.4491  2.8018  0.0244
  734MOL0     H99037  10.748   6.163   2.962  2.4351 -1.7296 -1.5969
  734MOL0     H99038  10.907   6.223   2.976 -0.1451  1.1062  0.8198
  734MOL0     H99039  10.837   6.328   3.202 -0.4396 -0.0345  0.5345
  734MOL0     H99040  10.751   6.397   3.067 -0.0201 -0.0833  0.9693
  734MOL0     H99041  10.516   6.319   3.007 -0.6210 -2.6581  0.8214
  734MOL0     H99042  10.263   6.306   3.080  2.0715 -0.4856 -0.2042
  734MOL0     H99043  10.243   6.140   3.091  1.3383  2.1089 -2.4426
  734MOL0     H99044  10.252   6.282   3.367 -2.5743  3.0226 -0.4927
  734MOL0     H99045  10.116   6.317   3.271 -0.2744 -0.3458  0.6942
  734MOL0     H99046  10.208   6.028   3.328  0.3047  0.4297 -0.0593
  734MOL0     H99047  10.072   6.077   3.230  0.5082 -0.3061  0.3316
  734MOL0     H99048  10.122   6.131   3.536  0.3151 -2.5695  0.3462
  734MOL0     H99049  10.004   6.021   3.478 -3.1604  2.1053  1.0796
  734MOL0     H99050   9.802   6.425   3.451  2.2869 -1.2116  1.2022
  734MOL0     H99051   9.590   6.429   3.348 -1.7758 -0.7092  0.7015
  734MOL0     H99052   9.158   6.240   3.375 -2.0637  1.6464  0.9648
  734MOL0     H99053   8.935   6.264   3.298 -0.4729  0.5518 -0.3539
  734MOL0     H99054   8.781   6.221   3.105  0.8220  0.5825  1.2279
  734MOL0     H99055   8.752   6.325   3.237 -0.6239 -0.0242  0.4854
  734MOL0     H99056   8.619   6.483   3.066  1.2352 -0.8774 -2.6671
  734MOL0     H99057   8.578   6.320   2.990 -1.6545 -0.8306  0.0726
  734MOL0     H99058   8.480   6.251   3.200  0.5648 -1.0099 -0.5217
  734MOL0     H99059   8.555   6.393   3.274  2.8137  0.4817 -1.9690
  734MOL0     H99060   8.376   6.389   3.034  3.8071 -0.2158  0.2093
  734MOL0     H99061   8.383   6.526   3.139  1.1761 -0.6765  0.2568
  734MOL0     H99062   8.225   6.267   3.210  0.2431 -0.2359 -0.6207
  734MOL0     H99063   8.160   6.417   3.148  0.9571  1.6114  0.0523
  734MOL0     H99064   8.137   6.379   3.408 -1.2729  0.7905 -0.5985
  734MOL0     H99065   8.309   6.376   3.410 -2.2561 -0.5809  2.3755
  734MOL0     H99066   8.332   6.599   3.376  0.7937 -0.9862  1.7811
  734MOL0     H99067   8.211   6.592   3.489 -2.0987 -0.6030 -0.3088
  734MOL0     H99068   8.159   6.614   3.191 -0.8524 -0.6328 -0.1472
  734MOL0     H99069   8.034   6.646   3.317 -0.5048 -0.8978 -1.6877
  734MOL0     H99070   9.077   6.501   2.963  0.0400 -2.4404 -0.7198
  734MOL0     H99071   9.313   6.473   3.052  0.1987 -0.4891  0.0071
  734MOL0     H99072   9.611   6.002   3.265  2.5384 -0.2785 -0.0998
  734MOL0     H99073   9.845   6.007   3.328 -0.2805 -1.1198 -2.1365
  734MOL0     H99074  10.717   5.359   3.076  1.4605  0.9368  0.8935
  734MOL0     H99075  10.530   5.352   2.942  1.4098  0.3716  0.4781
  734MOL0     H99076  10.284   5.400   2.546  0.5721  1.0799  3.0856
  734MOL0     H99077  10.079   5.445   2.403 -0.2268 -2.4451  0.6008
  734MOL0     H99078   9.725   5.424   2.573 -0.2260 -1.6507 -2.3907
  734MOL0     H99079   9.811   5.392   2.420 -0.7235  0.8657 -2.5041
  734MOL0     H99080   9.615   5.629   2.429  1.4011  0.5799  0.1927
  734MOL0     H99081   9.544   5.468   2.425  1.7489 -2.4581 -2.1050
  734MOL0     H99082   9.673   5.414   2.221  0.3077  1.1980 -1.3399
  734MOL0     H99083   9.747   5.581   2.229 -0.5625  1.6098  2.3105
  734MOL0     H99084   9.577   5.543   2.064 -3.2311 -2.0658 -0.0435
  734MOL0     H99085   9.445   5.523   2.185 -0.5385  1.9189 -1.4583
  734MOL0     H99086   9.508   5.937   2.155  0.3869  1.0816 -0.6156
  734MOL0     H99087   9.900   5.620   2.753  0.3711 -0.1113  0.5780
  734MOL0     H99088   9.975   5.580   2.956  0.6978  0.9487  0.5849
  734MOL0     H99089  10.123   5.477   2.987  4.4216  1.9297 -1.3681
  734MOL0     H99090  10.144   5.650   2.945  2.8466 -0.7722 -0.0910
  735MOL0     O99091   8.874   2.610   5.532  0.8167 -0.0164 -0.3033
  735MOL0     C99092   8.757   2.598   5.500 -0.0002  0.2045  0.2293
  735MOL0     O99093   8.655   2.666   5.556  0.1097  0.9622  0.0200
  735MOL0     C99094   8.683   2.799   5.575 -0.6607  0.0858  0.1903
  735MOL0     C99095   8.632   2.902   5.497  0.0055 -0.1495  0.2369
  735MOL0     C99096   8.653   3.035   5.529  0.6473  0.3599  0.0341
  735MOL0     C99097   8.727   3.071   5.635  0.2379 -0.8975  0.0322
  735MOL0     O99098   8.751   3.205   5.659 -0.0430  0.6629 -0.2605
  735MOL0     C99099   8.844   3.265   5.575  0.4843  0.6012  0.1732
  735MOL0     C99100   8.987   3.240   5.611  0.0577  0.5110  0.8748
  735MOL0     C99101   9.015   3.286   5.752  0.3016 -0.4994  0.7190
  735MOL0     C99102   9.152   3.231   5.800  0.7817  0.3977 -0.3360
  735MOL0     C99103   9.192   3.262   5.943 -0.0949 -0.0832  1.6077
  735MOL0     C99104   9.343   3.227   5.985  0.0625 -0.2586  1.0953
  735MOL0     C99105   9.458   3.311   5.911  1.5419  0.2114  0.2984
  735MOL0     C99106   9.598   3.283   5.967 -0.7840  0.1621 -0.0143
  735MOL0     N99107   9.700   3.365   5.905 -0.2406 -0.6381 -0.3922
  735MOL0     C99108   9.767   3.346   5.785 -0.8542  0.4064  0.3373
  735MOL0     C99109   9.860   3.439   5.777 -0.0425 -0.0701  0.3327
  735MOL0     C99110   9.968   3.430   5.674  0.8876 -0.5709  0.9994
  735MOL0     C99111  10.076   3.524   5.731 -0.2831  0.6819  0.3993
  735MOL0     C99112  10.215   3.494   5.662  0.5384  1.1101  0.5581
  735MOL0     C99113  10.304   3.601   5.687  0.4199  0.4265 -0.2460
  735MOL0     O99114  10.435   3.551   5.649  0.2708 -0.0489  0.1111
  735MOL0     C99115  10.550   3.604   5.696 -0.1268 -0.9931 -0.2769
  735MOL0     C99116  10.573   3.744   5.736 -0.0332  0.0471 -1.2796
  735MOL0     C99117  10.700   3.791   5.773  0.3257  0.2854  0.0560
  735MOL0     C99118  10.814   3.705   5.763  0.8857  0.5690  0.3074
  735MOL0     C99119  10.943   3.759   5.815 -0.4635 -0.5629  0.2132
  735MOL0     O99120  11.026   3.655   5.857  0.3193  0.1159 -0.3885
  735MOL0     C99121  11.155   3.677   5.910  0.8138 -0.8188  0.0490
  735MOL0     C99122  11.252   3.581   5.875  0.4861 -0.7741  0.3736
  735MOL0     C99123  11.382   3.593   5.927 -0.1462  0.3365  0.0781
  735MOL0     C99124  11.419   3.707   6.001  0.4688 -0.1201 -0.9435
  735MOL0     O99125  11.549   3.721   6.041  0.2307 -0.1117 -0.0369
  735MOL0     C99126  11.601   3.701   6.171 -0.2313  0.7879  0.1729
  735MOL0     C99127  11.748   3.687   6.165  0.1531 -0.4904  0.5288
  735MOL0     C99128  11.823   3.813   6.116 -0.2783 -0.2360  1.2496
  735MOL0     C99129  11.978   3.795   6.119  0.5331 -0.3370 -0.7743
  735MOL0     C99130  12.049   3.924   6.103  0.3767 -0.2716  0.4970
  735MOL0     C99131  12.210   3.917   6.106  0.3000 -0.2364  0.2868
  735MOL0     C99132  12.258   3.873   6.240  0.0445 -0.0859  0.2409
  735MOL0     C99133  12.396   3.824   6.238 -0.1831  0.8437  0.1066
  735MOL0    Cl99134  12.407   3.657   6.166  0.1993  0.1797 -0.6917
  735MOL0     C99135  11.321   3.806   6.029 -0.5161 -0.6821  0.7678
  735MOL0     C99136  11.191   3.782   5.995 -0.0785  0.1107 -0.3768
  735MOL0     O99137  10.970   3.874   5.807 -0.5080 -0.4822  0.1905
  735MOL0     C99138  10.799   3.571   5.717  0.1982 -0.2113  0.1587
  735MOL0     C99139  10.667   3.524   5.689  0.4081  0.5382 -0.2224
  735MOL0     N99140   9.837   3.522   5.883 -0.9127 -0.3983  0.2547
  735MOL0     N99141   9.739   3.477   5.956  0.3103 -0.1179 -0.9454
  735MOL0     C99142   8.778   2.974   5.723 -0.1330  0.6309  0.1001
  735MOL0     C99143   8.756   2.843   5.688  0.1568  0.2454 -0.1394
  735MOL0     C99144   8.721   2.490   5.406  0.2368 -0.5247  0.0570
  735MOL0     C99145   8.792   2.369   5.411 -0.1463 -1.2323 -0.4911
  735MOL0     C99146   8.776   2.273   5.320  0.1996  0.0357  0.0579
  735MOL0     C99147   8.691   2.282   5.216  0.2266  0.2344 -0.1455
  735MOL0     O99148   8.662   2.179   5.126 -0.1421 -0.3003 -0.5334
  735MOL0     C99149   8.557   2.177   5.025 -0.1557 -0.9782  0.4686
  735MOL0     C99150   8.433   2.116   5.096  0.3695 -0.1888 -0.0019
  735MOL0     C99151   8.308   2.096   5.003 -0.0420 -0.6998 -0.0006
  735MOL0     C99152   8.260   2.235   4.959 -0.0685  0.4877 -0.0714
  735MOL0     C99153   8.127   2.228   4.889 -1.1575  0.1109 -0.2777
  735MOL0     C99154   8.013   2.219   4.853  1.1661 -0.2265 -0.1640
  735MOL0     C99155   8.609   2.399   5.208  0.2103 -0.2178  0.4904
  735MOL0     C99156   8.625   2.498   5.300 -0.8373 -1.3758 -0.0561
  735MOL0     C99157   8.564   2.623   5.249 -0.0555 -0.3605 -0.2535
  735MOL0     H99158   8.575   2.876   5.408  0.1424 -0.7851  0.3308
  735MOL0     H99159   8.620   3.120   5.470  2.9275  0.3382 -1.3754
  735MOL0     H99160   8.834   3.222   5.475  0.1700 -2.6044  1.4737
  735MOL0     H99161   8.824   3.373   5.576  0.9879  0.7352  2.7670
  735MOL0     H99162   9.048   3.283   5.531 -0.1387  0.7014  0.8278
  735MOL0     H99163   8.994   3.131   5.607 -1.6510  0.2697  2.9118
  735MOL0     H99164   8.939   3.247   5.820 -0.0447  0.4055  0.8759
  735MOL0     H99165   9.013   3.396   5.756 -1.6531 -0.4629 -0.4619
  735MOL0     H99166   9.140   3.122   5.797  0.5948  0.3361  1.5687
  735MOL0     H99167   9.228   3.268   5.731  0.5947  0.6370 -0.4179
  735MOL0     H99168   9.191   3.371   5.950  1.9748  0.2020 -1.1000
  735MOL0     H99169   9.126   3.221   6.020  0.1645 -0.0308  1.8609
  735MOL0     H99170   9.345   3.253   6.091 -0.3144 -1.9207  1.5377
  735MOL0     H99171   9.367   3.122   5.966  3.5984  0.8280 -1.7436
  735MOL0     H99172   9.433   3.417   5.908 -1.4626 -0.4289 -1.9376
  735MOL0     H99173   9.466   3.288   5.805 -1.0519  0.9114 -0.1086
  735MOL0     H99174   9.599   3.305   6.074 -3.9145 -2.8157  0.7913
  735MOL0     H99175   9.625   3.178   5.956 -1.5273 -0.0821  0.4759
  735MOL0     H99176   9.742   3.270   5.713 -0.5096  2.3765 -2.0039
  735MOL0     H99177  10.012   3.330   5.667  1.0531 -0.6489  2.7881
  735MOL0     H99178   9.932   3.468   5.578 -0.0704  0.7064  1.8355
  735MOL0     H99179  10.056   3.632   5.728  2.2574  1.2338  0.2688
  735MOL0     H99180  10.082   3.512   5.840  1.4253 -4.3767 -0.0058
  735MOL0     H99181  10.197   3.484   5.554 -3.0321  2.4230  0.8949
  735MOL0     H99182  10.251   3.397   5.694 -0.7050  1.2150  2.3961
  735MOL0     H99183  10.309   3.631   5.792  1.6934  1.3978 -0.5640
  735MOL0     H99184  10.289   3.692   5.628  2.3957  1.9487  1.4411
  735MOL0     H99185  10.493   3.816   5.720  0.5619  0.8967 -0.5259
  735MOL0     H99186  10.708   3.899   5.780  1.0599  0.5852 -3.4770
  735MOL0     H99187  11.218   3.485   5.835  2.4667 -1.3653  0.0088
  735MOL0     H99188  11.457   3.519   5.902  0.2264 -0.3021  2.8059
  735MOL0     H99189  11.581   3.788   6.234 -1.7420  0.9921 -0.5229
  735MOL0     H99190  11.557   3.608   6.210  1.0139  0.1271  0.0273
  735MOL0     H99191  11.779   3.656   6.266 -0.9979  0.6128  1.2577
  735MOL0     H99192  11.767   3.609   6.091 -2.1215  0.1306 -0.7885
  735MOL0     H99193  11.790   3.830   6.013  1.6789  0.6819  0.7472
  735MOL0     H99194  11.792   3.901   6.174 -0.2417  0.6153  0.0209
  735MOL0     H99195  11.997   3.718   6.043 -1.4568 -1.7925  0.1021
  735MOL0     H99196  12.000   3.756   6.219  0.1631 -1.0750 -0.9727
  735MOL0     H99197  12.024   4.003   6.175 -1.3209 -1.5759  1.3915
  735MOL0     H99198  12.022   3.965   6.005 -2.5759  1.3651  1.8579
  735MOL0     H99199  12.246   3.843   6.034  1.9244  1.0449 -0.2770
  735MOL0     H99200  12.245   4.017   6.079 -0.2004  0.9105  3.4222
  735MOL0     H99201  12.191   3.797   6.278 -0.0147  1.0026  2.4765
  735MOL0     H99202  12.250   3.961   6.305 -0.7498  0.8010 -1.0118
  735MOL0     H99203  12.470   3.888   6.190 -0.0795  1.2205  0.7599
  735MOL0     H99204  12.428   3.808   6.342 -1.4974  0.7397  0.5117
  735MOL0     H99205  11.342   3.901   6.076 -0.0527  0.6581 -1.9620
  735MOL0     H99206  11.117   3.854   6.027  0.0904 -0.2059  0.7590
  735MOL0     H99207  10.889   3.512   5.702  0.7514  0.5633  0.3714
  735MOL0     H99208  10.659   3.418   5.667  0.8987 -0.4066  3.5547
  735MOL0     H99209   8.813   3.005   5.821  0.4102 -2.0763  0.8450
  735MOL0     H99210   8.798   2.770   5.757 -1.4056 -1.5108 -0.9468
  735MOL0     H99211   8.865   2.348   5.488  0.1191  1.8309  0.2404
  735MOL0     H99212   8.829   2.180   5.339 -0.4792 -0.1547  1.1422
  735MOL0     H99213   8.593   2.110   4.946  3.0590 -2.2231  2.7897
  735MOL0     H99214   8.528   2.272   4.980  2.9554  0.7422  1.7605
  735MOL0     H99215   8.412   2.194   5.170  2.4449 -1.6937  2.3491
  735MOL0     H99216   8.462   2.020   5.139  2.0933  0.3954  0.2239
  735MOL0     H99217   8.236   2.043   5.067  0.1110  0.9167  1.6119
  735MOL0     H99218   8.337   2.033   4.919  0.5290 -0.4024 -0.0277
  735MOL0     H99219   8.247   2.310   5.037 -2.2381 -0.0308  0.1344
  735MOL0     H99220   8.333   2.272   4.887  1.2903  1.3469  1.6553
  735MOL0     H99221   7.906   2.222   4.842  0.7638 -1.3134  2.6553
  735MOL0     H99222   8.545   2.416   5.122 -1.8658 -3.5013  1.1743
  735MOL0     H99223   8.524   2.673   5.338 -0.4822 -1.1473  0.0007
  735MOL0     H99224   8.632   2.692   5.198 -0.9978  0.1502 -0.8471
  735MOL0     H99225   8.480   2.603   5.181  1.9433 -3.5515 -2.0210
  736MOL0     O99226   9.403   1.198   3.695 -0.1655 -0.1549 -0.5793
  736MOL0     C99227   9.320   1.271   3.755 -0.5170  0.5361  0.0779
  736MOL0     O99228   9.330   1.408   3.776 -0.4333  0.1308 -0.9021
  736MOL0     C99229   9.451   1.465   3.739 -0.1978  0.1834  0.3532
  736MOL0     C99230   9.570   1.453   3.811 -0.9408 -0.4322  0.8297
  736MOL0     C99231   9.690   1.504   3.761 -0.4496  0.1330  0.3641
  736MOL0     C99232   9.693   1.571   3.635  0.5566 -0.1491  0.0044
  736MOL0     O99233   9.806   1.610   3.573  0.2110  0.4928 -0.0412
  736MOL0     C99234   9.917   1.640   3.655 -0.5892 -0.4823  0.5085
  736MOL0     C99235  10.025   1.694   3.558  0.1858 -0.4161 -0.3439
  736MOL0     C99236  10.163   1.704   3.626  0.8733 -1.1564 -0.0635
  736MOL0     C99237  10.276   1.772   3.536  0.3219  0.0926 -0.0450
  736MOL0     C99238  10.237   1.917   3.500  0.1621 -0.2077  0.3867
  736MOL0     C99239  10.358   1.988   3.437 -0.6870 -0.7772 -0.2226
  736MOL0     C99240  10.314   2.128   3.399  0.2346  0.3548 -0.3565
  736MOL0     C99241  10.416   2.183   3.305  0.6723  0.1222  0.2804
  736MOL0     N99242  10.527   2.253   3.378  0.7358 -0.0892 -0.3457
  736MOL0     C99243  10.516   2.366   3.455  0.4921  0.3328  0.0346
  736MOL0     C99244  10.638   2.398   3.489  0.4221  0.2335 -1.0326
  736MOL0     C99245  10.683   2.512   3.583  0.4390  0.8250  0.7761
  736MOL0     C99246  10.675   2.649   3.510 -0.3202 -0.1505  0.4679
  736MOL0     C99247  10.740   2.759   3.590  0.0506  0.2252  0.0331
  736MOL0     C99248  10.892   2.766   3.600  0.3431  0.7735  0.4663
  736MOL0     O99249  10.916   2.847   3.720  0.0906  0.4981 -0.4191
  736MOL0     C99250  11.048   2.877   3.740  0.0904 -0.2695  0.2103
  736MOL0     C99251  11.083   2.990   3.819 -0.2703  0.7814 -0.2928
  736MOL0     C99252  11.217   3.019   3.855 -0.4647  0.6698 -1.0911
  736MOL0     C99253  11.322   2.944   3.807 -0.2116  0.3189  0.3561
  736MOL0     C99254  11.461   2.969   3.857  0.0602  0.3988 -0.1989
  736MOL0     O99255  11.480   3.062   3.942 -0.1572  0.0767 -0.2340
  736MOL0     C99256  11.616   3.092   3.965  0.3113  0.6462 -1.2321
  736MOL0     C99257  11.697   3.170   3.875 -0.3350  0.1879  0.2109
  736MOL0     C99258  11.829   3.207   3.906  0.7633  0.0819 -0.4180
  736MOL0     C99259  11.898   3.154   4.014  0.5709 -0.7214  0.3069
  736MOL0     O99260  12.026   3.189   4.025 -0.5590 -0.3875 -0.6594
  736MOL0     C99261  12.102   3.126   4.123 -0.3645 -0.7227  0.0183
  736MOL0     C99262  12.245   3.146   4.086 -0.3622 -0.6288 -0.6448
  736MOL0     C99263  12.334   3.079   4.193 -0.5277 -0.2189  0.0770
  736MOL0     C99264  12.480   3.116   4.163 -0.4466  0.3538  0.1506
  736MOL0     C99265  12.579   3.036   4.249  0.0823  0.5219  0.6879
  736MOL0     C99266  12.727   3.083   4.221  0.4781  0.2086 -0.5876
  736MOL0     C99267  12.822   2.995   4.304  0.7519 -0.5652 -0.8025
  736MOL0     C99268  12.960   3.028   4.271 -0.3273 -0.5085  0.4812
  736MOL0    Cl99269  12.986   2.980   4.102 -0.2437  0.3328 -0.0802
  736MOL0     C99270  11.818   3.072   4.101  0.3940 -1.1851 -0.6569
  736MOL0     C99271  11.680   3.043   4.078 -0.5574  0.0935  0.8103
  736MOL0     O99272  11.545   2.907   3.793 -0.1799 -0.1740 -0.5956
  736MOL0     C99273  11.296   2.834   3.723  0.0348  0.0863  0.4723
  736MOL0     C99274  11.160   2.805   3.685  0.7311 -0.4207 -0.2303
  736MOL0     N99275  10.724   2.313   3.428  0.0918  0.3319 -0.1646
  736MOL0     N99276  10.658   2.219   3.360 -0.1822 -0.5871 -0.0015
  736MOL0     C99277   9.572   1.591   3.572 -0.7825 -0.0494  0.2838
  736MOL0     C99278   9.461   1.533   3.615  0.0671 -0.1031  0.1202
  736MOL0     C99279   9.207   1.196   3.789  0.3588  0.4676 -0.0729
  736MOL0     C99280   9.141   1.117   3.688  0.3409 -0.2868  0.4972
  736MOL0     C99281   9.021   1.051   3.726 -0.1276  0.4656 -0.0708
  736MOL0     C99282   8.959   1.071   3.849 -0.3443  0.3152  0.2025
  736MOL0     O99283   8.840   1.002   3.856  0.1880 -0.6039 -0.1199
  736MOL0     C99284   8.747   1.029   3.964 -1.5427 -0.1929  0.4168
  736MOL0     C99285   8.705   1.173   3.961  0.1353  0.2476 -0.7414
  736MOL0     C99286   8.685   1.245   3.824 -0.0990 -0.5065 -0.0769
  736MOL0     C99287   8.662   1.393   3.844 -0.5463 -0.3367 -0.0757
  736MOL0     C99288   8.515   1.417   3.861 -0.1553 -0.0603  0.4604
  736MOL0     C99289   8.394   1.423   3.874  0.3049 -0.1389 -0.5111
  736MOL0     C99290   9.027   1.149   3.944  1.4882  0.5384  0.6444
  736MOL0     C99291   9.147   1.207   3.919  0.2019  0.2383  0.7949
  736MOL0     C99292   9.208   1.294   4.024 -0.3341  0.5034  0.0167
  736MOL0     H99293   9.578   1.406   3.908  0.4599 -1.4391  0.2581
  736MOL0     H99294   9.786   1.492   3.809 -0.1576  1.5089  0.1665
  736MOL0     H99295   9.900   1.717   3.730  1.1038 -0.4251  0.8710
  736MOL0     H99296   9.957   1.550   3.703 -2.9568 -1.0513  1.5963
  736MOL0     H99297   9.982   1.786   3.519  2.2931  0.4438 -0.7511
  736MOL0     H99298  10.035   1.619   3.479 -0.3319  0.6483 -1.4408
  736MOL0     H99299  10.203   1.608   3.660  1.7049 -0.5173  0.7949
  736MOL0     H99300  10.141   1.770   3.710 -1.5434 -0.1576 -1.3738
  736MOL0     H99301  10.375   1.758   3.580  0.5701 -4.5375 -1.4716
  736MOL0     H99302  10.284   1.721   3.440 -0.1167  0.6018 -0.3564
  736MOL0     H99303  10.156   1.909   3.426  1.5606  1.9440 -1.5172
  736MOL0     H99304  10.196   1.969   3.587 -1.0455 -1.0837  0.3722
  736MOL0     H99305  10.445   1.994   3.503  0.6671  0.0156 -1.9896
  736MOL0     H99306  10.376   1.921   3.352 -2.3144 -1.1822 -0.2919
  736MOL0     H99307  10.304   2.191   3.488 -1.2824 -0.9147  0.4090
  736MOL0     H99308  10.221   2.127   3.341 -0.4409  2.2105  0.6022
  736MOL0     H99309  10.464   2.110   3.240  1.2761  0.4324  0.3673
  736MOL0     H99310  10.378   2.264   3.241 -0.2204 -1.0307 -0.6880
  736MOL0     H99311  10.426   2.421   3.482  1.3087  1.7580 -0.0516
  736MOL0     H99312  10.618   2.506   3.671  0.4458  2.1628  0.8920
  736MOL0     H99313  10.785   2.492   3.616  0.3165 -0.8343  0.2624
  736MOL0     H99314  10.721   2.645   3.410 -1.7632  0.1832 -0.2408
  736MOL0     H99315  10.570   2.674   3.493 -0.1456  0.1827 -0.1714
  736MOL0     H99316  10.695   2.760   3.690 -1.9401 -2.4717 -0.7470
  736MOL0     H99317  10.720   2.858   3.547 -1.2670 -0.2263 -0.4263
  736MOL0     H99318  10.925   2.814   3.508  0.3809 -0.9151 -0.4382
  736MOL0     H99319  10.936   2.667   3.615  1.4447  0.9244 -1.5078
  736MOL0     H99320  11.010   3.062   3.856  0.8834  1.6813  0.2907
  736MOL0     H99321  11.239   3.101   3.922  0.0132 -0.9871  0.9091
  736MOL0     H99322  11.650   3.212   3.787 -0.3345 -0.2008  0.0227
  736MOL0     H99323  11.870   3.281   3.838  1.8036  0.2921  0.4211
  736MOL0     H99324  12.086   3.173   4.220  1.3925  0.9280 -0.4294
  736MOL0     H99325  12.081   3.019   4.130  0.1959 -0.9461 -1.3770
  736MOL0     H99326  12.278   3.122   3.985  1.0751  0.1073 -0.3767
  736MOL0     H99327  12.265   3.252   4.105 -1.6597 -0.7888  2.1695
  736MOL0     H99328  12.304   3.113   4.292 -1.7372 -0.5214 -0.1638
  736MOL0     H99329  12.326   2.970   4.186 -0.7220 -0.1304 -1.3687
  736MOL0     H99330  12.493   3.221   4.192 -1.1530  0.4113  0.2816
  736MOL0     H99331  12.498   3.108   4.055  0.9437  4.2955 -0.0863
  736MOL0     H99332  12.577   2.927   4.239  1.8916  0.5753 -0.8619
  736MOL0     H99333  12.560   3.068   4.351  1.0623  1.3120  0.6394
  736MOL0     H99334  12.741   3.064   4.115 -0.1723 -1.3223 -0.4255
  736MOL0     H99335  12.747   3.187   4.246  4.1572 -0.4513 -0.2110
  736MOL0     H99336  12.805   2.888   4.286  1.0065 -0.4136 -2.0355
  736MOL0     H99337  12.817   3.011   4.412 -1.5840 -1.2166 -0.7658
  736MOL0     H99338  12.987   3.132   4.291 -0.0786 -0.3942 -0.4184
  736MOL0     H99339  13.022   2.966   4.337 -1.6403 -2.4453 -0.0044
  736MOL0     H99340  11.865   3.011   4.177  0.2904 -2.6191 -1.7172
  736MOL0     H99341  11.620   2.981   4.144  0.0017  1.2778  2.5010
  736MOL0     H99342  11.373   2.765   3.693 -1.2751 -1.3548  0.3105
  736MOL0     H99343  11.131   2.724   3.620 -1.5418 -1.2816  1.7261
  736MOL0     H99344   9.579   1.644   3.477 -3.2841 -0.6784 -0.3242
  736MOL0     H99345   9.372   1.554   3.556  2.5143  1.0061 -3.5234
  736MOL0     H99346   9.178   1.093   3.589 -0.0880  0.9968  0.0193
  736MOL0     H99347   8.979   1.002   3.638  1.0545  0.1437 -0.4825
  736MOL0     H99348   8.796   0.999   4.057  2.1690  0.7271 -1.0403
  736MOL0     H99349   8.656   0.973   3.941 -1.6937  1.1512 -2.8258
  736MOL0     H99350   8.772   1.231   4.026  1.3599  1.6082 -3.0899
  736MOL0     H99351   8.607   1.166   4.009 -0.0186  1.0573 -0.9246
  736MOL0     H99352   8.600   1.195   3.777 -1.5410  2.1006 -0.4416
  736MOL0     H99353   8.777   1.236   3.765  1.9720 -1.8838  3.1178
  736MOL0     H99354   8.718   1.444   3.922 -0.8246  0.5625 -0.4462
  736MOL0     H99355   8.693   1.445   3.753 -0.6892  2.6189  1.4216
  736MOL0     H99356   8.287   1.429   3.882  0.4194  0.9862  0.4268
  736MOL0     H99357   8.973   1.172   4.036  0.4857 -3.6612  1.3225
  736MOL0     H99358   9.308   1.334   4.004  1.7120 -3.7464  0.7387
  736MOL0     H99359   9.137   1.369   4.061  0.1660  0.3028  1.4395
  736MOL0     H99360   9.231   1.231   4.110  0.3964 -0.8854 -1.1554
  737MOL0     O99361   0.164   5.728   6.568  0.3784 -0.1380  0.6954
  737MOL0     C99362   0.124   5.653   6.655 -0.5248 -0.0666  0.3734
  737MOL0     O99363   0.209   5.560   6.718 -0.5119  0.2539  0.3618
  737MOL0     C99364   0.345   5.565   6.689 -0.1296  0.9467  0.6757
  737MOL0     C99365   0.435   5.617   6.786  0.0360  0.4961  0.6385
  737MOL0     C99366   0.571   5.635   6.760  0.1742 -0.2600 -0.2859
  737MOL0     C99367   0.621   5.595   6.632  0.3460 -0.3405 -0.1725
  737MOL0     O99368   0.750   5.598   6.600 -0.0498  0.2999 -0.1098
  737MOL0     C99369   0.855   5.606   6.703 -0.1168  0.1012  0.6454
  737MOL0     C99370   0.981   5.630   6.628  0.2778 -0.0091 -0.4743
  737MOL0     C99371   1.100   5.672   6.711 -1.0604 -0.0629 -0.9607
  737MOL0     C99372   1.164   5.560   6.804 -0.1781 -0.5438 -0.0518
  737MOL0     C99373   1.280   5.621   6.894  0.2583  0.2129  0.0799
  737MOL0     C99374   1.406   5.646   6.811 -0.7762 -0.0868  0.7639
  737MOL0     C99375   1.515   5.675   6.917  0.3980  0.2087  0.2658
  737MOL0     C99376   1.653   5.665   6.866  0.3283 -1.1326 -0.2160
  737MOL0     N99377   1.687   5.777   6.782  0.6757 -0.2206  0.0434
  737MOL0     C99378   1.701   5.785   6.646 -0.7486 -0.7020 -0.0097
  737MOL0     C99379   1.682   5.914   6.615  0.5090  0.4144  0.1405
  737MOL0     C99380   1.683   5.974   6.480  1.3129  0.7833 -0.5549
  737MOL0     C99381   1.553   6.054   6.462  0.0893  0.6729 -0.3033
  737MOL0     C99382   1.541   6.098   6.315  0.3935  0.3333 -0.7041
  737MOL0     C99383   1.665   6.167   6.270  0.5020  0.1736  0.2568
  737MOL0     O99384   1.748   6.066   6.201 -0.0426 -0.5187  0.2951
  737MOL0     C99385   1.886   6.078   6.194  0.6876 -0.0250 -0.1791
  737MOL0     C99386   1.957   6.200   6.224 -0.3859  0.0806  0.1206
  737MOL0     C99387   2.094   6.202   6.213 -0.7245  0.0202 -0.6978
  737MOL0     C99388   2.163   6.092   6.172 -0.2331 -0.0729  0.6967
  737MOL0     C99389   2.311   6.107   6.153  0.8313  0.3288 -0.0126
  737MOL0     O99390   2.371   6.211   6.203  0.9683  0.4836  0.1462
  737MOL0     C99391   2.507   6.203   6.219  0.8824  0.8428  0.8472
  737MOL0     C99392   2.593   6.217   6.110 -0.0501 -0.4878  0.0738
  737MOL0     C99393   2.734   6.209   6.134 -0.2176 -0.3410  0.6589
  737MOL0     C99394   2.777   6.182   6.261 -0.2942  0.5055  0.4757
  737MOL0     O99395   2.909   6.175   6.267 -0.0615  0.1236  0.6366
  737MOL0     C99396   2.973   6.116   6.386 -0.2857 -1.2410  0.9637
  737MOL0     C99397   3.122   6.134   6.366 -0.0870  0.0776 -0.8318
  737MOL0     C99398   3.208   6.022   6.441 -0.4487 -0.8769  0.7158
  737MOL0     C99399   3.355   6.033   6.390  0.3795 -0.6687  0.7095
  737MOL0     C99400   3.452   5.969   6.489 -0.2099 -0.1913  0.2518
  737MOL0     C99401   3.595   5.963   6.441 -0.0860 -0.2542  0.1819
  737MOL0     C99402   3.667   5.883   6.554 -0.5285  0.2112  0.9970
  737MOL0     C99403   3.810   5.921   6.533 -0.6172 -0.1841 -0.8249
  737MOL0    Cl99404   3.934   5.822   6.632  0.3058  0.2830  0.4161
  737MOL0     C99405   2.693   6.173   6.368  0.0532  0.9049 -0.2334
  737MOL0     C99406   2.556   6.183   6.347 -0.7651  0.6858 -0.3904
  737MOL0     O99407   2.369   6.011   6.098  0.5098 -0.5109 -0.3914
  737MOL0     C99408   2.092   5.970   6.141 -1.5757  0.3265 -1.1634
  737MOL0     C99409   1.960   5.966   6.161  0.6737  0.3203 -0.2102
  737MOL0     N99410   1.678   5.982   6.743 -0.7406 -0.2129  1.1555
  737MOL0     N99411   1.680   5.896   6.840  0.1686  0.2339  0.0647
  737MOL0     C99412   0.533   5.534   6.547 -0.5615  0.4421  0.7640
  737MOL0     C99413   0.394   5.521   6.566  0.1769  0.2735 -0.1521
  737MOL0     C99414  -0.014   5.675   6.707 -0.4621  0.1472 -0.1630
  737MOL0     C99415  -0.037   5.680   6.845 -0.3919  0.1868 -0.7683
  737MOL0     C99416  -0.167   5.709   6.900 -0.2006  0.7150  0.1366
  737MOL0     C99417  -0.272   5.749   6.817 -0.0574 -1.1144  0.4974
  737MOL0     O99418  -0.392   5.796   6.858  0.3289 -0.1461  0.3598
  737MOL0     C99419  -0.419   5.829   6.995  0.1998  0.8673  0.0690
  737MOL0     C99420  -0.560   5.903   7.013  0.0450 -1.0183 -0.1453
  737MOL0     C99421  -0.668   5.807   6.970 -0.3697  0.2107  0.0798
  737MOL0     C99422  -0.810   5.855   6.979  0.8892  0.0425 -0.0006
  737MOL0     C99423  -0.846   5.885   7.115 -0.1262 -0.5899 -0.8630
  737MOL0     C99424  -0.868   5.898   7.237 -0.8741 -1.3519  0.2089
  737MOL0     C99425  -0.246   5.742   6.678  0.2734  0.4042  0.6800
  737MOL0     C99426  -0.117   5.711   6.625 -0.6932  0.2673  0.0695
  737MOL0     C99427  -0.113   5.708   6.470  0.3161 -0.8716 -0.0914
  737MOL0     H99428   0.392   5.643   6.882 -2.0590 -0.3652 -0.0070
  737MOL0     H99429   0.614   5.681   6.848 -1.3298 -1.9201  1.4180
  737MOL0     H99430   0.837   5.683   6.779  0.5008 -0.2589  1.1691
  737MOL0     H99431   0.865   5.509   6.752  1.6631  0.5092  1.1635
  737MOL0     H99432   0.948   5.706   6.557 -2.1933  0.0250  0.6135
  737MOL0     H99433   0.999   5.538   6.572 -1.6251 -0.0001 -1.1622
  737MOL0     H99434   1.077   5.754   6.779 -0.0842 -0.0288 -0.6447
  737MOL0     H99435   1.178   5.705   6.641  2.5571 -3.3574  1.0878
  737MOL0     H99436   1.091   5.517   6.873  2.7060 -1.3697  2.7331
  737MOL0     H99437   1.209   5.482   6.743  3.2472 -0.8649  2.5373
  737MOL0     H99438   1.242   5.714   6.936 -3.4703 -0.6230 -1.1071
  737MOL0     H99439   1.305   5.555   6.978  1.8087  0.8284  0.1351
  737MOL0     H99440   1.433   5.558   6.752  2.1444  0.8973  0.4845
  737MOL0     H99441   1.401   5.735   6.749 -0.9809 -1.9370 -2.0599
  737MOL0     H99442   1.506   5.597   6.993  3.4793 -2.2680 -1.6563
  737MOL0     H99443   1.507   5.769   6.972  0.7944 -1.0333  2.5413
  737MOL0     H99444   1.721   5.664   6.952 -1.0118  0.3929  0.9117
  737MOL0     H99445   1.663   5.562   6.829  0.0275 -1.2371 -0.0061
  737MOL0     H99446   1.718   5.701   6.580  0.2355 -0.4745 -0.0648
  737MOL0     H99447   1.778   6.027   6.467  0.4370  2.4457 -0.4877
  737MOL0     H99448   1.682   5.893   6.407 -0.1618  1.5280 -1.4131
  737MOL0     H99449   1.467   5.988   6.474  0.8333 -0.5982 -1.6099
  737MOL0     H99450   1.552   6.136   6.534  0.3814  0.5844 -0.1955
  737MOL0     H99451   1.460   6.168   6.293  0.9593  1.3497  0.3469
  737MOL0     H99452   1.509   6.010   6.259 -0.1199  0.2851 -0.3460
  737MOL0     H99453   1.716   6.213   6.355  0.9837 -0.9871  0.6220
  737MOL0     H99454   1.639   6.233   6.186  3.3598 -0.4882 -1.2903
  737MOL0     H99455   1.908   6.289   6.263  0.4600  0.5074  0.2303
  737MOL0     H99456   2.136   6.299   6.238 -3.0058  0.6445  1.1190
  737MOL0     H99457   2.553   6.237   6.011 -1.9781 -0.7391  0.7706
  737MOL0     H99458   2.803   6.226   6.052  2.3095 -2.7165  2.1331
  737MOL0     H99459   2.941   6.164   6.479 -1.5837  0.1197 -0.1404
  737MOL0     H99460   2.937   6.013   6.381 -1.6822 -0.7613 -4.1857
  737MOL0     H99461   3.153   6.120   6.262  3.0016  1.0086 -0.1610
  737MOL0     H99462   3.159   6.235   6.385  1.0696 -0.0378 -2.2495
  737MOL0     H99463   3.196   6.055   6.544 -2.7389  3.2414 -0.6279
  737MOL0     H99464   3.173   5.920   6.425  0.8776 -1.3337  0.5980
  737MOL0     H99465   3.405   6.130   6.388 -0.8285 -0.0180  1.3034
  737MOL0     H99466   3.366   5.991   6.289 -0.0846  0.9491 -0.0429
  737MOL0     H99467   3.418   5.870   6.519 -0.6557 -1.1221 -2.9401
  737MOL0     H99468   3.454   6.035   6.576  2.9161 -2.7849  2.4019
  737MOL0     H99469   3.574   5.900   6.354 -0.9735 -0.5101  0.5660
  737MOL0     H99470   3.635   6.060   6.410 -0.2106 -0.2000  0.1909
  737MOL0     H99471   3.658   5.777   6.532 -1.5791  0.5424 -0.2904
  737MOL0     H99472   3.635   5.921   6.652 -0.1382 -0.2766  1.3170
  737MOL0     H99473   3.845   5.924   6.429 -3.8030 -2.0863 -2.0830
  737MOL0     H99474   3.815   6.024   6.569  1.8489  0.2019 -2.0413
  737MOL0     H99475   2.721   6.148   6.470  0.0795 -1.8397 -0.8183
  737MOL0     H99476   2.484   6.189   6.429 -0.7984  2.3768 -0.4982
  737MOL0     H99477   2.145   5.878   6.116 -2.0080 -0.0913 -0.5869
  737MOL0     H99478   1.917   5.868   6.148  0.1978  0.7466 -2.1991
  737MOL0     H99479   0.575   5.503   6.452  1.2904 -4.2528  2.7938
  737MOL0     H99480   0.330   5.502   6.480  3.3552  0.0406 -2.7035
  737MOL0     H99481   0.043   5.655   6.914 -1.1930  0.6023  0.3458
  737MOL0     H99482  -0.178   5.725   7.007  2.0961  2.3513  0.2151
  737MOL0     H99483  -0.343   5.895   7.038  1.7703 -1.4966  1.1892
  737MOL0     H99484  -0.415   5.740   7.059  1.4675  0.0180 -1.1114
  737MOL0     H99485  -0.575   5.999   6.963 -0.6233 -2.2429 -2.4370
  737MOL0     H99486  -0.575   5.911   7.121  0.0488  1.3783 -0.2537
  737MOL0     H99487  -0.653   5.718   7.032 -0.4983 -1.3735 -2.0737
  737MOL0     H99488  -0.660   5.774   6.866 -1.3897  0.2136 -0.0034
  737MOL0     H99489  -0.828   5.943   6.916  0.3207  1.8770  2.5394
  737MOL0     H99490  -0.880   5.776   6.952  1.8290 -0.1355 -2.1105
  737MOL0     H99491  -0.874   5.918   7.342  0.3643  1.3576 -0.1421
  737MOL0     H99492  -0.319   5.774   6.605  0.3879 -1.9636 -0.5494
  737MOL0     H99493  -0.201   5.657   6.429 -0.5084  0.9528 -0.6957
  737MOL0     H99494  -0.114   5.811   6.434 -1.3452 -1.4785 -1.9815
  737MOL0     H99495  -0.025   5.658   6.431  0.5739 -2.6197  2.4822
  738MOL0     O99496   5.273   4.452  10.249  0.9060  0.6052 -0.0273
  738MOL0     C99497   5.224   4.353  10.188 -0.1927  0.2687 -0.0894
  738MOL0     O99498   5.242   4.321  10.063  0.5096  0.3710 -1.0075
  738MOL0     C99499   5.316   4.392   9.983  0.2369 -0.5456  0.1768
  738MOL0     C99500   5.446   4.349   9.951  0.0076 -0.8050  0.3368
  738MOL0     C99501   5.536   4.431   9.883 -0.6622  0.4179 -0.0845
  738MOL0     C99502   5.494   4.553   9.833  0.4561 -0.0634  0.1347
  738MOL0     O99503   5.555   4.647   9.757 -0.3260 -0.0710  0.6105
  738MOL0     C99504   5.671   4.613   9.685  0.7313 -0.5330 -0.3630
  738MOL0     C99505   5.721   4.741   9.616 -0.8482 -0.3754 -0.2140
  738MOL0     C99506   5.867   4.717   9.564 -0.5839 -0.7564 -0.0466
  738MOL0     C99507   5.929   4.842   9.491  0.0888  0.6831 -0.1845
  738MOL0     C99508   6.076   4.825   9.457  0.1945  0.2705 -0.2930
  738MOL0     C99509   6.130   4.960   9.411 -0.4692  0.0837  0.1356
  738MOL0     C99510   6.285   4.971   9.442 -0.4765 -0.1205  0.4196
  738MOL0     C99511   6.365   4.889   9.339  0.5898  0.0813  0.1182
  738MOL0     N99512   6.351   4.948   9.206 -0.9547  0.0595 -1.0399
  738MOL0     C99513   6.429   5.060   9.180  0.9205 -0.0028  0.5968
  738MOL0     C99514   6.377   5.109   9.062 -0.4114  0.1640 -0.5872
  738MOL0     C99515   6.424   5.233   8.982 -0.1266 -0.3811  0.6561
  738MOL0     C99516   6.553   5.197   8.907 -0.4801  0.2392 -0.6000
  738MOL0     C99517   6.560   5.278   8.778  0.4541  0.0828 -0.3278
  738MOL0     C99518   6.707   5.269   8.714 -0.0708  0.9058 -0.1291
  738MOL0     O99519   6.788   5.343   8.806  0.0050  0.0360  0.7394
  738MOL0     C99520   6.918   5.374   8.772  0.1762  0.0144  0.6052
  738MOL0     C99521   7.004   5.293   8.700  0.2914 -0.2789 -0.8136
  738MOL0     C99522   7.130   5.330   8.653 -0.2665 -0.2219 -0.2172
  738MOL0     C99523   7.170   5.465   8.676  0.4819 -0.1774 -0.6853
  738MOL0     C99524   7.308   5.512   8.648 -0.3922 -0.8768 -0.1192
  738MOL0     O99525   7.354   5.648   8.670  0.3691  0.5860 -0.2405
  738MOL0     C99526   7.490   5.665   8.663  0.5089  0.1924 -0.3568
  738MOL0     C99527   7.585   5.567   8.709 -0.8271 -0.3407 -0.5920
  738MOL0     C99528   7.724   5.583   8.676  0.3729  0.1551 -0.3910
  738MOL0     C99529   7.766   5.696   8.602 -0.1500 -0.2915 -0.6299
  738MOL0     O99530   7.900   5.725   8.568  0.4695  0.2858 -0.4236
  738MOL0     C99531   7.988   5.606   8.552 -0.3226  0.0515  0.5089
  738MOL0     C99532   8.103   5.646   8.464  0.6289 -0.6216  0.8911
  738MOL0     C99533   8.217   5.548   8.489  0.5039  0.5686  0.1034
  738MOL0     C99534   8.319   5.565   8.379 -1.2593  1.1131  0.0947
  738MOL0     C99535   8.444   5.478   8.413 -0.6245 -0.1724  0.3801
  738MOL0     C99536   8.574   5.552   8.462 -0.4951  0.7023 -0.6924
  738MOL0     C99537   8.555   5.627   8.591 -0.0558  0.6127  0.2080
  738MOL0     C99538   8.682   5.678   8.658  0.6285  0.5186 -0.1451
  738MOL0    Cl99539   8.793   5.539   8.691 -0.1815  0.1116  0.4030
  738MOL0     C99540   7.672   5.794   8.573  0.6905 -0.5527 -0.4912
  738MOL0     C99541   7.536   5.778   8.602  0.1823 -0.0502 -1.2061
  738MOL0     O99542   7.376   5.418   8.599 -0.1136  0.5325  0.0539
  738MOL0     C99543   7.085   5.546   8.755 -0.4529  0.4633 -0.2441
  738MOL0     C99544   6.958   5.503   8.797 -0.1418 -0.3846  0.1729
  738MOL0     N99545   6.271   5.030   9.021  0.2592 -0.2152 -0.4549
  738MOL0     N99546   6.254   4.934   9.110  0.2401 -0.0283  0.7259
  738MOL0     C99547   5.361   4.598   9.865  0.4221  0.4213 -0.3919
  738MOL0     C99548   5.276   4.519   9.939  0.2902  0.0756 -0.4020
  738MOL0     C99549   5.147   4.248  10.259 -1.2420 -0.6023 -0.6233
  738MOL0     C99550   5.010   4.213  10.222 -0.9609  0.0564 -0.4565
  738MOL0     C99551   4.938   4.122  10.294 -1.3398 -0.0724 -0.0718
  738MOL0     C99552   4.989   4.052  10.405  0.7338 -0.8786  0.5878
  738MOL0     O99553   4.904   3.953  10.452  1.1867  0.2997 -0.5651
  738MOL0     C99554   4.960   3.839  10.507 -0.4657  0.0818  0.2377
  738MOL0     C99555   4.847   3.736  10.525 -0.8720  0.2259 -0.5885
  738MOL0     C99556   4.909   3.604  10.579 -0.0614  0.2484 -0.1052
  738MOL0     C99557   4.883   3.479  10.494 -0.0631 -0.4554 -0.6906
  738MOL0     C99558   4.957   3.463  10.373 -0.6036  0.2932  0.4046
  738MOL0     C99559   5.030   3.452  10.278  0.8964  0.1269  0.3453
  738MOL0     C99560   5.113   4.089  10.443 -0.1079 -0.3908 -0.7416
  738MOL0     C99561   5.196   4.182  10.381  0.2247  0.4734  1.2709
  738MOL0     C99562   5.342   4.201  10.419 -0.7638  1.2492 -0.0144
  738MOL0     H99563   5.471   4.252   9.993  0.9180 -0.1029  1.4501
  738MOL0     H99564   5.635   4.392   9.863 -0.2578  1.7457 -0.8410
  738MOL0     H99565   5.747   4.580   9.757  1.4827 -0.0010 -0.9082
  738MOL0     H99566   5.645   4.537   9.611 -2.9939 -0.9196  1.1120
  738MOL0     H99567   5.727   4.817   9.694 -2.1526 -1.2813  0.8130
  738MOL0     H99568   5.648   4.767   9.539 -1.2301  1.5787  0.7553
  738MOL0     H99569   5.860   4.637   9.490  0.6705 -1.7545  0.8897
  738MOL0     H99570   5.947   4.676   9.626  0.9611  1.8767 -0.1489
  738MOL0     H99571   5.871   4.858   9.401 -0.8138 -1.9714 -0.1439
  738MOL0     H99572   5.914   4.931   9.554  0.3799 -0.9938  2.4278
  738MOL0     H99573   6.128   4.786   9.545 -2.3222 -2.7537 -0.0107
  738MOL0     H99574   6.089   4.756   9.373  2.4106 -0.6196  0.7018
  738MOL0     H99575   6.108   4.975   9.305  2.2637  0.1001 -0.4888
  738MOL0     H99576   6.072   5.031   9.471 -1.0733  0.3171 -0.7098
  738MOL0     H99577   6.314   4.942   9.543 -0.9097 -1.8683  0.0645
  738MOL0     H99578   6.317   5.076   9.445  0.2636 -0.3440  2.8594
  738MOL0     H99579   6.472   4.872   9.357  0.5628 -2.1066 -1.3977
  738MOL0     H99580   6.307   4.799   9.316 -3.3084  2.7945 -1.7862
  738MOL0     H99581   6.509   5.108   9.237  0.6122 -0.2079  1.2024
  738MOL0     H99582   6.350   5.258   8.906  0.9735  0.3066 -0.2170
  738MOL0     H99583   6.434   5.318   9.049 -1.1045 -0.0878  0.4427
  738MOL0     H99584   6.637   5.217   8.973 -1.3233 -1.6246  1.1372
  738MOL0     H99585   6.553   5.092   8.875 -0.2794  0.3348 -0.9309
  738MOL0     H99586   6.539   5.384   8.797 -1.3488 -0.1726 -0.7233
  738MOL0     H99587   6.491   5.233   8.707 -1.5287 -1.3639  2.3395
  738MOL0     H99588   6.709   5.310   8.612  2.9042 -1.4738 -1.1535
  738MOL0     H99589   6.735   5.164   8.722 -1.0025  0.7339  1.4036
  738MOL0     H99590   6.970   5.190   8.695  0.5698 -0.4168 -0.0760
  738MOL0     H99591   7.208   5.268   8.610 -1.8243 -1.6134 -1.1705
  738MOL0     H99592   7.547   5.482   8.765 -0.3569  0.0865  0.3915
  738MOL0     H99593   7.805   5.513   8.694  1.5041  1.4836 -0.1572
  738MOL0     H99594   8.023   5.576   8.652  1.7771 -0.4721 -0.3352
  738MOL0     H99595   7.934   5.516   8.523 -1.9554  0.3885  2.2977
  738MOL0     H99596   8.078   5.644   8.358  1.2599 -0.2255  0.7346
  738MOL0     H99597   8.128   5.751   8.484 -0.4511 -0.2885  0.5731
  738MOL0     H99598   8.254   5.559   8.592  1.9130  1.0220 -0.4275
  738MOL0     H99599   8.178   5.448   8.467  0.8595  0.3543  0.4327
  738MOL0     H99600   8.347   5.671   8.368 -4.3983  2.3011  2.3482
  738MOL0     H99601   8.270   5.521   8.292 -1.6343 -0.4937  1.0717
  738MOL0     H99602   8.472   5.425   8.322 -0.4092  2.7358 -1.3549
  738MOL0     H99603   8.408   5.392   8.471 -3.2001 -2.5918 -4.2121
  738MOL0     H99604   8.649   5.475   8.480 -2.5063 -1.0010  1.0265
  738MOL0     H99605   8.609   5.628   8.392 -0.3603  2.0842  0.8161
  738MOL0     H99606   8.512   5.560   8.667 -1.3271 -0.4273 -1.3702
  738MOL0     H99607   8.482   5.708   8.577  1.5360  1.8620 -1.1891
  738MOL0     H99608   8.727   5.755   8.593  1.8756 -0.5319 -0.5717
  738MOL0     H99609   8.668   5.731   8.752 -0.2473 -0.4318  0.2674
  738MOL0     H99610   7.694   5.891   8.527  0.3444  0.4399  1.3616
  738MOL0     H99611   7.472   5.864   8.587  0.4352  0.5439  0.7612
  738MOL0     H99612   7.126   5.645   8.774  1.2456 -0.0282 -1.1624
  738MOL0     H99613   6.899   5.576   8.852 -0.1469  1.7294 -2.4188
  738MOL0     H99614   5.327   4.697   9.835 -1.2031 -0.3559 -1.2729
  738MOL0     H99615   5.180   4.559   9.972  0.1031 -0.1512 -0.6669
  738MOL0     H99616   4.959   4.248  10.133 -1.2595 -1.4035 -0.8955
  738MOL0     H99617   4.838   4.091  10.263 -1.7900  0.6638  0.6067
  738MOL0     H99618   5.017   3.854  10.600 -0.7514 -1.2118  0.6388
  738MOL0     H99619   5.030   3.792  10.438 -1.4641  0.2378 -0.9165
  738MOL0     H99620   4.791   3.717  10.433 -0.7782 -0.1886 -0.5618
  738MOL0     H99621   4.777   3.771  10.601  1.2687  0.7339  1.2585
  738MOL0     H99622   4.876   3.590  10.683  1.2703 -2.2334  0.0766
  738MOL0     H99623   5.018   3.617  10.576 -0.1406  0.7191 -1.4751
  738MOL0     H99624   4.908   3.388  10.550  2.8169 -0.5259 -1.9514
  738MOL0     H99625   4.775   3.474  10.476 -0.3557  1.5654  0.2445
  738MOL0     H99626   5.074   3.435  10.182  1.3307 -0.3348  0.6269
  738MOL0     H99627   5.144   4.038  10.534  1.2370  2.7938  0.7505
  738MOL0     H99628   5.358   4.289  10.482 -0.7050  2.0723 -1.1672
  738MOL0     H99629   5.369   4.110  10.474  1.4692  0.6221 -2.0152
  738MOL0     H99630   5.404   4.201  10.329 -0.3790 -0.3552  0.2105
  739MOL0     O99631   2.001   1.550   6.455  0.6353  0.4632 -0.5576
  739MOL0     C99632   1.917   1.641   6.432  0.1628 -0.4348  0.6117
  739MOL0     O99633   1.949   1.773   6.434  0.1556  0.5084 -0.4336
  739MOL0     C99634   2.081   1.809   6.462  0.0707  0.3815 -1.6533
  739MOL0     C99635   2.085   1.913   6.556  0.3054  0.3055 -0.4406
  739MOL0     C99636   2.214   1.946   6.608  0.4522 -0.9856 -0.4971
  739MOL0     C99637   2.327   1.882   6.570 -0.2197  0.9421  0.1565
  739MOL0     O99638   2.454   1.898   6.621 -0.0846  0.4959 -0.4083
  739MOL0     C99639   2.472   2.008   6.719 -1.0434  0.2500  0.2229
  739MOL0     C99640   2.623   2.045   6.712 -1.7229  0.1485 -0.1649
  739MOL0     C99641   2.682   2.143   6.807 -0.0127 -0.6154  0.3023
  739MOL0     C99642   2.834   2.140   6.820  0.1390 -0.3554  0.7049
  739MOL0     C99643   2.890   2.242   6.912  0.9521 -0.0879 -0.2421
  739MOL0     C99644   3.047   2.227   6.913  0.5776  0.8607 -0.7326
  739MOL0     C99645   3.104   2.344   6.996  0.4364 -0.7843 -0.6664
  739MOL0     C99646   3.252   2.318   7.029  0.2394 -0.3554 -0.2130
  739MOL0     N99647   3.356   2.331   6.930 -0.1212  0.7283  0.5368
  739MOL0     C99648   3.368   2.246   6.818  0.4241 -0.2805  0.0393
  739MOL0     C99649   3.493   2.262   6.770  0.1351 -0.4125  0.3873
  739MOL0     C99650   3.559   2.204   6.644  0.1527  0.8867  0.4838
  739MOL0     C99651   3.710   2.196   6.656 -0.9803  0.8039 -0.3013
  739MOL0     C99652   3.766   2.339   6.641  0.8220  0.4272  0.9376
  739MOL0     C99653   3.903   2.360   6.719  0.3534 -0.5042  0.2063
  739MOL0     O99654   3.977   2.457   6.649 -0.0034 -0.4737  0.5299
  739MOL0     C99655   4.106   2.483   6.682  0.1721 -0.4802 -0.2303
  739MOL0     C99656   4.148   2.482   6.815 -0.5524  0.5574 -0.0861
  739MOL0     C99657   4.282   2.520   6.854  0.5560 -0.0369 -0.2015
  739MOL0     C99658   4.379   2.546   6.760 -0.1534 -0.3259  0.5122
  739MOL0     C99659   4.518   2.581   6.799  0.1891 -0.3310  0.3585
  739MOL0     O99660   4.551   2.620   6.923  0.0771 -0.0514 -0.2933
  739MOL0     C99661   4.679   2.606   6.972 -0.6401 -0.5613  0.4545
  739MOL0     C99662   4.721   2.491   7.032  0.3445 -0.3251 -1.0440
  739MOL0     C99663   4.861   2.467   7.045 -0.1615 -0.8754  0.5442
  739MOL0     C99664   4.959   2.563   7.024 -0.6634 -0.2601  0.6120
  739MOL0     O99665   5.087   2.520   7.054 -0.0367 -0.1698  0.3738
  739MOL0     C99666   5.194   2.614   7.033  0.4615  0.5652 -0.8166
  739MOL0     C99667   5.322   2.533   7.062  0.2110 -0.1978  0.4372
  739MOL0     C99668   5.441   2.616   7.031 -1.1255 -0.3334 -0.1438
  739MOL0     C99669   5.570   2.543   7.062 -0.4472  0.0437  0.3513
  739MOL0     C99670   5.693   2.629   7.046 -0.2750  0.0418  0.3665
  739MOL0     C99671   5.820   2.548   7.068  0.3013  0.3275 -0.1498
  739MOL0     C99672   5.937   2.600   6.985 -0.8884  0.0468 -0.6120
  739MOL0     C99673   6.054   2.511   6.997 -0.5071 -0.4320  0.3763
  739MOL0    Cl99674   6.184   2.552   6.876 -0.2940 -0.6387  0.5499
  739MOL0     C99675   4.921   2.684   6.971  0.3936 -0.8039  0.4349
  739MOL0     C99676   4.781   2.709   6.952  0.4704 -0.5043 -0.2227
  739MOL0     O99677   4.596   2.560   6.715 -0.3366 -0.3156  0.4794
  739MOL0     C99678   4.332   2.540   6.624 -0.2876  0.7354  0.4010
  739MOL0     C99679   4.200   2.518   6.587 -0.0756 -0.8246  0.0750
  739MOL0     N99680   3.547   2.340   6.866 -1.0186 -0.2097 -0.4050
  739MOL0     N99681   3.474   2.381   6.964  0.4724 -0.6112 -0.4985
  739MOL0     C99682   2.324   1.769   6.491 -0.4823  0.8007 -0.9779
  739MOL0     C99683   2.197   1.732   6.442 -0.3875  0.0462  0.6163
  739MOL0     C99684   1.787   1.590   6.385 -0.2691  0.2899 -0.1470
  739MOL0     C99685   1.775   1.462   6.324  0.0044  0.1089 -0.8802
  739MOL0     C99686   1.654   1.415   6.283  0.3666 -0.0417 -0.4813
  739MOL0     C99687   1.535   1.487   6.299 -0.5996  0.0659  0.1964
  739MOL0     O99688   1.410   1.454   6.253  0.4012  0.0397  0.3673
  739MOL0     C99689   1.383   1.325   6.195 -0.7165  0.1747 -0.1807
  739MOL0     C99690   1.358   1.220   6.302  0.7228 -0.2015  0.4439
  739MOL0     C99691   1.221   1.228   6.374  0.2776 -0.8210  0.2537
  739MOL0     C99692   1.205   1.089   6.442  1.0933 -0.1573 -0.1261
  739MOL0     C99693   1.068   1.063   6.488  0.1529 -0.3925  0.0862
  739MOL0     C99694   0.956   1.025   6.527  0.9384  1.0923 -0.3164
  739MOL0     C99695   1.547   1.612   6.352 -0.7301  0.1409  0.1896
  739MOL0     C99696   1.666   1.668   6.400 -0.5541 -0.8561 -0.0769
  739MOL0     C99697   1.660   1.809   6.451 -0.6787 -0.2590  0.0112
  739MOL0     H99698   1.996   1.961   6.595  0.0408 -2.2154  2.3333
  739MOL0     H99699   2.226   2.029   6.678  2.2038 -1.5594 -0.0758
  739MOL0     H99700   2.412   2.094   6.688 -0.6794  0.1503 -0.8074
  739MOL0     H99701   2.457   1.979   6.824  0.4522 -1.5015  0.0133
  739MOL0     H99702   2.642   2.086   6.612  1.6327 -1.2597 -0.2212
  739MOL0     H99703   2.683   1.957   6.737 -1.5081  0.5538  0.7848
  739MOL0     H99704   2.639   2.131   6.907 -0.1508 -2.2597  0.0793
  739MOL0     H99705   2.651   2.241   6.772 -1.3819 -0.9568  0.5114
  739MOL0     H99706   2.874   2.040   6.839 -0.0766 -0.5678  0.0463
  739MOL0     H99707   2.864   2.172   6.720  2.3461 -0.0338  1.4119
  739MOL0     H99708   2.859   2.343   6.883  0.8177  0.7705  2.5092
  739MOL0     H99709   2.846   2.221   7.010 -1.0176 -2.2167 -1.4817
  739MOL0     H99710   3.057   2.128   6.958  0.5678  1.2660  0.1878
  739MOL0     H99711   3.087   2.227   6.810  0.5086 -1.7019 -0.8262
  739MOL0     H99712   3.058   2.333   7.094  1.7254 -1.2659 -0.1055
  739MOL0     H99713   3.079   2.440   6.950  0.2994 -0.0969  0.7903
  739MOL0     H99714   3.270   2.392   7.108 -1.2824  0.7656 -0.8628
  739MOL0     H99715   3.256   2.221   7.079 -0.1077  0.4865  1.5581
  739MOL0     H99716   3.284   2.193   6.774  1.1663 -1.3838 -0.1012
  739MOL0     H99717   3.516   2.104   6.634  0.9922  0.7238 -2.9043
  739MOL0     H99718   3.533   2.258   6.552  0.4002  0.3138  0.0678
  739MOL0     H99719   3.743   2.146   6.748  0.0456  2.1332  0.0956
  739MOL0     H99720   3.755   2.140   6.574  0.2411  0.9308  0.2596
  739MOL0     H99721   3.685   2.403   6.678 -3.9820 -5.4076  2.1567
  739MOL0     H99722   3.792   2.360   6.537  3.0722  0.5471  1.4785
  739MOL0     H99723   3.958   2.266   6.728  2.8785  0.8902  0.1339
  739MOL0     H99724   3.889   2.397   6.821  3.1712  1.8432 -0.1293
  739MOL0     H99725   4.077   2.473   6.896  0.4731  2.5146  1.1069
  739MOL0     H99726   4.306   2.536   6.959  0.4690 -2.1846  0.1925
  739MOL0     H99727   4.650   2.409   7.033 -2.1740  1.7281 -1.0685
  739MOL0     H99728   4.907   2.373   7.074  1.5201  0.3481  2.0593
  739MOL0     H99729   5.197   2.666   6.937 -2.0384  2.0177 -0.1993
  739MOL0     H99730   5.193   2.689   7.112  0.4494 -0.9294  0.6531
  739MOL0     H99731   5.312   2.502   7.167 -2.9473 -2.1003 -0.3084
  739MOL0     H99732   5.326   2.447   6.995  0.9571  0.5733 -0.5420
  739MOL0     H99733   5.430   2.638   6.925 -1.8935 -1.3422 -0.2857
  739MOL0     H99734   5.453   2.707   7.091  1.9142  0.1206 -1.2754
  739MOL0     H99735   5.573   2.458   6.993 -0.6122  1.2380 -1.1895
  739MOL0     H99736   5.575   2.492   7.159  4.9921 -0.8340 -0.0544
  739MOL0     H99737   5.683   2.725   7.098  1.1059  0.3580  0.1004
  739MOL0     H99738   5.692   2.667   6.944  1.6343  3.0507  1.3336
  739MOL0     H99739   5.842   2.547   7.176  0.9349  1.2824 -0.2546
  739MOL0     H99740   5.802   2.445   7.038  0.3698  0.7778 -1.8264
  739MOL0     H99741   5.959   2.701   7.020 -1.4706 -0.3737  1.0372
  739MOL0     H99742   5.914   2.596   6.878 -1.5593  2.3895 -0.5912
  739MOL0     H99743   6.101   2.522   7.096 -2.1205  0.0286  1.1197
  739MOL0     H99744   6.017   2.410   6.980 -0.6137 -0.3562  0.1505
  739MOL0     H99745   4.987   2.770   6.962  0.5219 -0.9141  0.3291
  739MOL0     H99746   4.754   2.806   6.911  1.0526  0.4074  1.4828
  739MOL0     H99747   4.386   2.571   6.536 -0.1473  0.1908  0.2904
  739MOL0     H99748   4.167   2.530   6.484 -0.7087  1.2571  0.4826
  739MOL0     H99749   2.412   1.708   6.479 -1.5023 -1.8342  2.9188
  739MOL0     H99750   2.214   1.655   6.368  3.3940  1.6619 -0.4419
  739MOL0     H99751   1.868   1.405   6.324  0.3603  0.6497  0.2797
  739MOL0     H99752   1.652   1.319   6.233 -1.6917  1.2805 -3.2209
  739MOL0     H99753   1.461   1.292   6.127 -0.5621  2.6163 -1.2988
  739MOL0     H99754   1.294   1.344   6.134  1.5830  3.7144 -2.8278
  739MOL0     H99755   1.436   1.225   6.379 -0.8661 -1.2409  2.2090
  739MOL0     H99756   1.373   1.121   6.259  3.1572  0.0677  0.5359
  739MOL0     H99757   1.146   1.261   6.302  0.8587 -0.1779 -0.0651
  739MOL0     H99758   1.233   1.302   6.454  3.1438 -0.9417  0.0497
  739MOL0     H99759   1.224   1.012   6.368  1.0149 -0.9310  0.6433
  739MOL0     H99760   1.268   1.078   6.531  2.5599 -0.1801 -1.1358
  739MOL0     H99761   0.858   1.000   6.563  0.4856  1.0182 -1.5533
  739MOL0     H99762   1.456   1.670   6.361 -0.5268  0.2578  1.7990
  739MOL0     H99763   1.563   1.835   6.493 -0.0053  2.8652 -0.0714
  739MOL0     H99764   1.733   1.834   6.529 -2.8571 -0.3181  2.1743
  739MOL0     H99765   1.674   1.872   6.362 -2.9155 -1.8773 -1.5729
  740MOL0     O99766   3.900   5.126   7.720 -0.1148  0.7961 -0.4040
  740MOL0     C99767   3.890   5.022   7.647  0.2538 -0.5115 -1.0126
  740MOL0     O99768   3.979   4.924   7.628 -0.0303 -0.0357  0.3196
  740MOL0     C99769   4.110   4.960   7.658  0.3229 -0.3684  0.1757
  740MOL0     C99770   4.188   5.019   7.559  0.0784  0.5544  0.2561
  740MOL0     C99771   4.319   5.049   7.588  0.7432 -0.8094 -0.1016
  740MOL0     C99772   4.383   5.035   7.707  0.0847 -0.3495 -0.8676
  740MOL0     O99773   4.503   5.078   7.750 -0.6993 -0.0189  0.1431
  740MOL0     C99774   4.585   5.145   7.654  0.2887  0.1174  0.3506
  740MOL0     C99775   4.686   5.240   7.725 -0.0560 -0.8504 -0.1201
  740MOL0     C99776   4.623   5.376   7.753  0.0641 -0.0600 -0.5602
  740MOL0     C99777   4.735   5.473   7.789  0.2056  0.1922 -0.0613
  740MOL0     C99778   4.684   5.610   7.829  0.0003  0.0410 -0.4165
  740MOL0     C99779   4.788   5.692   7.898  0.4060 -0.7151 -0.7138
  740MOL0     C99780   4.899   5.709   7.801 -0.2767 -1.5105  0.0637
  740MOL0     C99781   4.966   5.847   7.822  0.3833  0.1382 -0.1449
  740MOL0     N99782   5.039   5.854   7.953 -0.5163  0.7886 -0.6706
  740MOL0     C99783   5.140   5.766   7.995 -0.3149 -0.4367 -0.3421
  740MOL0     C99784   5.169   5.805   8.120 -0.4017  0.0645  0.3038
  740MOL0     C99785   5.265   5.733   8.215 -0.3554 -0.6956  0.8036
  740MOL0     C99786   5.405   5.805   8.203  0.3179  0.0375  0.7914
  740MOL0     C99787   5.502   5.751   8.316 -0.5413 -0.2091  0.1328
  740MOL0     C99788   5.642   5.804   8.315  0.1462  0.3996 -0.6163
  740MOL0     O99789   5.723   5.756   8.201  0.2656  0.2856  0.6353
  740MOL0     C99790   5.854   5.797   8.189  0.0264  0.4236  0.4083
  740MOL0     C99791   5.890   5.826   8.056 -0.8376 -1.0904 -0.4299
  740MOL0     C99792   6.019   5.875   8.030  0.4451 -0.5714 -0.0189
  740MOL0     C99793   6.103   5.909   8.133  0.8543 -0.6912 -0.1474
  740MOL0     C99794   6.236   5.970   8.109 -0.4563  0.4118  0.4023
  740MOL0     O99795   6.327   5.977   8.211 -0.5082 -0.5328 -0.8458
  740MOL0     C99796   6.447   6.043   8.192 -0.0602 -0.4172 -0.4526
  740MOL0     C99797   6.563   5.974   8.224  0.1882 -0.0392 -0.3248
  740MOL0     C99798   6.692   6.025   8.180  0.2432 -0.1215 -0.3100
  740MOL0     C99799   6.707   6.148   8.122 -0.0220  0.2780  0.0224
  740MOL0     O99800   6.825   6.189   8.083 -0.1454  1.0133 -0.2587
  740MOL0     C99801   6.916   6.101   7.998  0.9746  0.0930 -0.1787
  740MOL0     C99802   7.033   6.178   7.940  0.5722 -0.2188  0.0147
  740MOL0     C99803   7.127   6.088   7.855 -0.0675 -0.0656  0.3814
  740MOL0     C99804   7.262   6.159   7.861  0.0319 -0.0387 -0.6049
  740MOL0     C99805   7.358   6.114   7.749 -0.4861 -0.5317  0.1151
  740MOL0     C99806   7.504   6.165   7.779 -0.7359 -0.3388 -0.0704
  740MOL0     C99807   7.597   6.117   7.655  0.3372 -0.4248 -0.5062
  740MOL0     C99808   7.746   6.138   7.674  0.6744 -0.3140  0.3097
  740MOL0    Cl99809   7.813   6.055   7.814  0.0255  0.0647  0.0065
  740MOL0     C99810   6.593   6.225   8.099 -0.0538  0.5589 -0.4319
  740MOL0     C99811   6.463   6.171   8.129  0.2852  0.5278  0.0363
  740MOL0     O99812   6.265   5.987   7.994 -0.0764 -0.6899 -0.3132
  740MOL0     C99813   6.062   5.895   8.271 -0.7868  0.2381  0.1143
  740MOL0     C99814   5.937   5.837   8.292 -0.1407  0.6535  0.0039
  740MOL0     N99815   5.094   5.907   8.154 -0.5231 -0.4864 -0.2696
  740MOL0     N99816   5.019   5.940   8.053  0.0116  0.2978  0.6265
  740MOL0     C99817   4.304   4.972   7.805  0.3237 -0.4006  0.2669
  740MOL0     C99818   4.168   4.932   7.786 -0.5614  0.0639 -0.2587
  740MOL0     C99819   3.754   5.003   7.579  0.1504 -0.7685 -0.0418
  740MOL0     C99820   3.733   4.878   7.516 -0.2820 -0.1148  0.4697
  740MOL0     C99821   3.608   4.851   7.459 -0.1855 -0.2408  0.6241
  740MOL0     C99822   3.507   4.940   7.461  0.2503 -0.3031  1.0516
  740MOL0     O99823   3.387   4.917   7.402 -0.1880 -0.3857 -1.0819
  740MOL0     C99824   3.383   4.939   7.262  0.3718  0.3801 -0.3149
  740MOL0     C99825   3.280   5.050   7.229  0.4352 -0.8059 -0.1417
  740MOL0     C99826   3.332   5.129   7.101 -0.0692 -0.5237  0.4440
  740MOL0     C99827   3.211   5.195   7.026 -0.1121  1.0188 -0.1201
  740MOL0     C99828   3.148   5.300   7.106  0.7601  0.8073 -0.4876
  740MOL0     C99829   3.091   5.387   7.165  0.0640 -0.7911 -0.2591
  740MOL0     C99830   3.531   5.064   7.511  0.6263  0.3818  0.1752
  740MOL0     C99831   3.646   5.095   7.577  0.2056 -0.0652 -0.5338
  740MOL0     C99832   3.658   5.235   7.613 -0.6452  0.0564  0.3035
  740MOL0     H99833   4.138   5.031   7.463  1.3368 -1.8283 -0.7794
  740MOL0     H99834   4.373   5.098   7.508  0.9851 -1.5635 -0.4093
  740MOL0     H99835   4.643   5.071   7.598 -0.0312  1.9294 -2.6213
  740MOL0     H99836   4.520   5.200   7.585  0.0728  1.5869  1.6586
  740MOL0     H99837   4.779   5.255   7.669  1.4728 -2.2302  1.8936
  740MOL0     H99838   4.717   5.213   7.826  0.2109  2.9495  0.9708
  740MOL0     H99839   4.543   5.374   7.827  0.5372 -1.3410 -0.0556
  740MOL0     H99840   4.574   5.413   7.662 -0.3246  1.6589  0.3090
  740MOL0     H99841   4.803   5.429   7.863  0.4977 -1.7936 -1.4577
  740MOL0     H99842   4.801   5.493   7.705  0.9024  2.0786  0.8724
  740MOL0     H99843   4.651   5.673   7.746 -1.3477  1.8621  1.4081
  740MOL0     H99844   4.604   5.608   7.903  0.4195 -1.6098  0.0408
  740MOL0     H99845   4.735   5.783   7.927 -1.7170 -2.9220  3.1163
  740MOL0     H99846   4.827   5.640   7.986 -0.1934  0.1311  0.0688
  740MOL0     H99847   4.852   5.716   7.702  1.3391 -2.8272 -0.8355
  740MOL0     H99848   4.983   5.640   7.793  2.6365  1.9321 -3.7435
  740MOL0     H99849   5.030   5.862   7.734  3.5063  1.3213  2.1239
  740MOL0     H99850   4.886   5.922   7.820 -0.6667 -0.9243 -2.9886
  740MOL0     H99851   5.169   5.679   7.935 -0.8655 -1.6283  1.0718
  740MOL0     H99852   5.238   5.757   8.319 -1.7993  1.7012 -0.0320
  740MOL0     H99853   5.264   5.627   8.191 -0.1535 -0.5191  0.0120
  740MOL0     H99854   5.449   5.779   8.107 -0.4141  1.0613  0.1585
  740MOL0     H99855   5.397   5.914   8.194  0.8144  0.0090 -0.0681
  740MOL0     H99856   5.511   5.642   8.319  0.1030 -0.1350  1.5294
  740MOL0     H99857   5.459   5.779   8.413  1.9409  1.8603  0.7563
  740MOL0     H99858   5.692   5.777   8.408 -0.7467 -2.9140 -0.9698
  740MOL0     H99859   5.644   5.913   8.310 -0.4059  0.4350 -0.1242
  740MOL0     H99860   5.815   5.804   7.980 -0.9264 -0.0212 -0.6595
  740MOL0     H99861   6.043   5.887   7.925  0.2725 -0.9337 -0.1020
  740MOL0     H99862   6.555   5.874   8.263  3.2419 -0.7457 -1.1982
  740MOL0     H99863   6.775   5.957   8.196  1.8752  1.1807 -2.6536
  740MOL0     H99864   6.959   6.026   8.066  1.0572 -0.1655 -0.5156
  740MOL0     H99865   6.862   6.068   7.909  2.1243  0.1163 -0.9075
  740MOL0     H99866   6.993   6.255   7.873 -2.2885 -0.8080  0.8993
  740MOL0     H99867   7.087   6.234   8.017  0.7308  0.7365 -0.7691
  740MOL0     H99868   7.141   5.986   7.892 -0.4849 -0.5012 -0.6219
  740MOL0     H99869   7.091   6.084   7.752  0.6389  1.6512  0.0475
  740MOL0     H99870   7.288   6.143   7.966  1.3354 -1.3291 -1.0876
  740MOL0     H99871   7.257   6.268   7.858 -0.7110  0.1979  3.2799
  740MOL0     H99872   7.321   6.154   7.654 -0.2238 -1.1491 -0.2497
  740MOL0     H99873   7.355   6.005   7.740 -1.8429 -0.4727 -0.4623
  740MOL0     H99874   7.508   6.274   7.770 -1.6440 -0.4480 -2.4863
  740MOL0     H99875   7.539   6.129   7.877  1.3095 -2.4139 -1.4491
  740MOL0     H99876   7.563   6.180   7.572 -0.2637 -3.5845 -2.8595
  740MOL0     H99877   7.564   6.015   7.633 -1.4468  0.1384 -0.6260
  740MOL0     H99878   7.805   6.097   7.592  2.9586  0.8615  1.2844
  740MOL0     H99879   7.764   6.246   7.677 -2.9902  0.4170  0.9787
  740MOL0     H99880   6.601   6.320   8.047 -1.0276  0.8849 -0.0142
  740MOL0     H99881   6.369   6.215   8.097 -0.4353 -0.1248  1.1805
  740MOL0     H99882   6.110   5.913   8.367  0.3027 -2.1580  0.0828
  740MOL0     H99883   5.902   5.825   8.394  1.6234 -2.0614  0.3989
  740MOL0     H99884   4.355   4.953   7.899  0.1863  0.5823  0.5562
  740MOL0     H99885   4.121   4.888   7.872 -0.5655  0.3146 -0.1328
  740MOL0     H99886   3.813   4.806   7.506 -0.1837  0.0299  0.2023
  740MOL0     H99887   3.590   4.754   7.413 -0.4517 -0.5108  1.2894
  740MOL0     H99888   3.358   4.850   7.203  1.9675  0.6128 -1.4122
  740MOL0     H99889   3.481   4.972   7.228  0.1147 -0.1108 -1.5707
  740MOL0     H99890   3.263   5.118   7.313 -0.3894 -0.1167 -0.8402
  740MOL0     H99891   3.184   5.004   7.203 -0.7807  1.8462 -0.6740
  740MOL0     H99892   3.378   5.059   7.030 -1.6348  0.5844 -1.7885
  740MOL0     H99893   3.404   5.209   7.118 -0.4214 -0.0479 -0.2472
  740MOL0     H99894   3.259   5.246   6.942  0.9162 -1.8492 -1.3875
  740MOL0     H99895   3.134   5.127   6.990 -1.0544  2.6215 -1.2684
  740MOL0     H99896   3.050   5.476   7.208 -0.3593 -0.9552 -0.3178
  740MOL0     H99897   3.448   5.131   7.530  1.1665  1.2857 -0.5649
  740MOL0     H99898   3.756   5.267   7.578  0.3050 -0.4173  2.3337
  740MOL0     H99899   3.585   5.297   7.561 -0.3727 -0.0771 -0.2443
  740MOL0     H99900   3.654   5.249   7.722 -0.3246 -1.6415  0.5631
  741MOL0     O99901  10.652   3.384   7.520 -0.0221 -0.0137 -0.4820
  741MOL0     C99902  10.637   3.484   7.585  0.1472 -0.0748 -1.1202
  741MOL0     O99903  10.728   3.575   7.624 -0.1452 -0.6144 -0.8564
  741MOL0     C99904  10.859   3.532   7.611  0.6958 -0.4661 -0.0441
  741MOL0     C99905  10.910   3.405   7.633 -0.1986  0.5589 -0.1840
  741MOL0     C99906  11.047   3.383   7.644 -0.3837 -0.3262  0.8521
  741MOL0     C99907  11.133   3.491   7.623 -0.1311 -0.0609 -0.2222
  741MOL0     O99908  11.267   3.457   7.609 -0.1768 -0.3013 -0.5296
  741MOL0     C99909  11.364   3.548   7.552  0.1071 -0.1033  0.2346
  741MOL0     C99910  11.502   3.474   7.534  0.1060  0.2742  0.5694
  741MOL0     C99911  11.623   3.549   7.468 -0.2029 -0.3021 -0.3498
  741MOL0     C99912  11.748   3.463   7.448 -0.0831  0.1075  0.0187
  741MOL0     C99913  11.861   3.535   7.389  0.6096 -0.7523  0.5914
  741MOL0     C99914  11.987   3.444   7.377 -0.5149  0.7677 -0.9533
  741MOL0     C99915  12.088   3.479   7.270  0.1942 -0.4711  0.1469
  741MOL0     C99916  12.183   3.583   7.325 -0.1970 -0.3408  0.1086
  741MOL0     N99917  12.243   3.662   7.220 -0.6269 -0.1547  0.3174
  741MOL0     C99918  12.376   3.670   7.200 -0.1105 -0.6293  0.8695
  741MOL0     C99919  12.395   3.741   7.085 -0.6128 -0.1209 -0.0313
  741MOL0     C99920  12.533   3.767   7.026  0.3043 -0.3822 -0.6828
  741MOL0     C99921  12.557   3.923   7.050  0.0836 -0.2461 -0.5171
  741MOL0     C99922  12.675   3.986   6.984 -0.6272 -0.4171  0.6391
  741MOL0     C99923  12.812   3.949   7.050 -0.3462 -0.3277  0.3287
  741MOL0     O99924  12.915   4.027   6.988  0.2272 -0.5146  0.1745
  741MOL0     C99925  13.046   3.994   7.006 -0.2164  0.0527  0.1661
  741MOL0     C99926  13.147   4.043   6.924 -0.6702 -0.0477  0.3746
  741MOL0     C99927  13.281   4.004   6.929 -0.3567  0.0362 -0.1615
  741MOL0     C99928  13.326   3.921   7.035 -0.6107  0.6049 -0.2665
  741MOL0     C99929  13.481   3.897   7.066 -1.0512 -0.2215  0.6820
  741MOL0     O99930  13.569   3.898   6.953  1.2599 -0.3928 -0.7787
  741MOL0     C99931  13.704   3.873   6.977 -0.3842  0.5768  0.1783
  741MOL0     C99932  13.802   3.967   6.935  0.0749 -0.5415 -0.5560
  741MOL0     C99933  13.939   3.936   6.943  0.1979  0.0103  0.1383
  741MOL0     C99934  13.971   3.811   6.993  0.3994  0.0297 -0.1719
  741MOL0     O99935  14.106   3.788   7.004 -0.6515  0.1496 -0.0627
  741MOL0     C99936  14.162   3.710   7.111  0.6465 -0.0324 -0.0205
  741MOL0     C99937  14.310   3.709   7.113  0.5973  0.7330 -0.1546
  741MOL0     C99938  14.370   3.844   7.148  0.3988 -0.6756 -0.0460
  741MOL0     C99939  14.503   3.874   7.083  1.1591 -0.4261 -0.3756
  741MOL0     C99940  14.608   3.758   7.076 -0.4007  0.0393 -0.4576
  741MOL0     C99941  14.737   3.811   7.007  1.0519  0.7087 -0.0956
  741MOL0     C99942  14.744   3.758   6.864 -0.5817 -0.1618  0.8905
  741MOL0     C99943  14.624   3.802   6.777 -0.8444  0.1890  0.1582
  741MOL0    Cl99944  14.652   3.730   6.620  0.0601  0.1798 -0.4789
  741MOL0     C99945  13.880   3.717   7.033 -0.3259  0.1880 -0.3322
  741MOL0     C99946  13.750   3.747   7.020  0.7344  0.3759  0.6109
  741MOL0     O99947  13.518   3.867   7.185 -0.4063  0.1149  0.7739
  741MOL0     C99948  13.229   3.864   7.116 -0.8303  0.0408 -0.4786
  741MOL0     C99949  13.091   3.896   7.099  0.5476  0.3480  0.0575
  741MOL0     N99950  12.269   3.785   7.044 -0.0093  0.6247 -0.5249
  741MOL0     N99951  12.177   3.740   7.126  0.1399  0.8818 -0.3482
  741MOL0     C99952  11.081   3.620   7.600  0.3062  0.1978  0.8940
  741MOL0     C99953  10.944   3.645   7.598 -0.0431  0.4637  0.0901
  741MOL0     C99954  10.503   3.524   7.637  0.1558 -0.0824 -0.3286
  741MOL0     C99955  10.387   3.444   7.624  0.3059  0.7729 -0.9914
  741MOL0     C99956  10.262   3.488   7.659  0.0795 -0.5710 -0.0016
  741MOL0     C99957  10.235   3.615   7.697 -0.7890  0.0265 -0.7113
  741MOL0     O99958  10.107   3.647   7.723  0.2288  0.0159 -0.3568
  741MOL0     C99959  10.066   3.787   7.706  0.1063  0.1498  0.1428
  741MOL0     C99960   9.926   3.777   7.668  0.2443  0.1012 -0.1132
  741MOL0     C99961   9.878   3.916   7.619  0.2096 -0.0916 -0.0485
  741MOL0     C99962   9.841   4.012   7.736  0.2173  0.8948 -0.0883
  741MOL0     C99963   9.803   4.139   7.683 -0.3791 -1.0150  0.5343
  741MOL0     C99964   9.782   4.255   7.638 -0.2796 -0.8716 -0.4228
  741MOL0     C99965  10.344   3.699   7.717  0.0196  0.4651 -0.8572
  741MOL0     C99966  10.473   3.660   7.685 -1.0136 -0.3355 -0.5682
  741MOL0     C99967  10.571   3.771   7.701 -0.3799 -0.8031 -0.0771
  741MOL0     H99968  10.854   3.313   7.652  0.6268 -0.3159 -1.8255
  741MOL0     H99969  11.083   3.286   7.677  0.6978  0.9495  3.7836
  741MOL0     H99970  11.339   3.571   7.448 -1.5140  2.1685  1.0514
  741MOL0     H99971  11.365   3.641   7.609 -0.0362 -0.0978  0.2292
  741MOL0     H99972  11.494   3.385   7.472 -2.3420 -1.7567  3.5179
  741MOL0     H99973  11.535   3.445   7.634  1.8912  2.2258  0.6344
  741MOL0     H99974  11.642   3.633   7.536 -1.9590 -0.8190  0.8554
  741MOL0     H99975  11.583   3.590   7.375 -0.3029  3.0603  1.0305
  741MOL0     H99976  11.778   3.426   7.547  0.8302  1.9180  0.4542
  741MOL0     H99977  11.719   3.382   7.380  0.8672  1.4108 -2.0385
  741MOL0     H99978  11.831   3.550   7.285  0.3836 -1.1206  0.6013
  741MOL0     H99979  11.886   3.631   7.434 -1.7792 -0.6829  1.9335
  741MOL0     H99980  12.043   3.435   7.471 -0.7639  1.9581 -0.6765
  741MOL0     H99981  11.942   3.346   7.356 -1.8704  0.6400  2.0160
  741MOL0     H99982  12.040   3.521   7.181  0.4809  1.8652  1.0185
  741MOL0     H99983  12.140   3.389   7.235  0.0945  0.2513 -2.0545
  741MOL0     H99984  12.136   3.655   7.392  1.0281 -1.6718  2.5009
  741MOL0     H99985  12.260   3.532   7.383  0.8782  2.3908  1.2661
  741MOL0     H99986  12.448   3.630   7.271  2.4671  0.3494 -1.0522
  741MOL0     H99987  12.607   3.702   7.075 -0.4218 -1.9904 -1.6332
  741MOL0     H99988  12.536   3.739   6.921 -0.8321  1.5107 -1.2592
  741MOL0     H99989  12.467   3.968   7.006 -1.5790 -1.8641  1.0520
  741MOL0     H99990  12.555   3.948   7.157 -0.2637 -2.2615 -0.0017
  741MOL0     H99991  12.669   4.095   6.980  2.1289 -0.2123  0.7979
  741MOL0     H99992  12.669   3.953   6.880 -1.0358 -0.1996  0.5896
  741MOL0     H99993  12.826   3.840   7.044  0.0968 -0.2367 -0.3975
  741MOL0     H99994  12.813   3.965   7.158  0.0126  0.9473  0.1503
  741MOL0     H99995  13.141   4.118   6.845  3.6124  1.0992  0.8745
  741MOL0     H99996  13.361   4.052   6.873 -1.4082  2.8826  0.6004
  741MOL0     H99997  13.774   4.065   6.897 -0.1143  0.5242  2.0821
  741MOL0     H99998  14.025   3.997   6.918  3.1825 -3.2101  1.6352
  741MOL0     H99999  14.123   3.744   7.208 -0.1066  0.1260 -0.3782
  741MOL0     H    0  14.130   3.606   7.109 -0.0145  0.1661  0.0496
  741MOL0     H    1  14.332   3.647   7.200 -1.2409 -1.4739 -1.1599
  741MOL0     H    2  14.351   3.670   7.019  3.0252  0.6385  0.8813
  741MOL0     H    3  14.299   3.923   7.120 -0.3657 -0.5098  2.1749
  741MOL0     H    4  14.382   3.859   7.255  1.6069 -0.7615 -0.1562
  741MOL0     H    5  14.537   3.947   7.157  0.6953 -0.7088  0.1277
  741MOL0     H    6  14.487   3.927   6.988  2.7766  0.0532 -0.4011
  741MOL0     H    7  14.577   3.660   7.039  1.0218 -0.3001 -0.8166
  741MOL0     H    8  14.638   3.737   7.179 -1.3185 -1.1464 -0.4133
  741MOL0     H    9  14.753   3.919   7.014  1.2859  0.6763 -0.1361
  741MOL0     H   10  14.827   3.770   7.054  0.3349 -1.5924 -0.5818
  741MOL0     H   11  14.748   3.648   6.863 -0.7462 -0.1915 -0.9642
  741MOL0     H   12  14.840   3.786   6.820 -1.9827  2.3479 -0.7926
  741MOL0     H   13  14.529   3.761   6.814 -0.3575 -1.0902  0.0493
  741MOL0     H   14  14.610   3.910   6.775 -2.3430  0.0264  0.4504
  741MOL0     H   15  13.908   3.621   7.075 -0.8983  1.9375  4.6679
  741MOL0     H   16  13.683   3.669   7.056  1.5054  0.3544  2.0710
  741MOL0     H   17  13.263   3.798   7.195 -1.4955 -0.6058 -0.7271
  741MOL0     H   18  13.027   3.841   7.168 -0.1820 -1.0073 -1.6151
  741MOL0     H   19  11.144   3.708   7.586 -1.3496  1.1165 -1.2760
  741MOL0     H   20  10.906   3.742   7.570  0.5686  1.6073  2.9625
  741MOL0     H   21  10.403   3.340   7.595 -0.0482  1.7748 -5.3551
  741MOL0     H   22  10.166   3.441   7.641 -0.5041  1.3078 -2.2153
  741MOL0     H   23  10.130   3.845   7.639 -0.1949 -0.6909 -0.8882
  741MOL0     H   24  10.073   3.838   7.803  0.8509 -0.6403  0.5226
  741MOL0     H   25   9.867   3.737   7.751  1.8561 -0.0645  1.0110
  741MOL0     H   26   9.913   3.708   7.584 -1.1225  1.6013 -1.1909
  741MOL0     H   27   9.789   3.902   7.557 -0.3227  1.8459  0.2104
  741MOL0     H   28   9.960   3.955   7.559 -0.9054  0.1212 -1.4988
  741MOL0     H   29   9.771   3.970   7.808 -1.0118  0.4020 -1.5116
  741MOL0     H   30   9.937   4.030   7.787 -0.3696  1.2334  0.9188
  741MOL0     H   31   9.778   4.357   7.605  2.1873  0.1445  2.0138
  741MOL0     H   32  10.337   3.792   7.771  2.0435  0.5806 -0.7330
  741MOL0     H   33  10.527   3.870   7.705  0.3182 -0.5242  1.6166
  741MOL0     H   34  10.620   3.744   7.795 -1.2125 -0.8299  0.3602
  741MOL0     H   35  10.640   3.775   7.616 -1.0898 -0.7997 -0.6664
  742MOL0     O   36   6.753   8.200   7.986 -0.2090 -0.3855 -0.6882
  742MOL0     C   37   6.730   8.193   8.106 -1.5355 -0.1709 -0.7860
  742MOL0     O   38   6.824   8.234   8.200 -0.5785 -0.3210 -0.2766
  742MOL0     C   39   6.949   8.285   8.162  0.7155 -0.2358  0.5112
  742MOL0     C   40   7.001   8.392   8.224 -0.5757 -0.4619 -0.3959
  742MOL0     C   41   7.127   8.450   8.191  0.5006 -0.3236  0.6462
  742MOL0     C   42   7.212   8.399   8.087 -0.1453  0.6951  0.6668
  742MOL0     O   43   7.328   8.454   8.060 -0.1550 -0.1957 -0.3012
  742MOL0     C   44   7.394   8.416   7.945  0.2052 -0.1565  0.0109
  742MOL0     C   45   7.489   8.521   7.906  0.5364 -0.1010 -0.5958
  742MOL0     C   46   7.585   8.475   7.794  0.1626 -0.7423  0.8096
  742MOL0     C   47   7.518   8.440   7.663 -0.0098 -0.1693 -0.0326
  742MOL0     C   48   7.626   8.396   7.568  0.2170 -0.8421 -0.6536
  742MOL0     C   49   7.718   8.507   7.522  0.1228  0.5351 -0.4998
  742MOL0     C   50   7.806   8.470   7.397 -0.1921 -0.2142  0.1836
  742MOL0     C   51   7.930   8.388   7.434  0.2805 -0.1331  0.0784
  742MOL0     N   52   8.022   8.456   7.519  0.0399  0.3486  0.0031
  742MOL0     C   53   8.121   8.546   7.477 -0.8497  0.7098 -0.3689
  742MOL0     C   54   8.188   8.574   7.589  0.3665  0.4850 -0.3498
  742MOL0     C   55   8.291   8.680   7.604 -0.5492 -0.0627 -0.2594
  742MOL0     C   56   8.406   8.626   7.521 -0.0369  0.2753  0.0254
  742MOL0     C   57   8.521   8.718   7.536 -0.2863  0.2032 -0.3779
  742MOL0     C   58   8.655   8.692   7.457 -1.1745 -0.7577  0.2020
  742MOL0     O   59   8.713   8.573   7.507  0.9872 -0.1019 -0.5623
  742MOL0     C   60   8.850   8.564   7.512  0.0426 -0.2063  0.8591
  742MOL0     C   61   8.902   8.447   7.555 -0.5165 -0.2599 -0.4336
  742MOL0     C   62   9.041   8.426   7.564  0.4893 -0.0753 -0.7160
  742MOL0     C   63   9.128   8.525   7.520  0.1060  1.5055  0.0932
  742MOL0     C   64   9.273   8.488   7.519 -0.5987  0.5094 -0.4031
  742MOL0     O   65   9.355   8.594   7.485 -0.2616 -0.0020  0.0735
  742MOL0     C   66   9.485   8.566   7.483 -0.5512 -0.1590 -0.1726
  742MOL0     C   67   9.548   8.544   7.363  0.3638 -0.3142  0.0973
  742MOL0     C   68   9.687   8.517   7.358  0.3476  0.6269  0.0569
  742MOL0     C   69   9.766   8.530   7.469  0.0921 -0.2542 -0.2299
  742MOL0     O   70   9.906   8.511   7.475  0.9207  0.0392  0.5791
  742MOL0     C   71   9.974   8.470   7.350  0.0454  0.5774 -0.3175
  742MOL0     C   72  10.117   8.431   7.377 -0.3685  0.4261 -0.4689
  742MOL0     C   73  10.123   8.297   7.457  1.0744  0.1249 -0.1924
  742MOL0     C   74  10.261   8.277   7.525  0.3870 -0.0016  0.6019
  742MOL0     C   75  10.370   8.253   7.430 -0.5652  0.0725  0.0024
  742MOL0     C   76  10.496   8.242   7.512 -1.1831  0.5833  0.0068
  742MOL0     C   77  10.620   8.193   7.421 -0.5479 -0.1047 -0.7320
  742MOL0     C   78  10.748   8.259   7.497 -0.2647 -0.8239 -0.3534
  742MOL0    Cl   79  10.759   8.176   7.663 -0.1967 -0.1996 -0.1290
  742MOL0     C   80   9.705   8.572   7.582 -0.5302  0.1317 -0.7341
  742MOL0     C   81   9.565   8.581   7.597  0.2559  0.0126  0.4340
  742MOL0     O   82   9.319   8.373   7.552  0.3891  0.4945  0.1254
  742MOL0     C   83   9.074   8.644   7.468  0.0854  0.4124  0.4223
  742MOL0     C   84   8.937   8.667   7.468  0.3109 -0.6352 -0.3738
  742MOL0     N   85   8.135   8.502   7.702 -0.1369 -0.4620  0.7274
  742MOL0     N   86   8.040   8.429   7.653  0.8237 -0.2080  0.3639
  742MOL0     C   87   7.153   8.288   8.031  0.7452  0.6216 -0.5791
  742MOL0     C   88   7.028   8.231   8.062 -0.1913 -0.8736 -0.5095
  742MOL0     C   89   6.612   8.128   8.155  0.5104  0.2786  0.6399
  742MOL0     C   90   6.620   8.059   8.276  0.3328  0.6601 -0.0743
  742MOL0     C   91   6.523   7.980   8.328 -0.1758 -0.2142 -0.4211
  742MOL0     C   92   6.401   7.982   8.264  0.5975 -0.2829  0.5912
  742MOL0     O   93   6.297   7.909   8.320  0.1902 -0.3840 -0.1200
  742MOL0     C   94   6.164   7.936   8.288 -0.2156 -0.0956 -0.3601
  742MOL0     C   95   6.076   7.853   8.380 -0.5930  0.2755 -0.3964
  742MOL0     C   96   5.931   7.873   8.344 -0.5301 -0.2175  0.5909
  742MOL0     C   97   5.844   7.757   8.405  0.0908  0.9885  0.5113
  742MOL0     C   98   5.704   7.784   8.383  0.2260  0.2411 -0.6478
  742MOL0     C   99   5.588   7.818   8.376  0.0429  0.3357 -0.2685
  742MOL0     C  100   6.379   8.051   8.139 -0.1366  0.2562  0.3469
  742MOL0     C  101   6.487   8.123   8.080  0.3212 -0.5781  0.1295
  742MOL0     C  102   6.457   8.179   7.946  0.7645  0.0933 -0.0418
  742MOL0     H  103   6.938   8.440   8.298 -0.9899  3.5319 -2.9940
  742MOL0     H  104   7.156   8.542   8.241 -1.2183  0.1473  0.8451
  742MOL0     H  105   7.445   8.320   7.960  1.2237  0.1832 -1.1373
  742MOL0     H  106   7.318   8.402   7.868 -1.4551  0.7798  1.3992
  742MOL0     H  107   7.551   8.563   7.985  1.5554  0.6248 -1.7564
  742MOL0     H  108   7.426   8.602   7.869 -1.4294 -1.0802  0.4112
  742MOL0     H  109   7.643   8.388   7.828  0.1959 -0.8064  0.5969
  742MOL0     H  110   7.652   8.559   7.773  3.0587 -2.9964  0.1343
  742MOL0     H  111   7.440   8.367   7.688  1.0081 -2.0657 -2.0539
  742MOL0     H  112   7.460   8.522   7.619  1.5216 -0.2761 -2.4131
  742MOL0     H  113   7.681   8.314   7.615 -0.9074 -1.3405 -0.1629
  742MOL0     H  114   7.575   8.357   7.480 -1.8815  2.3741 -1.0330
  742MOL0     H  115   7.656   8.590   7.488  0.4581  1.2086  0.4825
  742MOL0     H  116   7.783   8.548   7.600  1.4654  2.7074 -2.6281
  742MOL0     H  117   7.841   8.560   7.346  0.7923 -0.8552 -0.2900
  742MOL0     H  118   7.742   8.413   7.329 -3.4740  0.0507  2.7486
  742MOL0     H  119   7.890   8.297   7.481 -0.3466  0.6450  1.0812
  742MOL0     H  120   7.983   8.352   7.346  3.1618  1.3466  1.0949
  742MOL0     H  121   8.149   8.567   7.374 -3.1545 -3.2983 -2.0243
  742MOL0     H  122   8.250   8.771   7.559  2.2089  1.4535  0.1317
  742MOL0     H  123   8.308   8.702   7.710 -0.3907  3.2231 -0.8582
  742MOL0     H  124   8.427   8.524   7.554 -0.5210  1.1681  3.4750
  742MOL0     H  125   8.382   8.607   7.416  0.8885 -1.9556  0.1686
  742MOL0     H  126   8.540   8.727   7.643 -3.4311  0.3985  0.2553
  742MOL0     H  127   8.474   8.812   7.505 -0.2823  1.5022  3.1239
  742MOL0     H  128   8.711   8.781   7.487  0.9205 -2.1186  0.6019
  742MOL0     H  129   8.637   8.689   7.349  0.6596 -0.3631 -0.1534
  742MOL0     H  130   8.827   8.377   7.590 -0.0900 -0.2501  0.5581
  742MOL0     H  131   9.087   8.334   7.597 -0.6755 -0.5956 -0.4762
  742MOL0     H  132   9.480   8.542   7.279 -1.5825  1.4360  1.5173
  742MOL0     H  133   9.732   8.509   7.260 -0.4920 -0.8280 -0.2409
  742MOL0     H  134   9.923   8.385   7.304  1.7168 -2.1220  2.3938
  742MOL0     H  135   9.969   8.552   7.279  1.6724  0.8220 -0.1780
  742MOL0     H  136  10.170   8.408   7.284  0.5531 -0.1575  0.1916
  742MOL0     H  137  10.172   8.503   7.439  2.6418 -1.1904 -1.0539
  742MOL0     H  138  10.049   8.295   7.538  0.4580 -1.0274 -0.7572
  742MOL0     H  139  10.103   8.215   7.387  0.1073  0.6363 -0.5394
  742MOL0     H  140  10.268   8.190   7.591  0.1305 -0.9237 -0.5484
  742MOL0     H  141  10.262   8.356   7.600 -3.6514  0.6544  0.2016
  742MOL0     H  142  10.372   8.334   7.357  1.7074  0.7305  0.7108
  742MOL0     H  143  10.366   8.159   7.374  2.4096 -0.9748  1.3409
  742MOL0     H  144  10.513   8.345   7.543  2.5605  0.4904 -1.2058
  742MOL0     H  145  10.490   8.178   7.601 -0.1640  2.2452  1.3200
  742MOL0     H  146  10.620   8.219   7.315 -0.2702 -1.3299 -1.0469
  742MOL0     H  147  10.618   8.084   7.429 -1.3607 -0.1240 -1.0363
  742MOL0     H  148  10.844   8.251   7.445  1.5833 -0.0960  2.6588
  742MOL0     H  149  10.734   8.367   7.506 -1.6115 -1.1738  4.1205
  742MOL0     H  150   9.772   8.585   7.666 -1.8089  1.1973  0.1697
  742MOL0     H  151   9.508   8.612   7.684  0.2533  1.2518  0.0073
  742MOL0     H  152   9.133   8.723   7.423  0.2581  0.9350  1.5290
  742MOL0     H  153   8.890   8.754   7.423 -0.7888 -0.2917  1.3012
  742MOL0     H  154   7.187   8.241   7.939 -2.3346 -1.4430 -0.8144
  742MOL0     H  155   6.987   8.151   8.001 -3.9574  1.2615 -1.0879
  742MOL0     H  156   6.712   8.052   8.333  1.4045  1.8049 -1.5937
  742MOL0     H  157   6.527   7.924   8.421 -0.2753  1.0962  0.4115
  742MOL0     H  158   6.151   7.912   8.182  2.7783  0.8056 -1.0315
  742MOL0     H  159   6.152   8.043   8.311  2.5770  0.3334 -0.5037
  742MOL0     H  160   6.092   7.884   8.483  1.0842  2.2151 -1.1770
  742MOL0     H  161   6.106   7.751   8.357 -0.5437  0.4642 -1.2050
  742MOL0     H  162   5.914   7.878   8.236 -2.9950  0.3067  0.9533
  742MOL0     H  163   5.896   7.966   8.391  0.7255  0.0822  0.9826
  742MOL0     H  164   5.865   7.653   8.378 -0.6414  1.4447 -2.1083
  742MOL0     H  165   5.874   7.755   8.511  3.4112 -1.6120 -0.3157
  742MOL0     H  166   5.486   7.851   8.382  0.9380  3.1710  1.0962
  742MOL0     H  167   6.284   8.050   8.087  1.1586 -2.2380 -2.2359
  742MOL0     H  168   6.478   8.286   7.956  0.5944 -0.0489  2.3227
  742MOL0     H  169   6.510   8.133   7.862 -1.2793 -2.5137 -0.0278
  742MOL0     H  170   6.354   8.177   7.909  1.3982 -1.3099 -1.9050
  743MOL0     O  171   7.200   6.018   2.753 -0.9149 -0.8067 -0.2593
  743MOL0     C  172   7.220   6.127   2.815 -0.6648 -0.5342 -0.6507
  743MOL0     O  173   7.317   6.221   2.787 -0.0954 -0.2372  0.1506
  743MOL0     C  174   7.410   6.197   2.686  0.0915 -0.2270 -0.1180
  743MOL0     C  175   7.492   6.088   2.667 -0.7672 -0.1208  0.3762
  743MOL0     C  176   7.570   6.078   2.551 -0.9961 -1.1222 -0.3445
  743MOL0     C  177   7.572   6.195   2.459 -0.2803  0.4169 -0.7264
  743MOL0     O  178   7.644   6.204   2.343 -0.8862  0.4082 -0.1219
  743MOL0     C  179   7.759   6.112   2.350 -0.2992 -0.6297  0.4167
  743MOL0     C  180   7.836   6.130   2.217 -0.5973  0.1592  0.5563
  743MOL0     C  181   7.954   6.038   2.199  0.3532 -0.4500  0.4284
  743MOL0     C  182   8.082   6.092   2.265  0.2935 -0.0735  0.4060
  743MOL0     C  183   8.195   6.001   2.234  0.0269 -0.1722 -0.2515
  743MOL0     C  184   8.318   6.054   2.298  0.9745  0.5602 -0.4744
  743MOL0     C  185   8.454   5.977   2.257  0.2566 -0.5625 -1.1889
  743MOL0     C  186   8.465   5.841   2.330 -0.0659 -0.2233 -0.0464
  743MOL0     N  187   8.598   5.790   2.336  0.0529 -0.6067 -0.6848
  743MOL0     C  188   8.648   5.671   2.293 -0.0186  0.0257  0.5961
  743MOL0     C  189   8.764   5.646   2.359 -0.3465 -0.1476  0.0783
  743MOL0     C  190   8.858   5.528   2.348  0.5701 -0.0800 -0.5194
  743MOL0     C  191   8.911   5.498   2.207  0.0806  0.5293 -0.6256
  743MOL0     C  192   8.947   5.351   2.173  0.6396  0.2218  0.1868
  743MOL0     C  193   8.936   5.322   2.026  0.4886  0.6255 -0.0618
  743MOL0     O  194   9.023   5.412   1.943  0.2890  0.2304  0.7066
  743MOL0     C  195   9.151   5.380   1.922  0.3168 -0.2200 -0.0265
  743MOL0     C  196   9.227   5.474   1.856  1.1906  0.5858 -0.0199
  743MOL0     C  197   9.366   5.462   1.844  0.2425 -0.9607 -0.2544
  743MOL0     C  198   9.433   5.344   1.882  0.1852 -0.4759 -0.6258
  743MOL0     C  199   9.579   5.325   1.867  1.5808 -0.0562  0.0922
  743MOL0     O  200   9.645   5.252   1.967  0.9772  0.3638  0.2509
  743MOL0     C  201   9.783   5.244   1.948  0.3404 -0.2110 -0.9083
  743MOL0     C  202   9.863   5.359   1.971  0.3760  0.5935 -0.6094
  743MOL0     C  203  10.007   5.344   1.956  0.0951 -0.9845  0.2166
  743MOL0     C  204  10.067   5.222   1.923  0.1837  0.9493  0.6332
  743MOL0     O  205  10.201   5.198   1.903 -0.0179  0.0720 -0.3229
  743MOL0     C  206  10.279   5.317   1.919  0.1998 -1.1004  0.1807
  743MOL0     C  207  10.423   5.296   1.895  0.5284  1.0658  0.0841
  743MOL0     C  208  10.500   5.418   1.888 -0.7891 -0.5466 -0.3467
  743MOL0     C  209  10.630   5.406   1.967 -0.9014  0.1115 -0.9450
  743MOL0     C  210  10.713   5.525   1.955  0.4100  0.4880  0.6244
  743MOL0     C  211  10.856   5.476   1.975 -0.3101  0.2645  0.3213
  743MOL0     C  212  10.887   5.436   2.117  0.5872  0.2800 -0.5765
  743MOL0     C  213  11.021   5.380   2.152 -1.1459 -0.0437  0.3373
  743MOL0    Cl  214  11.073   5.397   2.322  0.1408  0.0728  0.2498
  743MOL0     C  215   9.983   5.110   1.910  0.3957  0.0994  0.2801
  743MOL0     C  216   9.843   5.119   1.924 -0.4542 -0.7617 -0.5396
  743MOL0     O  217   9.628   5.381   1.767 -0.2797  0.4302  0.1667
  743MOL0     C  218   9.350   5.243   1.931 -0.4788  0.1337 -0.6694
  743MOL0     C  219   9.212   5.261   1.952 -0.3314  0.2864 -0.2803
  743MOL0     N  220   8.785   5.753   2.442 -0.0110  0.2927 -0.6719
  743MOL0     N  221   8.689   5.842   2.428 -0.0462  0.4751 -0.2598
  743MOL0     C  222   7.496   6.306   2.480  0.0325  0.5404 -0.2826
  743MOL0     C  223   7.415   6.306   2.592 -0.4656  0.0837  0.4012
  743MOL0     C  224   7.128   6.160   2.930  0.0477  0.2522  0.0809
  743MOL0     C  225   7.157   6.270   3.012 -0.6693 -0.2201  0.4979
  743MOL0     C  226   7.083   6.313   3.118 -0.1714  0.2457 -0.4522
  743MOL0     C  227   6.971   6.239   3.157 -0.2354  1.5520  0.3549
  743MOL0     O  228   6.891   6.273   3.264 -0.3636 -0.1874  0.1170
  743MOL0     C  229   6.946   6.333   3.380  0.2185 -0.9621  0.0961
  743MOL0     C  230   6.884   6.259   3.495 -0.4953  0.3023 -0.1984
  743MOL0     C  231   6.752   6.325   3.556 -0.4944 -0.2669  0.9744
  743MOL0     C  232   6.685   6.236   3.653 -0.5275  0.1509 -0.6577
  743MOL0     C  233   6.754   6.239   3.791  0.4085  0.4339  0.1553
  743MOL0     C  234   6.818   6.247   3.892  0.3045  0.1271  0.1791
  743MOL0     C  235   6.940   6.117   3.090 -0.4684  0.3355  0.2665
  743MOL0     C  236   7.010   6.085   2.974  0.8849 -0.2897  0.3048
  743MOL0     C  237   6.970   5.955   2.912  0.5915 -0.2323 -0.7531
  743MOL0     H  238   7.504   6.012   2.743  3.2896  0.5780  0.6423
  743MOL0     H  239   7.627   5.987   2.534 -2.9369 -2.9435  2.1361
  743MOL0     H  240   7.827   6.134   2.433 -0.8192  0.8200  0.4890
  743MOL0     H  241   7.725   6.009   2.341 -0.9911 -0.2364 -2.6456
  743MOL0     H  242   7.868   6.235   2.218  0.3810 -0.0981 -0.4644
  743MOL0     H  243   7.765   6.128   2.134  0.4064  1.2805 -0.3841
  743MOL0     H  244   7.972   6.049   2.091  1.3635 -0.7465  0.5550
  743MOL0     H  245   7.932   5.937   2.232  0.2842 -0.7484 -0.4870
  743MOL0     H  246   8.102   6.190   2.220  1.7205  0.4764  2.1089
  743MOL0     H  247   8.063   6.107   2.372  1.9170 -0.8705  0.8412
  743MOL0     H  248   8.180   5.899   2.271 -0.9049 -0.4146 -1.2486
  743MOL0     H  249   8.220   6.001   2.127  1.3284 -0.1784  0.0333
  743MOL0     H  250   8.324   6.159   2.268  1.4964  0.5720 -0.3427
  743MOL0     H  251   8.301   6.048   2.406 -0.5873  3.6669 -0.4257
  743MOL0     H  252   8.532   6.049   2.287  2.1534 -1.4689 -3.6206
  743MOL0     H  253   8.448   5.973   2.148 -2.9548  3.0024 -1.3480
  743MOL0     H  254   8.430   5.844   2.433  0.5311 -0.8984  0.1862
  743MOL0     H  255   8.404   5.767   2.279  2.0161 -2.9874  1.2248
  743MOL0     H  256   8.597   5.612   2.218  0.8684 -2.9013  2.1522
  743MOL0     H  257   8.938   5.552   2.419 -0.2457 -1.3085  0.8796
  743MOL0     H  258   8.799   5.446   2.391 -0.5746  1.2939  0.6852
  743MOL0     H  259   8.836   5.528   2.134 -0.5292 -2.2386 -1.2568
  743MOL0     H  260   8.998   5.564   2.208 -0.1066  0.7703 -0.4300
  743MOL0     H  261   8.889   5.276   2.229 -2.2554  2.1580 -0.0265
  743MOL0     H  262   9.049   5.339   2.209  1.5927  0.6408 -2.2179
  743MOL0     H  263   8.832   5.341   2.000  0.2441 -1.9353 -1.2539
  743MOL0     H  264   8.960   5.215   2.016 -0.7303  0.2768  0.5887
  743MOL0     H  265   9.169   5.555   1.816  0.9200 -0.2934 -1.4485
  743MOL0     H  266   9.414   5.553   1.809  0.9070 -1.2268 -0.0504
  743MOL0     H  267   9.810   5.451   1.992 -0.6323  0.5127 -2.6244
  743MOL0     H  268  10.064   5.435   1.974  0.2261 -0.5563 -2.0015
  743MOL0     H  269  10.251   5.402   1.856  2.1303 -0.0963  0.6032
  743MOL0     H  270  10.273   5.356   2.021  2.7211 -0.4523  0.1419
  743MOL0     H  271  10.450   5.220   1.969  2.8392 -1.8466 -3.4162
  743MOL0     H  272  10.435   5.247   1.798  1.3316 -0.9116  1.1379
  743MOL0     H  273  10.524   5.437   1.783 -0.1958  0.3350 -0.0618
  743MOL0     H  274  10.443   5.503   1.927  1.0447 -0.6335  2.8790
  743MOL0     H  275  10.684   5.320   1.927 -1.1079  0.4540 -2.0155
  743MOL0     H  276  10.612   5.396   2.074  1.5492  0.6612 -0.4339
  743MOL0     H  277  10.673   5.599   2.026 -4.2949  0.3065 -1.4930
  743MOL0     H  278  10.706   5.574   1.858 -0.0295 -0.1479  0.3275
  743MOL0     H  279  10.885   5.393   1.910  0.3797  0.4142  0.4254
  743MOL0     H  280  10.934   5.549   1.949  0.7975 -2.1690 -4.2771
  743MOL0     H  281  10.815   5.363   2.154  1.6254  0.0823  1.1850
  743MOL0     H  282  10.882   5.528   2.176 -2.0483 -1.2259  1.8116
  743MOL0     H  283  11.021   5.275   2.123 -0.2845 -0.0064  0.1754
  743MOL0     H  284  11.100   5.429   2.094 -0.1163 -1.0299  0.8686
  743MOL0     H  285  10.037   5.020   1.881  0.5538  0.2776  0.0187
  743MOL0     H  286   9.773   5.036   1.932 -1.2769 -0.0717 -0.3842
  743MOL0     H  287   9.381   5.139   1.937  0.4758  0.4594  0.6641
  743MOL0     H  288   9.161   5.173   1.988  1.7356 -1.5217 -1.5132
  743MOL0     H  289   7.497   6.391   2.412  1.2741 -1.2806 -2.7117
  743MOL0     H  290   7.346   6.385   2.620  0.2816  0.2069  1.9844
  743MOL0     H  291   7.251   6.320   2.996 -0.9631  0.4053  0.6732
  743MOL0     H  292   7.126   6.400   3.166 -0.6562  1.3167 -1.8837
  743MOL0     H  293   6.926   6.441   3.379 -0.5945 -1.1125 -0.3793
  743MOL0     H  294   7.055   6.321   3.385  0.5603  1.7729  1.2968
  743MOL0     H  295   6.956   6.263   3.577  1.0264  0.1548 -1.4691
  743MOL0     H  296   6.861   6.154   3.476 -2.2674  0.6230  0.0047
  743MOL0     H  297   6.677   6.339   3.477  0.4438 -2.1341 -0.3276
  743MOL0     H  298   6.781   6.419   3.603  3.8870 -0.7870 -0.2386
  743MOL0     H  299   6.580   6.262   3.671 -0.6491 -0.3817 -0.5710
  743MOL0     H  300   6.693   6.130   3.625 -1.5621 -0.7876  2.2194
  743MOL0     H  301   6.851   6.262   3.993  4.0581 -0.5045 -0.7909
  743MOL0     H  302   6.846   6.066   3.107 -1.6731  1.7669 -1.6972
  743MOL0     H  303   6.903   5.965   2.826 -1.0203 -2.2404  0.1825
  743MOL0     H  304   7.054   5.886   2.897 -0.6655 -1.9048 -0.3851
  743MOL0     H  305   6.907   5.896   2.979 -0.1247 -1.0299 -2.0875
  744MOL0     O  306  10.013   1.796   9.957  0.2697  0.5798  0.0255
  744MOL0     C  307   9.956   1.903   9.927  0.6015  0.8368 -0.1181
  744MOL0     O  308  10.021   2.020   9.890 -0.3464 -0.2091  0.0447
  744MOL0     C  309  10.163   2.026   9.895  0.3623  0.2642  0.1992
  744MOL0     C  310  10.232   2.038   9.773 -0.3614 -0.3346 -0.3298
  744MOL0     C  311  10.367   2.018   9.773 -0.4431  0.5197 -0.3502
  744MOL0     C  312  10.441   1.993   9.897 -0.1671 -0.0854 -0.1761
  744MOL0     O  313  10.580   1.992   9.902  0.1486 -0.4700  1.4382
  744MOL0     C  314  10.647   2.033  10.021  0.2735 -0.6224  0.3236
  744MOL0     C  315  10.793   2.066   9.977  0.9901 -0.4953 -0.4169
  744MOL0     C  316  10.778   2.190   9.891 -0.4125 -0.6072  1.0551
  744MOL0     C  317  10.890   2.210   9.788 -0.1739  0.0284 -0.1405
  744MOL0     C  318  10.862   2.341   9.699  0.0410  0.5864  0.3162
  744MOL0     C  319  10.977   2.403   9.636  0.3225 -0.6414 -1.0080
  744MOL0     C  320  11.053   2.330   9.528  1.1826  0.1569  0.3669
  744MOL0     C  321  11.176   2.399   9.475  0.0548  0.1132  0.2411
  744MOL0     N  322  11.252   2.320   9.376  0.0560 -0.4877  0.0930
  744MOL0     C  323  11.349   2.219   9.389  0.6065 -0.5592  0.0484
  744MOL0     C  324  11.390   2.192   9.267  0.0285 -0.6371  0.4870
  744MOL0     C  325  11.491   2.093   9.222  0.0110  0.1587  0.5824
  744MOL0     C  326  11.454   2.020   9.093 -0.9769  0.2273  0.0575
  744MOL0     C  327  11.555   1.927   9.038 -0.2876  0.0046  0.1131
  744MOL0     C  328  11.694   1.989   9.021 -0.0538 -0.4351  1.1625
  744MOL0     O  329  11.784   1.900   8.952 -0.1698 -1.6879  0.1794
  744MOL0     C  330  11.913   1.950   8.932  1.0376 -0.0261 -0.1059
  744MOL0     C  331  11.957   2.083   8.940  0.4992  0.0991  0.4041
  744MOL0     C  332  12.087   2.121   8.907 -0.5600  0.8994 -0.5941
  744MOL0     C  333  12.183   2.025   8.876 -0.5453 -0.7662  0.5449
  744MOL0     C  334  12.324   2.058   8.844  1.0663 -0.2347  0.2351
  744MOL0     O  335  12.408   1.947   8.833 -0.2188 -0.5917  0.9677
  744MOL0     C  336  12.538   1.970   8.785  0.5730  0.3253 -0.1011
  744MOL0     C  337  12.558   2.022   8.658  0.3921 -0.7012  0.0194
  744MOL0     C  338  12.683   2.053   8.608  0.2746 -0.2425  0.5476
  744MOL0     C  339  12.789   2.051   8.697 -0.7717  0.0670  0.0249
  744MOL0     O  340  12.917   2.075   8.654  0.6438 -0.3786  0.0466
  744MOL0     C  341  12.991   2.165   8.719 -0.4471 -0.3384 -1.0925
  744MOL0     C  342  13.105   2.224   8.637 -0.2863  0.3831  0.3097
  744MOL0     C  343  13.235   2.130   8.634  1.1541 -0.7145 -0.2154
  744MOL0     C  344  13.358   2.208   8.587 -0.2040  0.0366 -0.3749
  744MOL0     C  345  13.488   2.124   8.595 -0.8659 -0.7531 -0.8378
  744MOL0     C  346  13.607   2.235   8.587  0.4107  0.6419  0.0884
  744MOL0     C  347  13.733   2.159   8.555 -1.4493 -0.3671  0.6329
  744MOL0     C  348  13.841   2.271   8.535 -0.4920  0.2955  0.0156
  744MOL0    Cl  349  13.958   2.269   8.674  0.3312 -0.0332  0.1755
  744MOL0     C  350  12.777   2.004   8.824  0.2381  0.3073 -0.7233
  744MOL0     C  351  12.647   1.956   8.869 -0.0531 -0.0414 -0.4833
  744MOL0     O  352  12.354   2.177   8.815 -0.1760  0.1762  0.7518
  744MOL0     C  353  12.143   1.887   8.874  0.1132  0.4395  0.4869
  744MOL0     C  354  12.011   1.851   8.898 -0.2795  0.5099  0.8732
  744MOL0     N  355  11.321   2.277   9.184 -0.5832  0.6871 -0.6146
  744MOL0     N  356  11.240   2.349   9.245  0.4884 -0.5179  0.5108
  744MOL0     C  357  10.362   1.979  10.017 -0.3731  1.0531  0.3136
  744MOL0     C  358  10.227   2.006  10.013 -0.1479  0.7751 -0.0777
  744MOL0     C  359   9.803   1.898   9.926  0.1061 -0.4765  0.0271
  744MOL0     C  360   9.725   2.004   9.961 -0.3519 -0.3200  0.1063
  744MOL0     C  361   9.588   2.003   9.953  0.7729 -0.4222  0.7372
  744MOL0     C  362   9.522   1.902   9.895 -0.0529  0.6448  0.2683
  744MOL0     O  363   9.392   1.924   9.878  0.2608 -0.0377 -0.3032
  744MOL0     C  364   9.306   1.833   9.816 -0.3845 -0.5445 -0.7011
  744MOL0     C  365   9.163   1.889   9.787 -0.2171  0.8652  0.3672
  744MOL0     C  366   9.063   1.865   9.898  0.4759 -0.0668 -0.1084
  744MOL0     C  367   8.925   1.908   9.853 -0.6503 -0.4687 -0.5374
  744MOL0     C  368   8.828   1.903   9.964 -0.4021 -0.2096 -0.0153
  744MOL0     C  369   8.765   1.913  10.058  0.2348 -0.4861 -0.5814
  744MOL0     C  370   9.595   1.789   9.860 -0.2666  0.0967 -0.5265
  744MOL0     C  371   9.734   1.781   9.883  0.3770  0.1259  0.5781
  744MOL0     C  372   9.810   1.648   9.829  0.0249 -0.1721  0.6755
  744MOL0     H  373  10.173   2.050   9.682 -0.0411 -3.2847 -1.0347
  744MOL0     H  374  10.424   2.019   9.680 -1.4813 -0.2681 -1.0116
  744MOL0     H  375  10.593   2.116  10.067 -0.5369 -0.3110 -1.1246
  744MOL0     H  376  10.644   1.942  10.081 -1.9086  0.5245  2.1382
  744MOL0     H  377  10.829   1.981   9.918  2.4456  0.6942 -1.3001
  744MOL0     H  378  10.854   2.089  10.064  0.4761  3.9309 -1.0216
  744MOL0     H  379  10.763   2.281   9.950 -0.7624  0.2594 -0.3199
  744MOL0     H  380  10.692   2.186   9.824 -0.7048 -1.0239  1.4514
  744MOL0     H  381  10.989   2.228   9.832 -0.5719  0.5467  0.5622
  744MOL0     H  382  10.897   2.119   9.728 -0.1221  0.0822 -0.2163
  744MOL0     H  383  10.788   2.308   9.625 -0.9354  1.4479  0.8786
  744MOL0     H  384  10.808   2.418   9.755  1.1656  1.3622  0.3666
  744MOL0     H  385  10.927   2.487   9.586 -1.9640 -0.2179  1.7566
  744MOL0     H  386  11.034   2.461   9.709 -0.1581  1.3247 -2.1327
  744MOL0     H  387  10.984   2.301   9.448  3.7529  1.8456 -2.7251
  744MOL0     H  388  11.087   2.237   9.575  2.8582  0.6842  0.2343
  744MOL0     H  389  11.148   2.497   9.436  1.3128  0.2366 -0.4285
  744MOL0     H  390  11.250   2.413   9.555  0.7998 -1.5192 -0.1200
  744MOL0     H  391  11.389   2.170   9.477 -1.2931 -2.3534 -0.0205
  744MOL0     H  392  11.590   2.138   9.209  0.3747 -0.9535 -0.8026
  744MOL0     H  393  11.513   2.014   9.294 -0.9838 -1.0512 -0.3855
  744MOL0     H  394  11.370   1.953   9.113 -0.0308 -1.2995 -0.8579
  744MOL0     H  395  11.440   2.087   9.008  0.0762  1.0528  0.5070
  744MOL0     H  396  11.501   1.884   8.953  0.9550 -1.6648  0.1198
  744MOL0     H  397  11.567   1.841   9.105  1.5532 -0.3570 -0.6271
  744MOL0     H  398  11.742   1.996   9.119  2.6005 -1.1836 -0.0060
  744MOL0     H  399  11.678   2.083   8.968  2.6366 -0.8819 -0.6719
  744MOL0     H  400  11.889   2.164   8.965 -2.1499 -2.3520  1.7825
  744MOL0     H  401  12.126   2.222   8.907  1.9313  0.0150 -1.2074
  744MOL0     H  402  12.479   2.057   8.592  1.6109 -0.2162 -1.2332
  744MOL0     H  403  12.690   2.091   8.506  1.5015  0.0347  0.7195
  744MOL0     H  404  12.924   2.242   8.758  1.9804  1.1152  0.5239
  744MOL0     H  405  13.037   2.120   8.807 -0.2822  1.8942  0.0393
  744MOL0     H  406  13.079   2.235   8.531  4.0189 -4.6619 -1.6919
  744MOL0     H  407  13.128   2.324   8.675  0.3832  0.2664  0.2220
  744MOL0     H  408  13.252   2.079   8.730 -0.4508 -1.0882 -0.0963
  744MOL0     H  409  13.214   2.051   8.561 -1.0061 -0.9329  0.5633
  744MOL0     H  410  13.370   2.291   8.657 -4.3334  0.3766  0.1901
  744MOL0     H  411  13.353   2.244   8.484  0.8620 -1.6187 -1.0535
  744MOL0     H  412  13.490   2.049   8.515  2.2661 -1.9574  0.2205
  744MOL0     H  413  13.507   2.081   8.693 -1.0529  1.1247  0.0643
  744MOL0     H  414  13.594   2.297   8.498  0.4782 -0.6637 -0.8604
  744MOL0     H  415  13.607   2.307   8.670  3.2432  1.9445 -0.9134
  744MOL0     H  416  13.724   2.101   8.463 -1.5425 -1.2178  1.1656
  744MOL0     H  417  13.771   2.093   8.633 -1.6248 -1.5736 -0.2842
  744MOL0     H  418  13.890   2.258   8.438 -0.6123  0.3836 -0.0576
  744MOL0     H  419  13.792   2.369   8.535  0.0137  0.6627  2.9932
  744MOL0     H  420  12.863   1.995   8.889  0.5429  1.8826 -0.8596
  744MOL0     H  421  12.643   1.914   8.969  0.8618  0.0453 -0.4017
  744MOL0     H  422  12.217   1.810   8.854  2.1592  2.1648  1.0081
  744MOL0     H  423  11.984   1.747   8.883  2.0641 -0.1237  0.7397
  744MOL0     H  424  10.399   1.956  10.116 -0.5094 -2.5825 -0.3367
  744MOL0     H  425  10.172   1.985  10.105  2.5361 -3.3519  0.8522
  744MOL0     H  426   9.759   2.091  10.016 -1.7042  0.2447  0.0872
  744MOL0     H  427   9.528   2.090   9.976  0.6495 -0.1492 -0.5424
  744MOL0     H  428   9.315   1.736   9.866 -1.7427 -0.2386  0.1585
  744MOL0     H  429   9.343   1.823   9.713 -1.7730  2.3161 -1.5621
  744MOL0     H  430   9.127   1.850   9.692  0.9588  2.1109 -0.6318
  744MOL0     H  431   9.172   1.994   9.757 -0.7227  0.5014 -1.1398
  744MOL0     H  432   9.097   1.921   9.986  0.7858 -0.4784  0.0411
  744MOL0     H  433   9.071   1.760   9.927 -0.1011 -0.0422  0.1569
  744MOL0     H  434   8.918   2.006   9.806 -3.2241  0.5798  1.7004
  744MOL0     H  435   8.899   1.827   9.785  3.9587 -1.9263 -0.8840
  744MOL0     H  436   8.694   1.931  10.136  3.3376 -0.4645  2.5195
  744MOL0     H  437   9.532   1.711   9.819 -2.4556  1.2590  0.4479
  744MOL0     H  438   9.826   1.582   9.914  0.2316 -1.2943 -0.2062
  744MOL0     H  439   9.750   1.601   9.751  0.1227 -0.9214  1.0421
  744MOL0     H  440   9.896   1.680   9.769 -0.1662  0.7086  0.8518
  745MOL0     O  441   1.826   1.377   3.882 -0.1878 -0.3017  0.0613
  745MOL0     C  442   1.814   1.437   3.989  0.4496  0.4720  0.2220
  745MOL0     O  443   1.917   1.460   4.074  0.9899  1.2611 -0.5132
  745MOL0     C  444   2.048   1.452   4.034 -0.2941 -0.0787 -0.6350
  745MOL0     C  445   2.146   1.401   4.117 -0.1721  0.0765 -0.2703
  745MOL0     C  446   2.280   1.395   4.077  1.3773  0.0701 -0.1187
  745MOL0     C  447   2.318   1.446   3.946  0.0181  1.0948 -0.5785
  745MOL0     O  448   2.455   1.435   3.915  0.3524  0.3451 -0.3008
  745MOL0     C  449   2.522   1.519   4.006 -0.4084 -0.1024 -0.3919
  745MOL0     C  450   2.666   1.545   3.965 -0.2409  0.4657 -0.0609
  745MOL0     C  451   2.744   1.419   3.971  0.3881 -0.3009 -0.6255
  745MOL0     C  452   2.882   1.421   3.916 -0.5933 -0.6347  0.2792
  745MOL0     C  453   2.955   1.291   3.937  0.3684 -0.3465  0.3460
  745MOL0     C  454   3.090   1.273   3.862  0.8618 -0.7634  0.2750
  745MOL0     C  455   3.164   1.147   3.909  0.6365  0.0241 -0.1005
  745MOL0     C  456   3.269   1.096   3.806 -0.0982 -0.2951  0.3335
  745MOL0     N  457   3.336   0.968   3.847 -0.0220 -0.5190 -0.8146
  745MOL0     C  458   3.409   0.952   3.968 -0.6420 -0.2810  0.3487
  745MOL0     C  459   3.428   0.814   3.975 -0.3241 -0.2070 -0.4118
  745MOL0     C  460   3.498   0.747   4.091  0.1691 -0.0043 -0.4489
  745MOL0     C  461   3.651   0.748   4.068  0.0076 -0.9296  0.0093
  745MOL0     C  462   3.673   0.639   3.958 -0.7687 -0.2125 -0.7678
  745MOL0     C  463   3.829   0.644   3.930  0.3879  0.5005 -0.0385
  745MOL0     O  464   3.896   0.601   4.050  0.2033  0.3350 -0.1193
  745MOL0     C  465   4.021   0.648   4.043  0.3013  0.4854 -0.0398
  745MOL0     C  466   4.109   0.568   3.976  0.3832 -0.6683  0.2568
  745MOL0     C  467   4.252   0.594   3.994  0.9307 -0.0638  0.1292
  745MOL0     C  468   4.298   0.700   4.074 -0.3713  0.6221  0.4483
  745MOL0     C  469   4.445   0.718   4.095  0.6012  0.6299  0.1494
  745MOL0     O  470   4.518   0.625   4.029 -0.1668  0.5999  0.1311
  745MOL0     C  471   4.653   0.613   4.056  0.0268 -0.5461 -0.0057
  745MOL0     C  472   4.703   0.590   4.189 -0.0792 -0.5551  0.2830
  745MOL0     C  473   4.840   0.568   4.205  0.5774  0.0646  0.5335
  745MOL0     C  474   4.930   0.576   4.098 -0.5797 -0.1182  0.7131
  745MOL0     O  475   5.061   0.551   4.107  1.0598  0.2970 -0.5701
  745MOL0     C  476   5.133   0.646   4.193  0.3965 -0.0098  0.2779
  745MOL0     C  477   5.282   0.612   4.197  0.1882  0.5869 -0.0305
  745MOL0     C  478   5.309   0.471   4.261  1.1061 -0.6405 -0.0065
  745MOL0     C  479   5.460   0.458   4.263 -0.7499 -0.2391 -0.2749
  745MOL0     C  480   5.490   0.330   4.350  0.2552  0.4393 -0.3655
  745MOL0     C  481   5.630   0.280   4.339  0.8930  0.6795  0.7172
  745MOL0     C  482   5.713   0.359   4.433  0.0290 -0.2437 -0.3464
  745MOL0     C  483   5.868   0.364   4.396  0.8056 -0.3492 -0.5837
  745MOL0    Cl  484   5.952   0.207   4.380 -0.1718 -0.1919  0.2189
  745MOL0     C  485   4.882   0.609   3.971 -0.1990 -0.0651  0.7793
  745MOL0     C  486   4.740   0.622   3.951 -0.5699 -0.3130  0.1178
  745MOL0     O  487   4.483   0.821   4.152 -0.2913  0.4038 -0.7338
  745MOL0     C  488   4.208   0.780   4.137 -0.6849  0.0077 -0.8672
  745MOL0     C  489   4.066   0.755   4.123 -0.0433 -0.7224  0.8746
  745MOL0     N  490   3.368   0.755   3.867  0.5756 -0.8027 -0.4210
  745MOL0     N  491   3.308   0.846   3.794 -0.1542  0.4724  0.7746
  745MOL0     C  492   2.221   1.495   3.861 -0.0380  0.8329 -0.2362
  745MOL0     C  493   2.090   1.492   3.898 -0.0912 -0.2668 -0.4372
  745MOL0     C  494   1.680   1.462   4.050  0.4573 -0.1156  0.1801
  745MOL0     C  495   1.667   1.495   4.183  0.6448  0.2783 -0.1299
  745MOL0     C  496   1.544   1.525   4.244  0.1607 -0.7225  0.7561
  745MOL0     C  497   1.424   1.519   4.168 -1.0039  0.0824  0.4114
  745MOL0     O  498   1.298   1.555   4.216  0.0573  0.7540  0.1876
  745MOL0     C  499   1.238   1.469   4.318 -0.4312 -0.5554  0.5501
  745MOL0     C  500   1.081   1.477   4.307 -0.0681 -0.4921  0.8015
  745MOL0     C  501   1.018   1.403   4.182 -1.8164  0.0663  0.0431
  745MOL0     C  502   0.868   1.422   4.164 -0.4479 -0.1264 -0.3469
  745MOL0     C  503   0.799   1.397   4.288  0.3768 -0.5946 -1.0690
  745MOL0     C  504   0.737   1.358   4.387  0.0379 -0.2274  0.0648
  745MOL0     C  505   1.434   1.499   4.034  0.0417 -0.5794  0.5799
  745MOL0     C  506   1.561   1.473   3.973  0.3435 -0.0274  0.1692
  745MOL0     C  507   1.565   1.443   3.828 -0.4326 -0.0649  0.2079
  745MOL0     H  508   2.118   1.362   4.214 -0.5804 -1.0401 -0.8128
  745MOL0     H  509   2.353   1.358   4.147  0.4598 -0.0371  0.8139
  745MOL0     H  510   2.469   1.614   4.015  0.8206  0.4210  2.1554
  745MOL0     H  511   2.515   1.486   4.110 -2.1914 -1.1043 -0.7879
  745MOL0     H  512   2.703   1.621   4.034  0.5506  1.1146 -1.1691
  745MOL0     H  513   2.664   1.590   3.866 -1.6252  0.7138  0.0591
  745MOL0     H  514   2.676   1.346   3.927 -2.8759  1.7307  0.7202
  745MOL0     H  515   2.757   1.389   4.076 -1.4703  0.8139 -0.0286
  745MOL0     H  516   2.889   1.446   3.810 -0.0235 -0.5215  0.3387
  745MOL0     H  517   2.923   1.506   3.972 -3.3979  0.2926  1.0860
  745MOL0     H  518   2.967   1.286   4.046 -0.3340  1.8772  0.5796
  745MOL0     H  519   2.890   1.207   3.911 -2.2588  1.9684 -1.2047
  745MOL0     H  520   3.066   1.265   3.755 -1.2420  1.3178  0.4889
  745MOL0     H  521   3.149   1.363   3.883  0.2537 -1.0570  3.7321
  745MOL0     H  522   3.088   1.069   3.914  0.6185  0.1080  1.9908
  745MOL0     H  523   3.205   1.156   4.010 -0.7436  1.8862  0.3600
  745MOL0     H  524   3.224   1.073   3.709 -1.2059  0.7351  0.5858
  745MOL0     H  525   3.345   1.173   3.791 -1.4499  1.3599  1.6157
  745MOL0     H  526   3.442   1.021   4.045  2.9173 -0.7022 -0.6358
  745MOL0     H  527   3.476   0.804   4.182 -0.4438 -1.1940  0.1778
  745MOL0     H  528   3.454   0.647   4.105 -0.1179  0.3256  1.1737
  745MOL0     H  529   3.682   0.850   4.041 -0.3060 -0.4518  1.4015
  745MOL0     H  530   3.699   0.715   4.161 -1.0708  0.8553  1.2591
  745MOL0     H  531   3.621   0.673   3.867  0.1803 -1.0562 -1.6563
  745MOL0     H  532   3.649   0.542   4.002 -1.0402  0.8769  1.6613
  745MOL0     H  533   3.855   0.748   3.909 -1.0542  0.9890  0.4270
  745MOL0     H  534   3.850   0.586   3.840 -0.5851 -2.0379  1.2722
  745MOL0     H  535   4.076   0.480   3.922  0.5523  0.2935 -1.4776
  745MOL0     H  536   4.316   0.525   3.941  1.3233 -0.2233  0.7986
  745MOL0     H  537   4.630   0.577   4.268 -0.0238 -0.8052  0.2937
  745MOL0     H  538   4.877   0.547   4.305 -0.5753 -0.5949  0.8398
  745MOL0     H  539   5.123   0.745   4.149 -1.9903 -0.7668 -1.0649
  745MOL0     H  540   5.107   0.649   4.299  1.2772 -1.9055  0.5894
  745MOL0     H  541   5.323   0.603   4.096  0.0013 -1.9382  0.0427
  745MOL0     H  542   5.325   0.695   4.254 -1.7659  0.8727  1.1068
  745MOL0     H  543   5.271   0.476   4.363 -0.3231 -0.3797 -0.5319
  745MOL0     H  544   5.261   0.393   4.202  1.5215  0.8499 -2.4355
  745MOL0     H  545   5.511   0.548   4.298  0.6086 -0.7348 -0.9439
  745MOL0     H  546   5.494   0.435   4.162 -0.0118  2.7442 -0.7906
  745MOL0     H  547   5.427   0.244   4.325  0.9215 -1.4084  3.5736
  745MOL0     H  548   5.463   0.356   4.453 -0.7056 -0.3736 -0.3936
  745MOL0     H  549   5.637   0.173   4.359 -2.2816  0.0864 -0.7460
  745MOL0     H  550   5.664   0.305   4.237  0.8761  2.7617  1.1732
  745MOL0     H  551   5.690   0.337   4.538 -2.8662  3.6163  0.0689
  745MOL0     H  552   5.687   0.463   4.410  1.8155 -0.0495 -1.6943
  745MOL0     H  553   5.873   0.412   4.297  2.8080  0.6178 -0.0766
  745MOL0     H  554   5.926   0.424   4.467  0.0569 -0.2172 -0.0833
  745MOL0     H  555   4.943   0.622   3.882 -0.9307 -1.9746 -0.0623
  745MOL0     H  556   4.713   0.650   3.850 -2.0433  1.3391  0.9250
  745MOL0     H  557   4.245   0.862   4.198 -1.7538  0.2916 -0.5750
  745MOL0     H  558   3.980   0.811   4.159 -3.1492 -0.9604 -4.9638
  745MOL0     H  559   2.236   1.546   3.766 -0.4493  1.9736  0.3006
  745MOL0     H  560   2.024   1.542   3.829  0.5314  0.8360 -0.2486
  745MOL0     H  561   1.753   1.481   4.249  0.1338  1.9004  0.9220
  745MOL0     H  562   1.537   1.576   4.339  0.8344 -0.7569  0.8287
  745MOL0     H  563   1.272   1.501   4.417 -0.7173 -0.8529  0.7454
  745MOL0     H  564   1.255   1.364   4.295 -3.6319 -1.1406  0.4172
  745MOL0     H  565   1.056   1.583   4.305 -0.2484 -0.5376  0.5833
  745MOL0     H  566   1.040   1.423   4.393 -1.8359  0.5205  0.6287
  745MOL0     H  567   1.046   1.298   4.178  3.0253  1.0946 -4.2525
  745MOL0     H  568   1.065   1.441   4.091 -0.5827 -1.0029  0.2112
  745MOL0     H  569   0.849   1.519   4.117 -2.2395 -0.1173  0.3225
  745MOL0     H  570   0.827   1.351   4.091 -1.2311  0.6127 -0.6354
  745MOL0     H  571   0.680   1.313   4.465 -1.5249 -0.5451 -1.2100
  745MOL0     H  572   1.342   1.508   3.978  0.3497  0.3751  0.1947
  745MOL0     H  573   1.637   1.514   3.786  0.0753  1.1665  2.9469
  745MOL0     H  574   1.604   1.342   3.809  0.9352  0.8096 -2.0507
  745MOL0     H  575   1.464   1.453   3.786  0.0719 -1.0623 -1.3246
  746MOL0     O  576   0.005   1.044   1.175 -0.3034 -0.1800 -0.3437
  746MOL0     C  577  -0.012   1.098   1.284  0.2150 -0.3640 -0.6150
  746MOL0     O  578   0.085   1.139   1.377  0.1944 -0.0154  0.0213
  746MOL0     C  579   0.211   1.143   1.328 -0.7786 -0.3954 -0.4285
  746MOL0     C  580   0.271   1.034   1.283 -0.6782  0.3714  0.1149
  746MOL0     C  581   0.405   1.027   1.244  0.1380 -0.3313  0.5042
  746MOL0     C  582   0.469   1.146   1.250  0.2935 -0.1073  0.2021
  746MOL0     O  583   0.598   1.158   1.195  0.1444 -0.1953 -0.0613
  746MOL0     C  584   0.660   1.282   1.175  0.9858 -0.0525  0.4451
  746MOL0     C  585   0.815   1.251   1.160  0.1647  0.0274  0.2974
  746MOL0     C  586   0.872   1.184   1.283 -0.6345  0.4164 -0.1207
  746MOL0     C  587   1.024   1.200   1.295 -0.5233 -0.5444  0.0798
  746MOL0     C  588   1.078   1.157   1.435 -0.4296  0.0578  0.5064
  746MOL0     C  589   1.221   1.213   1.444  0.0721 -0.3649 -0.5969
  746MOL0     C  590   1.269   1.191   1.590  0.0212  0.3352 -0.3416
  746MOL0     C  591   1.408   1.259   1.612  0.2548  0.1722  0.2452
  746MOL0     N  592   1.468   1.196   1.733 -0.2099  0.2256  0.5349
  746MOL0     C  593   1.519   1.275   1.834  0.2781  1.0412  0.7483
  746MOL0     C  594   1.571   1.179   1.916 -0.0421  0.2690 -0.3225
  746MOL0     C  595   1.638   1.208   2.048 -0.3899 -0.8305 -0.7516
  746MOL0     C  596   1.791   1.186   2.056  0.5764  0.2619  0.0060
  746MOL0     C  597   1.846   1.224   2.201 -0.2323  0.3096 -0.4504
  746MOL0     C  598   1.989   1.157   2.222  0.0318  0.3202  0.1145
  746MOL0     O  599   2.091   1.241   2.161 -0.7740  0.5796 -0.3607
  746MOL0     C  600   2.226   1.191   2.164  0.7147 -0.2635  0.6712
  746MOL0     C  601   2.306   1.270   2.083  0.0546  0.4469 -1.5379
  746MOL0     C  602   2.438   1.226   2.066 -0.2646  0.6305 -0.3943
  746MOL0     C  603   2.492   1.115   2.136  0.1446  1.3573 -0.1445
  746MOL0     C  604   2.637   1.086   2.119  0.7237  0.6626  0.1034
  746MOL0     O  605   2.711   1.169   2.043 -0.1734  0.2383  0.4170
  746MOL0     C  606   2.840   1.133   2.019  0.4995 -1.3652  0.7308
  746MOL0     C  607   2.873   1.020   1.952 -0.5872 -0.3804 -0.4944
  746MOL0     C  608   3.010   0.988   1.925 -0.0470 -0.4325 -0.4412
  746MOL0     C  609   3.111   1.090   1.949  1.2459 -0.0204 -0.5943
  746MOL0     O  610   3.243   1.074   1.924  0.3841  0.3528  0.2566
  746MOL0     C  611   3.341   1.172   1.958 -1.2389  0.4379  0.9693
  746MOL0     C  612   3.469   1.127   1.901 -0.1395  0.1468 -0.0472
  746MOL0     C  613   3.571   1.086   1.996 -0.4199 -0.0250  0.5016
  746MOL0     C  614   3.712   1.079   1.939  0.1323 -0.0567  0.0036
  746MOL0     C  615   3.817   1.050   2.046  0.1293  0.1973  0.5216
  746MOL0     C  616   3.957   1.003   1.992 -0.2467 -0.3659  0.5297
  746MOL0     C  617   3.956   0.867   1.919 -0.4524 -0.2493 -0.2481
  746MOL0     C  618   4.101   0.820   1.883  0.5173 -0.4885  0.4445
  746MOL0    Cl  619   4.109   0.663   1.783 -0.0719 -0.0621 -0.0591
  746MOL0     C  620   3.065   1.206   2.017 -0.3373  0.6663  1.8156
  746MOL0     C  621   2.933   1.229   2.044 -0.0587  0.7853 -0.0565
  746MOL0     O  622   2.672   0.978   2.158  0.4700 -0.1065  0.0402
  746MOL0     C  623   2.401   1.033   2.211 -0.2724 -0.0306  0.9228
  746MOL0     C  624   2.269   1.076   2.228 -0.5365 -0.2510 -0.2474
  746MOL0     N  625   1.541   1.053   1.864  0.0196 -0.5055 -1.2030
  746MOL0     N  626   1.483   1.061   1.751 -0.5421 -0.5392 -0.6924
  746MOL0     C  627   0.403   1.264   1.306 -0.8268  0.1812 -0.4089
  746MOL0     C  628   0.279   1.261   1.346  0.6619  0.0469 -1.2385
  746MOL0     C  629  -0.150   1.135   1.317  0.5044  0.8843 -0.0623
  746MOL0     C  630  -0.248   1.037   1.287 -0.6213 -0.2046 -0.0068
  746MOL0     C  631  -0.379   1.041   1.330  1.0820 -0.0976  0.4667
  746MOL0     C  632  -0.434   1.154   1.394 -0.7118 -0.6964 -0.3504
  746MOL0     O  633  -0.561   1.155   1.432  0.2123  0.2443 -0.0213
  746MOL0     C  634  -0.616   1.269   1.499 -0.3695  0.5341  0.5856
  746MOL0     C  635  -0.761   1.250   1.553 -0.1529 -0.5545  0.8122
  746MOL0     C  636  -0.777   1.143   1.663 -0.0933  0.0373  0.2655
  746MOL0     C  637  -0.679   1.152   1.779  0.2954  0.1467 -0.2297
  746MOL0     C  638  -0.686   1.284   1.847  0.6576 -0.3100 -0.2041
  746MOL0     C  639  -0.690   1.401   1.878 -0.9488 -0.3293 -0.0145
  746MOL0     C  640  -0.334   1.248   1.427 -0.2918 -0.1810  0.3951
  746MOL0     C  641  -0.204   1.249   1.391 -0.5339 -0.3525  0.2312
  746MOL0     C  642  -0.119   1.369   1.407  0.4595 -0.9505  0.5686
  746MOL0     H  643   0.217   0.940   1.293 -1.5786  0.8961  0.3238
  746MOL0     H  644   0.457   0.942   1.201  0.4203 -0.2439  0.6684
  746MOL0     H  645   0.618   1.329   1.086  2.5403  2.6299  0.9897
  746MOL0     H  646   0.635   1.356   1.252  2.1995 -0.1171  0.9229
  746MOL0     H  647   0.871   1.343   1.141 -0.9478  0.3780 -1.6099
  746MOL0     H  648   0.825   1.184   1.074  0.8062  1.4511 -0.7955
  746MOL0     H  649   0.864   1.074   1.284  2.8392  0.0494 -0.7625
  746MOL0     H  650   0.836   1.228   1.376 -0.3208  1.3817 -0.4405
  746MOL0     H  651   1.081   1.140   1.223 -2.0613  0.9835 -2.5746
  746MOL0     H  652   1.048   1.305   1.278 -3.8028  0.3853  0.4474
  746MOL0     H  653   1.020   1.204   1.515 -1.0227  1.0777 -0.4895
  746MOL0     H  654   1.083   1.048   1.433 -0.1065  0.0178  1.9686
  746MOL0     H  655   1.284   1.161   1.371 -0.1220  1.6787 -2.3240
  746MOL0     H  656   1.211   1.322   1.431 -0.0396 -0.3798 -0.6339
  746MOL0     H  657   1.273   1.082   1.603 -0.3889  0.6288  3.4362
  746MOL0     H  658   1.200   1.227   1.667  0.6626 -0.4201  0.6190
  746MOL0     H  659   1.476   1.254   1.526 -0.1117  0.4967 -0.0703
  746MOL0     H  660   1.388   1.365   1.632 -1.0106 -0.0170  0.0670
  746MOL0     H  661   1.530   1.383   1.841 -1.2912  1.2773  0.0646
  746MOL0     H  662   1.619   1.315   2.066  1.7533 -0.7594  1.7145
  746MOL0     H  663   1.581   1.146   2.118 -2.6653  1.1536 -0.6955
  746MOL0     H  664   1.815   1.080   2.043  2.2701  0.2631  2.4583
  746MOL0     H  665   1.848   1.249   1.986  2.3736  1.3535  2.3408
  746MOL0     H  666   1.774   1.176   2.268 -0.3678 -0.8943 -1.4218
  746MOL0     H  667   1.847   1.331   2.222 -0.6459 -0.0043  1.3188
  746MOL0     H  668   1.974   1.059   2.177  3.3911 -0.3604  0.2513
  746MOL0     H  669   2.010   1.138   2.328 -0.5686  3.0511  0.8147
  746MOL0     H  670   2.266   1.359   2.034 -2.6164 -0.1164 -0.5256
  746MOL0     H  671   2.500   1.294   2.008  0.3699  0.1335 -0.3108
  746MOL0     H  672   2.791   0.955   1.925 -0.5785 -1.7331  2.3414
  746MOL0     H  673   3.037   0.894   1.878 -1.6559 -0.2216 -1.8859
  746MOL0     H  674   3.312   1.270   1.921 -0.6623  0.6310  1.0244
  746MOL0     H  675   3.345   1.176   2.068  0.3367 -1.7934  1.0628
  746MOL0     H  676   3.453   1.038   1.841  1.0156 -0.9574  1.2253
  746MOL0     H  677   3.508   1.201   1.831 -0.2349 -0.8968 -1.2283
  746MOL0     H  678   3.570   1.170   2.066  0.0192  0.5057 -0.1153
  746MOL0     H  679   3.540   0.990   2.039 -1.7372 -0.8323 -2.0267
  746MOL0     H  680   3.732   1.177   1.892 -2.3121  0.0581 -0.9360
  746MOL0     H  681   3.714   1.001   1.862 -1.1682 -0.2601  0.1510
  746MOL0     H  682   3.776   0.969   2.108  0.9645 -0.7415 -0.1214
  746MOL0     H  683   3.827   1.140   2.106  0.2672  1.5397 -1.4234
  746MOL0     H  684   3.992   1.090   1.936 -0.4030 -1.3201 -1.1169
  746MOL0     H  685   4.031   0.993   2.072 -1.3877 -1.8471  1.4739
  746MOL0     H  686   3.896   0.876   1.828  1.1859 -1.5519 -1.5349
  746MOL0     H  687   3.917   0.783   1.978  0.9187 -0.4453  0.4132
  746MOL0     H  688   4.151   0.901   1.828 -0.9559  0.1840  0.0552
  746MOL0     H  689   4.154   0.796   1.976  0.7950 -1.0199  0.1570
  746MOL0     H  690   3.129   1.293   2.032 -1.2858  1.5534  0.9310
  746MOL0     H  691   2.903   1.321   2.093  1.8116  0.4128  1.9453
  746MOL0     H  692   2.431   0.937   2.252  0.7143 -1.0320 -1.9050
  746MOL0     H  693   2.205   1.015   2.292  0.4477 -0.1472  0.8659
  746MOL0     H  694   0.442   1.366   1.307  1.1505 -0.5217  1.2796
  746MOL0     H  695   0.237   1.358   1.374  2.0516  0.2474  0.3312
  746MOL0     H  696  -0.228   0.938   1.246 -1.8120 -0.7931  0.7498
  746MOL0     H  697  -0.441   0.954   1.311  1.0285  0.4203 -2.0801
  746MOL0     H  698  -0.607   1.353   1.430  2.5413  1.1691  1.6065
  746MOL0     H  699  -0.560   1.299   1.588  0.4329  1.8590 -0.3373
  746MOL0     H  700  -0.816   1.237   1.459 -0.2475  1.9475  0.4306
  746MOL0     H  701  -0.784   1.350   1.592  1.3117 -0.2289  0.8730
  746MOL0     H  702  -0.773   1.038   1.630  1.0410  1.1211 -3.4895
  746MOL0     H  703  -0.877   1.150   1.707  0.3223 -4.0134  2.3272
  746MOL0     H  704  -0.702   1.080   1.859 -2.5852  0.5773 -0.5517
  746MOL0     H  705  -0.582   1.135   1.733  0.4951 -1.1943  0.6097
  746MOL0     H  706  -0.702   1.500   1.919  1.9421 -0.0741  0.4533
  746MOL0     H  707  -0.360   1.338   1.483  1.2008  0.9849 -0.6802
  746MOL0     H  708  -0.062   1.357   1.499  1.3871 -1.1631 -0.0275
  746MOL0     H  709  -0.047   1.384   1.326 -0.0950  1.8215  0.4822
  746MOL0     H  710  -0.179   1.460   1.398  0.2655 -0.9219  1.9134
  747MOL0     O  711   5.215   5.626   5.698  0.5134  0.2563  0.9624
  747MOL0     C  712   5.187   5.534   5.774 -0.9504 -0.0171 -0.7867
  747MOL0     O  713   5.273   5.470   5.860  0.5386 -0.2902  0.1089
  747MOL0     C  714   5.400   5.510   5.890  0.0149  0.8803 -0.1571
  747MOL0     C  715   5.483   5.593   5.812  0.0369  0.0107  0.0358
  747MOL0     C  716   5.612   5.631   5.850  0.0124 -0.4029  0.0385
  747MOL0     C  717   5.678   5.564   5.958  0.0782  0.1694  1.0715
  747MOL0     O  718   5.806   5.595   6.008  0.4422 -0.4519 -0.0417
  747MOL0     C  719   5.916   5.620   5.917 -0.6317  0.3027 -0.6566
  747MOL0     C  720   6.046   5.567   5.976 -0.2847  0.0476  0.6748
  747MOL0     C  721   6.168   5.563   5.878  0.4791  0.4018 -0.3070
  747MOL0     C  722   6.256   5.676   5.920 -0.2037  0.4726  0.0050
  747MOL0     C  723   6.399   5.661   5.867 -1.3842  1.9544  0.4069
  747MOL0     C  724   6.399   5.722   5.721 -0.3584 -0.3509 -0.6967
  747MOL0     C  725   6.539   5.744   5.672 -0.2901 -0.1393  0.2977
  747MOL0     C  726   6.612   5.607   5.655  1.0169 -0.2289  0.9211
  747MOL0     N  727   6.743   5.638   5.592  0.3175 -0.6552  0.8303
  747MOL0     C  728   6.751   5.679   5.458 -0.5969 -0.7646 -0.8015
  747MOL0     C  729   6.879   5.645   5.419 -0.1371  0.5471  0.7762
  747MOL0     C  730   6.931   5.651   5.277  0.0437 -0.0155 -0.1341
  747MOL0     C  731   7.080   5.624   5.278  0.2082  0.7417  0.1286
  747MOL0     C  732   7.129   5.606   5.136  0.8603 -0.0815  0.3128
  747MOL0     C  733   7.096   5.463   5.086  0.1570 -0.5810 -0.2592
  747MOL0     O  734   7.174   5.367   5.165  0.4052 -0.1212  0.3625
  747MOL0     C  735   7.310   5.373   5.170 -0.0909  0.1364 -0.0781
  747MOL0     C  736   7.382   5.393   5.056 -0.3116  0.1267  0.2935
  747MOL0     C  737   7.519   5.375   5.044 -0.1721  0.3583  0.2229
  747MOL0     C  738   7.590   5.344   5.157 -0.8958 -0.1213  0.0283
  747MOL0     C  739   7.740   5.333   5.160 -0.6491  0.7778  0.9862
  747MOL0     O  740   7.802   5.304   5.276 -0.0986 -0.3106 -0.0859
  747MOL0     C  741   7.939   5.314   5.284  0.0088 -0.4220 -0.7361
  747MOL0     C  742   8.019   5.208   5.237 -0.5488 -0.6538  0.3340
  747MOL0     C  743   8.158   5.218   5.239 -0.9384  0.4654 -0.4420
  747MOL0     C  744   8.222   5.332   5.290  0.5558  0.4793 -0.6544
  747MOL0     O  745   8.357   5.356   5.299 -0.0569  0.2243  0.4491
  747MOL0     C  746   8.451   5.279   5.229  0.2986  0.2648 -0.5305
  747MOL0     C  747   8.480   5.141   5.296  0.2722 -0.1496 -0.7302
  747MOL0     C  748   8.562   5.042   5.201  0.0753  0.0421 -0.3201
  747MOL0     C  749   8.663   4.957   5.276  0.4878  0.0594  0.3831
  747MOL0     C  750   8.761   4.900   5.170  0.1420  0.0330  0.0326
  747MOL0     C  751   8.849   4.791   5.230  0.1608  0.2845  0.4105
  747MOL0     C  752   8.959   4.749   5.137 -0.1673 -0.0206  0.3047
  747MOL0     C  753   9.049   4.637   5.194  0.3282 -0.5216 -0.1695
  747MOL0    Cl  754   8.959   4.488   5.227 -0.2079 -0.3980  0.0286
  747MOL0     C  755   8.144   5.435   5.342 -0.6208  0.5383 -0.9059
  747MOL0     C  756   8.004   5.419   5.359 -0.1417  0.0002  1.2596
  747MOL0     O  757   7.795   5.357   5.051  0.2974  0.6008 -0.0330
  747MOL0     C  758   7.521   5.320   5.271 -0.9389 -0.8122  0.1153
  747MOL0     C  759   7.384   5.335   5.282 -0.3045 -0.1947  0.1227
  747MOL0     N  760   6.955   5.614   5.531 -0.5773 -0.8520 -0.6283
  747MOL0     N  761   6.871   5.615   5.639 -0.5196  0.5522  0.3476
  747MOL0     C  762   5.594   5.472   6.028 -0.4976 -0.5726 -0.7303
  747MOL0     C  763   5.467   5.435   5.992  0.0829  0.0189 -0.8056
  747MOL0     C  764   5.044   5.507   5.767 -0.2125  0.8117  0.1687
  747MOL0     C  765   4.972   5.549   5.656 -0.2775  0.1573 -0.4115
  747MOL0     C  766   4.832   5.530   5.638 -0.2700 -0.1992 -0.4035
  747MOL0     C  767   4.767   5.457   5.735  0.0290 -1.3244 -0.1784
  747MOL0     O  768   4.631   5.437   5.722  0.3710  0.2462 -0.3882
  747MOL0     C  769   4.550   5.489   5.620 -0.1132  0.1542  0.3839
  747MOL0     C  770   4.406   5.461   5.663 -0.5090 -0.2299 -1.0060
  747MOL0     C  771   4.374   5.307   5.681  1.1179  0.0900  0.0860
  747MOL0     C  772   4.246   5.297   5.758 -0.1135 -0.4184 -0.5141
  747MOL0     C  773   4.168   5.176   5.737  0.6716 -0.1516  0.5405
  747MOL0     C  774   4.089   5.092   5.695  0.3995 -0.3301  0.2837
  747MOL0     C  775   4.841   5.420   5.850  0.7034 -0.0505  0.5133
  747MOL0     C  776   4.975   5.437   5.865  0.3594  0.3402  0.4727
  747MOL0     C  777   5.039   5.400   5.993  0.2296 -0.0974 -0.2220
  747MOL0     H  778   5.451   5.631   5.715  4.2780  1.5990 -0.9924
  747MOL0     H  779   5.672   5.690   5.781 -1.1039 -0.3457 -0.9101
  747MOL0     H  780   5.899   5.549   5.836 -0.1278 -0.9265  0.2735
  747MOL0     H  781   5.932   5.721   5.879  2.1630  0.4755  0.6868
  747MOL0     H  782   6.029   5.461   6.001 -2.4653 -0.0906 -1.1099
  747MOL0     H  783   6.064   5.626   6.067  2.4328  3.2812 -1.7324
  747MOL0     H  784   6.137   5.575   5.774  0.4415  1.4854 -0.1891
  747MOL0     H  785   6.231   5.476   5.895  1.2044  1.0473  0.3997
  747MOL0     H  786   6.214   5.772   5.889 -1.2080 -1.0422 -3.7901
  747MOL0     H  787   6.252   5.687   6.029 -1.6801  2.1105 -0.1706
  747MOL0     H  788   6.466   5.713   5.935 -0.1968 -0.6798  1.3700
  747MOL0     H  789   6.422   5.554   5.867  1.4277  2.4697  2.0430
  747MOL0     H  790   6.331   5.672   5.652 -0.5167 -0.5847 -0.3722
  747MOL0     H  791   6.360   5.824   5.717 -1.5583 -0.6709  1.3600
  747MOL0     H  792   6.587   5.814   5.740  0.7503 -0.9346  0.4089
  747MOL0     H  793   6.531   5.785   5.571  1.4085  1.8055  0.8887
  747MOL0     H  794   6.638   5.553   5.747 -0.3997 -0.7392  1.0416
  747MOL0     H  795   6.557   5.531   5.599  0.2819 -0.3987  1.8638
  747MOL0     H  796   6.673   5.728   5.400 -0.2646 -0.1704 -0.7515
  747MOL0     H  797   6.883   5.575   5.215 -0.9355  1.3552 -1.1281
  747MOL0     H  798   6.905   5.751   5.242  0.6412 -0.0139 -0.6104
  747MOL0     H  799   7.137   5.702   5.330  0.6288  0.5944 -0.1091
  747MOL0     H  800   7.100   5.534   5.336 -3.4306 -0.7628 -0.6492
  747MOL0     H  801   7.236   5.629   5.132  0.9620 -0.5196  0.4264
  747MOL0     H  802   7.071   5.671   5.070 -0.0987 -2.4503 -1.2940
  747MOL0     H  803   7.124   5.465   4.981 -2.2434  1.0514 -0.9448
  747MOL0     H  804   6.988   5.447   5.092 -0.2661  2.1853  2.0648
  747MOL0     H  805   7.339   5.422   4.960 -1.8798 -1.9587  0.2890
  747MOL0     H  806   7.568   5.390   4.948  0.2833  4.1464  0.8694
  747MOL0     H  807   7.969   5.128   5.184  1.4102  0.2463 -3.2331
  747MOL0     H  808   8.215   5.151   5.175  0.6012 -1.6327  2.8503
  747MOL0     H  809   8.414   5.264   5.128 -0.1706 -0.7357 -0.2237
  747MOL0     H  810   8.547   5.333   5.230  0.4532  0.1308  2.5598
  747MOL0     H  811   8.550   5.159   5.379 -0.1987  2.3395 -0.8012
  747MOL0     H  812   8.395   5.089   5.339  1.9316 -2.7785 -0.4105
  747MOL0     H  813   8.500   4.966   5.153  0.9323  0.3632 -2.0101
  747MOL0     H  814   8.599   5.094   5.112  0.8732 -1.3605 -0.8405
  747MOL0     H  815   8.614   4.872   5.324  1.9642 -0.5516  0.8694
  747MOL0     H  816   8.720   4.999   5.359  2.9539 -1.2327 -0.5478
  747MOL0     H  817   8.829   4.979   5.137  0.5586  0.1193  1.0699
  747MOL0     H  818   8.706   4.866   5.082  0.7673  2.0064 -1.1988
  747MOL0     H  819   8.896   4.832   5.320  3.7170  1.3573 -1.7274
  747MOL0     H  820   8.801   4.699   5.265  1.9621 -0.5797  0.7287
  747MOL0     H  821   9.021   4.837   5.116 -1.1318  1.0565  1.7545
  747MOL0     H  822   8.913   4.711   5.047  0.3806  0.1996 -0.0770
  747MOL0     H  823   9.144   4.622   5.143 -0.1509 -2.0671 -0.6769
  747MOL0     H  824   9.086   4.666   5.293  0.3115  2.2903 -0.9127
  747MOL0     H  825   8.199   5.521   5.380  0.8982 -1.4716  1.8902
  747MOL0     H  826   7.955   5.501   5.412  0.6946 -1.0722  3.8643
  747MOL0     H  827   7.578   5.297   5.360 -0.3088 -0.4101 -0.1797
  747MOL0     H  828   7.334   5.301   5.372  1.8762 -0.7422  1.1990
  747MOL0     H  829   5.643   5.420   6.109 -0.2854  0.6078 -0.0787
  747MOL0     H  830   5.417   5.352   6.040  0.4491 -0.5159 -1.3416
  747MOL0     H  831   5.026   5.614   5.588  2.3626  0.8616  2.1452
  747MOL0     H  832   4.780   5.563   5.549 -2.4007  0.5411  1.0384
  747MOL0     H  833   4.558   5.441   5.521  1.0600 -0.5023  0.7758
  747MOL0     H  834   4.575   5.595   5.612 -0.1026  0.1684  0.6288
  747MOL0     H  835   4.341   5.501   5.584  0.3494 -0.2295 -1.7333
  747MOL0     H  836   4.392   5.508   5.760 -0.0513 -2.1891  0.0581
  747MOL0     H  837   4.450   5.245   5.729 -0.3477 -2.9348 -1.2294
  747MOL0     H  838   4.347   5.261   5.586  3.0288 -0.6934 -0.1162
  747MOL0     H  839   4.264   5.310   5.865 -0.6108 -0.5977 -0.4032
  747MOL0     H  840   4.194   5.378   5.706 -1.3903 -2.8679 -3.3843
  747MOL0     H  841   4.026   5.016   5.655  0.8382 -0.9465  0.7335
  747MOL0     H  842   4.782   5.370   5.926  1.3250 -0.9919  0.4020
  747MOL0     H  843   5.113   5.322   5.975 -1.7178 -1.8737 -0.9140
  747MOL0     H  844   5.088   5.489   6.033  0.1176  1.4017 -3.1280
  747MOL0     H  845   4.970   5.368   6.072 -0.2311  1.0829 -0.1203
  748MOL0     O  846   9.191  10.982   7.271 -0.2379  0.4841 -0.4477
  748MOL0     C  847   9.203  10.987   7.396  0.6640  0.4516 -0.0787
  748MOL0     O  848   9.315  11.025   7.462  0.3279  0.3715 -0.0382
  748MOL0     C  849   9.399  11.108   7.392  0.8690 -0.6645  0.2807
  748MOL0     C  850   9.529  11.073   7.376  0.1118 -0.3115  0.2761
  748MOL0     C  851   9.616  11.158   7.315 -0.1524 -0.9697  0.3917
  748MOL0     C  852   9.581  11.279   7.256  0.4558 -0.0423 -0.3712
  748MOL0     O  853   9.669  11.348   7.179 -0.0034  0.3445 -0.7365
  748MOL0     C  854   9.624  11.473   7.126 -0.3383 -0.0132 -0.8174
  748MOL0     C  855   9.744  11.539   7.050 -0.2325 -0.1214  0.4524
  748MOL0     C  856   9.858  11.587   7.131  0.3541  0.3036  0.8024
  748MOL0     C  857   9.964  11.660   7.049 -0.8387  0.0905 -0.4448
  748MOL0     C  858  10.073  11.727   7.141  0.2167 -0.1713  0.2182
  748MOL0     C  859  10.190  11.803   7.077 -1.1538 -0.2097  0.4406
  748MOL0     C  860  10.262  11.703   6.982 -0.5092 -0.3066  0.4964
  748MOL0     C  861  10.383  11.754   6.899  0.0994 -0.8667  0.3265
  748MOL0     N  862  10.514  11.735   6.968 -0.6042 -0.2058 -0.2983
  748MOL0     C  863  10.580  11.613   6.996  0.7549 -0.7136  0.5189
  748MOL0     C  864  10.709  11.643   7.022 -0.7067 -1.0322  0.3132
  748MOL0     C  865  10.815  11.544   7.070 -0.3930 -0.5608  0.3146
  748MOL0     C  866  10.958  11.601   7.053 -0.3548 -1.1851 -0.0073
  748MOL0     C  867  10.989  11.637   6.903  0.6915  0.2203  0.5649
  748MOL0     C  868  11.122  11.706   6.898  0.4231  0.2616  0.0449
  748MOL0     O  869  11.230  11.622   6.951  0.2787 -0.3063  0.3726
  748MOL0     C  870  11.363  11.658   6.970  0.6653  0.1844  0.2841
  748MOL0     C  871  11.452  11.571   7.040 -0.0368 -1.1123  0.6550
  748MOL0     C  872  11.587  11.599   7.068  0.0050 -0.1613 -0.0591
  748MOL0     C  873  11.633  11.725   7.032  0.1756 -0.2200  0.0975
  748MOL0     C  874  11.768  11.774   7.053 -0.5491  0.3138 -0.2880
  748MOL0     O  875  11.807  11.885   6.997  0.0974  0.2763  0.0445
  748MOL0     C  876  11.939  11.931   6.995 -0.1985  0.2094  0.5607
  748MOL0     C  877  11.963  12.062   6.958  0.3127  0.1355 -0.5764
  748MOL0     C  878  12.086  12.118   6.942  0.1208 -0.0700  0.5757
  748MOL0     C  879  12.196  12.033   6.932 -0.0975  0.2020  0.1501
  748MOL0     O  880  12.315  12.092   6.891 -0.5178  0.1141 -0.3720
  748MOL0     C  881  12.427  12.082   6.975  0.4238  0.2708 -0.7861
  748MOL0     C  882  12.552  12.052   6.892  0.1631  0.7351  0.6114
  748MOL0     C  883  12.670  12.042   6.982 -0.1514  0.0454 -0.7186
  748MOL0     C  884  12.795  12.042   6.896 -0.3093 -0.2769  0.2468
  748MOL0     C  885  12.918  12.033   6.991  0.7226 -0.0522  0.3098
  748MOL0     C  886  13.047  12.001   6.911  0.4967 -0.2796 -0.2295
  748MOL0     C  887  13.088  12.106   6.811 -0.3790 -0.6996  0.4063
  748MOL0     C  888  13.225  12.079   6.732 -0.6000  0.5180  0.1028
  748MOL0    Cl  889  13.371  12.041   6.830  0.2240 -0.1832 -0.2798
  748MOL0     C  890  12.175  11.901   6.965 -0.4075  0.6771 -0.2543
  748MOL0     C  891  12.055  11.848   7.003  0.0393  0.3030  0.4472
  748MOL0     O  892  11.843  11.688   7.101  0.2327  0.9491  0.3833
  748MOL0     C  893  11.551  11.807   6.953 -0.1461 -0.2686 -0.7416
  748MOL0     C  894  11.416  11.773   6.913 -0.1551 -0.1797 -0.6481
  748MOL0     N  895  10.723  11.779   7.006 -0.2666 -0.4099  0.3465
  748MOL0     N  896  10.607  11.831   6.970  0.6283  0.2270 -0.0877
  748MOL0     C  897   9.450  11.313   7.268 -0.7534 -1.0370  0.4184
  748MOL0     C  898   9.362  11.233   7.345 -0.5333 -0.2368  0.1618
  748MOL0     C  899   9.095  10.950   7.484 -1.2626  0.4440 -0.1700
  748MOL0     C  900   9.124  10.934   7.621  0.6751  0.5433 -0.8794
  748MOL0     C  901   9.028  10.884   7.705  1.0621 -0.1405 -0.2819
  748MOL0     C  902   8.899  10.841   7.665 -0.7025 -0.2251 -0.4561
  748MOL0     O  903   8.810  10.789   7.748  0.3208 -0.6102 -0.1469
  748MOL0     C  904   8.729  10.680   7.698 -0.0899 -1.2616 -0.3902
  748MOL0     C  905   8.695  10.582   7.810  0.1622  0.2596  0.3668
  748MOL0     C  906   8.604  10.636   7.918 -0.4784 -0.6321  0.5320
  748MOL0     C  907   8.457  10.620   7.884  0.2665  0.6350  0.4081
  748MOL0     C  908   8.362  10.705   7.959 -0.4205  0.3886  0.4227
  748MOL0     C  909   8.286  10.769   8.020 -0.8467  0.1647  0.0661
  748MOL0     C  910   8.866  10.872   7.540 -0.1986 -0.3363  0.9527
  748MOL0     C  911   8.964  10.921   7.445  0.1003 -0.7026  0.4471
  748MOL0     C  912   8.912  10.922   7.307 -0.1082  0.7239 -0.2619
  748MOL0     H  913   9.557  10.977   7.420 -3.3879 -1.4594  0.3085
  748MOL0     H  914   9.721  11.128   7.310  0.0265 -1.0753  3.2287
  748MOL0     H  915   9.541  11.458   7.057 -0.9641 -1.4969  0.2260
  748MOL0     H  916   9.599  11.546   7.204 -0.9740 -0.4852 -0.5780
  748MOL0     H  917   9.707  11.624   6.991  2.3421  1.4371  0.9054
  748MOL0     H  918   9.771  11.457   6.983  2.9803  0.5105  0.8111
  748MOL0     H  919   9.911  11.504   7.178 -0.7955 -0.8451  0.1277
  748MOL0     H  920   9.822  11.652   7.212  0.3330  1.4979 -0.1449
  748MOL0     H  921  10.010  11.584   6.985 -1.5831  0.6348 -1.6444
  748MOL0     H  922   9.921  11.746   6.997 -0.7760  2.1350  2.6196
  748MOL0     H  923  10.029  11.804   7.205  0.8343  1.8385 -1.6669
  748MOL0     H  924  10.111  11.649   7.208 -1.9531  0.1719  1.9647
  748MOL0     H  925  10.165  11.894   7.022 -0.5872 -1.4974 -2.1254
  748MOL0     H  926  10.266  11.822   7.153  0.0815 -2.2297 -0.1926
  748MOL0     H  927  10.196  11.668   6.903  1.5356 -0.4945 -1.2154
  748MOL0     H  928  10.293  11.617   7.042 -0.8037  0.5576  1.9277
  748MOL0     H  929  10.383  11.699   6.804 -5.3969 -0.3074 -0.3172
  748MOL0     H  930  10.362  11.860   6.885 -2.0127 -1.0302  1.7073
  748MOL0     H  931  10.526  11.521   7.014 -0.5245 -0.0183  0.3406
  748MOL0     H  932  10.792  11.505   7.170  0.9238 -1.1159  0.4226
  748MOL0     H  933  10.809  11.452   7.011 -0.1937 -0.4611  0.1395
  748MOL0     H  934  10.962  11.692   7.115 -0.2861 -0.0636 -1.6007
  748MOL0     H  935  11.029  11.529   7.094  3.7778  1.8109 -1.1930
  748MOL0     H  936  10.924  11.713   6.859  1.9592  0.2451 -1.3665
  748MOL0     H  937  10.982  11.548   6.839 -0.4723 -0.2819  1.3456
  748MOL0     H  938  11.112  11.792   6.965  2.6267  0.4349  0.2047
  748MOL0     H  939  11.133  11.740   6.795 -4.3412 -0.9755 -1.1153
  748MOL0     H  940  11.404  11.482   7.080  0.0200 -1.6087 -0.3568
  748MOL0     H  941  11.645  11.541   7.139 -0.0048  3.9527  3.7273
  748MOL0     H  942  11.870  12.119   6.959 -0.4413 -1.0382 -1.1489
  748MOL0     H  943  12.105  12.221   6.915 -1.2553  0.1054  0.2131
  748MOL0     H  944  12.443  12.174   7.032 -0.8598  2.1768 -3.2587
  748MOL0     H  945  12.416  11.995   7.040  0.5271  2.2651  2.0849
  748MOL0     H  946  12.534  11.958   6.840 -2.0892  1.2464  0.3733
  748MOL0     H  947  12.567  12.123   6.810  3.3817  1.2081  1.4786
  748MOL0     H  948  12.659  12.131   7.044  0.7967 -1.8848  2.4120
  748MOL0     H  949  12.662  11.954   7.046  0.3701  0.7444  0.3323
  748MOL0     H  950  12.791  12.131   6.833 -2.2217 -1.8386 -2.0335
  748MOL0     H  951  12.787  11.953   6.833 -3.7593  0.1040 -0.0256
  748MOL0     H  952  12.912  11.959   7.072 -0.1359  1.1267  1.3550
  748MOL0     H  953  12.928  12.135   7.031  1.8812 -0.4930  1.2314
  748MOL0     H  954  13.129  11.994   6.982  1.1237 -0.2872 -0.9427
  748MOL0     H  955  13.052  11.907   6.856 -0.1051 -0.5032  0.0852
  748MOL0     H  956  13.109  12.206   6.851  2.3231 -1.3445  0.7807
  748MOL0     H  957  13.017  12.122   6.728  0.8121  0.7796 -0.3910
  748MOL0     H  958  13.204  11.985   6.679  0.2027  1.2613 -1.5823
  748MOL0     H  959  13.244  12.153   6.655 -0.0772 -0.2800 -0.5531
  748MOL0     H  960  12.267  11.844   6.966 -1.4663 -1.1200  0.5769
  748MOL0     H  961  12.059  11.748   7.043 -1.9554  0.3462  0.8199
  748MOL0     H  962  11.586  11.902   6.912  0.7041 -0.7036 -1.0542
  748MOL0     H  963  11.359  11.842   6.852 -0.6250 -0.9017 -1.0424
  748MOL0     H  964   9.407  11.405   7.230  1.3126 -0.5006 -0.7582
  748MOL0     H  965   9.260  11.269   7.353  0.1426  2.8553 -2.8673
  748MOL0     H  966   9.222  10.957   7.662  0.5468 -0.7075  0.1748
  748MOL0     H  967   9.057  10.854   7.805 -1.8690 -0.1772  0.6580
  748MOL0     H  968   8.795  10.630   7.627  2.8905 -2.0128  2.6438
  748MOL0     H  969   8.641  10.709   7.640  1.2139  3.9497 -0.3190
  748MOL0     H  970   8.787  10.533   7.845  0.0952 -0.6924 -0.7239
  748MOL0     H  971   8.657  10.490   7.764  1.7212 -1.0051  1.4911
  748MOL0     H  972   8.638  10.740   7.924  1.1882 -1.0141 -1.0920
  748MOL0     H  973   8.638  10.591   8.012  1.5380  0.4391  0.3735
  748MOL0     H  974   8.439  10.635   7.777  0.7174  1.8214  0.4734
  748MOL0     H  975   8.423  10.521   7.913 -0.2429 -0.4977 -3.4703
  748MOL0     H  976   8.217  10.828   8.076 -0.7390 -0.4580  0.8743
  748MOL0     H  977   8.771  10.847   7.493  0.4750  0.2699 -0.8093
  748MOL0     H  978   8.979  10.863   7.244  0.6128  0.5105  0.6715
  748MOL0     H  979   8.818  10.868   7.297  1.9452 -3.3401  0.1906
  748MOL0     H  980   8.905  11.026   7.273  1.3195  1.1530  0.6735
  749MOL0     O  981  10.722   7.191   6.156  0.2588 -0.0468  0.7739
  749MOL0     C  982  10.654   7.132   6.069 -0.3336  0.4432  0.6265
  749MOL0     O  983  10.706   7.027   5.990  0.6607  0.5965  0.5868
  749MOL0     C  984  10.818   6.951   6.016 -0.2380 -0.1155  0.2974
  749MOL0     C  985  10.941   7.022   6.017  0.4749 -0.5054 -0.1656
  749MOL0     C  986  11.060   6.957   6.023 -0.1819  0.4046 -0.2066
  749MOL0     C  987  11.070   6.820   6.037  0.0979 -0.1376 -0.4154
  749MOL0     O  988  11.183   6.741   6.062 -0.3538 -0.4176  0.0123
  749MOL0     C  989  11.293   6.812   6.129 -0.5760  0.5542 -0.5559
  749MOL0     C  990  11.395   6.719   6.192  0.0983  0.6598 -0.6287
  749MOL0     C  991  11.490   6.642   6.101  0.4051 -0.1621  1.0387
  749MOL0     C  992  11.590   6.573   6.181 -1.1168 -0.5323  0.3971
  749MOL0     C  993  11.704   6.503   6.111  0.6090  0.3458  0.8687
  749MOL0     C  994  11.799   6.425   6.195  0.3480  0.1067 -0.0682
  749MOL0     C  995  11.733   6.308   6.262  0.2971  0.5977  0.0209
  749MOL0     C  996  11.838   6.215   6.340 -0.0459  1.2061  0.7807
  749MOL0     N  997  11.968   6.192   6.253  0.7903 -0.1105 -0.1460
  749MOL0     C  998  12.089   6.255   6.273  0.8111  1.0733 -0.5719
  749MOL0     C  999  12.162   6.228   6.165  0.1839  0.6504  0.9862
  749MOL0     C 1000  12.311   6.260   6.147 -0.3796 -0.0485 -0.0823
  749MOL0     C 1001  12.404   6.137   6.149  0.1398  0.2326  0.6088
  749MOL0     C 1002  12.368   6.045   6.027 -0.6058 -0.3297  0.5184
  749MOL0     C 1003  12.460   5.928   5.998  0.6421  0.1658 -0.4438
  749MOL0     O 1004  12.587   5.986   5.976  0.1300  0.4307 -0.1885
  749MOL0     C 1005  12.688   5.893   5.971 -0.4998 -0.6360  0.1551
  749MOL0     C 1006  12.817   5.946   5.989  0.4347  0.0318  0.1119
  749MOL0     C 1007  12.932   5.865   5.976  0.1367  0.1292  0.5914
  749MOL0     C 1008  12.918   5.722   5.959  0.2114  0.3179  0.2065
  749MOL0     C 1009  13.039   5.626   5.960  0.0235  0.0832  0.2728
  749MOL0     O 1010  13.021   5.496   5.921 -0.4653  0.3973  0.6603
  749MOL0     C 1011  13.111   5.396   5.945 -0.3539 -0.2990 -0.4507
  749MOL0     C 1012  13.204   5.398   6.046  0.5739  0.1215  0.1134
  749MOL0     C 1013  13.291   5.292   6.065 -0.2468  0.7191 -0.1271
  749MOL0     C 1014  13.292   5.183   5.979  0.3996  0.3311 -0.5126
  749MOL0     O 1015  13.395   5.095   5.993 -0.2974  0.0867 -0.0699
  749MOL0     C 1016  13.410   4.972   5.915  0.0906  0.1107  0.2091
  749MOL0     C 1017  13.523   4.883   5.961 -0.3438 -1.1179 -0.5918
  749MOL0     C 1018  13.658   4.958   5.989 -0.5712  0.6334  0.4523
  749MOL0     C 1019  13.770   4.877   6.061  0.1704 -0.4378  0.2412
  749MOL0     C 1020  13.896   4.974   6.067  0.5684  0.1149  0.3236
  749MOL0     C 1021  14.006   4.927   6.171  0.4408 -0.1280 -0.2431
  749MOL0     C 1022  14.037   4.779   6.182  0.0089 -0.6712  0.3211
  749MOL0     C 1023  14.176   4.741   6.245  0.3368  0.1290 -0.8162
  749MOL0    Cl 1024  14.319   4.790   6.156  0.1105 -0.1951  0.1846
  749MOL0     C 1025  13.200   5.177   5.881  0.4645  0.1688 -0.0002
  749MOL0     C 1026  13.109   5.289   5.858 -0.2741 -0.2776 -0.3055
  749MOL0     O 1027  13.149   5.678   5.978 -0.6078  1.0399 -0.2707
  749MOL0     C 1028  12.787   5.669   5.954  0.2260 -0.1771 -0.3788
  749MOL0     C 1029  12.672   5.760   5.954 -0.0463  0.4852  0.3795
  749MOL0     N 1030  12.078   6.153   6.078 -0.2880 -0.4112  0.0621
  749MOL0     N 1031  11.966   6.135   6.132  0.7858  0.4176  0.7107
  749MOL0     C 1032  10.949   6.748   6.047 -0.0876 -0.9248  0.3485
  749MOL0     C 1033  10.820   6.811   6.032 -0.2266 -0.3075  0.7352
  749MOL0     C 1034  10.514   7.156   6.033 -0.4277  0.4771 -0.7863
  749MOL0     C 1035  10.447   7.059   5.960 -0.0072 -0.3516 -0.1591
  749MOL0     C 1036  10.312   7.072   5.949 -0.0574 -0.7011  0.5863
  749MOL0     C 1037  10.240   7.172   6.006 -0.4725  0.4128  0.3384
  749MOL0     O 1038  10.104   7.176   5.989  0.7944  0.5238  0.4228
  749MOL0     C 1039  10.032   7.290   6.045 -0.1549  0.0614 -1.0134
  749MOL0     C 1040   9.897   7.292   5.981 -0.2461 -0.3379 -0.7162
  749MOL0     C 1041   9.812   7.167   6.017  0.6029 -0.3644 -0.5094
  749MOL0     C 1042   9.658   7.184   6.013  0.2535  0.6580  0.1215
  749MOL0     C 1043   9.617   7.230   5.877 -0.6940 -0.4833  0.5569
  749MOL0     C 1044   9.600   7.275   5.760 -0.2638 -0.0223 -0.3133
  749MOL0     C 1045  10.308   7.273   6.066  0.0552  0.4510 -1.3959
  749MOL0     C 1046  10.446   7.274   6.073  0.3054 -0.2218 -0.3933
  749MOL0     C 1047  10.518   7.390   6.132  0.4144 -0.7041 -0.0929
  749MOL0     H 1048  10.920   7.128   6.017 -0.6061 -0.6721 -2.1707
  749MOL0     H 1049  11.152   7.013   6.035  0.9071 -1.7305  2.4903
  749MOL0     H 1050  11.348   6.874   6.057  2.0343 -1.2181 -0.2181
  749MOL0     H 1051  11.251   6.868   6.213 -1.0491 -0.2521 -0.2490
  749MOL0     H 1052  11.340   6.643   6.249  1.8609  0.4568  0.9129
  749MOL0     H 1053  11.454   6.780   6.260 -1.2939  2.2272 -0.7777
  749MOL0     H 1054  11.539   6.704   6.025 -2.0908  0.3407 -0.2649
  749MOL0     H 1055  11.429   6.570   6.045 -0.1692 -1.2409  2.9561
  749MOL0     H 1056  11.644   6.646   6.241  3.1183  1.0003 -4.5312
  749MOL0     H 1057  11.531   6.502   6.241 -1.0141 -1.2828 -0.3576
  749MOL0     H 1058  11.659   6.442   6.032 -0.8852  2.3097  0.1163
  749MOL0     H 1059  11.760   6.582   6.058 -2.1729  0.3123 -2.5279
  749MOL0     H 1060  11.885   6.400   6.132  0.0539 -0.0356 -0.4167
  749MOL0     H 1061  11.830   6.486   6.281  1.0298  1.6814 -1.3936
  749MOL0     H 1062  11.687   6.245   6.185 -0.9988 -0.7216  1.7703
  749MOL0     H 1063  11.659   6.342   6.335 -1.1567 -1.4498 -0.4238
  749MOL0     H 1064  11.842   6.261   6.440 -1.3420  4.0362 -0.3453
  749MOL0     H 1065  11.787   6.118   6.341  1.9432  0.0628 -1.0962
  749MOL0     H 1066  12.125   6.299   6.365  3.5727  1.0063 -1.5317
  749MOL0     H 1067  12.324   6.306   6.048 -1.7981  3.2223  1.1160
  749MOL0     H 1068  12.353   6.335   6.215  0.5971  1.6673 -2.4386
  749MOL0     H 1069  12.506   6.175   6.142  0.2525 -0.2108 -0.2283
  749MOL0     H 1070  12.394   6.085   6.244 -0.3864 -0.1591  0.3464
  749MOL0     H 1071  12.361   6.108   5.938 -2.2631  1.8375  2.0613
  749MOL0     H 1072  12.270   5.998   6.045 -0.2353 -0.5762  2.0313
  749MOL0     H 1073  12.424   5.876   5.909 -0.1652  1.7055 -1.0616
  749MOL0     H 1074  12.459   5.859   6.083 -0.1375 -1.3494 -1.6291
  749MOL0     H 1075  12.839   6.051   6.005  1.2538 -0.1547  0.2509
  749MOL0     H 1076  13.034   5.903   5.984  0.8273 -1.8899  2.6394
  749MOL0     H 1077  13.203   5.484   6.112 -2.0212  0.6625 -0.5190
  749MOL0     H 1078  13.358   5.304   6.149 -0.1624  2.0317 -0.3715
  749MOL0     H 1079  13.326   4.903   5.916  0.0982 -0.0704 -2.6940
  749MOL0     H 1080  13.419   4.994   5.808 -0.5615 -1.4886 -0.1930
  749MOL0     H 1081  13.489   4.840   6.056 -0.2545 -1.4960 -0.7256
  749MOL0     H 1082  13.544   4.802   5.890 -2.0214 -0.0192 -2.4566
  749MOL0     H 1083  13.693   4.974   5.887 -1.7786 -0.1885 -0.1122
  749MOL0     H 1084  13.648   5.053   6.043  0.5053  1.3815 -0.6071
  749MOL0     H 1085  13.803   4.789   6.005  2.3559 -0.4287  1.4233
  749MOL0     H 1086  13.727   4.844   6.157 -0.7675 -1.6387 -0.5556
  749MOL0     H 1087  13.859   5.076   6.085 -3.7063 -1.0076 -1.0342
  749MOL0     H 1088  13.946   4.980   5.970  1.6188 -1.2154  0.7484
  749MOL0     H 1089  14.103   4.976   6.155 -0.6998  2.5670  0.6541
  749MOL0     H 1090  13.979   4.982   6.262 -3.2496 -0.8171 -0.7916
  749MOL0     H 1091  14.022   4.730   6.085 -1.5272 -0.3392  0.3665
  749MOL0     H 1092  13.958   4.736   6.244  1.3695 -3.9737 -0.0364
  749MOL0     H 1093  14.179   4.782   6.346 -2.7828  1.1070 -1.0102
  749MOL0     H 1094  14.183   4.632   6.248 -1.6523 -0.1114 -2.1661
  749MOL0     H 1095  13.198   5.092   5.812 -1.6969 -0.2863  0.5577
  749MOL0     H 1096  13.039   5.288   5.775  1.9437 -0.1548 -2.2979
  749MOL0     H 1097  12.779   5.561   5.942  1.2749 -0.2021 -0.9520
  749MOL0     H 1098  12.572   5.718   5.945  0.2661 -0.7458  2.0412
  749MOL0     H 1099  10.951   6.640   6.060  2.1457 -1.0129 -0.3447
  749MOL0     H 1100  10.726   6.758   6.040  0.5984 -2.1813 -1.1191
  749MOL0     H 1101  10.495   6.967   5.927  0.3537  0.0324 -0.7225
  749MOL0     H 1102  10.262   6.992   5.895  2.5471 -3.1550  1.5809
  749MOL0     H 1103  10.078   7.386   6.021 -1.2900  0.6935 -0.7767
  749MOL0     H 1104  10.027   7.291   6.154  2.0334  0.2895 -0.8778
  749MOL0     H 1105   9.921   7.289   5.875  4.5987 -0.8851  0.1494
  749MOL0     H 1106   9.853   7.388   6.010  0.2764 -0.4682  0.6023
  749MOL0     H 1107   9.837   7.135   6.118 -1.0711  1.6260  0.5907
  749MOL0     H 1108   9.836   7.091   5.942  0.3338  2.4764 -3.7474
  749MOL0     H 1109   9.607   7.093   6.044 -1.1680  0.9636 -1.2107
  749MOL0     H 1110   9.626   7.259   6.086 -0.2216  0.6879 -0.1146
  749MOL0     H 1111   9.590   7.329   5.668 -0.4117  2.2706  0.9535
  749MOL0     H 1112  10.260   7.364   6.101 -0.9581 -0.4116 -0.5132
  749MOL0     H 1113  10.446   7.471   6.151  1.2637 -0.3707  2.0172
  749MOL0     H 1114  10.555   7.360   6.230 -0.2724  1.4320  0.8894
  749MOL0     H 1115  10.596   7.417   6.061  0.1346  0.6612  0.0841
  750MOL0     O 1116   6.949   4.648   2.335  0.2512  0.3364 -0.0906
  750MOL0     C 1117   6.883   4.609   2.241 -0.1973 -0.7624 -0.8318
  750MOL0     O 1118   6.935   4.551   2.124 -0.3403  0.7727 -0.7281
  750MOL0     C 1119   7.069   4.554   2.103  0.3431 -0.4264  0.3552
  750MOL0     C 1120   7.143   4.437   2.121  0.2613  0.4376 -0.1650
  750MOL0     C 1121   7.281   4.442   2.091  0.5449 -0.1381 -0.3506
  750MOL0     C 1122   7.347   4.564   2.057  0.7192  0.1005 -0.7373
  750MOL0     O 1123   7.483   4.574   2.026  0.3279 -0.5457  0.1170
  750MOL0     C 1124   7.568   4.461   2.037 -0.7063  0.5504  0.0617
  750MOL0     C 1125   7.707   4.504   1.973  0.3142  0.3102  0.2545
  750MOL0     C 1126   7.807   4.396   1.929  0.0937  0.6732 -0.1826
  750MOL0     C 1127   7.956   4.454   1.926  0.6253  0.1805 -0.3451
  750MOL0     C 1128   8.058   4.350   1.873  0.8257  0.8340 -0.7661
  750MOL0     C 1129   8.189   4.414   1.832  0.5117  0.2900  0.2567
  750MOL0     C 1130   8.250   4.322   1.723  0.7591 -0.1945 -0.1386
  750MOL0     C 1131   8.398   4.367   1.723  0.9251 -0.0650  0.4073
  750MOL0     N 1132   8.480   4.252   1.776  0.5589  0.2096 -0.4948
  750MOL0     C 1133   8.467   4.201   1.902 -0.3902 -0.4675 -0.5964
  750MOL0     C 1134   8.545   4.088   1.896  0.6120 -0.1604  0.8508
  750MOL0     C 1135   8.565   3.994   2.008 -0.8471 -0.4971 -0.1991
  750MOL0     C 1136   8.701   4.030   2.080 -0.6942 -0.2020  0.1827
  750MOL0     C 1137   8.818   3.955   2.031  0.2641  0.1114  0.2830
  750MOL0     C 1138   8.956   4.023   2.046  1.2992 -0.1865 -0.6149
  750MOL0     O 1139   9.065   3.935   2.028 -0.2595 -0.0810  0.5964
  750MOL0     C 1140   9.191   3.977   2.030 -0.3403  0.7665 -0.4081
  750MOL0     C 1141   9.239   4.087   2.086 -0.4031 -0.0209 -0.1506
  750MOL0     C 1142   9.377   4.106   2.093 -0.3880 -0.1743 -0.1100
  750MOL0     C 1143   9.473   4.019   2.040 -0.3000  1.0743 -0.2198
  750MOL0     C 1144   9.617   4.058   2.034 -0.2314  0.3852 -0.0869
  750MOL0     O 1145   9.671   4.143   2.132 -0.0530 -0.3010 -0.5029
  750MOL0     C 1146   9.805   4.176   2.105 -0.3082  0.2027 -0.0516
  750MOL0     C 1147   9.900   4.154   2.205 -0.4729  1.2588  0.5176
  750MOL0     C 1148  10.037   4.192   2.185  0.9002 -0.7289 -0.2580
  750MOL0     C 1149  10.079   4.263   2.071  0.4993 -0.3820  0.0309
  750MOL0     O 1150  10.209   4.321   2.070 -0.3016  0.1476 -0.0178
  750MOL0     C 1151  10.278   4.359   1.955 -0.3276 -0.0075  0.6420
  750MOL0     C 1152  10.420   4.404   1.982 -0.7367 -1.1973  0.3239
  750MOL0     C 1153  10.479   4.457   1.842 -0.2910  1.2045 -0.4798
  750MOL0     C 1154  10.622   4.505   1.854  1.0634 -0.2103 -0.2893
  750MOL0     C 1155  10.714   4.431   1.954  0.1442 -0.8706 -0.6402
  750MOL0     C 1156  10.862   4.486   1.941 -0.4786 -0.0701  0.2015
  750MOL0     C 1157  10.949   4.408   2.044  0.5900  0.4727  0.2083
  750MOL0     C 1158  11.099   4.441   2.018  0.2935  0.3057  0.1104
  750MOL0    Cl 1159  11.140   4.383   1.855  0.2214  0.1967  0.4144
  750MOL0     C 1160   9.977   4.291   1.971  0.5308  0.3193  0.3455
  750MOL0     C 1161   9.849   4.238   1.987  0.7046 -0.2668  0.2967
  750MOL0     O 1162   9.679   4.002   1.950 -0.2385 -0.1072  0.4787
  750MOL0     C 1163   9.425   3.900   1.984  0.3782 -0.2884  0.0395
  750MOL0     C 1164   9.283   3.876   1.976 -0.1985 -0.2534  0.3750
  750MOL0     N 1165   8.597   4.078   1.770  0.3721 -0.0761  0.5352
  750MOL0     N 1166   8.557   4.171   1.700  0.5164  0.2629  0.3994
  750MOL0     C 1167   7.268   4.675   2.048  0.0861  0.1361  0.0405
  750MOL0     C 1168   7.131   4.678   2.066 -0.5805  0.0084 -0.1775
  750MOL0     C 1169   6.736   4.620   2.260 -0.3870  0.1256 -0.0908
  750MOL0     C 1170   6.684   4.655   2.385 -0.3008  0.0267 -0.5443
  750MOL0     C 1171   6.542   4.669   2.404  0.1954 -0.3813  0.2459
  750MOL0     C 1172   6.454   4.657   2.295  0.2129  0.1842 -0.3174
  750MOL0     O 1173   6.312   4.667   2.307 -0.6828  0.4842 -0.4708
  750MOL0     C 1174   6.241   4.597   2.411  0.2105  0.8635  0.8189
  750MOL0     C 1175   6.144   4.691   2.490  0.1961 -0.2914 -0.0103
  750MOL0     C 1176   6.033   4.754   2.404  0.1863 -0.4079  0.6856
  750MOL0     C 1177   5.975   4.867   2.482  0.9802  0.3405 -0.4992
  750MOL0     C 1178   5.877   4.821   2.585  0.2246  0.3277 -0.6134
  750MOL0     C 1179   5.786   4.798   2.662  0.3115  0.1564 -0.7293
  750MOL0     C 1180   6.505   4.621   2.176 -1.0761 -0.3726  0.4978
  750MOL0     C 1181   6.646   4.601   2.152  0.4421 -0.7560 -0.0221
  750MOL0     C 1182   6.693   4.580   2.010  0.2829  0.9450 -0.1724
  750MOL0     H 1183   7.095   4.349   2.164  1.8967 -0.2276  0.3575
  750MOL0     H 1184   7.337   4.351   2.108  0.2200 -0.3455 -0.3744
  750MOL0     H 1185   7.589   4.419   2.135  1.4215 -2.1377 -1.4022
  750MOL0     H 1186   7.521   4.385   1.974  0.9609 -0.0140 -0.5530
  750MOL0     H 1187   7.770   4.566   2.037  2.6038 -1.0675 -0.5352
  750MOL0     H 1188   7.686   4.564   1.884 -2.9072  1.4497  1.6265
  750MOL0     H 1189   7.786   4.360   1.827  0.4426  1.1558 -0.4320
  750MOL0     H 1190   7.802   4.314   2.002 -1.8087  1.7863  0.9903
  750MOL0     H 1191   7.965   4.539   1.857 -0.4217  0.5412 -0.0488
  750MOL0     H 1192   7.983   4.483   2.028  0.9531 -2.3794  0.3592
  750MOL0     H 1193   8.077   4.272   1.947  1.1471  0.1476 -1.5541
  750MOL0     H 1194   8.016   4.289   1.793  0.6565  0.4991 -0.4216
  750MOL0     H 1195   8.172   4.511   1.784  1.0845 -1.2188 -3.3614
  750MOL0     H 1196   8.252   4.437   1.918  1.0178 -0.4805  0.1030
  750MOL0     H 1197   8.200   4.337   1.627 -2.0491 -0.3860  1.1939
  750MOL0     H 1198   8.237   4.216   1.747  2.9280  0.0711  2.6982
  750MOL0     H 1199   8.430   4.387   1.620  1.7005 -1.6005  0.3307
  750MOL0     H 1200   8.406   4.458   1.784 -0.7495 -0.6033  1.4875
  750MOL0     H 1201   8.419   4.243   1.990 -1.7827 -2.1710 -0.4735
  750MOL0     H 1202   8.481   4.008   2.077 -0.8045  0.2246 -0.2819
  750MOL0     H 1203   8.559   3.889   1.978  0.5838 -0.5866 -0.2115
  750MOL0     H 1204   8.718   4.138   2.078 -2.4931  0.1711 -3.0415
  750MOL0     H 1205   8.676   3.996   2.181  0.4739 -1.2836  0.1350
  750MOL0     H 1206   8.800   3.941   1.924  2.7920  1.8849 -0.4548
  750MOL0     H 1207   8.816   3.855   2.076 -3.7751 -0.0131  0.1952
  750MOL0     H 1208   8.963   4.051   2.152  0.1149 -0.0543 -0.5561
  750MOL0     H 1209   8.941   4.103   1.973 -2.4137  3.3148  3.4239
  750MOL0     H 1210   9.166   4.155   2.129 -1.9198 -1.5349 -0.2078
  750MOL0     H 1211   9.411   4.193   2.148  1.5780  0.0653 -1.6220
  750MOL0     H 1212   9.866   4.117   2.301  2.8460  0.9297  1.6925
  750MOL0     H 1213  10.113   4.178   2.261  0.6875 -1.0185 -0.1011
  750MOL0     H 1214  10.271   4.287   1.873 -0.0127  2.8768 -2.1168
  750MOL0     H 1215  10.225   4.445   1.913  0.0551 -1.2908 -2.7708
  750MOL0     H 1216  10.419   4.489   2.050 -2.1678  0.0140 -1.1125
  750MOL0     H 1217  10.486   4.323   2.015  2.5346  0.0328 -2.5347
  750MOL0     H 1218  10.473   4.369   1.777  0.2504 -0.0849  1.1353
  750MOL0     H 1219  10.418   4.535   1.796 -0.6946  0.7329 -0.7562
  750MOL0     H 1220  10.620   4.600   1.908  0.1855 -0.5137  0.2420
  750MOL0     H 1221  10.670   4.509   1.756 -1.0260 -1.2110 -1.4184
  750MOL0     H 1222  10.705   4.322   1.942 -5.2462 -1.3871  4.0978
  750MOL0     H 1223  10.679   4.441   2.057  0.6039 -0.4416 -0.5208
  750MOL0     H 1224  10.893   4.467   1.837 -2.6678  0.7401 -0.6374
  750MOL0     H 1225  10.862   4.592   1.965  1.6681  0.1119 -0.3330
  750MOL0     H 1226  10.926   4.302   2.027  2.1921  0.1653 -0.1666
  750MOL0     H 1227  10.919   4.438   2.145 -0.8486 -0.7259  0.1846
  750MOL0     H 1228  11.122   4.547   2.021 -1.7023  0.8411 -1.4639
  750MOL0     H 1229  11.165   4.394   2.092  0.6687 -0.2710 -0.5832
  750MOL0     H 1230  10.011   4.328   1.875  3.0236 -1.0517  0.6279
  750MOL0     H 1231   9.773   4.261   1.913  0.3139 -1.9894  0.1407
  750MOL0     H 1232   9.493   3.825   1.944  2.0701  0.9464  0.4563
  750MOL0     H 1233   9.233   3.788   1.936  2.3015 -1.7190  0.2565
  750MOL0     H 1234   7.310   4.772   2.023  0.9705  0.3661  2.1759
  750MOL0     H 1235   7.079   4.773   2.057 -1.3107 -0.1831  1.6110
  750MOL0     H 1236   6.743   4.666   2.475 -1.2355  2.6929 -0.1660
  750MOL0     H 1237   6.514   4.687   2.508  5.3087  1.9120  1.5307
  750MOL0     H 1238   6.302   4.538   2.479 -2.6673 -3.2433  0.2339
  750MOL0     H 1239   6.174   4.527   2.359  1.2052  1.3134 -1.1506
  750MOL0     H 1240   6.203   4.756   2.555  0.8421 -1.2467  0.3769
  750MOL0     H 1241   6.103   4.622   2.565  1.2758 -0.2976  0.5893
  750MOL0     H 1242   5.965   4.674   2.374 -0.0441  0.3043 -0.7465
  750MOL0     H 1243   6.087   4.791   2.317 -0.6504 -2.9916 -1.0584
  750MOL0     H 1244   6.056   4.924   2.529  1.5054  0.7158 -1.8098
  750MOL0     H 1245   5.920   4.936   2.418  0.4899  0.2718 -0.1582
  750MOL0     H 1246   5.710   4.774   2.734  0.2148  0.2790 -0.7915
  750MOL0     H 1247   6.443   4.619   2.087  0.8668  2.7948 -1.1173
  750MOL0     H 1248   6.612   4.591   1.937  2.2343  0.3249 -2.5424
  750MOL0     H 1249   6.767   4.654   1.979  3.1672 -1.0227  1.6231
  750MOL0     H 1250   6.736   4.481   1.993  0.7957  0.5268  2.9012
  751MOL0     O 1251   8.587   7.828   4.466 -0.0611 -0.6536 -0.1466
  751MOL0     C 1252   8.578   7.891   4.362 -0.8295 -0.6700  0.2781
  751MOL0     O 1253   8.675   7.975   4.312 -0.7821 -0.0594  0.3386
  751MOL0     C 1254   8.791   8.005   4.376 -0.1361  0.2966 -0.5899
  751MOL0     C 1255   8.876   7.909   4.433 -0.2492  0.3377 -0.7714
  751MOL0     C 1256   9.000   7.940   4.489 -1.3173  0.9642 -0.1783
  751MOL0     C 1257   9.038   8.077   4.493 -0.0503  0.1180  0.1681
  751MOL0     O 1258   9.128   8.135   4.571  0.7104 -0.0272 -0.6482
  751MOL0     C 1259   9.245   8.048   4.592 -1.2660  0.7092 -0.4564
  751MOL0     C 1260   9.349   8.101   4.687  0.1092 -0.1705 -0.5389
  751MOL0     C 1261   9.469   8.006   4.693  0.3174  0.2147 -0.3105
  751MOL0     C 1262   9.578   8.046   4.794 -0.0371 -0.1386  0.2157
  751MOL0     C 1263   9.695   7.953   4.772  0.2665  0.7559 -0.6631
  751MOL0     C 1264   9.767   7.972   4.632  0.8978 -0.1751  1.2106
  751MOL0     C 1265   9.918   7.958   4.651 -1.0912  0.7642  0.2182
  751MOL0     C 1266   9.954   7.821   4.711 -0.5686  0.0109  0.9732
  751MOL0     N 1267   9.951   7.706   4.613 -0.1999 -0.2198 -0.7405
  751MOL0     C 1268   9.988   7.711   4.483 -0.7414  0.0490 -0.1688
  751MOL0     C 1269   9.931   7.601   4.427 -0.1562 -0.1848  0.8252
  751MOL0     C 1270   9.948   7.541   4.285  0.1871  0.5956  0.2642
  751MOL0     C 1271  10.070   7.449   4.265 -0.0536  0.0480  0.8374
  751MOL0     C 1272  10.190   7.543   4.283  0.3009  0.8533  0.2412
  751MOL0     C 1273  10.319   7.479   4.231 -0.2117  0.0796  0.6156
  751MOL0     O 1274  10.426   7.583   4.239 -0.1848  0.3997 -0.1267
  751MOL0     C 1275  10.536   7.557   4.171  0.2203 -0.5901  0.3436
  751MOL0     C 1276  10.618   7.669   4.153  0.3599 -0.3382 -0.6002
  751MOL0     C 1277  10.734   7.659   4.075  0.4370  0.3138 -0.2176
  751MOL0     C 1278  10.781   7.536   4.020  0.4036 -0.2888 -0.4292
  751MOL0     C 1279  10.916   7.530   3.955  0.5051  0.7062 -0.7571
  751MOL0     O 1280  11.006   7.633   3.954  0.3564 -0.0184 -0.3276
  751MOL0     C 1281  11.134   7.621   3.899  0.1929 -0.7720  0.6634
  751MOL0     C 1282  11.228   7.517   3.932 -0.6268  0.5788 -0.1807
  751MOL0     C 1283  11.358   7.513   3.884  0.1737 -0.0056 -0.6538
  751MOL0     C 1284  11.401   7.607   3.796 -0.2891 -0.0407 -0.1381
  751MOL0     O 1285  11.525   7.617   3.736  0.2945  0.1997 -0.1848
  751MOL0     C 1286  11.624   7.511   3.744  0.5736  0.6195  0.4134
  751MOL0     C 1287  11.748   7.513   3.658  0.5548 -0.5942 -0.0317
  751MOL0     C 1288  11.836   7.627   3.705  1.0830 -0.0469 -0.3356
  751MOL0     C 1289  11.816   7.761   3.616  0.8291 -0.0466  0.5603
  751MOL0     C 1290  11.928   7.867   3.654  0.1898  0.2099 -0.1597
  751MOL0     C 1291  11.981   7.956   3.544 -0.3452 -0.0150  0.1583
  751MOL0     C 1292  12.064   8.072   3.586  0.3795 -0.1876  0.3519
  751MOL0     C 1293  12.123   8.149   3.474  0.7997 -0.7779 -0.4745
  751MOL0    Cl 1294  12.222   8.045   3.371 -0.0577  0.3284  0.2320
  751MOL0     C 1295  11.309   7.706   3.760  0.5169  0.2035  0.3223
  751MOL0     C 1296  11.179   7.719   3.811  0.1922  0.8125 -0.2414
  751MOL0     O 1297  10.934   7.417   3.907 -0.4654 -0.1738  0.0345
  751MOL0     C 1298  10.690   7.424   4.038 -0.0668  0.4760  0.3214
  751MOL0     C 1299  10.563   7.443   4.098 -0.6110  0.7052  0.4484
  751MOL0     N 1300   9.881   7.524   4.523  0.0842 -0.0829 -0.1651
  751MOL0     N 1301   9.883   7.593   4.636  0.2397  0.8855  0.2526
  751MOL0     C 1302   8.959   8.170   4.426 -0.6360 -0.4982 -0.1308
  751MOL0     C 1303   8.836   8.132   4.369  0.3997 -0.8492 -0.7399
  751MOL0     C 1304   8.451   7.895   4.284 -0.6185  0.2017  0.4294
  751MOL0     C 1305   8.436   7.993   4.192  0.4604 -0.6141  0.8138
  751MOL0     C 1306   8.310   8.014   4.126 -0.3399  0.1231 -0.2965
  751MOL0     C 1307   8.205   7.927   4.150  0.9139  0.3456 -0.3334
  751MOL0     O 1308   8.088   7.949   4.068 -0.4817  0.1054  0.5982
  751MOL0     C 1309   7.975   7.862   4.081 -0.0490 -0.2968 -0.1213
  751MOL0     C 1310   7.868   7.933   3.996  0.0001  0.0596  0.8447
  751MOL0     C 1311   7.733   7.867   4.001 -0.7414  0.2785  0.9443
  751MOL0     C 1312   7.716   7.725   3.953  0.8391 -0.7073  0.6607
  751MOL0     C 1313   7.577   7.687   3.919  1.2251 -0.7145 -0.4360
  751MOL0     C 1314   7.463   7.645   3.887 -0.6523 -0.1450 -0.6921
  751MOL0     C 1315   8.220   7.824   4.247 -0.3478 -0.0608  0.2016
  751MOL0     C 1316   8.339   7.811   4.313 -0.7135 -0.1139 -0.2769
  751MOL0     C 1317   8.338   7.707   4.417  0.1911 -0.3956 -0.2257
  751MOL0     H 1318   8.851   7.806   4.459  4.7894 -0.7241  1.0824
  751MOL0     H 1319   9.058   7.865   4.542 -2.5709  1.0676  1.4300
  751MOL0     H 1320   9.208   7.960   4.644 -2.5732  1.7824  0.5040
  751MOL0     H 1321   9.287   8.022   4.495 -1.9034 -1.5950 -0.1640
  751MOL0     H 1322   9.307   8.115   4.787 -1.5690 -1.1964 -1.0687
  751MOL0     H 1323   9.382   8.194   4.641  4.0325 -0.6514  0.8701
  751MOL0     H 1324   9.509   8.005   4.591  1.2011  0.7605  0.0191
  751MOL0     H 1325   9.441   7.904   4.720  3.2824  0.1150  3.1353
  751MOL0     H 1326   9.614   8.144   4.762  0.6622 -0.2224  0.7136
  751MOL0     H 1327   9.536   8.043   4.895 -0.0615  0.4453  0.2264
  751MOL0     H 1328   9.771   7.970   4.848  0.3355  2.3618 -1.0576
  751MOL0     H 1329   9.681   7.845   4.785  1.4071  0.6697 -0.0684
  751MOL0     H 1330   9.734   7.907   4.551  0.0837  3.0776 -1.2574
  751MOL0     H 1331   9.739   8.064   4.581 -2.3160 -2.1891 -1.0086
  751MOL0     H 1332   9.947   8.032   4.726 -1.2359 -2.2619  3.5027
  751MOL0     H 1333   9.969   7.972   4.555  0.4276 -1.7257  0.5833
  751MOL0     H 1334  10.056   7.816   4.749 -0.0992 -0.0876 -0.2429
  751MOL0     H 1335   9.891   7.794   4.796 -0.4790  1.1809  1.4339
  751MOL0     H 1336  10.040   7.796   4.442 -0.8056  1.6097  2.7635
  751MOL0     H 1337   9.860   7.488   4.248  0.7192  1.1980 -2.0162
  751MOL0     H 1338   9.953   7.624   4.214 -0.9654 -0.5564 -1.2151
  751MOL0     H 1339  10.078   7.362   4.331  2.5013 -1.1963 -0.9729
  751MOL0     H 1340  10.068   7.409   4.163  0.0080  0.6119  0.6090
  751MOL0     H 1341  10.205   7.580   4.384  1.2808  0.8292  0.1242
  751MOL0     H 1342  10.170   7.628   4.217  1.5901 -2.2816 -4.8341
  751MOL0     H 1343  10.300   7.446   4.129  0.0293 -1.1531  0.9528
  751MOL0     H 1344  10.339   7.393   4.297 -1.2469 -0.4238  0.2970
  751MOL0     H 1345  10.594   7.767   4.193  0.8812  0.5569 -2.3841
  751MOL0     H 1346  10.797   7.747   4.065 -1.1122  1.6775  1.3460
  751MOL0     H 1347  11.200   7.432   3.995 -0.1170  0.5589  0.0191
  751MOL0     H 1348  11.437   7.444   3.914 -1.6689 -0.8724  2.7441
  751MOL0     H 1349  11.659   7.490   3.845  4.4355 -1.6704 -1.1915
  751MOL0     H 1350  11.559   7.427   3.716 -0.2405  0.5763  2.2952
  751MOL0     H 1351  11.810   7.423   3.666  2.0420  0.4204  0.3099
  751MOL0     H 1352  11.707   7.520   3.557  1.1588 -0.8709 -0.3036
  751MOL0     H 1353  11.818   7.666   3.806 -0.8641  2.1743 -1.4289
  751MOL0     H 1354  11.943   7.605   3.700  1.4391  1.6324 -0.9740
  751MOL0     H 1355  11.723   7.813   3.637  1.6417  1.4954  0.5257
  751MOL0     H 1356  11.817   7.731   3.511  0.9575 -1.0574  0.8362
  751MOL0     H 1357  12.013   7.811   3.694 -2.7032 -2.8855  2.1518
  751MOL0     H 1358  11.882   7.923   3.736 -0.8974  0.7564 -1.1076
  751MOL0     H 1359  12.031   7.902   3.463 -1.2014  2.0065 -1.8476
  751MOL0     H 1360  11.894   8.002   3.496  0.9884  0.4658 -1.9161
  751MOL0     H 1361  12.137   8.031   3.656 -0.8421 -0.0524  1.7672
  751MOL0     H 1362  12.004   8.142   3.645 -1.5729  0.2350 -1.9574
  751MOL0     H 1363  12.046   8.200   3.416  1.2061  2.3745  1.5248
  751MOL0     H 1364  12.184   8.230   3.514 -2.2069  0.4832  1.9623
  751MOL0     H 1365  11.349   7.777   3.688  2.1461 -0.1747  0.8083
  751MOL0     H 1366  11.110   7.801   3.797  1.6316  2.0618 -0.2341
  751MOL0     H 1367  10.702   7.327   3.991 -3.3872  0.4579 -0.7567
  751MOL0     H 1368  10.493   7.360   4.098 -0.7530  0.8256  0.4532
  751MOL0     H 1369   8.969   8.278   4.433 -0.8670 -0.3884 -1.3199
  751MOL0     H 1370   8.756   8.196   4.335  0.7693 -0.4696 -0.8957
  751MOL0     H 1371   8.521   8.055   4.162  0.9399 -1.7381 -0.2444
  751MOL0     H 1372   8.303   8.098   4.058 -2.0308  0.7796  0.6369
  751MOL0     H 1373   7.948   7.852   4.187  1.4826 -0.9558  0.2383
  751MOL0     H 1374   7.990   7.760   4.043 -1.5182 -1.2727  1.7453
  751MOL0     H 1375   7.898   7.936   3.891 -0.8799 -0.3051  0.5749
  751MOL0     H 1376   7.857   8.035   4.036 -3.7957 -0.0661  0.5186
  751MOL0     H 1377   7.658   7.921   3.943 -1.5863 -0.2260  1.5267
  751MOL0     H 1378   7.695   7.868   4.104 -0.2332 -2.7277  1.2657
  751MOL0     H 1379   7.770   7.719   3.859 -1.7181 -3.2944 -0.7683
  751MOL0     H 1380   7.737   7.645   4.024  2.4060 -1.2748 -0.4105
  751MOL0     H 1381   7.373   7.590   3.866 -1.9067  1.3033  0.5909
  751MOL0     H 1382   8.141   7.757   4.280 -1.1023  1.5803  1.8842
  751MOL0     H 1383   8.431   7.650   4.411 -0.6360 -1.7998  0.0204
  751MOL0     H 1384   8.337   7.755   4.515  1.3028  1.5770 -1.1102
  751MOL0     H 1385   8.256   7.639   4.395  0.4197 -0.3626 -1.2254
  752MOL0     O 1386   0.012   8.836   1.003  0.0244  0.2759  0.4872
  752MOL0     C 1387   0.001   8.747   0.914 -0.4892  0.0476  0.0696
  752MOL0     O 1388   0.105   8.705   0.831  1.0275 -0.5761 -0.6093
  752MOL0     C 1389   0.226   8.766   0.842  1.1917 -0.6117  0.2029
  752MOL0     C 1390   0.338   8.704   0.913  0.5547  0.1325  0.0239
  752MOL0     C 1391   0.452   8.777   0.931  0.1064 -0.2187  0.0097
  752MOL0     C 1392   0.476   8.900   0.870 -0.2546  0.7216 -0.5812
  752MOL0     O 1393   0.585   8.975   0.875  0.7592  0.3624 -1.1417
  752MOL0     C 1394   0.694   8.925   0.947 -0.3354  0.2034 -0.2693
  752MOL0     C 1395   0.753   9.045   1.018 -0.4911  0.1257 -0.6469
  752MOL0     C 1396   0.882   9.011   1.103  0.0624  0.4491  0.5445
  752MOL0     C 1397   1.005   8.979   1.015  0.9387 -0.3894 -0.1912
  752MOL0     C 1398   1.141   9.000   1.079  0.2422  0.5326 -0.3414
  752MOL0     C 1399   1.165   9.140   1.123 -0.4041  0.5276  0.7775
  752MOL0     C 1400   1.308   9.180   1.127  0.0492  0.3890 -0.0790
  752MOL0     C 1401   1.373   9.094   1.228 -0.0816  0.6286 -0.3677
  752MOL0     N 1402   1.518   9.123   1.229 -0.0670  0.2173  0.1261
  752MOL0     C 1403   1.602   9.129   1.123  0.4782 -0.8302 -0.3655
  752MOL0     C 1404   1.719   9.130   1.184  0.0288  0.1574 -0.3756
  752MOL0     C 1405   1.851   9.124   1.119  0.0958  0.0454  0.6410
  752MOL0     C 1406   1.930   9.244   1.165  0.4163  0.2008  0.4784
  752MOL0     C 1407   2.021   9.201   1.278 -0.3364 -0.8270  0.0242
  752MOL0     C 1408   2.134   9.304   1.319 -0.4993 -0.1570  0.8515
  752MOL0     O 1409   2.082   9.424   1.379 -0.0867 -0.2943 -0.6649
  752MOL0     C 1410   2.170   9.523   1.391  0.0071 -0.6656  0.1801
  752MOL0     C 1411   2.307   9.510   1.366 -0.2493 -0.0144 -0.5595
  752MOL0     C 1412   2.393   9.607   1.391 -0.8650  0.5011 -0.1649
  752MOL0     C 1413   2.351   9.738   1.450  0.2637  0.4377  0.1545
  752MOL0     C 1414   2.452   9.840   1.485 -0.2856 -0.6113 -0.1250
  752MOL0     O 1415   2.402   9.957   1.535  0.0404 -0.8253  0.5952
  752MOL0     C 1416   2.487  10.063   1.526  0.2565 -0.4028 -0.4149
  752MOL0     C 1417   2.583  10.095   1.621  1.0453 -0.1633 -0.2749
  752MOL0     C 1418   2.670  10.206   1.615  0.0620  0.0738 -0.6035
  752MOL0     C 1419   2.641  10.311   1.526  0.5501 -0.3465  0.3079
  752MOL0     O 1420   2.705  10.432   1.528  0.2578  0.4023  0.3525
  752MOL0     C 1421   2.615  10.542   1.524  0.3097  0.7045  0.6862
  752MOL0     C 1422   2.679  10.673   1.575 -0.0991 -0.1906 -0.1148
  752MOL0     C 1423   2.696  10.653   1.725  0.8907 -0.4114  0.0178
  752MOL0     C 1424   2.795  10.763   1.772 -0.8925 -0.1611  0.9917
  752MOL0     C 1425   2.737  10.900   1.778 -0.6787 -0.0105  0.7946
  752MOL0     C 1426   2.827  11.003   1.842  0.2404  0.1754  0.2140
  752MOL0     C 1427   2.951  11.043   1.761 -0.1436  0.1464 -0.0187
  752MOL0     C 1428   2.997  11.179   1.808  1.0547  0.1464  0.8579
  752MOL0    Cl 1429   3.079  11.160   1.964  0.0590 -0.3323  0.1248
  752MOL0     C 1430   2.561  10.276   1.417  0.4279  0.0207 -0.3204
  752MOL0     C 1431   2.477  10.154   1.415  0.2342 -0.2675 -0.8516
  752MOL0     O 1432   2.570   9.817   1.471 -0.0052 -0.0469 -0.0644
  752MOL0     C 1433   2.215   9.749   1.471 -0.1286  0.0735 -1.0081
  752MOL0     C 1434   2.131   9.640   1.456  0.8659 -0.2748  0.3310
  752MOL0     N 1435   1.704   9.124   1.323 -0.3484 -0.1981 -0.3284
  752MOL0     N 1436   1.576   9.118   1.345  0.0012  0.2799 -0.5487
  752MOL0     C 1437   0.372   8.954   0.800 -0.8456 -0.2649  0.2012
  752MOL0     C 1438   0.246   8.892   0.781 -0.5861 -0.3359 -0.2043
  752MOL0     C 1439  -0.122   8.670   0.914  0.3157  0.1956  0.8691
  752MOL0     C 1440  -0.242   8.741   0.916 -0.1908  0.1258 -0.5832
  752MOL0     C 1441  -0.364   8.683   0.930 -0.1884  0.1872  0.7216
  752MOL0     C 1442  -0.379   8.548   0.940  0.0122  0.6257 -0.0691
  752MOL0     O 1443  -0.498   8.494   0.974 -0.4131 -0.2293  0.0651
  752MOL0     C 1444  -0.509   8.443   1.107 -0.0539 -0.5901  0.5111
  752MOL0     C 1445  -0.642   8.377   1.133  0.0622 -0.4557 -0.5584
  752MOL0     C 1446  -0.657   8.250   1.051 -0.8566 -0.7422 -0.0436
  752MOL0     C 1447  -0.608   8.119   1.116 -0.7900  0.0470  0.5615
  752MOL0     C 1448  -0.608   8.112   1.267  0.6268  0.7051 -0.5666
  752MOL0     C 1449  -0.596   8.114   1.391 -0.5883  0.5738  0.1673
  752MOL0     C 1450  -0.262   8.474   0.950  0.7610  0.9188 -0.1265
  752MOL0     C 1451  -0.134   8.533   0.933  0.4049  0.5066 -0.5147
  752MOL0     C 1452  -0.016   8.427   0.948 -0.1805 -0.0003 -0.1771
  752MOL0     H 1453   0.315   8.604   0.947 -0.8537  0.5852  0.4614
  752MOL0     H 1454   0.524   8.725   0.993  2.4809  0.4794 -2.0110
  752MOL0     H 1455   0.666   8.853   1.025 -1.5886 -1.6361 -2.3135
  752MOL0     H 1456   0.765   8.875   0.880  1.8533  1.5218  0.9171
  752MOL0     H 1457   0.672   9.079   1.084  0.1696 -0.6111  0.5925
  752MOL0     H 1458   0.778   9.115   0.938 -1.0337 -0.4872 -1.3614
  752MOL0     H 1459   0.862   8.929   1.173 -1.4980 -1.2599 -1.7387
  752MOL0     H 1460   0.911   9.096   1.166  0.2004 -0.8375  2.2803
  752MOL0     H 1461   1.006   8.874   0.985 -0.0187 -0.6607  0.6672
  752MOL0     H 1462   1.005   9.044   0.927  1.1552 -0.3920 -0.1927
  752MOL0     H 1463   1.134   8.937   1.168 -2.2535  0.5193 -0.4609
  752MOL0     H 1464   1.217   8.966   1.009  2.2975 -0.3506  2.1654
  752MOL0     H 1465   1.107   9.202   1.054  0.6678  0.4621 -0.2288
  752MOL0     H 1466   1.130   9.159   1.225  0.6699  0.5698  1.1574
  752MOL0     H 1467   1.309   9.282   1.166 -1.6227  0.6913 -0.7508
  752MOL0     H 1468   1.360   9.168   1.032  1.2778 -3.9530  0.9288
  752MOL0     H 1469   1.341   9.109   1.331 -0.5971 -3.9693  0.3569
  752MOL0     H 1470   1.351   8.988   1.212 -1.2177  0.5583  1.3586
  752MOL0     H 1471   1.566   9.123   1.021  1.8267 -0.4948 -0.8808
  752MOL0     H 1472   1.905   9.033   1.147  1.3810  1.1195  1.7963
  752MOL0     H 1473   1.850   9.123   1.010  3.4192  1.7648  0.4572
  752MOL0     H 1474   2.006   9.263   1.089  0.3176 -0.5823  0.1780
  752MOL0     H 1475   1.867   9.333   1.175 -0.2936 -0.2705  0.2892
  752MOL0     H 1476   2.077   9.112   1.248  2.1544  0.5402  0.3997
  752MOL0     H 1477   1.966   9.178   1.370 -0.5620  0.9291  0.3571
  752MOL0     H 1478   2.187   9.318   1.225  2.2946 -2.9930  1.8107
  752MOL0     H 1479   2.204   9.259   1.390  0.5953  0.1129 -0.0340
  752MOL0     H 1480   2.337   9.416   1.321  0.7235 -0.3538  0.7609
  752MOL0     H 1481   2.496   9.583   1.365 -0.4091  0.0097  1.9119
  752MOL0     H 1482   2.573  10.043   1.716  1.1852  1.8034  0.8650
  752MOL0     H 1483   2.757  10.218   1.678  0.3101  3.9794 -1.4230
  752MOL0     H 1484   2.589  10.551   1.419  1.6880  1.6040  0.3933
  752MOL0     H 1485   2.523  10.511   1.575 -0.4815 -1.6705 -1.9603
  752MOL0     H 1486   2.774  10.695   1.525 -0.4949  1.6804 -0.1233
  752MOL0     H 1487   2.616  10.759   1.550 -2.3966 -2.3655 -2.3404
  752MOL0     H 1488   2.609  10.670   1.789  1.7127  1.5875  0.6893
  752MOL0     H 1489   2.740  10.557   1.753  0.5333 -0.0410  2.0073
  752MOL0     H 1490   2.888  10.753   1.716  1.0583 -2.8858  4.3268
  752MOL0     H 1491   2.825  10.739   1.874  3.3928 -0.9660 -0.2866
  752MOL0     H 1492   2.637  10.897   1.822 -0.8183 -2.8043  0.4821
  752MOL0     H 1493   2.722  10.925   1.672 -0.4167 -2.6347  0.0730
  752MOL0     H 1494   2.766  11.090   1.869  1.8006  1.4663 -0.2279
  752MOL0     H 1495   2.864  10.963   1.936  1.1198 -1.5931 -0.8332
  752MOL0     H 1496   2.919  11.040   1.656  0.2838  0.8530 -0.1778
  752MOL0     H 1497   3.026  10.965   1.766 -1.7154 -1.3799  1.2875
  752MOL0     H 1498   3.062  11.215   1.729  1.2896 -0.4851  0.7584
  752MOL0     H 1499   2.914  11.250   1.812  1.5538  0.8486 -0.7308
  752MOL0     H 1500   2.562  10.352   1.339 -1.1271 -0.8773 -1.2775
  752MOL0     H 1501   2.425  10.119   1.326  1.8865  0.9628 -2.3804
  752MOL0     H 1502   2.161   9.833   1.513  0.8362 -0.4753  1.4701
  752MOL0     H 1503   2.027   9.644   1.486  0.5443 -0.4309 -0.7416
  752MOL0     H 1504   0.403   9.046   0.752  2.5314 -0.2836  2.0439
  752MOL0     H 1505   0.172   8.927   0.710 -2.1013 -0.3746  1.2651
  752MOL0     H 1506  -0.244   8.848   0.902 -0.7893  0.0352 -1.2494
  752MOL0     H 1507  -0.452   8.747   0.941  0.1981  0.8834 -0.0895
  752MOL0     H 1508  -0.500   8.528   1.176  2.6723 -1.2015  1.0358
  752MOL0     H 1509  -0.431   8.367   1.118  0.1884 -0.1881  1.6539
  752MOL0     H 1510  -0.723   8.446   1.108 -1.7529 -2.4360 -0.4090
  752MOL0     H 1511  -0.651   8.366   1.242 -1.5425  2.7333 -0.2295
  752MOL0     H 1512  -0.615   8.261   0.950  1.7455 -1.1264  0.9245
  752MOL0     H 1513  -0.762   8.239   1.024 -0.4887 -1.7519 -1.1896
  752MOL0     H 1514  -0.670   8.037   1.079  0.3363  0.0676 -1.5430
  752MOL0     H 1515  -0.507   8.092   1.081 -0.2028  2.5676  0.0985
  752MOL0     H 1516  -0.573   8.115   1.496 -0.8724 -1.0257  0.2752
  752MOL0     H 1517  -0.268   8.370   0.981 -0.5820  0.6732 -1.0905
  752MOL0     H 1518  -0.020   8.345   0.875  0.2443 -2.0536  2.0017
  752MOL0     H 1519   0.077   8.483   0.937 -0.1048  0.5103  2.4901
  752MOL0     H 1520  -0.025   8.381   1.046  1.8427 -0.4406 -0.1550
  753MOL0     O 1521   1.664  10.858   2.885 -0.6779 -0.0472  0.2795
  753MOL0     C 1522   1.706  10.814   2.774  1.1624 -0.2500 -0.2998
  753MOL0     O 1523   1.830  10.836   2.734 -0.7366  0.1451  0.6197
  753MOL0     C 1524   1.928  10.859   2.825  0.8227 -0.3075 -0.6041
  753MOL0     C 1525   1.979  10.753   2.904 -0.4098  0.0281  0.1177
  753MOL0     C 1526   2.064  10.773   2.997 -0.1591  0.6519 -0.5297
  753MOL0     C 1527   2.126  10.902   3.019 -0.0852  0.7437  0.4079
  753MOL0     O 1528   2.230  10.918   3.111 -0.0915  0.1418  0.0159
  753MOL0     C 1529   2.332  10.823   3.087  0.0534  0.5809  0.6607
  753MOL0     C 1530   2.465  10.870   3.146  0.4888  0.9250 -0.0449
  753MOL0     C 1531   2.510  11.009   3.084  0.0801 -0.6167  0.7554
  753MOL0     C 1532   2.644  11.057   3.144  0.5020  0.1796 -0.3948
  753MOL0     C 1533   2.671  11.204   3.110  0.0509 -0.2696  0.2621
  753MOL0     C 1534   2.811  11.237   3.163  0.8193  1.0009  0.4041
  753MOL0     C 1535   2.833  11.393   3.152  0.1255  0.5205 -0.2710
  753MOL0     C 1536   2.979  11.417   3.176 -0.3371 -0.1109 -0.1457
  753MOL0     N 1537   3.037  11.548   3.185  0.0199 -0.8622 -0.1231
  753MOL0     C 1538   2.998  11.651   3.266 -0.1593 -0.0595  0.3038
  753MOL0     C 1539   3.065  11.757   3.216 -0.1337 -0.4353 -0.6104
  753MOL0     C 1540   3.051  11.895   3.265  0.0146  0.4213 -0.5760
  753MOL0     C 1541   3.175  11.934   3.346 -0.6730  0.3493 -0.2814
  753MOL0     C 1542   3.180  12.087   3.371 -0.1772  0.6238  0.2502
  753MOL0     C 1543   3.304  12.106   3.451  0.7046  0.2262 -0.9925
  753MOL0     O 1544   3.417  12.086   3.368 -0.0932 -0.3660 -0.3051
  753MOL0     C 1545   3.543  12.108   3.423  0.4514  0.0918  0.3570
  753MOL0     C 1546   3.567  12.141   3.555  0.4238  0.0569  0.6030
  753MOL0     C 1547   3.695  12.166   3.605 -0.3827 -0.3511  0.3112
  753MOL0     C 1548   3.803  12.154   3.522  0.3473  0.7457  0.5853
  753MOL0     C 1549   3.938  12.178   3.573 -0.1246 -0.7237  0.4817
  753MOL0     O 1550   3.954  12.217   3.705 -1.0714  0.1945 -0.2464
  753MOL0     C 1551   4.077  12.244   3.748 -0.2499 -0.0292  0.9096
  753MOL0     C 1552   4.175  12.146   3.780  0.5639  0.2007  0.7329
  753MOL0     C 1553   4.309  12.183   3.787  0.0835  0.3279 -0.8051
  753MOL0     C 1554   4.344  12.314   3.767  0.7926  0.3892  0.5449
  753MOL0     O 1555   4.470  12.363   3.784 -1.0314  0.1687  0.7005
  753MOL0     C 1556   4.580  12.273   3.822  0.7356  0.3746 -0.1346
  753MOL0     C 1557   4.699  12.350   3.866 -0.0919  0.3675 -0.3906
  753MOL0     C 1558   4.816  12.262   3.904  0.1688  1.0118  0.0955
  753MOL0     C 1559   4.939  12.339   3.911 -0.0972 -0.5665 -0.7367
  753MOL0     C 1560   5.057  12.249   3.929  0.5326  0.3872  0.1451
  753MOL0     C 1561   5.190  12.327   3.933  0.1613  0.0542  0.5723
  753MOL0     C 1562   5.307  12.243   3.968  0.3088 -0.4094  0.7632
  753MOL0     C 1563   5.442  12.314   3.974 -0.6150  0.4922  0.2896
  753MOL0    Cl 1564   5.424  12.438   3.844 -0.1115  0.1968 -0.0781
  753MOL0     C 1565   4.256  12.407   3.726 -0.6646 -0.0747 -0.1433
  753MOL0     C 1566   4.121  12.378   3.721 -0.7655 -0.0341  1.4108
  753MOL0     O 1567   4.025  12.170   3.490 -0.0621 -0.1950 -0.3171
  753MOL0     C 1568   3.782  12.098   3.390 -0.3765  0.3524 -1.1140
  753MOL0     C 1569   3.657  12.076   3.348  1.1898 -0.1965  0.2540
  753MOL0     N 1570   3.135  11.721   3.109 -0.2448 -0.0679 -0.4362
  753MOL0     N 1571   3.134  11.593   3.092  0.5681 -0.1761 -0.8280
  753MOL0     C 1572   2.073  11.005   2.939 -0.0609 -0.3061  0.3340
  753MOL0     C 1573   1.974  10.983   2.838 -0.7960  0.2284 -0.3785
  753MOL0     C 1574   1.628  10.729   2.677  0.1322  0.4191  0.7469
  753MOL0     C 1575   1.677  10.708   2.542  0.6139  0.1408 -0.3205
  753MOL0     C 1576   1.601  10.663   2.437  0.8223  0.6608  0.8277
  753MOL0     C 1577   1.468  10.626   2.461  1.2703  0.2209 -0.5368
  753MOL0     O 1578   1.394  10.573   2.356  0.0403  0.5096 -0.0883
  753MOL0     C 1579   1.255  10.547   2.372 -0.6448  0.9960 -0.0366
  753MOL0     C 1580   1.233  10.457   2.244 -0.3326 -0.2957 -0.2533
  753MOL0     C 1581   1.086  10.394   2.232  0.1605 -0.6930  0.2432
  753MOL0     C 1582   0.968  10.497   2.223 -0.8325 -0.4281  0.8530
  753MOL0     C 1583   0.838  10.439   2.220 -0.2400 -0.2574 -0.0540
  753MOL0     C 1584   0.736  10.379   2.214  0.3300  0.0539  0.4916
  753MOL0     C 1585   1.417  10.641   2.589 -1.0295  1.0985  0.2240
  753MOL0     C 1586   1.494  10.678   2.705 -0.4225 -0.9282 -0.8838
  753MOL0     C 1587   1.420  10.702   2.837 -0.4616 -0.4167 -0.2088
  753MOL0     H 1588   1.920  10.663   2.891 -1.6620  0.9071 -0.6113
  753MOL0     H 1589   2.096  10.682   3.046  0.6881  1.4821  0.4907
  753MOL0     H 1590   2.309  10.730   3.140  1.7281 -0.1733  0.1449
  753MOL0     H 1591   2.335  10.808   2.979 -0.2747  0.7730  0.6239
  753MOL0     H 1592   2.541  10.793   3.131 -0.7680 -0.2480 -0.5851
  753MOL0     H 1593   2.464  10.872   3.256 -1.1172 -2.1028  0.1088
  753MOL0     H 1594   2.442  11.091   3.109  1.0359  0.9412 -1.4077
  753MOL0     H 1595   2.517  11.006   2.975 -0.2537  0.9359  0.6670
  753MOL0     H 1596   2.642  11.055   3.254  1.0244 -2.4182 -0.3625
  753MOL0     H 1597   2.730  10.994   3.120 -0.3193 -1.0740 -0.1401
  753MOL0     H 1598   2.665  11.222   3.003 -2.0215 -3.0694 -0.2165
  753MOL0     H 1599   2.602  11.267   3.166  0.5464 -1.3767  2.2374
  753MOL0     H 1600   2.834  11.210   3.266 -0.0148  0.4602  0.4592
  753MOL0     H 1601   2.873  11.177   3.096 -0.7667 -0.2301 -0.0320
  753MOL0     H 1602   2.775  11.447   3.227 -0.2035  0.3013 -0.3648
  753MOL0     H 1603   2.803  11.437   3.057 -1.0662 -0.4088 -0.3429
  753MOL0     H 1604   2.995  11.390   3.281 -0.7396 -1.6183 -0.4586
  753MOL0     H 1605   3.037  11.352   3.111  0.7396  1.6477 -1.0216
  753MOL0     H 1606   2.937  11.639   3.356  0.8907 -2.2085  0.7999
  753MOL0     H 1607   3.040  11.953   3.172 -0.1998  0.3068 -0.6217
  753MOL0     H 1608   2.961  11.917   3.323  1.4860 -1.3167  2.6138
  753MOL0     H 1609   3.172  11.871   3.436  1.1967 -1.3128 -1.2916
  753MOL0     H 1610   3.269  11.903   3.299  0.7100  0.1899  2.3871
  753MOL0     H 1611   3.094  12.125   3.427  1.5744  2.5405  1.8116
  753MOL0     H 1612   3.179  12.139   3.274 -0.4221 -0.4606 -0.3433
  753MOL0     H 1613   3.296  12.037   3.536 -0.5790  1.4283 -0.0851
  753MOL0     H 1614   3.300  12.212   3.477 -3.6397  0.9226 -3.4985
  753MOL0     H 1615   3.483  12.161   3.621 -0.7417  1.2914 -1.1814
  753MOL0     H 1616   3.715  12.188   3.709 -2.6846 -0.5823  0.8609
  753MOL0     H 1617   4.144  12.042   3.785  2.3772 -0.4269 -0.0903
  753MOL0     H 1618   4.385  12.109   3.810  0.8482  1.7329  1.6076
  753MOL0     H 1619   4.538  12.218   3.907 -1.3913  0.3260 -1.1343
  753MOL0     H 1620   4.608  12.210   3.737 -1.6654 -1.7097  0.4921
  753MOL0     H 1621   4.739  12.408   3.783  0.5021  0.8509  0.2266
  753MOL0     H 1622   4.679  12.413   3.953 -1.6262 -0.0511 -0.4102
  753MOL0     H 1623   4.813  12.216   4.003 -0.0563 -1.6148 -1.0414
  753MOL0     H 1624   4.834  12.181   3.833  0.4990  1.3587 -0.2265
  753MOL0     H 1625   4.942  12.413   3.992  1.6188  0.2244 -1.4546
  753MOL0     H 1626   4.958  12.406   3.826  1.2628 -0.7878 -0.6276
  753MOL0     H 1627   5.067  12.194   3.835 -2.4627  1.7991 -1.1530
  753MOL0     H 1628   5.038  12.177   4.009 -0.8531 -0.6939 -1.0915
  753MOL0     H 1629   5.194  12.373   3.833  2.2391  0.7869  0.9469
  753MOL0     H 1630   5.187  12.412   4.001  2.0661  0.6782 -0.0530
  753MOL0     H 1631   5.328  12.182   3.879  2.2972  2.8820 -1.2452
  753MOL0     H 1632   5.296  12.181   4.057  1.4062  0.1781  1.3327
  753MOL0     H 1633   5.473  12.357   4.069 -2.0442  2.6545 -0.1525
  753MOL0     H 1634   5.514  12.235   3.952 -0.0369  0.8972  0.6978
  753MOL0     H 1635   4.288  12.507   3.696 -0.7108 -0.4368 -1.4464
  753MOL0     H 1636   4.056  12.455   3.681  1.3835  0.1633 -2.2481
  753MOL0     H 1637   3.860  12.066   3.323  0.8609  0.9746 -0.0118
  753MOL0     H 1638   3.636  12.051   3.245  0.7695  1.4082 -0.0914
  753MOL0     H 1639   2.127  11.098   2.955  1.8923 -1.6588  2.2234
  753MOL0     H 1640   1.944  11.073   2.786  2.4592  0.5363 -1.9373
  753MOL0     H 1641   1.779  10.742   2.523  0.2079  0.4453 -2.0770
  753MOL0     H 1642   1.650  10.647   2.341  0.7316  1.4197  0.6479
  753MOL0     H 1643   1.199  10.640   2.387 -0.0565  1.1686  1.2349
  753MOL0     H 1644   1.234  10.476   2.453 -0.7230  0.6229 -0.3770
  753MOL0     H 1645   1.302  10.373   2.239 -1.1826 -1.0566  0.4134
  753MOL0     H 1646   1.265  10.519   2.159  1.0518 -1.6934 -0.8017
  753MOL0     H 1647   1.078  10.327   2.317 -0.3287  0.4242  1.1000
  753MOL0     H 1648   1.076  10.328   2.145 -0.1969 -1.6736  1.0134
  753MOL0     H 1649   0.975  10.549   2.319 -2.6176 -0.2306  0.8946
  753MOL0     H 1650   0.977  10.574   2.146 -0.1664  1.3790  2.6491
  753MOL0     H 1651   0.637  10.339   2.215 -0.5668  1.8837 -2.3563
  753MOL0     H 1652   1.317  10.607   2.611 -0.9124  1.2127  0.9520
  753MOL0     H 1653   1.314  10.673   2.835 -0.1845 -1.4819 -0.0483
  753MOL0     H 1654   1.475  10.647   2.913 -0.5117 -2.6989 -1.7251
  753MOL0     H 1655   1.410  10.809   2.855 -0.6604 -0.6394  1.0828
  754MOL0     O 1656   6.575   2.462   1.733  0.2466  0.1541  0.2902
  754MOL0     C 1657   6.577   2.511   1.848 -0.0100 -0.5589 -0.4668
  754MOL0     O 1658   6.691   2.552   1.917 -0.0266 -0.3439 -0.0505
  754MOL0     C 1659   6.816   2.513   1.887  0.7845 -0.8293 -0.6598
  754MOL0     C 1660   6.917   2.595   1.932  0.3031 -0.0538  0.5281
  754MOL0     C 1661   7.052   2.559   1.921 -0.1686  0.0194  0.0508
  754MOL0     C 1662   7.098   2.447   1.853  0.4474 -0.2516  0.4685
  754MOL0     O 1663   7.225   2.416   1.826  0.5648  0.3633  0.3705
  754MOL0     C 1664   7.320   2.436   1.932 -0.3490  0.0894 -0.4819
  754MOL0     C 1665   7.451   2.354   1.904 -0.1266 -0.4154  0.4068
  754MOL0     C 1666   7.437   2.198   1.899 -0.0064 -0.0831 -1.0876
  754MOL0     C 1667   7.568   2.117   1.888  0.6616 -0.2030 -0.1564
  754MOL0     C 1668   7.542   1.967   1.885  0.0521 -0.2651 -0.0459
  754MOL0     C 1669   7.681   1.901   1.879  0.8197 -0.1397 -0.5229
  754MOL0     C 1670   7.673   1.751   1.852  0.2799 -0.1642 -0.0154
  754MOL0     C 1671   7.679   1.674   1.987  0.1399  1.2528 -0.1158
  754MOL0     N 1672   7.582   1.715   2.094  0.2359  0.9805  0.6520
  754MOL0     C 1673   7.447   1.691   2.086 -0.4084 -0.8039  0.3837
  754MOL0     C 1674   7.400   1.715   2.208  0.1911  0.1771 -0.7485
  754MOL0     C 1675   7.256   1.727   2.267 -0.0444 -1.1744  0.0262
  754MOL0     C 1676   7.186   1.865   2.240  0.2462  1.2098 -0.4006
  754MOL0     C 1677   7.207   1.929   2.103 -0.1337 -0.5283  0.0903
  754MOL0     C 1678   7.092   2.020   2.085  0.2408  0.0938 -1.1143
  754MOL0     O 1679   7.120   2.129   2.175 -1.4313 -0.9854 -0.4964
  754MOL0     C 1680   7.022   2.215   2.207  0.2221  0.4226  0.2934
  754MOL0     C 1681   6.894   2.213   2.143 -0.2172 -0.1107 -0.9713
  754MOL0     C 1682   6.786   2.290   2.193 -0.1690 -0.0534  0.8088
  754MOL0     C 1683   6.803   2.370   2.303  0.2304  0.0814  1.0447
  754MOL0     C 1684   6.690   2.464   2.337 -0.2024  0.3949 -0.2810
  754MOL0     O 1685   6.732   2.598   2.344  0.2530  0.3103 -0.2738
  754MOL0     C 1686   6.631   2.680   2.373  0.6459 -0.5267 -0.6977
  754MOL0     C 1687   6.565   2.679   2.496  0.0930  0.0464  0.4241
  754MOL0     C 1688   6.467   2.769   2.525 -1.1485 -0.5443  0.1705
  754MOL0     C 1689   6.431   2.874   2.440  0.0086  0.1784 -0.3695
  754MOL0     O 1690   6.323   2.952   2.464  0.7543 -0.0687  0.1397
  754MOL0     C 1691   6.324   3.029   2.586  0.5010 -0.9984  0.6508
  754MOL0     C 1692   6.186   3.109   2.593  0.4333 -0.4684 -0.0002
  754MOL0     C 1693   6.170   3.200   2.724 -0.4803  0.1259 -0.1222
  754MOL0     C 1694   6.032   3.251   2.722 -0.8994 -0.3234 -1.0428
  754MOL0     C 1695   6.007   3.331   2.857 -0.4988 -0.1100  0.0024
  754MOL0     C 1696   6.078   3.461   2.845 -0.2195 -0.3535 -1.3406
  754MOL0     C 1697   6.038   3.538   2.971 -0.5760  0.2136 -0.6107
  754MOL0     C 1698   5.928   3.631   2.940  0.3422 -0.1684 -0.0432
  754MOL0    Cl 1699   5.936   3.747   3.079  0.0830  0.3449 -0.4106
  754MOL0     C 1700   6.508   2.885   2.318  0.1436  0.0122 -0.0560
  754MOL0     C 1701   6.608   2.789   2.291  0.3472  1.2228  0.0722
  754MOL0     O 1702   6.573   2.428   2.343  0.6653 -0.1847  0.1570
  754MOL0     C 1703   6.932   2.374   2.367 -0.4265  0.1554 -0.6021
  754MOL0     C 1704   7.039   2.295   2.316  0.1459 -0.2141 -0.3195
  754MOL0     N 1705   7.506   1.754   2.294 -0.6492  0.4903  0.3727
  754MOL0     N 1706   7.615   1.763   2.219 -0.6654  0.9451  0.1283
  754MOL0     C 1707   6.999   2.357   1.802 -0.7299 -0.6356  0.2139
  754MOL0     C 1708   6.864   2.393   1.817  0.4728 -0.8094  0.3428
  754MOL0     C 1709   6.446   2.543   1.918 -0.0246 -0.0957 -0.3541
  754MOL0     C 1710   6.453   2.562   2.058  0.1822  0.3198 -0.0492
  754MOL0     C 1711   6.346   2.601   2.133  0.4072 -0.0150  0.7970
  754MOL0     C 1712   6.220   2.608   2.076  0.1185 -0.4525  0.1330
  754MOL0     O 1713   6.115   2.660   2.142  0.4153 -0.1292 -0.7831
  754MOL0     C 1714   6.130   2.687   2.281 -0.5231 -0.2381  0.2158
  754MOL0     C 1715   5.999   2.742   2.325  0.5168 -0.8072 -0.7120
  754MOL0     C 1716   5.974   2.895   2.288 -0.7626 -0.9891 -0.4960
  754MOL0     C 1717   5.839   2.948   2.277 -0.4421 -0.4229 -0.8641
  754MOL0     C 1718   5.745   2.892   2.378 -0.2460  0.3192  0.1059
  754MOL0     C 1719   5.692   2.854   2.482  0.5298  0.3406 -0.4037
  754MOL0     C 1720   6.204   2.578   1.942  0.2034  0.1312  0.1194
  754MOL0     C 1721   6.318   2.547   1.860  0.2087 -0.3533  0.0155
  754MOL0     C 1722   6.294   2.517   1.714 -0.2057  0.1207 -0.1046
  754MOL0     H 1723   6.898   2.688   1.984  0.8745  0.4695 -0.1816
  754MOL0     H 1724   7.128   2.616   1.971  0.1087 -0.2847 -0.0198
  754MOL0     H 1725   7.340   2.542   1.943  0.2622 -0.1413  0.7368
  754MOL0     H 1726   7.276   2.401   2.026 -0.7654  0.3653 -0.5707
  754MOL0     H 1727   7.532   2.376   1.975  1.3066 -0.5468 -1.1335
  754MOL0     H 1728   7.493   2.394   1.811  0.0673  0.6846  0.9470
  754MOL0     H 1729   7.373   2.166   1.817 -0.3160 -0.8120 -0.5674
  754MOL0     H 1730   7.391   2.169   1.994 -3.1573  1.6635 -1.9418
  754MOL0     H 1731   7.596   2.147   1.787  1.2486  0.8713  0.3163
  754MOL0     H 1732   7.648   2.145   1.957  0.3184 -1.4631  0.7917
  754MOL0     H 1733   7.494   1.941   1.980 -0.9873 -1.2339 -0.8096
  754MOL0     H 1734   7.478   1.935   1.803  0.8866  0.4912 -1.0270
  754MOL0     H 1735   7.742   1.946   1.800  1.1979  2.5354  1.1479
  754MOL0     H 1736   7.727   1.929   1.974  0.5299  0.5695 -0.5809
  754MOL0     H 1737   7.758   1.723   1.790 -0.7760  1.4425 -2.3482
  754MOL0     H 1738   7.579   1.722   1.805 -1.0977 -2.8898  3.8465
  754MOL0     H 1739   7.661   1.568   1.967 -1.6269  1.6259 -0.6366
  754MOL0     H 1740   7.781   1.675   2.028  0.7166  1.9738 -1.4824
  754MOL0     H 1741   7.398   1.671   1.991  1.6587 -0.8128 -0.7444
  754MOL0     H 1742   7.195   1.647   2.224  0.3671 -0.5052 -1.8854
  754MOL0     H 1743   7.262   1.700   2.373 -0.6151 -0.4549  0.2538
  754MOL0     H 1744   7.083   1.837   2.261 -0.0533  1.4440 -1.5242
  754MOL0     H 1745   7.211   1.938   2.318 -1.8485  1.9097 -0.3332
  754MOL0     H 1746   7.211   1.852   2.025  2.5243 -0.0783 -0.3002
  754MOL0     H 1747   7.306   1.974   2.100  0.0178 -0.7195  1.5018
  754MOL0     H 1748   6.998   1.966   2.097  0.4433  0.2740  2.3884
  754MOL0     H 1749   7.085   2.058   1.983  0.1871  4.2437  0.2589
  754MOL0     H 1750   6.883   2.153   2.053  0.4300  0.4650 -1.4469
  754MOL0     H 1751   6.689   2.299   2.145 -0.6700  0.0157  1.8065
  754MOL0     H 1752   6.583   2.604   2.572  0.8837  0.5372  0.7397
  754MOL0     H 1753   6.411   2.767   2.618 -1.3168  0.3491  0.0921
  754MOL0     H 1754   6.347   2.965   2.672 -0.9650 -0.8906  1.1551
  754MOL0     H 1755   6.405   3.103   2.580 -0.3122 -0.0812  0.7348
  754MOL0     H 1756   6.174   3.181   2.511 -1.2467 -0.4077  0.2814
  754MOL0     H 1757   6.110   3.032   2.599 -1.7094  1.3429 -1.9427
  754MOL0     H 1758   6.180   3.144   2.817 -2.4673  1.6922  1.1227
  754MOL0     H 1759   6.247   3.277   2.718 -1.6919  1.3130 -1.2526
  754MOL0     H 1760   5.962   3.168   2.713  0.3479 -1.3174 -2.0964
  754MOL0     H 1761   6.003   3.319   2.641 -1.2089 -0.4296 -1.0223
  754MOL0     H 1762   6.039   3.271   2.942 -1.1788 -0.5140 -0.0159
  754MOL0     H 1763   5.899   3.350   2.858 -0.4917 -0.0466  1.3934
  754MOL0     H 1764   6.187   3.450   2.851 -0.0551 -0.0172 -3.0127
  754MOL0     H 1765   6.058   3.505   2.747 -0.6236  0.6366 -0.8278
  754MOL0     H 1766   6.125   3.595   3.005 -0.8474 -0.6188  1.6422
  754MOL0     H 1767   6.021   3.480   3.062 -2.9411  0.6307 -0.7366
  754MOL0     H 1768   5.958   3.685   2.849  1.3572  0.0260  0.3917
  754MOL0     H 1769   5.831   3.584   2.923  0.4786 -0.0865 -1.1310
  754MOL0     H 1770   6.485   2.961   2.244 -0.8437  0.8600  1.0822
  754MOL0     H 1771   6.662   2.796   2.197 -3.7700 -1.3498 -2.8196
  754MOL0     H 1772   6.961   2.454   2.435 -1.1401  0.8816 -1.1256
  754MOL0     H 1773   7.134   2.307   2.368 -0.8196  0.1367  1.4305
  754MOL0     H 1774   7.032   2.271   1.744 -0.9529  1.6485 -3.6591
  754MOL0     H 1775   6.795   2.321   1.772  0.6930  0.4296 -2.1668
  754MOL0     H 1776   6.551   2.553   2.105  0.5895  0.5381 -0.8291
  754MOL0     H 1777   6.368   2.618   2.238 -0.8018  0.1598  1.0276
  754MOL0     H 1778   6.196   2.769   2.310  1.0632 -2.1550  2.3413
  754MOL0     H 1779   6.148   2.594   2.335 -1.0138 -2.6600 -3.4395
  754MOL0     H 1780   5.983   2.722   2.432  2.4085 -0.6714 -0.3751
  754MOL0     H 1781   5.931   2.682   2.265  0.3559 -1.2075 -0.1401
  754MOL0     H 1782   6.029   2.918   2.196 -1.2834 -3.4673 -1.5117
  754MOL0     H 1783   6.021   2.945   2.374 -1.4522 -4.0576  1.8353
  754MOL0     H 1784   5.844   3.057   2.281  2.3321 -0.2929 -3.8328
  754MOL0     H 1785   5.800   2.929   2.176 -0.5064 -1.0536 -0.7232
  754MOL0     H 1786   5.655   2.816   2.575  2.2291  1.7374  0.9043
  754MOL0     H 1787   6.102   2.576   1.905  0.4139  0.8329 -0.5262
  754MOL0     H 1788   6.352   2.588   1.654 -3.1237  1.5700 -1.4311
  754MOL0     H 1789   6.342   2.420   1.701  0.8918  0.5500  0.5648
  754MOL0     H 1790   6.191   2.520   1.677 -1.0083 -0.8521  1.8764
  755MOL0     O 1791   9.158   5.659   3.296  0.2192  0.3034 -0.0531
  755MOL0     C 1792   9.106   5.614   3.197  0.5392  0.3739 -0.1067
  755MOL0     O 1793   9.139   5.497   3.124 -0.0330 -0.2838  0.2148
  755MOL0     C 1794   9.256   5.438   3.163 -0.1203 -0.3794  0.1254
  755MOL0     C 1795   9.283   5.398   3.290 -0.0781  0.4796  0.1055
  755MOL0     C 1796   9.407   5.362   3.322  0.1302  0.2562 -0.1405
  755MOL0     C 1797   9.511   5.368   3.229 -0.4443 -0.9991 -0.5617
  755MOL0     O 1798   9.644   5.337   3.244  0.0735 -0.2749 -0.1702
  755MOL0     C 1799   9.692   5.305   3.378 -0.5512  0.5861 -0.3866
  755MOL0     C 1800   9.843   5.258   3.360  0.1086 -0.5691  0.4145
  755MOL0     C 1801   9.905   5.195   3.484  0.0083 -0.2479  0.3460
  755MOL0     C 1802  10.011   5.095   3.442 -0.3331 -0.6272  0.2874
  755MOL0     C 1803  10.129   5.094   3.532  0.0832 -0.1473 -1.4691
  755MOL0     C 1804  10.228   4.972   3.505  0.4977  0.1378  0.0753
  755MOL0     C 1805  10.355   4.977   3.593 -0.0143 -0.0936 -0.0248
  755MOL0     C 1806  10.322   4.930   3.734 -0.6062  0.4545 -0.3939
  755MOL0     N 1807  10.435   4.948   3.823  0.1406  0.5980 -0.6515
  755MOL0     C 1808  10.484   5.069   3.863  0.4577  0.2487 -0.7543
  755MOL0     C 1809  10.585   5.029   3.944 -0.0564 -0.4907 -0.6640
  755MOL0     C 1810  10.655   5.139   4.026 -0.0639  0.5769  0.6471
  755MOL0     C 1811  10.744   5.247   3.951 -0.1117  1.5506 -0.2709
  755MOL0     C 1812  10.761   5.368   4.047 -0.8750  0.2248 -0.2391
  755MOL0     C 1813  10.852   5.474   4.003 -0.2904 -0.0895  0.3078
  755MOL0     O 1814  10.789   5.600   4.013  0.4172 -0.0867 -0.3089
  755MOL0     C 1815  10.856   5.720   4.003  0.5483  0.7646 -0.2313
  755MOL0     C 1816  10.784   5.826   4.050  0.0229  0.0002 -0.6346
  755MOL0     C 1817  10.839   5.960   4.044  0.3654  0.1745 -0.8671
  755MOL0     C 1818  10.967   5.986   3.993  0.0234 -0.6043  0.3725
  755MOL0     C 1819  11.018   6.122   3.992  0.4019  0.3790  0.0352
  755MOL0     O 1820  11.109   6.152   3.892  0.4700  0.0447 -0.0813
  755MOL0     C 1821  11.187   6.256   3.902 -0.0264 -0.5357 -0.5543
  755MOL0     C 1822  11.178   6.372   3.814  0.2951  0.1681 -0.1957
  755MOL0     C 1823  11.266   6.484   3.832 -0.6951  0.2139  0.1921
  755MOL0     C 1824  11.375   6.481   3.916 -0.3617 -0.8589  0.0765
  755MOL0     O 1825  11.480   6.564   3.890  0.5749  0.0524 -0.2292
  755MOL0     C 1826  11.556   6.532   3.775 -0.5449  0.1038  0.0838
  755MOL0     C 1827  11.640   6.653   3.716  0.2168  0.4515 -0.3964
  755MOL0     C 1828  11.762   6.611   3.633 -0.5569 -0.0722 -1.0027
  755MOL0     C 1829  11.885   6.577   3.725 -0.0331 -0.0346 -0.1275
  755MOL0     C 1830  12.018   6.537   3.657  0.2599  0.3336  0.4196
  755MOL0     C 1831  12.086   6.636   3.557 -0.2904  0.3730 -0.2056
  755MOL0     C 1832  12.219   6.576   3.498  0.1231  0.0930 -0.2635
  755MOL0     C 1833  12.277   6.675   3.389  0.4580 -0.1077  0.1264
  755MOL0    Cl 1834  12.347   6.825   3.457  0.2193  0.4005 -0.0917
  755MOL0     C 1835  11.382   6.378   4.009 -0.2531 -0.2380  0.0318
  755MOL0     C 1836  11.296   6.266   4.002 -0.5512 -0.2863  0.4481
  755MOL0     O 1837  10.951   6.208   4.054  0.1886  0.6715 -0.4123
  755MOL0     C 1838  11.037   5.875   3.939 -0.9064 -0.0151 -0.2049
  755MOL0     C 1839  10.980   5.750   3.946 -0.3543  0.3244  0.2182
  755MOL0     N 1840  10.605   4.896   3.940 -0.6638  0.0265  0.6808
  755MOL0     N 1841  10.516   4.847   3.867  1.1730  0.2316  0.5848
  755MOL0     C 1842   9.483   5.398   3.093  0.2752 -0.8647  0.6763
  755MOL0     C 1843   9.356   5.432   3.062 -0.2109 -0.2043  0.7403
  755MOL0     C 1844   8.991   5.694   3.141  0.0103  0.3677  0.0386
  755MOL0     C 1845   8.913   5.636   3.030  0.6236 -1.0294 -0.7558
  755MOL0     C 1846   8.801   5.701   2.983  0.5159  0.0668 -0.4451
  755MOL0     C 1847   8.770   5.829   3.020  0.8943 -0.4238 -0.0025
  755MOL0     O 1848   8.676   5.914   2.960  0.2015 -0.3351  0.7871
  755MOL0     C 1849   8.602   5.858   2.852  0.6085 -0.4779  0.4105
  755MOL0     C 1850   8.463   5.797   2.888  0.7222  0.2698  0.9508
  755MOL0     C 1851   8.368   5.909   2.943 -0.5259  0.5865  0.3042
  755MOL0     C 1852   8.232   5.855   2.994  0.3408 -0.6114 -0.4412
  755MOL0     C 1853   8.151   5.973   3.033 -0.7825  0.6283  0.9176
  755MOL0     C 1854   8.082   6.064   3.067 -0.1602  0.0242  0.4710
  755MOL0     C 1855   8.831   5.880   3.133  0.8344 -0.2295  0.0953
  755MOL0     C 1856   8.946   5.825   3.192 -0.1647  0.2007  0.2227
  755MOL0     C 1857   9.017   5.910   3.295  0.6002  0.6002 -0.8557
  755MOL0     H 1858   9.204   5.404   3.364 -0.1940  1.8873 -0.1034
  755MOL0     H 1859   9.428   5.322   3.421  2.5682 -0.3147 -0.8180
  755MOL0     H 1860   9.684   5.389   3.447  2.7415  0.9074 -0.2122
  755MOL0     H 1861   9.635   5.213   3.396  1.9541 -1.5591 -2.4781
  755MOL0     H 1862   9.910   5.341   3.334  0.8504 -0.9949  0.9351
  755MOL0     H 1863   9.839   5.191   3.274  0.8279 -0.7671  0.5260
  755MOL0     H 1864   9.831   5.142   3.544 -0.5394  2.7654  2.5990
  755MOL0     H 1865   9.944   5.269   3.555 -1.9582  0.8724  0.3276
  755MOL0     H 1866   9.970   4.994   3.441 -1.6737 -0.2365  3.6764
  755MOL0     H 1867  10.052   5.117   3.342  0.9531  0.4183  1.0081
  755MOL0     H 1868  10.195   5.181   3.534  3.3715 -2.4564  1.6704
  755MOL0     H 1869  10.080   5.082   3.629 -1.2630  1.3096 -1.9087
  755MOL0     H 1870  10.179   4.879   3.536 -0.6345  1.4143  2.3830
  755MOL0     H 1871  10.244   4.981   3.398 -1.3411  4.7733 -0.0193
  755MOL0     H 1872  10.389   5.080   3.603  1.6151 -0.5769 -0.3603
  755MOL0     H 1873  10.438   4.924   3.546  1.2509  0.6765  1.2452
  755MOL0     H 1874  10.237   4.985   3.774 -2.0276 -0.3460 -2.1769
  755MOL0     H 1875  10.288   4.826   3.737 -1.4660  0.7609  2.1885
  755MOL0     H 1876  10.458   5.167   3.826 -3.9711 -0.2670  0.4446
  755MOL0     H 1877  10.576   5.195   4.077 -2.0932 -0.9637 -0.6579
  755MOL0     H 1878  10.718   5.096   4.105 -1.5918  0.5400  1.8902
  755MOL0     H 1879  10.841   5.203   3.926 -2.1342 -3.2918 -0.7295
  755MOL0     H 1880  10.699   5.278   3.857 -0.0775  1.2248 -0.3954
  755MOL0     H 1881  10.787   5.332   4.147 -0.3814  0.0536 -0.4244
  755MOL0     H 1882  10.666   5.419   4.059 -0.2842  0.8392  2.6671
  755MOL0     H 1883  10.874   5.463   3.896 -0.2855 -1.9992  0.4797
  755MOL0     H 1884  10.951   5.482   4.048  0.5382 -0.1718 -1.4105
  755MOL0     H 1885  10.691   5.808   4.102  0.0673  2.1333  0.3123
  755MOL0     H 1886  10.788   6.051   4.075  1.0391  0.6476 -1.1277
  755MOL0     H 1887  11.106   6.372   3.732 -0.3719 -3.0940  0.2384
  755MOL0     H 1888  11.262   6.565   3.759 -1.7066  0.8434  0.9196
  755MOL0     H 1889  11.620   6.449   3.808  1.2809  1.3029 -0.2946
  755MOL0     H 1890  11.493   6.482   3.701 -0.2941 -1.2811  0.7763
  755MOL0     H 1891  11.579   6.710   3.646  1.8067  0.6800 -1.6542
  755MOL0     H 1892  11.659   6.717   3.804 -1.8543  0.5227  0.0313
  755MOL0     H 1893  11.736   6.522   3.576  1.7495 -1.1049 -0.5515
  755MOL0     H 1894  11.787   6.690   3.562 -1.6893  0.7394 -0.5188
  755MOL0     H 1895  11.859   6.492   3.788  1.0896 -0.1478  0.1889
  755MOL0     H 1896  11.910   6.658   3.794  2.1276 -0.8585  0.1374
  755MOL0     H 1897  12.007   6.442   3.604  0.0450  1.1080 -0.9637
  755MOL0     H 1898  12.089   6.523   3.739  1.2410  2.0283 -0.1035
  755MOL0     H 1899  12.020   6.659   3.473  0.0758 -0.8042 -0.8546
  755MOL0     H 1900  12.106   6.731   3.606  0.1061  0.2207 -0.0695
  755MOL0     H 1901  12.194   6.483   3.446 -2.6715  0.8259 -0.4113
  755MOL0     H 1902  12.288   6.552   3.579 -1.7938 -1.5274  0.9866
  755MOL0     H 1903  12.352   6.637   3.319  1.2362  2.8816 -0.8139
  755MOL0     H 1904  12.194   6.696   3.320  1.1135 -1.0355 -0.9611
  755MOL0     H 1905  11.467   6.377   4.077 -0.7422 -0.3949  0.6527
  755MOL0     H 1906  11.322   6.190   4.075  0.6019  0.1803  0.5326
  755MOL0     H 1907  11.137   5.894   3.903 -1.6091  1.3146 -1.5687
  755MOL0     H 1908  11.051   5.676   3.911  1.3228  2.7358 -1.8405
  755MOL0     H 1909   9.560   5.376   3.019 -0.1058  4.0140 -1.5998
  755MOL0     H 1910   9.322   5.440   2.959 -0.0850 -0.7607  0.6498
  755MOL0     H 1911   8.938   5.545   2.977 -2.8875 -0.9222 -2.9104
  755MOL0     H 1912   8.756   5.635   2.910  0.6231  2.0946 -2.4404
  755MOL0     H 1913   8.654   5.782   2.793 -0.6574  0.0078 -1.4353
  755MOL0     H 1914   8.588   5.940   2.780  3.6076  0.6254  0.9421
  755MOL0     H 1915   8.487   5.708   2.946 -1.1007 -1.6881 -1.1168
  755MOL0     H 1916   8.414   5.756   2.799 -1.5379  0.0861  2.2200
  755MOL0     H 1917   8.353   5.977   2.858  1.2021 -0.6554 -1.0584
  755MOL0     H 1918   8.423   5.966   3.019  0.0607 -0.3558  0.5985
  755MOL0     H 1919   8.175   5.809   2.912 -0.6197 -1.2481  0.5682
  755MOL0     H 1920   8.253   5.780   3.070 -1.4796 -2.6344 -1.8035
  755MOL0     H 1921   8.019   6.140   3.108  0.5815 -0.0918  1.8986
  755MOL0     H 1922   8.788   5.972   3.173  2.6958  2.0209 -2.6679
  755MOL0     H 1923   8.954   5.996   3.319  1.8626  1.5490 -0.8278
  755MOL0     H 1924   9.043   5.846   3.381 -0.9384 -1.1981 -1.6445
  755MOL0     H 1925   9.109   5.951   3.254  1.3673 -0.8382 -0.6457
  756MOL0     O 1926   7.537   8.134   9.979 -0.1520  0.2721  0.0300
  756MOL0     C 1927   7.484   8.234  10.030  0.8624 -0.0947  0.1162
  756MOL0     O 1928   7.524   8.304  10.134  0.0594 -0.0248  0.3637
  756MOL0     C 1929   7.642   8.277  10.204 -1.0120  0.5470  0.2057
  756MOL0     C 1930   7.641   8.282  10.347  2.0575  0.0118 -0.0251
  756MOL0     C 1931   7.754   8.290  10.422  0.4504  0.6869  0.3272
  756MOL0     C 1932   7.876   8.277  10.357 -0.4332  0.0618 -0.1425
  756MOL0     O 1933   7.999   8.284  10.424  0.5000  0.0287 -0.1313
  756MOL0     C 1934   8.023   8.215  10.552  0.8066  0.0654 -0.3873
  756MOL0     C 1935   8.150   8.258  10.625 -0.8535  0.9674  0.2796
  756MOL0     C 1936   8.276   8.217  10.546  0.4786  0.0808 -0.7706
  756MOL0     C 1937   8.288   8.075  10.502 -0.0659  0.4438  0.0495
  756MOL0     C 1938   8.424   8.023  10.468  1.1518 -0.4014 -0.7432
  756MOL0     C 1939   8.427   7.881  10.418 -0.0394  0.7805 -0.0178
  756MOL0     C 1940   8.561   7.836  10.359 -0.5928 -0.1665 -0.1681
  756MOL0     C 1941   8.549   7.707  10.272  0.0155 -0.8453  0.5723
  756MOL0     N 1942   8.684   7.655  10.244  0.0124 -0.5348  0.5336
  756MOL0     C 1943   8.782   7.723  10.188 -0.1036 -0.5611  0.3513
  756MOL0     C 1944   8.891   7.650  10.199 -0.4278  0.3177 -0.2268
  756MOL0     C 1945   9.022   7.689  10.129  0.1885  0.5074  0.0763
  756MOL0     C 1946   9.084   7.576  10.063 -0.5978  0.8783  0.4921
  756MOL0     C 1947   9.179   7.604   9.939 -0.3602 -0.1119 -0.7835
  756MOL0     C 1948   9.304   7.686   9.961 -0.3334 -0.4369 -1.0634
  756MOL0     O 1949   9.377   7.675   9.844  0.3560  0.3101  0.2309
  756MOL0     C 1950   9.505   7.686   9.850 -0.4508 -0.2310  0.0652
  756MOL0     C 1951   9.573   7.709   9.727 -0.3809  0.1954 -0.1451
  756MOL0     C 1952   9.711   7.715   9.720 -0.3520  0.5279 -0.0271
  756MOL0     C 1953   9.785   7.688   9.832  0.3096 -0.0563 -0.7132
  756MOL0     C 1954   9.933   7.673   9.819  0.3805  0.3289  0.2533
  756MOL0     O 1955  10.010   7.694   9.924 -0.5060  0.0174 -0.3895
  756MOL0     C 1956  10.141   7.649   9.938 -0.0865  0.9070  0.6398
  756MOL0     C 1957  10.166   7.513   9.974  0.1195  0.0211  0.5428
  756MOL0     C 1958  10.298   7.475   9.976 -0.0931 -0.3629 -0.5365
  756MOL0     C 1959  10.412   7.558   9.971  0.5316 -0.5145  0.2592
  756MOL0     O 1960  10.543   7.517   9.997 -0.4869 -0.3296 -0.2482
  756MOL0     C 1961  10.587   7.424   9.899 -0.1673 -0.4786  0.6238
  756MOL0     C 1962  10.633   7.485   9.758 -0.0944  0.5828  0.8046
  756MOL0     C 1963  10.706   7.378   9.679 -0.3109 -0.0765  0.2503
  756MOL0     C 1964  10.855   7.406   9.653  0.3496  0.1389 -0.7724
  756MOL0     C 1965  10.938   7.299   9.583  0.7745  0.1057  1.0266
  756MOL0     C 1966  11.075   7.359   9.557 -0.4091  0.4711  0.1557
  756MOL0     C 1967  11.164   7.255   9.478 -0.0558 -0.3300  0.0591
  756MOL0     C 1968  11.309   7.299   9.475 -0.1057 -0.1858  0.3971
  756MOL0    Cl 1969  11.387   7.191   9.354 -0.1438  0.1225 -0.1583
  756MOL0     C 1970  10.383   7.699   9.952  0.3926  0.4833 -0.0539
  756MOL0     C 1971  10.246   7.740   9.941 -0.2207 -0.1706 -0.0225
  756MOL0     O 1972   9.983   7.665   9.710  0.0190  0.4295 -0.2642
  756MOL0     C 1973   9.717   7.663   9.950 -0.4426 -1.0992 -0.5545
  756MOL0     C 1974   9.583   7.659   9.962 -0.3478  0.5115 -0.3060
  756MOL0     N 1975   8.855   7.527  10.244  1.2472  0.6415 -0.2287
  756MOL0     N 1976   8.738   7.538  10.285  0.6755  0.1740  0.2002
  756MOL0     C 1977   7.883   8.253  10.225  0.5143  0.7616  0.7983
  756MOL0     C 1978   7.765   8.256  10.141  0.4603 -0.4073 -0.4842
  756MOL0     C 1979   7.347   8.276   9.970  0.6819 -0.1884 -0.4598
  756MOL0     C 1980   7.309   8.411   9.987  0.2371 -0.9687 -0.6345
  756MOL0     C 1981   7.183   8.465   9.972  0.2104 -0.0803 -0.1049
  756MOL0     C 1982   7.096   8.387   9.905 -0.0100 -0.2101 -0.1709
  756MOL0     O 1983   6.971   8.451   9.872 -0.1965  0.4152  0.4313
  756MOL0     C 1984   6.849   8.368   9.853 -0.7906  0.1442 -0.9505
  756MOL0     C 1985   6.805   8.297   9.986  0.2267  0.3481 -0.4808
  756MOL0     C 1986   6.661   8.246  10.005  0.9525 -0.1945  0.2632
  756MOL0     C 1987   6.545   8.349  10.005 -0.5999  0.2831 -1.0850
  756MOL0     C 1988   6.409   8.292  10.024 -0.0035 -1.5708  0.0661
  756MOL0     C 1989   6.293   8.266  10.060 -0.0533  0.2950  0.5040
  756MOL0     C 1990   7.134   8.252   9.869  0.0146 -0.1042  0.6592
  756MOL0     C 1991   7.263   8.194   9.903 -0.6302 -0.3859  0.5115
  756MOL0     C 1992   7.292   8.053   9.864  0.1348  0.2498  0.2707
  756MOL0     H 1993   7.547   8.291  10.400  1.3127  0.1680 -1.3486
  756MOL0     H 1994   7.756   8.310  10.528  4.0315 -0.5061  0.6108
  756MOL0     H 1995   7.940   8.245  10.616  2.2820  1.1632  1.0622
  756MOL0     H 1996   8.024   8.107  10.534 -3.8468 -0.3348  0.5294
  756MOL0     H 1997   8.139   8.211  10.723  0.8329  2.0572  1.0387
  756MOL0     H 1998   8.150   8.367  10.633 -3.4784  1.0314  0.2155
  756MOL0     H 1999   8.347   8.229  10.628 -0.7680 -3.4060  1.0323
  756MOL0     H 2000   8.296   8.288  10.465  1.0869  1.5921  0.6561
  756MOL0     H 2001   8.251   8.011  10.583 -0.3460 -0.3766 -0.7105
  756MOL0     H 2002   8.225   8.045  10.418 -0.7338  1.9806 -0.0314
  756MOL0     H 2003   8.452   8.097  10.393  2.1043  0.6233  0.5661
  756MOL0     H 2004   8.500   8.048  10.543  1.9658  0.4467 -1.8093
  756MOL0     H 2005   8.402   7.829  10.511 -0.6917  1.7765  0.3793
  756MOL0     H 2006   8.351   7.851  10.346  1.4838 -0.7273 -1.0613
  756MOL0     H 2007   8.627   7.819  10.445  0.1592 -1.2490 -0.9284
  756MOL0     H 2008   8.610   7.918  10.306  1.8104  1.3483  3.8982
  756MOL0     H 2009   8.484   7.633  10.320 -0.7938  0.1737  1.0942
  756MOL0     H 2010   8.499   7.745  10.183  0.6725  1.7392  1.2407
  756MOL0     H 2011   8.770   7.816  10.132 -0.6392 -2.4691 -2.9718
  756MOL0     H 2012   9.001   7.759  10.047  3.8733  2.3925  0.5189
  756MOL0     H 2013   9.093   7.736  10.198  0.7662 -3.0218  2.1343
  756MOL0     H 2014   9.133   7.512  10.136 -1.2511  1.7802  1.7515
  756MOL0     H 2015   9.006   7.519  10.012 -0.4064  1.4748 -0.4922
  756MOL0     H 2016   9.118   7.662   9.869 -1.9504 -0.9026 -0.0911
  756MOL0     H 2017   9.201   7.508   9.892  1.3171 -1.8045  3.0454
  756MOL0     H 2018   9.352   7.657  10.055  0.0336  0.9247 -0.7961
  756MOL0     H 2019   9.265   7.787   9.976  2.2518  1.0093 -3.1868
  756MOL0     H 2020   9.522   7.744   9.638 -0.0389  0.1221 -0.3760
  756MOL0     H 2021   9.772   7.726   9.631  1.3232 -4.3383  0.2222
  756MOL0     H 2022  10.083   7.452  10.007  0.0906  1.4640  3.4521
  756MOL0     H 2023  10.316   7.370   9.996  1.0849  0.0391  0.7708
  756MOL0     H 2024  10.672   7.374   9.945  0.3859 -0.9725 -0.8910
  756MOL0     H 2025  10.519   7.339   9.885 -0.7711  0.0018  0.6114
  756MOL0     H 2026  10.537   7.508   9.712 -0.2451 -0.6100  0.4903
  756MOL0     H 2027  10.683   7.582   9.767 -3.0822  2.0750  3.3297
  756MOL0     H 2028  10.684   7.284   9.730 -1.5480 -0.0551 -0.2143
  756MOL0     H 2029  10.657   7.369   9.581 -1.1998  0.2208  0.6641
  756MOL0     H 2030  10.896   7.421   9.754 -1.3384 -0.9767  0.1223
  756MOL0     H 2031  10.868   7.495   9.592  0.7274 -2.4390 -4.7857
  756MOL0     H 2032  10.885   7.276   9.490  3.3676  1.6152 -0.9875
  756MOL0     H 2033  10.953   7.206   9.639  0.3480 -1.4086 -1.2104
  756MOL0     H 2034  11.058   7.447   9.494  1.8910 -0.4284 -1.8634
  756MOL0     H 2035  11.131   7.384   9.648  2.0942  1.7007 -1.6115
  756MOL0     H 2036  11.122   7.243   9.378 -1.7479  1.1724  0.5286
  756MOL0     H 2037  11.153   7.160   9.530 -1.2891 -0.7922 -0.9976
  756MOL0     H 2038  11.324   7.403   9.447 -1.9436  0.2654  0.9162
  756MOL0     H 2039  11.356   7.295   9.574  1.3754  0.8756 -0.2340
  756MOL0     H 2040  10.472   7.758   9.932  1.3423 -1.2479 -1.2032
  756MOL0     H 2041  10.219   7.844   9.920  1.6522 -0.2052 -3.2367
  756MOL0     H 2042   9.764   7.637  10.044 -3.7910  2.1558  2.3448
  756MOL0     H 2043   9.540   7.628  10.057 -2.3910  0.6742 -1.1316
  756MOL0     H 2044   7.977   8.229  10.176  1.7207 -0.5257  3.5302
  756MOL0     H 2045   7.756   8.244  10.034 -0.2786  1.2164 -0.6403
  756MOL0     H 2046   7.380   8.473  10.041 -1.8748 -0.4830  1.8010
  756MOL0     H 2047   7.164   8.565  10.011 -3.9531  0.2223 -2.3148
  756MOL0     H 2048   6.861   8.294   9.773 -1.7200 -0.3172 -0.6737
  756MOL0     H 2049   6.770   8.429   9.808 -1.4220 -0.9161 -1.3125
  756MOL0     H 2050   6.818   8.366  10.069  1.4846  0.4201 -0.7173
  756MOL0     H 2051   6.868   8.209  10.003  0.6401  0.6982 -0.1805
  756MOL0     H 2052   6.653   8.192  10.100 -0.8869 -1.1388 -0.3872
  756MOL0     H 2053   6.637   8.158   9.945 -0.9526  0.3810  0.1212
  756MOL0     H 2054   6.564   8.415  10.090  0.0191 -0.6003 -0.5275
  756MOL0     H 2055   6.549   8.414   9.916  2.2255  3.1850  0.9316
  756MOL0     H 2056   6.188   8.253  10.077  0.3604 -0.1722  3.1508
  756MOL0     H 2057   7.048   8.203   9.825 -0.3377 -0.3950  1.6488
  756MOL0     H 2058   7.326   7.999   9.953 -0.6891 -0.2386  0.2989
  756MOL0     H 2059   7.205   8.009   9.815 -0.7081  0.4149  1.5670
  756MOL0     H 2060   7.362   8.042   9.781 -0.6347 -0.6968 -0.2801
  757MOL0     O 2061   4.489  10.998   2.232  0.1201 -0.4763 -0.1380
  757MOL0     C 2062   4.509  10.970   2.111 -0.8897 -0.7483  0.0096
  757MOL0     O 2063   4.636  10.945   2.052  0.0407  0.3166 -0.1618
  757MOL0     C 2064   4.739  10.920   2.137  0.4979 -0.1212  0.4153
  757MOL0     C 2065   4.798  10.793   2.155 -0.1126  1.1155 -0.4628
  757MOL0     C 2066   4.908  10.776   2.247  0.6425  1.1248  0.3215
  757MOL0     C 2067   4.973  10.884   2.312  0.3670 -0.1769  0.0731
  757MOL0     O 2068   5.086  10.880   2.384 -0.1538  0.3501 -0.3106
  757MOL0     C 2069   5.156  10.754   2.385 -0.2376  0.0815  0.5208
  757MOL0     C 2070   5.272  10.758   2.476  0.6572 -1.2289 -0.2784
  757MOL0     C 2071   5.343  10.623   2.488 -0.5484 -0.1908 -0.6027
  757MOL0     C 2072   5.451  10.638   2.605  0.6051  0.6359  0.4565
  757MOL0     C 2073   5.529  10.508   2.632 -0.0467  0.3393  0.8402
  757MOL0     C 2074   5.640  10.483   2.532 -0.3247  0.2176  0.3857
  757MOL0     C 2075   5.717  10.349   2.559  0.0413  0.1678 -0.0943
  757MOL0     C 2076   5.843  10.324   2.476 -0.0074  0.3991  0.0181
  757MOL0     N 2077   5.893  10.186   2.487  0.2130 -0.0507  0.0610
  757MOL0     C 2078   6.022  10.152   2.508 -0.0339  0.0923  0.5021
  757MOL0     C 2079   6.035  10.017   2.511 -0.1518  0.6324  0.2153
  757MOL0     C 2080   6.148   9.929   2.557  0.7001 -0.6473  0.5701
  757MOL0     C 2081   6.184   9.830   2.442 -0.4521 -0.5261  0.3708
  757MOL0     C 2082   6.272   9.723   2.499  0.0694  0.8970  0.2281
  757MOL0     C 2083   6.419   9.771   2.495 -0.7045 -0.6992 -0.5733
  757MOL0     O 2084   6.494   9.645   2.510 -0.3967  0.1766 -0.2958
  757MOL0     C 2085   6.626   9.652   2.548  0.6221 -0.5784 -0.0944
  757MOL0     C 2086   6.690   9.531   2.582 -0.3046 -0.7564 -0.5099
  757MOL0     C 2087   6.821   9.529   2.620  0.1352  0.2622 -0.3283
  757MOL0     C 2088   6.901   9.646   2.615 -0.3201  0.6157  1.4522
  757MOL0     C 2089   7.045   9.641   2.654  0.5068  0.5370 -0.1188
  757MOL0     O 2090   7.085   9.544   2.737  0.0978 -0.6035  0.1074
  757MOL0     C 2091   7.221   9.535   2.772  0.1228 -0.6042  0.3322
  757MOL0     C 2092   7.280   9.599   2.884 -0.7113  0.1053 -0.3983
  757MOL0     C 2093   7.417   9.584   2.906 -0.3971  0.0425  0.1109
  757MOL0     C 2094   7.500   9.518   2.812  0.1453  1.1563 -0.9982
  757MOL0     O 2095   7.638   9.534   2.821 -0.3152  1.0963  0.4121
  757MOL0     C 2096   7.698   9.511   2.952 -0.6319  0.3097 -0.0562
  757MOL0     C 2097   7.855   9.498   2.958  0.7259  0.6216 -0.7962
  757MOL0     C 2098   7.893   9.362   2.906 -0.4337  1.2671  0.0083
  757MOL0     C 2099   8.036   9.341   2.870  0.9626  0.2060 -0.6917
  757MOL0     C 2100   8.129   9.318   2.996  0.3987  0.8252  0.8035
  757MOL0     C 2101   8.268   9.294   2.952 -0.1482 -0.0683  0.7318
  757MOL0     C 2102   8.361   9.237   3.065 -0.4491  0.5503  0.3094
  757MOL0     C 2103   8.508   9.228   3.020 -0.1589  0.1143  1.3790
  757MOL0    Cl 2104   8.539   9.097   2.910  0.2043  0.0258  0.2334
  757MOL0     C 2105   7.439   9.471   2.700  0.1408  0.2117  1.3834
  757MOL0     C 2106   7.307   9.480   2.674  0.7904  0.2765 -0.5246
  757MOL0     O 2107   7.114   9.728   2.601  0.0203  0.1846  0.6294
  757MOL0     C 2108   6.837   9.767   2.594  0.4681 -0.2435  0.3270
  757MOL0     C 2109   6.700   9.769   2.560 -0.5654 -0.4792  0.8607
  757MOL0     N 2110   5.912   9.970   2.473 -0.0875  0.5651 -0.0190
  757MOL0     N 2111   5.830  10.070   2.459  0.1985  0.2254  0.1787
  757MOL0     C 2112   4.913  11.013   2.285 -0.1764  0.4467  0.4927
  757MOL0     C 2113   4.799  11.031   2.203  0.3140  1.3019 -0.1743
  757MOL0     C 2114   4.382  10.989   2.031  0.1181 -0.1070 -0.2354
  757MOL0     C 2115   4.267  11.050   2.088  0.1770 -0.1591 -0.1708
  757MOL0     C 2116   4.150  11.046   2.024  0.9969  1.3345 -1.2156
  757MOL0     C 2117   4.129  10.986   1.900 -0.9632 -0.5876 -0.0696
  757MOL0     O 2118   4.005  10.992   1.826 -0.3893  0.6681  0.6319
  757MOL0     C 2119   3.893  11.061   1.871  0.6496  0.2762  0.1782
  757MOL0     C 2120   3.772  11.052   1.780  0.8895 -0.1517  0.1379
  757MOL0     C 2121   3.821  11.097   1.642 -0.3619  1.2518 -0.1856
  757MOL0     C 2122   3.704  11.094   1.532 -0.4771  0.1023 -0.0544
  757MOL0     C 2123   3.688  10.962   1.476 -0.4697 -1.0789  0.4108
  757MOL0     C 2124   3.671  10.858   1.413  0.0496  0.3274  0.1677
  757MOL0     C 2125   4.248  10.932   1.845 -0.4469 -0.0390  0.2384
  757MOL0     C 2126   4.377  10.932   1.899  0.9214  0.5577  0.8278
  757MOL0     C 2127   4.486  10.863   1.824  0.5317  0.1236 -0.0870
  757MOL0     H 2128   4.761  10.713   2.092 -0.0584  0.5071  0.2766
  757MOL0     H 2129   4.946  10.674   2.249  0.1949  0.9549  2.3275
  757MOL0     H 2130   5.092  10.673   2.421  0.6412 -0.4125  0.9943
  757MOL0     H 2131   5.192  10.736   2.284  0.4174 -2.3278  1.1228
  757MOL0     H 2132   5.230  10.768   2.577 -1.2109  1.0939 -1.1796
  757MOL0     H 2133   5.339  10.840   2.451 -0.4044  0.4413  1.9443
  757MOL0     H 2134   5.385  10.598   2.391 -0.0642  0.1059 -0.4744
  757MOL0     H 2135   5.267  10.550   2.519 -0.0716 -0.8556 -0.9853
  757MOL0     H 2136   5.523  10.715   2.576 -0.6352  2.2415  1.4114
  757MOL0     H 2137   5.398  10.664   2.697 -0.9366 -2.5367  0.5953
  757MOL0     H 2138   5.568  10.524   2.733 -1.1789  1.0497  1.1887
  757MOL0     H 2139   5.462  10.421   2.635 -2.3892  1.9485 -1.0664
  757MOL0     H 2140   5.594  10.476   2.433 -1.4532 -2.1277  1.0118
  757MOL0     H 2141   5.709  10.568   2.530  1.0189 -0.8279  0.9321
  757MOL0     H 2142   5.649  10.263   2.558  0.9740 -0.5830 -1.2381
  757MOL0     H 2143   5.763  10.362   2.658 -0.5037  0.5741  0.1066
  757MOL0     H 2144   5.809  10.349   2.375  0.6661 -1.3751 -0.6915
  757MOL0     H 2145   5.925  10.389   2.507  0.2570  0.0465  0.0592
  757MOL0     H 2146   6.103  10.218   2.537 -1.2785  1.1429  1.7931
  757MOL0     H 2147   6.235   9.989   2.587 -1.0730  0.8553  3.0384
  757MOL0     H 2148   6.111   9.873   2.643  2.2120 -2.2556  0.2303
  757MOL0     H 2149   6.090   9.786   2.409  0.0211  0.3252 -2.3369
  757MOL0     H 2150   6.230   9.877   2.354  0.3139  2.2013  2.0964
  757MOL0     H 2151   6.263   9.643   2.425 -1.6608  1.2283  0.0291
  757MOL0     H 2152   6.235   9.692   2.598  0.0967 -0.3824 -0.1533
  757MOL0     H 2153   6.430   9.844   2.576 -1.7461  0.6660 -1.6362
  757MOL0     H 2154   6.449   9.815   2.400  1.2111 -0.2930  0.1530
  757MOL0     H 2155   6.645   9.432   2.576 -0.3796 -0.7145 -0.6538
  757MOL0     H 2156   6.863   9.429   2.628  1.1779  0.6956 -0.1007
  757MOL0     H 2157   7.223   9.661   2.953 -3.6237 -2.9446  0.1948
  757MOL0     H 2158   7.462   9.633   2.991  1.1000 -1.2961  0.1275
  757MOL0     H 2159   7.684   9.606   3.006  0.2526 -0.2312  1.1649
  757MOL0     H 2160   7.649   9.426   2.999 -1.0325  0.1831 -0.6847
  757MOL0     H 2161   7.905   9.574   2.897  1.1644 -0.0316 -1.2631
  757MOL0     H 2162   7.888   9.497   3.062 -0.1461  1.7175 -0.4864
  757MOL0     H 2163   7.864   9.289   2.982 -0.1288 -1.2386 -2.1327
  757MOL0     H 2164   7.834   9.342   2.817  0.9872  1.7795 -1.0936
  757MOL0     H 2165   8.073   9.427   2.812  0.1708  2.5407  2.0294
  757MOL0     H 2166   8.045   9.257   2.800 -1.5580 -0.5816 -0.1934
  757MOL0     H 2167   8.095   9.228   3.049  1.7503 -0.0201  0.2877
  757MOL0     H 2168   8.130   9.405   3.063  2.7522  1.2378  0.3115
  757MOL0     H 2169   8.260   9.226   2.867 -3.4345  0.8259  0.1859
  757MOL0     H 2170   8.306   9.390   2.914 -1.7671  0.1042 -0.5422
  757MOL0     H 2171   8.328   9.139   3.102 -0.9904  0.9981  1.0473
  757MOL0     H 2172   8.345   9.296   3.155 -3.6592 -0.1276  0.3367
  757MOL0     H 2173   8.552   9.317   2.974 -0.5552 -1.1857 -1.8117
  757MOL0     H 2174   8.562   9.200   3.111  1.4598 -1.5861 -0.0265
  757MOL0     H 2175   7.506   9.420   2.632 -0.5601  1.1797 -0.0820
  757MOL0     H 2176   7.263   9.431   2.587  1.2567 -0.7531 -0.1985
  757MOL0     H 2177   6.886   9.864   2.581  0.9418 -0.8236 -3.1675
  757MOL0     H 2178   6.653   9.862   2.530  0.9752  0.0304 -0.0875
  757MOL0     H 2179   4.945  11.101   2.340 -0.7623  1.5921 -0.9073
  757MOL0     H 2180   4.756  11.127   2.182  2.0694  2.4776  1.2362
  757MOL0     H 2181   4.278  11.091   2.188  0.0167 -2.4817  0.8606
  757MOL0     H 2182   4.066  11.096   2.072  1.7475  2.8140 -1.3833
  757MOL0     H 2183   3.919  11.162   1.905  0.4367 -0.5090  2.9466
  757MOL0     H 2184   3.868  11.017   1.968  1.0611  0.0844  0.1969
  757MOL0     H 2185   3.691  11.109   1.826  0.4959  0.1551 -0.9228
  757MOL0     H 2186   3.739  10.949   1.768 -0.2635  0.2656 -0.3795
  757MOL0     H 2187   3.893  11.025   1.604 -1.2600 -0.0388  0.4746
  757MOL0     H 2188   3.861  11.199   1.643 -0.2477  1.2527 -2.0073
  757MOL0     H 2189   3.609  11.120   1.580 -0.6733  0.4142 -0.6048
  757MOL0     H 2190   3.726  11.175   1.461 -4.7465  1.1663 -0.4410
  757MOL0     H 2191   3.653  10.772   1.352 -0.4122 -0.0561  0.8429
  757MOL0     H 2192   4.236  10.880   1.750 -0.0993  1.2354 -0.5258
  757MOL0     H 2193   4.561  10.939   1.802 -0.2047  1.0525  0.5693
  757MOL0     H 2194   4.528  10.786   1.889 -0.8516  0.9733  1.8811
  757MOL0     H 2195   4.443  10.807   1.740 -1.6198  1.1911  0.2503
  758MOL0     O 2196   2.012   8.382   5.451  0.0668 -0.1394  0.3798
  758MOL0     C 2197   1.931   8.399   5.354 -1.1080  0.0314  0.0922
  758MOL0     O 2198   1.969   8.439   5.231  0.3535 -0.1718 -0.5013
  758MOL0     C 2199   2.079   8.522   5.208  0.0309  0.4566  0.3469
  758MOL0     C 2200   2.156   8.503   5.088 -0.8396 -0.3117 -0.5420
  758MOL0     C 2201   2.273   8.578   5.075  0.1602 -0.4476  0.3064
  758MOL0     C 2202   2.321   8.673   5.160 -0.0588 -0.3571  0.0014
  758MOL0     O 2203   2.438   8.727   5.128  0.2752 -0.2673 -0.7405
  758MOL0     C 2204   2.500   8.791   5.237  0.3748 -0.6290 -0.3422
  758MOL0     C 2205   2.636   8.840   5.212 -0.3187  0.1988 -0.1168
  758MOL0     C 2206   2.741   8.731   5.176  0.6316  0.2370 -0.0116
  758MOL0     C 2207   2.867   8.789   5.109 -0.1873  0.6090  0.5506
  758MOL0     C 2208   2.974   8.677   5.095 -0.5300 -0.2220  0.2278
  758MOL0     C 2209   3.114   8.734   5.081  0.1231  0.1050  0.1424
  758MOL0     C 2210   3.217   8.629   5.052 -0.6739  0.2745 -0.3003
  758MOL0     C 2211   3.357   8.688   5.038  0.4663  0.5933  0.5728
  758MOL0     N 2212   3.431   8.704   5.159 -0.5550 -0.4290  0.2885
  758MOL0     C 2213   3.500   8.601   5.221  0.6147 -1.2359  1.0131
  758MOL0     C 2214   3.551   8.665   5.332  0.6137  0.1454  0.8047
  758MOL0     C 2215   3.647   8.604   5.425 -0.0628  0.3604 -1.2933
  758MOL0     C 2216   3.761   8.703   5.460 -0.7394 -0.1311  0.0326
  758MOL0     C 2217   3.855   8.734   5.341 -0.6182 -0.5263 -0.5467
  758MOL0     C 2218   3.985   8.805   5.388  0.3574 -0.3618  0.4184
  758MOL0     O 2219   4.081   8.702   5.413 -0.1641  0.0491 -0.0595
  758MOL0     C 2220   4.217   8.736   5.397  0.3133 -0.0083 -0.7418
  758MOL0     C 2221   4.307   8.641   5.431  0.1291 -0.5381 -0.3109
  758MOL0     C 2222   4.443   8.656   5.427  0.0067 -1.1703  0.7883
  758MOL0     C 2223   4.510   8.771   5.374 -0.6595  0.0217  0.0032
  758MOL0     C 2224   4.656   8.781   5.362 -0.1919 -0.1293 -0.5379
  758MOL0     O 2225   4.700   8.872   5.272  0.2266  0.5592 -0.6093
  758MOL0     C 2226   4.838   8.897   5.290  0.1299 -0.7676  0.5570
  758MOL0     C 2227   4.893   8.939   5.412 -0.0483  0.9090 -0.2914
  758MOL0     C 2228   5.034   8.948   5.439  0.3954 -0.5735  0.1436
  758MOL0     C 2229   5.123   8.920   5.335  0.3324 -0.0517 -0.0299
  758MOL0     O 2230   5.258   8.922   5.345 -0.2316 -0.6742  0.3682
  758MOL0     C 2231   5.319   8.980   5.462 -0.3872  0.7450 -0.2201
  758MOL0     C 2232   5.324   9.125   5.435  0.5802  0.0219 -0.8101
  758MOL0     C 2233   5.384   9.215   5.549 -0.5257 -0.2508 -0.0130
  758MOL0     C 2234   5.518   9.164   5.607  0.6182 -0.1009 -0.3533
  758MOL0     C 2235   5.582   9.260   5.713 -0.2445 -0.0082 -0.0535
  758MOL0     C 2236   5.695   9.193   5.792 -0.2630  0.0943  0.9769
  758MOL0     C 2237   5.782   9.273   5.877 -0.7314 -0.8442 -0.2283
  758MOL0     C 2238   5.884   9.198   5.972 -0.6916  0.3039 -0.4035
  758MOL0    Cl 2239   5.807   9.096   6.082  0.0807  0.0284  0.4934
  758MOL0     C 2240   5.077   8.881   5.213  0.0418  0.4107  0.0657
  758MOL0     C 2241   4.938   8.875   5.185  0.3769  0.2847  0.5544
  758MOL0     O 2242   4.729   8.709   5.432  0.3815 -0.5560 -0.3700
  758MOL0     C 2243   4.420   8.871   5.330  0.2088  0.3011 -0.3598
  758MOL0     C 2244   4.279   8.854   5.346 -0.2661 -0.2667  0.3361
  758MOL0     N 2245   3.512   8.799   5.336  0.2113  0.3732 -0.2312
  758MOL0     N 2246   3.445   8.820   5.233  0.7129 -0.4800  0.2581
  758MOL0     C 2247   2.245   8.696   5.278 -0.4923 -0.1372  0.1775
  758MOL0     C 2248   2.127   8.623   5.305 -0.5323  0.4371  0.7940
  758MOL0     C 2249   1.783   8.362   5.367 -0.5474 -0.0093  0.6370
  758MOL0     C 2250   1.695   8.383   5.262  0.2719  0.8555 -0.4252
  758MOL0     C 2251   1.563   8.332   5.265 -0.4853 -0.1149 -0.3781
  758MOL0     C 2252   1.507   8.271   5.379 -0.3297 -0.0253 -0.4897
  758MOL0     O 2253   1.375   8.239   5.378  0.1273  0.3168 -0.1689
  758MOL0     C 2254   1.322   8.194   5.509 -0.2823  0.1828 -0.3275
  758MOL0     C 2255   1.167   8.202   5.515  0.3003  0.0419  0.1692
  758MOL0     C 2256   1.104   8.100   5.431  0.4322  0.1824  0.3000
  758MOL0     C 2257   0.962   8.069   5.481  0.1016 -0.3897 -0.5893
  758MOL0     C 2258   0.900   7.999   5.373  0.3853  0.8876  0.9144
  758MOL0     C 2259   0.870   7.932   5.279  0.0077  0.0116  0.6937
  758MOL0     C 2260   1.594   8.239   5.487 -0.6791 -0.2803  0.3031
  758MOL0     C 2261   1.729   8.293   5.480  0.0121  0.4186 -0.5481
  758MOL0     C 2262   1.810   8.267   5.603  0.1700  1.1214 -0.3723
  758MOL0     H 2263   2.124   8.431   5.014  2.4685 -1.1638 -1.3137
  758MOL0     H 2264   2.330   8.568   4.983 -0.8985  3.4098 -0.9442
  758MOL0     H 2265   2.438   8.879   5.253 -0.1971 -0.9006 -1.0275
  758MOL0     H 2266   2.496   8.738   5.333  0.7024  0.2171  0.1565
  758MOL0     H 2267   2.673   8.890   5.302  0.5879 -0.3488 -0.1682
  758MOL0     H 2268   2.628   8.915   5.132  0.0582  1.3221  0.8724
  758MOL0     H 2269   2.699   8.652   5.113 -0.3582  0.1894  0.6875
  758MOL0     H 2270   2.776   8.674   5.263 -1.0899 -0.8229  0.0186
  758MOL0     H 2271   2.848   8.821   5.006 -1.3936 -0.1376  0.5283
  758MOL0     H 2272   2.893   8.868   5.180  0.9452 -1.0303  2.0535
  758MOL0     H 2273   2.978   8.616   5.185  3.3470  0.2692  0.5452
  758MOL0     H 2274   2.941   8.611   5.014  2.2841 -1.9163  0.3391
  758MOL0     H 2275   3.116   8.807   5.000  1.5641 -1.5661 -1.4283
  758MOL0     H 2276   3.139   8.791   5.170  3.4773  0.8771 -1.1476
  758MOL0     H 2277   3.183   8.579   4.960 -0.9434 -1.2274  0.5888
  758MOL0     H 2278   3.220   8.554   5.132  0.0258  0.8534  0.2226
  758MOL0     H 2279   3.405   8.619   4.969 -1.4290 -2.2838  1.8769
  758MOL0     H 2280   3.355   8.791   5.003 -0.2623  0.5273  0.3916
  758MOL0     H 2281   3.508   8.502   5.177  2.3351 -0.3987 -0.6740
  758MOL0     H 2282   3.593   8.570   5.514  1.5604 -1.6782 -1.0043
  758MOL0     H 2283   3.685   8.508   5.387  0.9250  0.4340 -0.5139
  758MOL0     H 2284   3.725   8.803   5.485  2.3391  1.3116 -0.8543
  758MOL0     H 2285   3.827   8.666   5.539  1.9883  1.5798 -1.2949
  758MOL0     H 2286   3.800   8.809   5.282 -1.7652 -1.2293 -0.4088
  758MOL0     H 2287   3.878   8.650   5.275  1.0928  0.4679 -1.2808
  758MOL0     H 2288   3.956   8.865   5.475 -2.1963  0.8986 -1.1766
  758MOL0     H 2289   4.021   8.876   5.313  2.9898  1.7589  3.4023
  758MOL0     H 2290   4.265   8.551   5.475  0.2998  0.2498  1.5477
  758MOL0     H 2291   4.506   8.574   5.460 -1.0465 -1.8135  1.2506
  758MOL0     H 2292   4.835   8.954   5.503 -1.3871 -0.2628 -0.9230
  758MOL0     H 2293   5.065   8.994   5.532  1.2718 -1.0494  0.0887
  758MOL0     H 2294   5.258   8.955   5.549 -1.7944  0.7132 -1.1852
  758MOL0     H 2295   5.420   8.943   5.482 -0.6531  1.6328  3.7538
  758MOL0     H 2296   5.388   9.142   5.348  1.6102 -3.4541 -0.8731
  758MOL0     H 2297   5.223   9.164   5.420  0.4312 -0.0825 -0.1160
  758MOL0     H 2298   5.381   9.314   5.502 -0.9276 -0.4639 -0.4471
  758MOL0     H 2299   5.309   9.223   5.628  0.5036 -1.1984  1.1056
  758MOL0     H 2300   5.586   9.133   5.527 -1.2662 -0.4468 -1.8928
  758MOL0     H 2301   5.495   9.072   5.662 -2.9204  1.5637  1.2649
  758MOL0     H 2302   5.505   9.294   5.783  0.1208 -0.0744  0.3851
  758MOL0     H 2303   5.622   9.349   5.663  1.0904  0.0487  1.0604
  758MOL0     H 2304   5.643   9.129   5.864  0.7421 -2.8157 -0.7063
  758MOL0     H 2305   5.753   9.128   5.726 -0.8487 -0.2892  0.8340
  758MOL0     H 2306   5.720   9.333   5.944 -1.3088  0.9238 -2.2450
  758MOL0     H 2307   5.841   9.345   5.820  2.0937 -2.0182  1.0773
  758MOL0     H 2308   5.951   9.145   5.904 -0.4327  1.5990 -1.2056
  758MOL0     H 2309   5.930   9.274   6.035  0.1058 -0.4321 -0.0828
  758MOL0     H 2310   5.143   8.852   5.132  0.8022  0.5332  0.6421
  758MOL0     H 2311   4.895   8.846   5.089 -0.3093  3.0754 -0.0534
  758MOL0     H 2312   4.455   8.952   5.268  2.0291  0.6234  1.0066
  758MOL0     H 2313   4.219   8.940   5.319 -0.3389  0.3003  2.1338
  758MOL0     H 2314   2.276   8.782   5.335 -0.2856  0.9315 -1.4835
  758MOL0     H 2315   2.077   8.651   5.397 -2.2005  1.6490 -0.4175
  758MOL0     H 2316   1.731   8.431   5.171 -1.4210 -1.0669 -2.2114
  758MOL0     H 2317   1.509   8.347   5.172 -0.0532  2.7347 -0.2557
  758MOL0     H 2318   1.349   8.267   5.586 -1.1869 -1.6974  1.8977
  758MOL0     H 2319   1.362   8.097   5.537 -2.2021 -0.4918  0.2200
  758MOL0     H 2320   1.127   8.298   5.479 -0.1276 -0.4917 -0.8002
  758MOL0     H 2321   1.144   8.201   5.623  0.1602  3.5719  0.3024
  758MOL0     H 2322   1.166   8.010   5.440  2.2724  1.5967  5.1256
  758MOL0     H 2323   1.098   8.127   5.325  1.4633 -2.4239 -0.5049
  758MOL0     H 2324   0.964   8.000   5.566 -1.8262  0.2242 -0.0017
  758MOL0     H 2325   0.906   8.149   5.530  0.4179 -1.6065  1.9146
  758MOL0     H 2326   0.841   7.871   5.196 -0.3274 -0.2586  1.0036
  758MOL0     H 2327   1.570   8.179   5.574  3.5739  0.3807  2.2131
  758MOL0     H 2328   1.892   8.199   5.580 -0.4344  0.2826 -0.0748
  758MOL0     H 2329   1.855   8.362   5.634 -0.0243  1.4882 -1.1725
  758MOL0     H 2330   1.754   8.225   5.687  2.3191 -1.4517 -0.1116
  759MOL0     O 2331   4.040   6.568   9.856 -0.0936 -0.3819  0.3193
  759MOL0     C 2332   3.969   6.500   9.926  0.1003  0.2028  0.7428
  759MOL0     O 2333   4.006   6.461  10.055  0.0170 -0.2731  0.7001
  759MOL0     C 2334   4.117   6.524  10.101  0.0199  0.0938 -0.6184
  759MOL0     C 2335   4.243   6.509  10.042 -0.2707 -0.0955  0.8984
  759MOL0     C 2336   4.350   6.586  10.091  0.3399  0.5336 -0.4880
  759MOL0     C 2337   4.334   6.657  10.209 -0.1239  0.5519 -0.0916
  759MOL0     O 2338   4.446   6.723  10.257 -0.2568  0.1811  0.3521
  759MOL0     C 2339   4.435   6.835  10.352  0.4540  0.1452 -0.2939
  759MOL0     C 2340   4.574   6.879  10.382  0.8692  0.2471 -0.6785
  759MOL0     C 2341   4.583   6.988  10.488 -0.1422 -0.0085 -0.9278
  759MOL0     C 2342   4.609   6.915  10.622  0.3286  0.3500 -0.3996
  759MOL0     C 2343   4.622   7.007  10.742 -0.7633 -0.5083  0.3890
  759MOL0     C 2344   4.497   7.097  10.764  0.1186  0.2694  0.5456
  759MOL0     C 2345   4.510   7.173  10.903 -0.1191  0.2352 -0.2420
  759MOL0     C 2346   4.359   7.199  10.954 -0.3342 -0.7853 -0.1279
  759MOL0     N 2347   4.366   7.240  11.098 -0.2201  0.4122  0.2531
  759MOL0     C 2348   4.447   7.349  11.139 -0.3805  0.3217 -1.7384
  759MOL0     C 2349   4.419   7.362  11.273  0.5264 -0.2910  0.6607
  759MOL0     C 2350   4.465   7.454  11.378 -0.9234  1.1248 -0.4550
  759MOL0     C 2351   4.617   7.487  11.364  0.0757 -0.4510 -0.5065
  759MOL0     C 2352   4.652   7.558  11.495 -0.0312 -0.0229  0.0089
  759MOL0     C 2353   4.808   7.541  11.512  0.5944 -0.0733 -1.4150
  759MOL0     O 2354   4.876   7.603  11.411  0.0272 -0.6549  0.1905
  759MOL0     C 2355   5.011   7.585  11.399  0.1502  0.1894  0.3697
  759MOL0     C 2356   5.091   7.522  11.499 -0.8048  0.3553  0.1802
  759MOL0     C 2357   5.224   7.483  11.470  0.1187 -0.3398 -0.1104
  759MOL0     C 2358   5.280   7.520  11.342 -0.0411  0.2355 -0.0951
  759MOL0     C 2359   5.422   7.494  11.310 -0.4763 -0.2964 -0.6839
  759MOL0     O 2360   5.494   7.573  11.220  0.3656  0.2522 -0.8419
  759MOL0     C 2361   5.627   7.554  11.203  0.2015 -0.3699 -0.3099
  759MOL0     C 2362   5.679   7.621  11.093 -0.3191  0.1107 -0.6356
  759MOL0     C 2363   5.818   7.612  11.064  0.2864 -0.1636  0.2830
  759MOL0     C 2364   5.898   7.528  11.151 -0.3526  1.0724  0.4268
  759MOL0     O 2365   6.033   7.494  11.130  0.3235  0.5462  0.2867
  759MOL0     C 2366   6.095   7.552  11.018 -0.0332 -0.5592 -0.1129
  759MOL0     C 2367   6.244   7.516  11.026  0.3022 -0.1882 -0.6885
  759MOL0     C 2368   6.324   7.535  10.890  0.5920  0.8123  0.9007
  759MOL0     C 2369   6.470   7.512  10.910 -0.5094 -0.6845  0.1021
  759MOL0     C 2370   6.521   7.476  10.769 -0.2615 -0.6932 -0.6004
  759MOL0     C 2371   6.663   7.506  10.733  0.4891  0.5436  0.8757
  759MOL0     C 2372   6.752   7.446  10.839 -0.6268  0.7449  0.5090
  759MOL0     C 2373   6.903   7.440  10.787 -0.0301  0.0055  0.1580
  759MOL0    Cl 2374   6.999   7.405  10.935  0.1049 -0.4201 -0.0913
  759MOL0     C 2375   5.840   7.466  11.264  0.1726 -0.0624 -0.0086
  759MOL0     C 2376   5.706   7.493  11.297 -0.4687 -0.6341  0.2677
  759MOL0     O 2377   5.459   7.388  11.364  0.2720 -0.0904 -0.3083
  759MOL0     C 2378   5.203   7.589  11.247 -0.0306  0.3652 -0.3316
  759MOL0     C 2379   5.070   7.619  11.277 -0.1025  0.1716 -1.1204
  759MOL0     N 2380   4.327   7.264  11.300 -0.2690  0.2846 -0.8508
  759MOL0     N 2381   4.293   7.193  11.201  0.9274 -0.7279 -0.6725
  759MOL0     C 2382   4.209   6.657  10.270 -0.3346  0.3503 -0.2643
  759MOL0     C 2383   4.101   6.596  10.213  0.0433  0.0707 -0.2056
  759MOL0     C 2384   3.847   6.439   9.872 -0.3893 -0.0392  0.3284
  759MOL0     C 2385   3.794   6.328   9.946 -0.1692  0.9253  0.2339
  759MOL0     C 2386   3.677   6.264   9.906  0.8796  0.3190 -0.5370
  759MOL0     C 2387   3.603   6.314   9.800  0.5591  0.0102  0.0953
  759MOL0     O 2388   3.483   6.265   9.758 -0.4280  0.1916  0.2909
  759MOL0     C 2389   3.423   6.160   9.837  0.5046 -0.2305 -0.5860
  759MOL0     C 2390   3.294   6.107   9.769 -0.2388 -0.9941  0.1512
  759MOL0     C 2391   3.185   6.214   9.778 -0.3629  1.1001 -0.2282
  759MOL0     C 2392   3.056   6.164   9.707 -0.4229  0.3994  0.3661
  759MOL0     C 2393   3.068   6.125   9.557  0.1230  0.0589  0.6762
  759MOL0     C 2394   3.099   6.090   9.445  0.3976 -0.3340  0.2564
  759MOL0     C 2395   3.657   6.421   9.729  0.4191 -0.1698 -0.5028
  759MOL0     C 2396   3.769   6.492   9.768  0.1509  0.5836 -0.4904
  759MOL0     C 2397   3.795   6.627   9.706 -0.8220 -0.0480  0.3691
  759MOL0     H 2398   4.257   6.440   9.959 -1.3517 -1.3508  1.7077
  759MOL0     H 2399   4.445   6.587  10.039  1.3356 -0.9761  1.1874
  759MOL0     H 2400   4.375   6.910  10.300 -0.7468  1.3726  2.6309
  759MOL0     H 2401   4.379   6.808  10.442 -1.0208  3.0671 -0.1998
  759MOL0     H 2402   4.628   6.913  10.293  2.4262  0.9998  0.5008
  759MOL0     H 2403   4.643   6.802  10.418  3.3983  2.5639 -0.2094
  759MOL0     H 2404   4.487   7.042  10.493 -0.2764 -0.2832 -0.5056
  759MOL0     H 2405   4.670   7.048  10.462  0.2797  0.7379  1.8439
  759MOL0     H 2406   4.523   6.851  10.645 -1.6537  2.6361 -1.0758
  759MOL0     H 2407   4.702   6.857  10.622  0.3833  0.1823  3.5366
  759MOL0     H 2408   4.645   6.947  10.831  2.0148  0.8295  0.6846
  759MOL0     H 2409   4.718   7.059  10.736 -0.8663 -0.2412  0.9554
  759MOL0     H 2410   4.482   7.165  10.679 -2.4858  0.7380  1.2811
  759MOL0     H 2411   4.407   7.035  10.769  0.5206 -0.6471 -2.1356
  759MOL0     H 2412   4.548   7.272  10.877 -0.5647  0.4873  0.0626
  759MOL0     H 2413   4.582   7.126  10.971  0.0119 -1.5322 -1.5455
  759MOL0     H 2414   4.304   7.274  10.896 -0.2005 -1.6476 -1.4064
  759MOL0     H 2415   4.300   7.109  10.936  0.9971 -1.4818 -1.2006
  759MOL0     H 2416   4.507   7.414  11.076  2.2165  2.4683  2.4738
  759MOL0     H 2417   4.394   7.537  11.380 -0.9460  1.1537 -1.6693
  759MOL0     H 2418   4.451   7.399  11.471 -0.8402  1.3458 -0.3112
  759MOL0     H 2419   4.673   7.394  11.355 -0.0845 -0.5818 -0.1554
  759MOL0     H 2420   4.646   7.550  11.279 -0.7410 -0.5101 -0.8326
  759MOL0     H 2421   4.609   7.515  11.585  0.1573 -0.7173 -0.2268
  759MOL0     H 2422   4.615   7.661  11.489  0.2750  0.0144 -3.8007
  759MOL0     H 2423   4.840   7.437  11.505 -0.3992 -0.3502 -1.9958
  759MOL0     H 2424   4.840   7.576  11.611 -1.5082 -0.1792 -0.6385
  759MOL0     H 2425   5.043   7.494  11.593 -0.3537  2.2006  0.9867
  759MOL0     H 2426   5.279   7.427  11.545  0.7394  1.1086  0.5479
  759MOL0     H 2427   5.613   7.666  11.019  0.4269  0.9470 -0.8077
  759MOL0     H 2428   5.852   7.655  10.971  0.9130  1.5726  1.2723
  759MOL0     H 2429   6.051   7.509  10.928 -2.1732 -1.2191  1.1633
  759MOL0     H 2430   6.090   7.661  11.024 -2.1625 -0.6792  2.2380
  759MOL0     H 2431   6.284   7.574  11.110 -1.8328  0.0240  0.2700
  759MOL0     H 2432   6.253   7.415  11.066  0.0146 -0.3858 -1.1205
  759MOL0     H 2433   6.289   7.461  10.818  2.3609 -0.1230  0.9537
  759MOL0     H 2434   6.294   7.632  10.850  0.5646  0.1435 -0.8124
  759MOL0     H 2435   6.503   7.438  10.983  0.6333  0.5743  0.9198
  759MOL0     H 2436   6.517   7.605  10.943  1.5798 -1.5928 -0.2139
  759MOL0     H 2437   6.467   7.534  10.693 -0.7285  0.1197  0.3226
  759MOL0     H 2438   6.497   7.371  10.750  1.8439 -1.0170 -1.7064
  759MOL0     H 2439   6.684   7.460  10.636  0.3571  0.4137  0.9090
  759MOL0     H 2440   6.678   7.613  10.717 -0.1834  0.0810 -5.0625
  759MOL0     H 2441   6.714   7.353  10.881 -1.6452  1.5718  1.4904
  759MOL0     H 2442   6.766   7.517  10.921  1.0748  1.0549 -0.0026
  759MOL0     H 2443   6.911   7.353  10.721  0.6392 -1.1657  1.7188
  759MOL0     H 2444   6.942   7.530  10.739  2.3679 -0.6661  0.7147
  759MOL0     H 2445   5.897   7.397  11.325 -0.7468 -0.3237  0.5840
  759MOL0     H 2446   5.665   7.451  11.389 -2.6644 -1.7504 -1.1232
  759MOL0     H 2447   5.248   7.620  11.153 -1.6133 -0.3662 -1.3729
  759MOL0     H 2448   5.019   7.675  11.198 -1.5228 -0.8893 -1.0108
  759MOL0     H 2449   4.185   6.705  10.365  1.2720  1.0948 -0.1919
  759MOL0     H 2450   4.002   6.621  10.250  0.1374  0.2700 -0.0843
  759MOL0     H 2451   3.849   6.290  10.032 -1.6461  0.9243  1.2047
  759MOL0     H 2452   3.649   6.178   9.967  3.6820 -0.3676 -0.0774
  759MOL0     H 2453   3.395   6.202   9.934  2.6171  0.7603 -0.3493
  759MOL0     H 2454   3.493   6.076   9.849 -2.3437 -2.8646 -1.2332
  759MOL0     H 2455   3.273   6.014   9.822  4.1296 -0.9551  2.3437
  759MOL0     H 2456   3.313   6.097   9.662 -0.8875 -0.9147  0.0211
  759MOL0     H 2457   3.208   6.309   9.730 -3.5923  1.2634 -1.6648
  759MOL0     H 2458   3.173   6.245   9.882  2.2311  3.1588 -0.4371
  759MOL0     H 2459   3.021   6.073   9.757 -1.0986 -0.0158 -0.8377
  759MOL0     H 2460   2.972   6.234   9.715 -3.5212 -2.8742 -0.8934
  759MOL0     H 2461   3.113   6.053   9.345 -1.7952 -2.2614  0.5670
  759MOL0     H 2462   3.599   6.447   9.642 -1.3656 -3.1612 -0.3423
  759MOL0     H 2463   3.902   6.640   9.685 -0.6300 -1.1483  0.5904
  759MOL0     H 2464   3.733   6.642   9.618 -0.1946 -1.4869 -0.3479
  759MOL0     H 2465   3.776   6.699   9.786  2.6355 -0.8149  2.1055
  760MOL0     O 2466   2.278   8.297   2.393 -0.2020 -0.3937  0.5750
  760MOL0     C 2467   2.194   8.383   2.413 -0.0674 -0.0169 -0.3920
  760MOL0     O 2468   2.225   8.508   2.449  0.6393 -0.5939 -0.3818
  760MOL0     C 2469   2.348   8.549   2.472 -0.6552  0.5510 -0.0945
  760MOL0     C 2470   2.415   8.509   2.592  0.0141 -0.8343  0.8955
  760MOL0     C 2471   2.544   8.562   2.617 -0.3437  0.0490 -0.1293
  760MOL0     C 2472   2.611   8.644   2.527  0.0666 -0.2087  0.1669
  760MOL0     O 2473   2.738   8.695   2.551  0.4699 -0.1993 -0.5059
  760MOL0     C 2474   2.811   8.636   2.658  0.1179 -0.3349 -0.0520
  760MOL0     C 2475   2.948   8.695   2.684  0.1588 -0.0213  0.6911
  760MOL0     C 2476   3.006   8.649   2.816  0.4068  0.7353  0.5128
  760MOL0     C 2477   3.152   8.709   2.818 -0.0333 -0.1054 -0.9089
  760MOL0     C 2478   3.253   8.660   2.715 -0.3226 -0.9641 -0.5550
  760MOL0     C 2479   3.294   8.513   2.725 -0.5392  0.2327 -0.1302
  760MOL0     C 2480   3.381   8.465   2.610 -0.6783 -0.8175 -0.0665
  760MOL0     C 2481   3.411   8.314   2.637  0.0357  0.1430  0.1240
  760MOL0     N 2482   3.526   8.279   2.554  0.3449 -0.1634 -0.3337
  760MOL0     C 2483   3.658   8.273   2.592 -0.6025 -1.0511  0.2369
  760MOL0     C 2484   3.718   8.244   2.474 -0.2129 -0.6652 -0.6649
  760MOL0     C 2485   3.863   8.228   2.463 -0.5175 -0.3544 -0.2275
  760MOL0     C 2486   3.912   8.347   2.384 -0.8489  1.1639  0.8240
  760MOL0     C 2487   4.062   8.324   2.339 -0.3434 -0.6500 -0.2080
  760MOL0     C 2488   4.133   8.449   2.279 -0.4543  0.5897 -0.8428
  760MOL0     O 2489   4.249   8.402   2.220 -0.4137 -0.3754  0.1580
  760MOL0     C 2490   4.373   8.438   2.265  0.4049  0.2526  0.7802
  760MOL0     C 2491   4.474   8.368   2.199 -0.0742 -0.1678 -0.8771
  760MOL0     C 2492   4.609   8.391   2.236 -0.9041  0.2523 -0.9198
  760MOL0     C 2493   4.648   8.472   2.345  0.7259  0.7846 -0.3018
  760MOL0     C 2494   4.782   8.508   2.381 -0.2471  0.4419 -0.1678
  760MOL0     O 2495   4.884   8.444   2.317 -0.2195  1.4197  0.1112
  760MOL0     C 2496   5.020   8.464   2.341  0.4218  0.1541 -0.4438
  760MOL0     C 2497   5.075   8.595   2.373 -0.2264  0.1363 -0.7465
  760MOL0     C 2498   5.210   8.615   2.405  0.2300 -0.3894  0.4924
  760MOL0     C 2499   5.292   8.503   2.388 -1.0638  0.0704 -0.0987
  760MOL0     O 2500   5.424   8.512   2.401  0.1086 -0.0513 -0.6164
  760MOL0     C 2501   5.499   8.519   2.280  0.0176 -0.3661 -0.1026
  760MOL0     C 2502   5.633   8.563   2.312  0.0121  0.1548  0.5449
  760MOL0     C 2503   5.724   8.557   2.186  0.0384 -0.1955 -0.5363
  760MOL0     C 2504   5.868   8.598   2.202 -0.1102  0.8503 -0.4177
  760MOL0     C 2505   5.955   8.573   2.087  0.4274  0.5866 -0.2152
  760MOL0     C 2506   6.098   8.587   2.138 -0.2428  0.0773  0.2565
  760MOL0     C 2507   6.191   8.597   2.011 -0.2248  0.1266  0.6488
  760MOL0     C 2508   6.331   8.620   2.051 -1.4027 -0.4779  0.1365
  760MOL0    Cl 2509   6.433   8.623   1.903  0.0824 -0.1934  0.0548
  760MOL0     C 2510   5.241   8.375   2.361  0.6678  0.2373  1.2279
  760MOL0     C 2511   5.106   8.356   2.331  0.0568  0.3545 -0.3470
  760MOL0     O 2512   4.793   8.589   2.475  0.3884 -0.0060  0.3533
  760MOL0     C 2513   4.538   8.529   2.421  0.7820  0.3051  0.5987
  760MOL0     C 2514   4.403   8.511   2.380 -0.1536 -1.1240  0.2298
  760MOL0     N 2515   3.621   8.221   2.383 -0.3962 -0.2662 -0.6144
  760MOL0     N 2516   3.504   8.228   2.431  0.0420 -0.7778 -0.5476
  760MOL0     C 2517   2.536   8.690   2.411 -0.3150  0.5360  0.0301
  760MOL0     C 2518   2.409   8.641   2.386 -0.5192  0.4407 -0.6840
  760MOL0     C 2519   2.054   8.352   2.383 -0.6182 -0.3107 -0.2636
  760MOL0     C 2520   2.021   8.245   2.301  0.2283 -0.1913  0.4569
  760MOL0     C 2521   1.883   8.208   2.278  0.3383  0.2351 -0.1261
  760MOL0     C 2522   1.783   8.285   2.328 -0.2950  0.2839 -0.7624
  760MOL0     O 2523   1.654   8.241   2.295 -0.7981  0.4873  0.0199
  760MOL0     C 2524   1.540   8.286   2.369 -0.0992  0.0188  0.7343
  760MOL0     C 2525   1.544   8.255   2.514 -0.3891  0.2952  0.5359
  760MOL0     C 2526   1.411   8.255   2.586 -0.9702 -0.3885 -0.0252
  760MOL0     C 2527   1.336   8.385   2.551 -0.2315 -0.6119 -0.8356
  760MOL0     C 2528   1.210   8.379   2.625  0.7495 -0.3326  0.4994
  760MOL0     C 2529   1.116   8.380   2.703  0.1391  0.6475 -0.2092
  760MOL0     C 2530   1.816   8.395   2.409  0.0726  0.1345 -0.4920
  760MOL0     C 2531   1.948   8.424   2.447  0.5780  0.1888  0.2063
  760MOL0     C 2532   1.963   8.525   2.565 -0.8277 -0.1189  0.1964
  760MOL0     H 2533   2.377   8.433   2.660  0.5254 -0.3260  1.7695
  760MOL0     H 2534   2.597   8.522   2.703 -1.3396 -0.9990  0.0313
  760MOL0     H 2535   2.752   8.651   2.749  1.1944  2.0422  0.3331
  760MOL0     H 2536   2.810   8.528   2.640 -2.0413 -0.5100  0.8165
  760MOL0     H 2537   2.933   8.803   2.678  2.8946  0.4153  0.6475
  760MOL0     H 2538   3.011   8.659   2.603  0.1693  2.4746 -0.4782
  760MOL0     H 2539   3.010   8.540   2.818  2.7868  0.7957  2.3418
  760MOL0     H 2540   2.940   8.676   2.899 -0.0889 -1.1133  0.7537
  760MOL0     H 2541   3.155   8.819   2.814 -2.3726 -0.0144 -4.1023
  760MOL0     H 2542   3.194   8.676   2.914 -1.2220  0.8729 -0.0159
  760MOL0     H 2543   3.226   8.678   2.611  0.5698  1.1813 -0.4646
  760MOL0     H 2544   3.338   8.726   2.736  1.0105 -3.3082  2.1116
  760MOL0     H 2545   3.349   8.493   2.817 -0.3322  3.3724  0.5572
  760MOL0     H 2546   3.216   8.437   2.738  1.2642 -1.5263  0.8882
  760MOL0     H 2547   3.469   8.530   2.607 -3.0690  2.6500 -2.4478
  760MOL0     H 2548   3.341   8.484   2.510  0.6612  0.1769 -0.4513
  760MOL0     H 2549   3.434   8.294   2.742  0.0400 -1.3951 -0.1561
  760MOL0     H 2550   3.334   8.243   2.608  0.2550  0.9996 -2.8635
  760MOL0     H 2551   3.694   8.292   2.693  0.8820 -1.1395 -0.2427
  760MOL0     H 2552   3.913   8.225   2.560  1.2139  0.4477 -1.0422
  760MOL0     H 2553   3.883   8.145   2.396 -0.9456  0.7272 -1.7618
  760MOL0     H 2554   3.852   8.341   2.292 -0.6226 -4.1322  0.7200
  760MOL0     H 2555   3.897   8.445   2.429 -2.9531  1.0057  0.5634
  760MOL0     H 2556   4.063   8.240   2.268  0.3995 -1.4388  0.7164
  760MOL0     H 2557   4.119   8.297   2.428 -0.4675 -0.0847  0.0444
  760MOL0     H 2558   4.138   8.523   2.360 -3.7168  1.7787 -1.5845
  760MOL0     H 2559   4.074   8.494   2.198 -1.4423 -1.6806 -1.4784
  760MOL0     H 2560   4.453   8.290   2.126  2.9360 -2.1438  0.1960
  760MOL0     H 2561   4.677   8.342   2.167 -2.4327 -0.0566 -2.2700
  760MOL0     H 2562   5.001   8.671   2.394 -1.1781 -0.8139 -0.5710
  760MOL0     H 2563   5.240   8.711   2.444  1.5720  0.0136 -1.3677
  760MOL0     H 2564   5.506   8.420   2.234  0.3408 -0.6726  0.5969
  760MOL0     H 2565   5.450   8.592   2.215 -0.5375 -0.3959  0.2703
  760MOL0     H 2566   5.637   8.664   2.353 -0.0325  0.7881 -0.9319
  760MOL0     H 2567   5.674   8.500   2.392 -0.3399 -1.8843 -0.7952
  760MOL0     H 2568   5.715   8.462   2.132  1.2503 -1.9460  2.1268
  760MOL0     H 2569   5.681   8.618   2.105  1.3282 -0.3927 -1.3941
  760MOL0     H 2570   5.902   8.542   2.290 -0.8175  0.2864 -0.4929
  760MOL0     H 2571   5.866   8.706   2.217 -4.7537  0.9848 -0.5698
  760MOL0     H 2572   5.947   8.644   2.004 -0.2936  0.2168 -0.4699
  760MOL0     H 2573   5.932   8.478   2.039 -0.6793  0.5594  0.3343
  760MOL0     H 2574   6.112   8.676   2.200  0.9819 -0.1455  0.3365
  760MOL0     H 2575   6.129   8.501   2.198 -1.8246  0.8248  2.2507
  760MOL0     H 2576   6.158   8.665   1.932  0.9803  1.1389  0.9726
  760MOL0     H 2577   6.191   8.499   1.964 -3.8288 -0.8975  2.4072
  760MOL0     H 2578   6.348   8.717   2.100 -1.1599 -1.1425  1.4192
  760MOL0     H 2579   6.371   8.553   2.127 -0.1038  0.8342  0.6731
  760MOL0     H 2580   5.306   8.289   2.365  1.4204  0.7842  1.0540
  760MOL0     H 2581   5.060   8.261   2.308 -1.5857  0.4661  2.0567
  760MOL0     H 2582   4.542   8.601   2.503 -0.6253  2.1726 -0.8675
  760MOL0     H 2583   4.322   8.561   2.432  0.9780  1.2648 -0.1398
  760MOL0     H 2584   2.581   8.752   2.335 -0.2383  0.1170 -0.2714
  760MOL0     H 2585   2.362   8.662   2.290 -1.4962  2.4410  0.1734
  760MOL0     H 2586   2.100   8.190   2.250 -1.2602 -2.0297  0.0100
  760MOL0     H 2587   1.864   8.122   2.215  0.8871  0.9132 -1.2565
  760MOL0     H 2588   1.465   8.235   2.308  2.0107 -0.0631 -1.9920
  760MOL0     H 2589   1.538   8.395   2.353  1.3435 -0.3341 -3.0997
  760MOL0     H 2590   1.607   8.331   2.561  1.7218 -0.1409 -1.4186
  760MOL0     H 2591   1.601   8.162   2.522 -1.8596 -0.5878  1.0176
  760MOL0     H 2592   1.429   8.247   2.693  1.8196  1.2845 -0.2625
  760MOL0     H 2593   1.360   8.162   2.561 -0.7640  0.2475 -3.3286
  760MOL0     H 2594   1.386   8.474   2.588 -1.6623  0.5081 -1.5243
  760MOL0     H 2595   1.324   8.396   2.443 -2.8772 -1.6908 -0.7186
  760MOL0     H 2596   1.028   8.399   2.761 -0.5422  2.1504 -1.6377
  760MOL0     H 2597   1.738   8.460   2.449  0.1232  0.2827 -0.6331
  760MOL0     H 2598   2.049   8.513   2.631  0.4415  1.9390 -0.9635
  760MOL0     H 2599   1.975   8.627   2.526  1.1007 -0.4878 -0.3016
  760MOL0     H 2600   1.872   8.518   2.626 -2.2000  0.9992 -1.6136
  761MOL0     O 2601   3.181   9.235   9.408 -0.3972 -0.1155 -0.1003
  761MOL0     C 2602   3.142   9.335   9.356  1.0106 -0.3376  0.4216
  761MOL0     O 2603   3.201   9.453   9.361 -0.3514  0.2603 -0.0340
  761MOL0     C 2604   3.323   9.474   9.421 -0.0744 -0.8308 -0.3094
  761MOL0     C 2605   3.361   9.411   9.546  0.7007  0.6940 -0.0678
  761MOL0     C 2606   3.485   9.448   9.603 -0.2890 -0.8124 -0.0955
  761MOL0     C 2607   3.568   9.540   9.539  0.0106 -0.1471  0.4921
  761MOL0     O 2608   3.688   9.574   9.598 -0.7772 -0.0849 -0.2054
  761MOL0     C 2609   3.760   9.693   9.554 -0.2738 -0.5692  0.5661
  761MOL0     C 2610   3.880   9.722   9.653  0.0497  0.3507  0.7818
  761MOL0     C 2611   3.967   9.842   9.617  0.1878 -0.5084 -0.2820
  761MOL0     C 2612   4.095   9.841   9.711 -0.2928  0.2889  0.0954
  761MOL0     C 2613   4.179   9.969   9.698 -0.9082  0.0773 -0.1701
  761MOL0     C 2614   4.317   9.946   9.764  0.2639 -0.9229 -0.3917
  761MOL0     C 2615   4.394  10.076   9.774 -0.4732 -0.0730 -0.3919
  761MOL0     C 2616   4.529  10.059   9.865 -0.0414 -0.4244 -0.1126
  761MOL0     N 2617   4.620  10.178   9.856 -0.2672  0.1766  0.7365
  761MOL0     C 2618   4.663  10.235   9.734 -0.0037  0.9092  0.3817
  761MOL0     C 2619   4.724  10.351   9.779 -0.1783  0.1331 -0.6018
  761MOL0     C 2620   4.799  10.452   9.689 -0.1817 -0.5213 -0.0713
  761MOL0     C 2621   4.947  10.471   9.724 -0.0310 -0.2959 -0.4805
  761MOL0     C 2622   5.021  10.557   9.616 -0.1815  0.5952  0.3981
  761MOL0     C 2623   5.174  10.578   9.647  0.5413  0.9653 -0.3005
  761MOL0     O 2624   5.232  10.451   9.616  0.2407  0.3261  0.2227
  761MOL0     C 2625   5.371  10.441   9.634  1.1811 -0.8790  1.1795
  761MOL0     C 2626   5.458  10.547   9.662 -0.3051  0.0600 -0.7170
  761MOL0     C 2627   5.593  10.512   9.703  0.1362 -0.3608  0.0933
  761MOL0     C 2628   5.644  10.379   9.695  0.4967 -0.3550 -0.0792
  761MOL0     C 2629   5.784  10.356   9.727 -0.1018 -0.0864 -0.0572
  761MOL0     O 2630   5.860  10.459   9.769 -0.5172 -0.1207  0.1033
  761MOL0     C 2631   5.977  10.442   9.838  0.2478  0.0149  1.4861
  761MOL0     C 2632   6.004  10.544   9.923  0.2421  0.8012 -0.5590
  761MOL0     C 2633   6.126  10.548   9.986 -0.2282 -0.2063  0.0283
  761MOL0     C 2634   6.232  10.461   9.954 -0.2050 -0.3688  0.3140
  761MOL0     O 2635   6.352  10.475  10.025 -0.4164 -0.4545 -0.5019
  761MOL0     C 2636   6.472  10.408   9.990  0.1480 -0.6697  0.2260
  761MOL0     C 2637   6.526  10.444   9.848  0.2245  0.6866 -0.1142
  761MOL0     C 2638   6.680  10.423   9.834  0.3491  0.4749 -0.5375
  761MOL0     C 2639   6.755  10.553   9.787  0.2001  0.2952 -0.0630
  761MOL0     C 2640   6.900  10.536   9.777 -0.2140  0.2110 -0.2340
  761MOL0     C 2641   6.965  10.664   9.706 -0.8591 -0.1296 -0.0826
  761MOL0     C 2642   6.978  10.786   9.799  0.8260 -0.5177 -0.2506
  761MOL0     C 2643   7.058  10.753   9.927  0.1581 -0.8046  0.1114
  761MOL0    Cl 2644   7.212  10.679   9.878 -0.4781 -0.3104 -0.2933
  761MOL0     C 2645   6.205  10.365   9.859 -0.0811  0.8657  0.7985
  761MOL0     C 2646   6.077  10.350   9.802  0.2284  0.5394  0.0988
  761MOL0     O 2647   5.814  10.239   9.722  0.3409  0.6686 -0.8009
  761MOL0     C 2648   5.555  10.282   9.663  0.0481 -0.0880 -0.7091
  761MOL0     C 2649   5.423  10.312   9.624 -0.2224  0.0790  0.0365
  761MOL0     N 2650   4.715  10.358   9.911  0.0451  0.3821  0.4941
  761MOL0     N 2651   4.654  10.255   9.966 -0.0841  0.3995  0.1292
  761MOL0     C 2652   3.531   9.601   9.420  0.5409  0.9868 -0.4410
  761MOL0     C 2653   3.410   9.565   9.352 -0.8605 -0.8134 -0.2955
  761MOL0     C 2654   3.010   9.318   9.293  0.6030  0.0628  0.1917
  761MOL0     C 2655   2.945   9.196   9.324  1.1674  0.3168  0.9090
  761MOL0     C 2656   2.810   9.185   9.289  0.0802  0.6208  0.7248
  761MOL0     C 2657   2.742   9.290   9.215 -0.6067  0.4714  0.4440
  761MOL0     O 2658   2.616   9.287   9.172  0.6253  0.2538 -0.0045
  761MOL0     C 2659   2.522   9.212   9.247 -0.1063 -0.0712 -0.0625
  761MOL0     C 2660   2.384   9.238   9.204 -0.4706 -0.6460  0.0619
  761MOL0     C 2661   2.285   9.150   9.270  0.4022 -0.1549  0.6227
  761MOL0     C 2662   2.142   9.191   9.222  0.4734 -0.6047 -0.6468
  761MOL0     C 2663   2.111   9.157   9.081 -0.0126 -0.0032 -0.6445
  761MOL0     C 2664   2.087   9.105   8.969  0.5495  0.4842  0.2955
  761MOL0     C 2665   2.817   9.395   9.177  0.6765  0.1882 -0.3614
  761MOL0     C 2666   2.949   9.406   9.206 -0.4519 -0.9190  0.6359
  761MOL0     C 2667   3.019   9.536   9.163 -0.6460 -0.2035  0.2325
  761MOL0     H 2668   3.310   9.326   9.590 -0.9006  1.7277  0.1382
  761MOL0     H 2669   3.530   9.416   9.697  0.9264  0.6198 -0.1432
  761MOL0     H 2670   3.816   9.672   9.462  0.3620  1.3196  0.4807
  761MOL0     H 2671   3.693   9.779   9.548 -0.1700 -0.5302 -0.1420
  761MOL0     H 2672   3.940   9.632   9.640 -2.1024 -0.6418 -6.1932
  761MOL0     H 2673   3.845   9.736   9.756  1.8397  0.0050  1.4726
  761MOL0     H 2674   3.911   9.934   9.633 -1.9040 -1.7588 -0.0747
  761MOL0     H 2675   4.005   9.828   9.515  1.0475 -0.1298 -0.0263
  761MOL0     H 2676   4.066   9.826   9.816  0.1454  0.0325  0.1827
  761MOL0     H 2677   4.163   9.765   9.672  0.9756  2.5741 -2.4802
  761MOL0     H 2678   4.198   9.985   9.592  4.2173 -0.0856  0.4877
  761MOL0     H 2679   4.119  10.050   9.742 -1.0257 -1.2066  2.2209
  761MOL0     H 2680   4.303   9.906   9.865  1.6939 -0.5481 -0.0254
  761MOL0     H 2681   4.384   9.874   9.717  1.3882  0.4055 -0.8858
  761MOL0     H 2682   4.324  10.152   9.810 -0.5688 -1.2739  2.2274
  761MOL0     H 2683   4.416  10.099   9.670 -0.1159 -1.3645 -0.6155
  761MOL0     H 2684   4.503  10.053   9.971  1.7447  0.9356  0.4746
  761MOL0     H 2685   4.581   9.968   9.833 -0.5104 -0.7114 -0.0525
  761MOL0     H 2686   4.646  10.197   9.633 -0.4539  0.5745  0.5784
  761MOL0     H 2687   4.785  10.416   9.587  3.1584 -2.6131  0.0646
  761MOL0     H 2688   4.759  10.554   9.688 -1.4761 -1.0135 -0.8937
  761MOL0     H 2689   4.963  10.510   9.825 -0.3702 -0.6349 -0.2913
  761MOL0     H 2690   5.001  10.376   9.726  1.9511  0.7726  2.3758
  761MOL0     H 2691   4.981  10.658   9.600 -3.6803 -0.7533 -0.3791
  761MOL0     H 2692   5.015  10.500   9.522 -0.4947  0.1956  0.6587
  761MOL0     H 2693   5.198  10.607   9.750  1.9309 -1.0638  0.0010
  761MOL0     H 2694   5.212  10.654   9.579 -0.9535  0.3316 -1.9229
  761MOL0     H 2695   5.419  10.647   9.675 -1.3454 -0.4457  0.2411
  761MOL0     H 2696   5.660  10.590   9.738 -1.7882  0.1239  3.0168
  761MOL0     H 2697   5.921  10.609   9.950 -0.6807 -0.7890  0.5821
  761MOL0     H 2698   6.160  10.631  10.046  1.6249 -0.7965 -0.1441
  761MOL0     H 2699   6.549  10.445  10.059  0.7082  0.9616 -1.1951
  761MOL0     H 2700   6.464  10.300  10.004 -0.0711 -0.5067  1.4943
  761MOL0     H 2701   6.475  10.380   9.775  0.2445 -0.8036  1.1264
  761MOL0     H 2702   6.501  10.548   9.830  1.4552  0.9531 -0.3738
  761MOL0     H 2703   6.734  10.386   9.922  0.1719  0.4456 -0.4407
  761MOL0     H 2704   6.687  10.345   9.758  0.2559 -2.5252  2.3009
  761MOL0     H 2705   6.739  10.636   9.857  3.0928  0.4602  0.5429
  761MOL0     H 2706   6.721  10.594   9.692  2.7110  1.5822 -0.5090
  761MOL0     H 2707   6.929  10.462   9.701  0.1637 -0.3908  0.4851
  761MOL0     H 2708   6.942  10.501   9.872 -0.3078 -2.1038 -0.9910
  761MOL0     H 2709   7.058  10.636   9.656 -0.3915  1.8219 -0.4190
  761MOL0     H 2710   6.895  10.693   9.627 -0.6351  1.4835  0.2554
  761MOL0     H 2711   6.877  10.815   9.828  0.6259 -0.0755 -1.3611
  761MOL0     H 2712   7.022  10.870   9.745 -1.4060  0.8808 -0.0255
  761MOL0     H 2713   7.087  10.838   9.989  0.4243 -1.8783  1.5124
  761MOL0     H 2714   6.996  10.689   9.991  1.5498  0.2680  2.6600
  761MOL0     H 2715   6.285  10.299   9.825 -1.5559  0.3151 -1.9297
  761MOL0     H 2716   6.057  10.284   9.719 -1.8939 -0.3430  1.2341
  761MOL0     H 2717   5.572  10.175   9.666  0.1473 -0.0664 -0.4711
  761MOL0     H 2718   5.356  10.230   9.603 -2.0309  0.9450  2.0762
  761MOL0     H 2719   3.593   9.679   9.375  0.1783  0.9423 -1.0298
  761MOL0     H 2720   3.390   9.599   9.251  0.6959 -1.1576 -0.7443
  761MOL0     H 2721   2.998   9.113   9.370  2.2372 -0.3110 -1.2974
  761MOL0     H 2722   2.760   9.092   9.313  3.1150 -2.6543 -3.8489
  761MOL0     H 2723   2.541   9.231   9.353  1.0672 -0.3836 -0.2070
  761MOL0     H 2724   2.547   9.107   9.228  0.4647  0.1420 -0.4772
  761MOL0     H 2725   2.371   9.221   9.096  0.4256  1.8294 -0.4998
  761MOL0     H 2726   2.372   9.341   9.239  1.6957 -0.1801 -0.4392
  761MOL0     H 2727   2.273   9.152   9.378 -0.6015  1.6284  0.5181
  761MOL0     H 2728   2.309   9.049   9.234 -1.2376 -0.3254 -0.1282
  761MOL0     H 2729   2.071   9.138   9.285  0.2225 -1.4517 -1.6031
  761MOL0     H 2730   2.116   9.296   9.240  0.6992 -0.8464  1.2865
  761MOL0     H 2731   2.075   9.065   8.870 -2.3685  1.4974  0.1506
  761MOL0     H 2732   2.766   9.473   9.121 -2.6493 -2.6956 -1.7023
  761MOL0     H 2733   2.956   9.609   9.110  0.6100 -0.2514 -1.4250
  761MOL0     H 2734   3.052   9.591   9.252  4.0586 -0.3417 -1.1475
  761MOL0     H 2735   3.111   9.516   9.107  1.3719  0.1994  3.1861
  762MOL0     O 2736   7.429   1.532   1.689 -0.5147  0.1464  0.4241
  762MOL0     C 2737   7.493   1.572   1.591 -0.1804  0.4092  0.7097
  762MOL0     O 2738   7.445   1.666   1.496 -0.2246  0.7480  0.4819
  762MOL0     C 2739   7.322   1.721   1.524  0.1026  0.2507 -0.3050
  762MOL0     C 2740   7.328   1.857   1.559 -0.3665 -0.2838  0.1013
  762MOL0     C 2741   7.209   1.927   1.589  0.2524 -0.2162 -0.6495
  762MOL0     C 2742   7.083   1.858   1.592 -0.2058 -0.5166  0.1961
  762MOL0     O 2743   6.970   1.930   1.636 -0.6008 -0.3086  0.0766
  762MOL0     C 2744   6.842   1.861   1.639 -0.3107  0.3921  0.4383
  762MOL0     C 2745   6.751   1.962   1.705 -0.6164 -0.7229  0.0158
  762MOL0     C 2746   6.604   1.922   1.709 -0.2573  1.0672 -0.0842
  762MOL0     C 2747   6.503   2.022   1.753 -1.1046  0.3626 -0.1204
  762MOL0     C 2748   6.357   1.988   1.760 -0.5204 -0.1523 -0.1194
  762MOL0     C 2749   6.269   2.112   1.787  0.2013  0.8180 -0.4714
  762MOL0     C 2750   6.124   2.067   1.819  0.2665 -0.4819  0.1885
  762MOL0     C 2751   6.032   2.185   1.835 -0.1634  0.0340  0.6524
  762MOL0     N 2752   5.992   2.263   1.710 -0.0196  0.8434  0.0648
  762MOL0     C 2753   5.998   2.219   1.578 -0.2389 -0.0662 -0.5943
  762MOL0     C 2754   5.961   2.323   1.508  0.2121 -0.3584  0.4428
  762MOL0     C 2755   5.946   2.345   1.365 -0.1129  0.2609 -0.6443
  762MOL0     C 2756   6.027   2.456   1.300  0.1346 -0.0229 -0.2539
  762MOL0     C 2757   6.175   2.467   1.357  0.0348  0.4881  0.1219
  762MOL0     C 2758   6.277   2.533   1.256  0.1752  0.0595  0.2154
  762MOL0     O 2759   6.397   2.533   1.329 -0.2203 -0.6278 -0.1132
  762MOL0     C 2760   6.492   2.613   1.263 -0.0973  0.1221  0.2799
  762MOL0     C 2761   6.493   2.680   1.141 -1.2076  0.3328  0.2141
  762MOL0     C 2762   6.610   2.734   1.082  0.5456 -0.0215 -0.7326
  762MOL0     C 2763   6.731   2.714   1.149 -0.7294  0.3469  0.3497
  762MOL0     C 2764   6.858   2.737   1.087  0.1248 -0.1620  0.0773
  762MOL0     O 2765   6.948   2.799   1.166 -0.6502  0.1207  0.0570
  762MOL0     C 2766   7.073   2.771   1.119  0.7562 -0.4408  0.3160
  762MOL0     C 2767   7.127   2.638   1.097  0.5007 -0.2217  0.3460
  762MOL0     C 2768   7.260   2.621   1.075 -0.1228  0.0274  0.7638
  762MOL0     C 2769   7.349   2.730   1.057  1.0826  0.5060 -0.0161
  762MOL0     O 2770   7.481   2.711   1.032 -0.6866  0.0997  0.1697
  762MOL0     C 2771   7.526   2.587   0.978  0.2552 -0.2584  0.6944
  762MOL0     C 2772   7.674   2.575   0.926 -1.1762  0.4521 -0.1548
  762MOL0     C 2773   7.781   2.655   0.995 -0.8832 -0.1792  0.7741
  762MOL0     C 2774   7.922   2.600   0.969  0.6233  0.0261  0.3508
  762MOL0     C 2775   8.022   2.696   1.032 -0.0040 -0.5312  0.2180
  762MOL0     C 2776   8.157   2.620   1.054  0.2816  0.0104  0.7899
  762MOL0     C 2777   8.251   2.700   1.149 -0.1650 -0.5064  0.3243
  762MOL0     C 2778   8.330   2.604   1.241 -0.4495  1.0404  0.8126
  762MOL0    Cl 2779   8.224   2.552   1.373 -0.1817 -0.0524 -0.0612
  762MOL0     C 2780   7.299   2.857   1.093 -0.1044 -0.2934 -0.4905
  762MOL0     C 2781   7.165   2.881   1.127 -0.4250 -0.1884 -0.4815
  762MOL0     O 2782   6.866   2.719   0.960  0.4725 -0.0030 -0.5158
  762MOL0     C 2783   6.729   2.666   1.283  0.8511  0.1363  0.0504
  762MOL0     C 2784   6.605   2.622   1.337  0.0136 -0.7589 -0.3290
  762MOL0     N 2785   5.945   2.440   1.593 -0.3034  1.0220  0.2114
  762MOL0     N 2786   5.962   2.398   1.714 -0.1011 -0.0119  0.0559
  762MOL0     C 2787   7.078   1.724   1.556 -0.0965  0.7718 -0.3118
  762MOL0     C 2788   7.199   1.648   1.522  0.2856 -0.5693 -0.3349
  762MOL0     C 2789   7.630   1.533   1.568 -1.2700  0.5259 -0.0500
  762MOL0     C 2790   7.712   1.594   1.475 -0.0497 -1.2499  0.1159
  762MOL0     C 2791   7.846   1.559   1.458  0.0885 -0.3255  0.0293
  762MOL0     C 2792   7.913   1.459   1.541  0.6427 -0.3322  0.3846
  762MOL0     O 2793   8.044   1.430   1.539  0.5861  0.5241 -0.1885
  762MOL0     C 2794   8.119   1.480   1.432 -0.4159 -0.3092 -0.8145
  762MOL0     C 2795   8.259   1.428   1.441 -0.0337 -1.0866 -0.5953
  762MOL0     C 2796   8.266   1.270   1.422 -0.0190 -0.4915  0.3592
  762MOL0     C 2797   8.410   1.219   1.452  0.1229 -0.3816 -0.5391
  762MOL0     C 2798   8.516   1.289   1.377 -0.8807 -0.2021 -1.1393
  762MOL0     C 2799   8.607   1.355   1.327 -0.2473  0.3396 -0.0785
  762MOL0     C 2800   7.834   1.404   1.645  0.3420 -0.5413  0.5409
  762MOL0     C 2801   7.693   1.437   1.654 -0.4937 -0.0730 -0.3208
  762MOL0     C 2802   7.619   1.338   1.754 -0.1685 -0.0392  0.5791
  762MOL0     H 2803   7.422   1.911   1.559 -0.4563 -0.1150  0.6719
  762MOL0     H 2804   7.236   2.029   1.617  4.6317 -1.3944  0.3048
  762MOL0     H 2805   6.812   1.832   1.538  4.0336 -2.6218 -0.2490
  762MOL0     H 2806   6.847   1.769   1.697  1.6078 -0.8511 -1.5414
  762MOL0     H 2807   6.754   2.051   1.642  0.4007 -3.0577 -3.4945
  762MOL0     H 2808   6.795   1.985   1.803  2.0450 -1.8103 -0.8522
  762MOL0     H 2809   6.595   1.836   1.775 -1.2566  1.0319 -0.2503
  762MOL0     H 2810   6.575   1.892   1.608  1.5080  1.6703 -0.8066
  762MOL0     H 2811   6.534   2.056   1.852  0.2004  2.0453 -1.0633
  762MOL0     H 2812   6.529   2.103   1.685 -0.7887 -0.2532 -0.7412
  762MOL0     H 2813   6.325   1.941   1.667 -0.0579  0.8018 -0.7755
  762MOL0     H 2814   6.345   1.917   1.842  1.4025 -2.7564 -1.9238
  762MOL0     H 2815   6.306   2.164   1.876  1.1903  0.5821 -0.7337
  762MOL0     H 2816   6.277   2.183   1.705 -2.1544  1.0097 -0.5886
  762MOL0     H 2817   6.129   2.001   1.906  1.2534 -1.2608 -0.4276
  762MOL0     H 2818   6.080   2.008   1.738 -2.2283 -0.8024  1.6735
  762MOL0     H 2819   5.936   2.146   1.869 -0.9231  1.1032 -0.2141
  762MOL0     H 2820   6.085   2.253   1.903  0.5016 -1.5296  1.7565
  762MOL0     H 2821   6.028   2.123   1.536  0.5777  0.1023 -0.4149
  762MOL0     H 2822   5.962   2.251   1.311  0.4656  0.2100 -0.3866
  762MOL0     H 2823   5.841   2.373   1.359  0.3673  1.8888 -2.5332
  762MOL0     H 2824   6.044   2.429   1.195 -0.7995 -2.2200  0.1047
  762MOL0     H 2825   5.979   2.553   1.310 -2.0781 -0.9859 -0.9774
  762MOL0     H 2826   6.206   2.365   1.378  2.1394  1.4593  2.1481
  762MOL0     H 2827   6.173   2.524   1.450 -1.6761 -1.0060  1.0535
  762MOL0     H 2828   6.250   2.635   1.228  2.1180  0.2399 -1.1435
  762MOL0     H 2829   6.273   2.479   1.161  0.3505  3.3255 -1.8007
  762MOL0     H 2830   6.402   2.684   1.082 -0.3818 -1.1480 -1.2360
  762MOL0     H 2831   6.612   2.779   0.984 -0.9942  0.4900 -0.5598
  762MOL0     H 2832   7.066   2.551   1.121 -1.5837  1.1159  0.1256
  762MOL0     H 2833   7.285   2.516   1.071 -0.0984  0.0346 -2.7698
  762MOL0     H 2834   7.515   2.511   1.056  1.2493 -0.9012  0.2348
  762MOL0     H 2835   7.466   2.555   0.891  0.7511 -0.4870  0.4304
  762MOL0     H 2836   7.717   2.475   0.918  0.3098  1.2073 -2.8795
  762MOL0     H 2837   7.681   2.612   0.823  1.7242 -0.5587 -0.4049
  762MOL0     H 2838   7.769   2.762   0.975 -1.4278 -0.0322  1.7933
  762MOL0     H 2839   7.769   2.635   1.102 -1.0702 -0.6922  0.6618
  762MOL0     H 2840   7.938   2.602   0.861 -1.5525  1.4639 -0.0104
  762MOL0     H 2841   7.935   2.499   1.008 -0.1405  0.1587  0.9769
  762MOL0     H 2842   7.988   2.735   1.129  0.7045  3.7373 -1.0178
  762MOL0     H 2843   8.044   2.776   0.961 -0.5473 -0.4181  0.1751
  762MOL0     H 2844   8.139   2.519   1.091  1.1079  0.5421  2.7285
  762MOL0     H 2845   8.212   2.612   0.959  1.0281 -0.7596  1.2747
  762MOL0     H 2846   8.200   2.784   1.197  1.4594  0.8038 -0.1178
  762MOL0     H 2847   8.322   2.758   1.088 -1.3229  0.5823 -0.0379
  762MOL0     H 2848   8.383   2.524   1.188  2.1705  1.9698  1.8513
  762MOL0     H 2849   8.419   2.654   1.280 -0.3088  0.0994  1.7286
  762MOL0     H 2850   7.373   2.937   1.085 -1.5930  1.1141 -0.7967
  762MOL0     H 2851   7.129   2.982   1.141  1.8768  0.5196  0.7411
  762MOL0     H 2852   6.814   2.663   1.350  1.2855 -1.1809 -0.5339
  762MOL0     H 2853   6.601   2.591   1.441  1.9111 -0.2416 -0.0616
  762MOL0     H 2854   6.978   1.681   1.555 -0.0961  0.6929  1.0379
  762MOL0     H 2855   7.195   1.542   1.503  2.3869 -1.0274  1.3116
  762MOL0     H 2856   7.672   1.670   1.408  2.3216 -0.4845 -0.5479
  762MOL0     H 2857   7.902   1.599   1.373 -1.2664 -0.8435 -1.1509
  762MOL0     H 2858   8.124   1.588   1.449  3.9699 -0.7667  2.4005
  762MOL0     H 2859   8.075   1.453   1.335  0.7135 -1.3475 -1.0577
  762MOL0     H 2860   8.310   1.453   1.535 -1.1828 -0.8926 -0.0038
  762MOL0     H 2861   8.313   1.480   1.362 -1.9501  0.2944 -1.0494
  762MOL0     H 2862   8.238   1.247   1.319 -3.8354 -1.0201  1.3626
  762MOL0     H 2863   8.190   1.219   1.483 -0.9678 -0.4424 -0.7485
  762MOL0     H 2864   8.424   1.233   1.559 -0.5920  2.6625 -0.7724
  762MOL0     H 2865   8.415   1.112   1.427  2.7325 -0.1755 -1.2669
  762MOL0     H 2866   8.683   1.410   1.275  0.3110  0.9863  1.3699
  762MOL0     H 2867   7.876   1.329   1.711 -2.1981 -0.4282  2.4376
  762MOL0     H 2868   7.579   1.395   1.839 -0.5895  2.0997 -0.9777
  762MOL0     H 2869   7.535   1.293   1.700  0.3210  2.1646 -2.2514
  762MOL0     H 2870   7.693   1.262   1.784  0.7417  0.1409 -1.0816
  763MOL0     O 2871   3.170   9.832   8.739  0.5895  0.3232  0.2947
  763MOL0     C 2872   3.122   9.736   8.804  0.0508 -0.2827 -0.3299
  763MOL0     O 2873   3.195   9.648   8.864 -0.0840  0.2730  0.0144
  763MOL0     C 2874   3.337   9.654   8.865 -0.3091  0.1660 -0.1887
  763MOL0     C 2875   3.389   9.535   8.909 -0.1020 -0.3940 -0.1826
  763MOL0     C 2876   3.523   9.513   8.933 -0.3411  0.4639  0.2158
  763MOL0     C 2877   3.608   9.622   8.903  0.4322  0.2843  0.9662
  763MOL0     O 2878   3.732   9.623   8.928 -0.2629  0.1886 -0.0181
  763MOL0     C 2879   3.762   9.579   9.063 -0.0399  0.1336  0.0895
  763MOL0     C 2880   3.905   9.627   9.087 -0.1776  0.1811 -0.7105
  763MOL0     C 2881   3.973   9.567   9.218 -0.3567 -0.7815 -0.1537
  763MOL0     C 2882   4.105   9.644   9.255 -0.0950 -0.2933  0.4272
  763MOL0     C 2883   4.155   9.587   9.388  0.4207 -0.1349  0.0480
  763MOL0     C 2884   4.311   9.580   9.403  0.3576  0.0525 -0.0475
  763MOL0     C 2885   4.391   9.712   9.397 -0.6234  0.3646 -0.4223
  763MOL0     C 2886   4.541   9.677   9.413 -0.2905  0.2721 -0.2902
  763MOL0     N 2887   4.618   9.799   9.443 -0.8244 -0.3235 -0.3452
  763MOL0     C 2888   4.652   9.894   9.356 -0.3165 -0.8509  0.3997
  763MOL0     C 2889   4.709   9.995   9.430 -0.4537  0.3380  0.2476
  763MOL0     C 2890   4.781  10.121   9.370 -0.1113  0.8159 -0.1105
  763MOL0     C 2891   4.934  10.110   9.402  1.0877  0.2640 -0.4069
  763MOL0     C 2892   5.005   9.993   9.333  0.4516 -0.1775  0.9792
  763MOL0     C 2893   5.147   9.977   9.386  0.3644  0.6613  0.4283
  763MOL0     O 2894   5.233  10.077   9.331  0.0921  0.0172 -0.4918
  763MOL0     C 2895   5.351  10.037   9.276 -0.4147 -0.2860 -0.3366
  763MOL0     C 2896   5.385  10.064   9.143  0.3647  0.2470  0.6017
  763MOL0     C 2897   5.515  10.036   9.096  0.4685  0.1763 -0.2997
  763MOL0     C 2898   5.616   9.979   9.180  0.4915 -0.9565 -0.1970
  763MOL0     C 2899   5.752   9.956   9.123  0.2842  0.8555 -0.4880
  763MOL0     O 2900   5.761   9.974   8.988  0.4574 -0.8623  0.5065
  763MOL0     C 2901   5.880   9.946   8.925  0.2303 -0.8054 -0.1362
  763MOL0     C 2902   5.864   9.904   8.791  0.2705 -0.2602  1.0454
  763MOL0     C 2903   5.976   9.888   8.710  0.3797  0.2502 -0.4873
  763MOL0     C 2904   6.105   9.905   8.759  0.3383  0.4232 -0.5556
  763MOL0     O 2905   6.208   9.886   8.671  0.1484  0.5496  0.3672
  763MOL0     C 2906   6.203   9.977   8.555 -0.0781 -0.1071 -0.5934
  763MOL0     C 2907   6.350  10.000   8.514  0.2442 -0.9594 -0.3621
  763MOL0     C 2908   6.445  10.034   8.628  0.1196  1.1841 -0.1525
  763MOL0     C 2909   6.591  10.059   8.573 -0.4465  0.1017 -0.4705
  763MOL0     C 2910   6.616  10.185   8.492 -0.2793  0.9453  0.1490
  763MOL0     C 2911   6.587  10.313   8.564 -0.5664 -0.3616 -0.9943
  763MOL0     C 2912   6.575  10.431   8.461  0.2006 -0.3610 -0.3548
  763MOL0     C 2913   6.518  10.562   8.537 -0.2243  0.1184  0.2618
  763MOL0    Cl 2914   6.464  10.679   8.420 -0.5148  0.3052 -0.2231
  763MOL0     C 2915   6.122   9.925   8.891  0.1763  0.6494 -0.2553
  763MOL0     C 2916   6.014   9.965   8.973  0.1734  0.2303 -0.0083
  763MOL0     O 2917   5.836   9.905   9.197 -0.4578  0.5986 -0.1653
  763MOL0     C 2918   5.588   9.958   9.316  0.2588  0.7499 -0.0722
  763MOL0     C 2919   5.456   9.988   9.364 -0.4755 -0.5576 -0.3220
  763MOL0     N 2920   4.707   9.953   9.564  0.1750  0.2142 -0.5865
  763MOL0     N 2921   4.648   9.842   9.568 -0.3934 -0.3451 -0.8122
  763MOL0     C 2922   3.556   9.742   8.854  0.4723 -0.0738 -0.4976
  763MOL0     C 2923   3.422   9.760   8.842 -0.2034  0.0088  0.0902
  763MOL0     C 2924   2.973   9.720   8.813  0.1026 -0.2500 -0.2142
  763MOL0     C 2925   2.910   9.619   8.732 -0.0642 -0.1216  1.1186
  763MOL0     C 2926   2.772   9.598   8.738 -0.4229 -0.1927 -0.2434
  763MOL0     C 2927   2.695   9.677   8.825  0.5691 -0.5429 -0.4153
  763MOL0     O 2928   2.562   9.689   8.856  0.5812 -0.2123 -0.9509
  763MOL0     C 2929   2.470   9.587   8.807  0.3436 -0.3062 -0.8260
  763MOL0     C 2930   2.421   9.496   8.920 -0.1045 -0.4319 -0.7592
  763MOL0     C 2931   2.327   9.563   9.019 -0.5888  0.1076 -0.0692
  763MOL0     C 2932   2.409   9.625   9.136  0.6508  0.9234  0.2702
  763MOL0     C 2933   2.315   9.695   9.216 -0.1919  0.3420 -1.6590
  763MOL0     C 2934   2.248   9.765   9.291  0.5254  0.8484 -0.4705
  763MOL0     C 2935   2.766   9.769   8.907  0.4538 -0.2291 -0.6361
  763MOL0     C 2936   2.900   9.800   8.899  0.9508 -0.3733 -0.3755
  763MOL0     C 2937   2.967   9.890   8.999 -0.7221  0.0793 -0.5457
  763MOL0     H 2938   3.321   9.451   8.923 -0.0974 -0.5756 -1.1972
  763MOL0     H 2939   3.572   9.420   8.961  1.5032  1.1021 -0.6573
  763MOL0     H 2940   3.696   9.628   9.135 -0.5030  1.2791 -1.0768
  763MOL0     H 2941   3.759   9.471   9.082  0.3382  0.4549  2.2251
  763MOL0     H 2942   3.908   9.736   9.089 -0.9958  0.2207  2.4433
  763MOL0     H 2943   3.967   9.585   9.007  1.3341 -0.8665  0.9183
  763MOL0     H 2944   4.008   9.464   9.205  1.3692 -0.0779 -1.4831
  763MOL0     H 2945   3.897   9.574   9.297 -2.7046 -2.1834 -2.1607
  763MOL0     H 2946   4.172   9.629   9.170 -1.8682  1.1939 -1.3271
  763MOL0     H 2947   4.088   9.752   9.257  0.1910 -0.1880 -1.3574
  763MOL0     H 2948   4.115   9.636   9.476  0.4577  2.1154 -1.1255
  763MOL0     H 2949   4.126   9.481   9.391 -0.0395 -0.0759 -1.4873
  763MOL0     H 2950   4.325   9.538   9.503 -1.2787 -0.9147 -0.1800
  763MOL0     H 2951   4.351   9.508   9.331 -0.8888 -0.6153 -0.1017
  763MOL0     H 2952   4.367   9.786   9.473 -0.7130 -0.6384  0.5518
  763MOL0     H 2953   4.376   9.752   9.296  3.5882 -0.6217 -1.6412
  763MOL0     H 2954   4.552   9.612   9.500  3.2450 -1.1392 -1.6325
  763MOL0     H 2955   4.579   9.635   9.320 -1.4666  2.6031 -1.9494
  763MOL0     H 2956   4.641   9.898   9.248 -1.4730  1.0362  0.5419
  763MOL0     H 2957   4.761  10.129   9.263 -1.4035  1.8430  0.1792
  763MOL0     H 2958   4.739  10.206   9.426  0.8237  1.2388 -0.0225
  763MOL0     H 2959   4.980  10.202   9.366  0.1118  0.4900 -1.1116
  763MOL0     H 2960   4.948  10.105   9.510  0.7992  0.3114 -0.3661
  763MOL0     H 2961   5.019  10.022   9.228  3.1410  2.0950  1.8299
  763MOL0     H 2962   4.957   9.895   9.336  0.5472 -0.3425 -1.1669
  763MOL0     H 2963   5.184   9.874   9.382  0.2930  0.6298  0.5461
  763MOL0     H 2964   5.140   9.995   9.493 -1.3759  1.3773  0.2288
  763MOL0     H 2965   5.303  10.096   9.079 -1.4736 -1.4311  1.9671
  763MOL0     H 2966   5.550  10.059   8.995  0.0811 -0.6523 -0.6315
  763MOL0     H 2967   5.771   9.898   8.736  0.0712  2.3866  0.9773
  763MOL0     H 2968   5.956   9.851   8.610 -3.1155 -1.0333  0.5191
  763MOL0     H 2969   6.140   9.937   8.475  0.0796 -1.0787 -0.2522
  763MOL0     H 2970   6.154  10.070   8.587 -1.0508 -1.5826  2.7074
  763MOL0     H 2971   6.386   9.908   8.468  0.8806 -1.4658  1.0716
  763MOL0     H 2972   6.357  10.080   8.440  0.3745  1.0883  1.7327
  763MOL0     H 2973   6.396  10.121   8.674 -1.4487 -1.0018  2.5799
  763MOL0     H 2974   6.439   9.951   8.699 -1.8043  1.4531  0.0574
  763MOL0     H 2975   6.629   9.972   8.519  2.3209  0.7333  0.2649
  763MOL0     H 2976   6.658  10.075   8.658  1.2472  1.5889 -1.9823
  763MOL0     H 2977   6.562  10.169   8.399  0.8414  1.1050 -0.5480
  763MOL0     H 2978   6.719  10.178   8.455 -0.4910 -4.1169 -0.1390
  763MOL0     H 2979   6.509  10.296   8.639 -0.5557 -0.7856 -1.0760
  763MOL0     H 2980   6.665  10.344   8.634 -4.2292  2.5221  2.3042
  763MOL0     H 2981   6.502  10.409   8.383 -0.3458  2.6964 -0.8462
  763MOL0     H 2982   6.677  10.439   8.421  0.8648 -0.6960  1.1932
  763MOL0     H 2983   6.429  10.526   8.589  0.9864 -3.2167  0.2787
  763MOL0     H 2984   6.598  10.603   8.600 -0.3618 -1.0157  1.2005
  763MOL0     H 2985   6.223   9.927   8.930  0.7110  1.9478 -1.6038
  763MOL0     H 2986   6.036  10.004   9.072 -0.8873  1.1400 -0.1103
  763MOL0     H 2987   5.666   9.935   9.388 -0.2286  0.3222  0.3288
  763MOL0     H 2988   5.442   9.992   9.472 -0.8357  1.5192 -0.4136
  763MOL0     H 2989   3.627   9.824   8.846  2.0872 -1.4038 -0.4503
  763MOL0     H 2990   3.366   9.853   8.829 -4.7515 -2.2710  1.1696
  763MOL0     H 2991   2.967   9.553   8.667 -0.2180  2.4102 -1.7567
  763MOL0     H 2992   2.739   9.514   8.677  0.5196  0.1090 -1.2050
  763MOL0     H 2993   2.518   9.523   8.732 -1.3689 -0.5929 -1.7131
  763MOL0     H 2994   2.393   9.644   8.755 -0.8015 -1.8660 -0.9148
  763MOL0     H 2995   2.511   9.465   8.974  0.9372  1.3252 -1.3794
  763MOL0     H 2996   2.366   9.411   8.879 -1.8610 -0.3030  1.1574
  763MOL0     H 2997   2.261   9.481   9.049 -1.3452  1.6672  2.9441
  763MOL0     H 2998   2.280   9.640   8.958  1.2158  0.7717 -0.6799
  763MOL0     H 2999   2.458   9.547   9.195  2.3740  0.5879 -1.5041
  763MOL0     H 3000   2.494   9.684   9.100  3.2749 -1.2337  2.5341
  763MOL0     H 3001   2.194   9.815   9.369 -0.0813  0.8908 -0.9110
  763MOL0     H 3002   2.714   9.826   8.983 -1.0599  0.7861 -2.3595
  763MOL0     H 3003   3.030   9.824   9.058  1.0981 -1.3064 -3.7958
  763MOL0     H 3004   3.037   9.963   8.958  0.9097 -1.7012 -1.0538
  763MOL0     H 3005   2.896   9.960   9.045  0.0518  1.5143 -1.4547
  764MOL0     O 3006   8.911   6.692  10.990 -0.2002 -0.4128 -0.5267
  764MOL0     C 3007   8.844   6.593  10.960 -0.8281 -1.5057 -0.0314
  764MOL0     O 3008   8.885   6.462  10.970 -0.4890  0.0044  0.6315
  764MOL0     C 3009   9.007   6.442  11.032  0.9583  0.3982 -0.5499
  764MOL0     C 3010   9.004   6.388  11.164 -0.5208  0.2084  0.0080
  764MOL0     C 3011   9.125   6.342  11.226 -0.2368 -0.1391  0.1555
  764MOL0     C 3012   9.247   6.359  11.168  0.5944  1.0818  0.2865
  764MOL0     O 3013   9.359   6.310  11.228 -0.1038  0.4263  0.9510
  764MOL0     C 3014   9.415   6.390  11.335  0.1622  0.1888  0.6070
  764MOL0     C 3015   9.541   6.463  11.284  0.2458 -0.9628 -0.1765
  764MOL0     C 3016   9.675   6.386  11.275 -0.1166 -0.9142  0.3298
  764MOL0     C 3017   9.686   6.279  11.175 -0.5806 -0.3626 -0.1801
  764MOL0     C 3018   9.825   6.235  11.150 -1.1643  0.0831 -0.1939
  764MOL0     C 3019   9.822   6.138  11.030 -0.6046 -0.4677  0.1118
  764MOL0     C 3020   9.968   6.083  10.992  0.0581 -0.8580 -0.9120
  764MOL0     C 3021   9.938   5.995  10.869 -0.1073 -0.0518 -0.8873
  764MOL0     N 3022  10.064   5.979  10.797 -0.7925  0.0502  0.1519
  764MOL0     C 3023  10.114   6.082  10.714  0.0252 -0.0704 -0.4417
  764MOL0     C 3024  10.202   6.016  10.632 -0.1952  0.7220  0.8634
  764MOL0     C 3025  10.286   6.073  10.515 -0.7499 -0.1796 -0.6954
  764MOL0     C 3026  10.438   6.087  10.559 -0.5240  0.9248  1.0460
  764MOL0     C 3027  10.515   5.962  10.564 -0.1834 -0.2141 -0.3734
  764MOL0     C 3028  10.660   5.978  10.621 -0.0113  0.0179  0.1049
  764MOL0     O 3029  10.734   6.081  10.554 -0.4915  0.1706 -0.0919
  764MOL0     C 3030  10.860   6.105  10.608  0.4424  0.2088 -0.0401
  764MOL0     C 3031  10.931   6.036  10.707 -0.1293 -0.1409 -0.1976
  764MOL0     C 3032  11.061   6.078  10.745  0.7863 -0.3518 -0.2149
  764MOL0     C 3033  11.117   6.190  10.688  0.3836  0.7191  0.5630
  764MOL0     C 3034  11.264   6.227  10.716 -0.0886  0.2442 -0.6659
  764MOL0     O 3035  11.308   6.346  10.671  0.2482  0.3229  0.1886
  764MOL0     C 3036  11.436   6.394  10.691  0.2129 -0.1912 -0.0913
  764MOL0     C 3037  11.458   6.517  10.635 -0.1580  0.1805 -0.1933
  764MOL0     C 3038  11.590   6.573  10.629  0.1462  0.2097  0.3997
  764MOL0     C 3039  11.702   6.510  10.675  0.8714 -0.0787 -0.4075
  764MOL0     O 3040  11.818   6.587  10.674 -0.1459  0.2106  0.7673
  764MOL0     C 3041  11.944   6.517  10.670  0.5513 -0.2021  0.3505
  764MOL0     C 3042  12.034   6.604  10.579  0.3635  0.0397 -0.2682
  764MOL0     C 3043  12.184   6.587  10.601 -2.3067 -0.6512 -0.3415
  764MOL0     C 3044  12.226   6.644  10.738 -0.6784  0.4439  0.2940
  764MOL0     C 3045  12.380   6.635  10.753  0.1665 -0.2139  1.1261
  764MOL0     C 3046  12.419   6.653  10.895  0.0863 -0.2707  1.0361
  764MOL0     C 3047  12.573   6.632  10.908  0.9302 -0.0288 -0.7372
  764MOL0     C 3048  12.642   6.722  11.010 -0.0466 -0.5549 -0.0802
  764MOL0    Cl 3049  12.813   6.685  10.996 -0.2607  0.3208  0.1731
  764MOL0     C 3050  11.679   6.387  10.746 -0.0607 -0.5296 -0.2035
  764MOL0     C 3051  11.547   6.325  10.741  0.7845  0.0491  0.8093
  764MOL0     O 3052  11.331   6.139  10.768 -0.2290  0.2840 -0.1121
  764MOL0     C 3053  11.052   6.257  10.585 -0.2141  0.4610  0.3256
  764MOL0     C 3054  10.929   6.210  10.541  0.1849  0.5180  0.4934
  764MOL0     N 3055  10.211   5.878  10.654  0.7326  0.5495  0.5719
  764MOL0     N 3056  10.118   5.856  10.749  0.0539 -0.3931  0.0390
  764MOL0     C 3057   9.251   6.420  11.041 -0.4864 -0.4994  1.0672
  764MOL0     C 3058   9.130   6.462  10.976 -0.5590 -0.6501 -0.0277
  764MOL0     C 3059   8.710   6.619  10.887  0.6083 -0.5506 -0.5004
  764MOL0     C 3060   8.664   6.503  10.824 -0.1090  0.4585  0.4287
  764MOL0     C 3061   8.535   6.504  10.769  0.0699  0.5171 -0.1105
  764MOL0     C 3062   8.468   6.628  10.767  0.2965  0.6358  0.3747
  764MOL0     O 3063   8.341   6.627  10.713 -0.0115  0.2584 -0.0054
  764MOL0     C 3064   8.303   6.734  10.624 -0.1395 -0.3996  0.0912
  764MOL0     C 3065   8.159   6.771  10.634 -0.2456 -0.6040 -0.3387
  764MOL0     C 3066   8.150   6.870  10.756 -0.1963 -0.3820 -0.4376
  764MOL0     C 3067   8.004   6.911  10.783 -0.4198  0.3111  0.1190
  764MOL0     C 3068   7.913   6.796  10.792 -0.4483  0.6507  0.1113
  764MOL0     C 3069   7.838   6.701  10.805  0.7624 -0.1560 -0.0461
  764MOL0     C 3070   8.511   6.742  10.837  0.3277 -0.8298 -0.1012
  764MOL0     C 3071   8.635   6.741  10.893 -0.5590  0.8812  0.1855
  764MOL0     C 3072   8.682   6.856  10.976 -0.5579  0.5451  0.2420
  764MOL0     H 3073   8.916   6.358  11.218 -0.4800 -0.2745 -0.1848
  764MOL0     H 3074   9.128   6.286  11.319 -1.7106 -1.5708 -0.6049
  764MOL0     H 3075   9.343   6.450  11.392  2.3018  1.8345  1.6948
  764MOL0     H 3076   9.437   6.319  11.415 -0.5827 -2.1960 -1.1496
  764MOL0     H 3077   9.559   6.539  11.361 -2.7190 -3.3485  3.1942
  764MOL0     H 3078   9.527   6.524  11.194 -3.0885  1.1654  1.5895
  764MOL0     H 3079   9.687   6.351  11.378 -1.1082  0.8321  1.0791
  764MOL0     H 3080   9.762   6.451  11.264 -1.3205  0.7911  0.4569
  764MOL0     H 3081   9.625   6.194  11.205 -0.6796  0.2059  1.3209
  764MOL0     H 3082   9.656   6.325  11.080  3.1065 -0.1811 -1.4094
  764MOL0     H 3083   9.903   6.310  11.135  1.6014 -2.1645  1.8794
  764MOL0     H 3084   9.865   6.179  11.235  1.5100  2.2003  0.0950
  764MOL0     H 3085   9.765   6.047  11.052  0.9304 -1.2245  1.1733
  764MOL0     H 3086   9.787   6.184  10.938 -1.0387  1.3104  1.1291
  764MOL0     H 3087  10.000   6.020  11.075 -1.1199 -0.0067  0.2405
  764MOL0     H 3088  10.030   6.168  10.962 -1.9221  0.2827 -2.0122
  764MOL0     H 3089   9.892   5.901  10.901  0.2126  0.2385  0.4750
  764MOL0     H 3090   9.860   6.036  10.804 -1.8532 -1.3922  0.2777
  764MOL0     H 3091  10.093   6.187  10.726 -2.6671 -0.5705 -0.1274
  764MOL0     H 3092  10.267   6.025  10.419 -2.9774 -2.3722  0.7037
  764MOL0     H 3093  10.245   6.173  10.498 -2.2066 -0.6408 -0.1161
  764MOL0     H 3094  10.480   6.154  10.483 -4.2666  2.1062 -0.1961
  764MOL0     H 3095  10.447   6.132  10.658 -3.1767 -0.5635  2.0453
  764MOL0     H 3096  10.525   5.924  10.461 -0.7462 -0.1723 -0.4453
  764MOL0     H 3097  10.466   5.891  10.631 -1.7019  2.6264  1.6852
  764MOL0     H 3098  10.712   5.884  10.605 -0.0539  0.3598 -2.5747
  764MOL0     H 3099  10.660   6.003  10.728 -0.0320 -2.8266  0.8531
  764MOL0     H 3100  10.888   5.946  10.749 -0.1074 -1.3057 -2.5377
  764MOL0     H 3101  11.115   6.016  10.816  0.2582  0.3117  0.7980
  764MOL0     H 3102  11.367   6.564  10.597 -0.2618 -0.1886 -0.4042
  764MOL0     H 3103  11.601   6.671  10.583  0.2689 -0.6737 -1.5591
  764MOL0     H 3104  11.974   6.502  10.774  0.8226  1.0209  0.4724
  764MOL0     H 3105  11.937   6.413  10.637 -1.0924 -0.1252  0.3719
  764MOL0     H 3106  12.003   6.586  10.476 -0.2477 -1.5439  0.1704
  764MOL0     H 3107  12.003   6.703  10.616 -2.2435 -1.3443  1.6156
  764MOL0     H 3108  12.204   6.480  10.588 -0.2248 -0.2388 -0.8853
  764MOL0     H 3109  12.240   6.645  10.528 -0.3566 -1.4644  0.4199
  764MOL0     H 3110  12.177   6.596  10.823  3.6970 -1.7039  1.9287
  764MOL0     H 3111  12.194   6.749  10.740  0.5609  0.8657 -0.3917
  764MOL0     H 3112  12.438   6.694  10.681 -0.0279 -0.3159  0.8866
  764MOL0     H 3113  12.413   6.533  10.733  1.2729  0.0425  1.5176
  764MOL0     H 3114  12.389   6.755  10.921  0.9836  1.3944 -3.5728
  764MOL0     H 3115  12.373   6.580  10.963  0.7720 -0.8338  0.9053
  764MOL0     H 3116  12.618   6.639  10.808  2.9117 -3.6095 -0.2754
  764MOL0     H 3117  12.593   6.527  10.934  1.8446 -0.7459 -3.8575
  764MOL0     H 3118  12.621   6.827  10.988  0.8464 -0.5088 -0.7672
  764MOL0     H 3119  12.603   6.697  11.109 -1.2641  0.1916 -0.3486
  764MOL0     H 3120  11.755   6.320  10.783 -0.1227 -1.1406 -1.1464
  764MOL0     H 3121  11.535   6.230  10.791  0.5862  0.0905  0.8386
  764MOL0     H 3122  11.095   6.344  10.536 -1.4104  1.0132  0.2117
  764MOL0     H 3123  10.871   6.263  10.466 -3.1070 -1.0060  1.7687
  764MOL0     H 3124   9.346   6.431  10.990 -0.4415  1.5572  1.4960
  764MOL0     H 3125   9.135   6.513  10.880 -2.3803 -1.9987 -0.9055
  764MOL0     H 3126   8.712   6.407  10.812 -0.8290  0.2009 -0.5298
  764MOL0     H 3127   8.498   6.414  10.723  0.2829 -0.7535  2.0582
  764MOL0     H 3128   8.330   6.704  10.523  1.7797 -0.7802  0.6654
  764MOL0     H 3129   8.367   6.822  10.638 -0.3673 -0.1104 -0.6472
  764MOL0     H 3130   8.111   6.672  10.634 -1.5748 -0.0369  2.0444
  764MOL0     H 3131   8.133   6.831  10.546 -0.6487  0.0948  0.2475
  764MOL0     H 3132   8.206   6.963  10.739 -0.1061 -0.0513  1.4297
  764MOL0     H 3133   8.206   6.827  10.840 -0.3429 -2.8608 -1.5418
  764MOL0     H 3134   8.003   6.953  10.884  5.6904 -0.6591  0.9571
  764MOL0     H 3135   7.962   6.980  10.709  1.4176  2.7224  1.1788
  764MOL0     H 3136   7.771   6.620  10.826 -2.4358  1.7916 -1.9545
  764MOL0     H 3137   8.454   6.833  10.847  1.4494 -0.0173 -0.8751
  764MOL0     H 3138   8.601   6.925  11.000  0.2148  1.2404  0.9108
  764MOL0     H 3139   8.717   6.830  11.077 -0.7602 -1.5477 -0.1859
  764MOL0     H 3140   8.771   6.905  10.934  1.5238 -0.7423  2.7907
  765MOL0     O 3141   9.750   4.505   4.955 -0.1961  0.1574  0.2772
  765MOL0     C 3142   9.630   4.499   4.921  0.1690  0.3567  0.2564
  765MOL0     O 3143   9.549   4.387   4.917 -0.3983 -0.2452  0.9039
  765MOL0     C 3144   9.610   4.267   4.955 -0.0079  0.3951  0.3962
  765MOL0     C 3145   9.572   4.155   4.874 -0.3095  1.0487  0.0372
  765MOL0     C 3146   9.623   4.027   4.907 -0.3412  0.1855 -0.7533
  765MOL0     C 3147   9.703   4.009   5.013  0.3035 -0.1699 -0.6634
  765MOL0     O 3148   9.772   3.897   5.052  0.6246 -0.0190  0.9163
  765MOL0     C 3149   9.746   3.773   4.980 -0.6511 -0.4261  0.1675
  765MOL0     C 3150   9.818   3.659   5.050 -0.3804 -0.8338  0.7610
  765MOL0     C 3151   9.811   3.523   4.985 -0.2432  0.1181 -1.8239
  765MOL0     C 3152   9.671   3.470   5.018 -0.8609  0.7104  0.3242
  765MOL0     C 3153   9.647   3.329   4.958 -0.4409 -0.2795 -1.0471
  765MOL0     C 3154   9.524   3.266   5.011 -0.2343 -0.0246 -0.2092
  765MOL0     C 3155   9.494   3.130   4.952  0.9505  0.0446  0.3323
  765MOL0     C 3156   9.605   3.039   4.975 -0.4251 -0.2777  0.1380
  765MOL0     N 3157   9.564   2.900   4.952  0.2407  0.9391 -0.4231
  765MOL0     C 3158   9.601   2.809   4.851 -0.5506 -0.0275  0.0135
  765MOL0     C 3159   9.527   2.692   4.874 -0.8047  0.6218 -0.7852
  765MOL0     C 3160   9.532   2.559   4.803  0.9697  0.6150 -0.8212
  765MOL0     C 3161   9.671   2.495   4.803  0.5638 -0.7741 -0.5642
  765MOL0     C 3162   9.710   2.459   4.952 -1.2463 -0.2317  0.4440
  765MOL0     C 3163   9.865   2.457   4.959  0.7888  0.3972 -0.9528
  765MOL0     O 3164   9.911   2.588   4.949  0.5880 -0.5119 -0.1530
  765MOL0     C 3165   9.947   2.649   5.067 -0.7869  0.9497 -0.6851
  765MOL0     C 3166  10.076   2.617   5.128  0.3766  0.4094  0.3003
  765MOL0     C 3167  10.112   2.681   5.245 -0.4960 -0.0131 -0.3968
  765MOL0     C 3168  10.032   2.764   5.308 -0.0422 -0.5264  0.0363
  765MOL0     C 3169  10.061   2.813   5.441  0.6631  1.4684 -0.2529
  765MOL0     O 3170  10.174   2.758   5.504  0.1459  0.6773  0.4317
  765MOL0     C 3171  10.219   2.796   5.632  0.1012 -0.6423  0.6772
  765MOL0     C 3172  10.133   2.845   5.740 -0.4330  0.6080  0.0020
  765MOL0     C 3173  10.188   2.871   5.869 -0.3994  0.2678  0.2125
  765MOL0     C 3174  10.325   2.837   5.889 -0.4526  0.3047 -0.0538
  765MOL0     O 3175  10.401   2.840   6.011 -0.2866 -0.2148  0.6774
  765MOL0     C 3176  10.328   2.907   6.119  0.1778 -0.2464 -0.8712
  765MOL0     C 3177  10.429   2.901   6.236 -0.3751 -0.2889 -0.2637
  765MOL0     C 3178  10.545   3.000   6.221 -0.5627 -0.3197 -0.2301
  765MOL0     C 3179  10.657   2.946   6.316  0.5987 -0.8240 -0.0336
  765MOL0     C 3180  10.768   3.042   6.318  0.0766 -0.0073  0.5836
  765MOL0     C 3181  10.884   2.986   6.396  0.6799 -0.1699 -0.3704
  765MOL0     C 3182  11.009   3.078   6.404  0.6844  0.1537  0.7307
  765MOL0     C 3183  11.091   3.040   6.525 -0.7058  0.1136  1.2312
  765MOL0    Cl 3184  11.181   2.876   6.521 -0.1689 -0.4195 -0.0788
  765MOL0     C 3185  10.403   2.787   5.786 -0.4282 -0.0278  0.5560
  765MOL0     C 3186  10.355   2.775   5.656 -0.1615  0.2423  0.5946
  765MOL0     O 3187   9.994   2.908   5.482  0.2158  0.0701 -0.5412
  765MOL0     C 3188   9.906   2.800   5.247 -1.0035  0.5956 -0.1522
  765MOL0     C 3189   9.869   2.747   5.125  0.4695 -0.3881  0.9541
  765MOL0     N 3190   9.438   2.714   4.980 -0.7852 -0.7494  0.0685
  765MOL0     N 3191   9.454   2.840   5.015 -0.5638  0.2791  0.2536
  765MOL0     C 3192   9.738   4.118   5.090  0.2368 -0.6552 -0.0786
  765MOL0     C 3193   9.689   4.250   5.070  0.3387 -0.4579  0.7842
  765MOL0     C 3194   9.568   4.631   4.888  0.5045  0.7674  0.7697
  765MOL0     C 3195   9.437   4.661   4.924 -0.8987 -0.0995  0.1388
  765MOL0     C 3196   9.379   4.786   4.904 -0.0446  0.1578 -0.2828
  765MOL0     C 3197   9.456   4.887   4.852  0.2718 -0.3211 -0.4234
  765MOL0     O 3198   9.403   5.011   4.843  0.5006  0.5577 -1.0747
  765MOL0     C 3199   9.477   5.130   4.853 -0.6889 -0.4786  0.2548
  765MOL0     C 3200   9.414   5.238   4.931 -0.6662  0.1399 -0.4361
  765MOL0     C 3201   9.262   5.239   4.933 -0.7402  0.4029 -0.8387
  765MOL0     C 3202   9.198   5.342   5.017  0.2127 -0.3312  0.3116
  765MOL0     C 3203   9.057   5.309   5.035 -0.3875 -0.6618 -0.2059
  765MOL0     C 3204   8.938   5.279   5.044 -0.4526  0.3829 -0.1232
  765MOL0     C 3205   9.579   4.857   4.797 -1.0282 -0.5322  0.0051
  765MOL0     C 3206   9.637   4.729   4.812  0.1791 -0.5941  0.1551
  765MOL0     C 3207   9.773   4.709   4.754  0.0652  0.3712  0.5918
  765MOL0     H 3208   9.502   4.157   4.791 -1.5703  0.2501  1.0357
  765MOL0     H 3209   9.591   3.944   4.845  1.0465  0.6576 -2.1621
  765MOL0     H 3210   9.638   3.756   4.987 -0.9693  1.4566  0.4542
  765MOL0     H 3211   9.781   3.782   4.876 -0.6027  1.7729  0.3262
  765MOL0     H 3212   9.787   3.660   5.155  0.2677  0.4233  0.9576
  765MOL0     H 3213   9.922   3.693   5.056 -0.0948 -1.6741  0.5786
  765MOL0     H 3214   9.882   3.450   5.025 -1.5718 -0.6128 -0.7093
  765MOL0     H 3215   9.835   3.526   4.878  4.4624  1.3017 -0.9620
  765MOL0     H 3216   9.661   3.462   5.126 -0.7792  0.4274  0.3128
  765MOL0     H 3217   9.589   3.531   4.979 -2.2878 -2.4620 -2.1552
  765MOL0     H 3218   9.628   3.342   4.851 -0.9449 -3.8220 -1.5192
  765MOL0     H 3219   9.740   3.275   4.980 -1.0765 -0.1825  2.3983
  765MOL0     H 3220   9.529   3.260   5.120 -0.4300  0.8700 -0.1433
  765MOL0     H 3221   9.443   3.336   4.990  0.2595  1.0859  1.4099
  765MOL0     H 3222   9.479   3.148   4.845 -2.2572  2.9133  1.0799
  765MOL0     H 3223   9.408   3.094   5.009  0.4713 -0.8475 -0.9282
  765MOL0     H 3224   9.692   3.059   4.912  0.7954 -0.9992  1.5547
  765MOL0     H 3225   9.646   3.050   5.075 -0.6061 -2.3737  0.4917
  765MOL0     H 3226   9.681   2.819   4.777 -0.8160 -1.7687 -0.5724
  765MOL0     H 3227   9.457   2.490   4.842  0.2213  1.7646 -0.1368
  765MOL0     H 3228   9.496   2.568   4.700  1.1184  0.5164 -0.8814
  765MOL0     H 3229   9.657   2.409   4.737 -0.6667 -1.1381  0.1418
  765MOL0     H 3230   9.741   2.570   4.765 -0.3536  1.3639  1.6688
  765MOL0     H 3231   9.675   2.365   4.996 -1.2672 -2.2006 -3.4246
  765MOL0     H 3232   9.687   2.541   5.020  1.4728  1.9515 -1.0366
  765MOL0     H 3233   9.894   2.393   4.875  0.9694 -4.3840  2.3286
  765MOL0     H 3234   9.900   2.417   5.054  2.9596  2.5336 -0.7680
  765MOL0     H 3235  10.149   2.549   5.085  0.7462  1.4164 -0.7230
  765MOL0     H 3236  10.209   2.666   5.291 -1.2294  0.9704  1.5921
  765MOL0     H 3237  10.029   2.871   5.722 -0.2517  0.5680 -1.1563
  765MOL0     H 3238  10.137   2.914   5.954  0.1232 -0.6932  1.0407
  765MOL0     H 3239  10.296   3.008   6.092  3.9061  0.6130 -2.8649
  765MOL0     H 3240  10.239   2.853   6.150  0.9734 -0.8493  0.4666
  765MOL0     H 3241  10.380   2.928   6.330 -0.0104  3.3831 -0.9752
  765MOL0     H 3242  10.470   2.800   6.240  0.1273 -0.0687  0.2129
  765MOL0     H 3243  10.591   2.996   6.122 -0.6874 -1.6655 -0.2574
  765MOL0     H 3244  10.515   3.101   6.249  1.6015 -0.2649  2.2134
  765MOL0     H 3245  10.688   2.845   6.285 -2.1908 -1.6295 -0.4971
  765MOL0     H 3246  10.616   2.926   6.415 -0.4951 -0.8839 -0.4853
  765MOL0     H 3247  10.739   3.132   6.373  0.3474 -1.8966  4.1423
  765MOL0     H 3248  10.809   3.053   6.217 -0.8579 -1.9816 -0.0666
  765MOL0     H 3249  10.854   2.953   6.496 -2.7897  0.5331 -1.0494
  765MOL0     H 3250  10.917   2.893   6.350  0.0634  0.0127 -1.2104
  765MOL0     H 3251  10.966   3.178   6.416 -0.2268 -0.5192  3.8949
  765MOL0     H 3252  11.063   3.068   6.309 -2.8231 -1.4976 -1.2774
  765MOL0     H 3253  11.168   3.117   6.529 -1.3190  0.7626  0.8985
  765MOL0     H 3254  11.025   3.051   6.612 -1.4769 -2.8783  1.1098
  765MOL0     H 3255  10.503   2.749   5.808  0.1904  1.3445  0.2110
  765MOL0     H 3256  10.426   2.733   5.586  2.2136  1.3043  2.2404
  765MOL0     H 3257   9.839   2.874   5.291 -1.8642 -0.0349 -0.3599
  765MOL0     H 3258   9.783   2.782   5.070  0.3979 -0.9532  0.6892
  765MOL0     H 3259   9.801   4.101   5.177 -3.0544 -0.4397  2.5487
  765MOL0     H 3260   9.707   4.337   5.132  3.5823  1.8610 -2.9569
  765MOL0     H 3261   9.380   4.584   4.977  3.5030 -3.3627  0.7042
  765MOL0     H 3262   9.275   4.807   4.927 -0.0263 -0.0832  0.0372
  765MOL0     H 3263   9.496   5.173   4.754  2.6952 -0.4856  0.7873
  765MOL0     H 3264   9.572   5.113   4.906 -2.1628 -1.9601  2.6284
  765MOL0     H 3265   9.445   5.333   4.886  0.3023  0.8784  1.6429
  765MOL0     H 3266   9.465   5.235   5.028  1.3558 -1.2085 -1.4615
  765MOL0     H 3267   9.236   5.143   4.979 -1.6455  0.9685 -0.1196
  765MOL0     H 3268   9.222   5.251   4.831 -0.4501 -2.6945 -1.4329
  765MOL0     H 3269   9.243   5.360   5.116  0.5469  4.3182 -0.4666
  765MOL0     H 3270   9.211   5.439   4.968 -0.6607  0.1557  1.0108
  765MOL0     H 3271   8.842   5.231   5.046 -0.2346 -0.0658 -0.0639
  765MOL0     H 3272   9.637   4.930   4.740 -1.8290  0.3961  0.3519
  765MOL0     H 3273   9.851   4.762   4.809  0.0074  0.8329  0.2345
  765MOL0     H 3274   9.793   4.603   4.736  1.1438  0.5720  0.5439
  765MOL0     H 3275   9.768   4.752   4.654 -0.5055 -0.1720  0.3778
  766MOL0     O 3276   8.947   4.201   8.866  0.1452  0.2484 -0.5846
  766MOL0     C 3277   9.012   4.128   8.940 -0.0743 -0.3809 -0.3207
  766MOL0     O 3278   9.143   4.101   8.925  0.0502 -0.4640  0.5100
  766MOL0     C 3279   9.216   4.155   8.822 -0.8043  0.4462  0.6683
  766MOL0     C 3280   9.348   4.212   8.841 -0.2975  0.7306  0.0554
  766MOL0     C 3281   9.427   4.248   8.731  0.2661 -0.5914  0.8175
  766MOL0     C 3282   9.381   4.224   8.597 -0.0933 -0.1883  0.6425
  766MOL0     O 3283   9.475   4.254   8.503  0.0016  0.7977  0.1464
  766MOL0     C 3284   9.436   4.322   8.383 -0.1539  0.0154 -0.5809
  766MOL0     C 3285   9.547   4.435   8.366  0.7738  0.0731 -0.3361
  766MOL0     C 3286   9.691   4.388   8.361 -0.6669 -0.1660 -0.2487
  766MOL0     C 3287   9.780   4.474   8.281 -0.4266 -0.3910  0.0147
  766MOL0     C 3288   9.925   4.423   8.273  0.3044 -0.2113  0.5331
  766MOL0     C 3289   9.979   4.395   8.408 -0.4002 -0.7585  0.0074
  766MOL0     C 3290  10.127   4.404   8.419  0.1798 -0.5154  0.1596
  766MOL0     C 3291  10.212   4.290   8.393 -0.5794 -0.4803  0.4073
  766MOL0     N 3292  10.359   4.331   8.403 -0.5692  0.1992 -0.0750
  766MOL0     C 3293  10.448   4.267   8.478  0.9119 -0.0381 -0.3129
  766MOL0     C 3294  10.567   4.330   8.468 -0.2696 -0.0577  0.2980
  766MOL0     C 3295  10.700   4.289   8.529  0.0214  0.1707 -0.5821
  766MOL0     C 3296  10.751   4.178   8.435  0.4477  0.8463 -0.5977
  766MOL0     C 3297  10.876   4.104   8.475 -0.2830  0.2268  0.4404
  766MOL0     C 3298  10.989   4.205   8.532  0.6734  0.3351 -0.9898
  766MOL0     O 3299  11.110   4.135   8.522 -0.1545 -0.4369  0.2173
  766MOL0     C 3300  11.223   4.191   8.567  0.6411 -0.2158  0.0790
  766MOL0     C 3301  11.242   4.334   8.579 -0.6167  0.6639 -0.2827
  766MOL0     C 3302  11.369   4.378   8.611  0.5407 -0.4563  0.0366
  766MOL0     C 3303  11.478   4.290   8.629  0.0762 -0.3605  1.2017
  766MOL0     C 3304  11.615   4.338   8.665  0.5079 -0.4056 -0.2107
  766MOL0     O 3305  11.696   4.242   8.721 -0.7718 -0.0200  0.0313
  766MOL0     C 3306  11.803   4.279   8.791  0.0943 -0.6397 -0.5136
  766MOL0     C 3307  11.913   4.350   8.743  0.0056  0.0324 -0.4132
  766MOL0     C 3308  12.038   4.366   8.809  0.7268 -0.1271  0.0448
  766MOL0     C 3309  12.058   4.303   8.929  1.0388 -0.8447  0.5272
  766MOL0     O 3310  12.178   4.302   8.996  0.0822  0.2365 -0.6653
  766MOL0     C 3311  12.298   4.283   8.908  0.9530  0.7729 -0.3382
  766MOL0     C 3312  12.437   4.270   8.975 -0.8152 -0.0692  0.3829
  766MOL0     C 3313  12.441   4.222   9.120 -0.3492  0.5764  0.1593
  766MOL0     C 3314  12.587   4.223   9.186  0.0695 -0.0047  0.3107
  766MOL0     C 3315  12.667   4.103   9.149 -0.4966  0.2871  0.0572
  766MOL0     C 3316  12.811   4.117   9.218  0.0973  0.6346 -0.2548
  766MOL0     C 3317  12.893   3.989   9.180 -0.0430 -0.1415  0.4931
  766MOL0     C 3318  12.852   3.861   9.249  1.2686 -0.3020  0.5302
  766MOL0    Cl 3319  12.994   3.745   9.243 -0.0417  0.1852  0.0071
  766MOL0     C 3320  11.955   4.222   8.977 -0.2200  0.8294 -0.3945
  766MOL0     C 3321  11.827   4.207   8.911 -0.3926 -0.3096  0.2912
  766MOL0     O 3322  11.637   4.463   8.658 -0.2105 -1.5474 -0.2603
  766MOL0     C 3323  11.455   4.152   8.606  0.0509 -0.4456  0.2077
  766MOL0     C 3324  11.328   4.102   8.581 -0.3463 -0.1099 -0.4822
  766MOL0     N 3325  10.551   4.437   8.383  0.0522  0.3844  0.3965
  766MOL0     N 3326  10.423   4.442   8.352 -0.4614 -0.3634  0.0439
  766MOL0     C 3327   9.259   4.163   8.584  0.8747  0.8559  0.5496
  766MOL0     C 3328   9.178   4.129   8.689 -0.2276 -0.0342 -0.0043
  766MOL0     C 3329   8.944   4.062   9.047 -0.8589 -0.1831  0.2801
  766MOL0     C 3330   8.804   4.045   9.037 -0.3688 -0.1088  0.3499
  766MOL0     C 3331   8.730   3.989   9.142 -0.6938 -0.0767 -0.5432
  766MOL0     C 3332   8.790   3.950   9.260  0.7416  0.0115 -0.3779
  766MOL0     O 3333   8.711   3.894   9.360  0.1682 -0.1783  0.4914
  766MOL0     C 3334   8.718   3.976   9.478 -0.5868 -0.1069  0.3869
  766MOL0     C 3335   8.628   3.936   9.585 -0.4406 -0.7032  0.1219
  766MOL0     C 3336   8.678   3.803   9.645  0.3142  0.1294  0.1500
  766MOL0     C 3337   8.609   3.675   9.592  0.9819  0.3219  0.3608
  766MOL0     C 3338   8.477   3.658   9.654  0.4296 -0.0426 -0.1217
  766MOL0     C 3339   8.363   3.660   9.695 -0.2789  0.9293 -0.1743
  766MOL0     C 3340   8.924   3.958   9.261 -0.4206  0.0957 -0.5635
  766MOL0     C 3341   9.007   4.016   9.163 -0.0498  0.5256  0.7234
  766MOL0     C 3342   9.156   4.017   9.190  0.4732  0.1961 -0.9851
  766MOL0     H 3343   9.390   4.219   8.941  3.1272 -0.6346 -1.1271
  766MOL0     H 3344   9.527   4.289   8.729  0.8006 -1.8637 -0.5953
  766MOL0     H 3345   9.452   4.254   8.298 -0.5467 -1.3127  0.3855
  766MOL0     H 3346   9.331   4.352   8.375 -1.0607 -1.4534  3.4777
  766MOL0     H 3347   9.541   4.502   8.452 -2.3704 -2.1519  1.3876
  766MOL0     H 3348   9.525   4.494   8.276  0.5980  0.2036 -0.2090
  766MOL0     H 3349   9.698   4.285   8.325  1.4428 -0.2432  0.2848
  766MOL0     H 3350   9.724   4.393   8.465 -1.0793 -0.1684 -0.1128
  766MOL0     H 3351   9.749   4.483   8.177  3.0914 -3.5130 -1.4865
  766MOL0     H 3352   9.782   4.575   8.325 -2.3383  0.0855 -0.8507
  766MOL0     H 3353   9.930   4.327   8.221 -2.3061 -0.5223  0.7130
  766MOL0     H 3354   9.989   4.493   8.219  2.4861 -1.0788  1.8782
  766MOL0     H 3355   9.945   4.481   8.466 -1.1793 -0.9144 -0.2053
  766MOL0     H 3356   9.931   4.307   8.452 -0.6519 -0.8209 -0.3882
  766MOL0     H 3357  10.149   4.435   8.521 -1.1580  0.4247  0.1844
  766MOL0     H 3358  10.163   4.488   8.359 -1.0060  0.0878  0.2585
  766MOL0     H 3359  10.198   4.214   8.471 -0.5081  0.7152  1.6169
  766MOL0     H 3360  10.186   4.259   8.292  0.8934  0.9438 -0.4471
  766MOL0     H 3361  10.429   4.175   8.532  0.4358 -0.5978 -1.4037
  766MOL0     H 3362  10.774   4.368   8.542  1.4629 -1.3675  1.0033
  766MOL0     H 3363  10.684   4.237   8.624 -0.8118 -0.9752 -1.3319
  766MOL0     H 3364  10.678   4.099   8.417 -2.0258  3.2647 -1.9078
  766MOL0     H 3365  10.768   4.221   8.335  0.9897 -1.5013 -1.6024
  766MOL0     H 3366  10.914   4.053   8.386  1.6041 -0.8588  1.7950
  766MOL0     H 3367  10.860   4.026   8.551  1.3791  1.1225  1.7942
  766MOL0     H 3368  10.963   4.233   8.634 -1.1166  1.6388 -1.7562
  766MOL0     H 3369  10.977   4.294   8.470  0.0580  0.7158 -0.3345
  766MOL0     H 3370  11.160   4.404   8.566  0.4405  1.7641 -1.2536
  766MOL0     H 3371  11.381   4.486   8.617  1.5127 -0.5672  0.2374
  766MOL0     H 3372  11.906   4.381   8.640  0.2915 -2.1798 -1.1470
  766MOL0     H 3373  12.114   4.430   8.765  1.0801 -0.2017  0.5353
  766MOL0     H 3374  12.276   4.188   8.858 -2.0776  2.2182 -1.9855
  766MOL0     H 3375  12.309   4.367   8.839  1.5052  1.4631  0.5626
  766MOL0     H 3376  12.510   4.214   8.916 -0.3437 -0.3326  1.1944
  766MOL0     H 3377  12.479   4.369   8.990 -0.0507 -0.3253 -0.0465
  766MOL0     H 3378  12.382   4.284   9.189 -0.9725 -2.1767  2.2631
  766MOL0     H 3379  12.401   4.121   9.126  4.1275 -1.3050  1.9517
  766MOL0     H 3380  12.579   4.219   9.295  0.0671  1.3513  0.3717
  766MOL0     H 3381  12.644   4.312   9.157  1.6976 -1.2242 -0.3771
  766MOL0     H 3382  12.676   4.101   9.040  1.1238 -0.1588  0.1668
  766MOL0     H 3383  12.621   4.008   9.176 -0.0064 -0.4292 -1.5284
  766MOL0     H 3384  12.857   4.207   9.176  2.3286 -1.4761 -2.6438
  766MOL0     H 3385  12.806   4.133   9.326 -0.9492  0.4000 -0.2553
  766MOL0     H 3386  12.994   4.010   9.215  0.6999  1.6028 -2.4158
  766MOL0     H 3387  12.900   3.976   9.072  1.0586  0.9276  0.4151
  766MOL0     H 3388  12.828   3.891   9.352  0.0132  0.2885  0.0811
  766MOL0     H 3389  12.768   3.827   9.187  2.0016 -0.4474 -0.4018
  766MOL0     H 3390  11.958   4.175   9.075 -2.5757  0.3561 -0.4941
  766MOL0     H 3391  11.740   4.151   8.946 -1.5312  1.0041 -0.3578
  766MOL0     H 3392  11.531   4.076   8.617  1.4879  0.7070 -1.2222
  766MOL0     H 3393  11.305   3.996   8.571 -1.0022  0.1560 -2.1517
  766MOL0     H 3394   9.238   4.124   8.485  1.1409  0.5017  0.6303
  766MOL0     H 3395   9.098   4.059   8.669  3.0488 -3.2359 -3.6910
  766MOL0     H 3396   8.748   4.065   8.946  1.4938 -0.1722 -0.8681
  766MOL0     H 3397   8.623   3.970   9.146 -0.6891 -0.0051  0.1574
  766MOL0     H 3398   8.693   4.078   9.448  2.0416  0.3257 -0.6236
  766MOL0     H 3399   8.823   3.991   9.506 -0.0040 -2.3542 -0.3235
  766MOL0     H 3400   8.527   3.934   9.543 -1.2403 -1.0944  1.9347
  766MOL0     H 3401   8.637   4.020   9.655  2.6858 -1.0252  0.2700
  766MOL0     H 3402   8.663   3.809   9.753 -0.6981 -0.1259  0.0312
  766MOL0     H 3403   8.786   3.790   9.633  0.5309  2.8279 -1.8173
  766MOL0     H 3404   8.592   3.685   9.485 -0.7940  1.4934  0.7089
  766MOL0     H 3405   8.671   3.587   9.613  0.1563  0.2088  2.7035
  766MOL0     H 3406   8.264   3.656   9.734 -0.1004 -3.1982  0.3193
  766MOL0     H 3407   8.982   3.917   9.344  1.7385  0.4731 -1.8059
  766MOL0     H 3408   9.184   4.003   9.294 -3.9371  1.6276  0.6181
  766MOL0     H 3409   9.195   3.929   9.137 -1.4881 -0.1532 -1.9417
  766MOL0     H 3410   9.213   4.104   9.156  0.3150  0.1790 -1.3049
  767MOL0     O 3411  10.347   3.065   2.401 -0.1903  0.8158  0.5660
  767MOL0     C 3412  10.303   3.168   2.345 -0.0159  0.2876 -0.0889
  767MOL0     O 3413  10.370   3.236   2.251 -0.4717  1.2499  0.3353
  767MOL0     C 3414  10.501   3.204   2.236  0.4165  0.2622 -0.4598
  767MOL0     C 3415  10.594   3.263   2.323 -0.2284 -0.0792  0.8354
  767MOL0     C 3416  10.729   3.241   2.296 -0.7280  0.1921 -0.1588
  767MOL0     C 3417  10.775   3.157   2.197  0.0915  0.3166  0.4655
  767MOL0     O 3418  10.916   3.144   2.188  0.3809  0.5916 -0.6192
  767MOL0     C 3419  10.977   3.164   2.066  0.0224  0.1052 -0.1925
  767MOL0     C 3420  11.129   3.194   2.087 -0.5354 -0.9165  0.1126
  767MOL0     C 3421  11.154   3.306   2.168 -0.5161 -0.7436 -0.3313
  767MOL0     C 3422  11.309   3.316   2.169 -0.4581 -1.4237  1.2148
  767MOL0     C 3423  11.346   3.445   2.246 -1.0806  0.5756 -0.5712
  767MOL0     C 3424  11.395   3.425   2.397  0.4273 -0.2710  0.1368
  767MOL0     C 3425  11.531   3.348   2.418  1.0943  0.1294  0.6170
  767MOL0     C 3426  11.648   3.423   2.361  0.0134 -0.2772 -0.7028
  767MOL0     N 3427  11.779   3.380   2.419  0.3633  0.7323  0.1349
  767MOL0     C 3428  11.821   3.257   2.422  0.1748 -0.0197  0.1886
  767MOL0     C 3429  11.926   3.246   2.515  0.2707 -0.3946  0.2506
  767MOL0     C 3430  11.987   3.127   2.578  0.3292 -0.2627 -0.6680
  767MOL0     C 3431  12.117   3.104   2.501  0.2423  0.2058 -0.0522
  767MOL0     C 3432  12.229   3.059   2.595 -0.4414 -0.4127 -0.1302
  767MOL0     C 3433  12.356   3.005   2.521  0.2669  0.5864 -0.1177
  767MOL0     O 3434  12.423   2.915   2.608  0.2321  1.0965  0.5043
  767MOL0     C 3435  12.561   2.893   2.602  0.0732  0.0397  0.7971
  767MOL0     C 3436  12.614   2.792   2.679  0.5815 -0.9536 -0.7825
  767MOL0     C 3437  12.750   2.762   2.677 -0.8629  0.5428  0.1120
  767MOL0     C 3438  12.838   2.823   2.592 -0.4032  1.1803  0.1602
  767MOL0     C 3439  12.979   2.795   2.613  0.3819  0.1080  0.0071
  767MOL0     O 3440  13.068   2.877   2.550 -0.2091 -0.4457  0.0443
  767MOL0     C 3441  13.197   2.877   2.580 -0.5580 -0.4939  0.2671
  767MOL0     C 3442  13.291   2.814   2.493  0.3232  0.0977 -0.2048
  767MOL0     C 3443  13.427   2.820   2.518 -0.4967 -0.9653 -0.4746
  767MOL0     C 3444  13.480   2.905   2.619 -0.6943  0.3304  0.2674
  767MOL0     O 3445  13.609   2.937   2.629 -0.3055 -0.3879 -0.1739
  767MOL0     C 3446  13.706   2.853   2.561 -0.3779 -0.5427 -0.5353
  767MOL0     C 3447  13.843   2.865   2.625 -0.4614 -0.8130  1.0626
  767MOL0     C 3448  13.837   2.852   2.782  0.0776  0.1081  0.8925
  767MOL0     C 3449  13.977   2.840   2.838 -0.7301 -0.5942 -0.4996
  767MOL0     C 3450  14.057   2.972   2.831  0.0334  1.0033  0.5042
  767MOL0     C 3451  14.196   2.950   2.893 -0.9178  0.4025 -0.4788
  767MOL0     C 3452  14.255   3.090   2.929  0.0385  0.6796  0.4432
  767MOL0     C 3453  14.395   3.068   2.991  1.9288  0.3895  0.4662
  767MOL0    Cl 3454  14.390   2.978   3.144 -0.1087 -0.0597 -0.1360
  767MOL0     C 3455  13.387   2.973   2.697  0.0979 -0.1842 -0.0048
  767MOL0     C 3456  13.248   2.962   2.683  0.1202  0.7513 -0.6097
  767MOL0     O 3457  13.014   2.697   2.679  0.4875 -0.6430  0.1487
  767MOL0     C 3458  12.785   2.918   2.497  0.1984 -0.2486 -0.7358
  767MOL0     C 3459  12.647   2.947   2.505 -0.0328 -0.2684  0.1819
  767MOL0     N 3460  11.949   3.379   2.549  0.2878 -0.5201 -0.3789
  767MOL0     N 3461  11.858   3.452   2.504  0.0905 -0.4847  0.8195
  767MOL0     C 3462  10.680   3.094   2.115  1.1455 -0.2543  0.1868
  767MOL0     C 3463  10.545   3.117   2.132  0.2083 -0.5369  0.5314
  767MOL0     C 3464  10.181   3.229   2.389 -0.2886 -0.3987 -0.4591
  767MOL0     C 3465  10.069   3.144   2.405  0.2690 -0.1431 -0.0181
  767MOL0     C 3466   9.940   3.186   2.429 -0.0252 -0.0771  0.2382
  767MOL0     C 3467   9.917   3.320   2.430  0.4156  0.4672 -1.2658
  767MOL0     O 3468   9.794   3.379   2.431  0.7858 -0.3262  0.1102
  767MOL0     C 3469   9.686   3.306   2.492  0.5941  1.0100  0.1359
  767MOL0     C 3470   9.616   3.405   2.587 -0.3239  0.2156 -0.5818
  767MOL0     C 3471   9.472   3.368   2.632  0.4291  0.3645 -0.9441
  767MOL0     C 3472   9.409   3.475   2.720 -0.6016  0.6875 -1.0728
  767MOL0     C 3473   9.386   3.603   2.654 -0.2707 -0.1578 -0.1675
  767MOL0     C 3474   9.362   3.697   2.584 -0.0883  0.4151  0.1103
  767MOL0     C 3475  10.024   3.411   2.426 -0.1826 -0.4077  0.2678
  767MOL0     C 3476  10.156   3.364   2.400  0.0474  0.4529 -0.5811
  767MOL0     C 3477  10.269   3.471   2.399  0.5368 -0.5281 -0.3599
  767MOL0     H 3478  10.566   3.321   2.411 -2.9342  0.0124 -0.0009
  767MOL0     H 3479  10.800   3.298   2.356 -1.4752 -1.6361  2.6540
  767MOL0     H 3480  10.960   3.086   1.992 -3.5544  0.2272  0.2972
  767MOL0     H 3481  10.932   3.257   2.029 -1.3955 -0.6827 -0.5169
  767MOL0     H 3482  11.187   3.202   1.994  1.8238  1.1465  1.6377
  767MOL0     H 3483  11.169   3.107   2.141 -0.3445 -0.5316  0.5969
  767MOL0     H 3484  11.117   3.286   2.269  1.9089  0.7213  0.9329
  767MOL0     H 3485  11.106   3.399   2.137  2.3982  1.3224  0.8791
  767MOL0     H 3486  11.355   3.221   2.199  0.3429 -1.3887  0.1651
  767MOL0     H 3487  11.343   3.341   2.068  1.5108  1.6294  2.4756
  767MOL0     H 3488  11.432   3.494   2.200  0.9009 -1.7868  0.3679
  767MOL0     H 3489  11.263   3.515   2.249  1.3849  3.6787  1.9802
  767MOL0     H 3490  11.418   3.515   2.454  2.5787  0.0425 -1.1132
  767MOL0     H 3491  11.312   3.376   2.449 -2.7862  3.9477 -0.4979
  767MOL0     H 3492  11.534   3.242   2.389  1.5159 -0.1801  1.7322
  767MOL0     H 3493  11.543   3.346   2.527 -2.4400 -0.8581  1.1313
  767MOL0     H 3494  11.649   3.425   2.251 -1.2289 -0.1743 -0.7171
  767MOL0     H 3495  11.651   3.528   2.392  0.2838 -0.1759 -1.0592
  767MOL0     H 3496  11.768   3.169   2.388  1.5080 -1.8573  2.4878
  767MOL0     H 3497  12.005   3.144   2.685 -0.6478 -3.9223  0.2160
  767MOL0     H 3498  11.919   3.042   2.575 -1.2798  0.7195  2.5327
  767MOL0     H 3499  12.103   3.030   2.422 -1.5237  0.4686 -0.0238
  767MOL0     H 3500  12.146   3.200   2.457 -1.8433  1.4270  1.0530
  767MOL0     H 3501  12.184   2.981   2.657 -3.0006  1.7685  0.9640
  767MOL0     H 3502  12.248   3.139   2.667 -0.1928 -0.5430 -0.0500
  767MOL0     H 3503  12.413   3.097   2.503 -0.5203  0.9041 -1.0809
  767MOL0     H 3504  12.334   2.966   2.421 -1.2327  1.2854 -0.0968
  767MOL0     H 3505  12.540   2.737   2.737  0.2529 -0.1389 -0.4211
  767MOL0     H 3506  12.786   2.678   2.735 -0.2482 -1.4545 -2.8926
  767MOL0     H 3507  13.258   2.754   2.409 -2.1650 -1.1170  1.5105
  767MOL0     H 3508  13.491   2.772   2.445 -0.2343  2.2267 -2.5364
  767MOL0     H 3509  13.676   2.749   2.573  1.1510 -0.7091  3.1846
  767MOL0     H 3510  13.711   2.891   2.459  2.1539  1.0009  0.0646
  767MOL0     H 3511  13.912   2.798   2.573  1.8109  1.1610  1.2979
  767MOL0     H 3512  13.878   2.968   2.613  1.0336 -1.1736  2.0403
  767MOL0     H 3513  13.786   2.942   2.817 -0.7045  0.0028  0.0555
  767MOL0     H 3514  13.763   2.778   2.813  1.3520 -3.0103 -2.7627
  767MOL0     H 3515  14.025   2.758   2.783  0.9534  0.7354 -1.0787
  767MOL0     H 3516  13.976   2.815   2.944  0.4053  4.2599  0.9074
  767MOL0     H 3517  13.991   3.044   2.880 -1.6463 -0.4535  0.4973
  767MOL0     H 3518  14.074   3.004   2.728  0.0568  0.3139  0.2926
  767MOL0     H 3519  14.188   2.894   2.987 -1.0772  2.8912  1.1078
  767MOL0     H 3520  14.259   2.885   2.832  2.6957  0.9895  2.2488
  767MOL0     H 3521  14.189   3.149   2.992 -1.4644 -0.4494 -0.0058
  767MOL0     H 3522  14.273   3.145   2.837  3.4779  0.0823  0.6176
  767MOL0     H 3523  14.444   3.010   2.911 -0.6600 -1.2964 -0.0485
  767MOL0     H 3524  14.442   3.166   2.997 -2.6738  3.1625 -2.2991
  767MOL0     H 3525  13.420   3.054   2.761  2.2067  0.9954 -2.4260
  767MOL0     H 3526  13.174   3.011   2.746  0.4354 -1.7038  1.8960
  767MOL0     H 3527  12.852   2.969   2.429  2.2149 -1.2036  0.4624
  767MOL0     H 3528  12.606   3.002   2.421  1.7976 -0.0691 -0.6391
  767MOL0     H 3529  10.707   3.028   2.034 -3.1736  0.3108 -1.9955
  767MOL0     H 3530  10.471   3.065   2.072 -1.2801 -1.3086  2.8795
  767MOL0     H 3531  10.083   3.037   2.404 -3.1879 -0.7367  0.1415
  767MOL0     H 3532   9.870   3.107   2.451  0.3651 -0.7289 -0.8120
  767MOL0     H 3533   9.712   3.220   2.554 -3.1810 -0.0967  0.4473
  767MOL0     H 3534   9.605   3.272   2.426 -0.1435  0.5914  1.2309
  767MOL0     H 3535   9.613   3.508   2.550  1.6471  1.3508  2.0962
  767MOL0     H 3536   9.679   3.410   2.676  0.9582  0.8186 -1.4858
  767MOL0     H 3537   9.481   3.277   2.692 -0.0006  1.5936  1.0958
  767MOL0     H 3538   9.407   3.345   2.548  1.6464  0.3774 -1.9235
  767MOL0     H 3539   9.308   3.440   2.745  0.7675 -2.3791  0.8398
  767MOL0     H 3540   9.456   3.490   2.818 -0.9096 -1.0362 -0.6140
  767MOL0     H 3541   9.341   3.785   2.527  0.1767 -0.0597 -0.7499
  767MOL0     H 3542  10.008   3.518   2.438  0.9516 -0.2125  0.1737
  767MOL0     H 3543  10.330   3.456   2.489  1.4783 -2.1856 -1.2264
  767MOL0     H 3544  10.338   3.458   2.315  0.2946  1.0873 -0.8497
  767MOL0     H 3545  10.233   3.574   2.390 -0.6428 -0.7503  1.2587
  768MOL0     O 3546   5.053   7.637   6.005  0.5146 -0.1817  0.0351
  768MOL0     C 3547   5.013   7.667   6.114  0.3699  0.3774 -0.9191
  768MOL0     O 3548   5.097   7.701   6.212 -0.3533 -0.8179 -1.0041
  768MOL0     C 3549   5.232   7.675   6.201 -0.0609 -0.0353 -0.1891
  768MOL0     C 3550   5.277   7.567   6.278  0.4420 -0.5448 -0.3842
  768MOL0     C 3551   5.407   7.531   6.274 -0.2816 -0.7555  0.6797
  768MOL0     C 3552   5.487   7.602   6.183  1.0974 -0.1657 -0.2678
  768MOL0     O 3553   5.614   7.570   6.167 -0.7977 -0.0935 -0.3407
  768MOL0     C 3554   5.709   7.505   6.257 -0.5005 -0.2797 -0.4862
  768MOL0     C 3555   5.793   7.614   6.327  0.2310  0.1753 -0.2321
  768MOL0     C 3556   5.919   7.550   6.403  0.3136 -0.5062 -0.0223
  768MOL0     C 3557   6.029   7.661   6.416 -0.2357  0.6942 -0.2334
  768MOL0     C 3558   6.159   7.610   6.487 -0.3400  0.9407 -0.7958
  768MOL0     C 3559   6.240   7.740   6.519  0.0712 -0.4227  0.4669
  768MOL0     C 3560   6.366   7.702   6.608  0.7688  0.2438  0.2412
  768MOL0     C 3561   6.477   7.805   6.602  1.6559 -0.2707 -0.1056
  768MOL0     N 3562   6.442   7.929   6.682  0.5908 -0.1726 -0.0891
  768MOL0     C 3563   6.438   7.949   6.817  0.0238 -0.1891  0.8534
  768MOL0     C 3564   6.408   8.078   6.829  0.0193  0.1842 -0.2191
  768MOL0     C 3565   6.405   8.151   6.956  0.5239 -0.6738  0.9064
  768MOL0     C 3566   6.541   8.200   6.996 -0.4357 -0.5627 -0.5545
  768MOL0     C 3567   6.578   8.332   6.935  0.2556  0.0971 -0.3969
  768MOL0     C 3568   6.720   8.377   6.981 -0.4685 -0.0321  0.3652
  768MOL0     O 3569   6.830   8.280   6.963  1.0093 -0.6601  0.1977
  768MOL0     C 3570   6.957   8.325   6.937 -0.5150 -0.6580  0.9281
  768MOL0     C 3571   7.001   8.457   6.915  0.2948 -0.4149 -0.5873
  768MOL0     C 3572   7.133   8.478   6.874 -0.6865 -0.5396 -0.5221
  768MOL0     C 3573   7.220   8.368   6.858 -0.0788  0.6518 -0.3506
  768MOL0     C 3574   7.358   8.378   6.802  0.1056 -0.2545 -0.2639
  768MOL0     O 3575   7.392   8.481   6.723  0.0385 -0.7206  0.4085
  768MOL0     C 3576   7.526   8.500   6.693 -0.0729  0.4196  0.3025
  768MOL0     C 3577   7.577   8.506   6.564  0.2344 -0.3624 -0.0888
  768MOL0     C 3578   7.712   8.535   6.544 -0.5698 -0.0600  0.4504
  768MOL0     C 3579   7.789   8.556   6.655  0.5264  0.2204  0.0392
  768MOL0     O 3580   7.925   8.566   6.651 -0.0319 -0.2987  0.3595
  768MOL0     C 3581   7.983   8.614   6.530  0.0975 -0.3538  0.7111
  768MOL0     C 3582   8.132   8.626   6.544  0.3575 -0.2160  0.4268
  768MOL0     C 3583   8.167   8.741   6.646  0.3227  0.9399 -0.3641
  768MOL0     C 3584   8.308   8.792   6.613 -0.0243  0.4198  0.1450
  768MOL0     C 3585   8.361   8.880   6.734 -0.4282  0.2563 -0.3727
  768MOL0     C 3586   8.393   8.810   6.867  1.0720  0.1396 -0.3543
  768MOL0     C 3587   8.371   8.905   6.982 -0.6022  0.1918  0.3115
  768MOL0     C 3588   8.421   8.847   7.107  0.2849  0.3431  0.3879
  768MOL0    Cl 3589   8.307   8.730   7.169 -0.5326  0.1024 -0.4166
  768MOL0     C 3590   7.732   8.569   6.782 -0.7116 -0.5689  0.7923
  768MOL0     C 3591   7.602   8.541   6.803  0.3738  0.0028  0.6198
  768MOL0     O 3592   7.436   8.285   6.821 -0.3343 -0.6313  0.3341
  768MOL0     C 3593   7.182   8.239   6.897 -0.7648 -0.0070 -1.0438
  768MOL0     C 3594   7.048   8.218   6.928 -0.3877 -0.8177  0.6853
  768MOL0     N 3595   6.386   8.127   6.706  0.2743 -0.6553 -0.2931
  768MOL0     N 3596   6.401   8.040   6.619 -0.3840  1.3062 -0.6735
  768MOL0     C 3597   5.439   7.713   6.106 -0.2199 -0.1789 -0.3145
  768MOL0     C 3598   5.315   7.757   6.120 -0.0256  0.6783  0.1761
  768MOL0     C 3599   4.868   7.661   6.140 -0.4106 -0.2433 -1.4273
  768MOL0     C 3600   4.776   7.687   6.038 -0.3243 -0.2928 -0.0441
  768MOL0     C 3601   4.637   7.691   6.059 -0.2978  0.5178 -0.0657
  768MOL0     C 3602   4.584   7.665   6.184 -0.8903  0.7102  0.8958
  768MOL0     O 3603   4.442   7.673   6.207  0.1249  0.1255 -0.2032
  768MOL0     C 3604   4.388   7.650   6.343 -0.0332  0.3360 -0.4199
  768MOL0     C 3605   4.237   7.678   6.354  0.6139  0.6356 -0.1616
  768MOL0     C 3606   4.187   7.599   6.477 -0.0397 -0.0094 -0.7293
  768MOL0     C 3607   4.101   7.467   6.437  0.0410 -0.7670  0.3143
  768MOL0     C 3608   4.102   7.375   6.548  0.0543 -0.9313  0.4925
  768MOL0     C 3609   4.102   7.301   6.639 -0.0146  0.8951 -0.8669
  768MOL0     C 3610   4.679   7.632   6.286  0.0102  0.3362 -0.3085
  768MOL0     C 3611   4.816   7.624   6.266  0.6607  0.4263  0.1405
  768MOL0     C 3612   4.900   7.588   6.389  0.1829  0.3695  0.4912
  768MOL0     H 3613   5.203   7.507   6.330  2.3321 -2.5554  0.0987
  768MOL0     H 3614   5.442   7.450   6.338  0.9424  0.1236  1.1681
  768MOL0     H 3615   5.668   7.436   6.330 -1.2886 -0.6855 -1.2936
  768MOL0     H 3616   5.776   7.443   6.197 -0.7606 -0.3606 -0.6983
  768MOL0     H 3617   5.726   7.666   6.395  0.2073  0.5266 -0.5206
  768MOL0     H 3618   5.826   7.698   6.264  0.6346  1.8183  2.0688
  768MOL0     H 3619   5.956   7.467   6.342  0.2398  0.5062 -1.4947
  768MOL0     H 3620   5.881   7.519   6.501 -1.3420  3.6360  0.8408
  768MOL0     H 3621   6.050   7.708   6.319 -0.4054  1.5652  0.1405
  768MOL0     H 3622   5.972   7.730   6.479 -1.6179 -1.5696  1.1635
  768MOL0     H 3623   6.131   7.554   6.578  0.4371  0.9161 -0.5666
  768MOL0     H 3624   6.223   7.548   6.424 -2.1074 -0.6032 -1.1764
  768MOL0     H 3625   6.260   7.787   6.422  0.6738 -0.7391  0.4293
  768MOL0     H 3626   6.179   7.805   6.583  0.7506 -0.9847  1.7303
  768MOL0     H 3627   6.404   7.600   6.593 -2.0741 -1.3988  2.9944
  768MOL0     H 3628   6.328   7.703   6.710  0.3800 -1.0321  0.1250
  768MOL0     H 3629   6.571   7.766   6.641  1.1089 -1.4308  0.0853
  768MOL0     H 3630   6.495   7.835   6.498  1.2201 -2.0471 -0.7385
  768MOL0     H 3631   6.473   7.885   6.898  0.0466  0.5197  1.4134
  768MOL0     H 3632   6.331   8.229   6.939 -0.5614 -2.2535 -2.2934
  768MOL0     H 3633   6.382   8.077   7.034  2.9989 -1.7397  0.7332
  768MOL0     H 3634   6.542   8.216   7.105 -0.7969 -0.8355 -0.5102
  768MOL0     H 3635   6.608   8.116   6.973 -1.0145 -1.3950  0.6803
  768MOL0     H 3636   6.510   8.414   6.962 -0.0912 -0.0743 -0.7455
  768MOL0     H 3637   6.581   8.328   6.826 -2.2064  2.5721 -0.6910
  768MOL0     H 3638   6.717   8.407   7.086 -1.3337 -2.3757  1.0706
  768MOL0     H 3639   6.737   8.468   6.923 -1.2032  0.4030  0.8240
  768MOL0     H 3640   6.939   8.545   6.922  1.6292  0.5811 -0.9146
  768MOL0     H 3641   7.171   8.574   6.840 -2.4899  0.8797  1.2924
  768MOL0     H 3642   7.504   8.507   6.483 -0.1828  0.2007  0.2884
  768MOL0     H 3643   7.740   8.529   6.439  0.0329  2.4851  0.4156
  768MOL0     H 3644   7.958   8.545   6.449  1.3492 -1.2042  1.0201
  768MOL0     H 3645   7.941   8.712   6.506 -1.6255 -1.1918  0.1097
  768MOL0     H 3646   8.179   8.531   6.571  1.3911  0.4520  1.0820
  768MOL0     H 3647   8.167   8.649   6.443  1.7842 -0.8018  0.7534
  768MOL0     H 3648   8.099   8.827   6.637  0.3004  0.9625 -0.0129
  768MOL0     H 3649   8.168   8.708   6.750  2.1418  2.0917  0.0325
  768MOL0     H 3650   8.304   8.853   6.523  0.6350 -1.8170 -1.5029
  768MOL0     H 3651   8.367   8.701   6.598 -0.5326  0.2736 -1.0210
  768MOL0     H 3652   8.294   8.963   6.756 -0.1413  0.7620 -1.3321
  768MOL0     H 3653   8.456   8.922   6.699 -0.6126  0.1131 -1.0473
  768MOL0     H 3654   8.324   8.727   6.884 -0.9034  1.8303  0.3968
  768MOL0     H 3655   8.495   8.771   6.868  1.3282  0.4743  3.7238
  768MOL0     H 3656   8.264   8.926   6.995 -0.7843  0.0770 -0.8570
  768MOL0     H 3657   8.422   9.001   6.971 -0.7772  0.4764  1.7419
  768MOL0     H 3658   8.517   8.801   7.081 -0.4390 -0.6844 -0.5459
  768MOL0     H 3659   8.446   8.924   7.181  1.0476 -0.5880  1.1287
  768MOL0     H 3660   7.799   8.604   6.859 -0.2274  0.6675 -0.1652
  768MOL0     H 3661   7.561   8.562   6.901  2.0365 -0.7716  1.5249
  768MOL0     H 3662   7.253   8.157   6.889 -0.6865  0.2136 -3.4091
  768MOL0     H 3663   7.023   8.119   6.965  3.0120 -1.3295  1.9950
  768MOL0     H 3664   5.501   7.773   6.040  0.3058 -1.1392 -0.7060
  768MOL0     H 3665   5.263   7.843   6.078  3.4118  1.3630 -3.2433
  768MOL0     H 3666   4.821   7.705   5.941  2.1521 -2.5816  0.5428
  768MOL0     H 3667   4.573   7.715   5.974 -2.2140 -4.1913 -0.2616
  768MOL0     H 3668   4.442   7.702   6.422 -2.0421  0.3400  1.0085
  768MOL0     H 3669   4.411   7.545   6.364 -1.3171  0.2858  0.8552
  768MOL0     H 3670   4.176   7.651   6.268 -0.7040 -0.0453  0.9429
  768MOL0     H 3671   4.216   7.785   6.365  1.8605  0.6616  3.0791
  768MOL0     H 3672   4.118   7.659   6.538 -1.1837  0.1542 -2.1118
  768MOL0     H 3673   4.277   7.582   6.536 -0.4106  1.1614  0.2261
  768MOL0     H 3674   3.999   7.505   6.428 -0.6847 -1.9931  2.7034
  768MOL0     H 3675   4.141   7.418   6.347  0.9033 -0.3616  0.4664
  768MOL0     H 3676   4.105   7.232   6.721  2.3197  4.1094  2.0021
  768MOL0     H 3677   4.643   7.609   6.385  2.7000 -2.6018  0.1253
  768MOL0     H 3678   4.837   7.552   6.471 -2.4026  0.3432 -1.3971
  768MOL0     H 3679   4.962   7.504   6.356 -0.6250  0.6859 -2.0914
  768MOL0     H 3680   4.962   7.672   6.423 -0.2669  0.3846  1.2968
  769MOL0     O 3681   7.332   4.169   1.516 -0.2800  0.0787  0.9680
  769MOL0     C 3682   7.301   4.234   1.611 -0.2678 -0.3816  0.1123
  769MOL0     O 3683   7.389   4.284   1.702  0.1576  0.1276  0.7820
  769MOL0     C 3684   7.510   4.225   1.702  0.1525  0.0982  0.4213
  769MOL0     C 3685   7.617   4.281   1.623  0.1847 -0.5376  0.1340
  769MOL0     C 3686   7.739   4.218   1.595 -0.1076  0.4232  0.0051
  769MOL0     C 3687   7.762   4.089   1.655 -0.0256  0.3312  1.2022
  769MOL0     O 3688   7.874   4.014   1.639 -0.3011  0.3480 -0.1239
  769MOL0     C 3689   7.982   4.063   1.565  0.3105  0.0360 -0.7863
  769MOL0     C 3690   8.068   3.942   1.530 -0.0727 -0.0571 -0.3255
  769MOL0     C 3691   8.168   3.988   1.418 -0.2541 -0.0579 -0.4760
  769MOL0     C 3692   8.296   3.904   1.402  0.2582 -0.3408  1.1746
  769MOL0     C 3693   8.363   3.944   1.264  0.3849  0.3470 -0.6978
  769MOL0     C 3694   8.453   3.825   1.212  0.1828 -0.5167 -0.0240
  769MOL0     C 3695   8.558   3.784   1.311 -0.2534 -1.0401  0.4008
  769MOL0     C 3696   8.515   3.672   1.410  1.0369 -0.1255 -0.0220
  769MOL0     N 3697   8.623   3.618   1.485  0.1350  0.2321  0.1140
  769MOL0     C 3698   8.662   3.646   1.612  0.0870  0.5907 -0.5507
  769MOL0     C 3699   8.765   3.567   1.644 -0.4193  0.5477  0.1471
  769MOL0     C 3700   8.855   3.604   1.764  0.5159 -0.4214  0.6166
  769MOL0     C 3701   9.002   3.617   1.724  0.1976 -0.1652  0.6593
  769MOL0     C 3702   9.042   3.750   1.652  0.0923  0.6790  0.2674
  769MOL0     C 3703   9.189   3.739   1.616 -0.5357  0.0098 -0.0427
  769MOL0     O 3704   9.268   3.642   1.692 -0.2549  0.0069  0.5651
  769MOL0     C 3705   9.404   3.659   1.700 -0.2160  0.4490  1.2933
  769MOL0     C 3706   9.475   3.562   1.778 -0.5031 -0.4318 -0.8803
  769MOL0     C 3707   9.615   3.584   1.807  0.9397 -0.1566  0.0576
  769MOL0     C 3708   9.683   3.697   1.764  0.2997  0.5701  0.1876
  769MOL0     C 3709   9.827   3.711   1.786 -0.9149 -0.6492  0.1335
  769MOL0     O 3710   9.887   3.838   1.769 -0.3904  0.2101  0.1004
  769MOL0     C 3711  10.020   3.843   1.815 -0.2929 -0.4568  0.4840
  769MOL0     C 3712  10.123   3.796   1.740 -0.5569  0.0516 -0.1010
  769MOL0     C 3713  10.254   3.822   1.776  0.5136 -1.3897  0.8419
  769MOL0     C 3714  10.281   3.881   1.894 -0.3313 -0.2341 -0.2768
  769MOL0     O 3715  10.411   3.896   1.928 -0.0793 -0.4338  0.5195
  769MOL0     C 3716  10.452   4.010   2.008  0.2916  0.0302 -0.0568
  769MOL0     C 3717  10.466   3.970   2.155 -0.6320  0.3946 -0.9523
  769MOL0     C 3718  10.528   4.069   2.241 -0.2896  0.4016 -1.2622
  769MOL0     C 3719  10.678   4.054   2.257  0.2976  0.0134 -0.5087
  769MOL0     C 3720  10.722   4.131   2.384  0.2738 -0.3588 -0.3926
  769MOL0     C 3721  10.873   4.111   2.419  0.0940  0.6754  0.4834
  769MOL0     C 3722  10.977   4.162   2.307 -0.5086  0.1765  0.6852
  769MOL0     C 3723  11.115   4.109   2.345 -0.5050 -0.5649  0.4093
  769MOL0    Cl 3724  11.246   4.168   2.233 -0.2550 -0.2308  0.2354
  769MOL0     C 3725  10.175   3.929   1.971  0.4535  0.3189  0.3023
  769MOL0     C 3726  10.040   3.909   1.935 -0.0639  0.0676  0.1821
  769MOL0     O 3727   9.880   3.609   1.836 -0.5383 -0.1137  0.1376
  769MOL0     C 3728   9.610   3.783   1.679 -1.1701  0.1340 -1.1496
  769MOL0     C 3729   9.477   3.772   1.644 -0.0079  0.1327  0.1343
  769MOL0     N 3730   8.785   3.482   1.538 -0.5195 -0.1627  1.1490
  769MOL0     N 3731   8.709   3.520   1.441  0.0735  0.7548  1.0156
  769MOL0     C 3732   7.664   4.038   1.735  0.1804  0.5936 -0.5402
  769MOL0     C 3733   7.543   4.102   1.764 -0.0047  0.2462 -0.0461
  769MOL0     C 3734   7.154   4.238   1.640 -0.2193  0.0801  1.0715
  769MOL0     C 3735   7.072   4.129   1.598 -0.0753 -0.6873 -0.1529
  769MOL0     C 3736   6.938   4.136   1.605  0.4797  0.2914 -0.4893
  769MOL0     C 3737   6.868   4.245   1.656 -0.1237 -0.3267  0.2110
  769MOL0     O 3738   6.732   4.236   1.647  0.0759 -0.2023  0.3777
  769MOL0     C 3739   6.660   4.351   1.680 -1.1307  0.0398 -0.1289
  769MOL0     C 3740   6.525   4.306   1.702  1.1517 -0.9165 -0.7582
  769MOL0     C 3741   6.431   4.419   1.743  0.0296 -0.0867  0.4876
  769MOL0     C 3742   6.343   4.374   1.867  0.0226 -0.5567 -0.3696
  769MOL0     C 3743   6.243   4.475   1.888  0.8589 -0.1802 -0.2380
  769MOL0     C 3744   6.172   4.570   1.912 -0.3361 -0.5969 -0.1212
  769MOL0     C 3745   6.949   4.350   1.710 -0.0732 -0.7229  0.6190
  769MOL0     C 3746   7.090   4.349   1.708 -0.2539 -0.2245  0.2902
  769MOL0     C 3747   7.167   4.467   1.770 -0.1852 -0.0042  0.8980
  769MOL0     H 3748   7.595   4.380   1.583  5.2984  0.4937 -0.7712
  769MOL0     H 3749   7.802   4.266   1.520 -1.5275  2.7924  0.2392
  769MOL0     H 3750   7.942   4.110   1.474  0.8496  1.4005 -0.3402
  769MOL0     H 3751   8.031   4.133   1.633 -2.1745  0.3180  0.8410
  769MOL0     H 3752   8.012   3.856   1.491  0.7381 -0.4935 -0.5328
  769MOL0     H 3753   8.112   3.923   1.628 -0.5149  0.0891 -0.0915
  769MOL0     H 3754   8.196   4.094   1.421 -0.1361 -0.1020  0.9021
  769MOL0     H 3755   8.106   3.974   1.329 -1.5599  3.2827 -0.2336
  769MOL0     H 3756   8.366   3.931   1.481  3.7692 -2.2089 -1.0630
  769MOL0     H 3757   8.283   3.796   1.407  0.7230 -0.4020  1.1329
  769MOL0     H 3758   8.286   3.947   1.187  1.1272 -0.9607 -1.5270
  769MOL0     H 3759   8.416   4.039   1.276 -1.7486  1.4608  0.3806
  769MOL0     H 3760   8.382   3.743   1.199 -0.7575  0.2045  0.4802
  769MOL0     H 3761   8.496   3.864   1.119 -1.2875  2.3925  0.3931
  769MOL0     H 3762   8.599   3.872   1.361  0.0214 -1.6072  1.1846
  769MOL0     H 3763   8.638   3.746   1.247 -1.0606  2.9227 -3.4590
  769MOL0     H 3764   8.444   3.704   1.486  0.5715 -0.1324 -0.4461
  769MOL0     H 3765   8.464   3.591   1.357 -0.6768  0.5968  0.4770
  769MOL0     H 3766   8.622   3.731   1.665  0.0280  0.2787 -0.0911
  769MOL0     H 3767   8.814   3.698   1.803  0.2923 -0.0310 -0.5295
  769MOL0     H 3768   8.853   3.526   1.841 -1.7876 -1.7196 -0.6529
  769MOL0     H 3769   9.061   3.601   1.815 -2.4361  0.2054  2.5867
  769MOL0     H 3770   9.031   3.532   1.662 -0.4755  2.9759 -4.5474
  769MOL0     H 3771   9.024   3.829   1.725 -2.8685  0.3061  0.0731
  769MOL0     H 3772   8.969   3.768   1.573 -2.1967 -2.7464  1.3727
  769MOL0     H 3773   9.223   3.841   1.629  0.7163 -0.2999 -0.7683
  769MOL0     H 3774   9.199   3.707   1.511 -0.6147 -0.3302  0.0508
  769MOL0     H 3775   9.424   3.482   1.830  1.1136 -0.1906  1.2124
  769MOL0     H 3776   9.664   3.513   1.873 -2.7808 -3.0866 -0.0602
  769MOL0     H 3777  10.106   3.738   1.649  2.4596 -0.4112 -0.4810
  769MOL0     H 3778  10.340   3.780   1.725 -0.6870 -0.1471 -2.4511
  769MOL0     H 3779  10.547   4.041   1.962  0.4464 -1.9971 -1.2055
  769MOL0     H 3780  10.384   4.096   2.005  0.7896  0.4050 -1.6832
  769MOL0     H 3781  10.372   3.926   2.189 -2.1665  4.5221  0.7130
  769MOL0     H 3782  10.540   3.889   2.159  0.5382  1.4629  1.7609
  769MOL0     H 3783  10.501   4.170   2.208  0.0202 -0.0735 -3.0723
  769MOL0     H 3784  10.476   4.053   2.336 -2.7488  2.3119 -2.1745
  769MOL0     H 3785  10.731   4.097   2.171  2.6806 -2.8072 -0.6216
  769MOL0     H 3786  10.714   3.952   2.275 -1.6458 -0.2474  2.4904
  769MOL0     H 3787  10.667   4.101   2.474 -0.8270 -0.6831 -1.1482
  769MOL0     H 3788  10.700   4.236   2.364  3.0322 -0.1095 -2.7564
  769MOL0     H 3789  10.888   4.158   2.516  0.4398  1.0142  0.2721
  769MOL0     H 3790  10.895   4.005   2.430 -2.4047 -0.0331 -0.5735
  769MOL0     H 3791  10.974   4.269   2.288  0.7545 -0.3011 -3.0872
  769MOL0     H 3792  10.948   4.128   2.207 -2.2858  0.2378  1.1482
  769MOL0     H 3793  11.139   4.140   2.447 -1.1879  1.9350 -0.1165
  769MOL0     H 3794  11.109   4.000   2.334 -2.8927 -0.3722 -0.9323
  769MOL0     H 3795  10.187   3.985   2.062  2.4939 -0.8029  0.7835
  769MOL0     H 3796   9.962   3.953   1.997  0.2075 -1.5505  1.7556
  769MOL0     H 3797   9.653   3.875   1.640  2.4263 -1.6241 -1.7822
  769MOL0     H 3798   9.431   3.841   1.574  0.1816 -0.2222 -0.3456
  769MOL0     H 3799   7.684   3.944   1.785  0.3070 -0.4941 -2.5552
  769MOL0     H 3800   7.480   4.057   1.841 -1.6885  0.3166 -1.3270
  769MOL0     H 3801   7.116   4.046   1.544 -2.0487 -1.3869 -0.7732
  769MOL0     H 3802   6.875   4.056   1.566  3.1684 -1.6551 -1.1433
  769MOL0     H 3803   6.671   4.425   1.600  0.0221  2.0676  1.7808
  769MOL0     H 3804   6.693   4.399   1.773  0.2736  1.6394 -1.3771
  769MOL0     H 3805   6.523   4.228   1.779  0.6930 -1.7410 -1.5800
  769MOL0     H 3806   6.488   4.254   1.613  1.8084 -0.0122 -1.5732
  769MOL0     H 3807   6.365   4.426   1.655 -0.2890 -1.5131  0.5869
  769MOL0     H 3808   6.477   4.516   1.761 -0.9416 -0.1031  3.8230
  769MOL0     H 3809   6.295   4.278   1.847 -0.1569  0.0283 -3.2298
  769MOL0     H 3810   6.404   4.370   1.957 -2.6740  1.2808  1.7154
  769MOL0     H 3811   6.108   4.649   1.946 -0.1798 -1.4090  2.2591
  769MOL0     H 3812   6.904   4.445   1.736  1.8468  0.8150 -1.3155
  769MOL0     H 3813   7.202   4.536   1.692  1.4305 -0.8637  0.8226
  769MOL0     H 3814   7.103   4.518   1.843 -0.2951 -1.7148  2.0426
  769MOL0     H 3815   7.261   4.432   1.813 -0.0667 -1.6508 -0.5877
  770MOL0     O 3816   9.920   6.188   5.902 -0.1966 -0.1588 -0.3591
  770MOL0     C 3817   9.846   6.166   5.809 -0.2111 -0.3909  0.1547
  770MOL0     O 3818   9.885   6.141   5.678 -0.2064 -0.1827 -0.5435
  770MOL0     C 3819  10.007   6.090   5.653  0.1507  0.3774 -0.8198
  770MOL0     C 3820  10.010   5.951   5.622 -0.0305 -0.4215 -0.3350
  770MOL0     C 3821  10.133   5.897   5.579 -0.1589 -0.0313  0.3379
  770MOL0     C 3822  10.251   5.967   5.587 -0.7029  0.0645  0.8146
  770MOL0     O 3823  10.357   5.892   5.543 -0.5845  0.2538  0.3610
  770MOL0     C 3824  10.493   5.944   5.556 -0.4463 -0.1665 -0.6944
  770MOL0     C 3825  10.594   5.835   5.514  0.2093  0.0896 -0.2288
  770MOL0     C 3826  10.591   5.837   5.361 -0.2403  0.1105 -0.0609
  770MOL0     C 3827  10.693   5.740   5.300 -0.8523 -0.4885  0.2294
  770MOL0     C 3828  10.674   5.738   5.149 -0.0099  0.3129  0.8024
  770MOL0     C 3829  10.810   5.731   5.071 -0.2069 -0.6066  0.4553
  770MOL0     C 3830  10.805   5.694   4.923  0.1451  0.3913  0.0563
  770MOL0     C 3831  10.701   5.777   4.842 -0.0262  0.0451  0.1749
  770MOL0     N 3832  10.706   5.752   4.699  0.5636  0.3851  0.2501
  770MOL0     C 3833  10.802   5.680   4.623 -0.3713 -0.0501 -0.0309
  770MOL0     C 3834  10.790   5.727   4.492 -0.6460  0.0464 -0.5909
  770MOL0     C 3835  10.866   5.700   4.374  0.3514  0.3826 -0.6791
  770MOL0     C 3836  10.959   5.818   4.335 -0.1294  0.3508 -0.1181
  770MOL0     C 3837  11.066   5.828   4.439 -0.1522 -0.1833 -0.3485
  770MOL0     C 3838  11.173   5.940   4.407  0.2625  0.4828  0.2618
  770MOL0     O 3839  11.129   6.075   4.400 -0.7990 -0.0817 -0.3983
  770MOL0     C 3840  11.225   6.172   4.382 -0.1718 -0.0117 -0.2739
  770MOL0     C 3841  11.368   6.152   4.385 -0.9027  0.6815  0.2301
  770MOL0     C 3842  11.454   6.251   4.362 -1.2946 -0.4549  0.0670
  770MOL0     C 3843  11.407   6.382   4.346 -0.5237 -0.6055  0.0158
  770MOL0     C 3844  11.505   6.497   4.317  0.4328  0.3322  0.2379
  770MOL0     O 3845  11.635   6.461   4.342 -0.2320 -0.2550 -0.4430
  770MOL0     C 3846  11.740   6.546   4.350 -0.3614  0.3760  0.2011
  770MOL0     C 3847  11.853   6.476   4.380 -1.6394 -0.4365  0.3248
  770MOL0     C 3848  11.982   6.545   4.381  0.0609 -0.0681  0.7208
  770MOL0     C 3849  11.984   6.685   4.357 -0.0747 -0.0829 -0.1669
  770MOL0     O 3850  12.108   6.752   4.346 -0.6355 -0.2116 -0.7215
  770MOL0     C 3851  12.204   6.707   4.443  0.1017 -0.9328  0.0483
  770MOL0     C 3852  12.315   6.636   4.369  0.4184  0.0429 -0.5887
  770MOL0     C 3853  12.412   6.564   4.476 -0.3983  0.0831 -0.2606
  770MOL0     C 3854  12.531   6.482   4.408 -0.1896  0.7653 -0.4307
  770MOL0     C 3855  12.660   6.558   4.380  0.0497  0.1128 -0.4411
  770MOL0     C 3856  12.784   6.474   4.362 -0.6477 -1.0761  0.5769
  770MOL0     C 3857  12.899   6.577   4.311  0.1377  0.6818  0.0553
  770MOL0     C 3858  13.040   6.520   4.302 -0.2835 -0.7119  0.8218
  770MOL0    Cl 3859  13.105   6.580   4.147  0.0831 -0.1411  0.3004
  770MOL0     C 3860  11.870   6.755   4.335 -0.9315 -0.1873  0.9533
  770MOL0     C 3861  11.750   6.687   4.327  0.1994 -0.3037 -0.0079
  770MOL0     O 3862  11.464   6.606   4.288  0.4738  0.7939  0.0834
  770MOL0     C 3863  11.272   6.406   4.351  0.1541  0.7037 -0.7023
  770MOL0     C 3864  11.183   6.303   4.370  0.1302 -0.5226  0.3431
  770MOL0     N 3865  10.681   5.812   4.489 -0.2320  0.1666  0.4037
  770MOL0     N 3866  10.638   5.829   4.612  0.3660  0.1424  0.0232
  770MOL0     C 3867  10.250   6.098   5.639  0.0051  0.4639  0.5642
  770MOL0     C 3868  10.128   6.158   5.669  0.1210  0.7924 -0.6165
  770MOL0     C 3869   9.695   6.187   5.826 -0.9167  0.2112 -0.0654
  770MOL0     C 3870   9.617   6.209   5.714  1.2183  0.0494  0.1973
  770MOL0     C 3871   9.477   6.230   5.733 -0.3137 -1.2182 -0.2578
  770MOL0     C 3872   9.411   6.236   5.854 -0.4483 -0.0465 -0.7336
  770MOL0     O 3873   9.276   6.250   5.864  0.0046  0.1702  0.5088
  770MOL0     C 3874   9.227   6.309   5.984  0.4322 -0.0828  1.4145
  770MOL0     C 3875   9.089   6.363   5.958 -0.1633 -0.2205  0.4371
  770MOL0     C 3876   8.992   6.257   5.938 -0.4289 -0.3825  0.0343
  770MOL0     C 3877   8.873   6.317   5.856  0.3606 -0.0201  0.7091
  770MOL0     C 3878   8.763   6.224   5.856 -0.1236  0.3137 -0.4926
  770MOL0     C 3879   8.674   6.145   5.877 -0.2175  0.4461  0.4108
  770MOL0     C 3880   9.493   6.222   5.967 -0.2744 -0.0128  0.0761
  770MOL0     C 3881   9.635   6.206   5.952  0.4915  0.0214  0.6988
  770MOL0     C 3882   9.711   6.198   6.078  0.4702  0.7418 -0.5882
  770MOL0     H 3883   9.929   5.879   5.622  0.0160 -0.4793 -0.7567
  770MOL0     H 3884  10.124   5.794   5.548 -0.9453  0.5971 -1.6755
  770MOL0     H 3885  10.507   6.033   5.494 -1.2609  1.2949  1.1357
  770MOL0     H 3886  10.516   5.973   5.659 -1.3846 -1.9876  0.0843
  770MOL0     H 3887  10.566   5.741   5.562  0.3521  0.2819  0.2365
  770MOL0     H 3888  10.696   5.849   5.550 -0.2390  1.4510  0.6012
  770MOL0     H 3889  10.613   5.936   5.321  0.4942 -0.0745 -0.1131
  770MOL0     H 3890  10.498   5.790   5.327  0.9420 -2.4716  0.0741
  770MOL0     H 3891  10.792   5.774   5.334 -1.1276  1.4792 -0.8053
  770MOL0     H 3892  10.673   5.644   5.347 -0.8433 -0.3084  0.6073
  770MOL0     H 3893  10.612   5.652   5.124  2.0270 -0.5378 -1.8481
  770MOL0     H 3894  10.610   5.818   5.112 -2.1063 -1.5559  0.2289
  770MOL0     H 3895  10.851   5.832   5.082 -1.0548 -0.1296 -0.6079
  770MOL0     H 3896  10.883   5.667   5.122  2.8017  0.9576 -1.5998
  770MOL0     H 3897  10.777   5.590   4.908 -1.5950  0.4033  2.6362
  770MOL0     H 3898  10.904   5.712   4.881  0.0512  0.3633 -0.1773
  770MOL0     H 3899  10.600   5.755   4.877 -0.9642  3.1668 -0.2780
  770MOL0     H 3900  10.716   5.884   4.861  1.2531 -0.6576  4.2663
  770MOL0     H 3901  10.880   5.618   4.665 -1.4567 -0.5646  1.3365
  770MOL0     H 3902  10.924   5.614   4.409  3.3801  2.4410 -0.2098
  770MOL0     H 3903  10.803   5.673   4.289  2.3294  0.6961 -2.3341
  770MOL0     H 3904  11.002   5.817   4.234  1.5443 -1.3123  0.5533
  770MOL0     H 3905  10.906   5.914   4.342 -1.6693 -0.3168 -1.6077
  770MOL0     H 3906  11.127   5.737   4.446  2.7442  1.6507  0.3769
  770MOL0     H 3907  11.029   5.849   4.540  0.0599 -0.0322 -0.2995
  770MOL0     H 3908  11.209   5.902   4.311  0.4927 -0.7280  0.8054
  770MOL0     H 3909  11.260   5.931   4.473 -1.1924  0.5226  2.2691
  770MOL0     H 3910  11.410   6.052   4.386  2.2615  1.9109  1.5762
  770MOL0     H 3911  11.558   6.221   4.362 -0.3437  2.5100 -0.2984
  770MOL0     H 3912  11.857   6.368   4.383  1.6309 -0.4744 -1.4580
  770MOL0     H 3913  12.065   6.475   4.386 -0.6761 -1.1806 -1.2756
  770MOL0     H 3914  12.248   6.787   4.502  2.0809 -2.6312  0.9921
  770MOL0     H 3915  12.149   6.646   4.515 -0.8588  1.0076  1.0301
  770MOL0     H 3916  12.276   6.555   4.306 -0.9198  1.4435 -1.6483
  770MOL0     H 3917  12.369   6.709   4.309 -1.6974  4.3428  2.2432
  770MOL0     H 3918  12.456   6.623   4.556  1.0027 -2.3060  0.8562
  770MOL0     H 3919  12.350   6.495   4.534 -0.5281  0.0962 -0.3836
  770MOL0     H 3920  12.498   6.448   4.310  2.1764 -2.7531 -0.1713
  770MOL0     H 3921  12.557   6.387   4.456 -1.1639  0.8371  0.2946
  770MOL0     H 3922  12.680   6.632   4.459  0.2599  0.7400 -1.0671
  770MOL0     H 3923  12.649   6.620   4.290  1.8795  1.8180  0.4207
  770MOL0     H 3924  12.815   6.427   4.455  2.5393  1.0053  0.7132
  770MOL0     H 3925  12.763   6.405   4.279 -0.2165  1.6111 -1.9483
  770MOL0     H 3926  12.893   6.675   4.359 -0.4090  0.2033  0.9937
  770MOL0     H 3927  12.869   6.594   4.207  0.9786 -2.0206 -0.6875
  770MOL0     H 3928  13.102   6.553   4.386 -0.4041 -1.3739  1.1746
  770MOL0     H 3929  13.046   6.411   4.308  1.4993 -0.6195  1.3468
  770MOL0     H 3930  11.874   6.863   4.331 -2.3615 -0.1434 -1.1740
  770MOL0     H 3931  11.665   6.754   4.327 -0.4468 -1.0934 -1.1066
  770MOL0     H 3932  11.247   6.510   4.334  1.1932  1.8935  3.7473
  770MOL0     H 3933  11.080   6.337   4.365 -0.6480 -2.6987  0.5710
  770MOL0     H 3934  10.344   6.152   5.647  0.2881  0.1714 -0.5253
  770MOL0     H 3935  10.127   6.264   5.689 -1.0858  0.9807 -1.5814
  770MOL0     H 3936   9.655   6.212   5.613 -1.5416 -0.2715 -0.9443
  770MOL0     H 3937   9.413   6.254   5.648 -0.3259  0.1633  0.1147
  770MOL0     H 3938   9.296   6.386   6.018 -0.3882  0.8618  0.9655
  770MOL0     H 3939   9.220   6.236   6.066 -0.7456  1.7531  3.0263
  770MOL0     H 3940   9.095   6.431   5.873  3.2625 -0.2195  0.5701
  770MOL0     H 3941   9.055   6.415   6.049  0.1405 -0.4066  0.6583
  770MOL0     H 3942   8.960   6.210   6.032  2.1422 -2.1655  0.1207
  770MOL0     H 3943   9.030   6.174   5.879 -1.5938  0.7706 -2.4887
  770MOL0     H 3944   8.832   6.413   5.889 -0.0269  1.3845 -3.3729
  770MOL0     H 3945   8.908   6.338   5.755 -0.9857 -0.1613  0.1936
  770MOL0     H 3946   8.585   6.085   5.876 -0.5285  0.8228 -2.3408
  770MOL0     H 3947   9.450   6.220   6.067  0.9546 -0.8143  0.6107
  770MOL0     H 3948   9.774   6.286   6.068  0.2466  0.8584 -1.0062
  770MOL0     H 3949   9.660   6.207   6.175 -0.4027 -1.6739 -0.7432
  770MOL0     H 3950   9.772   6.108   6.087 -0.9011 -0.0556  1.8336
  771MOL0     O 3951   4.760   8.293   1.098  0.6180  0.7571 -0.1284
  771MOL0     C 3952   4.714   8.266   0.985  0.0119 -0.1258 -0.3017
  771MOL0     O 3953   4.794   8.246   0.874 -0.3152  0.6388 -0.5305
  771MOL0     C 3954   4.925   8.267   0.896  0.2328 -0.3510  0.5342
  771MOL0     C 3955   4.969   8.400   0.910  0.0872  0.4746  0.2206
  771MOL0     C 3956   5.107   8.433   0.933 -1.0261 -0.1269  0.1959
  771MOL0     C 3957   5.208   8.326   0.949  0.0695  0.1043  0.1412
  771MOL0     O 3958   5.344   8.338   0.966 -0.2133  0.1550 -0.4751
  771MOL0     C 3959   5.396   8.481   0.950  0.6617  0.8218 -0.3415
  771MOL0     C 3960   5.547   8.491   0.990  0.1347 -0.0284  0.1799
  771MOL0     C 3961   5.647   8.455   0.879 -0.3773  0.1550 -0.1119
  771MOL0     C 3962   5.797   8.489   0.912  1.1060 -1.2377 -0.3437
  771MOL0     C 3963   5.888   8.452   0.808 -0.1484 -0.1293  0.3122
  771MOL0     C 3964   6.025   8.511   0.823 -0.4129 -0.2552  0.8146
  771MOL0     C 3965   6.122   8.436   0.731  0.5450  0.4467  0.3007
  771MOL0     C 3966   6.258   8.506   0.707  0.6497 -0.2443 -0.5004
  771MOL0     N 3967   6.336   8.501   0.837 -0.3071  0.2718  0.2767
  771MOL0     C 3968   6.412   8.395   0.879 -0.1958 -0.6797  0.2780
  771MOL0     C 3969   6.477   8.441   0.984 -1.2206  0.3361 -0.4058
  771MOL0     C 3970   6.589   8.370   1.059  0.3860 -0.2835  0.3736
  771MOL0     C 3971   6.710   8.348   0.971 -1.3656  0.1836  0.6852
  771MOL0     C 3972   6.831   8.283   1.044  0.0312 -0.1315  0.3002
  771MOL0     C 3973   6.918   8.196   0.955 -0.1878  0.3886  0.1098
  771MOL0     O 3974   7.026   8.130   1.020  0.2080  0.2153 -0.3159
  771MOL0     C 3975   7.074   8.020   0.951  0.0078 -0.4881  0.3918
  771MOL0     C 3976   7.132   7.915   1.015 -0.3643  0.2190  0.0511
  771MOL0     C 3977   7.185   7.811   0.944 -0.6397  0.4284 -0.9757
  771MOL0     C 3978   7.180   7.807   0.806  0.3054 -0.3392  0.1933
  771MOL0     C 3979   7.224   7.677   0.742 -0.5747  0.1355  0.1534
  771MOL0     O 3980   7.183   7.662   0.611  0.0121 -0.4783 -0.1561
  771MOL0     C 3981   7.240   7.557   0.540 -0.1403  1.0464 -0.1434
  771MOL0     C 3982   7.357   7.570   0.461 -0.7969 -0.8029 -0.3627
  771MOL0     C 3983   7.398   7.452   0.401  0.0123  0.7017  0.4172
  771MOL0     C 3984   7.341   7.322   0.401 -0.3880 -0.2734 -1.2641
  771MOL0     O 3985   7.385   7.206   0.346 -0.4895 -0.0238 -0.4389
  771MOL0     C 3986   7.442   7.210   0.209  0.1197  0.1982 -1.0850
  771MOL0     C 3987   7.338   7.187   0.093  0.0457 -0.7321  0.4287
  771MOL0     C 3988   7.216   7.274   0.105  0.1961  0.1074  0.7651
  771MOL0     C 3989   7.261   7.415   0.050  0.3373  0.0498 -1.0144
  771MOL0     C 3990   7.138   7.507   0.029  1.8503 -0.2202 -1.1412
  771MOL0     C 3991   7.077   7.545   0.170 -0.1619 -0.4963 -0.6838
  771MOL0     C 3992   6.957   7.639   0.164 -0.2606  0.2396  0.0713
  771MOL0     C 3993   6.913   7.691   0.302  0.2688  0.3320  0.7991
  771MOL0    Cl 3994   6.863   7.544   0.404 -0.0616  0.2803  0.0106
  771MOL0     C 3995   7.222   7.317   0.472  0.6492  0.1491  0.0634
  771MOL0     C 3996   7.173   7.427   0.539  0.0757  0.1624  0.0933
  771MOL0     O 3997   7.293   7.597   0.804 -0.5175  0.0826  0.3661
  771MOL0     C 3998   7.140   7.917   0.738 -1.5699  0.4879  0.7329
  771MOL0     C 3999   7.090   8.028   0.807 -0.1737 -0.6041 -0.7004
  771MOL0     N 4000   6.445   8.576   1.001 -0.3353 -0.2939 -0.1378
  771MOL0     N 4001   6.354   8.610   0.918 -0.1962  0.5693  0.4692
  771MOL0     C 4002   5.153   8.195   0.932 -0.2296 -0.7087 -0.2423
  771MOL0     C 4003   5.018   8.164   0.897 -0.0801 -0.1254 -1.2885
  771MOL0     C 4004   4.563   8.265   0.967 -0.0590 -0.0110  0.8344
  771MOL0     C 4005   4.487   8.256   1.086 -0.3202 -0.3577 -0.3711
  771MOL0     C 4006   4.346   8.248   1.084 -0.1403 -0.3030  0.2307
  771MOL0     C 4007   4.280   8.257   0.963 -0.6321  0.8701 -0.3996
  771MOL0     O 4008   4.147   8.248   0.961  0.4254  0.1841  0.0236
  771MOL0     C 4009   4.068   8.189   1.064  0.1210  0.5208  0.7998
  771MOL0     C 4010   3.937   8.170   1.005  0.2815 -0.9190 -0.3587
  771MOL0     C 4011   3.839   8.128   1.121  0.1872 -0.2090  0.9118
  771MOL0     C 4012   3.702   8.064   1.085 -0.2921 -0.5998  0.1217
  771MOL0     C 4013   3.699   7.980   0.965 -0.4843  0.0725 -0.6408
  771MOL0     C 4014   3.689   7.900   0.871  0.4929 -0.5114  0.1452
  771MOL0     C 4015   4.355   8.268   0.840 -0.2549  0.3308 -0.0313
  771MOL0     C 4016   4.496   8.278   0.840 -0.0192 -0.6867 -0.2889
  771MOL0     C 4017   4.564   8.317   0.719  0.3069 -0.5820 -0.0355
  771MOL0     H 4018   4.897   8.481   0.906 -0.5136 -0.1077 -1.6992
  771MOL0     H 4019   5.136   8.535   0.953  0.4028 -0.4196 -0.2034
  771MOL0     H 4020   5.394   8.516   0.846  0.0374  2.4303  0.1795
  771MOL0     H 4021   5.339   8.551   1.011  2.7148  0.9356  1.5491
  771MOL0     H 4022   5.573   8.436   1.081 -0.4243  1.6733  1.4068
  771MOL0     H 4023   5.563   8.597   1.012  1.0300 -0.2821  0.8134
  771MOL0     H 4024   5.620   8.498   0.782  0.4163  1.0917  0.0684
  771MOL0     H 4025   5.649   8.347   0.861  2.3623  0.3783 -1.6024
  771MOL0     H 4026   5.786   8.598   0.911 -0.0057 -1.3428 -1.0845
  771MOL0     H 4027   5.821   8.444   1.009  0.5853 -1.0509 -0.1267
  771MOL0     H 4028   5.905   8.344   0.815 -2.1737 -0.4024  2.1183
  771MOL0     H 4029   5.848   8.478   0.709  1.2530  2.0243  0.2583
  771MOL0     H 4030   6.028   8.615   0.787  0.5619 -0.6927 -0.4801
  771MOL0     H 4031   6.053   8.495   0.927  1.4067 -1.7341  0.1562
  771MOL0     H 4032   6.077   8.417   0.634 -0.9420  1.0214  0.8527
  771MOL0     H 4033   6.142   8.341   0.781 -0.3941  0.6140  1.0388
  771MOL0     H 4034   6.317   8.461   0.627  1.7680 -0.3480  0.3512
  771MOL0     H 4035   6.248   8.611   0.679  0.7171  0.3500  1.5435
  771MOL0     H 4036   6.413   8.298   0.831 -3.5264 -0.6174 -0.1457
  771MOL0     H 4037   6.618   8.438   1.140  2.3324 -0.2116 -0.3225
  771MOL0     H 4038   6.559   8.279   1.111  1.2505 -1.0647 -0.4577
  771MOL0     H 4039   6.684   8.276   0.894  1.1966 -1.3017  1.0887
  771MOL0     H 4040   6.753   8.442   0.934  0.8852 -0.4593  1.4437
  771MOL0     H 4041   6.786   8.220   1.122 -1.2406  2.2478  1.6039
  771MOL0     H 4042   6.889   8.362   1.091 -0.0021 -0.6179  1.1841
  771MOL0     H 4043   6.952   8.277   0.889 -0.4817  0.8846  0.5589
  771MOL0     H 4044   6.858   8.127   0.896 -0.2394  0.7077 -0.2192
  771MOL0     H 4045   7.129   7.906   1.123 -1.5957  0.1566  0.0222
  771MOL0     H 4046   7.218   7.724   0.999 -1.6415  0.5022 -0.2353
  771MOL0     H 4047   7.404   7.666   0.449 -2.8247  1.0383  4.0454
  771MOL0     H 4048   7.492   7.459   0.348 -1.2629 -1.0932 -2.2943
  771MOL0     H 4049   7.498   7.301   0.185 -2.6724  1.9563 -1.4089
  771MOL0     H 4050   7.512   7.127   0.202 -1.5401 -1.2967 -0.6751
  771MOL0     H 4051   7.385   7.205  -0.004 -1.8794 -0.2191 -0.4596
  771MOL0     H 4052   7.295   7.089   0.066  0.6937 -0.5813 -1.2939
  771MOL0     H 4053   7.144   7.239   0.031 -3.4783  1.6375  3.3289
  771MOL0     H 4054   7.170   7.272   0.205 -1.9720  1.5654 -0.1192
  771MOL0     H 4055   7.314   7.404  -0.045 -2.3608 -0.5748 -2.5764
  771MOL0     H 4056   7.326   7.459   0.125 -2.4605  0.4701  1.3634
  771MOL0     H 4057   7.053   7.460  -0.021 -0.7980  2.8012  0.1868
  771MOL0     H 4058   7.165   7.597  -0.026  2.9738 -0.8759 -1.6976
  771MOL0     H 4059   7.035   7.459   0.221  0.1311 -0.2309  0.0105
  771MOL0     H 4060   7.160   7.581   0.232 -1.5320  0.4490  0.6713
  771MOL0     H 4061   6.869   7.585   0.126  0.9698 -1.0718 -0.9980
  771MOL0     H 4062   6.966   7.723   0.095  0.1352  2.4227  2.6467
  771MOL0     H 4063   6.998   7.744   0.346  2.1609  0.7654 -2.9611
  771MOL0     H 4064   6.825   7.754   0.287  0.8253  0.9457  0.0199
  771MOL0     H 4065   7.165   7.227   0.493  2.3563 -1.1135 -0.3998
  771MOL0     H 4066   7.073   7.431   0.581 -1.0242  1.2739 -2.3984
  771MOL0     H 4067   7.158   7.921   0.632  0.8518  1.8557  1.1137
  771MOL0     H 4068   7.055   8.115   0.753 -2.8758 -1.9219 -1.2393
  771MOL0     H 4069   5.234   8.122   0.940  1.1619  0.3931 -2.8301
  771MOL0     H 4070   4.987   8.063   0.873 -1.8846  0.4868 -1.7219
  771MOL0     H 4071   4.533   8.272   1.183 -0.1723 -3.0205  0.0827
  771MOL0     H 4072   4.300   8.240   1.182 -0.6013  0.5476  0.0887
  771MOL0     H 4073   4.059   8.243   1.159 -0.6790  0.4042  0.7970
  771MOL0     H 4074   4.108   8.089   1.082 -1.9377 -1.2918 -3.3398
  771MOL0     H 4075   3.956   8.090   0.934  4.3956 -2.0990  1.7627
  771MOL0     H 4076   3.880   8.255   0.965 -2.1255 -1.6477  1.2369
  771MOL0     H 4077   3.814   8.214   1.183 -0.5050 -0.5121  1.0701
  771MOL0     H 4078   3.877   8.045   1.182  2.4476 -0.4619 -0.7306
  771MOL0     H 4079   3.659   7.998   1.161 -1.1367 -0.8218 -0.5321
  771MOL0     H 4080   3.637   8.151   1.077  0.2852  0.0872  2.2277
  771MOL0     H 4081   3.674   7.831   0.790 -2.3911  0.1524 -0.0277
  771MOL0     H 4082   4.305   8.280   0.745  0.6192  0.6606 -0.4640
  771MOL0     H 4083   4.629   8.404   0.733  0.8419 -1.2808  2.3736
  771MOL0     H 4084   4.626   8.238   0.675  0.3946 -2.7278  3.5415
  771MOL0     H 4085   4.485   8.349   0.650  0.0326  1.2946  1.0909
  772MOL0     O 4086  10.647   3.464   6.988  0.1597  0.2545 -0.2675
  772MOL0     C 4087  10.584   3.567   6.991 -0.2983 -0.3490 -0.2884
  772MOL0     O 4088  10.635   3.686   7.032 -0.1459  0.0251 -0.0542
  772MOL0     C 4089  10.757   3.694   7.092  0.1922 -0.7919 -0.2522
  772MOL0     C 4090  10.822   3.593   7.171  0.0508  0.2996 -0.5361
  772MOL0     C 4091  10.953   3.619   7.221 -0.0466 -0.0447  0.2180
  772MOL0     C 4092  11.024   3.744   7.194  0.8359 -0.1314 -0.1039
  772MOL0     O 4093  11.142   3.765   7.259 -0.1620  0.2638 -0.2614
  772MOL0     C 4094  11.248   3.810   7.174 -0.5596  0.3782  0.1126
  772MOL0     C 4095  11.375   3.831   7.251 -0.1822  0.5975  0.0483
  772MOL0     C 4096  11.488   3.900   7.178 -0.1163  0.7795 -0.2569
  772MOL0     C 4097  11.580   3.810   7.097  0.3279  0.3795  0.0991
  772MOL0     C 4098  11.700   3.889   7.040  1.1767 -0.0197 -0.5275
  772MOL0     C 4099  11.810   3.805   6.983 -0.0474  0.1464  0.0712
  772MOL0     C 4100  11.778   3.727   6.851  1.1718  0.1115  0.0359
  772MOL0     C 4101  11.751   3.806   6.721  0.1419  0.3225  0.4770
  772MOL0     N 4102  11.882   3.823   6.654 -0.0234  0.6131 -0.8733
  772MOL0     C 4103  11.968   3.921   6.691  0.2623 -0.0944  0.4132
  772MOL0     C 4104  12.039   3.944   6.579 -0.0736 -0.2850  1.6176
  772MOL0     C 4105  12.133   4.066   6.551 -0.7651  0.6580 -0.3490
  772MOL0     C 4106  12.275   4.036   6.599 -0.7335 -0.2325 -0.1463
  772MOL0     C 4107  12.377   4.148   6.557 -0.9545  0.1048  0.3681
  772MOL0     C 4108  12.522   4.101   6.574  0.3872  0.0421  0.2502
  772MOL0     O 4109  12.599   4.192   6.495  0.0433  0.2548 -0.2471
  772MOL0     C 4110  12.736   4.192   6.501 -0.5752  0.4543 -0.2390
  772MOL0     C 4111  12.812   4.293   6.428  0.2055 -0.4589 -0.2583
  772MOL0     C 4112  12.950   4.300   6.437 -0.0729  0.0149  0.0124
  772MOL0     C 4113  13.026   4.213   6.518 -0.2302 -0.4729 -0.9442
  772MOL0     C 4114  13.167   4.237   6.541  0.3333  0.3902  0.1374
  772MOL0     O 4115  13.232   4.143   6.618 -0.6224 -0.1042 -1.3782
  772MOL0     C 4116  13.357   4.189   6.659 -0.0432  0.1746 -0.0551
  772MOL0     C 4117  13.376   4.305   6.730 -0.2273 -0.9764  0.2540
  772MOL0     C 4118  13.489   4.334   6.794 -0.7201  0.5658  0.6114
  772MOL0     C 4119  13.602   4.260   6.750 -0.1876  0.5630 -0.7991
  772MOL0     O 4120  13.730   4.301   6.779 -0.1791  0.0344 -0.2536
  772MOL0     C 4121  13.750   4.433   6.831  0.1394  0.0853  0.9630
  772MOL0     C 4122  13.896   4.475   6.806 -0.0537 -0.7605 -0.2399
  772MOL0     C 4123  13.994   4.387   6.898 -0.5783 -0.8168  0.5288
  772MOL0     C 4124  14.142   4.426   6.892 -0.6466  0.3474  0.1333
  772MOL0     C 4125  14.215   4.334   6.995 -0.9907  0.0904  0.6805
  772MOL0     C 4126  14.374   4.353   6.997  0.2276  0.3585  0.1257
  772MOL0     C 4127  14.447   4.254   7.091 -1.3033 -0.1130 -0.4308
  772MOL0     C 4128  14.428   4.284   7.239  0.7015  0.2322 -0.9977
  772MOL0    Cl 4129  14.491   4.438   7.297 -0.0880  0.1467 -0.4857
  772MOL0     C 4130  13.595   4.146   6.674  0.3988  0.6294 -0.5804
  772MOL0     C 4131  13.473   4.108   6.632 -0.3542 -0.5520 -0.1146
  772MOL0     O 4132  13.216   4.337   6.488 -0.3493 -0.2051  0.6883
  772MOL0     C 4133  12.954   4.110   6.582 -0.6276 -0.0791 -0.3680
  772MOL0     C 4134  12.816   4.099   6.576  0.5229 -0.8760 -0.0201
  772MOL0     N 4135  11.997   3.860   6.478  0.3982 -0.9795  0.1449
  772MOL0     N 4136  11.906   3.788   6.526  0.2091 -0.5271 -0.5641
  772MOL0     C 4137  10.949   3.850   7.131 -1.0531  0.2697 -0.1721
  772MOL0     C 4138  10.818   3.826   7.080 -0.8754  0.6109 -0.1075
  772MOL0     C 4139  10.437   3.553   6.957  0.0017 -0.2307 -0.6557
  772MOL0     C 4140  10.375   3.425   6.954 -0.4139 -0.4015  0.3530
  772MOL0     C 4141  10.238   3.404   6.938 -0.3766  0.1611  0.2866
  772MOL0     C 4142  10.162   3.520   6.916  0.6234  0.1407  0.5832
  772MOL0     O 4143  10.033   3.522   6.877 -0.0963 -0.2569  0.3010
  772MOL0     C 4144   9.970   3.396   6.867  0.6746  0.0435  0.0776
  772MOL0     C 4145   9.854   3.399   6.772 -0.4349 -0.2246  0.0123
  772MOL0     C 4146   9.758   3.497   6.815  0.9357 -0.1797  0.1081
  772MOL0     C 4147   9.620   3.479   6.748  0.0639  0.0327 -0.4755
  772MOL0     C 4148   9.526   3.584   6.806  0.0663  0.1863  0.1001
  772MOL0     C 4149   9.435   3.657   6.843  0.3985 -0.2543  0.2357
  772MOL0     C 4150  10.222   3.644   6.923  0.3102 -0.0390  0.0599
  772MOL0     C 4151  10.360   3.668   6.934  0.4833 -0.4449  1.2941
  772MOL0     C 4152  10.410   3.804   6.924  0.6115  0.1220  0.0395
  772MOL0     H 4153  10.769   3.501   7.190  1.0696 -0.3341 -0.6494
  772MOL0     H 4154  10.999   3.544   7.285 -0.4175  0.9959  1.7818
  772MOL0     H 4155  11.274   3.744   7.091  1.5510  1.0191  0.1968
  772MOL0     H 4156  11.221   3.905   7.127  2.5819  1.8715  1.0499
  772MOL0     H 4157  11.407   3.742   7.307  5.8377  0.6014 -2.6816
  772MOL0     H 4158  11.347   3.909   7.323 -1.0966 -1.9351  2.6252
  772MOL0     H 4159  11.553   3.957   7.245 -2.2243  0.5063  2.1431
  772MOL0     H 4160  11.441   3.972   7.111  1.0413  0.7872 -1.0910
  772MOL0     H 4161  11.623   3.746   7.175  1.7041  1.8232  0.5792
  772MOL0     H 4162  11.539   3.749   7.016 -0.9381 -0.5242  1.3770
  772MOL0     H 4163  11.662   3.941   6.952 -0.1234  0.2286  0.1587
  772MOL0     H 4164  11.723   3.960   7.120  0.0916 -1.7283  1.3874
  772MOL0     H 4165  11.902   3.858   6.955  0.0664 -0.0156  0.1425
  772MOL0     H 4166  11.831   3.727   7.056 -1.2361  0.4254  0.7187
  772MOL0     H 4167  11.692   3.667   6.880  0.9507  0.1986 -0.4371
  772MOL0     H 4168  11.859   3.657   6.829 -1.5814 -3.3599  0.1800
  772MOL0     H 4169  11.705   3.742   6.646  0.4269  1.4473 -0.7003
  772MOL0     H 4170  11.697   3.901   6.725  0.5452  0.7121 -1.8260
  772MOL0     H 4171  11.967   3.977   6.784  1.0829 -1.0862  1.0467
  772MOL0     H 4172  12.135   4.094   6.445  0.2762  0.5399 -0.3736
  772MOL0     H 4173  12.097   4.154   6.606 -0.9806  1.9718 -2.4905
  772MOL0     H 4174  12.278   4.034   6.708  0.3868 -1.7368 -0.1787
  772MOL0     H 4175  12.313   3.940   6.563  1.4675 -1.1908  4.0620
  772MOL0     H 4176  12.357   4.231   6.624  0.2047  0.6756  0.0306
  772MOL0     H 4177  12.356   4.178   6.454  0.1257 -0.7125 -0.1042
  772MOL0     H 4178  12.540   4.006   6.524 -1.7999  0.1066 -0.7559
  772MOL0     H 4179  12.548   4.094   6.680  0.3099  0.4491  0.2994
  772MOL0     H 4180  12.751   4.357   6.365 -0.5536 -2.5149 -1.7172
  772MOL0     H 4181  13.000   4.380   6.384  0.7176 -1.5975 -1.8510
  772MOL0     H 4182  13.292   4.373   6.740  0.9021  0.1246  3.1253
  772MOL0     H 4183  13.496   4.422   6.858  2.8984 -0.3104  1.6710
  772MOL0     H 4184  13.678   4.503   6.788  1.8999  2.1512  1.1727
  772MOL0     H 4185  13.731   4.429   6.938 -0.9648 -2.9346  0.7445
  772MOL0     H 4186  13.933   4.474   6.702 -3.2919  3.1462 -1.6886
  772MOL0     H 4187  13.904   4.579   6.840 -0.7543 -0.0396 -2.1353
  772MOL0     H 4188  13.963   4.410   7.001  2.8694  1.8782  1.1599
  772MOL0     H 4189  13.989   4.281   6.873 -0.5223 -0.9043  0.8720
  772MOL0     H 4190  14.171   4.530   6.913  0.9416 -0.2160  0.9050
  772MOL0     H 4191  14.192   4.406   6.796 -0.7899 -0.0902  0.1505
  772MOL0     H 4192  14.184   4.232   6.973  2.1466 -0.9646  0.6635
  772MOL0     H 4193  14.184   4.367   7.094 -0.1198 -0.0918  1.0233
  772MOL0     H 4194  14.396   4.319   6.895 -1.0441  0.9853 -0.3752
  772MOL0     H 4195  14.393   4.459   7.014  1.7625  0.2886 -0.9427
  772MOL0     H 4196  14.549   4.251   7.054 -0.3652 -0.2769  1.9676
  772MOL0     H 4197  14.418   4.151   7.069  1.2179 -1.5849  2.3675
  772MOL0     H 4198  14.322   4.287   7.266  0.5804 -1.3639 -1.2086
  772MOL0     H 4199  14.469   4.207   7.304 -1.5695  1.1755  1.7771
  772MOL0     H 4200  13.677   4.076   6.663  0.2115  0.1137  1.0185
  772MOL0     H 4201  13.461   4.008   6.592  0.5861 -0.6216 -0.2380
  772MOL0     H 4202  13.002   4.038   6.648 -0.5136  0.6684  0.3840
  772MOL0     H 4203  12.776   4.014   6.630 -2.4394 -1.3060 -2.5806
  772MOL0     H 4204  10.991   3.947   7.107 -0.5610  0.4885  1.4407
  772MOL0     H 4205  10.769   3.911   7.033 -1.2993  0.8570  0.7620
  772MOL0     H 4206  10.432   3.335   6.975 -1.3587 -1.5011 -1.5367
  772MOL0     H 4207  10.206   3.300   6.936  1.0376 -0.3286 -3.5289
  772MOL0     H 4208   9.927   3.367   6.963  1.8585 -0.3190  0.5275
  772MOL0     H 4209  10.035   3.316   6.830  2.1629  0.9310  0.6501
  772MOL0     H 4210   9.825   3.296   6.752  2.5813 -2.0177  3.6531
  772MOL0     H 4211   9.886   3.439   6.675 -1.5019  0.4917 -0.0617
  772MOL0     H 4212   9.790   3.599   6.794 -1.7820  0.8727  0.7441
  772MOL0     H 4213   9.749   3.482   6.923  0.8037 -1.9802 -0.1203
  772MOL0     H 4214   9.641   3.517   6.648  0.5141  3.4931  0.7803
  772MOL0     H 4215   9.573   3.381   6.756 -1.8232  0.9838  1.0608
  772MOL0     H 4216   9.357   3.723   6.874 -1.1108 -0.7768 -2.1494
  772MOL0     H 4217  10.155   3.729   6.922  1.8702  1.3734  2.6738
  772MOL0     H 4218  10.327   3.875   6.916  0.5270  0.1501  1.0225
  772MOL0     H 4219  10.450   3.832   7.023 -0.9797 -1.5820  1.2187
  772MOL0     H 4220  10.465   3.820   6.831 -2.9988 -0.4343 -2.3990
  773MOL0     O 4221   2.316   8.673  10.154 -0.0039 -0.0478  0.2393
  773MOL0     C 4222   2.233   8.658  10.244  0.9259 -0.0827 -0.8254
  773MOL0     O 4223   2.260   8.641  10.378  0.2848 -0.3082 -0.6025
  773MOL0     C 4224   2.387   8.675  10.429  1.0168 -0.1289 -0.0310
  773MOL0     C 4225   2.435   8.587  10.521 -0.4866 -0.3563 -0.8929
  773MOL0     C 4226   2.548   8.627  10.595  0.5382  0.2580 -0.5556
  773MOL0     C 4227   2.605   8.754  10.589 -0.3882  0.1069 -0.1943
  773MOL0     O 4228   2.697   8.793  10.678 -0.2352  0.4127 -0.7178
  773MOL0     C 4229   2.819   8.721  10.654 -0.3009  0.3563  0.1629
  773MOL0     C 4230   2.938   8.816  10.683  0.0270  0.1262 -0.3402
  773MOL0     C 4231   3.071   8.764  10.615 -0.2580 -0.0165  0.6682
  773MOL0     C 4232   3.076   8.806  10.463  0.0183  0.7221  0.5970
  773MOL0     C 4233   3.218   8.810  10.398 -0.1538  0.0505  0.0480
  773MOL0     C 4234   3.229   8.834  10.240 -0.5231 -0.3782  0.5152
  773MOL0     C 4235   3.365   8.794  10.180 -0.2431  0.4235 -0.9701
  773MOL0     C 4236   3.472   8.904  10.208 -0.0270 -0.1297 -0.7641
  773MOL0     N 4237   3.607   8.846  10.190 -0.3509 -1.1354  0.2162
  773MOL0     C 4238   3.639   8.765  10.084 -0.1521 -0.6134  0.6079
  773MOL0     C 4239   3.766   8.728  10.107  0.6043 -0.9079  0.4741
  773MOL0     C 4240   3.832   8.621  10.031 -0.0061  0.0768 -0.2071
  773MOL0     C 4241   3.805   8.483  10.096 -0.9630  0.0933 -0.5969
  773MOL0     C 4242   3.847   8.454  10.238 -0.3882 -0.3782  0.1007
  773MOL0     C 4243   3.997   8.468  10.270  0.0119 -0.6920 -0.1555
  773MOL0     O 4244   4.072   8.375  10.193 -0.4039  0.6682 -0.2377
  773MOL0     C 4245   4.205   8.385  10.211 -0.2696 -0.1709 -0.0263
  773MOL0     C 4246   4.288   8.411  10.097  0.1758  1.1438  0.1008
  773MOL0     C 4247   4.426   8.424  10.107  0.4905  0.5673 -0.4651
  773MOL0     C 4248   4.480   8.414  10.233 -0.5560 -0.0899 -0.0573
  773MOL0     C 4249   4.630   8.431  10.254  0.2041 -0.0638 -0.1089
  773MOL0     O 4250   4.698   8.512  10.160  0.8003 -0.2312 -0.8279
  773MOL0     C 4251   4.832   8.530  10.166  0.1343  0.7246 -0.3969
  773MOL0     C 4252   4.893   8.571  10.044  0.0789  0.2347 -0.4652
  773MOL0     C 4253   5.027   8.606  10.033 -0.4118 -0.5456 -0.1150
  773MOL0     C 4254   5.103   8.591  10.148 -1.6938 -1.1205 -0.1895
  773MOL0     O 4255   5.240   8.608  10.137  0.0723  0.1950 -0.1535
  773MOL0     C 4256   5.317   8.622  10.006  0.0464 -0.1796 -0.2747
  773MOL0     C 4257   5.464   8.642  10.036 -0.7519  0.2922  0.2849
  773MOL0     C 4258   5.501   8.778  10.111 -0.2214 -0.4049 -0.5733
  773MOL0     C 4259   5.435   8.901  10.054  0.7129 -0.3387 -0.5025
  773MOL0     C 4260   5.515   9.031  10.091 -0.1079  0.2276  0.3036
  773MOL0     C 4261   5.540   9.043  10.245  0.8260 -0.3166 -1.0678
  773MOL0     C 4262   5.570   9.191  10.273 -0.4443  0.6000 -0.2368
  773MOL0     C 4263   5.604   9.213  10.426 -0.2545  0.2092  0.5710
  773MOL0    Cl 4264   5.769   9.157  10.471  0.2316  0.2688  0.2256
  773MOL0     C 4265   5.052   8.543  10.269  0.5993 -1.0981  0.3899
  773MOL0     C 4266   4.917   8.520  10.275  0.2850 -0.4664  0.1674
  773MOL0     O 4267   4.687   8.353  10.338 -0.5868 -0.2519  0.1704
  773MOL0     C 4268   4.400   8.384  10.346  0.2148  0.5311  0.1083
  773MOL0     C 4269   4.266   8.379  10.331  0.4374 -0.0989  0.3648
  773MOL0     N 4270   3.803   8.791  10.230  0.7274  0.2628  0.3972
  773MOL0     N 4271   3.713   8.875  10.270  0.3251  0.4711 -0.2753
  773MOL0     C 4272   2.553   8.847  10.506 -0.4239 -0.1247 -0.5488
  773MOL0     C 4273   2.451   8.803  10.414 -0.4667 -0.0145 -0.4097
  773MOL0     C 4274   2.087   8.653  10.212  0.1317  1.1851  0.4062
  773MOL0     C 4275   2.056   8.640  10.071  0.4367 -0.2309 -0.3395
  773MOL0     C 4276   1.931   8.658  10.015  0.1485  0.0110 -0.2417
  773MOL0     C 4277   1.824   8.690  10.100  0.4321 -0.0045 -0.5663
  773MOL0     O 4278   1.696   8.713  10.055 -0.9635  0.2152 -0.3514
  773MOL0     C 4279   1.670   8.681   9.918  1.4468  0.3029  0.5983
  773MOL0     C 4280   1.515   8.658   9.924 -0.7391 -1.0634  0.0719
  773MOL0     C 4281   1.451   8.604   9.794 -0.0667  0.1632 -0.1122
  773MOL0     C 4282   1.356   8.693   9.724 -0.4974  0.4539  0.5512
  773MOL0     C 4283   1.385   8.834   9.701 -0.0308  0.5705  0.2559
  773MOL0     C 4284   1.420   8.948   9.678  0.3241 -0.4590 -0.1428
  773MOL0     C 4285   1.856   8.711  10.240 -0.1438  0.3879 -0.0576
  773MOL0     C 4286   1.983   8.692  10.295 -0.3598 -0.0194 -0.2895
  773MOL0     C 4287   1.993   8.715  10.441  0.1115  0.0867  0.2872
  773MOL0     H 4288   2.375   8.500  10.546  0.6443 -0.3504  2.2889
  773MOL0     H 4289   2.594   8.566  10.672 -0.6900  1.5228  1.2473
  773MOL0     H 4290   2.835   8.630  10.712  0.7346  0.8477  0.6674
  773MOL0     H 4291   2.827   8.700  10.547 -0.9700 -1.3459  0.4191
  773MOL0     H 4292   2.953   8.814  10.791 -0.2049 -0.7511 -0.3155
  773MOL0     H 4293   2.907   8.919  10.661  2.0793  0.2474 -3.4120
  773MOL0     H 4294   3.084   8.655  10.619  0.4213 -0.1048 -2.2299
  773MOL0     H 4295   3.158   8.814  10.659  0.5154 -1.1754  0.4875
  773MOL0     H 4296   3.014   8.738  10.403  0.6422  2.3816 -2.0831
  773MOL0     H 4297   3.025   8.902  10.450 -1.9494 -0.1586  1.4073
  773MOL0     H 4298   3.281   8.879  10.453 -0.5754  1.9328 -1.7057
  773MOL0     H 4299   3.267   8.712  10.410 -0.1912  0.1305  0.9156
  773MOL0     H 4300   3.147   8.777  10.197 -1.7134  1.5370  0.1006
  773MOL0     H 4301   3.205   8.936  10.206 -5.6725 -1.2827  0.5961
  773MOL0     H 4302   3.360   8.783  10.072  1.0540 -0.0914 -0.9960
  773MOL0     H 4303   3.400   8.699  10.221 -0.6984  0.1797 -1.1408
  773MOL0     H 4304   3.455   8.986  10.138 -1.1372  1.1259  0.9013
  773MOL0     H 4305   3.457   8.950  10.306  1.3616  1.1644 -1.1175
  773MOL0     H 4306   3.573   8.722  10.009  0.4795  0.7862 -0.7901
  773MOL0     H 4307   3.786   8.631   9.933  1.3124  1.1018 -0.7646
  773MOL0     H 4308   3.939   8.640  10.018  0.3798 -2.3936 -1.1402
  773MOL0     H 4309   3.699   8.457  10.084 -0.7944  0.1330 -2.4123
  773MOL0     H 4310   3.857   8.402  10.044  2.4648 -1.1452  4.0588
  773MOL0     H 4311   3.827   8.349  10.262  0.3615 -0.0855  2.1957
  773MOL0     H 4312   3.783   8.518  10.299 -0.1902 -0.0630 -0.0198
  773MOL0     H 4313   4.006   8.446  10.377 -2.8511  0.6291  0.4536
  773MOL0     H 4314   4.044   8.564  10.249  0.0394 -0.9595 -1.3947
  773MOL0     H 4315   4.234   8.423  10.003 -0.4726 -1.2242  0.1151
  773MOL0     H 4316   4.486   8.443  10.019  1.0527  3.4203  0.4270
  773MOL0     H 4317   4.821   8.583   9.963  0.3242 -0.8180 -0.8482
  773MOL0     H 4318   5.059   8.649   9.939  0.3813 -0.2941  0.2653
  773MOL0     H 4319   5.307   8.529   9.950 -0.1921  0.4015 -1.2127
  773MOL0     H 4320   5.290   8.711   9.948  4.1038  0.0149 -2.2485
  773MOL0     H 4321   5.497   8.559  10.099 -0.7229  1.0615  1.3206
  773MOL0     H 4322   5.513   8.632   9.939 -2.5185 -2.6598 -0.4407
  773MOL0     H 4323   5.470   8.769  10.216 -1.1556 -0.2696 -0.8287
  773MOL0     H 4324   5.609   8.793  10.104 -0.2996  1.0427  0.6569
  773MOL0     H 4325   5.328   8.899  10.074  0.6603  1.7900 -0.3507
  773MOL0     H 4326   5.433   8.885   9.946 -1.5733 -1.5674 -0.3302
  773MOL0     H 4327   5.445   9.106  10.053 -0.9943 -0.5674  0.3301
  773MOL0     H 4328   5.604   9.045  10.029 -1.6995 -1.1991 -2.5660
  773MOL0     H 4329   5.451   9.013  10.301 -0.5203  3.5857 -0.7525
  773MOL0     H 4330   5.621   8.982  10.283  0.1587 -1.4822 -1.4693
  773MOL0     H 4331   5.485   9.247  10.234 -0.5516 -1.1146 -2.6136
  773MOL0     H 4332   5.654   9.234  10.216 -3.3327  6.2095 -0.9869
  773MOL0     H 4333   5.595   9.319  10.449  3.3867  0.8001 -0.0807
  773MOL0     H 4334   5.535   9.148  10.480  0.1709  0.0491  0.9311
  773MOL0     H 4335   5.111   8.518  10.357 -1.2251 -2.3335  1.3305
  773MOL0     H 4336   4.871   8.496  10.371 -0.9786  1.1140  0.0058
  773MOL0     H 4337   4.447   8.391  10.443  1.3528  2.0428 -0.5029
  773MOL0     H 4338   4.201   8.379  10.418 -1.9172  1.7130 -1.2526
  773MOL0     H 4339   2.594   8.947  10.512 -1.4687  0.3372 -0.9555
  773MOL0     H 4340   2.414   8.875  10.342  1.0320 -0.3412 -1.5752
  773MOL0     H 4341   2.139   8.617  10.005  1.5134  2.0932  0.0839
  773MOL0     H 4342   1.924   8.652   9.907 -0.3007 -0.9289 -0.1778
  773MOL0     H 4343   1.721   8.587   9.896  4.6401  1.8321  0.8207
  773MOL0     H 4344   1.692   8.757   9.843  1.0469 -0.7655 -0.6324
  773MOL0     H 4345   1.470   8.753   9.953 -1.8588 -2.0353  1.6974
  773MOL0     H 4346   1.496   8.584  10.003  0.2779 -0.5417  0.8180
  773MOL0     H 4347   1.393   8.518   9.827  2.3164 -0.8674  1.7230
  773MOL0     H 4348   1.531   8.574   9.725 -0.4506  0.3209 -0.6312
  773MOL0     H 4349   1.311   8.646   9.636  1.0036  0.6906 -0.3650
  773MOL0     H 4350   1.275   8.696   9.798 -0.3254 -3.6645  1.1116
  773MOL0     H 4351   1.428   9.053   9.655  0.6590 -0.8280 -1.8521
  773MOL0     H 4352   1.775   8.749  10.301 -0.6852 -2.0275  0.8327
  773MOL0     H 4353   1.895   8.732  10.486 -0.6011  0.4858 -1.3372
  773MOL0     H 4354   2.032   8.625  10.488 -1.2026 -1.3227 -1.2039
  773MOL0     H 4355   2.059   8.800  10.462  1.0565 -0.8676  1.3417
  774MOL0     O 4356   7.178   7.120   4.793 -0.5022 -0.2895  0.9210
  774MOL0     C 4357   7.105   7.026   4.817  1.2416 -0.5037 -0.0701
  774MOL0     O 4358   7.114   6.905   4.753  0.0929 -0.4159  0.0175
  774MOL0     C 4359   7.233   6.890   4.681  0.5246  0.6246  0.8956
  774MOL0     C 4360   7.337   6.840   4.756 -0.4238 -0.1786  0.5447
  774MOL0     C 4361   7.459   6.820   4.685 -0.9899  0.6717 -0.3271
  774MOL0     C 4362   7.481   6.858   4.549 -0.0492  0.4466  0.0900
  774MOL0     O 4363   7.612   6.846   4.499  0.0293  0.0420 -0.2740
  774MOL0     C 4364   7.639   6.901   4.374  0.0532  0.8272  0.2550
  774MOL0     C 4365   7.611   6.801   4.259  0.2934  0.6334 -0.5490
  774MOL0     C 4366   7.634   6.858   4.117  0.3040  0.5505 -0.1957
  774MOL0     C 4367   7.764   6.932   4.108  0.1963  0.5365 -0.2658
  774MOL0     C 4368   7.773   7.006   3.975 -0.1845  0.5783  0.1295
  774MOL0     C 4369   7.909   7.066   3.949 -0.2181 -0.0991 -0.0361
  774MOL0     C 4370   7.914   7.124   3.803  0.0026 -0.3051  0.2970
  774MOL0     C 4371   8.051   7.182   3.759 -0.6232 -0.3766  0.1072
  774MOL0     N 4372   8.098   7.291   3.848 -0.3023 -0.1743 -0.1532
  774MOL0     C 4373   8.212   7.295   3.923 -0.1664  0.0004 -0.0436
  774MOL0     C 4374   8.214   7.412   3.989  0.0448 -0.0001  0.2886
  774MOL0     C 4375   8.327   7.461   4.081  0.1738  0.3357 -0.0934
  774MOL0     C 4376   8.437   7.535   3.997 -0.3684  0.3833  0.0340
  774MOL0     C 4377   8.532   7.593   4.093  0.6345 -0.7667  1.1027
  774MOL0     C 4378   8.635   7.691   4.053  0.1378  0.2237  1.1417
  774MOL0     O 4379   8.716   7.626   3.953  0.0458 -0.2812 -0.5951
  774MOL0     C 4380   8.848   7.658   3.947 -0.0038  0.8253  0.7123
  774MOL0     C 4381   8.929   7.749   4.019  0.6850 -1.0009 -0.0208
  774MOL0     C 4382   9.062   7.776   3.993 -0.5794 -0.7361  0.0805
  774MOL0     C 4383   9.138   7.694   3.898  0.7378  0.1332  1.0562
  774MOL0     C 4384   9.276   7.700   3.886 -0.4976  0.4618  0.5515
  774MOL0     O 4385   9.336   7.598   3.821 -0.9826  0.3796  0.2146
  774MOL0     C 4386   9.476   7.585   3.847 -0.2067 -0.5934  0.1979
  774MOL0     C 4387   9.532   7.487   3.923  0.1074  0.2905  0.8349
  774MOL0     C 4388   9.673   7.483   3.952  0.2083 -0.1709  0.3713
  774MOL0     C 4389   9.756   7.574   3.886 -0.1338  0.5025 -0.0547
  774MOL0     O 4390   9.890   7.547   3.902 -0.6538 -0.4411 -0.2564
  774MOL0     C 4391   9.983   7.655   3.881 -0.3445  0.0587 -0.1497
  774MOL0     C 4392  10.123   7.602   3.907 -0.1345 -0.1168 -0.0005
  774MOL0     C 4393  10.225   7.703   3.863 -0.1768  0.3806 -0.4720
  774MOL0     C 4394  10.373   7.647   3.855  0.5505  0.0717  0.2178
  774MOL0     C 4395  10.434   7.692   3.723 -0.8696 -0.3773 -0.0699
  774MOL0     C 4396  10.584   7.679   3.732 -0.4025 -0.7620 -0.2714
  774MOL0     C 4397  10.638   7.668   3.588 -0.5064  0.5507 -0.6684
  774MOL0     C 4398  10.788   7.689   3.570  0.3648  0.4573 -0.5968
  774MOL0    Cl 4399  10.847   7.848   3.630 -0.1933 -0.2588  0.3339
  774MOL0     C 4400   9.694   7.673   3.813  0.0956 -0.3863  0.2163
  774MOL0     C 4401   9.560   7.680   3.782  0.1788  0.1994  0.2789
  774MOL0     O 4402   9.332   7.768   3.976 -0.0125 -0.6456  0.4282
  774MOL0     C 4403   9.060   7.604   3.834 -0.0195  0.3051 -0.1625
  774MOL0     C 4404   8.925   7.589   3.847  1.2998  0.1282  0.1023
  774MOL0     N 4405   8.096   7.476   3.962  0.5537  0.2690 -1.0321
  774MOL0     N 4406   8.026   7.403   3.882 -0.0808 -0.7370  0.1589
  774MOL0     C 4407   7.363   6.898   4.482 -0.4937 -0.0081 -0.1555
  774MOL0     C 4408   7.237   6.906   4.551  0.0307  0.2316 -0.6491
  774MOL0     C 4409   6.989   7.051   4.904  0.2166  0.2301 -0.6147
  774MOL0     C 4410   6.906   6.948   4.949  0.4109  0.3489  0.4214
  774MOL0     C 4411   6.793   6.967   5.030 -0.0789  0.7390  0.4108
  774MOL0     C 4412   6.757   7.091   5.069  0.6050 -0.9108  0.3173
  774MOL0     O 4413   6.665   7.124   5.167 -0.4246 -0.0199 -0.2580
  774MOL0     C 4414   6.563   7.035   5.220 -0.4221 -0.4677  0.0737
  774MOL0     C 4415   6.441   7.052   5.142 -0.2009 -0.3049  0.5383
  774MOL0     C 4416   6.310   6.973   5.186 -0.4285  0.2222 -0.1774
  774MOL0     C 4417   6.193   6.979   5.089 -0.8390 -0.9620 -0.4671
  774MOL0     C 4418   6.072   6.951   5.167  0.1914 -0.0597 -0.0051
  774MOL0     C 4419   5.969   6.935   5.224  0.1069 -0.4605  0.2010
  774MOL0     C 4420   6.837   7.193   5.034 -0.2224 -0.3411  0.5047
  774MOL0     C 4421   6.948   7.185   4.949  0.0762  0.8870  0.0522
  774MOL0     C 4422   7.024   7.306   4.922  0.0003 -0.1792 -0.7252
  774MOL0     H 4423   7.325   6.815   4.861 -0.3838  1.3406  0.9431
  774MOL0     H 4424   7.545   6.795   4.747 -0.8320  2.3205  0.1559
  774MOL0     H 4425   7.571   6.986   4.367  1.2579  1.7509 -0.9021
  774MOL0     H 4426   7.741   6.941   4.377  0.1894  0.4542  0.7122
  774MOL0     H 4427   7.505   6.775   4.271  0.5669  0.6243  2.8087
  774MOL0     H 4428   7.679   6.716   4.270  0.1080  0.8302  3.8586
  774MOL0     H 4429   7.546   6.918   4.090 -0.4051 -0.3740  0.0069
  774MOL0     H 4430   7.642   6.770   4.053 -1.0099 -1.3625  2.1332
  774MOL0     H 4431   7.773   7.011   4.184  1.1551 -0.3375  0.5619
  774MOL0     H 4432   7.841   6.856   4.123 -1.6067 -1.0064  1.9301
  774MOL0     H 4433   7.738   6.942   3.893  1.7680 -0.6920  0.2222
  774MOL0     H 4434   7.705   7.091   3.979  0.9052  1.5570 -1.2786
  774MOL0     H 4435   7.943   7.137   4.025 -1.1488 -0.4074  0.6820
  774MOL0     H 4436   7.981   6.984   3.963 -1.0553 -1.4844 -2.9891
  774MOL0     H 4437   7.838   7.203   3.792  0.5791  0.0386 -1.5460
  774MOL0     H 4438   7.883   7.046   3.734 -0.4785  0.2017 -0.0704
  774MOL0     H 4439   8.127   7.105   3.745  0.9482  1.3192 -1.1855
  774MOL0     H 4440   8.041   7.225   3.659  0.1558  1.0398  0.6136
  774MOL0     H 4441   8.288   7.219   3.909  0.4022  0.4154  0.7035
  774MOL0     H 4442   8.292   7.516   4.168  1.4425  1.9214 -0.5476
  774MOL0     H 4443   8.373   7.370   4.122 -0.5858 -0.3232 -0.6689
  774MOL0     H 4444   8.486   7.466   3.928  1.5007  0.1317  1.5288
  774MOL0     H 4445   8.381   7.613   3.944 -4.0335 -0.0183  2.9607
  774MOL0     H 4446   8.590   7.513   4.143  0.9340 -0.9003  0.5479
  774MOL0     H 4447   8.476   7.632   4.178  0.1543 -0.6754  0.7491
  774MOL0     H 4448   8.698   7.714   4.139 -1.1148  2.0296  1.6397
  774MOL0     H 4449   8.599   7.788   4.019 -0.0491 -0.2398 -0.0704
  774MOL0     H 4450   8.880   7.784   4.110 -2.0780 -5.7737  0.6861
  774MOL0     H 4451   9.119   7.847   4.052  0.8489 -1.0158 -0.9027
  774MOL0     H 4452   9.470   7.415   3.975 -2.3973  1.9650  0.3674
  774MOL0     H 4453   9.713   7.397   4.005  0.1443 -1.5776 -1.7325
  774MOL0     H 4454   9.973   7.683   3.775 -0.5470 -2.8994 -1.0020
  774MOL0     H 4455   9.963   7.743   3.943 -0.0057  1.2132 -1.6284
  774MOL0     H 4456  10.131   7.585   4.014  0.0199 -0.7899 -0.1151
  774MOL0     H 4457  10.142   7.504   3.862  0.1930  0.4931 -1.2481
  774MOL0     H 4458  10.201   7.761   3.773 -1.6951  0.9031  0.2365
  774MOL0     H 4459  10.226   7.773   3.947 -0.3238 -0.8182  0.5615
  774MOL0     H 4460  10.377   7.539   3.867  2.1052  0.1975  1.0901
  774MOL0     H 4461  10.431   7.683   3.941 -0.3571  0.1250  0.8102
  774MOL0     H 4462  10.407   7.797   3.709 -0.3393 -0.3440 -0.9244
  774MOL0     H 4463  10.388   7.640   3.638 -3.7715  2.5221 -0.4842
  774MOL0     H 4464  10.639   7.758   3.785  0.5619  0.5057 -2.9713
  774MOL0     H 4465  10.594   7.581   3.779 -1.9383  0.2668  2.4364
  774MOL0     H 4466  10.594   7.747   3.527 -0.1519  0.6050 -0.8567
  774MOL0     H 4467  10.608   7.572   3.543 -2.4837  1.9911 -2.6378
  774MOL0     H 4468  10.847   7.615   3.625 -0.0813  0.0655 -0.6329
  774MOL0     H 4469  10.797   7.682   3.461  0.8678 -1.9413 -0.4615
  774MOL0     H 4470   9.756   7.737   3.751  0.1109 -1.3042 -0.7411
  774MOL0     H 4471   9.514   7.750   3.714  1.1668 -0.9058 -1.6220
  774MOL0     H 4472   9.108   7.531   3.769 -0.4986  1.3787 -1.7693
  774MOL0     H 4473   8.870   7.512   3.794 -0.2212  1.5560 -0.4721
  774MOL0     H 4474   7.368   6.909   4.374 -1.3835 -0.0072 -0.2066
  774MOL0     H 4475   7.142   6.937   4.507 -0.5449  0.4616  0.7016
  774MOL0     H 4476   6.933   6.849   4.911  1.5070 -0.5744  3.3301
  774MOL0     H 4477   6.738   6.882   5.068 -0.4117 -0.6949 -2.9792
  774MOL0     H 4478   6.534   7.055   5.323 -1.5867 -2.6091  0.2126
  774MOL0     H 4479   6.611   6.936   5.220  1.6886  0.4912  0.4645
  774MOL0     H 4480   6.466   7.025   5.039 -0.8327 -0.9542  0.5435
  774MOL0     H 4481   6.420   7.159   5.144  1.8822  0.1971 -1.3524
  774MOL0     H 4482   6.280   7.020   5.280 -0.4395 -2.9126  1.5499
  774MOL0     H 4483   6.326   6.867   5.208 -0.0822 -0.0898 -1.8069
  774MOL0     H 4484   6.195   7.079   5.045  3.0880 -0.6757  0.0041
  774MOL0     H 4485   6.204   6.909   5.006 -3.5927  0.4620 -2.1868
  774MOL0     H 4486   5.871   6.931   5.268  0.1302 -1.9073  0.1509
  774MOL0     H 4487   6.813   7.290   5.075 -0.5790  0.3136 -1.1747
  774MOL0     H 4488   7.111   7.325   4.986 -1.6717 -2.4605  2.5047
  774MOL0     H 4489   7.048   7.314   4.816 -2.3600 -2.6049 -1.5360
  774MOL0     H 4490   6.960   7.393   4.943  3.0640  2.6041 -1.9572
  775MOL0     O 4491   7.622  10.024   6.380  0.2295 -0.0198  0.3585
  775MOL0     C 4492   7.565  10.055   6.274 -0.5255  0.1975  0.5788
  775MOL0     O 4493   7.575  10.169   6.206  0.4187 -0.2463  0.1124
  775MOL0     C 4494   7.665  10.254   6.265 -0.9598  0.1219  0.5704
  775MOL0     C 4495   7.802  10.225   6.259 -0.4540  0.0484 -0.2638
  775MOL0     C 4496   7.888  10.313   6.318 -0.5730 -0.6031  0.3800
  775MOL0     C 4497   7.854  10.440   6.364  0.0737  0.6337  0.5828
  775MOL0     O 4498   7.951  10.533   6.400  0.5816 -0.2403 -0.4980
  775MOL0     C 4499   7.928  10.662   6.339 -0.7887 -0.1258  0.9328
  775MOL0     C 4500   8.059  10.747   6.334  0.3401 -0.1345  0.1385
  775MOL0     C 4501   8.143  10.715   6.200  0.8543  0.1277  0.0552
  775MOL0     C 4502   8.264  10.802   6.187  0.1080 -0.5712  0.5875
  775MOL0     C 4503   8.374  10.761   6.288  0.5843 -0.1368  0.0580
  775MOL0     C 4504   8.503  10.851   6.272  0.1283 -0.1085 -0.4114
  775MOL0     C 4505   8.597  10.834   6.387  0.3866  0.1836  0.0893
  775MOL0     C 4506   8.541  10.898   6.514 -0.4353  0.5306 -0.9829
  775MOL0     N 4507   8.638  10.897   6.622  0.0164 -0.6521 -0.2287
  775MOL0     C 4508   8.708  11.005   6.668 -1.1964 -0.4861  0.0673
  775MOL0     C 4509   8.772  10.956   6.781 -0.5074  0.8784  0.2578
  775MOL0     C 4510   8.844  11.045   6.876 -0.1376  0.6357 -0.0008
  775MOL0     C 4511   8.994  11.041   6.845  0.5306 -0.0173  0.7917
  775MOL0     C 4512   9.077  11.071   6.967 -0.0302 -0.7902  0.0572
  775MOL0     C 4513   9.085  11.216   6.990 -0.0353 -0.0517  0.2055
  775MOL0     O 4514   9.144  11.295   6.885 -0.2560 -0.4394  0.2511
  775MOL0     C 4515   9.281  11.277   6.868 -0.0797  0.2314  0.4786
  775MOL0     C 4516   9.377  11.202   6.946 -0.1634  0.0732  0.6140
  775MOL0     C 4517   9.516  11.194   6.912 -0.3249  0.4699 -0.4679
  775MOL0     C 4518   9.560  11.252   6.800  0.1506  0.5322  0.1040
  775MOL0     C 4519   9.704  11.238   6.763 -1.3115  0.0096 -0.4234
  775MOL0     O 4520   9.789  11.161   6.839  0.5447  0.2410 -0.9416
  775MOL0     C 4521   9.922  11.150   6.804  0.2912  0.0316 -0.2663
  775MOL0     C 4522  10.030  11.187   6.883 -0.0409  0.4291  0.0451
  775MOL0     C 4523  10.161  11.152   6.845 -0.1317 -1.2776 -0.0117
  775MOL0     C 4524  10.192  11.083   6.729  0.5084  0.1080  0.4267
  775MOL0     O 4525  10.330  11.038   6.713  0.4032 -0.4702 -0.3931
  775MOL0     C 4526  10.401  11.043   6.587 -1.1663  1.1820 -0.1564
  775MOL0     C 4527  10.537  11.117   6.601 -0.1812  0.6087  0.3693
  775MOL0     C 4528  10.513  11.263   6.640  0.0307  0.8755 -0.4043
  775MOL0     C 4529  10.635  11.344   6.623  0.4705  0.2517  0.6737
  775MOL0     C 4530  10.610  11.495   6.652 -0.5325  0.1691  0.0788
  775MOL0     C 4531  10.722  11.578   6.588  0.3745 -0.2575  0.3989
  775MOL0     C 4532  10.695  11.721   6.629  0.1257  0.1102  0.2685
  775MOL0     C 4533  10.791  11.825   6.564  0.1110  0.2254  0.6176
  775MOL0    Cl 4534  10.744  11.830   6.384 -0.2934 -0.1700  0.2151
  775MOL0     C 4535  10.080  11.052   6.646  0.3966  0.0436  0.1588
  775MOL0     C 4536   9.948  11.080   6.686 -0.6185 -0.4492 -0.8055
  775MOL0     O 4537   9.733  11.305   6.663 -0.5423 -0.7933  0.7331
  775MOL0     C 4538   9.478  11.331   6.725  0.6451 -0.7522 -0.9854
  775MOL0     C 4539   9.337  11.343   6.754 -0.1424  0.5500  0.6831
  775MOL0     N 4540   8.736  10.824   6.801  0.3744  0.3589 -0.3912
  775MOL0     N 4541   8.656  10.791   6.711  0.7965 -0.0192 -0.3315
  775MOL0     C 4542   7.714  10.464   6.377 -0.3610 -1.2617 -0.5267
  775MOL0     C 4543   7.621  10.379   6.331  0.2228 -0.2685 -0.4940
  775MOL0     C 4544   7.477   9.951   6.209  0.2290  0.3572 -0.7472
  775MOL0     C 4545   7.427   9.982   6.083  0.5821  0.4696  0.6215
  775MOL0     C 4546   7.356   9.888   6.011  0.3378 -0.6385  0.6806
  775MOL0     C 4547   7.339   9.755   6.053  0.5599 -0.6227  0.0778
  775MOL0     O 4548   7.271   9.660   5.980  0.2815  0.1460 -0.2629
  775MOL0     C 4549   7.251   9.682   5.839  0.9436 -0.0330  0.7402
  775MOL0     C 4550   7.177   9.567   5.772  0.0830 -0.2117  0.0789
  775MOL0     C 4551   7.149   9.584   5.625 -0.8142  0.0255  0.3327
  775MOL0     C 4552   7.055   9.703   5.582  0.4367 -0.1411  0.6374
  775MOL0     C 4553   6.977   9.669   5.460  0.4799 -0.9191 -0.8339
  775MOL0     C 4554   6.898   9.648   5.370 -0.1152  0.2301 -0.3567
  775MOL0     C 4555   7.393   9.720   6.175 -0.4604  0.4112 -0.1303
  775MOL0     C 4556   7.457   9.816   6.261 -0.7649  0.4126 -0.3822
  775MOL0     C 4557   7.484   9.774   6.403  0.2994 -0.3644 -0.2254
  775MOL0     H 4558   7.839  10.129   6.224  0.0286 -0.3134  1.1627
  775MOL0     H 4559   7.992  10.282   6.317 -0.6411 -0.9574 -1.7209
  775MOL0     H 4560   7.886  10.659   6.238 -0.3025  0.7848  0.6961
  775MOL0     H 4561   7.857  10.712   6.405  0.8621 -1.0774  3.6200
  775MOL0     H 4562   8.105  10.734   6.432 -2.9580  1.1942  2.0582
  775MOL0     H 4563   8.033  10.853   6.322  0.7966 -0.1091 -0.7133
  775MOL0     H 4564   8.077  10.732   6.114 -0.3447  0.3903  0.9925
  775MOL0     H 4565   8.173  10.610   6.195  2.6904  0.6852 -1.6395
  775MOL0     H 4566   8.303  10.807   6.085  0.3005 -0.8767  0.6469
  775MOL0     H 4567   8.225  10.901   6.212 -1.7661 -0.9051 -0.7734
  775MOL0     H 4568   8.331  10.770   6.388 -0.0049 -3.5472  0.2225
  775MOL0     H 4569   8.392  10.654   6.275 -0.5836 -0.3593  0.1961
  775MOL0     H 4570   8.554  10.830   6.177  0.0347 -0.6082 -0.3571
  775MOL0     H 4571   8.472  10.956   6.270 -0.7392 -0.3587 -0.7177
  775MOL0     H 4572   8.695  10.881   6.373  0.6906  0.1496  1.9013
  775MOL0     H 4573   8.613  10.726   6.397 -1.1384  0.0339  1.2418
  775MOL0     H 4574   8.503  11.000   6.501  2.6126  1.9403  0.1772
  775MOL0     H 4575   8.459  10.834   6.548  1.5329 -3.2487 -2.7100
  775MOL0     H 4576   8.695  11.111   6.647 -0.3130 -0.6241 -1.2598
  775MOL0     H 4577   8.807  11.147   6.869 -1.9298  0.1316  1.4096
  775MOL0     H 4578   8.826  11.016   6.980  5.7175  0.6105  1.3564
  775MOL0     H 4579   9.025  10.938   6.823 -0.9165 -0.9568  2.7716
  775MOL0     H 4580   9.010  11.095   6.751  0.5853 -0.6917  0.4057
  775MOL0     H 4581   9.174  11.021   6.969  0.3073 -0.1983  2.5817
  775MOL0     H 4582   9.031  11.033   7.058  0.3241  0.1279  0.6304
  775MOL0     H 4583   9.130  11.239   7.087 -3.2574  1.6213  1.4221
  775MOL0     H 4584   8.982  11.248   7.007  0.1909  1.8308 -1.5380
  775MOL0     H 4585   9.349  11.149   7.037 -1.2459  1.3223  1.0425
  775MOL0     H 4586   9.579  11.135   6.978 -1.5968 -1.2747 -0.7238
  775MOL0     H 4587  10.013  11.227   6.982  0.3673 -0.5025  0.5043
  775MOL0     H 4588  10.245  11.177   6.909 -0.6938  4.9214 -0.9957
  775MOL0     H 4589  10.414  10.939   6.556 -0.9088  0.5620  1.8606
  775MOL0     H 4590  10.335  11.086   6.512 -2.5534 -1.3730 -0.5275
  775MOL0     H 4591  10.601  11.069   6.675 -1.1605  0.6419  1.2662
  775MOL0     H 4592  10.585  11.096   6.505 -0.2121 -3.3563  1.0566
  775MOL0     H 4593  10.440  11.310   6.573  0.1413  2.4735  0.5503
  775MOL0     H 4594  10.475  11.268   6.742  2.0504  0.4663  0.4278
  775MOL0     H 4595  10.661  11.332   6.517 -0.0117  2.4259  0.2674
  775MOL0     H 4596  10.724  11.309   6.675  2.2830  1.4501 -1.4392
  775MOL0     H 4597  10.619  11.518   6.758  1.4156 -1.0852  0.2351
  775MOL0     H 4598  10.512  11.526   6.613  0.5962  0.2612 -2.9069
  775MOL0     H 4599  10.818  11.546   6.630  0.4782  0.7473  0.9749
  775MOL0     H 4600  10.724  11.569   6.479  0.5317 -0.4719  0.4187
  775MOL0     H 4601  10.707  11.725   6.738  1.0796 -1.2045  0.2337
  775MOL0     H 4602  10.590  11.747   6.611 -0.9387 -2.3318  2.2379
  775MOL0     H 4603  10.774  11.917   6.619  0.2504 -0.7912  2.4298
  775MOL0     H 4604  10.896  11.796   6.573 -0.1892 -0.6193  1.6189
  775MOL0     H 4605  10.097  11.000   6.552  1.7950  0.4511  0.1563
  775MOL0     H 4606   9.859  11.042   6.637  0.2194 -1.9302 -1.2521
  775MOL0     H 4607   9.504  11.389   6.637 -0.1238 -1.6989 -1.8689
  775MOL0     H 4608   9.275  11.406   6.691 -2.5998 -1.2591  1.1564
  775MOL0     H 4609   7.677  10.559   6.415 -0.7576 -1.8440  0.6201
  775MOL0     H 4610   7.516  10.388   6.358 -0.3204 -1.5723 -1.9490
  775MOL0     H 4611   7.459  10.067   6.023  0.9675 -1.1363 -1.5868
  775MOL0     H 4612   7.318   9.926   5.917 -1.0626 -0.0052  1.4697
  775MOL0     H 4613   7.344   9.693   5.783  1.9156 -2.6122  1.7104
  775MOL0     H 4614   7.191   9.770   5.815  0.6264 -0.5943 -0.6081
  775MOL0     H 4615   7.083   9.550   5.824  0.1418 -0.8732 -0.0184
  775MOL0     H 4616   7.250   9.485   5.778  3.8245  2.9108  2.3160
  775MOL0     H 4617   7.095   9.493   5.597 -0.0173 -0.1506 -0.6738
  775MOL0     H 4618   7.240   9.594   5.564 -1.7479  0.6185 -1.0028
  775MOL0     H 4619   7.001   9.734   5.672  2.3934  0.0727  1.8024
  775MOL0     H 4620   7.117   9.792   5.565  0.5988 -0.7401 -2.6704
  775MOL0     H 4621   6.823   9.634   5.294 -0.6292 -1.7257  0.4570
  775MOL0     H 4622   7.386   9.615   6.201 -0.7949  0.5894  0.5207
  775MOL0     H 4623   7.422   9.694   6.445  0.4874 -0.2537  0.2672
  775MOL0     H 4624   7.591   9.761   6.423  1.2129  0.9101 -3.6351
  775MOL0     H 4625   7.450   9.859   6.463  1.0923 -1.5433  2.0129
  776MOL0     O 4626   7.876   6.961   9.699  0.0718 -0.4400  0.5538
  776MOL0     C 4627   7.798   7.040   9.652  0.0386  0.5136  0.0924
  776MOL0     O 4628   7.830   7.169   9.608  0.0519 -0.2751  0.0844
  776MOL0     C 4629   7.962   7.202   9.598  0.2349  0.3128  0.3015
  776MOL0     C 4630   8.050   7.125   9.512  0.1568 -0.2433  0.5736
  776MOL0     C 4631   8.182   7.167   9.495 -0.4455 -0.2150 -0.2226
  776MOL0     C 4632   8.229   7.278   9.561 -0.1710 -1.0210  0.0838
  776MOL0     O 4633   8.363   7.322   9.547  0.1278  0.5739 -0.1385
  776MOL0     C 4634   8.441   7.257   9.441  0.3235  0.1068 -0.7395
  776MOL0     C 4635   8.563   7.345   9.445  0.3190 -0.2655  0.0260
  776MOL0     C 4636   8.664   7.291   9.344 -0.4784 -0.0687 -0.1489
  776MOL0     C 4637   8.766   7.387   9.286 -1.1828 -0.3020  0.7531
  776MOL0     C 4638   8.697   7.488   9.196  0.1724  0.1176  0.7665
  776MOL0     C 4639   8.771   7.624   9.186  0.2398 -0.2895 -0.0723
  776MOL0     C 4640   8.907   7.631   9.115 -0.5006  0.3883 -0.3910
  776MOL0     C 4641   8.918   7.595   8.966  0.1349 -0.2819 -0.3582
  776MOL0     N 4642   9.063   7.574   8.925 -0.0679  0.1232  0.2258
  776MOL0     C 4643   9.104   7.612   8.800 -0.4484  0.1358  0.5057
  776MOL0     C 4644   9.228   7.562   8.800  0.1170  0.0116  0.4121
  776MOL0     C 4645   9.338   7.577   8.700 -0.4417 -0.0502  0.5509
  776MOL0     C 4646   9.313   7.645   8.567  0.7037 -0.2794 -0.5308
  776MOL0     C 4647   9.407   7.601   8.455 -0.3123  0.4612 -0.3944
  776MOL0     C 4648   9.565   7.590   8.490 -0.2045 -1.0583  0.9789
  776MOL0     O 4649   9.643   7.543   8.380 -0.7189  0.6734  0.5493
  776MOL0     C 4650   9.776   7.563   8.359 -0.4265 -0.0695  0.3775
  776MOL0     C 4651   9.829   7.500   8.243  0.0328 -0.4853 -0.7657
  776MOL0     C 4652   9.966   7.503   8.221 -0.1179  0.5824 -0.3693
  776MOL0     C 4653  10.051   7.563   8.314  0.2135 -0.9119  0.4985
  776MOL0     C 4654  10.198   7.569   8.296 -1.1590  0.5384  0.0585
  776MOL0     O 4655  10.269   7.638   8.385 -0.0406  0.1819 -0.0105
  776MOL0     C 4656  10.401   7.634   8.366 -0.8251  1.9082  0.1815
  776MOL0     C 4657  10.468   7.731   8.300  0.4852  0.1968 -0.7147
  776MOL0     C 4658  10.609   7.732   8.302 -0.0584 -0.0731 -0.1426
  776MOL0     C 4659  10.681   7.634   8.371  0.4892  0.6538  0.7307
  776MOL0     O 4660  10.814   7.638   8.362  0.1680  0.5094 -0.1673
  776MOL0     C 4661  10.891   7.543   8.436  0.4279 -0.0509  1.0727
  776MOL0     C 4662  11.038   7.581   8.415 -0.3849 -0.0411  0.1571
  776MOL0     C 4663  11.075   7.595   8.268  0.1731  0.1698 -0.4883
  776MOL0     C 4664  11.231   7.651   8.264  0.4402  0.7393  0.2946
  776MOL0     C 4665  11.332   7.563   8.199 -0.0929  0.6183 -0.4701
  776MOL0     C 4666  11.479   7.602   8.210  0.0835  0.3323 -0.7248
  776MOL0     C 4667  11.559   7.496   8.295  0.5147 -0.6488 -0.1296
  776MOL0     C 4668  11.700   7.533   8.257  0.7526  0.0812 -0.0960
  776MOL0    Cl 4669  11.822   7.438   8.349  0.3520  0.0622  0.2383
  776MOL0     C 4670  10.612   7.524   8.422  0.5726  0.5762 -0.0101
  776MOL0     C 4671  10.469   7.526   8.423  0.1247 -0.4543 -0.3718
  776MOL0     O 4672  10.246   7.525   8.186 -0.4946  0.5843 -0.1082
  776MOL0     C 4673   9.997   7.641   8.420 -0.1474 -0.5676 -0.3332
  776MOL0     C 4674   9.859   7.635   8.446 -1.0093 -1.3578  0.9129
  776MOL0     N 4675   9.257   7.500   8.922 -0.5908 -1.2119  0.0658
  776MOL0     N 4676   9.154   7.506   8.996 -0.0552  1.0046 -0.2625
  776MOL0     C 4677   8.142   7.352   9.646 -0.6938  0.3692 -0.3581
  776MOL0     C 4678   8.011   7.310   9.659 -0.0140  0.1490 -0.1856
  776MOL0     C 4679   7.661   6.992   9.635  0.1064 -0.3908 -0.4796
  776MOL0     C 4680   7.637   6.856   9.643  0.2564  0.1973 -0.2907
  776MOL0     C 4681   7.507   6.807   9.627 -0.4972 -0.0214 -1.3675
  776MOL0     C 4682   7.401   6.890   9.598  0.3207 -0.4801 -0.3609
  776MOL0     O 4683   7.278   6.832   9.574  0.1763 -0.0316 -0.1651
  776MOL0     C 4684   7.161   6.897   9.623 -0.6216  0.1565  0.3368
  776MOL0     C 4685   7.040   6.832   9.567  0.0946  0.4148  0.0208
  776MOL0     C 4686   6.913   6.895   9.614 -0.3515 -0.0069 -0.4177
  776MOL0     C 4687   6.782   6.825   9.555  0.0209 -0.0266 -0.0954
  776MOL0     C 4688   6.661   6.878   9.611  0.1060  0.3839 -0.4217
  776MOL0     C 4689   6.558   6.914   9.672 -0.1256  0.0500  0.8621
  776MOL0     C 4690   7.421   7.031   9.580 -0.0688  0.3909 -0.5357
  776MOL0     C 4691   7.550   7.081   9.594  0.3258 -0.8450  0.0793
  776MOL0     C 4692   7.562   7.236   9.602 -0.7404  0.1125 -0.2804
  776MOL0     H 4693   8.007   7.038   9.464  3.5388 -1.1003 -1.2093
  776MOL0     H 4694   8.237   7.095   9.436 -3.0086 -1.1293 -1.6853
  776MOL0     H 4695   8.471   7.157   9.473 -0.7866 -0.2065 -0.6035
  776MOL0     H 4696   8.388   7.238   9.347 -0.5004 -1.4840 -0.0140
  776MOL0     H 4697   8.600   7.359   9.547  1.4553  1.9391 -0.6246
  776MOL0     H 4698   8.527   7.443   9.411 -0.9471 -1.1539 -1.2601
  776MOL0     H 4699   8.610   7.250   9.258 -0.1770 -0.5703 -0.1041
  776MOL0     H 4700   8.720   7.211   9.393 -2.2983  0.3865  2.9326
  776MOL0     H 4701   8.804   7.453   9.365 -1.2753 -0.9745  1.3645
  776MOL0     H 4702   8.851   7.338   9.238 -0.4799  1.1606  0.4437
  776MOL0     H 4703   8.691   7.453   9.093 -0.1556 -3.4752  1.8794
  776MOL0     H 4704   8.598   7.515   9.233 -0.1383  1.7718 -1.1122
  776MOL0     H 4705   8.711   7.693   9.126  1.0637  0.1155 -0.4378
  776MOL0     H 4706   8.774   7.659   9.289  2.4044 -0.9517  0.1305
  776MOL0     H 4707   8.974   7.568   9.173  3.3875  0.6526 -4.0961
  776MOL0     H 4708   8.955   7.729   9.120  0.1990  0.1379 -1.6933
  776MOL0     H 4709   8.859   7.509   8.935 -0.6364  1.5343 -4.5806
  776MOL0     H 4710   8.874   7.682   8.917 -0.0858 -0.8416 -1.1513
  776MOL0     H 4711   9.063   7.671   8.719 -0.0068 -1.0910 -0.6333
  776MOL0     H 4712   9.421   7.628   8.751 -0.3251  2.1743 -1.6313
  776MOL0     H 4713   9.356   7.470   8.690 -0.8099 -0.0233 -0.6219
  776MOL0     H 4714   9.211   7.616   8.542  0.5576 -1.7557  1.5842
  776MOL0     H 4715   9.313   7.754   8.577  0.6660 -0.3316  0.0699
  776MOL0     H 4716   9.397   7.676   8.376  1.5534 -1.4083 -2.5452
  776MOL0     H 4717   9.378   7.505   8.412 -0.3745  0.6165 -0.7009
  776MOL0     H 4718   9.576   7.520   8.573  0.9336 -0.8571  1.0125
  776MOL0     H 4719   9.609   7.685   8.524  1.1306 -1.1788 -0.3355
  776MOL0     H 4720   9.761   7.445   8.179 -1.6857  0.3278  0.2936
  776MOL0     H 4721  10.006   7.459   8.130 -0.0795 -1.0190  0.3921
  776MOL0     H 4722  10.410   7.805   8.245 -1.8967 -1.4825 -0.6325
  776MOL0     H 4723  10.650   7.816   8.246 -1.5319 -0.7246 -2.3588
  776MOL0     H 4724  10.878   7.551   8.544  1.6241 -2.4413  1.4661
  776MOL0     H 4725  10.876   7.438   8.407 -0.8819  0.2053  0.7378
  776MOL0     H 4726  11.058   7.676   8.464 -0.9518 -0.0751  0.4644
  776MOL0     H 4727  11.102   7.508   8.464  0.0484 -0.5200 -1.0652
  776MOL0     H 4728  11.063   7.500   8.215 -3.0474  0.7166 -0.9278
  776MOL0     H 4729  11.004   7.656   8.211 -0.7551 -0.8426 -0.4521
  776MOL0     H 4730  11.265   7.659   8.368 -0.6451 -0.7549  0.8096
  776MOL0     H 4731  11.229   7.746   8.211 -2.1580 -0.0596 -1.2501
  776MOL0     H 4732  11.305   7.570   8.093 -1.4355  0.8308 -0.1352
  776MOL0     H 4733  11.313   7.461   8.232  3.2653  0.2985  0.8261
  776MOL0     H 4734  11.518   7.591   8.108 -1.4903 -3.1321 -1.1076
  776MOL0     H 4735  11.491   7.701   8.255 -3.5779  0.0376  1.2427
  776MOL0     H 4736  11.533   7.393   8.268 -1.2203  0.2350 -2.0705
  776MOL0     H 4737  11.545   7.508   8.402  0.7821 -2.5115  0.1443
  776MOL0     H 4738  11.715   7.506   8.152 -0.9789  1.0631 -0.6325
  776MOL0     H 4739  11.714   7.640   8.275 -2.4957  0.7591 -0.9467
  776MOL0     H 4740  10.649   7.434   8.470 -0.8973 -0.1750 -0.2225
  776MOL0     H 4741  10.406   7.451   8.469 -0.2384  0.4630  0.6945
  776MOL0     H 4742  10.066   7.698   8.481 -0.3258 -1.0698  0.3394
  776MOL0     H 4743   9.811   7.691   8.525 -0.5083  1.0407 -0.3656
  776MOL0     H 4744   8.179   7.436   9.703 -0.0671  0.0456 -0.2735
  776MOL0     H 4745   7.955   7.375   9.725 -0.2644  0.2490 -0.4941
  776MOL0     H 4746   7.717   6.785   9.659  1.3795  1.2090 -1.2283
  776MOL0     H 4747   7.485   6.704   9.653  0.7232 -0.0233 -0.2557
  776MOL0     H 4748   7.159   7.000   9.587  1.1865 -0.4204 -1.6197
  776MOL0     H 4749   7.157   6.905   9.732  0.3549  0.4114  0.3659
  776MOL0     H 4750   7.031   6.726   9.593 -0.4209  0.0070 -1.6740
  776MOL0     H 4751   7.044   6.829   9.458 -0.8296 -3.1126 -0.0563
  776MOL0     H 4752   6.926   7.001   9.592  0.9053  0.6219  2.7774
  776MOL0     H 4753   6.911   6.870   9.721  0.9498 -2.2116 -0.8422
  776MOL0     H 4754   6.775   6.835   9.447 -0.9559 -0.4761 -0.0782
  776MOL0     H 4755   6.788   6.718   9.576  0.2143 -0.1586 -0.8051
  776MOL0     H 4756   6.474   6.940   9.734 -0.5341 -0.5142  0.5551
  776MOL0     H 4757   7.349   7.111   9.567  0.5631  1.1898  0.6893
  776MOL0     H 4758   7.469   7.292   9.588 -1.0516 -0.2716  0.2240
  776MOL0     H 4759   7.597   7.260   9.702  1.4131  2.1961 -1.4411
  776MOL0     H 4760   7.636   7.268   9.528  1.0350 -1.7397  0.5831
  777MOL0     O 4761   2.321   4.510   1.665  0.1950  0.2184 -0.2189
  777MOL0     C 4762   2.309   4.495   1.542  0.5056  0.3587 -0.0610
  777MOL0     O 4763   2.361   4.578   1.450  0.4446  0.1932  0.0767
  777MOL0     C 4764   2.441   4.689   1.493  0.1022  1.5895  0.6176
  777MOL0     C 4765   2.546   4.683   1.582  1.1272 -0.0866  0.2854
  777MOL0     C 4766   2.642   4.780   1.591 -0.5812  0.6280 -0.4591
  777MOL0     C 4767   2.626   4.898   1.521 -0.1018  0.4688 -0.1452
  777MOL0     O 4768   2.714   5.007   1.519 -0.0621  0.3258 -0.7041
  777MOL0     C 4769   2.786   5.025   1.645 -0.4315 -0.9192 -0.3157
  777MOL0     C 4770   2.926   4.985   1.648 -1.2565 -0.0981  0.2035
  777MOL0     C 4771   3.010   5.082   1.731 -0.1925 -0.3361 -0.0649
  777MOL0     C 4772   3.169   5.073   1.718 -1.4460  0.2001  0.1747
  777MOL0     C 4773   3.237   5.205   1.758  0.5531 -0.0896 -0.0438
  777MOL0     C 4774   3.386   5.177   1.738 -0.5387 -0.4186 -0.0686
  777MOL0     C 4775   3.465   5.288   1.804 -0.0372 -0.0224 -0.2023
  777MOL0     C 4776   3.605   5.253   1.823 -1.2205  0.4012  0.0673
  777MOL0     N 4777   3.687   5.354   1.891  0.5897 -0.0801 -0.0841
  777MOL0     C 4778   3.740   5.466   1.838 -0.3583 -0.3800 -0.0313
  777MOL0     C 4779   3.798   5.527   1.943  0.1597  0.6492  0.3173
  777MOL0     C 4780   3.891   5.643   1.940  0.2373  0.2441  0.4064
  777MOL0     C 4781   4.004   5.625   1.833 -0.2783 -0.3982 -0.2659
  777MOL0     C 4782   4.118   5.735   1.858  0.1534  0.2638  0.5246
  777MOL0     C 4783   4.073   5.881   1.816  0.2707  0.0136 -0.5410
  777MOL0     O 4784   4.135   5.989   1.891 -0.0866 -0.1900  0.1703
  777MOL0     C 4785   4.262   6.033   1.847 -0.2849 -0.0135  0.3774
  777MOL0     C 4786   4.370   6.044   1.940  0.3740  0.4244  0.1078
  777MOL0     C 4787   4.494   6.084   1.895  0.0402  1.0276  0.1537
  777MOL0     C 4788   4.514   6.132   1.761  0.3103 -0.3213 -0.4473
  777MOL0     C 4789   4.620   6.224   1.722 -0.3017 -0.7387  0.1829
  777MOL0     O 4790   4.704   6.269   1.828 -0.3377  0.4790  0.0374
  777MOL0     C 4791   4.817   6.342   1.803  0.1583 -1.0783 -0.9655
  777MOL0     C 4792   4.858   6.420   1.916 -0.7590  0.0750 -0.1221
  777MOL0     C 4793   4.956   6.508   1.910  0.1239 -0.7587 -0.2248
  777MOL0     C 4794   5.028   6.530   1.794 -0.5783 -0.0566 -0.3663
  777MOL0     O 4795   5.135   6.622   1.795  0.1153 -0.5044  0.0512
  777MOL0     C 4796   5.100   6.732   1.710 -1.3667 -0.2016  0.2656
  777MOL0     C 4797   5.224   6.811   1.665 -1.2374  0.3998 -0.6769
  777MOL0     C 4798   5.314   6.860   1.782  0.9306  0.3423  0.6975
  777MOL0     C 4799   5.238   6.942   1.884  0.3505 -0.1459 -0.0443
  777MOL0     C 4800   5.353   6.992   1.984 -0.5867  0.7373 -0.0448
  777MOL0     C 4801   5.296   7.010   2.129 -0.4331  0.0856 -0.1039
  777MOL0     C 4802   5.211   7.135   2.146 -0.0090  0.1072 -0.4081
  777MOL0     C 4803   5.153   7.136   2.293 -0.0885 -0.0078  0.5202
  777MOL0    Cl 4804   5.012   7.021   2.313  0.2250 -0.4002  0.3142
  777MOL0     C 4805   5.004   6.452   1.680 -1.4236 -0.6950 -1.1266
  777MOL0     C 4806   4.893   6.364   1.686 -0.3843 -0.4109  0.1435
  777MOL0     O 4807   4.636   6.256   1.605 -0.3774  0.6941 -0.3835
  777MOL0     C 4808   4.408   6.121   1.668 -0.1103  0.7622 -0.0867
  777MOL0     C 4809   4.287   6.068   1.712  0.4892 -1.3015  0.5622
  777MOL0     N 4810   3.771   5.459   2.058  0.2787 -0.4891  0.6317
  777MOL0     N 4811   3.695   5.356   2.025  0.1174  0.1154  0.5715
  777MOL0     C 4812   2.521   4.914   1.441  0.5621  0.2610 -0.2637
  777MOL0     C 4813   2.428   4.803   1.415  0.3387 -0.6986 -0.0593
  777MOL0     C 4814   2.257   4.370   1.484  0.0736 -0.2723  0.2848
  777MOL0     C 4815   2.238   4.362   1.341 -0.0245  0.0439  0.9357
  777MOL0     C 4816   2.158   4.268   1.274 -0.0630  0.2964 -0.2216
  777MOL0     C 4817   2.103   4.161   1.348 -0.0504  0.0394  0.0455
  777MOL0     O 4818   2.025   4.075   1.276 -0.1923 -0.3947 -0.7766
  777MOL0     C 4819   1.941   3.989   1.339  0.6062 -0.6025  0.1839
  777MOL0     C 4820   1.877   3.897   1.237  0.1616  0.3239  0.4372
  777MOL0     C 4821   1.985   3.807   1.173 -0.2759  0.7442 -0.8046
  777MOL0     C 4822   1.945   3.721   1.049 -1.0112 -0.1424 -0.5977
  777MOL0     C 4823   1.809   3.673   1.054  0.5050 -0.5122  0.5844
  777MOL0     C 4824   1.691   3.649   1.062  0.0036  0.0304 -0.6808
  777MOL0     C 4825   2.123   4.157   1.488 -1.0506  0.0272 -0.0957
  777MOL0     C 4826   2.185   4.266   1.555  0.0116  0.0950  0.2351
  777MOL0     C 4827   2.203   4.248   1.701 -0.6702  0.0700 -0.4921
  777MOL0     H 4828   2.562   4.602   1.652 -1.3230 -0.4165  0.5693
  777MOL0     H 4829   2.729   4.761   1.652 -0.3222  2.9390 -0.0407
  777MOL0     H 4830   2.781   5.133   1.660  0.6143 -0.5821 -2.1287
  777MOL0     H 4831   2.738   4.981   1.733  0.1757  2.3068  1.7739
  777MOL0     H 4832   2.965   4.997   1.546 -0.0375  1.0531  0.7754
  777MOL0     H 4833   2.941   4.882   1.679 -1.8523  0.3794  2.1884
  777MOL0     H 4834   2.982   5.072   1.836  2.3168  1.4397  0.8700
  777MOL0     H 4835   2.991   5.186   1.703  2.2032  1.7273  4.8296
  777MOL0     H 4836   3.209   5.004   1.793  0.3535  2.5977  1.5506
  777MOL0     H 4837   3.204   5.052   1.616  0.2030  3.6858 -0.1443
  777MOL0     H 4838   3.206   5.278   1.683  0.3221 -1.5069 -1.3871
  777MOL0     H 4839   3.205   5.237   1.857 -1.1086  1.2124 -0.9449
  777MOL0     H 4840   3.412   5.086   1.793  0.9146  0.7402  1.2347
  777MOL0     H 4841   3.424   5.170   1.636  1.1694  0.4444  0.4816
  777MOL0     H 4842   3.414   5.318   1.897 -3.9665 -0.5212 -1.9792
  777MOL0     H 4843   3.467   5.382   1.749  1.2787 -0.1645 -0.4177
  777MOL0     H 4844   3.609   5.164   1.887  0.7455 -1.2266 -2.1633
  777MOL0     H 4845   3.655   5.231   1.728 -0.2744 -0.4558  0.7351
  777MOL0     H 4846   3.757   5.493   1.734  1.0487  0.8234  0.4822
  777MOL0     H 4847   3.838   5.736   1.918  1.1606  0.7868  0.4443
  777MOL0     H 4848   3.934   5.650   2.041  0.6229 -1.6644  0.4201
  777MOL0     H 4849   4.042   5.524   1.846 -0.5550 -0.4087  0.5182
  777MOL0     H 4850   3.976   5.626   1.728  2.4814  0.1643 -1.0629
  777MOL0     H 4851   4.209   5.722   1.798  0.3544  1.2819  0.5840
  777MOL0     H 4852   4.152   5.740   1.962  3.3266 -2.1951 -0.2098
  777MOL0     H 4853   3.965   5.888   1.831  0.3741 -1.6649  1.2364
  777MOL0     H 4854   4.086   5.899   1.708 -1.0276 -1.5011 -0.9876
  777MOL0     H 4855   4.353   6.013   2.042 -0.8784 -3.2356 -1.0360
  777MOL0     H 4856   4.580   6.093   1.960  1.2730  0.9355 -1.3999
  777MOL0     H 4857   4.800   6.415   2.008  0.5177 -1.4811  0.6546
  777MOL0     H 4858   4.991   6.571   1.991  0.4574  0.9761 -1.6304
  777MOL0     H 4859   5.061   6.695   1.614 -0.0277  1.6140 -1.0559
  777MOL0     H 4860   5.032   6.801   1.761 -0.4041  2.5873 -1.9609
  777MOL0     H 4861   5.284   6.751   1.595  1.2329  0.2122  1.4606
  777MOL0     H 4862   5.198   6.900   1.606  4.4940  1.1547 -2.6501
  777MOL0     H 4863   5.347   6.773   1.840  0.5836 -1.2824 -1.4379
  777MOL0     H 4864   5.398   6.915   1.739  1.3629 -2.2630 -2.1113
  777MOL0     H 4865   5.171   6.879   1.943  1.4681  0.4008  1.8992
  777MOL0     H 4866   5.186   7.024   1.834 -2.7449 -1.4322  0.8207
  777MOL0     H 4867   5.396   7.086   1.946 -0.7169  1.1763  0.8649
  777MOL0     H 4868   5.436   6.922   1.992  0.2616  1.8695  1.9988
  777MOL0     H 4869   5.238   6.919   2.149  0.2636 -0.4171 -0.3262
  777MOL0     H 4870   5.371   7.020   2.208 -1.2637  0.0095  0.7165
  777MOL0     H 4871   5.131   7.139   2.072  0.6458 -3.6232 -1.5213
  777MOL0     H 4872   5.276   7.219   2.118  0.1121 -0.3395 -1.5045
  777MOL0     H 4873   5.233   7.114   2.364 -0.6883  0.9324  1.5162
  777MOL0     H 4874   5.118   7.239   2.309  1.9325  1.2160 -2.0046
  777MOL0     H 4875   5.054   6.475   1.587 -1.0600  0.1611 -0.7247
  777MOL0     H 4876   4.868   6.300   1.602 -2.3260 -1.7974  1.6644
  777MOL0     H 4877   4.409   6.154   1.565 -6.4287 -2.8235 -1.8727
  777MOL0     H 4878   4.203   6.071   1.643  0.5091 -0.6547  0.5525
  777MOL0     H 4879   2.506   5.002   1.380 -0.8005  0.5575  0.4762
  777MOL0     H 4880   2.348   4.823   1.344  0.1619 -4.4769 -1.1265
  777MOL0     H 4881   2.274   4.437   1.272  0.3763  0.5185  1.6448
  777MOL0     H 4882   2.151   4.275   1.166 -1.8097 -2.5591 -0.4181
  777MOL0     H 4883   1.863   4.053   1.382  1.4728  1.7786 -1.5478
  777MOL0     H 4884   1.982   3.922   1.414 -1.2499 -2.3311 -0.2313
  777MOL0     H 4885   1.829   3.963   1.164 -0.0127  0.4706  0.6859
  777MOL0     H 4886   1.793   3.839   1.276 -0.5184  0.2198 -1.0751
  777MOL0     H 4887   2.019   3.742   1.255  0.0001  2.5452  0.5842
  777MOL0     H 4888   2.066   3.873   1.142 -0.3928  1.4621  0.3464
  777MOL0     H 4889   1.954   3.798   0.972  0.0230  0.1578 -0.1924
  777MOL0     H 4890   2.017   3.640   1.031  0.7026  1.6217 -2.2021
  777MOL0     H 4891   1.590   3.621   1.081  0.0051 -0.4397 -1.3275
  777MOL0     H 4892   2.090   4.080   1.557 -2.1894  1.3424  0.8747
  777MOL0     H 4893   2.131   4.308   1.759  0.2043  2.3942 -1.6965
  777MOL0     H 4894   2.194   4.143   1.730 -1.4677  0.3491  0.3652
  777MOL0     H 4895   2.309   4.274   1.710 -0.5409 -0.3671 -0.7372
  778MOL0     O 4896   6.428   4.126   3.573 -0.1574 -0.3092 -0.5534
  778MOL0     C 4897   6.411   4.208   3.660 -0.2220 -1.1340  0.4739
  778MOL0     O 4898   6.501   4.300   3.701 -0.5246 -0.3018 -0.6987
  778MOL0     C 4899   6.624   4.303   3.641  0.7711 -0.1595 -0.5249
  778MOL0     C 4900   6.716   4.210   3.685 -0.2624 -0.9198 -0.7370
  778MOL0     C 4901   6.848   4.226   3.659 -0.1507 -0.2333 -0.5239
  778MOL0     C 4902   6.893   4.342   3.588  0.8381 -0.2164  0.6935
  778MOL0     O 4903   7.019   4.390   3.567  0.0145 -0.3626 -0.3637
  778MOL0     C 4904   7.120   4.289   3.593 -0.0152 -0.4180  0.2313
  778MOL0     C 4905   7.252   4.367   3.581  0.1062 -0.1916  0.4212
  778MOL0     C 4906   7.375   4.274   3.573  1.1462  0.0542  0.0680
  778MOL0     C 4907   7.502   4.358   3.532  0.7551  0.0554  0.3068
  778MOL0     C 4908   7.634   4.279   3.509 -0.4763 -0.4041 -0.0289
  778MOL0     C 4909   7.758   4.366   3.518  0.5484  0.3737 -0.0216
  778MOL0     C 4910   7.880   4.287   3.504 -0.3536 -0.3469  0.0693
  778MOL0     C 4911   7.903   4.226   3.370  0.5925 -0.1565 -0.7534
  778MOL0     N 4912   8.041   4.166   3.346 -0.1443 -0.6393  0.4179
  778MOL0     C 4913   8.122   4.134   3.451 -0.4407 -0.1093 -0.3248
  778MOL0     C 4914   8.235   4.091   3.389 -0.4408 -0.0124  0.4714
  778MOL0     C 4915   8.366   4.048   3.459  1.0234  0.9736  0.1777
  778MOL0     C 4916   8.483   4.127   3.406  0.1631  0.1946  0.2730
  778MOL0     C 4917   8.614   4.130   3.488 -0.3852 -0.5018 -0.9624
  778MOL0     C 4918   8.738   4.194   3.420  0.5157  0.1553  0.9401
  778MOL0     O 4919   8.854   4.146   3.476 -0.3982  0.2818 -0.4969
  778MOL0     C 4920   8.977   4.192   3.423  0.2694  0.1368 -0.0493
  778MOL0     C 4921   8.993   4.298   3.332  0.3178 -0.7958 -0.8178
  778MOL0     C 4922   9.111   4.332   3.268  0.6528  0.7588 -0.0152
  778MOL0     C 4923   9.222   4.247   3.283  0.0648  0.3898 -0.2820
  778MOL0     C 4924   9.358   4.273   3.227 -0.0947 -0.5196 -0.6035
  778MOL0     O 4925   9.454   4.185   3.249 -0.0319  0.3201 -0.5183
  778MOL0     C 4926   9.578   4.217   3.203 -0.0989 -0.6128  0.2772
  778MOL0     C 4927   9.634   4.133   3.103  0.2119 -0.7285  0.8138
  778MOL0     C 4928   9.769   4.146   3.066  0.1532  0.3604 -0.3253
  778MOL0     C 4929   9.854   4.241   3.119  0.0606  0.2924  0.5789
  778MOL0     O 4930   9.983   4.249   3.073  0.0566 -0.1185  0.2461
  778MOL0     C 4931  10.060   4.361   3.104  0.3124  0.4775  0.6981
  778MOL0     C 4932  10.206   4.354   3.061 -0.3701 -0.1228  0.5195
  778MOL0     C 4933  10.285   4.483   3.106 -0.2800 -0.7117  0.9042
  778MOL0     C 4934  10.427   4.476   3.063  0.5636 -0.5809 -0.4090
  778MOL0     C 4935  10.483   4.612   3.073 -1.0408 -0.4220 -0.2750
  778MOL0     C 4936  10.630   4.631   3.017  0.6958  0.2714  0.2525
  778MOL0     C 4937  10.677   4.770   3.057 -0.5848  1.0704 -0.0603
  778MOL0     C 4938  10.826   4.779   3.036  0.7389 -0.2166 -0.5129
  778MOL0    Cl 4939  10.881   4.773   2.870  0.0625  0.0137  0.1443
  778MOL0     C 4940   9.792   4.326   3.219 -0.6163 -0.8276  0.1525
  778MOL0     C 4941   9.662   4.311   3.270  0.4582 -0.2631 -0.0529
  778MOL0     O 4942   9.377   4.388   3.179  0.1194  0.4607 -0.0002
  778MOL0     C 4943   9.211   4.137   3.371  0.0785  0.0785  0.3385
  778MOL0     C 4944   9.085   4.113   3.450 -0.3930  0.1070  0.1631
  778MOL0     N 4945   8.227   4.094   3.246 -0.0490  0.2049  0.2626
  778MOL0     N 4946   8.100   4.133   3.225  0.3759  0.1441  0.0990
  778MOL0     C 4947   6.792   4.432   3.539 -0.6486  0.5652 -0.4450
  778MOL0     C 4948   6.660   4.424   3.573 -0.6936  0.0989  0.1411
  778MOL0     C 4949   6.283   4.187   3.731  0.4774 -0.5326 -0.3296
  778MOL0     C 4950   6.286   4.225   3.868 -0.2916 -0.9616 -0.4640
  778MOL0     C 4951   6.176   4.210   3.955  0.2179 -0.6050 -0.0389
  778MOL0     C 4952   6.057   4.148   3.913 -0.5335 -0.1231  0.0750
  778MOL0     O 4953   5.956   4.118   3.999  0.3085  0.5298  0.0387
  778MOL0     C 4954   5.824   4.106   3.939 -0.0880 -0.2632  0.4061
  778MOL0     C 4955   5.725   4.143   4.048 -0.9880  0.1129  0.4334
  778MOL0     C 4956   5.716   4.053   4.170 -0.3046 -0.4226  0.9382
  778MOL0     C 4957   5.623   3.942   4.159 -0.2310  0.2408  0.2800
  778MOL0     C 4958   5.636   3.849   4.270 -0.7234 -0.7092 -0.2639
  778MOL0     C 4959   5.643   3.777   4.365 -0.1836  0.3365 -0.3947
  778MOL0     C 4960   6.054   4.107   3.774 -1.2124 -0.2496 -0.2463
  778MOL0     C 4961   6.166   4.115   3.686 -0.7692  0.6830  0.2168
  778MOL0     C 4962   6.161   4.050   3.551  0.0761  0.4036 -0.2090
  778MOL0     H 4963   6.695   4.127   3.751  0.9572 -0.8360 -0.2324
  778MOL0     H 4964   6.914   4.144   3.686 -1.5147 -1.7063 -1.4631
  778MOL0     H 4965   7.103   4.225   3.680  1.1137  0.2737  0.9735
  778MOL0     H 4966   7.120   4.224   3.504 -0.8818 -0.1016 -0.0048
  778MOL0     H 4967   7.265   4.435   3.666  0.6846  2.5772 -1.7214
  778MOL0     H 4968   7.256   4.431   3.492 -0.3048  0.5146  0.8998
  778MOL0     H 4969   7.363   4.188   3.507 -1.7711  0.4383 -0.0189
  778MOL0     H 4970   7.389   4.245   3.678  0.5302  0.1029  0.1658
  778MOL0     H 4971   7.480   4.397   3.432  2.8180  1.7096  0.4385
  778MOL0     H 4972   7.517   4.436   3.608  2.0897 -0.3211  0.4532
  778MOL0     H 4973   7.645   4.192   3.575 -0.4166 -0.2941  0.1061
  778MOL0     H 4974   7.618   4.240   3.408 -3.2738  2.6708 -0.9513
  778MOL0     H 4975   7.744   4.442   3.440 -0.4557  1.3643  1.0830
  778MOL0     H 4976   7.757   4.420   3.613  0.6646  0.3794 -0.0240
  778MOL0     H 4977   7.897   4.215   3.584  2.5758 -1.0905 -1.1015
  778MOL0     H 4978   7.956   4.366   3.510  0.0047 -0.7226  0.5290
  778MOL0     H 4979   7.822   4.157   3.347 -1.2774  1.7917 -0.3050
  778MOL0     H 4980   7.898   4.306   3.296  0.4103 -1.2531 -1.9586
  778MOL0     H 4981   8.108   4.147   3.558  0.1455  0.6949 -0.3359
  778MOL0     H 4982   8.361   4.064   3.567  0.1930 -0.1244  0.3279
  778MOL0     H 4983   8.385   3.941   3.446  4.3314  1.5381 -0.5471
  778MOL0     H 4984   8.502   4.093   3.304 -0.7094  1.5396 -0.3647
  778MOL0     H 4985   8.448   4.230   3.399  1.4111  0.6221  0.0198
  778MOL0     H 4986   8.643   4.025   3.493  0.4333 -0.2219  1.0368
  778MOL0     H 4987   8.593   4.154   3.592 -0.7707 -0.8446 -0.9589
  778MOL0     H 4988   8.735   4.304   3.421 -1.0192  0.2751 -2.5465
  778MOL0     H 4989   8.739   4.161   3.316  0.7730 -0.6268  1.1834
  778MOL0     H 4990   8.908   4.362   3.315 -1.1015 -1.6122  2.5038
  778MOL0     H 4991   9.108   4.412   3.195 -0.0234 -0.4707 -1.3944
  778MOL0     H 4992   9.567   4.059   3.059  1.0974 -0.1599 -1.6841
  778MOL0     H 4993   9.812   4.085   2.988 -0.4046  1.1425 -1.2594
  778MOL0     H 4994  10.017   4.454   3.065  1.9218  0.9636  0.0042
  778MOL0     H 4995  10.066   4.371   3.213 -0.5609  0.6233  0.7388
  778MOL0     H 4996  10.251   4.265   3.106  0.5570  0.0082 -0.1369
  778MOL0     H 4997  10.216   4.340   2.953  0.9122  0.6674  0.5183
  778MOL0     H 4998  10.236   4.566   3.054  1.5301  0.7331  1.4037
  778MOL0     H 4999  10.262   4.504   3.211 -0.1740  1.1341  0.5985
  778MOL0     H 5000  10.438   4.452   2.957  2.2248 -0.3074 -0.3196
  778MOL0     H 5001  10.478   4.398   3.121 -0.5482 -2.1391 -1.4194
  778MOL0     H 5002  10.483   4.646   3.177  1.6280 -0.9786 -0.0050
  778MOL0     H 5003  10.422   4.685   3.019  1.1133  0.2837 -1.9157
  778MOL0     H 5004  10.687   4.555   3.072 -0.9451 -1.0258  0.2497
  778MOL0     H 5005  10.630   4.610   2.910 -0.9034  1.7274 -0.0868
  778MOL0     H 5006  10.651   4.794   3.161 -2.1222 -1.1999  0.1420
  778MOL0     H 5007  10.625   4.851   3.005  0.0146  2.6882  1.7361
  778MOL0     H 5008  10.838   4.881   3.075  0.1845  0.9114 -3.0621
  778MOL0     H 5009  10.881   4.702   3.091 -0.3234 -1.0363 -0.5700
  778MOL0     H 5010   9.845   4.409   3.263 -1.2412  0.5967 -1.6401
  778MOL0     H 5011   9.636   4.383   3.347 -1.7585 -1.3447  0.3110
  778MOL0     H 5012   9.290   4.064   3.384  1.2676  1.2822  0.1370
  778MOL0     H 5013   9.068   4.028   3.515  0.9647 -0.3447 -0.0411
  778MOL0     H 5014   6.818   4.514   3.474 -4.3215  1.1340 -1.4432
  778MOL0     H 5015   6.582   4.496   3.553 -1.8765 -0.4261  2.5233
  778MOL0     H 5016   6.372   4.274   3.913 -0.7668 -1.1868  0.7113
  778MOL0     H 5017   6.177   4.245   4.058  0.9726  2.2227 -0.9285
  778MOL0     H 5018   5.801   4.001   3.918  0.2451 -0.3403  0.4163
  778MOL0     H 5019   5.810   4.169   3.850 -0.6835  1.9826  1.9941
  778MOL0     H 5020   5.627   4.171   4.008 -0.4543 -0.0316 -1.0178
  778MOL0     H 5021   5.760   4.239   4.087  1.1713  0.2115 -1.5385
  778MOL0     H 5022   5.694   4.113   4.258 -0.1351  0.3499  0.4628
  778MOL0     H 5023   5.818   4.013   4.180 -0.8458 -1.4833  2.5937
  778MOL0     H 5024   5.520   3.976   4.148 -0.1207  0.6526  0.5105
  778MOL0     H 5025   5.654   3.889   4.068 -0.2314  0.7420 -0.0139
  778MOL0     H 5026   5.641   3.719   4.455 -2.8322 -0.9831 -1.2056
  778MOL0     H 5027   5.969   4.042   3.760 -1.8247 -0.4033  3.1864
  778MOL0     H 5028   6.217   3.958   3.536  0.8834  0.8631 -0.0493
  778MOL0     H 5029   6.057   4.026   3.524  0.3640  0.8163 -1.8029
  778MOL0     H 5030   6.191   4.130   3.483  1.3324 -1.3936 -1.8699
  779MOL0     O 5031   2.945   7.304   5.154  0.9626 -0.3161  0.0236
  779MOL0     C 5032   2.915   7.376   5.055 -0.3196  0.1256 -0.0003
  779MOL0     O 5033   2.808   7.447   5.040  0.2030  0.4515  0.4217
  779MOL0     C 5034   2.743   7.502   5.154 -0.3039 -0.3296  0.8124
  779MOL0     C 5035   2.603   7.524   5.131 -0.5860  0.1915  0.3786
  779MOL0     C 5036   2.513   7.578   5.227 -0.3685 -0.2084  0.1756
  779MOL0     C 5037   2.568   7.624   5.344  0.2581 -0.0253 -0.3210
  779MOL0     O 5038   2.485   7.695   5.435 -1.0823 -0.3208 -0.3287
  779MOL0     C 5039   2.343   7.690   5.424  0.1414 -0.0592 -0.1614
  779MOL0     C 5040   2.275   7.771   5.536  0.5620 -0.6899 -0.3746
  779MOL0     C 5041   2.247   7.908   5.502 -0.3057  0.6059 -0.0615
  779MOL0     C 5042   2.186   7.976   5.624  0.1664 -0.1705 -0.3425
  779MOL0     C 5043   2.191   8.133   5.610  0.3445  0.4187  1.0976
  779MOL0     C 5044   2.329   8.196   5.642  0.6793 -0.1357 -0.2276
  779MOL0     C 5045   2.338   8.353   5.642  0.5528 -0.3442  0.0315
  779MOL0     C 5046   2.330   8.405   5.495  0.7123  0.4920 -1.0275
  779MOL0     N 5047   2.471   8.425   5.447 -0.0751 -0.2174  0.1203
  779MOL0     C 5048   2.531   8.338   5.357  0.3714  0.0251  0.5061
  779MOL0     C 5049   2.659   8.381   5.341 -0.1136 -1.2212  0.3782
  779MOL0     C 5050   2.761   8.327   5.251 -0.3172  0.4637  1.0684
  779MOL0     C 5051   2.907   8.333   5.305 -0.0597  0.7581  0.7911
  779MOL0     C 5052   3.013   8.302   5.196  0.0237  0.4376  0.9306
  779MOL0     C 5053   3.155   8.259   5.252 -1.0626 -0.1430 -0.0533
  779MOL0     O 5054   3.249   8.226   5.150 -0.0461  0.3875 -0.3444
  779MOL0     C 5055   3.361   8.152   5.182  0.2502  0.8226 -0.9068
  779MOL0     C 5056   3.468   8.161   5.088 -0.2822  0.4702  1.0111
  779MOL0     C 5057   3.580   8.082   5.099 -0.0118 -0.7959  0.9593
  779MOL0     C 5058   3.593   7.996   5.201  0.0361 -0.0095 -0.2046
  779MOL0     C 5059   3.714   7.910   5.203  0.2917  0.2116 -0.1589
  779MOL0     O 5060   3.725   7.809   5.293  0.7149  0.4458  0.1076
  779MOL0     C 5061   3.821   7.716   5.279 -0.5952  0.0664  0.5028
  779MOL0     C 5062   3.866   7.666   5.150  1.0963 -0.2560  0.0567
  779MOL0     C 5063   3.958   7.570   5.148 -0.2133 -0.5053  0.2870
  779MOL0     C 5064   4.016   7.521   5.264  0.2261 -0.3346 -0.9636
  779MOL0     O 5065   4.115   7.420   5.238 -0.4493  0.1239  0.1655
  779MOL0     C 5066   4.233   7.399   5.315  0.0165  1.0422 -0.1859
  779MOL0     C 5067   4.219   7.274   5.401  0.2238 -0.9543  0.4539
  779MOL0     C 5068   4.367   7.225   5.440 -0.5748  0.6691  0.8127
  779MOL0     C 5069   4.353   7.098   5.529  0.2311 -0.0660  0.2848
  779MOL0     C 5070   4.497   7.074   5.585  0.0499 -0.1917 -0.6313
  779MOL0     C 5071   4.519   6.935   5.635  0.1538  0.9275 -0.6708
  779MOL0     C 5072   4.654   6.912   5.703 -1.0789  0.0651 -0.4838
  779MOL0     C 5073   4.695   6.769   5.726  0.2621  0.2445  1.0179
  779MOL0    Cl 5074   4.605   6.694   5.865 -0.2015 -0.1674 -0.1366
  779MOL0     C 5075   3.974   7.565   5.391 -0.7044  0.4484  0.7449
  779MOL0     C 5076   3.875   7.655   5.394  0.4605  0.0507  0.1555
  779MOL0     O 5077   3.791   7.937   5.112  0.1094 -0.5755 -0.0270
  779MOL0     C 5078   3.492   7.989   5.304  0.3437 -0.8720  0.0317
  779MOL0     C 5079   3.375   8.063   5.294 -0.1191 -0.4510 -0.6218
  779MOL0     N 5080   2.673   8.493   5.415  0.1695  0.3578  0.1979
  779MOL0     N 5081   2.563   8.525   5.477  0.3703 -0.1591 -0.1835
  779MOL0     C 5082   2.707   7.607   5.371  0.5388 -0.2162 -0.3796
  779MOL0     C 5083   2.787   7.548   5.281  0.9166  0.7001  0.9703
  779MOL0     C 5084   2.998   7.357   4.935 -0.9736  0.1738 -0.3429
  779MOL0     C 5085   3.079   7.231   4.927 -0.2350  0.4205  0.4008
  779MOL0     C 5086   3.184   7.208   4.828  0.6824 -0.1285 -0.5828
  779MOL0     C 5087   3.202   7.305   4.727 -0.4048  0.2870  0.6626
  779MOL0     O 5088   3.304   7.275   4.640  0.2444  0.2309 -0.6532
  779MOL0     C 5089   3.335   7.365   4.534  0.6300  0.1151  0.2325
  779MOL0     C 5090   3.452   7.456   4.576  0.4013  0.3311 -0.7658
  779MOL0     C 5091   3.581   7.376   4.575 -0.0598  0.5706 -0.4290
  779MOL0     C 5092   3.694   7.475   4.570  0.2648 -0.2935  0.6403
  779MOL0     C 5093   3.817   7.438   4.643 -0.0326 -0.6141  0.1979
  779MOL0     C 5094   3.923   7.405   4.679 -0.6756 -0.3877 -0.6530
  779MOL0     C 5095   3.117   7.416   4.725  0.0404  0.2473 -0.0389
  779MOL0     C 5096   3.023   7.449   4.824  0.7535  0.5989 -0.3170
  779MOL0     C 5097   2.950   7.580   4.811  0.2045 -0.3912 -0.1730
  779MOL0     H 5098   2.557   7.492   5.038 -2.9549  0.8922  1.2207
  779MOL0     H 5099   2.408   7.576   5.200  0.2970  0.4420 -2.8981
  779MOL0     H 5100   2.316   7.725   5.324 -0.5554  2.1957  0.7614
  779MOL0     H 5101   2.311   7.586   5.438  0.2244 -0.2796 -1.4631
  779MOL0     H 5102   2.330   7.753   5.629  0.5797 -0.2910 -0.3100
  779MOL0     H 5103   2.180   7.720   5.559  0.1496  0.4462  0.5534
  779MOL0     H 5104   2.181   7.913   5.415  1.8224  0.7066 -1.7548
  779MOL0     H 5105   2.343   7.951   5.474  0.7652 -1.5264  0.1081
  779MOL0     H 5106   2.080   7.957   5.645  0.8375  0.3996  4.7484
  779MOL0     H 5107   2.235   7.948   5.717 -0.2787  0.2975  0.0354
  779MOL0     H 5108   2.165   8.150   5.505  1.0851  0.1180  0.8612
  779MOL0     H 5109   2.109   8.171   5.672 -0.1862  0.5280  0.3449
  779MOL0     H 5110   2.348   8.157   5.742  1.2560  1.2991  0.2389
  779MOL0     H 5111   2.398   8.149   5.571  0.2732 -0.5154 -0.3779
  779MOL0     H 5112   2.433   8.377   5.689  0.5408  2.1894 -1.1014
  779MOL0     H 5113   2.261   8.394   5.708  1.4102  0.4866  0.5261
  779MOL0     H 5114   2.268   8.345   5.427  0.5112 -0.6410  0.1162
  779MOL0     H 5115   2.299   8.510   5.501 -0.6445  0.0443  0.8780
  779MOL0     H 5116   2.488   8.256   5.301  0.9966  0.0465 -0.0229
  779MOL0     H 5117   2.736   8.221   5.245  0.3705  0.3510 -0.2559
  779MOL0     H 5118   2.754   8.373   5.152  0.8234  1.1553  1.2906
  779MOL0     H 5119   2.926   8.431   5.349  0.8077  0.8528  0.2351
  779MOL0     H 5120   2.911   8.250   5.377 -1.7037 -0.6907 -0.6843
  779MOL0     H 5121   3.027   8.394   5.138  0.9825 -0.2476  0.0340
  779MOL0     H 5122   2.973   8.229   5.125  0.9558  1.5129 -0.7705
  779MOL0     H 5123   3.147   8.191   5.337 -3.0538  0.7848  0.5739
  779MOL0     H 5124   3.195   8.349   5.299  2.5397 -2.5718  2.0006
  779MOL0     H 5125   3.464   8.234   5.008 -0.3845 -0.0171  0.5715
  779MOL0     H 5126   3.647   8.078   5.014 -1.3948 -2.4079 -0.1185
  779MOL0     H 5127   3.833   7.708   5.055  2.5342  0.0024 -0.3412
  779MOL0     H 5128   4.008   7.532   5.060 -1.6693 -2.7217  0.3546
  779MOL0     H 5129   4.303   7.373   5.235 -0.6611 -2.9394  0.2846
  779MOL0     H 5130   4.274   7.480   5.376 -1.6828  1.9939 -0.2535
  779MOL0     H 5131   4.167   7.306   5.491 -1.8556 -0.1209 -0.9877
  779MOL0     H 5132   4.159   7.196   5.353 -1.8278  1.0082 -0.3340
  779MOL0     H 5133   4.423   7.202   5.349  4.0134  0.2546  3.4114
  779MOL0     H 5134   4.410   7.308   5.497 -0.7246  0.3359  1.4287
  779MOL0     H 5135   4.322   7.004   5.481 -0.7807  0.7107 -0.6281
  779MOL0     H 5136   4.286   7.115   5.614 -1.0915 -0.5732 -0.6254
  779MOL0     H 5137   4.524   7.149   5.660  1.8968  0.3853 -1.8102
  779MOL0     H 5138   4.572   7.079   5.505  0.6412  0.0193 -0.0711
  779MOL0     H 5139   4.442   6.904   5.707 -0.9341  0.0345 -2.1441
  779MOL0     H 5140   4.503   6.860   5.557  3.1995 -1.8257  1.1247
  779MOL0     H 5141   4.652   6.966   5.798  1.7522  2.1516 -1.4885
  779MOL0     H 5142   4.731   6.969   5.651 -1.3633  0.9298  0.0188
  779MOL0     H 5143   4.678   6.712   5.634  0.1352 -1.5104  2.0719
  779MOL0     H 5144   4.803   6.758   5.741  0.5577  1.6218  0.0705
  779MOL0     H 5145   4.010   7.529   5.486  0.5029  1.4184  0.6824
  779MOL0     H 5146   3.843   7.692   5.491  2.4825 -0.6136  1.1541
  779MOL0     H 5147   3.502   7.910   5.378  0.1694  0.5149  1.5902
  779MOL0     H 5148   3.295   8.056   5.366  0.8214  5.2209  1.4642
  779MOL0     H 5149   2.748   7.642   5.465  0.8151 -0.6332 -0.3379
  779MOL0     H 5150   2.892   7.541   5.309  0.4588  0.8528  2.8259
  779MOL0     H 5151   3.063   7.151   4.999 -1.0125  0.2741  0.0747
  779MOL0     H 5152   3.244   7.118   4.822  0.5244 -0.2754 -0.0242
  779MOL0     H 5153   3.249   7.421   4.496  1.4690  0.5807 -1.0405
  779MOL0     H 5154   3.365   7.299   4.452 -0.6139  0.5267 -0.5843
  779MOL0     H 5155   3.438   7.497   4.677  0.6631 -2.5784  0.5372
  779MOL0     H 5156   3.468   7.535   4.501  3.0699  0.9693  0.3546
  779MOL0     H 5157   3.582   7.307   4.490 -2.2358  0.2325 -0.2210
  779MOL0     H 5158   3.589   7.326   4.672  1.3235  1.3569 -0.1084
  779MOL0     H 5159   3.722   7.501   4.468 -0.1064  0.9336  0.8389
  779MOL0     H 5160   3.663   7.567   4.620 -1.4246 -0.1375 -0.6276
  779MOL0     H 5161   4.021   7.372   4.704 -0.1766  1.4013 -0.0838
  779MOL0     H 5162   3.122   7.495   4.650 -1.6798  1.1745  0.7722
  779MOL0     H 5163   2.986   7.642   4.729  4.1791 -0.9826  0.9443
  779MOL0     H 5164   2.845   7.550   4.823  0.0644 -0.1341 -0.7561
  779MOL0     H 5165   2.978   7.641   4.898  0.3865  1.6176 -1.5768
  780MOL0     O 5166   4.091   3.835   9.945  0.8064 -0.4130 -0.0279
  780MOL0     C 5167   4.073   3.796   9.829 -0.3106  0.0559  0.3094
  780MOL0     O 5168   4.173   3.735   9.760  0.0259 -0.2189 -0.0089
  780MOL0     C 5169   4.295   3.700   9.809 -0.1395 -0.1269  0.0861
  780MOL0     C 5170   4.322   3.657   9.939  0.4193 -0.3232 -0.2169
  780MOL0     C 5171   4.452   3.633   9.977 -1.4043  0.2586  0.6498
  780MOL0     C 5172   4.559   3.629   9.881 -0.3486  0.3513 -0.4579
  780MOL0     O 5173   4.686   3.585   9.913  0.6612 -0.7957 -0.2858
  780MOL0     C 5174   4.733   3.592  10.048  0.5906  0.0283 -0.0638
  780MOL0     C 5175   4.738   3.728  10.100  0.4204 -0.5059  0.3027
  780MOL0     C 5176   4.835   3.811  10.018 -0.5404 -0.0646 -0.7721
  780MOL0     C 5177   4.980   3.785  10.069 -0.8936 -0.9510  0.0004
  780MOL0     C 5178   5.080   3.875  10.007  0.3905 -0.3481  0.3055
  780MOL0     C 5179   5.209   3.867  10.097  0.8069  0.0293  0.3052
  780MOL0     C 5180   5.328   3.967  10.056 -0.6928  0.1643 -0.7060
  780MOL0     C 5181   5.424   3.908   9.942  0.2410  0.3831 -0.4693
  780MOL0     N 5182   5.518   3.995   9.884 -0.0543  0.6058  0.2935
  780MOL0     C 5183   5.527   4.040   9.754  0.3711 -0.4129  0.6322
  780MOL0     C 5184   5.634   4.130   9.750 -0.0396 -0.3731  0.3238
  780MOL0     C 5185   5.683   4.199   9.631  0.3443 -0.2730  0.1488
  780MOL0     C 5186   5.830   4.232   9.627 -0.5409 -0.0484  0.8334
  780MOL0     C 5187   5.865   4.306   9.491  0.5050 -0.0430  0.2245
  780MOL0     C 5188   6.016   4.336   9.467  0.1733  0.2113  0.1200
  780MOL0     O 5189   6.035   4.414   9.356  0.0401 -0.2542 -0.0791
  780MOL0     C 5190   6.166   4.457   9.333  0.1455 -0.4416  0.4088
  780MOL0     C 5191   6.190   4.534   9.216  1.2535 -1.3072 -0.1454
  780MOL0     C 5192   6.316   4.565   9.175 -0.4244  0.5321  0.3389
  780MOL0     C 5193   6.430   4.524   9.242 -0.3967  0.6944 -0.6553
  780MOL0     C 5194   6.557   4.563   9.192  0.1153  0.1788  0.0231
  780MOL0     O 5195   6.562   4.620   9.066  0.0046 -0.0827  0.5263
  780MOL0     C 5196   6.678   4.630   8.995  0.2833 -0.1192 -0.2463
  780MOL0     C 5197   6.787   4.542   9.013  0.1923  0.3014  0.2843
  780MOL0     C 5198   6.906   4.555   8.936  0.3335 -0.3572  0.7828
  780MOL0     C 5199   6.911   4.661   8.841  0.0743  0.3136  0.6112
  780MOL0     O 5200   7.037   4.686   8.789  0.0874 -0.1294  0.4020
  780MOL0     C 5201   7.061   4.773   8.672  0.5089 -0.0299 -0.6910
  780MOL0     C 5202   7.213   4.812   8.682  0.6972  0.0790  0.2190
  780MOL0     C 5203   7.253   4.910   8.802 -0.0352  0.8187 -0.1312
  780MOL0     C 5204   7.404   4.926   8.834  0.1550 -0.0494 -0.4156
  780MOL0     C 5205   7.445   4.993   8.961  0.2577 -0.0151 -0.1657
  780MOL0     C 5206   7.379   5.122   8.975 -0.0343  0.2987 -0.7536
  780MOL0     C 5207   7.451   5.188   9.100 -0.4059 -0.2470  0.3618
  780MOL0     C 5208   7.412   5.339   9.089  0.5599  0.1190  0.1916
  780MOL0    Cl 5209   7.241   5.380   9.116  0.2283 -0.0325 -0.2056
  780MOL0     C 5210   6.797   4.745   8.821  0.2888  0.4346  0.0839
  780MOL0     C 5211   6.678   4.727   8.895  0.0488 -0.0500  0.6830
  780MOL0     O 5212   6.652   4.545   9.267 -0.9145  0.3741  0.2147
  780MOL0     C 5213   6.411   4.439   9.353 -0.3340 -0.4614  0.1400
  780MOL0     C 5214   6.280   4.407   9.395  0.5586  0.0024 -0.7653
  780MOL0     N 5215   5.691   4.126   9.876  0.2830 -0.6148  0.0327
  780MOL0     N 5216   5.627   4.039   9.951  1.2011 -0.4010 -0.2311
  780MOL0     C 5217   4.529   3.668   9.749  0.5597  0.1981  0.3356
  780MOL0     C 5218   4.399   3.703   9.715 -0.1902  0.1397  0.9690
  780MOL0     C 5219   3.938   3.811   9.775 -0.0326  0.7689  0.0484
  780MOL0     C 5220   3.842   3.883   9.854  0.6982  0.9115 -0.0949
  780MOL0     C 5221   3.708   3.902   9.819 -0.1560 -0.9893  0.2441
  780MOL0     C 5222   3.668   3.854   9.696  0.2218 -0.5949  0.4736
  780MOL0     O 5223   3.539   3.878   9.669  0.3547 -0.8709  1.1580
  780MOL0     C 5224   3.484   3.834   9.544 -0.0031  0.6184  0.0337
  780MOL0     C 5225   3.330   3.834   9.558 -0.5879 -0.1361  0.4233
  780MOL0     C 5226   3.257   3.756   9.452 -0.5495 -0.1940 -0.0273
  780MOL0     C 5227   3.112   3.736   9.506 -0.3004  0.7685  0.4923
  780MOL0     C 5228   3.036   3.644   9.425 -0.0420 -0.1367  0.2244
  780MOL0     C 5229   2.974   3.574   9.346  0.4020 -0.8696 -0.6613
  780MOL0     C 5230   3.759   3.774   9.616  0.5916 -0.1125 -0.4577
  780MOL0     C 5231   3.897   3.757   9.655  0.0153  0.5142  0.1861
  780MOL0     C 5232   3.983   3.671   9.558  0.0029 -0.4092 -0.4094
  780MOL0     H 5233   4.248   3.648  10.018  0.1570  0.9288 -0.2975
  780MOL0     H 5234   4.473   3.609  10.080  2.3061  3.3547  0.8755
  780MOL0     H 5235   4.670   3.525  10.108 -0.6261 -0.5092 -1.8922
  780MOL0     H 5236   4.830   3.542  10.058  1.4038  1.7371  1.1076
  780MOL0     H 5237   4.763   3.747  10.205  0.6347  5.0777 -0.4556
  780MOL0     H 5238   4.640   3.775  10.089  0.6824 -0.2442 -1.1997
  780MOL0     H 5239   4.815   3.917  10.037  1.2453  0.4531 -1.5530
  780MOL0     H 5240   4.827   3.785   9.912  0.0596 -1.7789 -0.4276
  780MOL0     H 5241   4.976   3.804  10.177  0.5002 -0.6231  0.0247
  780MOL0     H 5242   5.017   3.685  10.046  3.5698 -0.0377  1.9949
  780MOL0     H 5243   5.102   3.854   9.902  2.0123 -0.2058  0.5999
  780MOL0     H 5244   5.042   3.978  10.003  1.0638 -0.1338 -1.9512
  780MOL0     H 5245   5.175   3.901  10.195 -4.6120 -1.9511 -0.5572
  780MOL0     H 5246   5.247   3.765  10.102 -0.7512 -0.6895 -1.4346
  780MOL0     H 5247   5.384   3.998  10.144 -0.0231  1.3795 -1.5345
  780MOL0     H 5248   5.289   4.064  10.023 -0.8018  0.4858  0.3256
  780MOL0     H 5249   5.480   3.819   9.974 -0.3337 -0.1030 -0.7984
  780MOL0     H 5250   5.357   3.875   9.862  0.6748 -0.2165 -0.5936
  780MOL0     H 5251   5.454   4.016   9.677 -1.6256 -0.3465  2.4272
  780MOL0     H 5252   5.648   4.150   9.539 -0.5377 -0.1798  0.4219
  780MOL0     H 5253   5.641   4.300   9.629 -0.4049 -0.5794  0.1773
  780MOL0     H 5254   5.864   4.302   9.704  1.8582 -3.1068  2.8089
  780MOL0     H 5255   5.888   4.141   9.645  0.2325 -0.1306 -1.6275
  780MOL0     H 5256   5.809   4.400   9.492  1.7676  0.8899 -2.8586
  780MOL0     H 5257   5.823   4.240   9.415  1.3563 -1.4288  0.9162
  780MOL0     H 5258   6.070   4.241   9.456  0.7271  0.8083 -3.1222
  780MOL0     H 5259   6.046   4.392   9.556 -1.1386  1.0834  0.0387
  780MOL0     H 5260   6.108   4.579   9.162  1.2145 -1.0519  0.1221
  780MOL0     H 5261   6.324   4.609   9.076  1.0873 -0.0948  0.1623
  780MOL0     H 5262   6.780   4.463   9.087 -0.6051 -0.7623 -0.8823
  780MOL0     H 5263   6.998   4.503   8.961  0.4841 -0.6541 -0.3641
  780MOL0     H 5264   7.033   4.727   8.576 -2.8607  1.7155 -0.7080
  780MOL0     H 5265   6.992   4.858   8.664  1.3766  0.6939 -0.6279
  780MOL0     H 5266   7.275   4.723   8.690  0.8128  0.2382  1.2012
  780MOL0     H 5267   7.245   4.872   8.596 -1.0571  0.6960 -0.0685
  780MOL0     H 5268   7.208   5.002   8.764  2.2023  1.8756 -0.3914
  780MOL0     H 5269   7.211   4.883   8.899  0.3781 -1.1267 -0.4613
  780MOL0     H 5270   7.460   4.980   8.756  1.5147 -0.3042  0.3551
  780MOL0     H 5271   7.444   4.825   8.845 -1.9370 -0.8131  0.9620
  780MOL0     H 5272   7.553   5.007   8.946  0.2360  0.2741 -0.0422
  780MOL0     H 5273   7.419   4.921   9.040 -2.1354  1.9330  0.9430
  780MOL0     H 5274   7.391   5.187   8.888  2.5363 -0.8924 -1.3668
  780MOL0     H 5275   7.271   5.110   8.989  0.3063 -3.5265 -0.3162
  780MOL0     H 5276   7.559   5.171   9.092 -0.1630  1.3641 -0.1809
  780MOL0     H 5277   7.409   5.148   9.193  0.1667 -0.5657  0.4852
  780MOL0     H 5278   7.465   5.395   9.167  1.1261  1.5694 -1.1770
  780MOL0     H 5279   7.445   5.373   8.990 -0.9039 -0.5520 -0.5613
  780MOL0     H 5280   6.798   4.828   8.752 -1.1825  0.2349 -0.2229
  780MOL0     H 5281   6.590   4.791   8.894 -1.3412 -1.7121  3.5123
  780MOL0     H 5282   6.495   4.393   9.404  2.1371  4.4715  1.1574
  780MOL0     H 5283   6.255   4.350   9.484 -3.1702  0.6203 -1.2452
  780MOL0     H 5284   4.605   3.671   9.671  2.1892 -0.3495  1.8404
  780MOL0     H 5285   4.380   3.727   9.610 -3.0463 -1.8639  0.9007
  780MOL0     H 5286   3.872   3.917   9.953 -1.3116  0.2712  0.7681
  780MOL0     H 5287   3.639   3.962   9.878  1.4170  1.2650 -0.0662
  780MOL0     H 5288   3.514   3.731   9.525 -2.3398  0.1023 -1.1469
  780MOL0     H 5289   3.518   3.900   9.464 -2.8969  0.2052 -1.6714
  780MOL0     H 5290   3.288   3.935   9.562 -1.4606 -0.5259  3.0751
  780MOL0     H 5291   3.307   3.785   9.653 -1.0726  0.3435  0.5628
  780MOL0     H 5292   3.308   3.660   9.441 -0.5055  0.0193 -2.0522
  780MOL0     H 5293   3.253   3.816   9.361 -0.0021  0.2029  0.2021
  780MOL0     H 5294   3.114   3.690   9.606 -0.3292 -2.2279 -0.7709
  780MOL0     H 5295   3.052   3.827   9.508  2.7551  3.4016 -5.0119
  780MOL0     H 5296   2.934   3.515   9.266 -0.6276  1.1871 -1.7390
  780MOL0     H 5297   3.722   3.717   9.532 -0.1575 -1.8333  0.9659
  780MOL0     H 5298   3.924   3.642   9.471 -0.1330  1.6352 -1.0474
  780MOL0     H 5299   4.075   3.725   9.536 -0.9814  1.7465  0.5136
  780MOL0     H 5300   4.015   3.583   9.616  0.9355  0.1603 -0.0502
  781MOL0     O 5301   0.310   3.488  10.478  0.1698 -0.3887  0.6958
  781MOL0     C 5302   0.293   3.449  10.364  0.0283 -0.7300  0.0864
  781MOL0     O 5303   0.392   3.421  10.274 -0.7816  0.4230  0.1222
  781MOL0     C 5304   0.520   3.399  10.317  0.0132  0.2280 -0.1688
  781MOL0     C 5305   0.585   3.496  10.387  0.6321 -0.0284 -0.5257
  781MOL0     C 5306   0.712   3.474  10.440  0.4862  0.6428  0.3281
  781MOL0     C 5307   0.786   3.353  10.414  0.5343 -0.0625 -0.3159
  781MOL0     O 5308   0.901   3.336  10.486  0.0414  0.8321  0.1748
  781MOL0     C 5309   0.985   3.223  10.438 -0.4685 -0.4069  0.4818
  781MOL0     C 5310   1.138   3.231  10.467 -0.1254 -0.3711  0.3906
  781MOL0     C 5311   1.150   3.292  10.606  0.1534  0.8134  0.1166
  781MOL0     C 5312   1.291   3.271  10.650 -0.5688 -0.0410 -0.0362
  781MOL0     C 5313   1.311   3.298  10.800  0.2092 -0.7914  0.1678
  781MOL0     C 5314   1.428   3.389  10.823  0.5128  0.0361 -0.2581
  781MOL0     C 5315   1.555   3.327  10.783 -0.2101  0.2049 -1.1093
  781MOL0     C 5316   1.680   3.388  10.849  0.6134  0.9145  0.3441
  781MOL0     N 5317   1.790   3.291  10.823  0.2548 -0.7152  0.4860
  781MOL0     C 5318   1.904   3.309  10.740  0.3830 -0.1095 -0.1689
  781MOL0     C 5319   1.970   3.194  10.747  0.5076 -0.4290 -0.0052
  781MOL0     C 5320   2.093   3.158  10.671 -0.0272 -0.0231 -0.2081
  781MOL0     C 5321   2.223   3.196  10.746  0.0898  0.0527 -0.1318
  781MOL0     C 5322   2.243   3.140  10.885  0.7467  0.3130  0.2183
  781MOL0     C 5323   2.377   3.168  10.946 -1.1130 -0.3500 -0.0520
  781MOL0     O 5324   2.479   3.160  10.850 -0.0668  0.2831 -0.3009
  781MOL0     C 5325   2.606   3.166  10.890 -0.5669 -0.5768 -0.5256
  781MOL0     C 5326   2.655   3.217  11.015  0.3498 -0.3727  0.4321
  781MOL0     C 5327   2.798   3.225  11.041  0.5904 -0.0611 -0.0214
  781MOL0     C 5328   2.886   3.204  10.936  0.1357 -0.7031  0.2517
  781MOL0     C 5329   3.028   3.221  10.953 -0.0626  0.3488  0.2374
  781MOL0     O 5330   3.076   3.232  11.084 -0.2698 -0.0278  0.3699
  781MOL0     C 5331   3.207   3.241  11.113 -0.5274 -0.0058 -0.4743
  781MOL0     C 5332   3.257   3.153  11.206  0.0858  0.0964  0.7855
  781MOL0     C 5333   3.393   3.147  11.233 -0.4145 -0.4638  0.1061
  781MOL0     C 5334   3.480   3.235  11.167  0.4515 -0.3308 -1.1933
  781MOL0     O 5335   3.609   3.225  11.214  0.2396 -0.2188  0.3123
  781MOL0     C 5336   3.699   3.327  11.161  1.0952 -0.5614 -0.3594
  781MOL0     C 5337   3.827   3.322  11.250  0.6269  0.2401  0.8594
  781MOL0     C 5338   3.903   3.452  11.200  0.4822  0.3044  0.3298
  781MOL0     C 5339   4.029   3.449  11.286  0.0757 -1.0868  0.2018
  781MOL0     C 5340   4.155   3.516  11.221  0.0248 -0.2271 -1.0129
  781MOL0     C 5341   4.278   3.480  11.299  0.1855  0.4142  0.5019
  781MOL0     C 5342   4.395   3.553  11.249  0.3052  1.1733  0.4562
  781MOL0     C 5343   4.400   3.680  11.321 -0.6042 -0.5418  0.0253
  781MOL0    Cl 5344   4.567   3.743  11.312  0.2500 -0.0332  0.2914
  781MOL0     C 5345   3.428   3.325  11.072 -0.8880  0.3185 -0.5865
  781MOL0     C 5346   3.295   3.330  11.055  0.8824  0.3206 -0.2353
  781MOL0     O 5347   3.099   3.211  10.848 -0.1063  0.6281 -1.0271
  781MOL0     C 5348   2.840   3.155  10.816  0.1773  0.0788  0.4796
  781MOL0     C 5349   2.700   3.137  10.793 -0.3718  0.1213 -0.2246
  781MOL0     N 5350   1.905   3.116  10.840 -0.2305 -0.3462  0.2913
  781MOL0     N 5351   1.792   3.168  10.871 -0.1059  0.2811 -0.2520
  781MOL0     C 5352   0.725   3.261  10.330 -0.7903  0.0623 -0.5779
  781MOL0     C 5353   0.595   3.286  10.284  0.4395 -0.6105  0.2926
  781MOL0     C 5354   0.159   3.474  10.308  0.5532 -0.0225 -0.2358
  781MOL0     C 5355   0.060   3.538  10.386  0.6638 -0.1947  0.6399
  781MOL0     C 5356  -0.067   3.563  10.343 -0.1931 -0.7768  0.3364
  781MOL0     C 5357  -0.111   3.514  10.225  0.1009 -1.0530  0.5253
  781MOL0     O 5358  -0.229   3.539  10.165 -0.1061  0.1830  0.0615
  781MOL0     C 5359  -0.336   3.450  10.200  0.6325  1.0657  0.0176
  781MOL0     C 5360  -0.415   3.509  10.320  0.0683  0.3850 -0.4430
  781MOL0     C 5361  -0.474   3.643  10.272  0.3777  0.1777  0.6069
  781MOL0     C 5362  -0.548   3.710  10.386 -0.4148 -0.5452 -0.7786
  781MOL0     C 5363  -0.586   3.848  10.361 -0.7933  1.2032  0.2148
  781MOL0     C 5364  -0.638   3.959  10.335 -1.3502 -0.4693 -0.2068
  781MOL0     C 5365  -0.019   3.453  10.136  0.1605  0.6975  0.1788
  781MOL0     C 5366   0.114   3.428  10.176  0.5367 -0.1856  0.4192
  781MOL0     C 5367   0.186   3.332  10.085 -0.4852  0.4355  0.6194
  781MOL0     H 5368   0.540   3.589  10.421 -0.7849 -0.8132 -0.1483
  781MOL0     H 5369   0.760   3.543  10.508  0.7160  3.0478 -2.0905
  781MOL0     H 5370   0.941   3.134  10.482  1.1210 -0.8660  1.1984
  781MOL0     H 5371   0.984   3.223  10.328  0.2591  0.0941  0.4648
  781MOL0     H 5372   1.195   3.287  10.392 -1.5673 -1.2089 -1.4205
  781MOL0     H 5373   1.181   3.130  10.470  1.0802  0.1610  1.4135
  781MOL0     H 5374   1.090   3.237  10.679 -0.6841  0.3357 -0.9159
  781MOL0     H 5375   1.117   3.395  10.617  1.6151  1.5786 -2.1168
  781MOL0     H 5376   1.320   3.173  10.611  1.3063  0.8464 -1.0155
  781MOL0     H 5377   1.348   3.346  10.594 -1.7477  1.6317  0.9377
  781MOL0     H 5378   1.221   3.346  10.839 -0.1318 -2.4845  1.5851
  781MOL0     H 5379   1.328   3.208  10.860  1.5168  0.4246  1.7076
  781MOL0     H 5380   1.415   3.471  10.751  2.8077 -0.0120 -0.8194
  781MOL0     H 5381   1.420   3.414  10.929  0.1691  0.2866 -0.3429
  781MOL0     H 5382   1.581   3.342  10.678  0.6169 -0.5520 -1.0311
  781MOL0     H 5383   1.548   3.220  10.803 -3.5823  0.3839 -0.9065
  781MOL0     H 5384   1.695   3.483  10.797  1.6697  0.9572  0.7013
  781MOL0     H 5385   1.674   3.404  10.957 -0.0429 -1.4535  0.7346
  781MOL0     H 5386   1.942   3.390  10.678 -0.2316 -1.9674 -3.1616
  781MOL0     H 5387   2.106   3.050  10.666  1.3630  0.0284  1.5020
  781MOL0     H 5388   2.096   3.195  10.568 -1.7359 -1.3748 -0.7932
  781MOL0     H 5389   2.309   3.171  10.682  1.0219 -0.8796  1.4143
  781MOL0     H 5390   2.236   3.301  10.774  2.3923 -0.4169  0.8133
  781MOL0     H 5391   2.239   3.031  10.884 -0.4598  0.2724  2.6657
  781MOL0     H 5392   2.160   3.175  10.947  0.5091 -3.1932  2.1540
  781MOL0     H 5393   2.399   3.090  11.019  3.6595  0.1111 -0.6799
  781MOL0     H 5394   2.383   3.269  10.988  2.6512  1.1615 -3.4910
  781MOL0     H 5395   2.589   3.247  11.096 -1.3029 -2.1505 -0.1876
  781MOL0     H 5396   2.831   3.258  11.139 -0.1182  3.1727 -0.7567
  781MOL0     H 5397   3.184   3.082  11.244  0.6561 -1.6056 -1.1117
  781MOL0     H 5398   3.432   3.076  11.305  1.1335  0.1669 -0.0872
  781MOL0     H 5399   3.727   3.311  11.057 -0.8724  2.2692 -1.4519
  781MOL0     H 5400   3.660   3.429  11.164  3.4391  0.3670  1.1285
  781MOL0     H 5401   3.819   3.330  11.359  0.7349  1.0842  0.8095
  781MOL0     H 5402   3.886   3.234  11.224  3.2333  1.7478  1.2787
  781MOL0     H 5403   3.917   3.451  11.092 -3.0286  2.4509 -0.2972
  781MOL0     H 5404   3.844   3.539  11.231  0.4554 -0.0365  1.2645
  781MOL0     H 5405   4.063   3.349  11.313  2.6253 -0.2560  0.3617
  781MOL0     H 5406   4.004   3.491  11.384  1.2074  1.0398 -0.3477
  781MOL0     H 5407   4.144   3.624  11.220  0.5582 -0.1519 -0.2694
  781MOL0     H 5408   4.161   3.478  11.119  0.1668 -1.4971 -0.5568
  781MOL0     H 5409   4.267   3.495  11.406  1.7670  1.2413  0.5827
  781MOL0     H 5410   4.303   3.376  11.274  0.4461  0.1081  1.9716
  781MOL0     H 5411   4.385   3.572  11.141  0.4089  0.8279  0.3856
  781MOL0     H 5412   4.488   3.499  11.267 -0.3786  0.2029  1.1401
  781MOL0     H 5413   4.317   3.741  11.284  0.1286  0.1904 -0.4248
  781MOL0     H 5414   4.384   3.672  11.429  2.0093 -0.9356  0.4331
  781MOL0     H 5415   3.497   3.389  11.018  0.1121 -0.4721 -0.2825
  781MOL0     H 5416   3.261   3.406  10.986 -1.3608 -0.7924 -0.4646
  781MOL0     H 5417   2.905   3.124  10.735 -0.4023 -1.4511  0.5707
  781MOL0     H 5418   2.652   3.107  10.701  0.1923  0.9080 -0.7869
  781MOL0     H 5419   0.770   3.167  10.299 -2.0577  0.0544 -2.5835
  781MOL0     H 5420   0.556   3.202  10.227  0.9800 -0.5670 -0.1540
  781MOL0     H 5421   0.080   3.578  10.485  0.3285  2.7775 -0.3760
  781MOL0     H 5422  -0.137   3.614  10.408  1.0728  0.1540  1.0127
  781MOL0     H 5423  -0.309   3.346  10.221 -4.4218 -0.4381  0.2949
  781MOL0     H 5424  -0.403   3.434  10.116  1.0455 -2.5485  0.2091
  781MOL0     H 5425  -0.352   3.516  10.409 -2.4283 -0.0130  1.4581
  781MOL0     H 5426  -0.492   3.436  10.345 -0.2337  1.1114  0.8344
  781MOL0     H 5427  -0.546   3.640  10.189  1.7091 -0.0427 -0.5862
  781MOL0     H 5428  -0.388   3.699  10.234  1.7121 -2.3779 -0.3940
  781MOL0     H 5429  -0.638   3.657  10.419 -0.0917 -1.0463 -0.6945
  781MOL0     H 5430  -0.482   3.706  10.473 -0.9908 -4.4193 -0.3533
  781MOL0     H 5431  -0.679   4.057  10.322  2.0284  1.3345  1.4166
  781MOL0     H 5432  -0.052   3.419  10.039  1.0010  0.7658 -0.1376
  781MOL0     H 5433   0.118   3.272  10.024 -0.2412  0.2817  0.4978
  781MOL0     H 5434   0.252   3.385  10.016  0.2196 -0.8238  0.2873
  781MOL0     H 5435   0.252   3.266  10.143 -0.7763 -0.6523 -0.2482
  782MOL0     O 5436   9.346   3.393   4.292 -0.7802 -0.9371  0.1008
  782MOL0     C 5437   9.319   3.428   4.172 -0.0063  1.0290  0.0340
  782MOL0     O 5438   9.416   3.444   4.080 -0.8286  0.7210  0.2711
  782MOL0     C 5439   9.541   3.386   4.101  0.9320  0.1084  0.5372
  782MOL0     C 5440   9.564   3.260   4.158 -0.3247  1.4012  0.1867
  782MOL0     C 5441   9.688   3.212   4.187  0.3374  0.5391  0.4565
  782MOL0     C 5442   9.799   3.289   4.170 -0.6979 -1.1189  0.0777
  782MOL0     O 5443   9.931   3.268   4.217 -0.1850  0.7004  0.4125
  782MOL0     C 5444   9.966   3.126   4.231  0.0558 -0.0357  0.3453
  782MOL0     C 5445  10.103   3.103   4.304  0.0039 -0.3706  0.1882
  782MOL0     C 5446  10.119   2.949   4.317  0.0842  0.4152  0.5533
  782MOL0     C 5447  10.230   2.928   4.412  0.2075  0.4547  1.0378
  782MOL0     C 5448  10.285   2.780   4.404  0.4672  0.1332 -0.5228
  782MOL0     C 5449  10.398   2.751   4.508  0.3653  0.2908 -0.7796
  782MOL0     C 5450  10.522   2.820   4.450 -0.2103 -0.1634 -0.7081
  782MOL0     C 5451  10.598   2.726   4.345  0.0876  0.3327  0.1929
  782MOL0     N 5452  10.705   2.814   4.298 -0.5267  0.0510 -0.1079
  782MOL0     C 5453  10.820   2.846   4.371 -0.7413 -0.1121 -0.5223
  782MOL0     C 5454  10.889   2.929   4.284 -0.2829  0.9648 -0.0404
  782MOL0     C 5455  11.020   2.985   4.323 -0.0868 -0.2047 -0.3506
  782MOL0     C 5456  11.117   2.994   4.207  0.5841  0.0550 -0.0907
  782MOL0     C 5457  11.244   3.064   4.259 -0.1303 -0.1064 -0.6067
  782MOL0     C 5458  11.322   2.976   4.351 -0.4761 -0.5253  0.0561
  782MOL0     O 5459  11.441   3.046   4.361 -0.6032 -0.0131 -0.2927
  782MOL0     C 5460  11.553   2.985   4.406 -0.4475  0.3232  0.1771
  782MOL0     C 5461  11.569   2.847   4.433 -0.2753 -0.5864  0.5922
  782MOL0     C 5462  11.681   2.815   4.499 -0.7108 -0.2931  0.4229
  782MOL0     C 5463  11.789   2.900   4.520 -1.3802  0.5737  0.1419
  782MOL0     C 5464  11.915   2.858   4.588  0.2777 -0.8462 -0.0967
  782MOL0     O 5465  12.010   2.959   4.620 -0.2474 -0.0115 -0.2363
  782MOL0     C 5466  12.141   2.916   4.624 -0.4132  0.0193 -0.5493
  782MOL0     C 5467  12.218   2.925   4.741  1.0882 -0.0437 -0.0134
  782MOL0     C 5468  12.355   2.906   4.742 -0.2869  0.2458  0.5067
  782MOL0     C 5469  12.422   2.885   4.622  0.2621 -0.2349 -0.3418
  782MOL0     O 5470  12.559   2.886   4.606  0.1744  0.4158  0.3457
  782MOL0     C 5471  12.628   2.859   4.725  0.1145  0.5707 -1.3385
  782MOL0     C 5472  12.773   2.806   4.720  0.0606  0.1348  0.1039
  782MOL0     C 5473  12.835   2.806   4.869  0.5401 -0.3069  0.2852
  782MOL0     C 5474  12.973   2.744   4.869  0.1012 -0.7851  0.0311
  782MOL0     C 5475  13.057   2.778   4.991  1.1771 -0.3309  0.5342
  782MOL0     C 5476  13.198   2.719   4.979  0.2925 -0.3971 -0.4940
  782MOL0     C 5477  13.281   2.753   5.107 -0.4751 -0.3319  0.3503
  782MOL0     C 5478  13.432   2.707   5.096  0.1018  0.7525  0.0794
  782MOL0    Cl 5479  13.504   2.760   4.938  0.2468  0.4314 -0.5740
  782MOL0     C 5480  12.348   2.862   4.511 -0.9970 -0.5294 -0.0813
  782MOL0     C 5481  12.205   2.881   4.507 -1.1182 -0.4460 -0.0593
  782MOL0     O 5482  11.936   2.740   4.597  0.5817 -0.5149 -0.4288
  782MOL0     C 5483  11.775   3.039   4.482  0.8814 -0.2287 -0.3934
  782MOL0     C 5484  11.657   3.076   4.419 -1.0013 -0.2459 -0.2982
  782MOL0     N 5485  10.815   2.940   4.162  0.1639 -0.2654  0.0702
  782MOL0     N 5486  10.710   2.874   4.176 -0.9235 -0.2173  0.6957
  782MOL0     C 5487   9.774   3.417   4.112  0.0290 -0.1889 -0.2197
  782MOL0     C 5488   9.647   3.462   4.073 -0.0577 -0.6016 -0.2856
  782MOL0     C 5489   9.181   3.446   4.126 -0.2315  0.3475  1.1751
  782MOL0     C 5490   9.154   3.429   3.984  0.2978 -0.9497 -0.9552
  782MOL0     C 5491   9.020   3.421   3.933 -0.9653 -0.3945  0.1459
  782MOL0     C 5492   8.909   3.445   4.016  0.2057  0.0739  0.5957
  782MOL0     O 5493   8.774   3.440   3.972  0.2630 -0.5184  0.4145
  782MOL0     C 5494   8.739   3.435   3.836  0.2678  1.1304 -0.8983
  782MOL0     C 5495   8.594   3.456   3.811  0.1277 -0.2148 -0.2968
  782MOL0     C 5496   8.500   3.366   3.885 -0.4481  0.6376  0.0609
  782MOL0     C 5497   8.500   3.227   3.826 -0.3132 -0.1568  0.0955
  782MOL0     C 5498   8.400   3.143   3.881  0.5353  0.2605  0.2183
  782MOL0     C 5499   8.310   3.080   3.934 -0.1986 -0.0520  0.9256
  782MOL0     C 5500   8.935   3.483   4.143 -0.1805 -0.0210 -0.2431
  782MOL0     C 5501   9.064   3.478   4.203  0.7656  1.1553 -0.0912
  782MOL0     C 5502   9.078   3.511   4.355  0.2549  1.3181  0.5280
  782MOL0     H 5503   9.480   3.192   4.174  2.5289 -1.9377  2.3503
  782MOL0     H 5504   9.698   3.107   4.213 -0.8733  0.6201  1.3409
  782MOL0     H 5505   9.889   3.085   4.296  0.6223  0.0392  1.0713
  782MOL0     H 5506   9.960   3.064   4.141 -1.2823  0.1706  0.2674
  782MOL0     H 5507  10.094   3.152   4.401 -1.6189 -0.7214  0.2544
  782MOL0     H 5508  10.190   3.136   4.246 -0.3481 -0.4855 -0.4181
  782MOL0     H 5509  10.145   2.903   4.221  0.4028  0.7096  0.4986
  782MOL0     H 5510  10.026   2.912   4.362 -0.9551  1.5670 -0.5306
  782MOL0     H 5511  10.311   2.995   4.382  0.4512 -0.6716 -1.0160
  782MOL0     H 5512  10.193   2.944   4.514 -2.3593 -1.4826  0.5093
  782MOL0     H 5513  10.204   2.711   4.431  1.7975 -1.2297  0.1992
  782MOL0     H 5514  10.315   2.748   4.304 -0.1854  0.7540 -0.9250
  782MOL0     H 5515  10.372   2.798   4.603 -1.5810  0.7784 -1.5023
  782MOL0     H 5516  10.406   2.645   4.531 -1.3460  0.7589  2.5090
  782MOL0     H 5517  10.589   2.848   4.532  0.4798 -2.6435 -0.3417
  782MOL0     H 5518  10.498   2.912   4.395  2.0509  0.7037 -0.3702
  782MOL0     H 5519  10.643   2.631   4.374 -1.6404 -0.1997  1.2664
  782MOL0     H 5520  10.517   2.698   4.277 -0.7879  0.7656  1.0297
  782MOL0     H 5521  10.857   2.822   4.470  1.3540 -1.1476 -1.4892
  782MOL0     H 5522  11.009   3.082   4.373  0.5430 -2.3771  4.5653
  782MOL0     H 5523  11.069   2.914   4.390  0.9564  1.9485  1.2601
  782MOL0     H 5524  11.124   2.899   4.153 -2.4481 -0.4303  0.2028
  782MOL0     H 5525  11.062   3.064   4.142 -0.0563 -0.5485 -0.2012
  782MOL0     H 5526  11.223   3.157   4.311  1.3752  0.2008 -0.5057
  782MOL0     H 5527  11.312   3.093   4.178 -2.2015  1.3758 -1.8850
  782MOL0     H 5528  11.335   2.876   4.311 -2.6587 -0.6609 -0.4281
  782MOL0     H 5529  11.273   2.955   4.446  0.1325  1.0334  0.7542
  782MOL0     H 5530  11.483   2.786   4.408 -1.0770  0.9450 -0.5218
  782MOL0     H 5531  11.691   2.715   4.540 -0.4211 -0.7366 -0.6896
  782MOL0     H 5532  12.174   2.962   4.833  1.1713 -1.0264  0.4339
  782MOL0     H 5533  12.406   2.912   4.837  0.2480 -2.5492  0.4765
  782MOL0     H 5534  12.638   2.954   4.779  1.1712  1.3196 -2.7894
  782MOL0     H 5535  12.572   2.789   4.788  1.0517  1.2090  0.2719
  782MOL0     H 5536  12.771   2.707   4.673  0.1395  0.8898 -1.5785
  782MOL0     H 5537  12.831   2.876   4.659  3.0045 -1.3020  1.0343
  782MOL0     H 5538  12.833   2.911   4.900  1.8584 -0.4515  0.9349
  782MOL0     H 5539  12.763   2.749   4.930 -0.5651 -0.6725 -1.3024
  782MOL0     H 5540  13.023   2.783   4.780 -3.3805  0.0509 -1.7772
  782MOL0     H 5541  12.959   2.636   4.871  0.4735 -0.8237  0.4510
  782MOL0     H 5542  13.015   2.721   5.075  0.0486 -3.4786 -1.9539
  782MOL0     H 5543  13.044   2.886   5.003 -0.8895 -0.1319 -2.3660
  782MOL0     H 5544  13.204   2.611   4.960  1.6658 -0.4160 -0.0479
  782MOL0     H 5545  13.254   2.764   4.897 -0.3290 -0.4646 -0.9640
  782MOL0     H 5546  13.248   2.702   5.199  1.8722  3.1382  3.4150
  782MOL0     H 5547  13.286   2.860   5.128  1.9493 -0.6998  2.1401
  782MOL0     H 5548  13.488   2.754   5.178  2.9315  0.3571 -1.4992
  782MOL0     H 5549  13.441   2.598   5.110  0.3906  0.9902  2.2080
  782MOL0     H 5550  12.400   2.839   4.418 -1.2007 -1.7601  0.0970
  782MOL0     H 5551  12.150   2.877   4.414  0.0073 -3.4150 -0.6868
  782MOL0     H 5552  11.860   3.107   4.484 -0.0835  1.0022  0.5762
  782MOL0     H 5553  11.654   3.178   4.382 -0.1514 -0.1970 -0.2573
  782MOL0     H 5554   9.862   3.478   4.092 -1.7457  3.4007  2.0180
  782MOL0     H 5555   9.626   3.558   4.028 -2.1488 -0.9926 -0.2810
  782MOL0     H 5556   9.234   3.406   3.915 -0.1554 -0.3452 -1.7027
  782MOL0     H 5557   8.997   3.409   3.827 -2.4123 -1.7350  0.5724
  782MOL0     H 5558   8.774   3.341   3.793  0.8228  0.5357  0.7774
  782MOL0     H 5559   8.796   3.515   3.787 -1.8164  1.3727 -3.1388
  782MOL0     H 5560   8.566   3.451   3.706  1.8286 -1.4169 -0.7412
  782MOL0     H 5561   8.582   3.559   3.847 -2.6760 -0.8057  0.7084
  782MOL0     H 5562   8.398   3.403   3.872 -0.8450 -0.0606  1.0617
  782MOL0     H 5563   8.519   3.367   3.993 -2.7331 -1.7979  0.5911
  782MOL0     H 5564   8.484   3.234   3.718  0.1964  0.3827  0.0439
  782MOL0     H 5565   8.592   3.170   3.842 -1.3128 -2.4091 -1.5622
  782MOL0     H 5566   8.230   3.034   3.989  0.1120 -0.1243  1.3196
  782MOL0     H 5567   8.846   3.521   4.193 -0.5844 -0.0867 -0.9042
  782MOL0     H 5568   9.111   3.423   4.411 -1.0740  0.7046  0.3751
  782MOL0     H 5569   9.149   3.593   4.368 -1.2863  2.7507  0.2923
  782MOL0     H 5570   8.987   3.554   4.398 -0.2599  0.3698  0.4107
  783MOL0     O 5571   1.701   2.858   1.975 -0.0662  0.2459  0.7351
  783MOL0     C 5572   1.667   2.879   2.089 -0.2509  0.5363 -0.4331
  783MOL0     O 5573   1.747   2.860   2.200  0.4607  0.3570  0.8457
  783MOL0     C 5574   1.882   2.842   2.177  0.3568  0.1916  0.3163
  783MOL0     C 5575   1.945   2.716   2.152  0.6849  0.3269  0.0809
  783MOL0     C 5576   2.081   2.691   2.151  0.5025  0.5252  0.6405
  783MOL0     C 5577   2.168   2.799   2.162  0.1200  0.6487 -0.0880
  783MOL0     O 5578   2.301   2.772   2.155  0.5060 -0.2080 -0.5138
  783MOL0     C 5579   2.378   2.879   2.108 -0.6441 -0.1239  0.0159
  783MOL0     C 5580   2.514   2.835   2.079  0.0072 -0.9218 -0.0334
  783MOL0     C 5581   2.591   2.788   2.203  0.0683 -0.1325  0.3365
  783MOL0     C 5582   2.729   2.737   2.165 -0.5592  0.7533 -0.0389
  783MOL0     C 5583   2.810   2.720   2.294  0.3131 -0.0579  0.6336
  783MOL0     C 5584   2.855   2.851   2.362 -0.7518  0.3399 -0.9190
  783MOL0     C 5585   2.936   2.825   2.491 -0.2275  0.5769 -0.1967
  783MOL0     C 5586   3.079   2.770   2.465  0.1017 -0.0912 -0.6111
  783MOL0     N 5587   3.153   2.757   2.582 -0.0458  0.0029 -0.9371
  783MOL0     C 5588   3.109   2.696   2.696 -0.0821 -0.8608 -0.1368
  783MOL0     C 5589   3.205   2.724   2.790 -0.0912 -0.2062 -0.2619
  783MOL0     C 5590   3.208   2.683   2.935  0.9423  0.0021 -0.3936
  783MOL0     C 5591   3.333   2.593   2.971 -1.0833 -0.0167  0.3857
  783MOL0     C 5592   3.379   2.602   3.118  0.2169 -0.2912 -0.1209
  783MOL0     C 5593   3.524   2.565   3.135  0.4670  0.8922 -0.1793
  783MOL0     O 5594   3.531   2.422   3.099 -0.0308  0.1132 -0.4572
  783MOL0     C 5595   3.654   2.360   3.129  0.3544 -0.6574  0.1332
  783MOL0     C 5596   3.768   2.427   3.176  0.1574 -0.2505 -0.3060
  783MOL0     C 5597   3.883   2.355   3.216  0.3809  0.3527  0.5275
  783MOL0     C 5598   3.892   2.220   3.181  0.8967  0.1466 -0.8781
  783MOL0     C 5599   4.018   2.146   3.199 -0.2281 -0.0607  0.5078
  783MOL0     O 5600   4.114   2.212   3.278  0.1384 -0.3205  0.2133
  783MOL0     C 5601   4.250   2.173   3.282  0.2698 -0.2280  0.2411
  783MOL0     C 5602   4.308   2.202   3.396 -0.7966 -0.5615  0.2842
  783MOL0     C 5603   4.445   2.170   3.411 -0.2059  0.5438 -0.6386
  783MOL0     C 5604   4.513   2.096   3.322 -0.1988 -1.2759 -0.5164
  783MOL0     O 5605   4.650   2.070   3.356 -0.4248  0.2064  0.2852
  783MOL0     C 5606   4.741   2.082   3.243 -0.6118 -1.0008  0.0505
  783MOL0     C 5607   4.888   2.101   3.276  0.0008 -0.2057 -0.1797
  783MOL0     C 5608   4.988   2.105   3.163 -0.0416  0.2535 -0.1557
  783MOL0     C 5609   5.123   2.155   3.217  0.0413  0.4265 -0.2377
  783MOL0     C 5610   5.211   2.065   3.311 -0.0997 -0.7940  0.3696
  783MOL0     C 5611   5.324   2.146   3.370 -0.8281 -0.1544  0.4740
  783MOL0     C 5612   5.293   2.235   3.489 -0.2600  0.4682 -0.0445
  783MOL0     C 5613   5.410   2.329   3.522  0.3356 -0.5575  0.1118
  783MOL0    Cl 5614   5.573   2.247   3.504  0.0743  0.3845 -0.1407
  783MOL0     C 5615   4.450   2.065   3.200 -0.0834 -0.4166  0.0746
  783MOL0     C 5616   4.325   2.111   3.178  0.5804 -0.1906 -0.4306
  783MOL0     O 5617   4.041   2.035   3.148 -0.2075 -0.3967  0.5406
  783MOL0     C 5618   3.774   2.152   3.141 -0.5080 -0.0808 -0.0021
  783MOL0     C 5619   3.658   2.221   3.117 -0.0167 -0.7996 -0.2908
  783MOL0     N 5620   3.298   2.807   2.736  0.0781  0.8403  0.4238
  783MOL0     N 5621   3.271   2.819   2.605 -0.2316 -0.1431 -0.1131
  783MOL0     C 5622   2.107   2.927   2.194  0.4748 -0.2029  0.1833
  783MOL0     C 5623   1.966   2.949   2.195  0.7881 -0.0452  0.9530
  783MOL0     C 5624   1.529   2.929   2.109 -0.4489 -0.0139 -0.1186
  783MOL0     C 5625   1.421   2.848   2.067  0.8123  0.4574 -0.7482
  783MOL0     C 5626   1.290   2.898   2.075  0.1100  0.5518 -0.1815
  783MOL0     C 5627   1.266   3.026   2.123 -0.2611  0.2398  0.2808
  783MOL0     O 5628   1.137   3.069   2.137 -0.1092 -0.1390  0.2806
  783MOL0     C 5629   1.102   3.179   2.044 -0.7436 -0.2532 -0.4918
  783MOL0     C 5630   0.985   3.258   2.099  0.1356  0.9577  0.1135
  783MOL0     C 5631   0.850   3.191   2.072  0.1070  0.3525 -0.1127
  783MOL0     C 5632   0.731   3.271   2.121  0.4192 -0.0552  0.2307
  783MOL0     C 5633   0.611   3.184   2.112 -0.4036  0.1765 -0.3523
  783MOL0     C 5634   0.515   3.105   2.102 -0.5315  0.8671  1.2027
  783MOL0     C 5635   1.380   3.111   2.148  0.5539  0.6164 -0.4139
  783MOL0     C 5636   1.509   3.066   2.143  0.8779 -0.7054 -0.6528
  783MOL0     C 5637   1.624   3.160   2.178  0.9176 -0.2921  0.4630
  783MOL0     H 5638   1.876   2.633   2.140  1.3451 -0.0431 -1.4542
  783MOL0     H 5639   2.114   2.589   2.138 -2.5727 -0.4318 -0.5430
  783MOL0     H 5640   2.327   2.926   2.024  0.0500  2.8090  1.1290
  783MOL0     H 5641   2.391   2.964   2.176  0.6282  2.0698 -2.7786
  783MOL0     H 5642   2.558   2.931   2.050 -0.8933 -0.2676  0.6896
  783MOL0     H 5643   2.518   2.778   1.986 -1.4546  2.0288 -2.0469
  783MOL0     H 5644   2.536   2.709   2.254 -0.3608  0.3943  0.7047
  783MOL0     H 5645   2.591   2.863   2.283  1.0542 -0.1492  0.3659
  783MOL0     H 5646   2.721   2.643   2.110 -2.1847  0.7608  0.1316
  783MOL0     H 5647   2.783   2.805   2.099  1.5140 -1.5920 -0.9194
  783MOL0     H 5648   2.745   2.667   2.365 -0.2509 -0.0428  0.1394
  783MOL0     H 5649   2.888   2.645   2.278  0.2560 -0.1963  0.9827
  783MOL0     H 5650   2.916   2.902   2.287 -0.8281 -1.7277 -2.4718
  783MOL0     H 5651   2.765   2.906   2.388 -0.3465  0.2592  0.8386
  783MOL0     H 5652   2.873   2.762   2.554  1.9719 -0.5880  0.9263
  783MOL0     H 5653   2.939   2.920   2.546 -2.3840  1.6465 -1.7508
  783MOL0     H 5654   3.078   2.668   2.425  1.9806 -0.8726  1.1981
  783MOL0     H 5655   3.118   2.835   2.385  0.4917 -1.3555 -1.4864
  783MOL0     H 5656   3.024   2.632   2.716 -0.3288 -0.0676  1.5077
  783MOL0     H 5657   3.212   2.773   2.997 -1.0416 -1.3686  1.9353
  783MOL0     H 5658   3.122   2.620   2.960  0.0481  0.3185 -2.4934
  783MOL0     H 5659   3.311   2.489   2.946  2.0475 -0.7415  0.2319
  783MOL0     H 5660   3.417   2.621   2.907 -0.3558 -1.8044  0.4938
  783MOL0     H 5661   3.316   2.528   3.167  0.3013 -0.4492 -0.2539
  783MOL0     H 5662   3.356   2.701   3.159 -4.4494 -1.7400  1.3320
  783MOL0     H 5663   3.560   2.576   3.238 -0.2718  1.1432  0.0595
  783MOL0     H 5664   3.591   2.629   3.076  2.3699  0.2056  1.1410
  783MOL0     H 5665   3.768   2.534   3.193  1.3580 -0.3829  0.6460
  783MOL0     H 5666   3.955   2.420   3.264 -1.8682  2.5901  1.0656
  783MOL0     H 5667   4.256   2.251   3.478 -1.2540 -4.4651  2.6234
  783MOL0     H 5668   4.492   2.176   3.509  0.7286 -0.7531 -0.9808
  783MOL0     H 5669   4.731   1.991   3.183  0.9400 -1.0544 -0.1564
  783MOL0     H 5670   4.710   2.163   3.176 -0.3413 -0.6943  0.2947
  783MOL0     H 5671   4.889   2.192   3.337 -0.4527 -1.7432  2.3067
  783MOL0     H 5672   4.928   2.023   3.342  0.0493  0.6773  0.8736
  783MOL0     H 5673   4.983   2.008   3.113 -3.5793  1.9086 -3.4893
  783MOL0     H 5674   4.959   2.177   3.086  0.4655 -0.2166 -0.8030
  783MOL0     H 5675   5.102   2.250   3.268  1.0711 -1.3045  3.8107
  783MOL0     H 5676   5.178   2.180   3.126 -2.6116 -0.8992 -2.3426
  783MOL0     H 5677   5.254   1.984   3.252 -0.1342  0.2469 -1.1626
  783MOL0     H 5678   5.156   2.020   3.394  0.1434 -0.3655  0.7694
  783MOL0     H 5679   5.408   2.077   3.386  1.8662  2.0702 -2.7028
  783MOL0     H 5680   5.350   2.214   3.289 -2.5082 -0.9865 -0.8148
  783MOL0     H 5681   5.276   2.176   3.579 -2.8778 -1.0870 -1.4255
  783MOL0     H 5682   5.198   2.284   3.466 -1.2777 -2.3747 -2.5511
  783MOL0     H 5683   5.405   2.407   3.446 -0.0630  0.0400  0.7358
  783MOL0     H 5684   5.389   2.367   3.622 -2.4050 -2.3503  0.3094
  783MOL0     H 5685   4.500   2.026   3.112 -2.7374  1.8906 -2.6519
  783MOL0     H 5686   4.287   2.087   3.079  2.4776  0.0554 -1.2659
  783MOL0     H 5687   3.774   2.046   3.118 -2.3696  0.2852 -2.0388
  783MOL0     H 5688   3.580   2.155   3.083  1.3492 -1.6417 -1.9543
  783MOL0     H 5689   2.178   3.005   2.218  1.0053 -0.8626  0.8138
  783MOL0     H 5690   1.930   3.049   2.215 -0.6793 -0.1389 -0.9536
  783MOL0     H 5691   1.424   2.751   2.019 -2.7807  1.5391 -3.5382
  783MOL0     H 5692   1.208   2.834   2.044 -0.2937  1.1531 -0.3878
  783MOL0     H 5693   1.080   3.142   1.943 -2.4035  2.0292 -1.0402
  783MOL0     H 5694   1.188   3.246   2.035 -0.3978 -0.7073 -0.6314
  783MOL0     H 5695   0.989   3.351   2.041  3.2184  1.4795  0.9879
  783MOL0     H 5696   1.007   3.272   2.205 -0.2135 -0.2344  0.3636
  783MOL0     H 5697   0.852   3.100   2.133  1.6154  2.1716  2.7395
  783MOL0     H 5698   0.837   3.177   1.964 -2.5910  2.0536 -0.0785
  783MOL0     H 5699   0.739   3.310   2.222 -2.6668 -0.8225  0.8751
  783MOL0     H 5700   0.722   3.356   2.052  3.1577 -0.1516 -0.3628
  783MOL0     H 5701   0.428   3.043   2.094  0.8500 -0.8697 -2.4740
  783MOL0     H 5702   1.354   3.207   2.191 -0.5438  0.2104 -0.1478
  783MOL0     H 5703   1.616   3.174   2.286 -3.4200 -1.1757  0.4332
  783MOL0     H 5704   1.725   3.125   2.154  1.5265  0.7944  1.3013
  783MOL0     H 5705   1.603   3.256   2.129 -0.2701 -0.3627  0.7996
  784MOL0     O 5706   3.971   1.497  11.173  0.3096  0.2510  0.2307
  784MOL0     C 5707   3.851   1.509  11.207  0.1629  0.3698  0.5250
  784MOL0     O 5708   3.808   1.600  11.284 -0.7968 -0.6583 -0.3137
  784MOL0     C 5709   3.870   1.721  11.287  0.4328  0.3150 -0.5564
  784MOL0     C 5710   3.940   1.781  11.184  0.0475  0.0994  0.4517
  784MOL0     C 5711   3.991   1.907  11.186 -0.2852 -0.7764  0.3663
  784MOL0     C 5712   3.980   1.981  11.304  0.6069 -0.2282  0.2012
  784MOL0     O 5713   4.040   2.097  11.331 -0.2003 -0.0416  0.6164
  784MOL0     C 5714   4.127   2.143  11.228  0.3813 -0.3876  0.0900
  784MOL0     C 5715   4.190   2.283  11.267  0.6387  0.1280 -0.3176
  784MOL0     C 5716   4.089   2.390  11.283  0.0778 -0.2709 -0.0150
  784MOL0     C 5717   4.145   2.531  11.314  0.0541  0.3268 -0.2527
  784MOL0     C 5718   4.091   2.592  11.446  0.1107 -0.3554 -0.0314
  784MOL0     C 5719   4.143   2.734  11.472 -0.1933 -0.0878  0.0551
  784MOL0     C 5720   4.112   2.778  11.615 -0.7703  0.0227 -0.3133
  784MOL0     C 5721   4.160   2.918  11.636  0.4956  0.6080 -0.1398
  784MOL0     N 5722   4.304   2.946  11.651 -0.0840 -0.5180 -0.1034
  784MOL0     C 5723   4.368   2.941  11.768  0.0293  0.3516 -0.1969
  784MOL0     C 5724   4.486   2.998  11.743 -0.2671 -1.0295  0.3264
  784MOL0     C 5725   4.591   3.016  11.851 -0.3811 -0.7033 -0.4223
  784MOL0     C 5726   4.727   2.990  11.800  0.7577  0.3000  0.2291
  784MOL0     C 5727   4.840   3.000  11.900  0.1679  0.5747  0.1281
  784MOL0     C 5728   4.835   2.887  12.002 -0.0148  0.1503  0.8719
  784MOL0     O 5729   4.950   2.888  12.085  0.0945 -0.0070 -0.1371
  784MOL0     C 5730   5.063   2.836  12.020 -0.7462 -0.2978 -0.0897
  784MOL0     C 5731   5.181   2.870  12.081  0.0404 -0.7659 -0.6497
  784MOL0     C 5732   5.295   2.815  12.031 -0.8624  0.1668  0.3272
  784MOL0     C 5733   5.305   2.741  11.907 -1.2282  0.3124 -0.1269
  784MOL0     C 5734   5.437   2.676  11.871  0.4294 -0.1171 -0.0025
  784MOL0     O 5735   5.549   2.725  11.935 -0.4182 -0.1445  0.0524
  784MOL0     C 5736   5.670   2.684  11.890  0.2728 -0.3011 -0.1078
  784MOL0     C 5737   5.767   2.779  11.857 -0.9463 -0.1589  0.9829
  784MOL0     C 5738   5.890   2.751  11.804  0.0152 -0.2442  0.3105
  784MOL0     C 5739   5.916   2.614  11.781  0.2159  0.0220 -0.5532
  784MOL0     O 5740   6.045   2.579  11.745  0.5308  0.1668 -0.0480
  784MOL0     C 5741   6.107   2.652  11.640 -0.3701  0.2036  0.3863
  784MOL0     C 5742   6.027   2.625  11.513  0.5903  0.2502 -0.2337
  784MOL0     C 5743   6.099   2.659  11.387  0.0476  0.1465  1.0109
  784MOL0     C 5744   6.016   2.607  11.265 -0.6447  0.0328 -1.3206
  784MOL0     C 5745   6.088   2.661  11.145 -0.4682  0.0320  1.0444
  784MOL0     C 5746   6.010   2.648  11.020  1.1830 -0.3573  0.4687
  784MOL0     C 5747   6.069   2.732  10.902 -0.4068 -0.3848  1.1123
  784MOL0     C 5748   5.990   2.723  10.777 -0.4924  0.1369  0.1278
  784MOL0    Cl 5749   5.847   2.815  10.799  0.1506  0.2539 -0.3914
  784MOL0     C 5750   5.833   2.517  11.833  0.2725 -0.1372  0.2956
  784MOL0     C 5751   5.702   2.552  11.880 -0.3543 -0.0204  0.4197
  784MOL0     O 5752   5.442   2.603  11.772 -0.1996 -0.0949  0.1140
  784MOL0     C 5753   5.185   2.714  11.849  0.3812 -0.2730 -0.2895
  784MOL0     C 5754   5.064   2.762  11.897  0.2636 -0.1361  0.1024
  784MOL0     N 5755   4.496   3.046  11.609 -0.6483  0.0823 -0.3768
  784MOL0     N 5756   4.380   3.012  11.559  0.0776  0.3350  0.5053
  784MOL0     C 5757   3.898   1.928  11.407  0.3422  0.0375  0.4625
  784MOL0     C 5758   3.848   1.794  11.405 -0.2964 -0.4775  0.7421
  784MOL0     C 5759   3.752   1.409  11.161  0.0804 -0.0948  0.4460
  784MOL0     C 5760   3.631   1.392  11.234  0.1095 -0.9641  0.4440
  784MOL0     C 5761   3.528   1.309  11.189 -0.4337  0.6383  0.0588
  784MOL0     C 5762   3.550   1.227  11.078  1.0568  0.8303  0.1502
  784MOL0     O 5763   3.459   1.126  11.036 -0.1858 -0.5691  0.1497
  784MOL0     C 5764   3.486   1.041  10.922  0.3414 -0.4357 -0.4706
  784MOL0     C 5765   3.584   0.935  10.963 -0.4765 -0.4612 -1.1961
  784MOL0     C 5766   3.677   0.871  10.850  0.5477 -0.8160 -1.0555
  784MOL0     C 5767   3.620   0.759  10.766  0.1137 -0.0275 -0.2185
  784MOL0     C 5768   3.497   0.793  10.703 -0.3639  0.2450  0.5842
  784MOL0     C 5769   3.403   0.827  10.639 -0.5138 -0.2204  0.4834
  784MOL0     C 5770   3.672   1.238  11.013  0.2546 -1.1060 -0.5362
  784MOL0     C 5771   3.775   1.324  11.049  0.1318 -0.5627 -0.0976
  784MOL0     C 5772   3.898   1.334  10.952 -0.2294 -0.3513 -0.9037
  784MOL0     H 5773   3.947   1.732  11.087 -0.5690  0.1815  0.3638
  784MOL0     H 5774   4.036   1.947  11.095 -2.0501  0.1078 -0.1553
  784MOL0     H 5775   4.198   2.061  11.214 -1.0542 -1.5503 -0.6103
  784MOL0     H 5776   4.068   2.153  11.136 -0.1685 -1.0329  0.3605
  784MOL0     H 5777   4.263   2.316  11.193  4.7116 -2.0020  2.4090
  784MOL0     H 5778   4.237   2.278  11.366  0.4968 -0.2041 -0.2637
  784MOL0     H 5779   4.028   2.358  11.367 -0.5352  1.2208  0.1461
  784MOL0     H 5780   4.018   2.383  11.200 -0.9198  0.5040  0.7476
  784MOL0     H 5781   4.253   2.544  11.312 -0.1663  2.2853 -0.7383
  784MOL0     H 5782   4.119   2.604  11.237 -0.6914  1.3195  0.8961
  784MOL0     H 5783   3.982   2.589  11.442  0.1395 -0.2371 -1.4079
  784MOL0     H 5784   4.134   2.530  11.525  0.6560  2.5152  2.1145
  784MOL0     H 5785   4.252   2.734  11.460 -0.2289 -0.2550 -0.2609
  784MOL0     H 5786   4.102   2.801  11.396  1.4747  0.7221 -0.1885
  784MOL0     H 5787   4.165   2.711  11.683 -0.6740  3.1201  2.9633
  784MOL0     H 5788   4.004   2.770  11.632 -1.2265  0.1644 -2.7574
  784MOL0     H 5789   4.124   2.973  11.549 -0.1077  2.7175  1.3763
  784MOL0     H 5790   4.107   2.956  11.723 -2.7950 -0.5213 -1.5066
  784MOL0     H 5791   4.331   2.908  11.865  0.1927  1.4825  0.2647
  784MOL0     H 5792   4.585   3.115  11.897 -1.9779 -0.9361 -0.0757
  784MOL0     H 5793   4.576   2.948  11.936 -2.1387  1.3947  1.0680
  784MOL0     H 5794   4.731   2.892  11.752 -1.0757 -0.1604  0.9337
  784MOL0     H 5795   4.743   3.063  11.721 -0.2110 -0.7884 -1.0197
  784MOL0     H 5796   4.825   3.092  11.958 -0.6482  1.9005 -2.0532
  784MOL0     H 5797   4.941   3.007  11.858 -0.0518  1.0621 -0.3260
  784MOL0     H 5798   4.823   2.796  11.943 -1.6298  1.2512 -0.6118
  784MOL0     H 5799   4.741   2.888  12.059 -2.7242 -1.3743 -3.1051
  784MOL0     H 5800   5.186   2.926  12.174 -0.7420  0.3904 -1.2730
  784MOL0     H 5801   5.383   2.828  12.093 -2.0370  0.1413  2.0775
  784MOL0     H 5802   5.746   2.884  11.870 -0.8419 -0.1608  1.1701
  784MOL0     H 5803   5.969   2.824  11.789 -0.4428  0.5476  1.6301
  784MOL0     H 5804   6.108   2.761  11.654 -2.2265  0.3968 -0.7521
  784MOL0     H 5805   6.209   2.615  11.627 -0.2868  0.8898 -1.0492
  784MOL0     H 5806   6.003   2.518  11.505  1.1787 -0.0034  1.0806
  784MOL0     H 5807   5.933   2.680  11.517 -0.0106 -0.7465 -0.4255
  784MOL0     H 5808   6.114   2.765  11.362  0.4357 -0.8384 -3.9122
  784MOL0     H 5809   6.194   2.608  11.400 -0.0492 -0.0273  1.0293
  784MOL0     H 5810   5.910   2.626  11.282 -0.1804  0.4937  1.5487
  784MOL0     H 5811   6.030   2.499  11.263  0.1127 -0.0787  2.7045
  784MOL0     H 5812   6.183   2.608  11.132  0.8452  2.5081 -0.1529
  784MOL0     H 5813   6.117   2.765  11.165 -1.6984  0.7185 -0.5012
  784MOL0     H 5814   6.009   2.548  10.975 -1.8278  0.4577 -1.5991
  784MOL0     H 5815   5.907   2.675  11.042  0.6747 -3.0890  1.9822
  784MOL0     H 5816   6.165   2.686  10.877  0.9108  3.1488 -1.0705
  784MOL0     H 5817   6.085   2.839  10.920 -0.6890 -0.1625  0.0583
  784MOL0     H 5818   6.053   2.760  10.695  0.3610  0.1557  0.7773
  784MOL0     H 5819   5.962   2.620  10.753  1.1084  0.3187 -3.0975
  784MOL0     H 5820   5.876   2.417  11.832  1.3960  0.3349 -1.0989
  784MOL0     H 5821   5.637   2.466  11.892  0.3686 -0.7944 -0.8900
  784MOL0     H 5822   5.184   2.643  11.768  1.2641  0.6889 -1.1774
  784MOL0     H 5823   4.975   2.734  11.842 -0.5712  2.7429 -0.1824
  784MOL0     H 5824   3.878   1.988  11.496 -1.5710  2.7797 -1.6246
  784MOL0     H 5825   3.804   1.747  11.493  1.3151  0.2434  1.9789
  784MOL0     H 5826   3.633   1.438  11.333 -0.6231  0.9579 -0.3968
  784MOL0     H 5827   3.435   1.290  11.243 -0.5252  0.3184 -0.2101
  784MOL0     H 5828   3.518   1.099  10.835  0.7700 -0.3684 -0.2702
  784MOL0     H 5829   3.391   0.991  10.900  0.3685 -0.3895 -0.6935
  784MOL0     H 5830   3.545   0.860  11.033  1.7505  2.2875  3.5043
  784MOL0     H 5831   3.657   0.977  11.033 -1.0142 -2.1407  0.4727
  784MOL0     H 5832   3.758   0.829  10.910 -1.2655 -1.3090  1.1413
  784MOL0     H 5833   3.715   0.943  10.776  0.1452  0.0730 -0.4114
  784MOL0     H 5834   3.697   0.738  10.691  0.4020 -0.3008  0.1447
  784MOL0     H 5835   3.601   0.672  10.830 -1.4128  0.6039  0.2264
  784MOL0     H 5836   3.311   0.847  10.589  1.2116 -0.2127 -3.0547
  784MOL0     H 5837   3.689   1.175  10.926 -0.8429 -0.4587 -1.2414
  784MOL0     H 5838   3.863   1.305  10.853  1.9255 -0.9666 -1.5311
  784MOL0     H 5839   3.930   1.439  10.946 -2.9963  0.8660  2.3334
  784MOL0     H 5840   3.983   1.270  10.978 -0.0319 -0.0705 -0.8509
  785MOL0     O 5841   7.815   0.491   1.393  0.4591 -0.4925 -0.5258
  785MOL0     C 5842   7.874   0.602   1.369 -0.1684  1.1577 -0.0229
  785MOL0     O 5843   7.996   0.645   1.433 -0.2963 -0.1746 -0.1110
  785MOL0     C 5844   8.070   0.555   1.512  0.6712 -0.0029 -0.7202
  785MOL0     C 5845   8.007   0.501   1.627  0.4740  0.0556  0.8586
  785MOL0     C 5846   8.079   0.415   1.710 -0.1072 -0.6583  0.2724
  785MOL0     C 5847   8.214   0.395   1.688  0.1292  0.4042 -0.1681
  785MOL0     O 5848   8.277   0.303   1.771 -0.3244 -0.7295 -0.1321
  785MOL0     C 5849   8.403   0.238   1.733  0.3254 -0.6374 -0.8871
  785MOL0     C 5850   8.501   0.331   1.795 -0.3829 -0.6158 -0.2106
  785MOL0     C 5851   8.640   0.284   1.756 -0.7598  0.0109  0.5716
  785MOL0     C 5852   8.672   0.332   1.606  0.7070 -0.0658  0.0931
  785MOL0     C 5853   8.815   0.309   1.559 -0.0992  0.9177  0.1231
  785MOL0     C 5854   8.912   0.426   1.583 -0.3587 -0.0418  0.2269
  785MOL0     C 5855   8.910   0.477   1.727  0.3477 -0.4471  0.0745
  785MOL0     C 5856   9.012   0.579   1.769  0.4700 -1.2971 -0.0661
  785MOL0     N 5857   9.149   0.549   1.742  0.1643 -0.6393  0.1271
  785MOL0     C 5858   9.216   0.441   1.792  0.6626  0.7504  0.4363
  785MOL0     C 5859   9.341   0.444   1.748 -0.0025 -0.1135  0.1483
  785MOL0     C 5860   9.453   0.343   1.766 -0.2706  0.2218  0.4129
  785MOL0     C 5861   9.481   0.313   1.914 -0.0446  0.3992 -0.3252
  785MOL0     C 5862   9.633   0.266   1.928 -0.0181 -0.3323 -0.3066
  785MOL0     C 5863   9.680   0.222   2.067  0.2026  0.0497  0.7834
  785MOL0     O 5864   9.820   0.229   2.082 -0.4397 -0.5112 -0.7364
  785MOL0     C 5865   9.888   0.141   2.000 -0.1735  0.5205 -1.0385
  785MOL0     C 5866  10.003   0.185   1.934  0.6214  0.5586 -0.3169
  785MOL0     C 5867  10.081   0.089   1.870  0.0140  0.2247 -0.2828
  785MOL0     C 5868  10.055  -0.045   1.848 -0.0461  0.4142 -0.4471
  785MOL0     C 5869  10.143  -0.140   1.788 -0.1334  0.6640  0.9137
  785MOL0     O 5870  10.266  -0.097   1.768  0.5688  0.6733  0.6344
  785MOL0     C 5871  10.372  -0.169   1.720  0.3361 -0.1446 -0.6143
  785MOL0     C 5872  10.369  -0.300   1.684 -0.6984  0.4917 -0.8558
  785MOL0     C 5873  10.489  -0.371   1.648 -0.0164  1.3262 -0.0143
  785MOL0     C 5874  10.615  -0.312   1.652 -0.2642 -0.0343  1.0615
  785MOL0     O 5875  10.725  -0.393   1.630  0.3929 -0.6677 -0.3681
  785MOL0     C 5876  10.851  -0.347   1.591 -0.4630  0.1374 -0.1563
  785MOL0     C 5877  10.940  -0.320   1.708 -0.0138  0.5226 -0.2998
  785MOL0     C 5878  11.049  -0.218   1.686  0.4024  0.0019 -0.1133
  785MOL0     C 5879  11.144  -0.261   1.572 -0.1837 -0.7561  0.3929
  785MOL0     C 5880  11.275  -0.183   1.563  0.2210  0.3419  0.7097
  785MOL0     C 5881  11.254  -0.036   1.534  0.3825 -0.1331  0.1713
  785MOL0     C 5882  11.383   0.035   1.482  0.4004  0.6428 -0.8022
  785MOL0     C 5883  11.499   0.043   1.575  0.6779  0.7847 -0.0987
  785MOL0    Cl 5884  11.581  -0.108   1.618 -0.2266  0.4878 -0.0346
  785MOL0     C 5885  10.613  -0.176   1.677  0.2116 -0.4636 -0.8759
  785MOL0     C 5886  10.498  -0.104   1.710  0.8493  0.1483  0.5273
  785MOL0     O 5887  10.098  -0.247   1.752 -0.0458  1.0714 -0.1014
  785MOL0     C 5888   9.941  -0.089   1.918 -0.5978  0.3713 -0.3346
  785MOL0     C 5889   9.861   0.002   1.991  0.8012  0.2939  0.5659
  785MOL0     N 5890   9.347   0.563   1.675  0.1924  0.4652 -0.7362
  785MOL0     N 5891   9.233   0.623   1.673  0.3735  0.8119 -0.0680
  785MOL0     C 5892   8.279   0.451   1.578  0.2871 -0.0058 -0.6712
  785MOL0     C 5893   8.204   0.525   1.483 -0.3222  0.4389 -0.2237
  785MOL0     C 5894   7.815   0.694   1.278  0.8000 -0.3820 -0.3080
  785MOL0     C 5895   7.679   0.713   1.294  0.0044  0.6644  0.1619
  785MOL0     C 5896   7.605   0.780   1.199 -0.9635  0.6102 -0.6796
  785MOL0     C 5897   7.672   0.828   1.080  0.6370  0.5891 -0.1448
  785MOL0     O 5898   7.606   0.902   0.987 -0.4635 -0.2011  0.5886
  785MOL0     C 5899   7.495   0.844   0.929 -0.2649 -0.1988  0.1664
  785MOL0     C 5900   7.519   0.845   0.775  0.6316  0.0135  0.8318
  785MOL0     C 5901   7.399   0.772   0.710 -0.2415  0.1120 -0.2616
  785MOL0     C 5902   7.426   0.734   0.561  0.1648  0.0070 -0.3352
  785MOL0     C 5903   7.300   0.690   0.509  0.5930 -0.3113 -0.2863
  785MOL0     C 5904   7.197   0.637   0.467  0.2977 -0.0714  0.9056
  785MOL0     C 5905   7.804   0.807   1.059 -0.4590  0.4826 -0.8373
  785MOL0     C 5906   7.879   0.744   1.160  0.0316  0.4494  0.1217
  785MOL0     C 5907   8.029   0.737   1.142  0.3591  0.1498  0.8818
  785MOL0     H 5908   7.901   0.523   1.644  0.2966  1.1306 -1.3114
  785MOL0     H 5909   8.022   0.374   1.792 -0.3586 -0.3232  0.2684
  785MOL0     H 5910   8.412   0.142   1.783 -1.1779 -0.8268 -0.9398
  785MOL0     H 5911   8.415   0.219   1.626 -2.0819  4.2965 -2.3549
  785MOL0     H 5912   8.487   0.319   1.903  4.2352 -0.5589  0.6126
  785MOL0     H 5913   8.486   0.436   1.768 -0.0654 -0.4582  0.2100
  785MOL0     H 5914   8.659   0.178   1.776  0.1900  0.1698  0.5602
  785MOL0     H 5915   8.708   0.335   1.825 -1.3102  0.9321  0.4506
  785MOL0     H 5916   8.611   0.282   1.531 -0.0843  2.3575 -0.9674
  785MOL0     H 5917   8.643   0.437   1.597  0.0881 -0.2146  0.3360
  785MOL0     H 5918   8.858   0.215   1.594  0.2313  0.5129 -1.3024
  785MOL0     H 5919   8.824   0.296   1.451 -0.5297  0.8795  0.0899
  785MOL0     H 5920   9.005   0.376   1.557 -1.6534 -1.9475 -1.0452
  785MOL0     H 5921   8.882   0.499   1.507 -1.3356 -0.9657 -0.3054
  785MOL0     H 5922   8.921   0.393   1.796  1.7514 -0.1254  0.2732
  785MOL0     H 5923   8.809   0.518   1.742  1.3751  1.6332  1.9130
  785MOL0     H 5924   8.990   0.673   1.717  0.1334 -0.3726  1.6807
  785MOL0     H 5925   8.998   0.608   1.873 -0.0044  0.4110 -0.5630
  785MOL0     H 5926   9.180   0.354   1.846  0.6275 -0.0267 -0.7981
  785MOL0     H 5927   9.431   0.250   1.714  3.9356  0.5908 -2.4529
  785MOL0     H 5928   9.541   0.385   1.717 -1.3291 -0.0629 -1.8503
  785MOL0     H 5929   9.472   0.400   1.979 -1.4267  1.4992 -1.9024
  785MOL0     H 5930   9.421   0.232   1.956  1.7712 -0.7191  0.2424
  785MOL0     H 5931   9.684   0.359   1.904 -1.5400  0.7072  0.3113
  785MOL0     H 5932   9.656   0.191   1.852  1.5667  0.7991 -0.9884
  785MOL0     H 5933   9.651   0.121   2.099  0.7445  0.1101  1.4873
  785MOL0     H 5934   9.630   0.294   2.132 -0.6498 -1.4513  1.8616
  785MOL0     H 5935  10.030   0.290   1.931  0.2439  0.6835  0.5261
  785MOL0     H 5936  10.166   0.134   1.820  0.3294  0.6892  0.6282
  785MOL0     H 5937  10.278  -0.358   1.698 -2.0791  2.2325 -2.1333
  785MOL0     H 5938  10.478  -0.477   1.630  2.4254  0.8910  0.6328
  785MOL0     H 5939  10.906  -0.419   1.529  2.0070 -1.3202  3.3916
  785MOL0     H 5940  10.828  -0.263   1.525 -0.4294 -0.5479 -1.0500
  785MOL0     H 5941  10.878  -0.287   1.792  2.3868  1.8187  1.1016
  785MOL0     H 5942  10.995  -0.411   1.734  0.8282  0.5551 -1.8584
  785MOL0     H 5943  11.002  -0.125   1.653  0.1179  0.5725  1.7982
  785MOL0     H 5944  11.111  -0.192   1.772  0.1461  0.1113  0.0378
  785MOL0     H 5945  11.091  -0.238   1.480 -0.0005  0.5626  0.6068
  785MOL0     H 5946  11.167  -0.368   1.580  1.6777 -0.6369 -2.1782
  785MOL0     H 5947  11.341  -0.218   1.483 -1.9219  0.4959 -1.2073
  785MOL0     H 5948  11.325  -0.200   1.659 -0.1905  1.2895  1.0985
  785MOL0     H 5949  11.173  -0.028   1.461 -0.5046  2.5758  1.3444
  785MOL0     H 5950  11.217   0.000   1.630  3.5651 -1.3344  1.9836
  785MOL0     H 5951  11.352   0.139   1.468  2.7441  1.5193 -0.0488
  785MOL0     H 5952  11.406  -0.015   1.387  0.7510 -3.7235  1.3167
  785MOL0     H 5953  11.575   0.103   1.525 -1.0994  2.1990 -1.2677
  785MOL0     H 5954  11.465   0.094   1.666 -1.4152  0.3185 -0.5584
  785MOL0     H 5955  10.708  -0.125   1.690 -1.5225  2.8694 -0.4156
  785MOL0     H 5956  10.508  -0.005   1.752  1.5007  0.1224  0.4428
  785MOL0     H 5957   9.910  -0.193   1.913 -2.3223  0.8748 -0.6590
  785MOL0     H 5958   9.784  -0.037   2.057  1.1052 -2.0871 -0.4015
  785MOL0     H 5959   8.383   0.433   1.552  0.0184  1.3997 -3.0296
  785MOL0     H 5960   8.250   0.551   1.388 -0.3480 -2.1024 -1.0180
  785MOL0     H 5961   7.631   0.671   1.382 -0.9467  1.8536  0.2188
  785MOL0     H 5962   7.498   0.793   1.201 -1.3391 -1.9180 -0.7540
  785MOL0     H 5963   7.407   0.902   0.957  0.1547 -0.1276  1.3722
  785MOL0     H 5964   7.483   0.739   0.958 -0.2004  0.3199  2.1895
  785MOL0     H 5965   7.611   0.786   0.762  0.3153 -0.4376  0.6353
  785MOL0     H 5966   7.531   0.947   0.737 -0.5736 -0.5696 -1.2691
  785MOL0     H 5967   7.309   0.835   0.702 -2.4087 -2.9327 -1.7604
  785MOL0     H 5968   7.377   0.679   0.762  3.9073 -0.1086  1.4465
  785MOL0     H 5969   7.452   0.815   0.492 -2.6789  1.9067  0.6664
  785MOL0     H 5970   7.504   0.659   0.549  1.8299  1.7653 -1.0339
  785MOL0     H 5971   7.101   0.602   0.435  1.1608 -0.0951 -1.9037
  785MOL0     H 5972   7.845   0.854   0.970 -0.2625  1.9364 -0.0082
  785MOL0     H 5973   8.066   0.638   1.170  1.1418  0.1955  0.0675
  785MOL0     H 5974   8.062   0.753   1.039 -2.4643 -0.3234 -0.1852
  785MOL0     H 5975   8.078   0.798   1.219  1.5067  1.5656 -0.8651
  786MOL0     O 5976   0.002   4.560   5.885  0.2484 -0.9661 -0.2480
  786MOL0     C 5977   0.057   4.639   5.959  0.2067  0.3110 -0.3642
  786MOL0     O 5978  -0.004   4.703   6.069  0.4248 -0.5565 -1.0078
  786MOL0     C 5979  -0.143   4.709   6.088 -0.2466 -0.5287  0.1042
  786MOL0     C 5980  -0.185   4.746   6.214  0.6849  0.0366  0.5548
  786MOL0     C 5981  -0.323   4.766   6.243 -0.3433 -0.0554 -0.3108
  786MOL0     C 5982  -0.423   4.742   6.152  0.2018  0.6772  0.3929
  786MOL0     O 5983  -0.558   4.747   6.174 -0.0777 -0.1743 -0.4746
  786MOL0     C 5984  -0.608   4.855   6.253  0.4026  0.1895 -0.3096
  786MOL0     C 5985  -0.760   4.865   6.240 -0.1689  0.0320  0.7816
  786MOL0     C 5986  -0.809   4.856   6.094  0.0831 -0.2591  0.3890
  786MOL0     C 5987  -0.958   4.893   6.083 -1.0802  0.4062 -0.0472
  786MOL0     C 5988  -1.049   4.835   6.184 -0.4824  0.2834  0.3748
  786MOL0     C 5989  -1.186   4.884   6.158  0.3469  0.1051  0.1039
  786MOL0     C 5990  -1.287   4.834   6.259  0.3655  0.5835  0.5529
  786MOL0     C 5991  -1.426   4.891   6.227  0.5856  0.0398  0.2389
  786MOL0     N 5992  -1.535   4.821   6.301 -0.2415 -0.4963 -0.5129
  786MOL0     C 5993  -1.583   4.846   6.431  0.5611  0.2268  0.0649
  786MOL0     C 5994  -1.706   4.789   6.448 -0.5446 -0.7959  0.0316
  786MOL0     C 5995  -1.787   4.793   6.565 -0.6077 -0.3811 -0.3119
  786MOL0     C 5996  -1.883   4.907   6.559  0.0916 -0.0762  0.2869
  786MOL0     C 5997  -1.970   4.914   6.696 -0.1857  0.3610  0.3410
  786MOL0     C 5998  -1.881   4.925   6.816 -0.4147  0.3211  0.1932
  786MOL0     O 5999  -1.766   5.009   6.788  0.0453  0.1990  0.6333
  786MOL0     C 6000  -1.652   5.007   6.874 -0.5046  0.2020 -0.1629
  786MOL0     C 6001  -1.659   4.989   7.015  0.5797 -0.1931  0.7840
  786MOL0     C 6002  -1.541   4.988   7.094  0.5088  0.4235  0.6099
  786MOL0     C 6003  -1.416   4.999   7.034 -0.5963 -0.6339  0.0110
  786MOL0     C 6004  -1.291   5.001   7.116 -0.3705  1.1545  0.3779
  786MOL0     O 6005  -1.179   4.980   7.041  1.1229 -0.2534 -0.4302
  786MOL0     C 6006  -1.059   4.985   7.109  0.2807 -0.5358 -0.0101
  786MOL0     C 6007  -0.976   5.099   7.099 -1.1746  0.1933 -1.0217
  786MOL0     C 6008  -0.856   5.106   7.171 -0.2583 -0.5711  0.7183
  786MOL0     C 6009  -0.821   5.009   7.256  0.0943  0.7063 -0.1196
  786MOL0     O 6010  -0.700   5.028   7.318  0.0515  0.1268 -0.3610
  786MOL0     C 6011  -0.620   4.908   7.337  0.2585 -0.5117  0.0846
  786MOL0     C 6012  -0.493   4.942   7.420 -0.9528  0.2961  0.8037
  786MOL0     C 6013  -0.385   4.835   7.394 -0.3067 -0.0584  0.5999
  786MOL0     C 6014  -0.244   4.878   7.454 -0.2939 -0.2331  0.1295
  786MOL0     C 6015  -0.127   4.805   7.390 -0.4525 -0.9588  0.0700
  786MOL0     C 6016  -0.120   4.837   7.235 -0.1767  0.2023  1.2500
  786MOL0     C 6017   0.019   4.811   7.187  0.2515 -0.1533 -0.1463
  786MOL0     C 6018   0.093   4.943   7.180 -0.5123  0.3278 -0.6742
  786MOL0    Cl 6019   0.203   4.956   7.314 -0.1302  0.0241 -0.3932
  786MOL0     C 6020  -0.902   4.891   7.266 -0.4383 -0.3765  0.6569
  786MOL0     C 6021  -1.019   4.883   7.195 -0.4040  0.3530 -0.2026
  786MOL0     O 6022  -1.296   5.041   7.234 -0.1206 -0.4394  0.2681
  786MOL0     C 6023  -1.404   5.021   6.894  0.3359  0.2880 -0.1747
  786MOL0     C 6024  -1.519   5.021   6.815  0.4463 -0.0039  0.0043
  786MOL0     N 6025  -1.718   4.706   6.335  0.2345 -0.3316  0.4935
  786MOL0     N 6026  -1.630   4.735   6.250  0.1423 -0.2792  0.2280
  786MOL0     C 6027  -0.386   4.693   6.025  0.0881 -0.8619  0.0801
  786MOL0     C 6028  -0.246   4.681   5.991 -0.6894  0.8592 -0.1675
  786MOL0     C 6029   0.203   4.676   5.935  0.6650  0.4819 -0.1465
  786MOL0     C 6030   0.264   4.764   6.031  0.1653  0.4806 -0.7798
  786MOL0     C 6031   0.399   4.795   6.027 -0.2722  0.6683 -0.2239
  786MOL0     C 6032   0.481   4.742   5.923 -0.1343 -0.4792  0.5136
  786MOL0     O 6033   0.614   4.785   5.916  0.1346 -0.1272 -0.3794
  786MOL0     C 6034   0.689   4.785   5.793 -0.3822 -0.0723  0.8509
  786MOL0     C 6035   0.804   4.876   5.815  0.7926  0.1186 -0.6322
  786MOL0     C 6036   0.896   4.843   5.927 -0.0317  0.3462 -0.6566
  786MOL0     C 6037   1.013   4.935   5.931  0.2865  0.7808 -0.2139
  786MOL0     C 6038   1.108   4.895   6.032  0.2179  0.5392 -0.3238
  786MOL0     C 6039   1.201   4.869   6.108 -0.6020 -0.3991 -1.1064
  786MOL0     C 6040   0.421   4.660   5.826 -0.6056 -1.1731 -0.3924
  786MOL0     C 6041   0.288   4.626   5.830 -0.2027 -0.0185 -0.6137
  786MOL0     C 6042   0.250   4.527   5.723  0.5187  0.2624  0.0293
  786MOL0     H 6043  -0.124   4.793   6.291  0.4673  0.4272  0.4940
  786MOL0     H 6044  -0.350   4.810   6.338  3.4223  0.7980  0.5591
  786MOL0     H 6045  -0.583   4.831   6.357 -1.2714 -2.4634 -0.4200
  786MOL0     H 6046  -0.549   4.945   6.235  0.8054  0.6104  2.6932
  786MOL0     H 6047  -0.795   4.961   6.280 -0.4375  1.8700 -3.2767
  786MOL0     H 6048  -0.804   4.780   6.292 -0.9565 -0.3593 -0.4775
  786MOL0     H 6049  -0.791   4.756   6.056 -3.4234 -0.3843 -1.3374
  786MOL0     H 6050  -0.751   4.924   6.031  0.3598  0.7372  1.6608
  786MOL0     H 6051  -0.960   5.002   6.080 -0.3031  0.4247 -2.4668
  786MOL0     H 6052  -0.982   4.857   5.982 -1.0134 -1.3749  0.5406
  786MOL0     H 6053  -1.038   4.727   6.171 -0.0536  0.6881 -4.1901
  786MOL0     H 6054  -1.013   4.859   6.285 -1.0622  2.2186  0.1594
  786MOL0     H 6055  -1.187   4.994   6.160  3.5055  0.2433 -0.7542
  786MOL0     H 6056  -1.206   4.853   6.055  2.3814 -1.0774  0.0216
  786MOL0     H 6057  -1.243   4.859   6.356  3.8301  0.5641 -0.8541
  786MOL0     H 6058  -1.295   4.725   6.252  0.4089  0.5992  0.2624
  786MOL0     H 6059  -1.440   4.996   6.255  2.4391  0.1949  0.6799
  786MOL0     H 6060  -1.444   4.867   6.122 -0.2295  0.4939  0.2619
  786MOL0     H 6061  -1.528   4.913   6.496 -0.7095  0.2090  1.2011
  786MOL0     H 6062  -1.840   4.698   6.572  0.5300 -0.9711  0.5819
  786MOL0     H 6063  -1.717   4.797   6.649 -1.6188  0.4328  0.5272
  786MOL0     H 6064  -1.845   5.008   6.539 -0.3914 -0.2373 -1.6318
  786MOL0     H 6065  -1.954   4.893   6.477  0.7969 -1.3916 -0.1346
  786MOL0     H 6066  -2.026   4.822   6.714  2.5404 -2.0498 -2.3947
  786MOL0     H 6067  -2.036   5.001   6.695  0.2691  0.7229 -1.6906
  786MOL0     H 6068  -1.853   4.828   6.859  1.0324 -0.5134 -2.4478
  786MOL0     H 6069  -1.934   4.973   6.899 -0.0340 -0.0618  0.6706
  786MOL0     H 6070  -1.759   4.968   7.051 -0.0880 -1.8523 -1.7976
  786MOL0     H 6071  -1.544   4.969   7.201  2.4402 -3.5793  0.1588
  786MOL0     H 6072  -1.016   5.187   7.048 -2.1282 -0.0476 -0.7087
  786MOL0     H 6073  -0.797   5.197   7.171 -3.7591  1.9394  1.6668
  786MOL0     H 6074  -0.676   4.832   7.393 -2.3533 -0.7691 -2.5976
  786MOL0     H 6075  -0.610   4.860   7.239 -2.2516  1.5078 -1.3172
  786MOL0     H 6076  -0.454   5.043   7.402 -2.1399  1.1543  2.6592
  786MOL0     H 6077  -0.513   4.935   7.528 -0.9750 -0.6684  0.7422
  786MOL0     H 6078  -0.431   4.741   7.426  1.3649 -1.6920 -1.4476
  786MOL0     H 6079  -0.381   4.827   7.285  0.3925  1.6925  0.4696
  786MOL0     H 6080  -0.251   4.858   7.561  1.5729  0.5704  0.4382
  786MOL0     H 6081  -0.238   4.987   7.445  1.2354 -0.1002  2.1311
  786MOL0     H 6082  -0.128   4.696   7.400 -0.0606 -0.8054  2.4292
  786MOL0     H 6083  -0.032   4.836   7.434  0.7320 -0.4476 -2.6562
  786MOL0     H 6084  -0.192   4.770   7.188 -0.7614  0.8026  1.2628
  786MOL0     H 6085  -0.136   4.943   7.212  2.7787  0.6900  1.0347
  786MOL0     H 6086   0.031   4.767   7.088  1.3267 -0.5183  0.1277
  786MOL0     H 6087   0.073   4.736   7.246  0.0329 -2.1066 -2.2781
  786MOL0     H 6088   0.154   4.956   7.090 -0.0430  4.6892  0.0735
  786MOL0     H 6089   0.029   5.031   7.176  0.7273  1.2715 -0.3128
  786MOL0     H 6090  -0.884   4.809   7.336 -2.8619 -1.1879  0.4343
  786MOL0     H 6091  -1.087   4.800   7.214  1.2707 -1.0662 -0.1329
  786MOL0     H 6092  -1.303   5.037   6.857  0.8415  2.3534  1.8472
  786MOL0     H 6093  -1.521   5.041   6.708 -3.4795 -1.0110 -0.2619
  786MOL0     H 6094  -0.473   4.686   5.961 -0.3701 -1.8825  0.7995
  786MOL0     H 6095  -0.223   4.638   5.894 -3.6557 -0.6837 -0.2990
  786MOL0     H 6096   0.205   4.794   6.117  0.3323  0.0690 -0.5161
  786MOL0     H 6097   0.440   4.862   6.102 -1.9195  3.0804 -1.3490
  786MOL0     H 6098   0.629   4.824   5.711  2.7591 -0.2050 -1.6869
  786MOL0     H 6099   0.717   4.683   5.765 -1.1038 -0.2438  0.7295
  786MOL0     H 6100   0.764   4.977   5.831  2.3863  0.4811  1.4690
  786MOL0     H 6101   0.859   4.880   5.720  1.4898 -2.4034 -0.4148
  786MOL0     H 6102   0.936   4.742   5.921  1.0683  0.6750  0.7091
  786MOL0     H 6103   0.837   4.854   6.019 -2.9712  0.6076 -2.4351
  786MOL0     H 6104   1.057   4.936   5.831 -0.8680 -1.3042 -0.7849
  786MOL0     H 6105   0.975   5.032   5.966  0.1744  1.1391 -1.2845
  786MOL0     H 6106   1.282   4.857   6.177  0.1345  1.4946 -1.5808
  786MOL0     H 6107   0.484   4.623   5.746 -1.3432 -1.3117 -0.9198
  786MOL0     H 6108   0.207   4.438   5.769  2.0606 -0.8223 -0.5567
  786MOL0     H 6109   0.189   4.572   5.643  0.0946  1.0097  0.7531
  786MOL0     H 6110   0.335   4.488   5.666 -1.6126 -0.6931 -2.7222
  787MOL0     O 6111   6.828   1.869   3.346  0.0907  0.3998 -0.6932
  787MOL0     C 6112   6.718   1.815   3.370 -0.5758  0.6803 -0.1100
  787MOL0     O 6113   6.697   1.691   3.420  0.0957  0.5779 -0.9029
  787MOL0     C 6114   6.794   1.605   3.465  0.2940 -0.1251  0.1866
  787MOL0     C 6115   6.923   1.637   3.492 -0.8588 -0.4194 -0.6864
  787MOL0     C 6116   7.021   1.538   3.514 -0.9389 -0.2909 -0.0268
  787MOL0     C 6117   6.977   1.410   3.538  0.2174 -0.2057 -0.1892
  787MOL0     O 6118   7.066   1.317   3.597 -1.3725 -0.4204 -0.6298
  787MOL0     C 6119   7.147   1.251   3.496 -0.0855  0.6112  0.3935
  787MOL0     C 6120   7.292   1.212   3.537 -0.1736  0.1116  0.1895
  787MOL0     C 6121   7.307   1.130   3.666  0.0303  0.1098 -0.5800
  787MOL0     C 6122   7.453   1.114   3.717  0.2968  0.5026  0.2179
  787MOL0     C 6123   7.470   1.049   3.854 -1.1737  0.1124 -0.3576
  787MOL0     C 6124   7.606   1.074   3.904 -0.7307  0.8309  0.1901
  787MOL0     C 6125   7.652   0.965   4.004  0.4737 -0.3263 -0.2992
  787MOL0     C 6126   7.776   1.020   4.086  0.6047  0.6097 -0.1710
  787MOL0     N 6127   7.894   1.009   3.998  0.1709 -0.4345 -0.7072
  787MOL0     C 6128   7.938   1.117   3.926 -0.7243  0.2345  0.0141
  787MOL0     C 6129   8.035   1.064   3.858 -0.6109  0.1541 -0.7604
  787MOL0     C 6130   8.139   1.130   3.782  0.4852  0.2257 -1.1014
  787MOL0     C 6131   8.110   1.161   3.628  0.4841 -0.6001 -0.3539
  787MOL0     C 6132   8.237   1.238   3.581  0.4493 -0.5774 -0.2739
  787MOL0     C 6133   8.363   1.154   3.561  0.4794 -0.7189 -0.6482
  787MOL0     O 6134   8.457   1.257   3.531 -0.3955  0.4341 -0.0893
  787MOL0     C 6135   8.590   1.223   3.497 -0.0268  0.2530 -0.5414
  787MOL0     C 6136   8.636   1.089   3.502 -0.9869  0.3624  0.0150
  787MOL0     C 6137   8.771   1.063   3.462  0.1403 -0.1231  0.0312
  787MOL0     C 6138   8.853   1.158   3.403 -0.8323  0.1671 -0.0116
  787MOL0     C 6139   8.988   1.129   3.354  0.8525 -0.0191 -0.2066
  787MOL0     O 6140   9.069   1.234   3.331  0.0541  0.1644  0.1139
  787MOL0     C 6141   9.197   1.208   3.296 -0.3020 -0.3628 -0.7426
  787MOL0     C 6142   9.294   1.246   3.390  0.6853 -0.2595  0.0714
  787MOL0     C 6143   9.427   1.251   3.355 -1.2868  1.3895  0.6438
  787MOL0     C 6144   9.473   1.212   3.230  0.1449 -0.3073  0.4665
  787MOL0     O 6145   9.602   1.218   3.185  0.0350 -0.3351  0.9967
  787MOL0     C 6146   9.705   1.266   3.277  0.2181 -0.0325  0.0519
  787MOL0     C 6147   9.855   1.249   3.236  0.0168  0.7053  0.1167
  787MOL0     C 6148   9.949   1.261   3.357  0.1678  0.4946 -0.4112
  787MOL0     C 6149  10.087   1.310   3.311 -0.6213 -0.0397 -0.2575
  787MOL0     C 6150  10.200   1.295   3.422  0.5426 -0.2705 -0.2908
  787MOL0     C 6151  10.341   1.326   3.375 -0.3490 -0.3922 -0.2361
  787MOL0     C 6152  10.435   1.283   3.477 -0.4701  0.1334  0.2923
  787MOL0     C 6153  10.584   1.254   3.442  0.5037  0.0776  0.0811
  787MOL0    Cl 6154  10.644   1.397   3.367 -0.2191 -0.2557  0.0793
  787MOL0     C 6155   9.372   1.162   3.145 -0.0807 -0.1638 -0.9101
  787MOL0     C 6156   9.238   1.160   3.175 -0.1498  0.0805 -0.2658
  787MOL0     O 6157   9.019   1.008   3.348  0.1084 -0.3013  0.0208
  787MOL0     C 6158   8.791   1.289   3.388  0.4746 -0.1742  1.0212
  787MOL0     C 6159   8.671   1.323   3.451 -0.2814  0.1296  0.1328
  787MOL0     N 6160   8.056   0.933   3.888 -0.1808 -0.4850 -0.3133
  787MOL0     N 6161   7.960   0.893   3.968 -0.6319 -0.0353 -0.7214
  787MOL0     C 6162   6.850   1.376   3.515 -0.4603 -0.9458  0.1134
  787MOL0     C 6163   6.762   1.469   3.467 -0.0794  0.1862 -0.2777
  787MOL0     C 6164   6.594   1.894   3.332  0.2278  0.2366 -0.7573
  787MOL0     C 6165   6.474   1.824   3.330 -0.4713 -0.1360  0.3565
  787MOL0     C 6166   6.349   1.883   3.308 -0.6583  0.3784  0.1490
  787MOL0     C 6167   6.348   2.018   3.293 -0.3041 -0.4508 -0.4961
  787MOL0     O 6168   6.229   2.063   3.248  0.7654  0.4516  0.2266
  787MOL0     C 6169   6.212   2.199   3.237  0.9007 -0.7527 -0.2491
  787MOL0     C 6170   6.072   2.245   3.192 -0.6668  0.0902 -1.1994
  787MOL0     C 6171   5.970   2.137   3.237 -0.0340  0.4524 -0.4102
  787MOL0     C 6172   5.828   2.191   3.217  0.7692 -0.7546 -0.6186
  787MOL0     C 6173   5.726   2.092   3.232 -1.2729 -0.1919 -0.3812
  787MOL0     C 6174   5.638   2.012   3.225  0.4702 -0.6229  0.2276
  787MOL0     C 6175   6.471   2.097   3.297  0.0597 -0.3202 -0.3590
  787MOL0     C 6176   6.600   2.036   3.317  1.0530 -0.1082 -0.3478
  787MOL0     C 6177   6.721   2.118   3.310 -0.4831 -0.1783 -0.1273
  787MOL0     H 6178   6.951   1.741   3.487 -0.2545 -0.5304  0.1961
  787MOL0     H 6179   7.129   1.550   3.518 -0.5787 -3.0570  1.1179
  787MOL0     H 6180   7.092   1.160   3.472 -1.0362  0.6738  2.1707
  787MOL0     H 6181   7.149   1.320   3.411 -2.3194 -0.8284 -0.9281
  787MOL0     H 6182   7.347   1.304   3.558 -0.0463  0.0446  0.1563
  787MOL0     H 6183   7.339   1.156   3.455  0.7125 -0.3910  1.0241
  787MOL0     H 6184   7.258   1.032   3.660 -1.7204  1.0503 -3.5359
  787MOL0     H 6185   7.269   1.193   3.746  2.6459 -0.6053  1.3684
  787MOL0     H 6186   7.512   1.060   3.642 -0.0933  1.2680 -0.6719
  787MOL0     H 6187   7.497   1.214   3.726 -1.3645  1.1399  1.7300
  787MOL0     H 6188   7.405   1.098   3.927  0.1588  0.5007  0.5982
  787MOL0     H 6189   7.451   0.941   3.860 -0.0562 -0.0582  0.4601
  787MOL0     H 6190   7.670   1.070   3.816 -0.9618 -1.2445  0.0543
  787MOL0     H 6191   7.608   1.173   3.950 -2.0512  0.5506  0.9204
  787MOL0     H 6192   7.676   0.869   3.958  1.1236  0.4005 -1.5365
  787MOL0     H 6193   7.568   0.958   4.073 -0.3404 -0.3962 -1.2792
  787MOL0     H 6194   7.743   1.119   4.120  1.3713  0.1328  2.1597
  787MOL0     H 6195   7.787   0.956   4.174  1.0140 -0.8786 -1.2712
  787MOL0     H 6196   7.896   1.217   3.930 -3.8865 -0.9973  0.1297
  787MOL0     H 6197   8.174   1.215   3.840 -0.8656  0.2703 -0.3133
  787MOL0     H 6198   8.225   1.062   3.786 -0.0178 -0.3537  0.6423
  787MOL0     H 6199   8.103   1.077   3.558 -1.0209 -1.8126  1.1614
  787MOL0     H 6200   8.015   1.214   3.626 -1.3044 -3.4230  1.6001
  787MOL0     H 6201   8.253   1.327   3.642 -3.1750  0.1623 -0.1504
  787MOL0     H 6202   8.210   1.288   3.487 -1.5199  1.0183  1.0493
  787MOL0     H 6203   8.341   1.073   3.490 -3.3870  0.2919 -0.8428
  787MOL0     H 6204   8.408   1.108   3.649  0.4687  0.2613 -0.1111
  787MOL0     H 6205   8.576   1.004   3.533  0.2185 -0.0063  1.4490
  787MOL0     H 6206   8.809   0.962   3.473  0.0718 -0.0761  0.7078
  787MOL0     H 6207   9.260   1.284   3.486  1.7533  0.0498  0.3485
  787MOL0     H 6208   9.496   1.279   3.434  0.4050 -0.1458 -0.1983
  787MOL0     H 6209   9.691   1.374   3.289  1.4385  0.3249 -1.5281
  787MOL0     H 6210   9.699   1.211   3.372  0.4140 -2.3941 -1.2429
  787MOL0     H 6211   9.869   1.163   3.170 -2.1167 -0.8333  1.5272
  787MOL0     H 6212   9.873   1.336   3.173  0.3783  0.8321  0.3896
  787MOL0     H 6213   9.906   1.314   3.442 -1.9115 -0.7509 -0.5970
  787MOL0     H 6214   9.962   1.160   3.397  2.5071  2.1980  3.6872
  787MOL0     H 6215  10.088   1.418   3.290  3.2885 -0.0862 -1.0497
  787MOL0     H 6216  10.125   1.261   3.221  1.1359 -0.6233  0.7500
  787MOL0     H 6217  10.200   1.194   3.464  0.2937 -0.4746 -0.7627
  787MOL0     H 6218  10.176   1.356   3.509  1.3480 -1.5211  0.8438
  787MOL0     H 6219  10.357   1.257   3.292 -2.4539  0.7848 -1.7227
  787MOL0     H 6220  10.370   1.426   3.341  1.2104 -0.7109  0.0879
  787MOL0     H 6221  10.400   1.196   3.533  0.2362 -0.0907  0.3992
  787MOL0     H 6222  10.443   1.363   3.551  2.7920 -0.4191  0.6825
  787MOL0     H 6223  10.629   1.228   3.539  0.5888 -0.3213 -0.0632
  787MOL0     H 6224  10.599   1.169   3.375  1.6084 -1.3307  2.0269
  787MOL0     H 6225   9.415   1.139   3.049  0.6507  2.2862 -1.2471
  787MOL0     H 6226   9.164   1.132   3.101 -0.4982  0.6722 -0.1443
  787MOL0     H 6227   8.846   1.367   3.336 -0.9255 -0.2097 -0.5892
  787MOL0     H 6228   8.638   1.427   3.450  0.6909  0.4846  1.6267
  787MOL0     H 6229   6.817   1.273   3.524 -1.4068 -0.7306 -0.7037
  787MOL0     H 6230   6.659   1.435   3.453  0.4575 -2.1901  0.8929
  787MOL0     H 6231   6.474   1.717   3.345  1.4013 -0.1852  0.1961
  787MOL0     H 6232   6.262   1.819   3.301  0.2875 -0.8398 -0.7131
  787MOL0     H 6233   6.285   2.255   3.179  1.4047 -1.1998 -0.0628
  787MOL0     H 6234   6.214   2.235   3.340  0.3294  0.4852 -0.6590
  787MOL0     H 6235   6.082   2.256   3.084 -2.4612 -0.3310 -1.4414
  787MOL0     H 6236   6.055   2.346   3.232  4.4770  0.8916 -0.3399
  787MOL0     H 6237   5.979   2.107   3.342  1.3925 -0.4300 -0.7458
  787MOL0     H 6238   5.990   2.045   3.181  0.6530 -0.1877  0.8386
  787MOL0     H 6239   5.802   2.272   3.285 -2.4288 -1.1354 -1.2475
  787MOL0     H 6240   5.812   2.240   3.120  1.6002  0.6779 -0.0602
  787MOL0     H 6241   5.554   1.954   3.194 -0.4096  1.6599 -2.0266
  787MOL0     H 6242   6.474   2.203   3.276  3.3979  0.3156  2.3582
  787MOL0     H 6243   6.774   2.101   3.404 -0.4775 -2.5417 -0.4829
  787MOL0     H 6244   6.785   2.096   3.224 -0.1586  2.7708 -0.7464
  787MOL0     H 6245   6.698   2.225   3.304  1.2227  0.2170 -0.2383
  788MOL0     O 6246   5.911   7.149   4.849 -0.1410  0.0941  0.0851
  788MOL0     C 6247   5.909   7.270   4.866  0.8266  0.0348  0.7018
  788MOL0     O 6248   6.018   7.353   4.863 -0.0625  0.9026 -0.9307
  788MOL0     C 6249   6.145   7.315   4.836 -1.6135 -0.2922  0.2683
  788MOL0     C 6250   6.244   7.407   4.875 -0.8504  0.1345  0.3259
  788MOL0     C 6251   6.377   7.374   4.857 -0.2741  0.3219  0.0660
  788MOL0     C 6252   6.413   7.251   4.798 -0.8272 -0.6630 -0.0184
  788MOL0     O 6253   6.540   7.206   4.773 -0.5963 -0.3427 -0.4527
  788MOL0     C 6254   6.644   7.297   4.725 -0.2182 -0.3041 -0.8966
  788MOL0     C 6255   6.747   7.214   4.639  0.5612  0.3780  0.3915
  788MOL0     C 6256   6.850   7.307   4.564 -0.4658  0.2902  0.0809
  788MOL0     C 6257   6.983   7.237   4.515  0.2138  0.8358  0.2233
  788MOL0     C 6258   7.085   7.331   4.467 -0.7770 -0.5976 -0.5952
  788MOL0     C 6259   7.203   7.256   4.411 -0.3973 -0.5312 -0.3381
  788MOL0     C 6260   7.328   7.341   4.385  0.2010  0.4032 -0.3009
  788MOL0     C 6261   7.449   7.253   4.347  0.0599 -0.1539 -0.2920
  788MOL0     N 6262   7.561   7.323   4.286  0.5245  0.2582  0.6460
  788MOL0     C 6263   7.663   7.383   4.358  0.0198 -0.1765  1.0015
  788MOL0     C 6264   7.757   7.422   4.264  0.2590  0.2582  0.5041
  788MOL0     C 6265   7.890   7.483   4.266 -0.0318 -0.2127  0.4578
  788MOL0     C 6266   8.001   7.410   4.340 -0.9564 -0.9192  0.5798
  788MOL0     C 6267   8.039   7.274   4.283 -1.1177  0.2048  0.8814
  788MOL0     C 6268   8.167   7.214   4.332  0.2616 -0.2786  0.1369
  788MOL0     O 6269   8.168   7.094   4.257 -0.8108  0.3269 -0.3888
  788MOL0     C 6270   8.269   6.993   4.271 -1.0914 -0.1983 -0.1497
  788MOL0     C 6271   8.341   6.979   4.391 -0.3178  0.1557  0.5248
  788MOL0     C 6272   8.445   6.879   4.391  0.0119  0.5376 -0.2290
  788MOL0     C 6273   8.465   6.789   4.286 -0.1790  0.6814  0.4603
  788MOL0     C 6274   8.573   6.685   4.279 -0.0122  0.6867  0.8810
  788MOL0     O 6275   8.598   6.623   4.151  0.8417 -0.0086 -0.3302
  788MOL0     C 6276   8.677   6.517   4.135  0.0544 -0.3350 -0.0294
  788MOL0     C 6277   8.803   6.511   4.183  0.2270 -0.5673  0.4209
  788MOL0     C 6278   8.887   6.407   4.148 -0.2232 -0.1341  0.8612
  788MOL0     C 6279   8.841   6.307   4.060  0.3670  0.4043  1.4161
  788MOL0     O 6280   8.925   6.208   4.014  0.0686  1.0489 -0.4798
  788MOL0     C 6281   8.898   6.142   3.889 -0.5244  0.7655  0.1405
  788MOL0     C 6282   9.010   6.040   3.872 -0.5368  0.1942  0.9016
  788MOL0     C 6283   9.066   6.025   3.730  0.7760 -0.3117 -0.2698
  788MOL0     C 6284   9.199   5.942   3.731  0.2670 -0.5089  0.8563
  788MOL0     C 6285   9.249   5.913   3.590 -0.3800 -0.1600  0.1203
  788MOL0     C 6286   9.374   5.822   3.578 -0.3834 -0.5903 -0.2427
  788MOL0     C 6287   9.433   5.823   3.437  0.5722  0.3286  0.1414
  788MOL0     C 6288   9.562   5.735   3.431 -1.0460 -0.4441 -0.6326
  788MOL0    Cl 6289   9.687   5.814   3.541 -0.0392  0.2345  0.2357
  788MOL0     C 6290   8.716   6.321   4.000 -0.0289 -0.2113  0.2939
  788MOL0     C 6291   8.632   6.424   4.039  0.8173  0.3040 -0.4490
  788MOL0     O 6292   8.620   6.651   4.387 -0.8285  0.0953 -0.0631
  788MOL0     C 6293   8.391   6.813   4.169 -0.5343 -0.1509 -0.1176
  788MOL0     C 6294   8.289   6.910   4.166 -0.0223 -0.2615 -0.0207
  788MOL0     N 6295   7.700   7.377   4.140  0.0664  0.3433  0.6634
  788MOL0     N 6296   7.585   7.316   4.150 -0.9082 -0.3340  0.4269
  788MOL0     C 6297   6.315   7.166   4.753  0.1379 -0.6188 -0.3421
  788MOL0     C 6298   6.187   7.204   4.766 -0.0817  0.0732  0.0486
  788MOL0     C 6299   5.787   7.342   4.884 -0.5677 -0.2784  0.0487
  788MOL0     C 6300   5.785   7.481   4.862 -0.3208 -0.1412 -0.3155
  788MOL0     C 6301   5.686   7.569   4.908  0.4576  0.3196  0.0380
  788MOL0     C 6302   5.581   7.523   4.973  0.2476  0.0688 -0.1538
  788MOL0     O 6303   5.493   7.608   5.030 -0.2571 -0.5085  0.3188
  788MOL0     C 6304   5.395   7.564   5.127 -0.1715 -0.5715 -0.1177
  788MOL0     C 6305   5.273   7.532   5.052 -0.3864  0.2367  0.7360
  788MOL0     C 6306   5.166   7.506   5.155 -0.0489  0.0136 -1.3764
  788MOL0     C 6307   5.032   7.468   5.097 -0.1993 -0.2768  0.0190
  788MOL0     C 6308   4.945   7.425   5.204  0.1918  0.2603 -0.0653
  788MOL0     C 6309   4.878   7.389   5.298 -0.7637  0.1890  0.1142
  788MOL0     C 6310   5.578   7.384   4.992 -0.2655  0.0959  0.0148
  788MOL0     C 6311   5.679   7.293   4.948 -0.5352 -0.0560  0.1728
  788MOL0     C 6312   5.668   7.142   4.978 -0.3475  0.9910  0.2185
  788MOL0     H 6313   6.233   7.502   4.925  0.8637  1.6300 -1.9526
  788MOL0     H 6314   6.453   7.443   4.893  1.1470 -1.1244 -0.0417
  788MOL0     H 6315   6.596   7.384   4.679 -0.1185 -0.5280 -1.4274
  788MOL0     H 6316   6.693   7.337   4.814 -0.7886 -0.3657 -0.5422
  788MOL0     H 6317   6.701   7.152   4.562 -2.3103  0.8581  1.5819
  788MOL0     H 6318   6.801   7.150   4.708  0.5289  0.0950  0.1529
  788MOL0     H 6319   6.884   7.386   4.631  0.8262 -0.2263  0.0610
  788MOL0     H 6320   6.801   7.354   4.479 -1.1912  3.7612  2.2223
  788MOL0     H 6321   7.023   7.172   4.593  0.8522  0.5018 -0.3747
  788MOL0     H 6322   6.947   7.177   4.431  2.6772  0.7198 -0.8331
  788MOL0     H 6323   7.055   7.397   4.385 -2.5691 -1.2236 -0.4797
  788MOL0     H 6324   7.121   7.396   4.547 -0.3921  0.6501 -1.7475
  788MOL0     H 6325   7.223   7.182   4.489 -1.0210 -0.9361 -0.5569
  788MOL0     H 6326   7.176   7.208   4.316 -1.2229 -1.4991  0.3760
  788MOL0     H 6327   7.363   7.416   4.457  0.7477 -0.3703  0.2626
  788MOL0     H 6328   7.301   7.399   4.297 -1.2068  0.0009 -0.1496
  788MOL0     H 6329   7.482   7.203   4.439  1.3978 -0.2187 -0.7775
  788MOL0     H 6330   7.420   7.172   4.279 -0.0655 -1.1578  0.9123
  788MOL0     H 6331   7.663   7.411   4.462 -3.8730 -0.1128  1.1349
  788MOL0     H 6332   7.924   7.506   4.165  0.5843 -2.0925  0.1981
  788MOL0     H 6333   7.892   7.582   4.312  3.3481  0.6473 -1.2622
  788MOL0     H 6334   8.097   7.460   4.351  0.5861 -2.5254 -3.5588
  788MOL0     H 6335   7.969   7.389   4.442 -2.5427 -1.1299  0.0725
  788MOL0     H 6336   8.037   7.286   4.175  3.3966  3.0025  0.8837
  788MOL0     H 6337   7.960   7.204   4.313 -1.4590 -0.5670 -1.5832
  788MOL0     H 6338   8.168   7.204   4.441 -3.5771 -1.0378  0.2445
  788MOL0     H 6339   8.242   7.288   4.303  0.1735 -0.0381  0.5101
  788MOL0     H 6340   8.318   7.029   4.484  0.0502  0.3596  0.5075
  788MOL0     H 6341   8.497   6.868   4.486 -2.0077  1.5026  1.0497
  788MOL0     H 6342   8.839   6.589   4.250  2.6458 -0.4446 -0.9262
  788MOL0     H 6343   8.987   6.402   4.190  0.5167 -0.4191 -0.8862
  788MOL0     H 6344   8.804   6.087   3.887  0.9333 -1.9110  1.1215
  788MOL0     H 6345   8.899   6.219   3.811 -0.5193 -0.2829 -0.9137
  788MOL0     H 6346   9.092   6.086   3.928 -2.1484  1.7746  2.0754
  788MOL0     H 6347   8.973   5.948   3.919 -2.5735 -0.1311 -1.1818
  788MOL0     H 6348   8.992   5.978   3.664 -0.1041 -1.0234  1.1770
  788MOL0     H 6349   9.094   6.126   3.697 -1.4002  0.2960 -0.4107
  788MOL0     H 6350   9.177   5.846   3.781  2.3171 -0.8227  1.2538
  788MOL0     H 6351   9.270   6.000   3.790  2.7760 -1.4730 -1.0621
  788MOL0     H 6352   9.271   6.013   3.551  0.5196  0.7489  2.7424
  788MOL0     H 6353   9.168   5.870   3.531 -3.5721  3.6478  1.3088
  788MOL0     H 6354   9.451   5.874   3.635 -0.3737 -0.8330 -0.0320
  788MOL0     H 6355   9.354   5.726   3.627  0.7107 -0.3309  0.7491
  788MOL0     H 6356   9.455   5.927   3.409 -1.2696  0.1506 -2.3027
  788MOL0     H 6357   9.359   5.791   3.363 -0.2853  1.6682  0.3746
  788MOL0     H 6358   9.539   5.633   3.460  2.2326 -1.0058  0.4049
  788MOL0     H 6359   9.604   5.741   3.330 -0.4024  0.2470 -0.3341
  788MOL0     H 6360   8.693   6.254   3.918  0.1611  0.0774  0.0010
  788MOL0     H 6361   8.534   6.437   3.993  0.0565  3.4377  1.7532
  788MOL0     H 6362   8.421   6.767   4.075  1.6000  1.5398 -0.3282
  788MOL0     H 6363   8.236   6.926   4.073  0.2517 -1.5347 -0.4148
  788MOL0     H 6364   6.349   7.076   4.703 -0.0400 -0.4241 -0.8215
  788MOL0     H 6365   6.117   7.130   4.728  1.3042 -0.2401 -2.0265
  788MOL0     H 6366   5.859   7.541   4.811  0.5386 -0.6472  0.3055
  788MOL0     H 6367   5.692   7.673   4.879  1.5648  0.1303 -0.4659
  788MOL0     H 6368   5.367   7.655   5.181  1.7135 -0.3871  0.6232
  788MOL0     H 6369   5.443   7.492   5.194  0.1158 -1.6645 -1.4491
  788MOL0     H 6370   5.289   7.438   4.997 -2.5447  0.4049 -0.3044
  788MOL0     H 6371   5.258   7.610   4.977  3.4404 -0.0992 -0.5803
  788MOL0     H 6372   5.159   7.601   5.210 -0.3860 -0.0929 -1.2298
  788MOL0     H 6373   5.205   7.424   5.217 -1.4969 -0.1388 -0.6253
  788MOL0     H 6374   4.998   7.560   5.048  2.1969  2.4462  2.9864
  788MOL0     H 6375   5.044   7.391   5.020  1.8148 -1.3746  1.3527
  788MOL0     H 6376   4.826   7.356   5.385 -0.2434  0.0055  0.3609
  788MOL0     H 6377   5.494   7.351   5.051 -0.1850  2.4368  1.5573
  788MOL0     H 6378   5.755   7.113   5.038 -0.4212  0.1682 -0.0626
  788MOL0     H 6379   5.574   7.115   5.026 -1.4315 -1.9496 -3.0804
  788MOL0     H 6380   5.674   7.091   4.881  0.3362  0.1999  0.6573
  789MOL0     O 6381   4.555   2.815   9.760  0.6699  0.1129  0.4513
  789MOL0     C 6382   4.578   2.701   9.724 -0.2870  0.5638  0.6681
  789MOL0     O 6383   4.699   2.638   9.743  1.4860 -0.3292  0.1248
  789MOL0     C 6384   4.778   2.642   9.855 -0.0914 -0.7586 -0.6357
  789MOL0     C 6385   4.755   2.733   9.960  0.3368  0.6154 -0.5269
  789MOL0     C 6386   4.840   2.739  10.064 -0.2444 -1.2363  0.0462
  789MOL0     C 6387   4.965   2.677  10.060 -0.6485 -1.0613  0.7380
  789MOL0     O 6388   5.066   2.690  10.152 -0.0105 -0.2334  0.3416
  789MOL0     C 6389   5.028   2.677  10.289 -0.5588  0.8942 -1.0929
  789MOL0     C 6390   5.152   2.644  10.374  0.4707  0.1878  0.2197
  789MOL0     C 6391   5.269   2.740  10.351 -0.0324  0.0600 -0.2971
  789MOL0     C 6392   5.402   2.688  10.409  0.5409 -0.4469  0.7040
  789MOL0     C 6393   5.520   2.771  10.360  1.0283  0.4113 -0.2699
  789MOL0     C 6394   5.649   2.717  10.425 -0.1993 -0.0674 -0.3902
  789MOL0     C 6395   5.764   2.800  10.371 -0.4764 -0.7414  0.0929
  789MOL0     C 6396   5.890   2.748  10.427  0.0729 -0.2157 -0.1220
  789MOL0     N 6397   6.008   2.821  10.391  0.0523  0.3604  0.1271
  789MOL0     C 6398   6.033   2.939  10.452  0.9270  0.0493  0.4318
  789MOL0     C 6399   6.155   2.975  10.415 -0.3109  0.1898 -0.5164
  789MOL0     C 6400   6.237   3.091  10.454  0.2000 -0.0951 -0.1486
  789MOL0     C 6401   6.231   3.107  10.606 -0.5081 -0.2830  0.4309
  789MOL0     C 6402   6.294   2.995  10.677 -0.4439  0.3573 -0.1014
  789MOL0     C 6403   6.326   3.021  10.830  0.2612  0.6263 -0.2369
  789MOL0     O 6404   6.433   3.124  10.850  0.4460  0.3654  0.8249
  789MOL0     C 6405   6.561   3.095  10.843  0.0017  0.5538  0.2125
  789MOL0     C 6406   6.616   2.972  10.802  0.7480 -0.0091 -0.2237
  789MOL0     C 6407   6.748   2.946  10.826  1.0708  0.5885 -0.0195
  789MOL0     C 6408   6.835   3.046  10.885  0.0678 -0.3010  0.0343
  789MOL0     C 6409   6.977   3.013  10.913  0.4756  0.0626  0.1001
  789MOL0     O 6410   7.028   2.900  10.859 -0.0524  0.0517  0.1774
  789MOL0     C 6411   7.164   2.875  10.873 -0.1898 -0.5013 -0.1245
  789MOL0     C 6412   7.246   2.929  10.771  0.3464 -0.2231  0.2814
  789MOL0     C 6413   7.387   2.898  10.768  0.7920 -0.4263  0.3468
  789MOL0     C 6414   7.444   2.819  10.864 -0.2264 -0.1921  0.0723
  789MOL0     O 6415   7.585   2.781  10.856  0.5864  0.4504  0.6018
  789MOL0     C 6416   7.623   2.688  10.954 -0.4282 -0.3535 -0.3558
  789MOL0     C 6417   7.770   2.651  10.925  0.1238  0.6698 -0.2948
  789MOL0     C 6418   7.820   2.532  11.006 -0.3315  0.0332 -0.3784
  789MOL0     C 6419   7.976   2.525  10.992 -0.5713  0.3831  0.6729
  789MOL0     C 6420   8.052   2.424  11.085 -0.2357 -0.2142  0.1561
  789MOL0     C 6421   8.050   2.477  11.232 -0.1762  0.0561  0.9121
  789MOL0     C 6422   8.118   2.378  11.324  0.2963 -0.2468  0.0769
  789MOL0     C 6423   8.119   2.427  11.468 -0.9691  0.0122 -0.2210
  789MOL0    Cl 6424   8.232   2.328  11.571  0.5420 -0.5923 -0.7871
  789MOL0     C 6425   7.362   2.787  10.972 -0.3283  0.2022 -0.2989
  789MOL0     C 6426   7.226   2.804  10.975 -0.0777  0.2795 -0.2731
  789MOL0     O 6427   7.039   3.091  10.989  1.4876 -0.0462  0.0659
  789MOL0     C 6428   6.782   3.170  10.914  0.3140 -0.7836  0.5421
  789MOL0     C 6429   6.643   3.192  10.899  0.2723  0.0010  0.4855
  789MOL0     N 6430   6.202   2.875  10.339 -0.1567 -0.1036 -0.0094
  789MOL0     N 6431   6.112   2.782  10.320  0.1448 -0.5569 -0.5525
  789MOL0     C 6432   4.989   2.586   9.958  0.0103 -0.2198  0.2771
  789MOL0     C 6433   4.894   2.558   9.858 -1.0746 -0.2903 -0.0504
  789MOL0     C 6434   4.492   2.644   9.618  0.9738  0.2921 -0.1980
  789MOL0     C 6435   4.555   2.586   9.503 -0.6634 -0.1072 -0.3032
  789MOL0     C 6436   4.488   2.497   9.418 -0.0585 -0.1585 -0.3176
  789MOL0     C 6437   4.347   2.481   9.433  0.4868  0.2064  0.7770
  789MOL0     O 6438   4.292   2.396   9.344  0.3877 -0.1802 -0.4833
  789MOL0     C 6439   4.150   2.383   9.334  1.1931  0.0518 -0.1725
  789MOL0     C 6440   4.122   2.327   9.196  0.3844 -0.2397  0.3365
  789MOL0     C 6441   4.196   2.203   9.151  0.3000  0.1141 -0.5813
  789MOL0     C 6442   4.171   2.078   9.232 -0.6942  0.1576 -0.6124
  789MOL0     C 6443   4.034   2.032   9.228  0.7520 -0.2302  0.5904
  789MOL0     C 6444   3.917   2.008   9.238 -0.3131  0.6217 -0.0564
  789MOL0     C 6445   4.278   2.537   9.535  0.3206  0.7319  0.3493
  789MOL0     C 6446   4.353   2.609   9.631 -0.3865 -0.1079  0.6388
  789MOL0     C 6447   4.273   2.667   9.744 -0.0003  0.5658  0.0047
  789MOL0     H 6448   4.669   2.799   9.970  0.1783  0.2289  1.0543
  789MOL0     H 6449   4.821   2.816  10.137  0.6620  0.2209 -1.1963
  789MOL0     H 6450   5.005   2.773  10.335 -0.5712  0.3672  0.0222
  789MOL0     H 6451   4.957   2.597  10.311  1.5335 -0.7289  0.2799
  789MOL0     H 6452   5.183   2.541  10.356  2.8557  1.2135 -2.2088
  789MOL0     H 6453   5.126   2.645  10.481  0.2775 -4.0622  0.3958
  789MOL0     H 6454   5.249   2.839  10.394  1.1775  0.4026 -0.5089
  789MOL0     H 6455   5.286   2.765  10.246  0.5851  0.3798 -0.1236
  789MOL0     H 6456   5.395   2.684  10.518 -1.2540  0.4863  0.6600
  789MOL0     H 6457   5.411   2.583  10.381  0.3601 -0.0067 -1.1776
  789MOL0     H 6458   5.526   2.773  10.251 -0.3150  1.2154 -0.3486
  789MOL0     H 6459   5.511   2.871  10.404  0.7170  0.1296  0.3189
  789MOL0     H 6460   5.642   2.720  10.534  1.9540 -2.7256 -0.0766
  789MOL0     H 6461   5.649   2.612  10.395 -1.0745  0.0136 -0.7239
  789MOL0     H 6462   5.750   2.905  10.398 -1.2667 -0.6692 -0.5272
  789MOL0     H 6463   5.761   2.782  10.263  2.5532 -1.5943  0.0690
  789MOL0     H 6464   5.883   2.755  10.536  2.8472 -1.6632  0.2210
  789MOL0     H 6465   5.891   2.641  10.406 -1.1699 -0.4145  0.6917
  789MOL0     H 6466   5.965   3.001  10.510  0.2159 -0.0476 -0.2720
  789MOL0     H 6467   6.339   3.079  10.416 -0.6709  0.9282 -3.1052
  789MOL0     H 6468   6.195   3.180  10.406 -1.9504 -0.7030  0.4705
  789MOL0     H 6469   6.290   3.196  10.631  1.7279 -1.8259  0.9236
  789MOL0     H 6470   6.130   3.123  10.643 -0.7418 -2.6949  1.0233
  789MOL0     H 6471   6.394   2.972  10.639 -0.1063  1.3553  0.1336
  789MOL0     H 6472   6.232   2.907  10.662 -1.4966  1.2455 -1.2267
  789MOL0     H 6473   6.343   2.926  10.880  3.1527  0.9170 -0.5081
  789MOL0     H 6474   6.233   3.062  10.872  0.2927 -0.6046  1.0992
  789MOL0     H 6475   6.555   2.895  10.756 -1.3413  0.0903  2.2002
  789MOL0     H 6476   6.781   2.845  10.804  0.3763  0.2345  0.5419
  789MOL0     H 6477   7.192   2.993  10.701  1.4154 -0.1174 -0.4743
  789MOL0     H 6478   7.443   2.935  10.683 -2.1359  4.8313  0.3338
  789MOL0     H 6479   7.628   2.726  11.056  0.3094 -2.4153  0.4402
  789MOL0     H 6480   7.569   2.593  10.956  0.0771 -0.6661 -1.1877
  789MOL0     H 6481   7.773   2.619  10.821 -0.1490 -2.1375  0.4642
  789MOL0     H 6482   7.827   2.741  10.950 -1.0503  0.8552  2.0443
  789MOL0     H 6483   7.795   2.525  11.112  1.6412 -1.4020  0.0613
  789MOL0     H 6484   7.788   2.434  10.968  0.4122 -0.6215  0.6250
  789MOL0     H 6485   8.021   2.623  11.011  0.1975  0.4366 -1.1988
  789MOL0     H 6486   8.002   2.505  10.888 -1.6874 -1.8589  0.7583
  789MOL0     H 6487   8.157   2.411  11.057 -0.3970 -0.4953 -0.3279
  789MOL0     H 6488   8.000   2.329  11.071 -0.5774 -0.2098  1.3175
  789MOL0     H 6489   8.113   2.566  11.228 -2.8036  2.0186  0.2354
  789MOL0     H 6490   7.950   2.493  11.273  0.6346  2.4041  2.1439
  789MOL0     H 6491   8.214   2.339  11.289 -2.0820 -5.3279 -1.7776
  789MOL0     H 6492   8.064   2.283  11.325 -1.3924  0.6818  1.1086
  789MOL0     H 6493   8.143   2.534  11.470  0.2952 -0.2524 -0.1541
  789MOL0     H 6494   8.019   2.422  11.511 -1.6767  1.1031 -1.6648
  789MOL0     H 6495   7.415   2.749  11.059  0.6413 -0.5386 -1.1779
  789MOL0     H 6496   7.168   2.755  11.052  0.7659 -1.8368 -0.9061
  789MOL0     H 6497   6.847   3.246  10.955 -0.2551  0.1126 -0.1755
  789MOL0     H 6498   6.593   3.282  10.932 -2.5929 -1.5871  0.7654
  789MOL0     H 6499   5.081   2.527   9.955  0.5626  0.5515  1.4921
  789MOL0     H 6500   4.924   2.491   9.778  0.4679  1.6004 -1.1483
  789MOL0     H 6501   4.662   2.600   9.495 -0.5063 -1.3185 -0.6501
  789MOL0     H 6502   4.539   2.442   9.339 -0.3160 -0.0839 -0.5373
  789MOL0     H 6503   4.099   2.480   9.331  0.0039 -0.5538 -0.0551
  789MOL0     H 6504   4.106   2.311   9.403  0.1176  1.8928  1.1649
  789MOL0     H 6505   4.142   2.408   9.126  3.8040  0.1997  1.6187
  789MOL0     H 6506   4.017   2.304   9.177  0.3571 -1.5904  1.8643
  789MOL0     H 6507   4.303   2.228   9.155  0.4086 -0.4639  0.1899
  789MOL0     H 6508   4.178   2.173   9.047  0.8801  0.1042 -0.6852
  789MOL0     H 6509   4.238   1.996   9.207 -0.9511  0.0226 -0.8681
  789MOL0     H 6510   4.195   2.096   9.337 -0.6073 -1.4137 -0.3475
  789MOL0     H 6511   3.826   1.954   9.255  0.9224 -2.3555 -1.9591
  789MOL0     H 6512   4.171   2.523   9.546  0.4630 -0.0135  0.8575
  789MOL0     H 6513   4.318   2.655   9.843 -0.5536  0.3213  0.2289
  789MOL0     H 6514   4.256   2.775   9.742  1.0803  0.8028  2.0226
  789MOL0     H 6515   4.174   2.621   9.747  0.8384 -1.4608 -1.1328
  790MOL0     O 6516   0.462   8.194   1.015  0.0014 -0.7276 -0.3794
  790MOL0     C 6517   0.384   8.184   0.914 -0.1146 -0.2590 -0.4728
  790MOL0     O 6518   0.403   8.245   0.794  0.1419  0.4592  0.4301
  790MOL0     C 6519   0.527   8.301   0.765 -0.3173 -0.4371 -0.0791
  790MOL0     C 6520   0.600   8.270   0.644 -0.0919 -0.1936 -0.0270
  790MOL0     C 6521   0.724   8.327   0.620  0.0044 -0.2826 -0.1426
  790MOL0     C 6522   0.788   8.411   0.709 -0.3729 -0.6918 -0.2819
  790MOL0     O 6523   0.917   8.449   0.682  0.0497 -0.0580  0.5540
  790MOL0     C 6524   0.992   8.517   0.785  0.3020  0.7754  0.0136
  790MOL0     C 6525   1.118   8.560   0.708 -0.0364 -0.2665  0.0141
  790MOL0     C 6526   1.214   8.609   0.810 -0.0200 -0.7591 -0.2523
  790MOL0     C 6527   1.338   8.671   0.731  0.4320  0.2159 -0.1816
  790MOL0     C 6528   1.455   8.713   0.821 -0.0714  0.2545 -0.1184
  790MOL0     C 6529   1.574   8.760   0.724  0.9956  0.4863 -0.1508
  790MOL0     C 6530   1.703   8.787   0.802 -0.0327  0.4886 -0.3454
  790MOL0     C 6531   1.800   8.829   0.688  0.3372 -0.1935  0.4733
  790MOL0     N 6532   1.931   8.886   0.744  0.7355 -0.0917  1.1878
  790MOL0     C 6533   1.956   9.017   0.769 -0.2377 -0.4982 -1.3971
  790MOL0     C 6534   2.082   9.031   0.821 -0.4411  0.6678  0.3683
  790MOL0     C 6535   2.152   9.159   0.850 -0.4899  0.3994  0.6914
  790MOL0     C 6536   2.300   9.143   0.896  0.4050 -0.5010 -0.2303
  790MOL0     C 6537   2.344   9.278   0.957  0.2481  0.8422  0.4942
  790MOL0     C 6538   2.492   9.295   0.950  0.1593 -0.3152  0.2819
  790MOL0     O 6539   2.521   9.412   1.027  0.0425  0.4477 -0.1147
  790MOL0     C 6540   2.654   9.420   1.066 -0.0305  0.3739  0.0297
  790MOL0     C 6541   2.746   9.314   1.092  0.4367 -0.2666 -0.1480
  790MOL0     C 6542   2.872   9.343   1.131  0.2945  0.1545  0.4693
  790MOL0     C 6543   2.920   9.476   1.129  0.4760  0.9147 -0.3908
  790MOL0     C 6544   3.060   9.495   1.178  0.7089 -0.5841 -0.0084
  790MOL0     O 6545   3.145   9.390   1.208  0.0951 -0.0608  0.2822
  790MOL0     C 6546   3.272   9.428   1.229  1.3267 -0.9802  0.3483
  790MOL0     C 6547   3.304   9.495   1.351 -0.0423  0.0943 -1.3745
  790MOL0     C 6548   3.428   9.553   1.369  0.1387  0.3980 -0.2362
  790MOL0     C 6549   3.526   9.527   1.282  0.0983  0.0703  1.3657
  790MOL0     O 6550   3.650   9.581   1.321  0.1950 -0.2049  0.7612
  790MOL0     C 6551   3.762   9.582   1.235  0.2409  0.8329 -0.0665
  790MOL0     C 6552   3.875   9.626   1.324 -0.2271 -0.0181 -0.2783
  790MOL0     C 6553   4.008   9.654   1.242  0.5842 -0.4504 -0.4159
  790MOL0     C 6554   4.117   9.698   1.339 -1.0277  0.2253 -0.1286
  790MOL0     C 6555   4.237   9.766   1.283 -0.1735  0.4495 -0.5844
  790MOL0     C 6556   4.335   9.665   1.229  0.2074  0.7851 -0.3408
  790MOL0     C 6557   4.468   9.725   1.176  0.8049 -0.0144  0.0770
  790MOL0     C 6558   4.529   9.824   1.279 -0.0163 -0.4036  0.6059
  790MOL0    Cl 6559   4.689   9.861   1.225  0.1953 -0.6595  0.2800
  790MOL0     C 6560   3.492   9.476   1.152  0.2310  1.3610 -0.1319
  790MOL0     C 6561   3.367   9.418   1.125  0.9497 -0.2307  0.1360
  790MOL0     O 6562   3.089   9.615   1.172  0.0252 -0.8057  0.3272
  790MOL0     C 6563   2.832   9.583   1.108 -0.1738 -0.0098  0.8499
  790MOL0     C 6564   2.695   9.557   1.085  0.3785 -0.1262  1.1967
  790MOL0     N 6565   2.131   8.905   0.816 -0.9278 -0.1723 -0.1263
  790MOL0     N 6566   2.037   8.825   0.786  0.4143 -0.6576  0.9017
  790MOL0     C 6567   0.717   8.451   0.826 -0.2860  0.9805 -0.4405
  790MOL0     C 6568   0.591   8.395   0.857  0.1429  0.2159 -0.1537
  790MOL0     C 6569   0.252   8.107   0.922 -0.6241 -0.6421  0.4667
  790MOL0     C 6570   0.198   8.050   0.811  1.2618  0.3897  0.0463
  790MOL0     C 6571   0.084   7.966   0.821 -0.6149  0.3241 -0.3458
  790MOL0     C 6572   0.023   7.943   0.949  0.8854  0.2782  0.2870
  790MOL0     O 6573  -0.091   7.862   0.951 -0.4788 -0.3644  0.6895
  790MOL0     C 6574  -0.167   7.862   1.074  0.2494  0.7154  0.1072
  790MOL0     C 6575  -0.299   7.790   1.057 -0.8513 -0.5137 -0.3876
  790MOL0     C 6576  -0.391   7.797   1.182  0.4213 -0.2232  0.4980
  790MOL0     C 6577  -0.507   7.697   1.177  0.2550 -0.2505 -0.3001
  790MOL0     C 6578  -0.612   7.726   1.285  0.0831  0.2896  0.2306
  790MOL0     C 6579  -0.689   7.755   1.373  0.5242  0.5399  0.4929
  790MOL0     C 6580   0.071   8.016   1.057 -0.2842 -0.3261 -0.2078
  790MOL0     C 6581   0.182   8.108   1.043  0.3023  0.0245 -0.5469
  790MOL0     C 6582   0.211   8.195   1.162  0.3821 -0.4427 -0.3592
  790MOL0     H 6583   0.561   8.192   0.580 -0.3778 -1.5752  1.7545
  790MOL0     H 6584   0.778   8.301   0.529 -0.5581  1.1484 -0.9186
  790MOL0     H 6585   0.950   8.615   0.811  0.3330  0.5060  1.1206
  790MOL0     H 6586   1.008   8.455   0.873 -2.1348  1.2571  0.8798
  790MOL0     H 6587   1.098   8.647   0.645 -0.0693 -0.9200 -0.8920
  790MOL0     H 6588   1.153   8.473   0.652  1.0150  0.6038 -0.7181
  790MOL0     H 6589   1.248   8.527   0.874 -0.0295 -0.1097  0.6060
  790MOL0     H 6590   1.173   8.694   0.864  1.4804  1.6720 -2.6494
  790MOL0     H 6591   1.357   8.601   0.649 -0.4118  2.4521 -2.4244
  790MOL0     H 6592   1.307   8.766   0.686 -0.7761  0.9393  2.0187
  790MOL0     H 6593   1.433   8.800   0.884 -2.2822 -0.4175  0.1034
  790MOL0     H 6594   1.499   8.632   0.879 -1.7236 -0.4672  0.1773
  790MOL0     H 6595   1.591   8.668   0.667 -0.2948  0.3890 -0.4122
  790MOL0     H 6596   1.550   8.852   0.671  1.0385  0.9015  0.5316
  790MOL0     H 6597   1.726   8.692   0.851 -0.8030 -0.1982 -1.2716
  790MOL0     H 6598   1.692   8.862   0.880  1.5232  0.2104  0.1724
  790MOL0     H 6599   1.824   8.749   0.618  0.1539  0.3369 -0.2094
  790MOL0     H 6600   1.754   8.907   0.627 -0.5234  1.5988  3.2374
  790MOL0     H 6601   1.880   9.094   0.766 -0.1970 -0.4957 -2.6596
  790MOL0     H 6602   2.164   9.225   0.764  1.1874  0.8086  1.1933
  790MOL0     H 6603   2.086   9.213   0.918 -3.3469 -0.1600 -1.4297
  790MOL0     H 6604   2.298   9.061   0.969  1.0998  0.5009  0.9402
  790MOL0     H 6605   2.365   9.122   0.811 -1.8877 -1.6462 -1.8172
  790MOL0     H 6606   2.318   9.262   1.062 -0.4462 -0.2637  0.1753
  790MOL0     H 6607   2.291   9.368   0.925 -2.0303 -0.3660  0.6681
  790MOL0     H 6608   2.533   9.316   0.851 -1.7149  0.1246 -0.4527
  790MOL0     H 6609   2.533   9.201   0.988  0.9130  0.5008  1.5822
  790MOL0     H 6610   2.709   9.214   1.112 -0.0790  0.4070  2.6517
  790MOL0     H 6611   2.941   9.264   1.156 -2.0105 -1.4847  2.0220
  790MOL0     H 6612   3.227   9.526   1.421  0.9229  0.9607 -0.6703
  790MOL0     H 6613   3.444   9.612   1.458  0.6257  0.4284 -0.3397
  790MOL0     H 6614   3.787   9.480   1.202  0.8438  1.3023 -1.0899
  790MOL0     H 6615   3.752   9.643   1.145  1.7241 -0.7411 -1.3981
  790MOL0     H 6616   3.833   9.709   1.381 -4.0288 -0.9722 -1.4022
  790MOL0     H 6617   3.897   9.548   1.398  0.5420  0.8316  0.4119
  790MOL0     H 6618   4.043   9.563   1.191 -1.1720  0.0483 -2.6421
  790MOL0     H 6619   3.984   9.728   1.166 -0.7941  0.6382  1.0151
  790MOL0     H 6620   4.147   9.603   1.384 -0.8798  0.4189  0.1863
  790MOL0     H 6621   4.070   9.755   1.420 -2.7272  1.8089 -2.1044
  790MOL0     H 6622   4.291   9.823   1.360  0.9124 -2.1173  0.6811
  790MOL0     H 6623   4.201   9.823   1.197  1.6348  0.8022 -1.1603
  790MOL0     H 6624   4.370   9.595   1.305  2.4249  0.2406 -1.7457
  790MOL0     H 6625   4.291   9.607   1.147  0.5272 -0.0475  0.0588
  790MOL0     H 6626   4.443   9.783   1.086  0.5491  0.0721  0.2038
  790MOL0     H 6627   4.547   9.652   1.159  1.2011  0.4991 -0.3499
  790MOL0     H 6628   4.475   9.919   1.275 -1.7967 -1.3804  0.4481
  790MOL0     H 6629   4.528   9.774   1.377 -1.7668 -1.0952  0.2718
  790MOL0     H 6630   3.562   9.478   1.068  0.7339  3.0931  0.2974
  790MOL0     H 6631   3.337   9.388   1.025 -0.9738  0.1939  0.5466
  790MOL0     H 6632   2.876   9.683   1.111 -1.2267  0.4534  1.2031
  790MOL0     H 6633   2.633   9.639   1.052  0.9956 -1.0109 -2.8169
  790MOL0     H 6634   0.762   8.525   0.891  0.3820  0.9608 -0.8743
  790MOL0     H 6635   0.540   8.427   0.947  0.0422  2.5700 -0.9899
  790MOL0     H 6636   0.236   8.052   0.709 -0.9578 -4.1943 -1.1397
  790MOL0     H 6637   0.049   7.909   0.736  1.5815 -0.9859 -0.4500
  790MOL0     H 6638  -0.194   7.964   1.102 -0.4016  0.2408  1.2476
  790MOL0     H 6639  -0.107   7.823   1.157  1.1041  2.9946  0.6314
  790MOL0     H 6640  -0.289   7.685   1.027 -5.0412 -1.0365 -0.5392
  790MOL0     H 6641  -0.360   7.843   0.984  1.1219  3.9931  0.8329
  790MOL0     H 6642  -0.427   7.901   1.184 -0.1677 -0.4278  1.6046
  790MOL0     H 6643  -0.326   7.775   1.267  0.9852 -0.8193 -0.0778
  790MOL0     H 6644  -0.540   7.703   1.073  1.6368  0.5112 -0.7111
  790MOL0     H 6645  -0.476   7.594   1.197  1.1413 -0.3719 -2.0985
  790MOL0     H 6646  -0.762   7.782   1.447  0.6134 -2.1880  1.6893
  790MOL0     H 6647   0.027   8.016   1.156 -1.7718  0.9868 -0.8261
  790MOL0     H 6648   0.236   8.292   1.118  0.6216 -0.6311 -0.6349
  790MOL0     H 6649   0.121   8.217   1.221 -0.9544 -3.0763 -1.2755
  790MOL0     H 6650   0.285   8.149   1.228 -0.0371  1.3033  1.4464
  791MOL0     O 6651   8.664   2.491   6.695  0.3266 -0.2536  0.4375
  791MOL0     C 6652   8.583   2.494   6.603 -1.1247  0.8211 -0.0556
  791MOL0     O 6653   8.513   2.386   6.558 -0.1341  1.4882 -0.0368
  791MOL0     C 6654   8.564   2.255   6.560 -0.4777  1.3999  0.8715
  791MOL0     C 6655   8.682   2.214   6.617 -0.5090  0.5221 -0.3235
  791MOL0     C 6656   8.717   2.079   6.614  0.1372 -0.1981 -0.0052
  791MOL0     C 6657   8.639   1.986   6.540  0.4692  0.0859 -0.7282
  791MOL0     O 6658   8.667   1.851   6.539  0.0073 -0.0709 -0.3007
  791MOL0     C 6659   8.787   1.822   6.470 -0.0379 -0.9813  0.5187
  791MOL0     C 6660   8.805   1.676   6.436 -0.5772 -0.4624  0.2221
  791MOL0     C 6661   8.774   1.591   6.561 -0.0666  0.1060 -0.3362
  791MOL0     C 6662   8.903   1.559   6.646 -0.1206 -0.5386  0.3337
  791MOL0     C 6663   8.864   1.460   6.766  0.6908  0.7754  0.7023
  791MOL0     C 6664   8.768   1.510   6.879 -0.0010 -0.0585  0.0962
  791MOL0     C 6665   8.705   1.393   6.958 -0.2949 -0.2247 -0.0685
  791MOL0     C 6666   8.583   1.352   6.889 -0.3818  0.2029 -0.1657
  791MOL0     N 6667   8.516   1.242   6.955  0.1777 -0.4348 -0.6105
  791MOL0     C 6668   8.391   1.267   7.010 -0.3757  0.4596  0.4812
  791MOL0     C 6669   8.328   1.142   7.022 -0.0614  0.7527 -0.1513
  791MOL0     C 6670   8.189   1.125   7.083  0.6662  0.1410  0.0978
  791MOL0     C 6671   8.098   1.030   7.012  0.4383 -0.0217  0.2043
  791MOL0     C 6672   8.046   1.084   6.886 -0.4279  0.2335 -0.5060
  791MOL0     C 6673   7.949   1.199   6.904 -0.0390  0.0804 -0.1091
  791MOL0     O 6674   7.901   1.245   6.774  0.8553  0.0570  0.6060
  791MOL0     C 6675   7.791   1.181   6.714  0.2100 -0.5103 -1.5125
  791MOL0     C 6676   7.675   1.133   6.782 -0.2935 -0.9246 -0.1566
  791MOL0     C 6677   7.563   1.081   6.711 -0.2041 -0.2798  0.6497
  791MOL0     C 6678   7.562   1.081   6.571  0.6742  0.7033 -0.6897
  791MOL0     C 6679   7.450   1.028   6.493  0.9313  0.4966 -0.0724
  791MOL0     O 6680   7.421   1.089   6.375 -0.3320 -0.0161 -0.6162
  791MOL0     C 6681   7.305   1.065   6.310  0.0251 -0.4560 -0.1365
  791MOL0     C 6682   7.194   1.151   6.324 -0.1341  0.0600  0.2706
  791MOL0     C 6683   7.076   1.138   6.251  0.1207  0.5428 -0.3045
  791MOL0     C 6684   7.064   1.042   6.149 -0.7194  0.6925  0.5729
  791MOL0     O 6685   6.956   1.019   6.068 -0.2933  0.4766  0.1345
  791MOL0     C 6686   6.836   1.066   6.116  0.9046 -0.4178  0.5539
  791MOL0     C 6687   6.735   1.058   6.002 -0.1346  0.5135 -0.3442
  791MOL0     C 6688   6.735   0.919   5.934  0.1319 -0.3686 -0.0605
  791MOL0     C 6689   6.619   0.918   5.837  0.5061 -0.8790  0.9053
  791MOL0     C 6690   6.583   0.780   5.791  0.8535  0.4832  0.1199
  791MOL0     C 6691   6.518   0.778   5.651  0.3642  0.7127 -0.4587
  791MOL0     C 6692   6.477   0.637   5.606 -0.3518  0.2432  0.2267
  791MOL0     C 6693   6.343   0.629   5.530 -0.0511 -0.5064 -0.0629
  791MOL0    Cl 6694   6.299   0.458   5.496  0.3963  0.2780 -0.0713
  791MOL0     C 6695   7.178   0.953   6.136 -0.2277 -0.4540  0.2637
  791MOL0     C 6696   7.294   0.969   6.209 -0.2519 -0.7801 -0.3797
  791MOL0     O 6697   7.378   0.938   6.545  0.1835 -0.0770 -0.1341
  791MOL0     C 6698   7.675   1.127   6.503  0.5491  0.8190  0.4190
  791MOL0     C 6699   7.788   1.177   6.577  0.4138 -0.0691  0.4743
  791MOL0     N 6700   8.414   1.043   6.971 -0.7507 -0.1585  0.2520
  791MOL0     N 6701   8.518   1.110   6.924  0.4018 -0.8603  0.1544
  791MOL0     C 6702   8.527   2.031   6.471  0.0374 -0.7876 -0.3631
  791MOL0     C 6703   8.478   2.157   6.496 -0.0613 -0.0888 -0.2212
  791MOL0     C 6704   8.529   2.619   6.549 -0.2459 -0.2131  0.2536
  791MOL0     C 6705   8.441   2.613   6.444  0.0363  0.4636  0.9374
  791MOL0     C 6706   8.398   2.729   6.382 -0.0085  0.5902  0.1126
  791MOL0     C 6707   8.438   2.851   6.432 -0.0046 -0.2315 -0.6636
  791MOL0     O 6708   8.390   2.961   6.367  0.9338  0.6594 -0.1209
  791MOL0     C 6709   8.408   3.095   6.411  0.5106 -0.6961 -0.0392
  791MOL0     C 6710   8.309   3.174   6.322 -0.6857  0.1474 -0.2242
  791MOL0     C 6711   8.318   3.323   6.346  0.2726  0.3759 -0.2918
  791MOL0     C 6712   8.221   3.401   6.263 -0.8634 -0.5183 -0.7111
  791MOL0     C 6713   8.077   3.374   6.283 -0.0064 -0.4522  0.2121
  791MOL0     C 6714   7.967   3.339   6.312  0.7148 -0.1049 -0.6674
  791MOL0     C 6715   8.529   2.857   6.540 -0.0999 -0.6795 -0.2577
  791MOL0     C 6716   8.586   2.740   6.594 -0.0031 -0.7443 -0.2672
  791MOL0     C 6717   8.708   2.759   6.683 -0.0803  0.1289  0.5804
  791MOL0     H 6718   8.755   2.281   6.660  0.1426 -0.5175  0.2255
  791MOL0     H 6719   8.799   2.037   6.672 -0.4409 -1.8764 -0.3508
  791MOL0     H 6720   8.797   1.878   6.376 -1.3658 -2.0300 -0.2897
  791MOL0     H 6721   8.875   1.844   6.531  0.3237 -1.8679  0.3335
  791MOL0     H 6722   8.909   1.653   6.412 -0.5686 -1.0317  0.7825
  791MOL0     H 6723   8.740   1.664   6.349 -0.4240  2.3946 -0.3785
  791MOL0     H 6724   8.729   1.493   6.540  0.0522 -0.2483  0.9222
  791MOL0     H 6725   8.703   1.643   6.626  2.6709  2.6851  0.8510
  791MOL0     H 6726   8.982   1.510   6.588  2.5234  3.4766  0.1283
  791MOL0     H 6727   8.950   1.649   6.689  0.3308 -0.7980  0.3849
  791MOL0     H 6728   8.827   1.370   6.715  3.8714 -0.1986 -0.1232
  791MOL0     H 6729   8.959   1.427   6.809 -0.0341 -1.8523  0.5092
  791MOL0     H 6730   8.828   1.566   6.951  2.4164  0.1365 -1.9054
  791MOL0     H 6731   8.690   1.574   6.837 -2.4055 -2.1869  1.0344
  791MOL0     H 6732   8.678   1.433   7.056  0.7223  1.9612 -0.6238
  791MOL0     H 6733   8.778   1.316   6.986  0.1013  0.1145 -0.1549
  791MOL0     H 6734   8.518   1.440   6.881 -2.2408 -0.8907  1.9818
  791MOL0     H 6735   8.608   1.329   6.785 -2.1513 -0.9160 -0.3805
  791MOL0     H 6736   8.352   1.365   7.033 -1.0722  0.4868 -0.7302
  791MOL0     H 6737   8.197   1.092   7.188 -1.9858 -1.5900 -0.1349
  791MOL0     H 6738   8.139   1.222   7.085  2.8051  1.4182 -2.5481
  791MOL0     H 6739   8.155   0.940   6.984 -1.8162 -1.1070 -1.1503
  791MOL0     H 6740   8.012   1.004   7.074  2.0631  0.7849  2.9940
  791MOL0     H 6741   8.000   0.999   6.835 -0.6350 -1.0633  1.7316
  791MOL0     H 6742   8.128   1.121   6.823 -0.3403  0.3703 -0.3113
  791MOL0     H 6743   8.004   1.289   6.933 -1.9169  1.5799 -0.9739
  791MOL0     H 6744   7.869   1.178   6.976 -0.3949  1.7578  0.0322
  791MOL0     H 6745   7.679   1.112   6.889  1.0117  0.3202  0.0628
  791MOL0     H 6746   7.482   1.030   6.761 -1.2210  0.0290 -0.6405
  791MOL0     H 6747   7.209   1.234   6.393 -0.2464  2.8676 -2.8391
  791MOL0     H 6748   6.990   1.201   6.271 -1.1975 -2.0579  2.9596
  791MOL0     H 6749   6.803   1.029   6.214 -2.6828 -2.1142 -1.0970
  791MOL0     H 6750   6.848   1.174   6.132  0.8072 -0.4688  0.9881
  791MOL0     H 6751   6.634   1.074   6.040 -0.7749 -1.8731 -0.8488
  791MOL0     H 6752   6.766   1.132   5.928  1.0554 -1.6083 -2.1009
  791MOL0     H 6753   6.830   0.891   5.887  0.1093 -0.9087  0.1989
  791MOL0     H 6754   6.716   0.844   6.012  0.4365 -0.8206 -0.4109
  791MOL0     H 6755   6.634   0.989   5.755  0.1784 -2.4425 -0.5668
  791MOL0     H 6756   6.530   0.943   5.895 -0.8780 -0.0955 -1.3979
  791MOL0     H 6757   6.510   0.743   5.864  0.1806  2.2433  0.3978
  791MOL0     H 6758   6.673   0.719   5.781  0.7763  0.5876 -1.5703
  791MOL0     H 6759   6.426   0.837   5.655 -0.3586 -0.3732 -0.3994
  791MOL0     H 6760   6.591   0.830   5.590  0.0005  2.6285  0.6815
  791MOL0     H 6761   6.461   0.569   5.690 -2.4212  1.8379  1.2239
  791MOL0     H 6762   6.561   0.591   5.553  0.0085 -0.8221  1.6484
  791MOL0     H 6763   6.261   0.671   5.590 -0.7738  1.3517 -2.2025
  791MOL0     H 6764   6.353   0.688   5.438  0.8051 -0.2121  0.2130
  791MOL0     H 6765   7.179   0.879   6.056 -2.8574  0.9539 -1.2171
  791MOL0     H 6766   7.380   0.905   6.191 -0.5177 -0.8343 -1.5310
  791MOL0     H 6767   7.674   1.120   6.394  0.4219  0.5018  0.4410
  791MOL0     H 6768   7.872   1.220   6.523  1.1518 -0.8022  1.0229
  791MOL0     H 6769   8.481   1.950   6.416 -0.6319  0.6575 -2.0236
  791MOL0     H 6770   8.381   2.185   6.457 -0.8330 -1.3527  0.7438
  791MOL0     H 6771   8.408   2.524   6.392  0.1446  1.0026 -0.0844
  791MOL0     H 6772   8.328   2.720   6.300  0.7258  1.6491 -0.6482
  791MOL0     H 6773   8.509   3.128   6.387  0.7546 -1.0522  0.4914
  791MOL0     H 6774   8.382   3.108   6.516  0.0691 -1.0800 -0.0954
  791MOL0     H 6775   8.206   3.147   6.346 -0.3177 -0.7302  0.4154
  791MOL0     H 6776   8.337   3.152   6.218  0.7196  1.0497 -0.0672
  791MOL0     H 6777   8.423   3.350   6.330  0.7681 -1.3515 -0.1580
  791MOL0     H 6778   8.293   3.349   6.449  0.6647  2.9184 -0.7730
  791MOL0     H 6779   8.236   3.508   6.277  0.5376 -0.5321 -1.8190
  791MOL0     H 6780   8.247   3.398   6.156 -0.6228 -0.7942 -0.6470
  791MOL0     H 6781   7.873   3.302   6.348  1.7540 -0.2255  2.1910
  791MOL0     H 6782   8.574   2.953   6.565  2.7705 -2.5768  2.6900
  791MOL0     H 6783   8.738   2.864   6.689 -0.3263  0.1467  1.7847
  791MOL0     H 6784   8.700   2.720   6.785 -0.7458 -1.6688 -0.1121
  791MOL0     H 6785   8.791   2.707   6.635 -1.3380 -1.5457  0.1537
  792MOL0     O 6786   4.808   5.469   3.575  0.3558  0.2366 -0.2199
  792MOL0     C 6787   4.755   5.536   3.488  0.0431  0.9205 -0.2013
  792MOL0     O 6788   4.809   5.627   3.413 -0.0013  0.2019  0.7819
  792MOL0     C 6789   4.943   5.674   3.425 -0.3605  0.2959 -0.4764
  792MOL0     C 6790   5.017   5.722   3.317 -0.2453  0.3910 -0.0876
  792MOL0     C 6791   5.149   5.767   3.333  0.0180 -0.0429 -0.0277
  792MOL0     C 6792   5.202   5.780   3.460 -0.1332 -0.5369  1.2388
  792MOL0     O 6793   5.327   5.829   3.475  0.3039  0.3598 -0.6014
  792MOL0     C 6794   5.434   5.771   3.400 -0.0256 -0.1345  0.2940
  792MOL0     C 6795   5.552   5.761   3.489  0.9392  0.8574  0.5476
  792MOL0     C 6796   5.611   5.898   3.514  0.4730  0.4676 -0.0502
  792MOL0     C 6797   5.660   5.920   3.656  0.3494 -0.0702  0.2480
  792MOL0     C 6798   5.789   5.853   3.684 -0.1796 -0.2021  0.2434
  792MOL0     C 6799   5.832   5.859   3.821  0.1230 -0.0974  0.0487
  792MOL0     C 6800   5.981   5.811   3.830  0.9228  0.4355  0.1960
  792MOL0     C 6801   6.023   5.787   3.976 -0.3146  0.2501  0.6160
  792MOL0     N 6802   6.133   5.693   4.005  0.1733  0.4214  0.8143
  792MOL0     C 6803   6.151   5.568   3.947 -0.8045  0.3270  0.9017
  792MOL0     C 6804   6.288   5.540   3.957  0.7366 -0.0215  0.1022
  792MOL0     C 6805   6.372   5.418   3.910  0.0931 -0.4284  0.3056
  792MOL0     C 6806   6.450   5.440   3.776  0.2672  0.0252 -0.0675
  792MOL0     C 6807   6.532   5.312   3.740  0.2955 -0.3545 -0.3750
  792MOL0     C 6808   6.637   5.277   3.853  0.3346  0.2428 -0.3749
  792MOL0     O 6809   6.751   5.223   3.786  0.0655  0.1326  0.1195
  792MOL0     C 6810   6.863   5.306   3.748 -0.9092  0.3823  0.2242
  792MOL0     C 6811   6.979   5.240   3.734 -0.9025  0.5206  0.5139
  792MOL0     C 6812   7.091   5.314   3.697 -0.3329  0.1519  0.5475
  792MOL0     C 6813   7.093   5.450   3.679 -0.5680  0.1354  0.4485
  792MOL0     C 6814   7.219   5.526   3.627 -0.3621 -0.2775  0.0563
  792MOL0     O 6815   7.227   5.653   3.652 -0.4515  0.0662 -0.5020
  792MOL0     C 6816   7.350   5.720   3.621  0.0667  0.3655  0.0973
  792MOL0     C 6817   7.393   5.734   3.488 -0.6732 -0.4537 -0.7047
  792MOL0     C 6818   7.523   5.792   3.465 -0.2959 -0.5422 -0.8546
  792MOL0     C 6819   7.598   5.838   3.576  0.2776  0.3871  0.3110
  792MOL0     O 6820   7.714   5.912   3.560 -0.7549  0.1415 -0.2186
  792MOL0     C 6821   7.734   5.971   3.427 -0.4238  0.3822 -0.1205
  792MOL0     C 6822   7.854   6.064   3.419 -0.1669  0.2276  0.0687
  792MOL0     C 6823   7.983   5.988   3.443  0.2896 -0.4454 -1.0673
  792MOL0     C 6824   8.098   6.082   3.467  0.4268 -0.9408  0.2144
  792MOL0     C 6825   8.232   6.014   3.502  0.0486 -0.7117  0.0337
  792MOL0     C 6826   8.293   5.931   3.390 -0.3939  0.5427  0.2496
  792MOL0     C 6827   8.448   5.915   3.410 -0.6775  0.4375 -0.9016
  792MOL0     C 6828   8.536   5.877   3.295  0.2098  0.2347  0.8969
  792MOL0    Cl 6829   8.502   5.716   3.230  0.1562  0.4456 -0.1307
  792MOL0     C 6830   7.550   5.828   3.702 -0.3639 -0.6323  0.0882
  792MOL0     C 6831   7.425   5.769   3.723  0.3715  0.3395  0.2167
  792MOL0     O 6832   7.306   5.460   3.579  0.0403 -0.5704 -0.6990
  792MOL0     C 6833   6.966   5.515   3.698 -0.4497  0.2361 -0.1238
  792MOL0     C 6834   6.851   5.440   3.720 -0.2194  0.4441  0.2805
  792MOL0     N 6835   6.345   5.649   4.018  0.1887  0.2479 -0.1357
  792MOL0     N 6836   6.258   5.731   4.039  0.3332 -0.2664 -0.7411
  792MOL0     C 6837   5.123   5.736   3.567 -0.4624 -0.1379 -0.5679
  792MOL0     C 6838   4.994   5.689   3.553 -0.4254 -0.6992  0.9930
  792MOL0     C 6839   4.610   5.522   3.482  0.8184 -1.2161  0.5258
  792MOL0     C 6840   4.533   5.547   3.600  0.2414 -0.1751  0.1688
  792MOL0     C 6841   4.399   5.551   3.601  0.5700 -0.3266 -0.3798
  792MOL0     C 6842   4.328   5.528   3.482  0.1153 -0.1471 -0.1203
  792MOL0     O 6843   4.190   5.528   3.479  0.2125 -0.4328  0.2795
  792MOL0     C 6844   4.125   5.455   3.586  0.1126 -0.0781 -0.6539
  792MOL0     C 6845   3.984   5.416   3.523 -0.0520  0.9186  0.2946
  792MOL0     C 6846   3.877   5.372   3.629 -0.2881  0.4721 -0.2818
  792MOL0     C 6847   3.749   5.335   3.556  0.1271 -0.3213  0.8958
  792MOL0     C 6848   3.651   5.292   3.654  0.4583  0.2140 -0.2115
  792MOL0     C 6849   3.568   5.256   3.733  0.0626  0.5010  0.5716
  792MOL0     C 6850   4.400   5.505   3.364 -1.4025 -0.0397 -0.1095
  792MOL0     C 6851   4.542   5.504   3.358  0.2088 -0.0986 -0.1907
  792MOL0     C 6852   4.609   5.496   3.223  1.0597 -0.1472  1.0164
  792MOL0     H 6853   4.981   5.725   3.214  0.9590 -0.3900 -0.5580
  792MOL0     H 6854   5.203   5.793   3.242  0.7193 -0.8413  0.1516
  792MOL0     H 6855   5.418   5.668   3.367  1.1819  0.3464 -2.0608
  792MOL0     H 6856   5.452   5.829   3.309 -2.3677 -1.3723 -1.0666
  792MOL0     H 6857   5.622   5.705   3.426 -2.0017 -0.4011 -1.8455
  792MOL0     H 6858   5.527   5.707   3.580 -3.7985  0.0190 -0.9801
  792MOL0     H 6859   5.546   5.982   3.490 -2.5490 -1.4821  0.7173
  792MOL0     H 6860   5.698   5.901   3.447  0.4929 -3.5659 -0.4576
  792MOL0     H 6861   5.680   6.027   3.650 -0.4991  0.0284 -1.0994
  792MOL0     H 6862   5.580   5.899   3.727 -0.4469 -1.0425 -0.8969
  792MOL0     H 6863   5.777   5.749   3.653 -3.0454  0.1380 -0.0320
  792MOL0     H 6864   5.863   5.900   3.619 -1.7313  1.4469 -0.3975
  792MOL0     H 6865   5.818   5.959   3.863 -0.7200 -0.0579 -0.3104
  792MOL0     H 6866   5.757   5.799   3.872 -1.7327  0.8312 -1.4408
  792MOL0     H 6867   6.054   5.871   3.774  2.8921 -3.8086 -2.2741
  792MOL0     H 6868   5.994   5.720   3.771  2.0362  0.4871  0.3519
  792MOL0     H 6869   6.057   5.886   4.008  1.0593 -0.4568  1.4375
  792MOL0     H 6870   5.928   5.766   4.027 -0.1320  1.8083  1.6706
  792MOL0     H 6871   6.084   5.499   3.898  1.3162 -0.7889 -0.6145
  792MOL0     H 6872   6.439   5.384   3.990  0.4568 -0.1496  0.1195
  792MOL0     H 6873   6.300   5.337   3.897 -0.8884  0.5765 -0.7178
  792MOL0     H 6874   6.372   5.456   3.701  0.1421  1.3054  0.3022
  792MOL0     H 6875   6.521   5.523   3.779  1.1023 -0.6563 -0.9037
  792MOL0     H 6876   6.583   5.340   3.647 -1.4664  1.5408 -0.8279
  792MOL0     H 6877   6.470   5.226   3.713 -2.0993  1.2069 -0.1170
  792MOL0     H 6878   6.592   5.198   3.914  1.7226 -0.7561 -0.6141
  792MOL0     H 6879   6.657   5.370   3.907 -3.2376  2.1412 -1.9252
  792MOL0     H 6880   6.964   5.135   3.757 -2.0311  0.3769 -0.7905
  792MOL0     H 6881   7.178   5.252   3.679 -1.0487 -1.1117  1.2853
  792MOL0     H 6882   7.333   5.694   3.407  0.0604 -0.8980 -1.0393
  792MOL0     H 6883   7.551   5.801   3.360  1.0050  0.5741 -0.4507
  792MOL0     H 6884   7.756   5.894   3.353  1.0311 -2.5615  3.0785
  792MOL0     H 6885   7.651   6.037   3.402 -0.8900 -0.1078  0.1128
  792MOL0     H 6886   7.848   6.104   3.317  0.1729 -1.4626 -0.6449
  792MOL0     H 6887   7.847   6.145   3.492  0.0130 -0.9395  1.4107
  792MOL0     H 6888   7.975   5.918   3.526  1.9373  1.3912  0.7364
  792MOL0     H 6889   8.011   5.931   3.354 -1.1376  1.1606 -2.6291
  792MOL0     H 6890   8.071   6.154   3.546 -1.0756  1.4199 -2.2667
  792MOL0     H 6891   8.113   6.140   3.376 -2.3580 -0.5158 -0.0613
  792MOL0     H 6892   8.221   5.950   3.590 -0.9413  1.5336  1.6402
  792MOL0     H 6893   8.307   6.090   3.524  0.2112 -1.3579  1.9238
  792MOL0     H 6894   8.252   5.830   3.384  3.1699 -1.0037 -1.2823
  792MOL0     H 6895   8.272   5.980   3.295  0.3752 -1.6362 -1.1046
  792MOL0     H 6896   8.475   5.842   3.487 -0.2653  0.9393 -0.5683
  792MOL0     H 6897   8.495   6.008   3.443  3.3430 -1.9866  1.0830
  792MOL0     H 6898   8.506   5.945   3.214 -4.4441 -2.1921  0.2948
  792MOL0     H 6899   8.642   5.875   3.322  0.4977 -1.7740 -0.2027
  792MOL0     H 6900   7.593   5.875   3.790 -1.6568  1.8699 -0.5217
  792MOL0     H 6901   7.392   5.763   3.826 -0.2863 -1.0749 -0.0416
  792MOL0     H 6902   6.964   5.622   3.679  0.0117  0.3357  0.3596
  792MOL0     H 6903   6.758   5.496   3.728 -0.4913  0.1263 -0.5909
  792MOL0     H 6904   5.169   5.729   3.665 -2.7400  1.7305  0.7355
  792MOL0     H 6905   4.934   5.657   3.637 -0.3665  0.5662  1.5238
  792MOL0     H 6906   4.587   5.564   3.693  0.3666  0.9236 -0.0940
  792MOL0     H 6907   4.346   5.573   3.693 -0.7581 -1.5692 -0.8109
  792MOL0     H 6908   4.117   5.509   3.681  1.3945 -0.8879 -0.0591
  792MOL0     H 6909   4.179   5.362   3.608  0.5547  0.1932 -0.5789
  792MOL0     H 6910   4.011   5.328   3.465  0.5341 -0.5401  2.6732
  792MOL0     H 6911   3.944   5.504   3.470 -1.2051  2.3485  3.2979
  792MOL0     H 6912   3.852   5.448   3.703 -4.2109 -0.6320 -0.2861
  792MOL0     H 6913   3.916   5.286   3.685 -2.4959  0.4305  1.2921
  792MOL0     H 6914   3.709   5.416   3.494 -3.6224 -2.6134 -0.0260
  792MOL0     H 6915   3.758   5.249   3.490 -2.2736 -0.9588  1.2980
  792MOL0     H 6916   3.491   5.232   3.804 -0.1874  2.7741  1.1586
  792MOL0     H 6917   4.341   5.473   3.279 -0.7394 -1.9227  0.0828
  792MOL0     H 6918   4.679   5.577   3.203  2.3741 -1.9497 -2.7423
  792MOL0     H 6919   4.673   5.408   3.208  2.3858  0.9131  0.2679
  792MOL0     H 6920   4.549   5.513   3.133  3.8225  2.9302 -0.4482
  793MOL0     O 6921   7.466   2.385  11.149 -0.0847 -0.3418  1.0475
  793MOL0     C 6922   7.403   2.295  11.209  0.0574 -0.2764 -0.0485
  793MOL0     O 6923   7.452   2.171  11.227 -0.1206  0.0499 -0.4351
  793MOL0     C 6924   7.574   2.129  11.184  0.2824 -0.2290  0.6333
  793MOL0     C 6925   7.693   2.199  11.187 -0.3978 -0.0972 -0.3202
  793MOL0     C 6926   7.815   2.134  11.160 -0.0900 -0.1971 -0.2418
  793MOL0     C 6927   7.815   2.004  11.111 -0.0854  0.6924 -0.5769
  793MOL0     O 6928   7.929   1.938  11.074  0.0722  0.4370 -0.1463
  793MOL0     C 6929   8.032   2.016  11.011  0.1669  0.3257 -0.1086
  793MOL0     C 6930   7.988   2.070  10.876 -0.4516 -0.4129 -0.7906
  793MOL0     C 6931   8.107   2.125  10.789  0.0449  0.0867 -0.7859
  793MOL0     C 6932   8.192   2.013  10.739  0.4851 -0.2403 -0.2201
  793MOL0     C 6933   8.316   2.066  10.671  0.1464 -0.7625  0.1048
  793MOL0     C 6934   8.287   2.150  10.540 -0.1509  0.4673 -0.4785
  793MOL0     C 6935   8.416   2.218  10.484  0.2372  0.1473  0.7449
  793MOL0     C 6936   8.459   2.136  10.362 -0.1386  0.3114 -0.1870
  793MOL0     N 6937   8.598   2.184  10.337 -0.7193  0.6012 -0.3158
  793MOL0     C 6938   8.714   2.105  10.377  0.6269  0.3886 -0.1291
  793MOL0     C 6939   8.811   2.144  10.295  0.6557  0.1985  0.1257
  793MOL0     C 6940   8.960   2.103  10.285  0.4012  0.5267 -0.4671
  793MOL0     C 6941   9.015   2.027  10.401  0.6080  0.3988 -0.6963
  793MOL0     C 6942   9.158   1.975  10.373  0.4842 -0.2994 -0.1489
  793MOL0     C 6943   9.266   2.087  10.329 -0.3923 -0.4329 -0.2814
  793MOL0     O 6944   9.388   2.031  10.355 -0.2306 -0.0795  0.6496
  793MOL0     C 6945   9.508   2.103  10.330  0.1299 -0.6489 -0.3262
  793MOL0     C 6946   9.517   2.241  10.288  0.1389 -0.3605 -0.5113
  793MOL0     C 6947   9.642   2.293  10.249  0.1195  0.0958 -0.0871
  793MOL0     C 6948   9.757   2.214  10.266 -0.1907  0.0259 -0.2593
  793MOL0     C 6949   9.890   2.275  10.259 -0.9819  0.4328 -0.2318
  793MOL0     O 6950   9.980   2.200  10.198 -0.3087 -0.0961 -0.7143
  793MOL0     C 6951  10.108   2.227  10.212 -0.1681  0.8523 -0.4758
  793MOL0     C 6952  10.168   2.332  10.134 -0.4179 -0.9124  0.6112
  793MOL0     C 6953  10.303   2.359  10.163  0.0179 -0.5097  0.0225
  793MOL0     C 6954  10.377   2.292  10.259  0.5952 -0.1044 -0.3491
  793MOL0     O 6955  10.511   2.312  10.288 -0.2346 -0.1941 -0.1617
  793MOL0     C 6956  10.544   2.438  10.349 -0.8386  0.7245  0.2075
  793MOL0     C 6957  10.679   2.433  10.411  0.2399  0.1630 -0.2048
  793MOL0     C 6958  10.779   2.369  10.309  0.1353 -0.1346 -0.0337
  793MOL0     C 6959  10.918   2.384  10.353 -1.0173  0.6075  0.6075
  793MOL0     C 6960  11.020   2.313  10.262  0.2495  0.1601  0.0592
  793MOL0     C 6961  11.167   2.348  10.295  0.3373  0.1120 -1.5526
  793MOL0     C 6962  11.264   2.266  10.215 -0.0603  0.9033  0.1003
  793MOL0     C 6963  11.410   2.286  10.231 -0.2022  0.0080 -0.2589
  793MOL0    Cl 6964  11.457   2.272  10.402  0.1907 -0.2861  0.0480
  793MOL0     C 6965  10.313   2.203  10.336  0.5109 -0.3396  0.4375
  793MOL0     C 6966  10.180   2.178  10.325 -0.2088  0.0740  0.3988
  793MOL0     O 6967   9.915   2.369  10.332  0.3261 -0.3020  0.4550
  793MOL0     C 6968   9.751   2.078  10.302  0.5035  0.0543 -1.3304
  793MOL0     C 6969   9.625   2.029  10.336 -0.2310  0.6925 -0.1554
  793MOL0     N 6970   8.758   2.247  10.219 -0.1689 -0.1761 -0.3622
  793MOL0     N 6971   8.634   2.263  10.236  0.3206  0.5151 -0.6428
  793MOL0     C 6972   7.693   1.932  11.097  0.6840 -0.5257 -0.0231
  793MOL0     C 6973   7.575   1.997  11.138  0.0813 -0.4912 -0.3678
  793MOL0     C 6974   7.258   2.318  11.259  0.2711  0.8487  0.1624
  793MOL0     C 6975   7.168   2.207  11.276 -0.1726 -0.2430  0.0850
  793MOL0     C 6976   7.044   2.224  11.329 -0.2649 -0.8152  0.3559
  793MOL0     C 6977   6.987   2.346  11.349  0.6745  0.7522 -0.1241
  793MOL0     O 6978   6.851   2.350  11.394 -0.3800  0.0971 -0.1542
  793MOL0     C 6979   6.807   2.473  11.446 -0.5631  0.1727  0.9752
  793MOL0     C 6980   6.663   2.467  11.470  0.6339 -0.4487 -0.6996
  793MOL0     C 6981   6.579   2.433  11.338 -0.0304 -0.4664  0.8178
  793MOL0     C 6982   6.426   2.437  11.358 -0.1749  0.0227  0.3206
  793MOL0     C 6983   6.352   2.370  11.249  0.0564 -0.0479 -0.0601
  793MOL0     C 6984   6.302   2.321  11.153  0.4363  0.2666 -0.1058
  793MOL0     C 6985   7.069   2.457  11.324 -0.0846  0.3794  0.0383
  793MOL0     C 6986   7.206   2.449  11.286  0.6133 -0.0141 -0.2591
  793MOL0     C 6987   7.299   2.573  11.283  0.0350 -0.0456  0.4900
  793MOL0     H 6988   7.702   2.299  11.227 -0.0165 -0.5791  0.8523
  793MOL0     H 6989   7.911   2.182  11.177  0.2664 -0.9321 -0.1785
  793MOL0     H 6990   8.079   2.092  11.074 -0.8796  2.3114 -1.5821
  793MOL0     H 6991   8.107   1.938  10.998 -0.6826 -0.8947  1.8501
  793MOL0     H 6992   7.926   2.158  10.896  1.7236  1.2693 -1.0023
  793MOL0     H 6993   7.942   1.996  10.811  0.5212 -0.6870 -1.1929
  793MOL0     H 6994   8.166   2.195  10.849  2.2433 -0.3316 -2.3389
  793MOL0     H 6995   8.069   2.198  10.717 -0.4337  1.2460  0.6062
  793MOL0     H 6996   8.228   1.941  10.814  2.2922 -0.6709 -1.4256
  793MOL0     H 6997   8.128   1.957  10.670 -1.5293  3.9736 -2.1397
  793MOL0     H 6998   8.358   2.138  10.742 -1.1358 -0.5296  0.6595
  793MOL0     H 6999   8.387   1.988  10.644  1.2738  0.4277 -0.5294
  793MOL0     H 7000   8.248   2.087  10.460 -3.8566  0.3453  1.2520
  793MOL0     H 7001   8.209   2.225  10.556 -3.3451 -2.7673  0.3302
  793MOL0     H 7002   8.504   2.235  10.548  1.9929 -0.6388 -1.3096
  793MOL0     H 7003   8.375   2.308  10.438  1.1501 -0.3465 -1.1203
  793MOL0     H 7004   8.476   2.028  10.366  3.0771  0.5889 -2.0645
  793MOL0     H 7005   8.400   2.158  10.272 -0.1168 -0.3383 -0.3666
  793MOL0     H 7006   8.708   2.027  10.452  0.4395 -2.0948 -2.5517
  793MOL0     H 7007   8.982   2.055  10.189  0.3502 -2.7149  0.9964
  793MOL0     H 7008   9.017   2.196  10.280  0.8694  0.2079 -1.2470
  793MOL0     H 7009   9.024   2.085  10.493  3.5626  0.2627 -0.8021
  793MOL0     H 7010   8.947   1.945  10.424  0.5743  0.7840  0.6461
  793MOL0     H 7011   9.153   1.898  10.295  1.7562 -2.2404  1.5837
  793MOL0     H 7012   9.181   1.925  10.467  0.1067  0.8604  0.5760
  793MOL0     H 7013   9.250   2.172  10.397 -3.0498  0.0993 -1.4803
  793MOL0     H 7014   9.251   2.116  10.225  0.6757  1.0595 -0.0549
  793MOL0     H 7015   9.423   2.288  10.262 -1.4755 -1.5822  2.6249
  793MOL0     H 7016   9.640   2.395  10.211  0.3080  0.1675  0.0909
  793MOL0     H 7017  10.110   2.385  10.060  1.0507  3.1927  2.1262
  793MOL0     H 7018  10.350   2.432  10.098 -2.8993  0.2728 -1.4016
  793MOL0     H 7019  10.539   2.515  10.271  3.7477  1.7106  0.6418
  793MOL0     H 7020  10.474   2.460  10.430 -0.3720 -0.0598  0.8298
  793MOL0     H 7021  10.714   2.532  10.443 -1.1144  0.3513  0.7827
  793MOL0     H 7022  10.670   2.380  10.506 -3.2265  0.3316 -0.3125
  793MOL0     H 7023  10.756   2.263  10.302  2.5872 -0.8263  1.3428
  793MOL0     H 7024  10.775   2.417  10.210  0.5285  1.0491  0.5056
  793MOL0     H 7025  10.921   2.345  10.456 -0.9616  1.7967  1.0662
  793MOL0     H 7026  10.948   2.489  10.361 -1.1141  0.5113  3.2453
  793MOL0     H 7027  10.992   2.348  10.162  1.3239 -1.6080 -0.9369
  793MOL0     H 7028  11.002   2.206  10.245  1.7477 -0.0034 -0.7191
  793MOL0     H 7029  11.185   2.455  10.288  1.0825  0.1497  0.2720
  793MOL0     H 7030  11.184   2.319  10.399 -0.6413  1.2079 -1.0693
  793MOL0     H 7031  11.247   2.273  10.107  0.7796 -0.9070 -0.1788
  793MOL0     H 7032  11.243   2.159  10.218 -1.4269  1.1718  1.0031
  793MOL0     H 7033  11.455   2.206  10.173 -2.5735 -2.3981  0.9985
  793MOL0     H 7034  11.430   2.387  10.193  2.4775 -0.4360 -0.2131
  793MOL0     H 7035  10.360   2.144  10.413  0.3626 -1.7605 -0.5339
  793MOL0     H 7036  10.128   2.116  10.398 -1.6140 -0.1941 -0.7648
  793MOL0     H 7037   9.836   2.030  10.349  0.5245  1.1330 -0.2232
  793MOL0     H 7038   9.628   1.924  10.364 -0.0977  1.0474  1.2252
  793MOL0     H 7039   7.685   1.829  11.064 -0.7894 -0.4540  0.0486
  793MOL0     H 7040   7.482   1.942  11.139 -0.3682  0.1199 -2.3829
  793MOL0     H 7041   7.203   2.107  11.254 -0.0456 -0.5532  1.5992
  793MOL0     H 7042   6.975   2.140  11.324  0.3943 -1.3398 -0.0402
  793MOL0     H 7043   6.834   2.545  11.368 -0.3921 -1.3460 -0.4183
  793MOL0     H 7044   6.861   2.496  11.538  0.7802 -3.1069  1.1145
  793MOL0     H 7045   6.632   2.558  11.522 -2.2432 -0.3848 -2.3377
  793MOL0     H 7046   6.657   2.381  11.538  2.4500  1.7557  2.5214
  793MOL0     H 7047   6.613   2.338  11.296  0.5490  1.0119 -2.3355
  793MOL0     H 7048   6.605   2.509  11.264  1.8388 -0.3983  1.4929
  793MOL0     H 7049   6.393   2.385  11.449  1.5719  0.9274  1.5074
  793MOL0     H 7050   6.399   2.543  11.360  0.1378  0.1673 -1.3941
  793MOL0     H 7051   6.257   2.285  11.062 -2.2262 -3.0601  2.2680
  793MOL0     H 7052   7.029   2.554  11.351  2.7625  0.9032  2.8957
  793MOL0     H 7053   7.396   2.551  11.326 -0.0543 -0.7515  0.3376
  793MOL0     H 7054   7.327   2.602  11.181  1.5107  0.1881  0.9366
  793MOL0     H 7055   7.243   2.657  11.327 -0.8461  0.8625 -2.1719
  794MOL0     O 7056   4.723   5.752  11.105 -0.1875  0.1688 -0.3180
  794MOL0     C 7057   4.692   5.637  11.075  0.5086 -0.1911 -0.3707
  794MOL0     O 7058   4.781   5.531  11.049  0.1533 -0.6613  0.1920
  794MOL0     C 7059   4.915   5.551  11.075 -0.1675 -0.3191 -0.2679
  794MOL0     C 7060   4.999   5.622  10.991  0.0401  0.0218 -0.3381
  794MOL0     C 7061   5.125   5.639  11.026  0.5968  0.8134  0.0968
  794MOL0     C 7062   5.176   5.588  11.144 -0.4818 -0.7828  0.3220
  794MOL0     O 7063   5.306   5.632  11.169 -0.0098  0.4661 -0.1462
  794MOL0     C 7064   5.368   5.624  11.299  1.1241 -0.0032  0.0500
  794MOL0     C 7065   5.519   5.643  11.316  0.8393  0.7588  0.8301
  794MOL0     C 7066   5.600   5.573  11.209 -0.4222  0.3816  0.1848
  794MOL0     C 7067   5.629   5.423  11.243  0.3739  0.3590 -0.5229
  794MOL0     C 7068   5.750   5.371  11.165 -0.6259  0.1642  0.5563
  794MOL0     C 7069   5.882   5.416  11.226 -1.1148 -0.2931  0.7638
  794MOL0     C 7070   6.007   5.354  11.176  0.8088  0.1231  0.4136
  794MOL0     C 7071   6.047   5.387  11.028  0.4170  0.1967  0.3502
  794MOL0     N 7072   6.175   5.326  10.981 -0.8247  0.5790  0.1110
  794MOL0     C 7073   6.209   5.283  10.857 -0.3211 -0.2497  0.6254
  794MOL0     C 7074   6.334   5.241  10.865  1.1790 -0.3066 -0.5658
  794MOL0     C 7075   6.415   5.173  10.760 -0.4410  0.2737 -0.2517
  794MOL0     C 7076   6.538   5.251  10.728  1.1479  0.3594  1.3932
  794MOL0     C 7077   6.620   5.191  10.610 -0.4570 -0.2234 -0.5818
  794MOL0     C 7078   6.745   5.278  10.584  0.3010  0.3120  0.7947
  794MOL0     O 7079   6.849   5.214  10.509 -0.6155 -0.1536  0.5166
  794MOL0     C 7080   6.953   5.299  10.476  0.0991  0.5878 -0.2374
  794MOL0     C 7081   6.962   5.438  10.486  0.0259  0.3934  0.9339
  794MOL0     C 7082   7.082   5.504  10.451  0.8275  0.1185  0.3791
  794MOL0     C 7083   7.191   5.439  10.389 -0.6734  0.2689  0.0292
  794MOL0     C 7084   7.316   5.506  10.366  0.3706  1.0896  0.0167
  794MOL0     O 7085   7.398   5.448  10.253  0.2417  0.1988 -0.6879
  794MOL0     C 7086   7.525   5.483  10.239 -0.9669  0.8601 -0.2136
  794MOL0     C 7087   7.615   5.417  10.321  0.8892 -0.7014 -0.0247
  794MOL0     C 7088   7.749   5.462  10.331 -0.0741  0.5117 -0.9697
  794MOL0     C 7089   7.794   5.557  10.232 -1.0427  0.2325  0.2622
  794MOL0     O 7090   7.918   5.606  10.211 -0.0973  0.0978  0.5452
  794MOL0     C 7091   8.028   5.524  10.265 -0.2461 -0.9299 -0.0174
  794MOL0     C 7092   8.164   5.580  10.214 -0.0204 -1.1924 -0.0232
  794MOL0     C 7093   8.276   5.470  10.215  0.7407 -0.4138  0.0247
  794MOL0     C 7094   8.422   5.523  10.208 -0.4609  0.9303 -0.5736
  794MOL0     C 7095   8.506   5.392  10.185 -0.5318 -0.4078 -0.1827
  794MOL0     C 7096   8.655   5.435  10.176  0.8763 -0.2922  0.5226
  794MOL0     C 7097   8.758   5.322  10.136  0.1112  0.0201 -0.1262
  794MOL0     C 7098   8.896   5.377  10.165  0.0562 -0.8105 -0.0621
  794MOL0    Cl 7099   8.949   5.483  10.028 -0.0324  0.1873 -0.2049
  794MOL0     C 7100   7.698   5.609  10.147 -0.3733 -0.0353  0.0226
  794MOL0     C 7101   7.567   5.575  10.152 -0.0598  0.5442  0.1932
  794MOL0     O 7102   7.341   5.611  10.425  0.5009 -0.3575  0.6302
  794MOL0     C 7103   7.184   5.298  10.384  0.0137 -0.4856  0.1079
  794MOL0     C 7104   7.069   5.229  10.422  0.7574  0.1723 -0.3645
  794MOL0     N 7105   6.375   5.266  10.999 -0.4195  0.3098 -0.2287
  794MOL0     N 7106   6.279   5.320  11.064 -0.0239  0.7742  0.6971
  794MOL0     C 7107   5.103   5.502  11.223  0.9133 -0.0397  0.4753
  794MOL0     C 7108   4.968   5.485  11.190 -0.4324 -0.1557 -0.1439
  794MOL0     C 7109   4.543   5.605  11.049  0.0627 -0.9671  0.1130
  794MOL0     C 7110   4.513   5.497  10.959 -0.4969 -0.2318 -0.1276
  794MOL0     C 7111   4.386   5.465  10.928 -0.3927 -0.2408  1.1946
  794MOL0     C 7112   4.281   5.548  10.968  0.0268 -0.5621 -0.5601
  794MOL0     O 7113   4.156   5.530  10.908 -0.2560 -0.2016 -0.0585
  794MOL0     C 7114   4.034   5.592  10.974 -0.7748 -0.0583  0.0665
  794MOL0     C 7115   3.915   5.552  10.899 -0.7144 -0.2349  0.4497
  794MOL0     C 7116   3.889   5.409  10.920  0.0719 -0.2708  0.1809
  794MOL0     C 7117   3.777   5.362  10.822  0.0191  0.0563 -0.3040
  794MOL0     C 7118   3.744   5.218  10.836  0.0801 -0.3254 -0.4540
  794MOL0     C 7119   3.697   5.102  10.848  1.3978  0.2597 -0.5519
  794MOL0     C 7120   4.309   5.653  11.049  0.0408 -0.0673  0.7088
  794MOL0     C 7121   4.437   5.682  11.097  0.6739  0.5302  0.0176
  794MOL0     C 7122   4.447   5.812  11.178  0.2048 -0.3473 -0.1348
  794MOL0     H 7123   4.953   5.681  10.913 -1.2944  0.5351  0.8021
  794MOL0     H 7124   5.181   5.708  10.964 -0.3241  1.1769 -0.3490
  794MOL0     H 7125   5.326   5.710  11.353  1.4234 -0.0402  0.3384
  794MOL0     H 7126   5.363   5.527  11.349  4.3470 -0.9403 -1.1692
  794MOL0     H 7127   5.555   5.614  11.415 -1.6844 -1.8211  1.1329
  794MOL0     H 7128   5.529   5.750  11.300 -0.4325  0.9303  1.1331
  794MOL0     H 7129   5.697   5.625  11.207 -0.6848  0.9854  1.6221
  794MOL0     H 7130   5.568   5.580  11.105 -1.1052 -2.7539  0.0805
  794MOL0     H 7131   5.636   5.401  11.349  1.9979 -1.0794 -0.8951
  794MOL0     H 7132   5.536   5.375  11.209 -0.0602 -0.3089  1.5055
  794MOL0     H 7133   5.753   5.262  11.168 -1.1315  0.1403  0.2119
  794MOL0     H 7134   5.742   5.408  11.062 -0.6155  2.6639  1.3836
  794MOL0     H 7135   5.897   5.523  11.211 -0.5719 -0.5137 -0.2901
  794MOL0     H 7136   5.875   5.398  11.334 -0.2383 -0.5318  0.7880
  794MOL0     H 7137   6.003   5.247  11.197 -3.0785  0.5707  3.0166
  794MOL0     H 7138   6.095   5.393  11.229  3.4792 -2.4934 -1.7497
  794MOL0     H 7139   5.974   5.352  10.954  0.2836 -1.9443  1.4124
  794MOL0     H 7140   6.036   5.495  11.016 -0.4492  0.1543  0.6806
  794MOL0     H 7141   6.149   5.279  10.766  0.0040  1.5863  0.3041
  794MOL0     H 7142   6.443   5.078  10.806 -0.3358  1.4727  2.3528
  794MOL0     H 7143   6.357   5.158  10.669  0.5405  1.2143 -1.0638
  794MOL0     H 7144   6.501   5.352  10.707 -0.2710 -0.0723  1.7425
  794MOL0     H 7145   6.606   5.249  10.814 -0.5984 -0.7265  2.8228
  794MOL0     H 7146   6.553   5.187  10.524 -1.2461 -0.0361  0.0125
  794MOL0     H 7147   6.658   5.091  10.632  0.7892  0.0246 -1.5118
  794MOL0     H 7148   6.798   5.299  10.677 -0.1749 -0.3759  1.2331
  794MOL0     H 7149   6.702   5.368  10.538  1.8082  1.6833  1.9701
  794MOL0     H 7150   6.880   5.504  10.511  0.4962  2.3641 -2.0982
  794MOL0     H 7151   7.075   5.611  10.466 -1.2679 -0.0726  1.0426
  794MOL0     H 7152   7.574   5.333  10.376  1.5602 -1.1912 -0.2636
  794MOL0     H 7153   7.807   5.420  10.413 -2.4862  1.4990  1.4238
  794MOL0     H 7154   8.016   5.532  10.373  2.2510  1.7053  0.1679
  794MOL0     H 7155   8.020   5.418  10.236  1.5969 -0.9890 -0.3910
  794MOL0     H 7156   8.157   5.619  10.112 -2.2589  0.0534  0.5218
  794MOL0     H 7157   8.201   5.659  10.279  0.5695 -2.1550  0.8468
  794MOL0     H 7158   8.282   5.422  10.313  0.3209  2.9854  1.9019
  794MOL0     H 7159   8.244   5.398  10.139  0.5383  0.7271 -1.0128
  794MOL0     H 7160   8.449   5.563  10.306 -3.3185  1.1891  0.2001
  794MOL0     H 7161   8.427   5.599  10.129 -2.1310  1.4329 -0.2477
  794MOL0     H 7162   8.474   5.330  10.100 -0.1284 -1.5790  0.4897
  794MOL0     H 7163   8.497   5.326  10.272  3.1256  0.7709  1.2743
  794MOL0     H 7164   8.659   5.518  10.105  3.4155 -0.8056 -0.0378
  794MOL0     H 7165   8.689   5.468  10.274 -1.2533 -0.3257  1.3344
  794MOL0     H 7166   8.751   5.302  10.029 -0.9874  0.4256 -0.1415
  794MOL0     H 7167   8.732   5.227  10.185 -1.6039 -0.2507 -1.4327
  794MOL0     H 7168   8.896   5.436  10.257 -0.5939 -0.5029 -0.2548
  794MOL0     H 7169   8.960   5.290  10.181  1.4168 -0.4469 -2.8444
  794MOL0     H 7170   7.721   5.678  10.067 -0.8811  0.1880  0.0611
  794MOL0     H 7171   7.493   5.622  10.088  0.8420  0.9557 -0.5672
  794MOL0     H 7172   7.267   5.240  10.345 -0.0552 -0.5356  0.0337
  794MOL0     H 7173   7.069   5.121  10.412  0.6430  0.2488 -1.2558
  794MOL0     H 7174   5.150   5.446  11.304  1.7081 -0.2518 -0.1169
  794MOL0     H 7175   4.903   5.419  11.247  0.4105 -2.8415 -2.0670
  794MOL0     H 7176   4.592   5.435  10.918  0.1397 -0.0996  0.8782
  794MOL0     H 7177   4.370   5.378  10.865  4.0257  1.3247 -2.6356
  794MOL0     H 7178   4.041   5.701  10.973 -0.1547 -0.0217  2.4280
  794MOL0     H 7179   4.024   5.543  11.071 -0.6779 -0.9073 -0.3408
  794MOL0     H 7180   3.929   5.563  10.791 -3.3305 -0.9125 -0.0172
  794MOL0     H 7181   3.825   5.609  10.921 -0.8401  1.2872 -3.2152
  794MOL0     H 7182   3.845   5.391  11.019 -0.9152 -0.0318 -0.2058
  794MOL0     H 7183   3.982   5.352  10.914 -0.3688 -1.6661  3.7816
  794MOL0     H 7184   3.688   5.417  10.852  2.0736  2.5057  1.8163
  794MOL0     H 7185   3.780   5.391  10.716  0.7773  0.0514 -0.2902
  794MOL0     H 7186   3.656   5.005  10.868  0.3429  0.8945  0.5003
  794MOL0     H 7187   4.223   5.714  11.078 -0.6931  1.1078 -3.3506
  794MOL0     H 7188   4.505   5.806  11.271  1.2285 -1.9415 -0.8470
  794MOL0     H 7189   4.496   5.888  11.116  0.9933 -0.5320  0.2479
  794MOL0     H 7190   4.346   5.847  11.204  0.2727 -0.5222  0.3753
  795MOL0     O 7191   2.068   5.161  10.642 -0.1954 -0.1554 -0.2199
  795MOL0     C 7192   2.027   5.049  10.654  0.1922 -0.5662  0.2970
  795MOL0     O 7193   2.074   4.948  10.572 -0.1465 -0.2848 -0.5472
  795MOL0     C 7194   2.196   4.958  10.510 -0.2015 -0.4284 -0.2309
  795MOL0     C 7195   2.202   4.893  10.384 -0.3046  0.7923 -0.4403
  795MOL0     C 7196   2.323   4.881  10.311 -0.2865  0.0904 -0.2148
  795MOL0     C 7197   2.438   4.940  10.364 -0.3757 -0.0337  0.3388
  795MOL0     O 7198   2.554   4.917  10.294  0.6031 -0.1500  1.3558
  795MOL0     C 7199   2.615   5.036  10.235  0.5075  0.5412  0.9274
  795MOL0     C 7200   2.536   5.078  10.103  0.0762  0.1770 -0.5215
  795MOL0     C 7201   2.585   5.009   9.980  0.5187 -0.0590 -0.2439
  795MOL0     C 7202   2.483   4.994   9.869 -0.4661 -1.0001  0.2827
  795MOL0     C 7203   2.540   4.936   9.743 -1.2796 -0.5670  0.6464
  795MOL0     C 7204   2.619   4.798   9.764  0.6563 -0.6936  0.6201
  795MOL0     C 7205   2.662   4.732   9.633  0.8985  0.4729  0.6850
  795MOL0     C 7206   2.770   4.823   9.555 -0.0897 -0.1235 -0.0142
  795MOL0     N 7207   2.889   4.856   9.630 -0.4899  0.0041  0.4507
  795MOL0     C 7208   2.963   4.761   9.699 -0.5395  0.6001 -0.1452
  795MOL0     C 7209   3.062   4.833   9.751 -0.7029 -0.3700 -1.0555
  795MOL0     C 7210   3.156   4.769   9.845  0.0331 -0.1123 -0.0040
  795MOL0     C 7211   3.269   4.713   9.770 -0.0318  0.4759  0.9036
  795MOL0     C 7212   3.373   4.650   9.863 -0.2260 -0.5226  0.3585
  795MOL0     C 7213   3.471   4.744   9.935 -0.0619 -0.1639 -0.2070
  795MOL0     O 7214   3.594   4.666   9.951 -0.2984 -0.0813 -0.1809
  795MOL0     C 7215   3.709   4.734  10.000 -0.0342  0.4684  0.5069
  795MOL0     C 7216   3.714   4.871  10.028  0.3399 -0.4067 -0.5261
  795MOL0     C 7217   3.834   4.934  10.074 -0.3976  0.7623  0.1071
  795MOL0     C 7218   3.955   4.853  10.084  0.0246 -0.2150  0.5035
  795MOL0     C 7219   4.085   4.923  10.110 -0.2994  0.1344 -0.6030
  795MOL0     O 7220   4.096   5.058  10.105 -0.6434  0.4310  0.3828
  795MOL0     C 7221   4.213   5.119  10.135 -0.5770  0.2077 -0.2969
  795MOL0     C 7222   4.212   5.210  10.240  0.3506  0.9059  0.2039
  795MOL0     C 7223   4.322   5.290  10.260  0.5396 -0.5121 -0.1297
  795MOL0     C 7224   4.439   5.274  10.179  0.1649  0.3276 -0.2062
  795MOL0     O 7225   4.548   5.352  10.180 -0.2595  0.1682 -0.2393
  795MOL0     C 7226   4.556   5.452  10.281 -1.3896 -0.4921  0.3170
  795MOL0     C 7227   4.700   5.493  10.283  0.0732 -0.3937  0.3593
  795MOL0     C 7228   4.730   5.595  10.168  1.0642 -0.1351  1.3604
  795MOL0     C 7229   4.877   5.636  10.171  0.7845  0.1480 -0.2614
  795MOL0     C 7230   4.924   5.729  10.057 -0.2616 -0.6360  0.3516
  795MOL0     C 7231   4.882   5.690   9.915  0.2071 -0.5251 -0.1385
  795MOL0     C 7232   4.957   5.787   9.819  0.0210 -0.1148 -0.1835
  795MOL0     C 7233   4.928   5.755   9.675 -0.0124  0.2107 -0.2227
  795MOL0    Cl 7234   5.023   5.859   9.578 -0.1202 -0.4600 -0.0091
  795MOL0     C 7235   4.442   5.174  10.079 -0.7091 -0.9798 -0.2993
  795MOL0     C 7236   4.331   5.098  10.063  0.3360  0.4778  0.3895
  795MOL0     O 7237   4.178   4.841  10.134 -0.5616 -0.2763 -0.5870
  795MOL0     C 7238   3.943   4.714  10.054  0.2758 -0.4778 -1.3550
  795MOL0     C 7239   3.818   4.663  10.021 -0.4047  0.6080 -0.3047
  795MOL0     N 7240   3.045   4.972   9.725 -0.3587  0.3105 -0.7740
  795MOL0     N 7241   2.942   4.975   9.641 -0.6530  0.1391 -0.6083
  795MOL0     C 7242   2.435   5.000  10.492 -0.1550  0.1857 -0.2405
  795MOL0     C 7243   2.315   5.014  10.561 -0.0376  0.1563  1.1505
  795MOL0     C 7244   1.906   5.021  10.738 -0.3136  0.1640 -0.1851
  795MOL0     C 7245   1.869   4.884  10.763  0.0726  0.4963  0.6779
  795MOL0     C 7246   1.780   4.847  10.864 -0.1347 -1.0418  0.1305
  795MOL0     C 7247   1.706   4.954  10.916  0.4125 -0.0092 -0.2296
  795MOL0     O 7248   1.612   4.930  11.010  0.0453 -0.0231  0.2493
  795MOL0     C 7249   1.554   4.793  11.030  0.2122 -0.6079 -0.7920
  795MOL0     C 7250   1.451   4.758  10.914  0.7624  0.8213 -0.7457
  795MOL0     C 7251   1.331   4.853  10.897 -0.4086  0.0248 -0.3974
  795MOL0     C 7252   1.227   4.796  10.803 -0.8206  0.3295 -0.5033
  795MOL0     C 7253   1.111   4.887  10.796  1.1045 -0.0316 -0.1321
  795MOL0     C 7254   1.007   4.960  10.807 -0.4166 -0.5113 -0.9476
  795MOL0     C 7255   1.724   5.084  10.874  0.5763  0.1774  0.1053
  795MOL0     C 7256   1.825   5.124  10.785  0.4280 -0.0355 -0.3461
  795MOL0     C 7257   1.843   5.272  10.771  0.1292  0.4578 -0.1720
  795MOL0     H 7258   2.110   4.851  10.346 -1.3651 -0.6380  3.2780
  795MOL0     H 7259   2.322   4.829  10.216 -2.1895 -0.5739  0.1200
  795MOL0     H 7260   2.612   5.121  10.303 -0.1278 -0.3544  2.0422
  795MOL0     H 7261   2.720   5.014  10.212  0.4119 -0.7643  1.6594
  795MOL0     H 7262   2.552   5.186  10.093  1.2482 -0.0364 -1.1446
  795MOL0     H 7263   2.429   5.063  10.121 -0.3968  1.3280 -2.1164
  795MOL0     H 7264   2.597   4.907  10.018  1.6858  0.3826  0.6242
  795MOL0     H 7265   2.682   5.043   9.941  1.0428 -0.2991  0.8127
  795MOL0     H 7266   2.399   4.934   9.906  0.2013 -2.0043  0.1826
  795MOL0     H 7267   2.460   5.092   9.826  1.8044 -0.8625 -0.7812
  795MOL0     H 7268   2.457   4.922   9.673  0.4063  2.5269 -2.2344
  795MOL0     H 7269   2.600   5.011   9.691 -2.9005  0.1171 -0.3295
  795MOL0     H 7270   2.704   4.818   9.829 -0.3735 -0.0977  1.8370
  795MOL0     H 7271   2.544   4.727   9.800 -1.0093 -0.0945 -1.4447
  795MOL0     H 7272   2.578   4.713   9.565  1.5653 -2.2051  0.5252
  795MOL0     H 7273   2.703   4.634   9.657 -0.7544 -0.1096  1.2684
  795MOL0     H 7274   2.789   4.770   9.461 -1.6860 -0.0244 -0.4135
  795MOL0     H 7275   2.719   4.915   9.525  0.0639  0.5538  1.6913
  795MOL0     H 7276   2.948   4.653   9.704 -1.9021  0.6178 -2.3244
  795MOL0     H 7277   3.197   4.846   9.910  1.9745  1.2376 -2.6622
  795MOL0     H 7278   3.118   4.687   9.907 -0.7068  2.3068  2.9627
  795MOL0     H 7279   3.231   4.627   9.715 -1.0974  1.3012  0.3224
  795MOL0     H 7280   3.320   4.781   9.701 -0.1506  1.2691  1.5802
  795MOL0     H 7281   3.446   4.602   9.798  1.7886  1.9920  0.6065
  795MOL0     H 7282   3.332   4.574   9.930  0.2155 -1.2759 -0.2177
  795MOL0     H 7283   3.419   4.784  10.023  0.5813  3.1173 -1.1819
  795MOL0     H 7284   3.501   4.830   9.874  2.6129 -1.8057 -1.3811
  795MOL0     H 7285   3.632   4.942  10.023  1.8401  1.5922  1.1766
  795MOL0     H 7286   3.831   5.037  10.109  0.4678  0.4791  1.0544
  795MOL0     H 7287   4.120   5.219  10.297 -0.5469 -1.1604 -0.8329
  795MOL0     H 7288   4.319   5.369  10.335  1.2579  0.6423 -1.2797
  795MOL0     H 7289   4.493   5.539  10.259 -1.8152  0.0726  3.2852
  795MOL0     H 7290   4.529   5.413  10.380 -1.1601 -1.7807 -0.1145
  795MOL0     H 7291   4.723   5.552  10.372 -1.4312  0.1637  0.4107
  795MOL0     H 7292   4.760   5.402  10.294 -0.2051 -0.6613 -0.2922
  795MOL0     H 7293   4.708   5.554  10.069 -2.1897  4.9812 -0.4279
  795MOL0     H 7294   4.666   5.684  10.167  0.1514 -0.6872 -1.6701
  795MOL0     H 7295   4.934   5.543  10.159 -0.3726 -0.4155 -1.8348
  795MOL0     H 7296   4.905   5.671  10.271 -0.3712  0.0494  0.1119
  795MOL0     H 7297   5.032   5.739  10.070 -0.4217 -0.4962  1.6555
  795MOL0     H 7298   4.874   5.825  10.068 -2.9400 -1.8739 -0.0855
  795MOL0     H 7299   4.915   5.586   9.920  2.3704 -0.1505 -3.4398
  795MOL0     H 7300   4.774   5.692   9.897  0.3156  0.0513 -0.7625
  795MOL0     H 7301   5.065   5.774   9.832 -0.2188 -0.3557  1.8829
  795MOL0     H 7302   4.930   5.890   9.844 -1.2027 -0.2999 -0.6399
  795MOL0     H 7303   4.960   5.654   9.647 -0.4749  0.4355 -1.6485
  795MOL0     H 7304   4.823   5.775   9.652 -0.1810  0.1441  0.4621
  795MOL0     H 7305   4.525   5.175  10.009  1.4515 -2.3449  2.0652
  795MOL0     H 7306   4.333   5.024   9.984 -1.2375  0.8287 -0.0021
  795MOL0     H 7307   4.011   4.631  10.070 -0.4609 -0.8627 -0.0499
  795MOL0     H 7308   3.802   4.556  10.010  1.7025  0.4471 -2.7331
  795MOL0     H 7309   2.532   5.029  10.529  0.8868  0.6563 -3.0699
  795MOL0     H 7310   2.320   5.062  10.658  0.6496 -0.2308  1.3166
  795MOL0     H 7311   1.934   4.801  10.736 -0.5906 -0.5524  2.1796
  795MOL0     H 7312   1.760   4.745  10.894 -1.5217 -0.3402  1.7713
  795MOL0     H 7313   1.507   4.778  11.128 -2.6757 -1.3761 -2.2126
  795MOL0     H 7314   1.638   4.723  11.021  1.9413  1.6299 -4.2990
  795MOL0     H 7315   1.409   4.658  10.931 -0.8225  1.1808 -2.3159
  795MOL0     H 7316   1.518   4.750  10.828  2.0452 -1.3395  0.3450
  795MOL0     H 7317   1.376   4.943  10.855  0.5788  0.0119  0.5827
  795MOL0     H 7318   1.287   4.887  10.992  1.0241  0.7021  0.0450
  795MOL0     H 7319   1.284   4.777  10.712 -0.2265 -1.2315  0.1684
  795MOL0     H 7320   1.192   4.699  10.842 -1.7823  0.9610  0.2791
  795MOL0     H 7321   0.913   5.010  10.816 -0.3341  0.3948 -4.1056
  795MOL0     H 7322   1.650   5.151  10.916  1.3565  1.3562 -0.3719
  795MOL0     H 7323   1.939   5.294  10.818  0.5010 -0.1266 -0.6432
  795MOL0     H 7324   1.848   5.311  10.669 -0.1415  0.4763 -0.1784
  795MOL0     H 7325   1.753   5.306  10.822 -2.0273 -5.1483  0.3753
  796MOL0     O 7326   4.135  10.706   1.577 -0.7147  0.3372  0.4390
  796MOL0     C 7327   4.106  10.688   1.455 -0.1457 -0.1625 -0.1986
  796MOL0     O 7328   4.165  10.758   1.353  0.4922 -0.3311  0.4560
  796MOL0     C 7329   4.195  10.891   1.383 -0.6410 -0.6318  0.0839
  796MOL0     C 7330   4.101  10.992   1.371  0.3055  0.2496 -0.4348
  796MOL0     C 7331   4.124  11.124   1.399  0.3371  0.0354 -1.1690
  796MOL0     C 7332   4.250  11.158   1.451 -0.4012  0.2461  0.0652
  796MOL0     O 7333   4.280  11.285   1.482 -0.0930 -0.4357 -0.1606
  796MOL0     C 7334   4.171  11.381   1.502 -0.5445 -0.3281 -0.1398
  796MOL0     C 7335   4.224  11.497   1.581  0.6048  0.0506 -0.1205
  796MOL0     C 7336   4.210  11.469   1.733  0.9500  0.0544 -0.6774
  796MOL0     C 7337   4.285  11.350   1.776 -0.2610 -0.3170 -0.0838
  796MOL0     C 7338   4.434  11.360   1.750 -1.0355 -0.4471  0.0141
  796MOL0     C 7339   4.511  11.228   1.783 -0.6218 -0.0622 -0.0268
  796MOL0     C 7340   4.661  11.255   1.761 -0.0828 -0.8186 -0.5244
  796MOL0     C 7341   4.752  11.150   1.817 -0.8749 -0.0367  0.0904
  796MOL0     N 7342   4.900  11.185   1.810 -0.0586 -0.1287  0.3838
  796MOL0     C 7343   4.963  11.257   1.914 -0.2791 -0.2142  0.0540
  796MOL0     C 7344   5.087  11.286   1.865  0.4998  0.7903  0.5633
  796MOL0     C 7345   5.197  11.359   1.929  0.1144 -0.0526 -0.0826
  796MOL0     C 7346   5.274  11.288   2.043  0.7629 -0.5370  0.3727
  796MOL0     C 7347   5.344  11.157   1.994 -0.6594 -0.1309 -0.8240
  796MOL0     C 7348   5.427  11.092   2.102  0.7532 -0.6339  0.5295
  796MOL0     O 7349   5.538  11.163   2.145 -0.2630 -0.3737  0.3952
  796MOL0     C 7350   5.634  11.098   2.229  0.2847  0.2434  0.8852
  796MOL0     C 7351   5.643  10.960   2.258 -0.4030 -0.2380 -0.0444
  796MOL0     C 7352   5.739  10.900   2.345 -0.0488 -0.0594 -0.2539
  796MOL0     C 7353   5.838  10.981   2.404 -0.0190 -0.9046 -0.5082
  796MOL0     C 7354   5.948  10.925   2.487 -0.6226  0.0059 -0.3559
  796MOL0     O 7355   6.017  11.015   2.572 -0.2089  0.2892  0.4730
  796MOL0     C 7356   6.084  10.972   2.684  0.0584  0.0766 -0.6551
  796MOL0     C 7357   6.215  10.925   2.680 -0.6446 -0.3336  0.0539
  796MOL0     C 7358   6.278  10.902   2.805  0.4127 -0.6136  0.3705
  796MOL0     C 7359   6.208  10.904   2.923  0.6494 -0.4598  0.1754
  796MOL0     O 7360   6.276  10.864   3.038  0.4064  0.4519  0.0923
  796MOL0     C 7361   6.209  10.847   3.162 -0.9162 -0.0560  0.7331
  796MOL0     C 7362   6.211  10.975   3.241 -0.2860  0.5573 -0.0174
  796MOL0     C 7363   6.084  10.995   3.319 -1.0544 -0.5053 -0.3165
  796MOL0     C 7364   6.073  11.133   3.387  0.3594 -0.6566 -0.4754
  796MOL0     C 7365   5.932  11.150   3.446  0.4161 -0.3434  0.0745
  796MOL0     C 7366   5.818  11.176   3.346 -0.3720  0.2500 -0.3663
  796MOL0     C 7367   5.722  11.060   3.342  0.3924  1.1143 -0.5551
  796MOL0     C 7368   5.595  11.103   3.261  0.5249 -0.0682  0.0137
  796MOL0    Cl 7369   5.484  11.206   3.360 -0.1844 -0.6029 -0.1220
  796MOL0     C 7370   6.078  10.955   2.921  0.2554  0.7902 -0.4237
  796MOL0     C 7371   6.016  10.988   2.802  0.0719 -0.4693 -0.3185
  796MOL0     O 7372   5.963  10.802   2.491  0.0559  0.2620 -0.5618
  796MOL0     C 7373   5.841  11.120   2.373  0.1184  0.4561  0.4057
  796MOL0     C 7374   5.735  11.174   2.295 -0.4408 -0.2121  1.0621
  796MOL0     N 7375   5.105  11.234   1.733 -0.0957 -0.1700 -0.6506
  796MOL0     N 7376   4.988  11.182   1.706 -0.2710  0.1145 -0.0540
  796MOL0     C 7377   4.350  11.058   1.466 -0.1639 -0.5532  0.2020
  796MOL0     C 7378   4.323  10.927   1.427 -0.2396 -0.8448 -0.6469
  796MOL0     C 7379   3.998  10.597   1.422  0.4440  0.4992  0.1185
  796MOL0     C 7380   3.991  10.533   1.295 -0.1470 -0.0098  0.4476
  796MOL0     C 7381   3.873  10.471   1.255  0.5102  0.1124  0.0939
  796MOL0     C 7382   3.764  10.459   1.337  0.3219 -0.3921  0.6919
  796MOL0     O 7383   3.650  10.391   1.300  0.8771  0.9791 -0.5517
  796MOL0     C 7384   3.630  10.293   1.201 -0.3608  0.3972  0.0708
  796MOL0     C 7385   3.587  10.380   1.084 -0.1127  1.2546 -0.1022
  796MOL0     C 7386   3.468  10.477   1.115 -0.0622  0.1766  0.6563
  796MOL0     C 7387   3.338  10.414   1.172 -0.1167  0.6971 -0.6835
  796MOL0     C 7388   3.293  10.297   1.082  0.1246 -0.8566 -0.0644
  796MOL0     C 7389   3.275  10.203   1.006  0.6827 -0.2592  0.4530
  796MOL0     C 7390   3.766  10.522   1.464 -0.3126  0.0454 -0.2119
  796MOL0     C 7391   3.886  10.586   1.513  0.1245  1.1721  0.8194
  796MOL0     C 7392   3.885  10.644   1.661  0.2398  0.0367 -0.5633
  796MOL0     H 7393   4.003  10.973   1.328 -0.3725 -1.2439  1.5504
  796MOL0     H 7394   4.051  11.197   1.366  0.9231 -0.2663 -3.3036
  796MOL0     H 7395   4.138  11.420   1.405  1.6895 -2.9518 -2.1103
  796MOL0     H 7396   4.085  11.330   1.547 -0.0820 -1.8982 -0.9641
  796MOL0     H 7397   4.165  11.590   1.575 -0.1543 -0.4166 -0.0197
  796MOL0     H 7398   4.324  11.528   1.551  0.1039  0.6288 -1.2905
  796MOL0     H 7399   4.105  11.467   1.765  1.2119  2.5645  0.6884
  796MOL0     H 7400   4.250  11.558   1.783  0.4813  0.0942 -0.3600
  796MOL0     H 7401   4.273  11.338   1.884 -0.2863 -1.5326 -0.2110
  796MOL0     H 7402   4.238  11.257   1.744 -2.2839  0.3048  0.8912
  796MOL0     H 7403   4.453  11.392   1.647  1.1487 -0.0884  0.4874
  796MOL0     H 7404   4.478  11.445   1.803 -0.4951  0.1907 -1.4054
  796MOL0     H 7405   4.495  11.199   1.887  2.2518  1.7309  1.0675
  796MOL0     H 7406   4.475  11.145   1.722  1.1185 -0.1513 -1.0198
  796MOL0     H 7407   4.694  11.353   1.797  2.4573 -1.7791 -0.0964
  796MOL0     H 7408   4.673  11.244   1.652 -3.5109  0.3197 -1.1515
  796MOL0     H 7409   4.733  11.130   1.923  0.9534 -1.6028  0.1912
  796MOL0     H 7410   4.738  11.053   1.769 -1.0519 -2.3177  4.2753
  796MOL0     H 7411   4.916  11.282   2.009 -1.3035 -0.1511 -0.4503
  796MOL0     H 7412   5.271  11.391   1.855  0.6567 -0.2919  0.3458
  796MOL0     H 7413   5.146  11.447   1.969  0.5869  1.1887 -2.0858
  796MOL0     H 7414   5.350  11.363   2.067  0.4982 -0.0082 -0.3720
  796MOL0     H 7415   5.208  11.283   2.129 -2.6769  2.4863 -1.7977
  796MOL0     H 7416   5.421  11.175   1.919 -1.0210  1.5951 -0.8102
  796MOL0     H 7417   5.278  11.085   1.945 -0.4877  0.3937 -1.8544
  796MOL0     H 7418   5.450  10.996   2.057  0.1889  0.2910 -1.8616
  796MOL0     H 7419   5.371  11.082   2.196  0.1845  0.6850  0.3632
  796MOL0     H 7420   5.576  10.895   2.203  0.3148 -0.8534 -0.2007
  796MOL0     H 7421   5.743  10.793   2.359 -0.3683 -0.4934 -3.0681
  796MOL0     H 7422   6.275  10.913   2.590  0.0843  2.1542  0.1411
  796MOL0     H 7423   6.379  10.864   2.806  0.7054  0.1552  1.1743
  796MOL0     H 7424   6.108  10.806   3.153  0.3605 -3.5905  0.9685
  796MOL0     H 7425   6.260  10.774   3.225  0.1628 -2.4593 -2.6150
  796MOL0     H 7426   6.290  10.971   3.316  0.1984  3.3230 -0.2404
  796MOL0     H 7427   6.237  11.062   3.179  1.5399  0.3378  0.3935
  796MOL0     H 7428   5.998  10.979   3.254 -2.4166 -1.7844  1.6882
  796MOL0     H 7429   6.066  10.912   3.388 -2.9094 -2.0731 -2.5517
  796MOL0     H 7430   6.083  11.217   3.317 -0.6244  0.7674  1.0251
  796MOL0     H 7431   6.146  11.142   3.468 -1.3698 -1.6689  1.2743
  796MOL0     H 7432   5.940  11.253   3.483 -0.8335 -0.5869  1.1199
  796MOL0     H 7433   5.912  11.076   3.524  1.2244 -0.2091  0.4167
  796MOL0     H 7434   5.764  11.265   3.379  1.9706  1.3637  0.6851
  796MOL0     H 7435   5.864  11.199   3.249  2.5423 -0.2425  0.7922
  796MOL0     H 7436   5.692  11.034   3.444  2.4362  1.3896  0.1526
  796MOL0     H 7437   5.756  10.971   3.289 -0.5203  1.7138 -2.2641
  796MOL0     H 7438   5.633  11.157   3.174  1.1859  0.3989  0.5746
  796MOL0     H 7439   5.542  11.013   3.228 -1.5691  1.0649  0.1985
  796MOL0     H 7440   6.016  10.963   3.009 -1.8853 -2.8382 -1.4051
  796MOL0     H 7441   5.912  11.022   2.803  0.9280  2.4088  0.7855
  796MOL0     H 7442   5.916  11.185   2.419 -0.2059  1.6659 -0.7163
  796MOL0     H 7443   5.739  11.281   2.274  2.6912 -0.4934 -0.4816
  796MOL0     H 7444   4.449  11.088   1.497 -0.0468  0.7153 -1.2799
  796MOL0     H 7445   4.391  10.842   1.432  3.2520  1.6706 -1.4005
  796MOL0     H 7446   4.076  10.534   1.228 -1.6278  2.0026 -1.5373
  796MOL0     H 7447   3.880  10.426   1.156  1.5491  0.2032  0.1169
  796MOL0     H 7448   3.562  10.221   1.246 -1.3948  1.1405 -0.2514
  796MOL0     H 7449   3.726  10.245   1.179  0.9942  1.8323  2.4530
  796MOL0     H 7450   3.545  10.315   1.007 -2.6001  2.1373  0.4080
  796MOL0     H 7451   3.672  10.440   1.049 -1.0778  2.5744 -0.2762
  796MOL0     H 7452   3.454  10.520   1.016  4.3669 -0.5974 -0.5312
  796MOL0     H 7453   3.501  10.552   1.188 -2.3053  1.6787  0.2220
  796MOL0     H 7454   3.360  10.386   1.276 -1.0079  3.5649  0.3832
  796MOL0     H 7455   3.255  10.485   1.172 -1.8912 -1.2630 -1.2681
  796MOL0     H 7456   3.264  10.122   0.937  2.5546  1.6391 -2.2937
  796MOL0     H 7457   3.678  10.509   1.527  0.3780  0.8269  0.9584
  796MOL0     H 7458   3.786  10.641   1.708 -0.0146  3.1813 -0.6835
  796MOL0     H 7459   3.964  10.605   1.726  0.4051  0.9233 -0.2278
  796MOL0     H 7460   3.912  10.749   1.662  0.3814 -0.0029  0.6747
  797MOL0     O 7461  10.032   1.170   1.880 -0.7101 -0.0895  0.4520
  797MOL0     C 7462   9.960   1.078   1.901  0.5886  0.1718  0.4208
  797MOL0     O 7463   9.993   0.943   1.892  0.5557 -0.1011 -0.3934
  797MOL0     C 7464  10.130   0.915   1.894  0.1199  0.3994  0.8319
  797MOL0     C 7465  10.200   0.934   2.013 -0.2515  0.3071  0.5809
  797MOL0     C 7466  10.343   0.912   2.015  0.8368  0.5381 -0.1491
  797MOL0     C 7467  10.407   0.859   1.903 -0.5382  0.0917  0.0307
  797MOL0     O 7468  10.542   0.837   1.903 -0.5453  0.0612 -0.3006
  797MOL0     C 7469  10.604   0.807   2.025  0.0763 -0.0207 -0.0867
  797MOL0     C 7470  10.745   0.753   2.004 -0.0831  0.2840  0.1770
  797MOL0     C 7471  10.746   0.634   1.916 -0.3647  0.1480  0.0865
  797MOL0     C 7472  10.725   0.503   1.993 -0.1817  0.8997  0.6210
  797MOL0     C 7473  10.708   0.377   1.907  0.0069  0.7861  0.2701
  797MOL0     C 7474  10.720   0.233   1.968  0.5645 -0.7746 -0.5017
  797MOL0     C 7475  10.626   0.192   2.086  0.5509  0.4249 -0.0330
  797MOL0     C 7476  10.482   0.175   2.033 -0.4797  0.1034  0.1585
  797MOL0     N 7477  10.417   0.307   2.006  0.8439  0.0418  0.6130
  797MOL0     C 7478  10.379   0.381   2.114  0.8660 -0.3005  1.1048
  797MOL0     C 7479  10.285   0.465   2.066  0.2310 -0.6000 -0.0082
  797MOL0     C 7480  10.199   0.561   2.146 -0.2974  0.6602 -0.1763
  797MOL0     C 7481  10.049   0.497   2.152  0.2349 -0.2797  0.2014
  797MOL0     C 7482   9.960   0.591   2.234 -0.8577  0.5958  0.2942
  797MOL0     C 7483   9.906   0.699   2.143 -0.8377 -0.8638 -0.1079
  797MOL0     O 7484   9.803   0.659   2.060  0.3390  0.4001  0.3320
  797MOL0     C 7485   9.665   0.660   2.100  0.0913  0.1313 -0.4648
  797MOL0     C 7486   9.566   0.631   2.005 -0.2269  0.0438 -0.2485
  797MOL0     C 7487   9.428   0.643   2.035 -0.6903  0.1973  0.0914
  797MOL0     C 7488   9.383   0.686   2.159 -0.3198 -0.9824  0.0070
  797MOL0     C 7489   9.244   0.685   2.197  0.0857 -0.0478 -0.2034
  797MOL0     O 7490   9.206   0.763   2.306  0.0379  0.6624  0.2495
  797MOL0     C 7491   9.089   0.836   2.308 -0.7399  0.0507 -0.3698
  797MOL0     C 7492   9.088   0.913   2.418  0.1129 -0.3392  0.2759
  797MOL0     C 7493   8.972   0.989   2.451  0.1172 -0.0740  0.7316
  797MOL0     C 7494   8.865   1.006   2.366 -0.7527  0.5982 -0.6658
  797MOL0     O 7495   8.760   1.084   2.402 -0.0272  0.8874 -0.0310
  797MOL0     C 7496   8.683   1.142   2.288  0.8669  0.3752  0.0897
  797MOL0     C 7497   8.587   1.232   2.352  0.2350 -0.4667  0.1603
  797MOL0     C 7498   8.652   1.366   2.386 -0.0645  0.7142 -0.2801
  797MOL0     C 7499   8.639   1.457   2.262 -0.7243  0.2511  0.3264
  797MOL0     C 7500   8.715   1.584   2.263 -0.1904  0.0075 -0.1824
  797MOL0     C 7501   8.701   1.675   2.137  0.3561 -0.0789  0.1708
  797MOL0     C 7502   8.556   1.692   2.092  0.0164 -0.0966 -1.0562
  797MOL0     C 7503   8.541   1.800   1.995  0.0040 -0.5858  0.5796
  797MOL0    Cl 7504   8.627   1.767   1.852  0.5638 -0.4399  0.2058
  797MOL0     C 7505   8.869   0.918   2.254  0.7098  0.3268 -0.1494
  797MOL0     C 7506   8.979   0.837   2.220  0.2863  0.2813 -0.0949
  797MOL0     O 7507   9.169   0.636   2.118  0.4975 -0.4330  0.1787
  797MOL0     C 7508   9.481   0.719   2.250 -0.6900 -0.8900 -0.2859
  797MOL0     C 7509   9.612   0.710   2.224 -0.8088  0.2556  0.1805
  797MOL0     N 7510  10.262   0.432   1.937 -0.1803  0.6719 -0.0720
  797MOL0     N 7511  10.342   0.343   1.900  0.1024 -0.0673  0.0102
  797MOL0     C 7512  10.327   0.825   1.791  1.0511  0.0900  0.1118
  797MOL0     C 7513  10.189   0.857   1.792 -0.2954  0.7134  0.6235
  797MOL0     C 7514   9.826   1.115   1.952 -0.4052 -0.6762  1.1791
  797MOL0     C 7515   9.734   1.014   1.968 -1.3501  0.0364  0.9768
  797MOL0     C 7516   9.612   1.023   2.035 -0.3533  0.4630  0.0101
  797MOL0     C 7517   9.572   1.151   2.076 -0.2059 -0.0245 -0.0455
  797MOL0     O 7518   9.463   1.172   2.147  0.5667  0.3169  0.1637
  797MOL0     C 7519   9.353   1.089   2.122 -0.0144 -0.5469 -0.2335
  797MOL0     C 7520   9.212   1.129   2.184 -0.5183 -0.2061 -0.1910
  797MOL0     C 7521   9.166   1.254   2.101 -0.0108  0.3838 -0.1657
  797MOL0     C 7522   9.026   1.289   2.136  0.5855 -0.6892  0.6126
  797MOL0     C 7523   9.026   1.363   2.260 -0.1039 -1.1183 -0.8784
  797MOL0     C 7524   9.028   1.442   2.354  0.9457  0.5842  0.8206
  797MOL0     C 7525   9.666   1.256   2.069  0.7367  0.4102  0.9541
  797MOL0     C 7526   9.785   1.246   1.993  0.0556  0.8909 -0.6016
  797MOL0     C 7527   9.857   1.376   1.996 -0.0512 -0.8652 -0.1150
  797MOL0     H 7528  10.137   0.977   2.090  0.5078  2.0896  0.2384
  797MOL0     H 7529  10.400   0.944   2.102  0.6704 -1.7388  0.8797
  797MOL0     H 7530  10.614   0.896   2.088 -0.5532 -0.8481  1.2181
  797MOL0     H 7531  10.543   0.728   2.069 -1.3577  1.1400  0.0716
  797MOL0     H 7532  10.773   0.718   2.104  1.0450  2.2032  0.5926
  797MOL0     H 7533  10.807   0.836   1.969  0.4980  0.5045  1.6379
  797MOL0     H 7534  10.847   0.639   1.873  0.5825 -0.5118  2.1033
  797MOL0     H 7535  10.682   0.647   1.828  1.3765  0.1599 -1.2603
  797MOL0     H 7536  10.807   0.492   2.064  0.4327  3.9475  0.5065
  797MOL0     H 7537  10.636   0.511   2.057  1.2960 -1.2663  3.1329
  797MOL0     H 7538  10.618   0.389   1.847  0.2286  0.4831 -0.1340
  797MOL0     H 7539  10.784   0.387   1.829 -0.0570  2.2831  0.3800
  797MOL0     H 7540  10.693   0.162   1.889  0.1756 -1.6011  0.3532
  797MOL0     H 7541  10.825   0.208   1.988 -0.0050 -2.2559  0.8946
  797MOL0     H 7542  10.628   0.261   2.171 -2.8641 -0.2052  0.7075
  797MOL0     H 7543  10.658   0.090   2.110  1.1874  0.2790 -1.4110
  797MOL0     H 7544  10.488   0.133   1.933 -2.8760  0.3423 -0.1350
  797MOL0     H 7545  10.424   0.116   2.105 -0.0238 -0.8868 -0.2684
  797MOL0     H 7546  10.404   0.378   2.219  1.1013 -0.0020  1.0589
  797MOL0     H 7547  10.232   0.578   2.249  1.0225 -3.1078  0.1551
  797MOL0     H 7548  10.190   0.649   2.081  1.3101  0.1925 -1.0807
  797MOL0     H 7549  10.014   0.484   2.049  0.7374  1.8553 -0.2987
  797MOL0     H 7550  10.043   0.395   2.190  1.2008 -0.7438 -0.8379
  797MOL0     H 7551  10.023   0.618   2.319  0.9209  0.4601 -0.9134
  797MOL0     H 7552   9.871   0.539   2.272 -1.4814  1.6401  0.3142
  797MOL0     H 7553   9.990   0.723   2.078  0.0130 -4.0147 -0.3474
  797MOL0     H 7554   9.874   0.790   2.195 -1.5931 -0.6849 -0.8415
  797MOL0     H 7555   9.602   0.620   1.903  0.9343  0.7998  0.0741
  797MOL0     H 7556   9.361   0.628   1.950 -0.2214  0.4478 -0.3226
  797MOL0     H 7557   9.173   0.921   2.485 -1.0905  0.4091  1.7654
  797MOL0     H 7558   8.975   1.042   2.546 -1.0904  0.8063  0.2901
  797MOL0     H 7559   8.749   1.184   2.212  1.5417  1.2494  1.1311
  797MOL0     H 7560   8.623   1.058   2.252 -0.9032  1.1471  1.0562
  797MOL0     H 7561   8.500   1.254   2.289  0.3491  0.8000  0.4062
  797MOL0     H 7562   8.551   1.184   2.444  0.7141 -1.3171 -0.0872
  797MOL0     H 7563   8.590   1.417   2.461 -0.2126  1.6071 -0.9982
  797MOL0     H 7564   8.757   1.350   2.411 -0.3118  1.0449  1.0463
  797MOL0     H 7565   8.534   1.488   2.250 -0.0496  2.3043 -0.9389
  797MOL0     H 7566   8.668   1.400   2.173 -1.6050  0.7748 -0.3219
  797MOL0     H 7567   8.821   1.561   2.283  0.3631  0.8415 -1.9677
  797MOL0     H 7568   8.667   1.636   2.346 -0.7357  2.0818 -1.7114
  797MOL0     H 7569   8.746   1.770   2.166  2.0102 -0.5928 -0.6213
  797MOL0     H 7570   8.757   1.626   2.057 -1.6612 -1.5121 -0.4386
  797MOL0     H 7571   8.498   1.707   2.183 -1.6510 -1.6222 -1.7818
  797MOL0     H 7572   8.526   1.596   2.047  0.0426 -1.8378  2.3526
  797MOL0     H 7573   8.436   1.816   1.968  0.1320 -1.2733 -0.3610
  797MOL0     H 7574   8.586   1.890   2.038  1.5754 -0.2785 -1.5729
  797MOL0     H 7575   8.788   0.917   2.182  1.0500 -1.1761 -0.5453
  797MOL0     H 7576   8.971   0.762   2.142  0.7072  1.2251 -1.0697
  797MOL0     H 7577   9.450   0.744   2.351  0.9590 -1.0527  0.2861
  797MOL0     H 7578   9.675   0.743   2.306 -1.5017  0.5869  0.5924
  797MOL0     H 7579  10.367   0.771   1.706 -1.4731  2.0951 -2.5470
  797MOL0     H 7580  10.125   0.814   1.715  0.5179 -4.0258  2.2756
  797MOL0     H 7581   9.754   0.917   1.926  1.4848  0.8134  0.3479
  797MOL0     H 7582   9.550   0.933   2.042 -0.9871  0.5315 -3.1203
  797MOL0     H 7583   9.382   0.990   2.161  0.5213  0.0552  0.9543
  797MOL0     H 7584   9.333   1.089   2.015  0.7361  3.8744 -0.5269
  797MOL0     H 7585   9.217   1.150   2.291 -0.7083 -0.9425 -0.0286
  797MOL0     H 7586   9.136   1.052   2.167 -0.0915 -0.2241 -2.3646
  797MOL0     H 7587   9.165   1.215   1.998  0.6138 -0.4010  0.1128
  797MOL0     H 7588   9.238   1.335   2.117  2.0579 -1.7318  1.9927
  797MOL0     H 7589   8.976   1.362   2.073  1.1945  2.2092  3.2320
  797MOL0     H 7590   8.955   1.206   2.146 -1.3973  1.0605  1.8698
  797MOL0     H 7591   9.013   1.521   2.425  1.4714  0.6440  0.8726
  797MOL0     H 7592   9.629   1.343   2.122  1.1540 -0.0043  1.9695
  797MOL0     H 7593   9.927   1.387   1.914 -0.2252  0.9918 -0.0531
  797MOL0     H 7594   9.789   1.461   1.984 -1.3312 -1.5042  1.9467
  797MOL0     H 7595   9.899   1.390   2.096 -1.7844 -2.0686  0.8439
  798MOL0     O 7596  10.300   1.194   3.745 -0.8247  0.1919 -0.2727
  798MOL0     C 7597  10.271   1.139   3.851 -0.6588  0.2148  0.3337
  798MOL0     O 7598  10.368   1.074   3.938  0.6052  0.1471  0.0497
  798MOL0     C 7599  10.501   1.112   3.930 -0.0528  0.1921 -0.5521
  798MOL0     C 7600  10.581   1.101   3.815  0.6421 -0.0488 -0.1341
  798MOL0     C 7601  10.712   1.151   3.813 -0.2470 -0.9232  0.6815
  798MOL0     C 7602  10.767   1.200   3.933 -0.1066 -0.9028 -1.0629
  798MOL0     O 7603  10.873   1.291   3.927 -0.3109 -0.0643 -0.1099
  798MOL0     C 7604  10.887   1.385   3.815  0.5610 -0.3858 -0.0834
  798MOL0     C 7605  11.020   1.455   3.832 -0.9813  0.3364  0.7573
  798MOL0     C 7606  11.022   1.593   3.769 -0.2770 -0.5093 -0.3102
  798MOL0     C 7607  11.130   1.695   3.822 -0.4364  0.1616  0.0683
  798MOL0     C 7608  11.275   1.650   3.788  0.1269 -0.5528 -0.1505
  798MOL0     C 7609  11.371   1.758   3.840 -0.6155  0.9005 -0.5214
  798MOL0     C 7610  11.513   1.710   3.844  0.6484 -0.2828  0.3970
  798MOL0     C 7611  11.604   1.810   3.916 -1.0271 -0.5322  0.2111
  798MOL0     N 7612  11.612   1.934   3.843  0.0367  0.3970  0.1320
  798MOL0     C 7613  11.668   1.950   3.724  0.1795  0.4378 -0.3998
  798MOL0     C 7614  11.677   2.084   3.694 -0.0470 -0.2611  0.1851
  798MOL0     C 7615  11.747   2.161   3.584 -0.1421 -0.0823  0.1612
  798MOL0     C 7616  11.890   2.193   3.620 -0.1739 -0.7577 -0.6211
  798MOL0     C 7617  11.921   2.315   3.716 -0.0205 -0.0375  0.8679
  798MOL0     C 7618  12.073   2.354   3.728 -0.4882 -0.3167 -0.7314
  798MOL0     O 7619  12.117   2.391   3.594 -0.1616 -0.1178  0.2208
  798MOL0     C 7620  12.237   2.458   3.587  1.0517 -0.1840 -0.4384
  798MOL0     C 7621  12.325   2.495   3.694 -0.2345  0.8054 -0.4829
  798MOL0     C 7622  12.439   2.576   3.680 -0.3896 -0.4107 -0.2427
  798MOL0     C 7623  12.479   2.617   3.554  0.0553  0.9644 -0.2905
  798MOL0     C 7624  12.603   2.698   3.532 -0.1696  0.3017  0.1806
  798MOL0     O 7625  12.688   2.706   3.636 -0.2117  0.1243 -0.1150
  798MOL0     C 7626  12.815   2.758   3.636  0.6974 -0.4338 -0.4939
  798MOL0     C 7627  12.895   2.758   3.750  0.2623  0.2999  0.0729
  798MOL0     C 7628  13.029   2.790   3.742 -0.0492  0.2060 -0.0184
  798MOL0     C 7629  13.086   2.829   3.623  0.9337 -0.0266  0.4833
  798MOL0     O 7630  13.215   2.852   3.638  0.1143  0.0465  0.0352
  798MOL0     C 7631  13.297   2.867   3.520  0.6811 -0.0015  0.9482
  798MOL0     C 7632  13.322   2.727   3.454 -0.3996 -0.7754 -0.1392
  798MOL0     C 7633  13.384   2.623   3.555 -0.2996 -0.8752  0.0790
  798MOL0     C 7634  13.490   2.674   3.658  0.6080 -0.3391 -0.0436
  798MOL0     C 7635  13.621   2.730   3.589 -0.8282 -0.0178 -0.1892
  798MOL0     C 7636  13.719   2.785   3.688 -0.3400 -0.0655  0.0408
  798MOL0     C 7637  13.830   2.854   3.611 -0.1911 -0.3554 -0.3346
  798MOL0     C 7638  13.945   2.889   3.711  0.6607 -0.2431 -0.0660
  798MOL0    Cl 7639  14.021   2.745   3.792 -0.7398  0.6363 -0.0435
  798MOL0     C 7640  13.010   2.835   3.508  0.4861  0.0141 -0.1519
  798MOL0     C 7641  12.879   2.790   3.519 -0.6088 -0.3134 -0.4077
  798MOL0     O 7642  12.609   2.758   3.427 -0.5472  0.6949  0.9109
  798MOL0     C 7643  12.401   2.579   3.444  0.6298  0.5674  0.6608
  798MOL0     C 7644  12.279   2.505   3.465 -0.6708  0.9256 -0.0820
  798MOL0     N 7645  11.622   2.149   3.808 -0.0410  0.5008 -0.6456
  798MOL0     N 7646  11.590   2.054   3.903 -0.4027 -0.2503  0.4138
  798MOL0     C 7647  10.691   1.208   4.048  0.0266 -0.2455  0.6469
  798MOL0     C 7648  10.559   1.162   4.046 -0.6554  0.0639 -0.7423
  798MOL0     C 7649  10.124   1.130   3.879 -0.6649 -0.2548 -0.6343
  798MOL0     C 7650  10.033   1.192   3.783 -0.0089  0.6240  0.2234
  798MOL0     C 7651   9.895   1.186   3.811 -0.5063  0.5651  0.7303
  798MOL0     C 7652   9.844   1.108   3.915  0.0509 -0.9909  0.1506
  798MOL0     O 7653   9.705   1.111   3.928 -0.5925 -0.1922  0.2290
  798MOL0     C 7654   9.645   0.995   3.990 -0.1958  0.3718 -0.5781
  798MOL0     C 7655   9.488   0.995   3.966 -0.5302 -0.0651  0.9582
  798MOL0     C 7656   9.423   0.860   3.985 -0.0190  0.2661 -0.2251
  798MOL0     C 7657   9.274   0.860   3.992  0.0544  0.2417 -0.3723
  798MOL0     C 7658   9.224   0.730   4.023 -0.0806 -0.1234  0.0516
  798MOL0     C 7659   9.169   0.625   4.030 -0.4607  0.2871 -0.2318
  798MOL0     C 7660   9.932   1.052   4.004 -0.0244  0.8365  0.8495
  798MOL0     C 7661  10.071   1.065   3.995  0.0509 -0.5454 -0.9811
  798MOL0     C 7662  10.145   0.996   4.110 -0.0988 -0.0927 -0.1150
  798MOL0     H 7663  10.541   1.038   3.736  2.4059 -0.5569 -0.6544
  798MOL0     H 7664  10.770   1.115   3.729 -0.4433 -3.8198  1.6785
  798MOL0     H 7665  10.881   1.338   3.717 -0.9668 -2.3742  0.8977
  798MOL0     H 7666  10.814   1.466   3.821  1.0074  0.0954 -0.8908
  798MOL0     H 7667  11.101   1.394   3.789 -0.8662  0.4550  0.8073
  798MOL0     H 7668  11.041   1.476   3.937 -1.6048 -0.1779  0.9885
  798MOL0     H 7669  10.925   1.643   3.779 -0.0970 -0.2820  0.3609
  798MOL0     H 7670  11.046   1.592   3.662 -0.6370  0.2898 -0.4014
  798MOL0     H 7671  11.106   1.792   3.776 -3.8582 -0.4631  0.2864
  798MOL0     H 7672  11.124   1.703   3.931 -0.0741  2.1332 -0.0215
  798MOL0     H 7673  11.299   1.554   3.835 -1.0826 -0.8897 -0.1714
  798MOL0     H 7674  11.300   1.646   3.682  1.5728  1.7992  0.0297
  798MOL0     H 7675  11.364   1.850   3.782 -2.4886  0.2527 -1.3873
  798MOL0     H 7676  11.339   1.790   3.940  3.0693 -1.4776  1.6752
  798MOL0     H 7677  11.550   1.676   3.746 -0.0931 -1.6207  0.5570
  798MOL0     H 7678  11.518   1.616   3.900 -1.0555 -0.4223  0.3441
  798MOL0     H 7679  11.553   1.835   4.010 -0.5295  0.9754  0.0936
  798MOL0     H 7680  11.697   1.770   3.957 -1.6383 -0.2449  1.9863
  798MOL0     H 7681  11.704   1.866   3.664  5.0395  1.2475  0.9426
  798MOL0     H 7682  11.733   2.107   3.490 -4.7283  0.5982  0.1877
  798MOL0     H 7683  11.687   2.251   3.568  0.7466  0.9446  2.2672
  798MOL0     H 7684  11.926   2.107   3.677 -1.1967  1.5219  3.9447
  798MOL0     H 7685  11.940   2.213   3.524 -1.0570  0.2721 -0.8956
  798MOL0     H 7686  11.877   2.281   3.811  1.5007 -2.5358  0.7551
  798MOL0     H 7687  11.877   2.408   3.680  3.5983  0.9379 -1.5607
  798MOL0     H 7688  12.137   2.272   3.761  2.2715  2.3111  0.9731
  798MOL0     H 7689  12.085   2.440   3.793  2.2073  1.1917 -2.9916
  798MOL0     H 7690  12.306   2.466   3.797  1.2224 -2.0563 -0.9236
  798MOL0     H 7691  12.490   2.614   3.768 -0.3586  1.3292 -0.9677
  798MOL0     H 7692  12.838   2.745   3.842 -0.2822  2.7532  0.1530
  798MOL0     H 7693  13.091   2.781   3.831  0.6609 -2.6326 -0.6799
  798MOL0     H 7694  13.256   2.922   3.434  1.3880  0.1452  0.6964
  798MOL0     H 7695  13.388   2.916   3.557  0.1682  2.3016 -0.5978
  798MOL0     H 7696  13.232   2.692   3.404  0.2977  0.4840 -2.4104
  798MOL0     H 7697  13.395   2.741   3.374 -0.8056 -1.8103 -0.7046
  798MOL0     H 7698  13.295   2.588   3.609  0.0038 -1.7272  0.0437
  798MOL0     H 7699  13.428   2.535   3.507 -1.7086 -1.2035 -0.6517
  798MOL0     H 7700  13.518   2.591   3.723  0.8156 -0.3091 -0.0934
  798MOL0     H 7701  13.442   2.755   3.715 -2.5118 -1.7062 -0.5370
  798MOL0     H 7702  13.602   2.808   3.514 -3.2473 -0.8952 -0.5828
  798MOL0     H 7703  13.674   2.651   3.535 -1.4066  1.0017 -2.3879
  798MOL0     H 7704  13.666   2.860   3.748 -1.5544 -0.7873 -0.0832
  798MOL0     H 7705  13.759   2.700   3.745  3.6417  1.4260 -0.2300
  798MOL0     H 7706  13.804   2.946   3.557  4.0885 -0.5417 -3.3398
  798MOL0     H 7707  13.880   2.790   3.538  3.2975  3.6865 -1.9765
  798MOL0     H 7708  14.019   2.949   3.657 -0.6806  1.0239 -0.5446
  798MOL0     H 7709  13.903   2.955   3.788 -1.6062  1.7970 -2.8384
  798MOL0     H 7710  13.041   2.871   3.411 -1.4867 -2.3196 -1.7520
  798MOL0     H 7711  12.821   2.791   3.427 -2.8225 -1.9896  0.8774
  798MOL0     H 7712  12.425   2.601   3.341 -1.6000 -1.8459 -0.4854
  798MOL0     H 7713  12.222   2.467   3.381  0.5808 -1.5381  0.0738
  798MOL0     H 7714  10.723   1.268   4.133  0.2626  1.8374 -0.8237
  798MOL0     H 7715  10.491   1.174   4.130  1.1369  1.5036  0.5667
  798MOL0     H 7716  10.071   1.239   3.693 -1.2339 -1.1102 -1.2655
  798MOL0     H 7717   9.826   1.244   3.751  0.2120 -0.0964 -0.7910
  798MOL0     H 7718   9.676   1.001   4.095  1.9151  1.2204 -1.1746
  798MOL0     H 7719   9.695   0.905   3.955  3.5822  1.1079  2.2443
  798MOL0     H 7720   9.467   1.029   3.864 -0.1757  2.6888  1.7089
  798MOL0     H 7721   9.456   1.067   4.042 -1.9617  0.2572  0.0840
  798MOL0     H 7722   9.454   0.813   4.079  0.9380  0.8016 -0.2572
  798MOL0     H 7723   9.464   0.793   3.909  1.2882 -1.0971  1.5744
  798MOL0     H 7724   9.252   0.912   4.085  1.2237 -0.6311  0.4104
  798MOL0     H 7725   9.219   0.905   3.908 -1.0179  2.6055  1.4792
  798MOL0     H 7726   9.125   0.530   4.050  1.6463 -0.7423 -0.2944
  798MOL0     H 7727   9.890   1.002   4.091 -0.1685  0.8307  0.7770
  798MOL0     H 7728  10.190   0.905   4.068  0.7988  0.4116 -0.2514
  798MOL0     H 7729  10.235   1.048   4.144  0.9517 -0.6434 -1.9451
  798MOL0     H 7730  10.086   0.978   4.201  0.0368  1.3944  0.2845
  799MOL0     O 7731   5.215   4.101  11.178  0.2592  0.0031  0.5310
  799MOL0     C 7732   5.314   4.029  11.178  0.9527 -0.4703  0.4705
  799MOL0     O 7733   5.315   3.897  11.143 -0.2589  0.1497 -0.5144
  799MOL0     C 7734   5.189   3.846  11.101 -0.6674 -0.3126 -0.5991
  799MOL0     C 7735   5.164   3.839  10.960 -0.0887  0.1626 -1.2256
  799MOL0     C 7736   5.042   3.793  10.900  0.4273  1.3256  0.1496
  799MOL0     C 7737   4.933   3.772  10.980 -0.1355 -0.2308  0.3879
  799MOL0     O 7738   4.813   3.757  10.909 -0.2103 -0.1901  0.2746
  799MOL0     C 7739   4.687   3.754  10.979  0.3090  0.3046 -1.1854
  799MOL0     C 7740   4.579   3.758  10.870  0.1340  0.5401  0.3455
  799MOL0     C 7741   4.542   3.628  10.796  0.0323 -0.2064 -1.1158
  799MOL0     C 7742   4.490   3.665  10.660 -0.2492 -0.3041 -0.1970
  799MOL0     C 7743   4.419   3.549  10.582  0.5327 -0.2320 -0.1795
  799MOL0     C 7744   4.284   3.516  10.652 -0.8168  0.5188 -0.7559
  799MOL0     C 7745   4.247   3.379  10.608  0.7030  0.4648 -0.5079
  799MOL0     C 7746   4.113   3.332  10.648 -0.6134  0.1983  1.0928
  799MOL0     N 7747   4.114   3.191  10.614  0.7933  0.4946  0.1344
  799MOL0     C 7748   4.180   3.102  10.696 -0.8367  0.1413  0.7440
  799MOL0     C 7749   4.182   2.989  10.620  0.6666 -0.0952  1.0128
  799MOL0     C 7750   4.251   2.851  10.638 -0.1470  0.0155 -0.2190
  799MOL0     C 7751   4.392   2.851  10.704 -0.7992 -0.1884 -0.3449
  799MOL0     C 7752   4.499   2.921  10.606  0.2810  0.5038  0.3632
  799MOL0     C 7753   4.640   2.882  10.650 -0.3674 -0.1429 -0.2960
  799MOL0     O 7754   4.731   2.849  10.542  0.5220 -0.1410 -0.2044
  799MOL0     C 7755   4.847   2.918  10.540  0.5270 -0.5336  0.0502
  799MOL0     C 7756   4.860   3.051  10.486 -0.3808  0.4805  0.5161
  799MOL0     C 7757   4.984   3.100  10.478  0.1780  0.8105  1.2428
  799MOL0     C 7758   5.099   3.045  10.535 -0.1770  0.1730  0.4271
  799MOL0     C 7759   5.229   3.112  10.542  0.6291 -0.7769  0.0703
  799MOL0     O 7760   5.323   3.054  10.614 -0.2472 -0.5119  0.9247
  799MOL0     C 7761   5.456   3.104  10.602  0.3951  0.8690  0.2767
  799MOL0     C 7762   5.503   3.164  10.488  0.4985 -0.5858  1.1596
  799MOL0     C 7763   5.634   3.208  10.473  0.1201  0.1991  0.4537
  799MOL0     C 7764   5.723   3.188  10.579 -0.9902  0.6550  0.6369
  799MOL0     O 7765   5.851   3.238  10.567 -0.5779  0.3779  0.2878
  799MOL0     C 7766   5.910   3.283  10.690  0.4043 -0.1287  0.0018
  799MOL0     C 7767   5.821   3.386  10.750 -0.2157 -0.0659 -0.1800
  799MOL0     C 7768   5.805   3.516  10.671  0.3670  0.4267  0.1161
  799MOL0     C 7769   5.936   3.582  10.629 -0.4517  0.7696 -0.0916
  799MOL0     C 7770   5.919   3.729  10.591 -0.0683  0.0488 -0.2706
  799MOL0     C 7771   5.833   3.758  10.466 -0.1531 -0.0377 -0.3702
  799MOL0     C 7772   5.864   3.897  10.411  0.6052 -0.4484 -0.6166
  799MOL0     C 7773   5.779   3.929  10.285  0.3898  0.2805 -0.2114
  799MOL0    Cl 7774   5.611   3.967  10.328 -0.3354  0.4710  0.2714
  799MOL0     C 7775   5.677   3.106  10.681  0.4590 -0.2451 -0.0308
  799MOL0     C 7776   5.544   3.067  10.697 -0.0752 -0.0721 -0.7152
  799MOL0     O 7777   5.244   3.230  10.496  0.4715  0.2854 -0.6891
  799MOL0     C 7778   5.087   2.913  10.592  0.5297 -0.7369 -0.8350
  799MOL0     C 7779   4.962   2.851  10.595  0.5417 -0.3943 -0.7214
  799MOL0     N 7780   4.116   3.009  10.502  0.4792 -0.0597 -0.1067
  799MOL0     N 7781   4.074   3.132  10.499 -0.3589 -0.1515 -0.3122
  799MOL0     C 7782   4.943   3.795  11.122  0.0639  0.2177 -0.3117
  799MOL0     C 7783   5.073   3.824  11.181 -0.4212 -0.3174  0.0537
  799MOL0     C 7784   5.446   4.093  11.213  0.8232 -0.4798  0.3417
  799MOL0     C 7785   5.449   4.233  11.219 -0.0304 -1.1790  0.6393
  799MOL0     C 7786   5.566   4.304  11.248  0.6592 -0.2042  0.7994
  799MOL0     C 7787   5.678   4.232  11.279  0.2779  0.6459 -0.9863
  799MOL0     O 7788   5.798   4.287  11.302  0.1295 -0.3077  0.5405
  799MOL0     C 7789   5.799   4.432  11.319  0.2268 -0.1813 -0.0381
  799MOL0     C 7790   5.941   4.481  11.327  0.3614  0.1883 -0.4015
  799MOL0     C 7791   6.029   4.448  11.196 -0.6377  0.7560 -0.5352
  799MOL0     C 7792   6.144   4.539  11.152  0.2759  0.4306 -0.3718
  799MOL0     C 7793   6.261   4.513  11.243 -0.9431 -0.5661 -0.4729
  799MOL0     C 7794   6.337   4.471  11.328 -0.1895  0.3637  0.0575
  799MOL0     C 7795   5.677   4.089  11.281 -0.4386  0.0192 -0.3209
  799MOL0     C 7796   5.558   4.019  11.244  0.1194  0.3851 -0.0721
  799MOL0     C 7797   5.568   3.869  11.239  0.0088  1.2529  0.5615
  799MOL0     H 7798   5.244   3.843  10.888  2.3322 -0.5485  1.2495
  799MOL0     H 7799   5.039   3.774  10.793  1.3094 -0.6552  0.4326
  799MOL0     H 7800   4.686   3.660  11.035 -1.9494  1.9821  1.9229
  799MOL0     H 7801   4.678   3.834  11.053  0.9984 -1.1022  0.4756
  799MOL0     H 7802   4.624   3.831  10.802  0.1423  1.7865  1.6461
  799MOL0     H 7803   4.490   3.800  10.917 -0.5339  1.1755 -1.4208
  799MOL0     H 7804   4.456   3.586  10.849 -0.7390 -0.3297 -2.4285
  799MOL0     H 7805   4.618   3.550  10.786 -1.5826 -2.0455  0.0524
  799MOL0     H 7806   4.407   3.735  10.672  0.4990  0.6095 -0.2119
  799MOL0     H 7807   4.573   3.708  10.603 -0.0534 -0.7014 -0.2108
  799MOL0     H 7808   4.393   3.588  10.483 -1.0911 -2.6526 -0.7913
  799MOL0     H 7809   4.494   3.470  10.571 -0.4519 -1.3782  1.0183
  799MOL0     H 7810   4.295   3.522  10.760  0.7121  0.5582 -0.8935
  799MOL0     H 7811   4.198   3.582  10.640 -1.3250  0.0134  0.0232
  799MOL0     H 7812   4.322   3.306  10.639 -0.7382 -0.7881  0.1629
  799MOL0     H 7813   4.242   3.377  10.499 -0.0634  1.7942 -0.5195
  799MOL0     H 7814   4.094   3.348  10.755  0.9578 -1.3332  1.6348
  799MOL0     H 7815   4.036   3.390  10.596  0.6727  1.8440  0.9078
  799MOL0     H 7816   4.221   3.121  10.795  0.0650  2.7300 -0.0638
  799MOL0     H 7817   4.174   2.796  10.693  0.0012 -0.9928 -0.9946
  799MOL0     H 7818   4.252   2.805  10.539 -1.9067 -1.2096  0.2905
  799MOL0     H 7819   4.377   2.909  10.795 -2.4490 -0.4749 -0.4027
  799MOL0     H 7820   4.420   2.753  10.745 -0.6476  0.3184  0.7990
  799MOL0     H 7821   4.483   3.029  10.600 -1.3785  0.3328  1.1649
  799MOL0     H 7822   4.483   2.894  10.501 -0.0757  1.8168  0.0689
  799MOL0     H 7823   4.637   2.797  10.718 -0.9486 -1.1237 -1.5008
  799MOL0     H 7824   4.682   2.969  10.701 -1.5707  1.5382 -2.0313
  799MOL0     H 7825   4.777   3.104  10.440  0.3018  1.2472  0.1519
  799MOL0     H 7826   4.990   3.203  10.442  2.0517  0.2561 -0.1843
  799MOL0     H 7827   5.453   3.178  10.393  1.3666 -0.1447  0.7595
  799MOL0     H 7828   5.669   3.261  10.386  0.5401 -1.1501 -0.2188
  799MOL0     H 7829   5.917   3.197  10.757  1.6945 -1.1755 -1.4016
  799MOL0     H 7830   6.013   3.315  10.674  0.2320  0.8013  0.7040
  799MOL0     H 7831   5.724   3.343  10.780  0.5081 -1.4029  0.3218
  799MOL0     H 7832   5.858   3.420  10.847  1.1931  1.0800 -1.0764
  799MOL0     H 7833   5.747   3.502  10.579 -1.1763 -2.3536  1.3895
  799MOL0     H 7834   5.748   3.586  10.732  1.7230  2.0302 -0.3741
  799MOL0     H 7835   5.976   3.527  10.543 -0.7446  0.2487  0.0991
  799MOL0     H 7836   6.015   3.568  10.704  1.4697 -2.5266 -2.4380
  799MOL0     H 7837   6.023   3.760  10.578 -0.2675  0.2538 -1.4513
  799MOL0     H 7838   5.876   3.776  10.680  0.9656 -1.9939  1.3887
  799MOL0     H 7839   5.858   3.688  10.385  0.1423  1.1637 -1.3579
  799MOL0     H 7840   5.727   3.748  10.489 -0.1590  1.1705  0.1784
  799MOL0     H 7841   5.971   3.913  10.392  0.3010  0.0525 -1.9667
  799MOL0     H 7842   5.846   3.968  10.493  0.4201  0.1855 -1.2001
  799MOL0     H 7843   5.825   4.020  10.244 -4.3469  1.2415 -4.2921
  799MOL0     H 7844   5.788   3.849  10.211  0.6878  0.1347 -0.0206
  799MOL0     H 7845   5.735   3.067  10.765 -0.5772  0.5446  1.0981
  799MOL0     H 7846   5.517   3.008  10.784 -1.7132 -0.0168 -1.1609
  799MOL0     H 7847   5.165   2.857  10.642 -1.5023 -1.8240  1.2720
  799MOL0     H 7848   4.946   2.751  10.635  0.6956 -0.1696 -0.0878
  799MOL0     H 7849   4.852   3.780  11.179 -1.1329 -1.1128 -2.4525
  799MOL0     H 7850   5.085   3.836  11.288 -1.1617 -3.2899  0.5653
  799MOL0     H 7851   5.362   4.292  11.194  1.7253  1.8574  1.0876
  799MOL0     H 7852   5.564   4.408  11.220  1.8814 -1.4141 -5.2253
  799MOL0     H 7853   5.744   4.463  11.408 -0.8947  1.4272 -1.2366
  799MOL0     H 7854   5.749   4.489  11.240 -1.3383 -1.5356 -0.0809
  799MOL0     H 7855   5.990   4.436  11.414  1.1375  1.0997 -0.3444
  799MOL0     H 7856   5.932   4.586  11.356  0.9379  0.1973 -0.2339
  799MOL0     H 7857   5.957   4.438  11.114 -1.0998 -3.6542  0.1367
  799MOL0     H 7858   6.075   4.349  11.208  1.1004  1.5528 -0.3548
  799MOL0     H 7859   6.185   4.510  11.055  2.1900  2.0840 -0.1213
  799MOL0     H 7860   6.120   4.646  11.149  1.5766  0.7722  0.3966
  799MOL0     H 7861   6.403   4.452  11.410  0.1584 -0.3908 -0.3950
  799MOL0     H 7862   5.769   4.034  11.294 -0.0569  0.6371 -0.3853
  799MOL0     H 7863   5.552   3.824  11.140 -3.2785 -1.9698  2.3412
  799MOL0     H 7864   5.661   3.830  11.283 -1.6184 -0.0540  3.0793
  799MOL0     H 7865   5.491   3.828  11.304 -0.5521  2.1478  0.4761
  800MOL0     O 7866   9.737   4.469   5.543 -0.6828  0.0270  0.4914
  800MOL0     C 7867   9.704   4.582   5.565 -0.4651 -0.0037  0.4134
  800MOL0     O 7868   9.769   4.670   5.646 -0.8380  0.3251 -0.4395
  800MOL0     C 7869   9.867   4.619   5.727 -0.0617  0.3921 -0.6271
  800MOL0     C 7870   9.835   4.559   5.847 -0.2105 -0.1938 -0.2543
  800MOL0     C 7871   9.933   4.504   5.925  0.5112 -0.0037 -0.0876
  800MOL0     C 7872  10.069   4.505   5.890 -0.4850  1.1768  0.5674
  800MOL0     O 7873  10.164   4.435   5.958 -0.1686 -0.4755 -0.1355
  800MOL0     C 7874  10.123   4.343   6.064  0.7597 -0.9960 -0.0668
  800MOL0     C 7875  10.248   4.286   6.135  0.0438 -0.5103 -0.6416
  800MOL0     C 7876  10.342   4.390   6.198  0.8170  0.5254 -0.0011
  800MOL0     C 7877  10.448   4.321   6.279  0.0047 -0.1876  0.6663
  800MOL0     C 7878  10.530   4.422   6.350  0.0798 -0.4937 -0.4649
  800MOL0     C 7879  10.651   4.343   6.391 -0.0195  0.5791 -0.0818
  800MOL0     C 7880  10.775   4.408   6.456 -0.3334 -0.0919  0.5544
  800MOL0     C 7881  10.767   4.450   6.600 -0.2107 -1.4240  0.9064
  800MOL0     N 7882  10.878   4.538   6.627 -0.2050  0.2601 -0.0789
  800MOL0     C 7883  11.010   4.496   6.652  0.5522 -0.2276 -0.2652
  800MOL0     C 7884  11.085   4.611   6.643 -0.2060 -0.6255 -0.1426
  800MOL0     C 7885  11.233   4.626   6.671 -0.9040  0.8510 -0.0925
  800MOL0     C 7886  11.264   4.706   6.807 -0.2576  0.9678  0.7190
  800MOL0     C 7887  11.403   4.746   6.817 -0.7841 -0.7697 -0.3081
  800MOL0     C 7888  11.509   4.645   6.843 -0.7231 -0.3265  0.8941
  800MOL0     O 7889  11.496   4.616   6.983 -1.0634 -0.5701  0.5588
  800MOL0     C 7890  11.588   4.669   7.068  0.5946 -0.8838 -0.5835
  800MOL0     C 7891  11.599   4.614   7.193 -0.0197 -0.2916  0.2951
  800MOL0     C 7892  11.689   4.660   7.289 -0.0999 -0.4356 -0.1374
  800MOL0     C 7893  11.770   4.777   7.264  0.4109  0.1316 -0.2594
  800MOL0     C 7894  11.877   4.818   7.357 -1.3825  0.3447  0.2159
  800MOL0     O 7895  11.973   4.917   7.317  0.7645  0.0985  0.1401
  800MOL0     C 7896  12.082   4.932   7.397 -0.3013  0.0573 -0.6880
  800MOL0     C 7897  12.213   4.892   7.354  1.0051  0.1397 -0.2568
  800MOL0     C 7898  12.324   4.913   7.434 -0.0459  0.5160 -0.3663
  800MOL0     C 7899  12.309   4.964   7.569 -0.4260  1.3772  0.3406
  800MOL0     O 7900  12.413   4.976   7.656 -0.1214  0.0708 -0.1367
  800MOL0     C 7901  12.535   4.917   7.624 -1.9301 -0.2218 -0.9911
  800MOL0     C 7902  12.636   4.947   7.737 -0.3104 -0.4662 -0.6219
  800MOL0     C 7903  12.773   4.890   7.706  0.0993  1.2275  0.0145
  800MOL0     C 7904  12.876   4.935   7.811  0.1584  0.1465  0.4747
  800MOL0     C 7905  13.023   4.875   7.780  0.8571 -0.7342 -0.6471
  800MOL0     C 7906  13.113   4.913   7.896  0.2839  0.0125 -1.3965
  800MOL0     C 7907  13.256   4.880   7.843 -0.6775  0.3106 -1.1114
  800MOL0     C 7908  13.369   4.905   7.944 -0.6053 -0.3041 -0.7057
  800MOL0    Cl 7909  13.377   5.068   7.993  0.3408  0.3418 -0.3327
  800MOL0     C 7910  12.179   5.000   7.609  0.6680 -0.6972  0.2372
  800MOL0     C 7911  12.067   4.976   7.528 -0.2002 -0.3987 -0.3812
  800MOL0     O 7912  11.881   4.763   7.470  0.3575 -0.3144 -0.4139
  800MOL0     C 7913  11.754   4.838   7.138 -0.1663 -0.0597  0.3570
  800MOL0     C 7914  11.665   4.792   7.040  0.5192  0.0474 -0.3723
  800MOL0     N 7915  10.998   4.713   6.607  0.5714  0.0770 -0.0041
  800MOL0     N 7916  10.884   4.667   6.607 -0.1685 -0.1352 -0.2983
  800MOL0     C 7917  10.102   4.566   5.767 -0.1525  0.3762 -0.0404
  800MOL0     C 7918   9.998   4.613   5.678 -0.7917 -0.1606 -0.6408
  800MOL0     C 7919   9.591   4.639   5.487  0.4452  0.1939  0.1007
  800MOL0     C 7920   9.572   4.780   5.472 -0.3663 -0.4876  0.9158
  800MOL0     C 7921   9.487   4.833   5.378 -0.1811 -0.5060  0.6055
  800MOL0     C 7922   9.397   4.757   5.307 -0.8556  0.5352 -0.5537
  800MOL0     O 7923   9.313   4.806   5.216 -0.0346 -0.1650  0.0845
  800MOL0     C 7924   9.282   4.946   5.208  0.1602  0.3408 -0.4736
  800MOL0     C 7925   9.198   4.982   5.335  0.6127  0.4846  0.3300
  800MOL0     C 7926   9.167   5.121   5.331 -0.9917 -0.3279  0.4137
  800MOL0     C 7927   9.137   5.177   5.466 -1.2086 -0.7151 -0.5257
  800MOL0     C 7928   9.007   5.139   5.521  0.8236  0.8061 -0.2452
  800MOL0     C 7929   8.897   5.113   5.559  0.4098 -0.1535 -0.5492
  800MOL0     C 7930   9.408   4.617   5.328 -0.2763 -0.5216  0.5587
  800MOL0     C 7931   9.505   4.561   5.405  1.1909 -0.2553  0.0658
  800MOL0     C 7932   9.497   4.409   5.412 -0.2967 -0.7567  0.7282
  800MOL0     H 7933   9.732   4.557   5.883 -1.1844  1.2424 -2.7299
  800MOL0     H 7934   9.910   4.483   6.029  0.2331 -0.6324 -0.2747
  800MOL0     H 7935  10.071   4.397   6.143  3.6735  0.0212  1.3003
  800MOL0     H 7936  10.073   4.257   6.018  0.6166 -0.4762 -0.8977
  800MOL0     H 7937  10.306   4.230   6.060  1.8290 -1.3184  1.2498
  800MOL0     H 7938  10.224   4.209   6.209 -1.3903 -0.4899 -1.0640
  800MOL0     H 7939  10.285   4.451   6.268  0.9821 -1.2915  1.8217
  800MOL0     H 7940  10.392   4.450   6.121 -0.3222 -0.3152 -1.4556
  800MOL0     H 7941  10.399   4.254   6.350  0.8821 -1.0339  0.4915
  800MOL0     H 7942  10.506   4.266   6.204  1.1374  2.1074 -0.2559
  800MOL0     H 7943  10.550   4.510   6.288 -1.9566 -0.5399 -1.2505
  800MOL0     H 7944  10.475   4.461   6.437  0.5520 -0.1042 -0.3357
  800MOL0     H 7945  10.617   4.252   6.441  2.9420 -2.3016 -2.8391
  800MOL0     H 7946  10.696   4.303   6.300  2.0917 -0.4120  1.3263
  800MOL0     H 7947  10.798   4.494   6.392  0.8027  0.5295  1.7530
  800MOL0     H 7948  10.856   4.335   6.449  0.3557  0.7356 -0.3252
  800MOL0     H 7949  10.673   4.506   6.606  1.4588  1.8998 -0.8968
  800MOL0     H 7950  10.779   4.367   6.669 -0.2383 -2.0742  0.1439
  800MOL0     H 7951  11.051   4.401   6.682 -1.1500 -1.0197 -0.3433
  800MOL0     H 7952  11.279   4.527   6.667 -0.7873  0.8498  0.9419
  800MOL0     H 7953  11.280   4.688   6.594  3.2081 -1.1556  0.5196
  800MOL0     H 7954  11.207   4.800   6.814  0.2806  1.2305  1.7345
  800MOL0     H 7955  11.240   4.641   6.891  2.5565  1.9490  2.4243
  800MOL0     H 7956  11.414   4.828   6.888  5.1597  0.0675 -1.6094
  800MOL0     H 7957  11.438   4.801   6.728  2.0024 -1.7604  0.0911
  800MOL0     H 7958  11.607   4.689   6.823 -0.5097 -0.4700  1.6136
  800MOL0     H 7959  11.492   4.564   6.771 -1.0642  1.2798 -0.9248
  800MOL0     H 7960  11.530   4.531   7.207 -0.8436  0.1521 -0.9968
  800MOL0     H 7961  11.695   4.595   7.376 -4.4865 -0.0167  0.6784
  800MOL0     H 7962  12.219   4.851   7.253  0.7516  1.8450 -1.0003
  800MOL0     H 7963  12.420   4.884   7.393  0.0026 -0.1205  0.1715
  800MOL0     H 7964  12.520   4.810   7.607  1.4353 -1.3221  1.7232
  800MOL0     H 7965  12.587   4.953   7.535  2.1334 -1.0455  0.7943
  800MOL0     H 7966  12.642   5.055   7.753 -1.8762 -0.5055  0.3973
  800MOL0     H 7967  12.592   4.913   7.831 -2.3172 -0.7933 -1.6193
  800MOL0     H 7968  12.772   4.781   7.691  2.8724  0.7505  2.4190
  800MOL0     H 7969  12.815   4.926   7.612  1.5484 -1.4226 -0.4775
  800MOL0     H 7970  12.840   4.905   7.910  1.0668 -1.5252  0.3347
  800MOL0     H 7971  12.886   5.043   7.803 -2.7688  0.4063 -1.3857
  800MOL0     H 7972  13.048   4.924   7.686  2.5148  0.1473  0.2134
  800MOL0     H 7973  13.021   4.768   7.758  0.9694 -0.4038 -2.4480
  800MOL0     H 7974  13.092   5.017   7.923 -3.9952 -1.0005 -0.0840
  800MOL0     H 7975  13.073   4.851   7.977 -1.3648 -0.1994 -2.3161
  800MOL0     H 7976  13.277   4.931   7.748  2.3180  1.6330  0.1459
  800MOL0     H 7977  13.259   4.774   7.819 -0.5787  0.3458 -1.2541
  800MOL0     H 7978  13.366   4.837   8.029 -2.9823  0.8447  0.1926
  800MOL0     H 7979  13.463   4.876   7.894 -0.4796 -0.2429 -0.5053
  800MOL0     H 7980  12.166   5.033   7.712 -1.0174  0.5359 -0.3273
  800MOL0     H 7981  11.965   5.000   7.558 -0.4036 -1.5136 -0.1527
  800MOL0     H 7982  11.799   4.933   7.112  0.7996 -0.5672  0.1352
  800MOL0     H 7983  11.658   4.846   6.946  2.5252  0.7288 -0.1772
  800MOL0     H 7984  10.203   4.568   5.729 -0.4325 -0.1392 -0.8328
  800MOL0     H 7985  10.016   4.649   5.577 -3.9853 -0.4215 -1.4276
  800MOL0     H 7986   9.634   4.851   5.527 -0.0618  0.1580 -0.2301
  800MOL0     H 7987   9.485   4.940   5.366  2.1858 -0.6377 -1.9542
  800MOL0     H 7988   9.232   4.968   5.113  0.0473 -3.3302 -1.4015
  800MOL0     H 7989   9.371   5.006   5.188 -1.5796  3.0809 -0.6322
  800MOL0     H 7990   9.251   4.953   5.426  2.1513  0.8037 -0.4310
  800MOL0     H 7991   9.116   4.910   5.326  0.9892 -0.0466  1.0687
  800MOL0     H 7992   9.079   5.132   5.267  0.7706  2.6020 -1.7609
  800MOL0     H 7993   9.250   5.176   5.285  0.5085 -2.8207 -0.0265
  800MOL0     H 7994   9.216   5.133   5.528  1.5466  1.3419 -2.3492
  800MOL0     H 7995   9.142   5.286   5.463  1.0509 -0.7839 -0.8054
  800MOL0     H 7996   8.797   5.125   5.595  0.8030 -1.6940  1.2401
  800MOL0     H 7997   9.340   4.558   5.267 -1.4610  0.1065  1.2154
  800MOL0     H 7998   9.414   4.370   5.352  1.8218 -2.5855 -1.1863
  800MOL0     H 7999   9.585   4.354   5.377  1.0858  1.8141 -0.0819
  800MOL0     H 8000   9.484   4.383   5.517 -0.1455 -2.1477  0.4208
  801MOL0     O 8001   0.221   6.773   1.589  0.2487  0.4039 -0.0493
  801MOL0     C 8002   0.143   6.844   1.649 -0.1807 -0.7760 -0.1653
  801MOL0     O 8003   0.158   6.979   1.656 -0.3647 -0.3117  0.0633
  801MOL0     C 8004   0.261   7.055   1.605  0.6021 -0.3586  0.1122
  801MOL0     C 8005   0.302   7.033   1.476  0.4532 -0.5408  0.0115
  801MOL0     C 8006   0.391   7.123   1.415 -0.1161  1.1118 -0.1045
  801MOL0     C 8007   0.437   7.241   1.478  0.1956 -0.0391 -0.3120
  801MOL0     O 8008   0.503   7.353   1.433 -0.3269  0.5671  0.3379
  801MOL0     C 8009   0.508   7.368   1.288  0.5626 -0.6475 -0.2484
  801MOL0     C 8010   0.575   7.505   1.261  0.0846  0.3948  0.2252
  801MOL0     C 8011   0.715   7.502   1.323 -0.1219 -0.5016 -0.4355
  801MOL0     C 8012   0.812   7.593   1.245 -0.5595  0.7417 -0.6876
  801MOL0     C 8013   0.949   7.603   1.303 -0.4158  0.0254 -0.5257
  801MOL0     C 8014   1.041   7.710   1.246 -0.0230 -0.4619 -0.1873
  801MOL0     C 8015   1.082   7.686   1.096  0.1645  0.2258 -0.3313
  801MOL0     C 8016   1.177   7.575   1.066 -0.1321 -0.3130 -0.2794
  801MOL0     N 8017   1.313   7.582   1.120 -0.1749 -0.3933 -0.0801
  801MOL0     C 8018   1.359   7.536   1.244 -0.8791 -0.6835  0.1860
  801MOL0     C 8019   1.493   7.553   1.240 -1.0683 -0.7743  0.4430
  801MOL0     C 8020   1.575   7.514   1.360 -0.7973 -0.5263  0.4176
  801MOL0     C 8021   1.732   7.535   1.358 -0.0192  0.4551  0.0050
  801MOL0     C 8022   1.803   7.578   1.488  0.2671  0.8324 -0.7182
  801MOL0     C 8023   1.951   7.594   1.462 -0.4890  0.2048 -0.1391
  801MOL0     O 8024   2.017   7.475   1.424 -0.1555 -0.3966  0.1519
  801MOL0     C 8025   2.153   7.478   1.411  0.3403  0.3288 -0.2409
  801MOL0     C 8026   2.229   7.587   1.364  0.1164 -0.2154 -0.2365
  801MOL0     C 8027   2.367   7.583   1.362  0.4754  0.1319  0.2551
  801MOL0     C 8028   2.433   7.465   1.408 -1.0489 -0.3661  0.1056
  801MOL0     C 8029   2.587   7.468   1.419 -0.2885  0.7831 -0.5727
  801MOL0     O 8030   2.644   7.350   1.467  0.1604 -0.0455 -0.0864
  801MOL0     C 8031   2.777   7.354   1.492  0.8783  0.2103  0.9500
  801MOL0     C 8032   2.836   7.374   1.614  0.0800  0.3188  0.0905
  801MOL0     C 8033   2.970   7.374   1.627  0.7843 -0.3259  0.7159
  801MOL0     C 8034   3.057   7.360   1.517  0.1530  0.9803  0.7544
  801MOL0     O 8035   3.193   7.356   1.528 -0.1733  0.0147  0.0223
  801MOL0     C 8036   3.247   7.424   1.640 -0.3613  0.3146  0.1068
  801MOL0     C 8037   3.389   7.439   1.621  0.3201  0.0082  0.2435
  801MOL0     C 8038   3.469   7.465   1.753  0.2583 -0.5940  0.2586
  801MOL0     C 8039   3.622   7.440   1.742  0.8229 -0.7943 -1.2369
  801MOL0     C 8040   3.709   7.495   1.849  0.3225  0.0896 -0.4995
  801MOL0     C 8041   3.710   7.404   1.972 -0.4579 -0.4730 -0.7020
  801MOL0     C 8042   3.769   7.262   1.956 -0.3086 -0.5689  0.8440
  801MOL0     C 8043   3.783   7.184   2.092  0.8958  0.2023  0.3317
  801MOL0    Cl 8044   3.837   7.023   2.059 -0.2979  0.3157  0.1421
  801MOL0     C 8045   2.992   7.333   1.397  0.1530  0.4125 -0.2198
  801MOL0     C 8046   2.854   7.322   1.385  0.4047 -0.1143  0.1473
  801MOL0     O 8047   2.651   7.571   1.401  0.5026 -0.3116 -0.2983
  801MOL0     C 8048   2.356   7.347   1.427  0.6372 -0.8427 -0.0350
  801MOL0     C 8049   2.216   7.355   1.426  0.6752  0.5969 -1.1986
  801MOL0     N 8050   1.527   7.613   1.123 -0.0430 -0.3520 -0.4900
  801MOL0     N 8051   1.420   7.632   1.051  1.0729 -0.1441  0.0107
  801MOL0     C 8052   0.403   7.250   1.613  1.0304  0.0993  0.7307
  801MOL0     C 8053   0.315   7.161   1.672  0.6616 -0.2189  0.2983
  801MOL0     C 8054   0.022   6.784   1.716 -0.4807 -0.1129 -0.9303
  801MOL0     C 8055  -0.072   6.873   1.785  0.1218 -1.3021 -0.0499
  801MOL0     C 8056  -0.189   6.826   1.841  0.0335  0.1604  0.0076
  801MOL0     C 8057  -0.224   6.691   1.822 -0.1913 -0.7048  0.1085
  801MOL0     O 8058  -0.336   6.627   1.871  0.8002  0.1897 -0.0916
  801MOL0     C 8059  -0.441   6.706   1.937  0.2189 -0.2157  0.8216
  801MOL0     C 8060  -0.566   6.622   1.919 -0.4093 -0.2579  0.0051
  801MOL0     C 8061  -0.606   6.621   1.764  1.0244  0.0713 -0.0027
  801MOL0     C 8062  -0.740   6.553   1.756  0.6311  0.0762  0.0216
  801MOL0     C 8063  -0.806   6.563   1.628 -0.1120  0.5660  0.4787
  801MOL0     C 8064  -0.863   6.573   1.517  0.4685  0.1956 -0.6228
  801MOL0     C 8065  -0.137   6.601   1.768  0.4925  0.1017 -0.1784
  801MOL0     C 8066  -0.014   6.644   1.722 -1.3327  0.4103  0.3618
  801MOL0     C 8067   0.075   6.529   1.683  0.6228  1.1240  0.7477
  801MOL0     H 8068   0.264   6.942   1.430 -3.2560  0.1242  1.4500
  801MOL0     H 8069   0.418   7.106   1.312 -0.7103  1.4278 -0.3146
  801MOL0     H 8070   0.572   7.284   1.259  0.2296 -2.2844  3.1294
  801MOL0     H 8071   0.412   7.360   1.236 -0.2646 -1.6428  1.3216
  801MOL0     H 8072   0.519   7.592   1.298  1.9664  1.9867 -0.5313
  801MOL0     H 8073   0.580   7.506   1.152 -0.1031 -0.8815  0.1819
  801MOL0     H 8074   0.757   7.401   1.319 -2.0275 -1.3038 -1.4210
  801MOL0     H 8075   0.717   7.547   1.423  1.3583  0.9558 -1.0820
  801MOL0     H 8076   0.817   7.566   1.140 -1.3487  0.5621 -0.6853
  801MOL0     H 8077   0.771   7.695   1.250  0.1841  0.9958  2.3946
  801MOL0     H 8078   0.943   7.615   1.411 -5.4935 -1.1838 -0.4136
  801MOL0     H 8079   1.004   7.509   1.292 -1.3983 -0.8315  1.4040
  801MOL0     H 8080   0.978   7.799   1.245 -1.0821 -1.1945 -0.3006
  801MOL0     H 8081   1.137   7.712   1.298  1.4462 -2.0540 -2.6225
  801MOL0     H 8082   1.121   7.774   1.045  3.3769 -1.8480 -1.7382
  801MOL0     H 8083   0.992   7.653   1.043  0.6858  0.9020 -1.6653
  801MOL0     H 8084   1.130   7.479   1.086  0.5288 -0.3901  0.9918
  801MOL0     H 8085   1.198   7.584   0.959  1.0152  2.0017  0.0804
  801MOL0     H 8086   1.300   7.483   1.319 -1.8401 -0.4945 -0.4213
  801MOL0     H 8087   1.545   7.564   1.452  3.9851  0.8635  1.4845
  801MOL0     H 8088   1.550   7.410   1.382 -0.6484 -0.6510  0.0231
  801MOL0     H 8089   1.776   7.442   1.319  0.4066  0.2935  0.8507
  801MOL0     H 8090   1.742   7.612   1.280 -1.7136  2.1195  1.3597
  801MOL0     H 8091   1.784   7.501   1.563 -1.2720 -0.3402 -2.2022
  801MOL0     H 8092   1.772   7.680   1.511 -0.2949  1.5572 -4.0405
  801MOL0     H 8093   2.006   7.629   1.550 -0.3807  0.3168 -0.2506
  801MOL0     H 8094   1.972   7.673   1.389  0.7365  0.8539  0.8883
  801MOL0     H 8095   2.179   7.675   1.325 -0.0660  0.4199  1.3657
  801MOL0     H 8096   2.428   7.672   1.352  0.2538  0.3565  0.8717
  801MOL0     H 8097   2.774   7.376   1.703 -1.4726  0.9674 -0.9572
  801MOL0     H 8098   3.013   7.385   1.726  2.6718  2.2140 -0.2667
  801MOL0     H 8099   3.191   7.517   1.657 -2.6070 -0.6817 -1.2619
  801MOL0     H 8100   3.232   7.354   1.723 -0.1830  1.7262  1.3899
  801MOL0     H 8101   3.442   7.350   1.587  1.9770  0.6380  1.0260
  801MOL0     H 8102   3.413   7.523   1.554 -1.2431 -0.2381 -0.6605
  801MOL0     H 8103   3.444   7.566   1.788  2.5605  0.4929 -0.9982
  801MOL0     H 8104   3.420   7.393   1.819  1.3070 -2.1523 -0.5825
  801MOL0     H 8105   3.658   7.493   1.654 -1.7237  0.4942 -1.5823
  801MOL0     H 8106   3.640   7.332   1.734 -1.5258 -1.2900 -0.5851
  801MOL0     H 8107   3.660   7.587   1.883 -1.5426 -0.2082 -2.1946
  801MOL0     H 8108   3.811   7.506   1.811  0.5752 -1.0224 -0.1809
  801MOL0     H 8109   3.770   7.464   2.040 -1.7089  0.6616 -0.5737
  801MOL0     H 8110   3.609   7.392   2.011  0.8372 -1.6964  2.6953
  801MOL0     H 8111   3.862   7.292   1.908 -2.5102  2.6200 -1.9099
  801MOL0     H 8112   3.696   7.203   1.900 -0.9381  2.2802 -1.5861
  801MOL0     H 8113   3.859   7.226   2.159  1.6243  0.1949 -0.4782
  801MOL0     H 8114   3.688   7.182   2.146  1.4436 -1.5386  1.3232
  801MOL0     H 8115   3.051   7.310   1.309  0.3726  1.3515 -0.3233
  801MOL0     H 8116   2.805   7.315   1.289  2.8398  1.2205 -1.2916
  801MOL0     H 8117   2.405   7.254   1.454 -1.0790 -1.2440  1.8771
  801MOL0     H 8118   2.156   7.269   1.455  0.9355  1.6581  3.2621
  801MOL0     H 8119   0.434   7.332   1.678  4.2547 -0.3141 -0.1070
  801MOL0     H 8120   0.280   7.175   1.774  1.0912 -1.3198  0.6161
  801MOL0     H 8121  -0.058   6.981   1.789  0.1976 -1.3485  1.9554
  801MOL0     H 8122  -0.261   6.896   1.883 -0.7991 -1.0331  0.6349
  801MOL0     H 8123  -0.460   6.805   1.895 -1.5722 -0.3449  1.2459
  801MOL0     H 8124  -0.418   6.710   2.044  1.9627 -1.9490  0.5583
  801MOL0     H 8125  -0.647   6.668   1.975 -0.0949  1.5012 -0.9348
  801MOL0     H 8126  -0.546   6.520   1.952  0.1205 -0.3736 -0.6309
  801MOL0     H 8127  -0.536   6.575   1.694  0.4514 -1.0471  0.1221
  801MOL0     H 8128  -0.618   6.726   1.737  1.1901  0.0544 -0.1469
  801MOL0     H 8129  -0.726   6.446   1.777  2.2418  0.5761  1.8182
  801MOL0     H 8130  -0.813   6.596   1.825 -2.0345  0.8699 -3.0773
  801MOL0     H 8131  -0.909   6.612   1.428 -1.6962  1.8203  1.0626
  801MOL0     H 8132  -0.166   6.497   1.776  0.4851  0.1486  0.4560
  801MOL0     H 8133   0.043   6.440   1.738  0.3057 -0.5596 -1.9469
  801MOL0     H 8134   0.062   6.520   1.575  0.2703  0.1982  0.8585
  801MOL0     H 8135   0.177   6.560   1.706  0.2168  1.8020  1.6807
  802MOL0     O 8136   7.467   8.822  10.894  0.3296  0.3774  0.0507
  802MOL0     C 8137   7.515   8.711  10.917  0.7370 -0.0596  0.6890
  802MOL0     O 8138   7.442   8.595  10.924  0.3849  0.9996  0.2707
  802MOL0     C 8139   7.307   8.606  10.936 -1.1755 -0.2468  0.0931
  802MOL0     C 8140   7.233   8.621  10.823  0.0799 -0.0015  0.4683
  802MOL0     C 8141   7.100   8.630  10.820  0.8087 -0.3978  0.7313
  802MOL0     C 8142   7.029   8.637  10.941 -0.3112 -0.4781  0.0522
  802MOL0     O 8143   6.890   8.643  10.961 -0.2283  0.2550 -0.6402
  802MOL0     C 8144   6.826   8.736  10.885 -0.1804 -1.2015 -0.0773
  802MOL0     C 8145   6.675   8.726  10.906 -0.4495  0.2917  0.2760
  802MOL0     C 8146   6.591   8.822  10.815  0.3043  0.4703  0.1780
  802MOL0     C 8147   6.454   8.759  10.789  0.3856 -0.5672 -0.3569
  802MOL0     C 8148   6.370   8.872  10.733 -0.1401  0.5342  0.4764
  802MOL0     C 8149   6.220   8.831  10.731  0.2645  0.8356 -0.4584
  802MOL0     C 8150   6.129   8.938  10.655  0.4364  0.2342  0.3929
  802MOL0     C 8151   6.078   8.900  10.510 -0.3812  0.0663 -0.4623
  802MOL0     N 8152   6.166   8.920  10.402  0.1109 -0.3637  0.4726
  802MOL0     C 8153   6.190   9.028  10.335  0.3018  0.3573  0.8826
  802MOL0     C 8154   6.271   8.985  10.238 -0.0238 -0.0493 -0.6054
  802MOL0     C 8155   6.312   9.085  10.134 -0.4527 -0.1364 -0.1523
  802MOL0     C 8156   6.464   9.138  10.167  0.2261 -0.2359 -0.3909
  802MOL0     C 8157   6.533   9.238  10.071 -0.7111 -0.2741 -0.4236
  802MOL0     C 8158   6.679   9.286  10.105  0.3868 -0.1735  0.2756
  802MOL0     O 8159   6.764   9.171  10.106 -0.0882 -0.0056 -0.7424
  802MOL0     C 8160   6.899   9.182  10.138  0.9308  0.7461 -0.2597
  802MOL0     C 8161   6.974   9.083  10.079  0.5123  0.3787  0.2034
  802MOL0     C 8162   7.113   9.082  10.098  0.7612  0.0121  0.1544
  802MOL0     C 8163   7.175   9.187  10.171  0.2253 -0.0634 -0.6118
  802MOL0     C 8164   7.324   9.198  10.180 -0.2350 -0.1231  0.2966
  802MOL0     O 8165   7.413   9.114  10.117 -0.3737 -0.0145  0.4841
  802MOL0     C 8166   7.549   9.141  10.134  0.3107  0.5585  0.4721
  802MOL0     C 8167   7.626   9.216  10.045 -0.7262  0.2417  0.4784
  802MOL0     C 8168   7.757   9.252  10.071  0.4580  0.4910  0.3532
  802MOL0     C 8169   7.818   9.211  10.187  0.0250  0.3586  0.1290
  802MOL0     O 8170   7.947   9.252  10.202  0.5242  0.1606 -0.1426
  802MOL0     C 8171   7.992   9.280  10.335  0.0777 -0.6333 -0.1797
  802MOL0     C 8172   8.146   9.293  10.338  0.0330  0.5395  1.0368
  802MOL0     C 8173   8.210   9.338  10.477  0.6889 -0.0214  0.2002
  802MOL0     C 8174   8.364   9.343  10.465 -0.6772  0.9172 -0.1043
  802MOL0     C 8175   8.424   9.357  10.602  0.1718 -0.0667  0.2114
  802MOL0     C 8176   8.576   9.367  10.602  0.5622 -0.1539  0.8136
  802MOL0     C 8177   8.638   9.389  10.732  0.1879 -0.6466  0.0703
  802MOL0     C 8178   8.784   9.428  10.732 -0.4017  0.6729 -0.0673
  802MOL0    Cl 8179   8.896   9.288  10.741 -0.2593  0.1870 -0.2263
  802MOL0     C 8180   7.749   9.127  10.275  0.2623 -0.0453  0.7626
  802MOL0     C 8181   7.620   9.090  10.246 -0.4392  0.8186 -0.3987
  802MOL0     O 8182   7.364   9.285  10.259  0.0866 -0.9526  0.6898
  802MOL0     C 8183   7.097   9.272  10.239 -0.0576 -0.7764  0.3099
  802MOL0     C 8184   6.956   9.275  10.226 -0.2733 -0.0629  0.0549
  802MOL0     N 8185   6.308   8.854  10.251  0.9541 -0.2339 -0.0981
  802MOL0     N 8186   6.247   8.816  10.357  0.3736  0.3495  0.4913
  802MOL0     C 8187   7.104   8.627  11.058 -0.6453  0.2840 -0.2079
  802MOL0     C 8188   7.245   8.625  11.057  1.1951  0.8469  0.7256
  802MOL0     C 8189   7.653   8.703  10.937 -1.2319 -0.0730 -0.1725
  802MOL0     C 8190   7.742   8.785  10.872  0.6599  0.4412  0.7531
  802MOL0     C 8191   7.886   8.765  10.876 -0.2041  0.9876 -0.5237
  802MOL0     C 8192   7.938   8.663  10.961 -0.2580 -0.6082 -0.5505
  802MOL0     O 8193   8.073   8.638  10.968 -0.2438 -0.0486  0.0542
  802MOL0     C 8194   8.141   8.641  10.836  0.1768  0.0477 -0.7852
  802MOL0     C 8195   8.283   8.595  10.837 -0.4399 -0.2796 -0.4763
  802MOL0     C 8196   8.367   8.668  10.942  0.1252  0.7422  0.3569
  802MOL0     C 8197   8.357   8.582  11.070 -0.5930 -0.1825 -0.2636
  802MOL0     C 8198   8.444   8.465  11.057  0.0079  0.4857  0.3850
  802MOL0     C 8199   8.510   8.367  11.045 -0.3364 -0.1318 -0.7042
  802MOL0     C 8200   7.855   8.592  11.046  0.3662  0.4864  0.1212
  802MOL0     C 8201   7.712   8.609  11.032 -0.4863 -0.1897  0.2750
  802MOL0     C 8202   7.629   8.517  11.117  0.4040  0.2572  0.3194
  802MOL0     H 8203   7.274   8.616  10.723 -0.9552  2.0935 -0.1141
  802MOL0     H 8204   7.049   8.633  10.724 -2.6723 -1.4880  2.3572
  802MOL0     H 8205   6.850   8.837  10.921  1.1249 -1.6187  0.2699
  802MOL0     H 8206   6.840   8.724  10.778  0.1224  4.9960 -1.1401
  802MOL0     H 8207   6.652   8.740  11.012  0.6222 -3.1129  1.0877
  802MOL0     H 8208   6.639   8.626  10.881  1.0337 -0.5363  1.2671
  802MOL0     H 8209   6.637   8.844  10.718  1.0210  2.8907  0.9894
  802MOL0     H 8210   6.586   8.907  10.884 -0.6729  2.1281 -1.8350
  802MOL0     H 8211   6.479   8.677  10.721  4.9544 -0.4893  0.9089
  802MOL0     H 8212   6.417   8.720  10.884  0.0786  4.1913  1.7639
  802MOL0     H 8213   6.374   8.956  10.804  1.2471  0.8695  0.0343
  802MOL0     H 8214   6.401   8.915  10.637  0.0770  0.6833  0.6112
  802MOL0     H 8215   6.207   8.732  10.687 -0.7402  0.9676 -0.4807
  802MOL0     H 8216   6.184   8.820  10.833 -2.5531 -1.6300 -1.5597
  802MOL0     H 8217   6.172   9.037  10.638 -0.7245  0.6486 -0.3004
  802MOL0     H 8218   6.040   8.962  10.715  0.4072 -1.4241  1.0528
  802MOL0     H 8219   6.056   8.793  10.502  0.9719 -0.0783 -5.5033
  802MOL0     H 8220   5.986   8.958  10.494 -0.0714  1.0419  1.0636
  802MOL0     H 8221   6.158   9.130  10.355 -0.6134  0.6024 -1.5133
  802MOL0     H 8222   6.297   9.037  10.037  1.5491  0.2051 -0.6815
  802MOL0     H 8223   6.242   9.168  10.126 -4.5429 -3.0952  1.3566
  802MOL0     H 8224   6.451   9.178  10.269 -0.0034  0.8124 -0.8139
  802MOL0     H 8225   6.526   9.049  10.171 -0.5971 -0.8204 -0.3720
  802MOL0     H 8226   6.467   9.325  10.069 -0.4105  0.0130  0.8741
  802MOL0     H 8227   6.525   9.194   9.971 -0.2361 -0.0446 -0.5667
  802MOL0     H 8228   6.682   9.331  10.204 -0.6419  0.2258  0.1356
  802MOL0     H 8229   6.719   9.355  10.029 -1.3462 -0.5897 -1.0918
  802MOL0     H 8230   6.929   9.004  10.021 -0.6819  0.2246  1.2771
  802MOL0     H 8231   7.177   9.004  10.058  1.1542  0.0612  0.6705
  802MOL0     H 8232   7.585   9.251   9.951  2.1651 -1.3522 -1.5542
  802MOL0     H 8233   7.817   9.309  10.001 -1.4240  1.2950 -0.6879
  802MOL0     H 8234   7.951   9.379  10.357 -2.7724 -2.0711  1.5849
  802MOL0     H 8235   7.960   9.216  10.418 -1.2306  1.8560  1.3486
  802MOL0     H 8236   8.190   9.202  10.298 -0.9077  0.9619 -1.1239
  802MOL0     H 8237   8.169   9.369  10.262 -0.6666  0.7548  1.0323
  802MOL0     H 8238   8.170   9.434  10.510  0.8271  0.1631 -0.1644
  802MOL0     H 8239   8.188   9.261  10.551  2.3610 -1.0055 -0.2748
  802MOL0     H 8240   8.382   9.419  10.387 -3.0628 -0.8452 -2.5416
  802MOL0     H 8241   8.403   9.254  10.416 -2.1469  1.1938 -1.8725
  802MOL0     H 8242   8.399   9.263  10.654  1.1313 -0.6883 -0.4146
  802MOL0     H 8243   8.395   9.446  10.659  0.4910 -0.5718  1.2004
  802MOL0     H 8244   8.622   9.276  10.563  2.3319  0.9722  0.1331
  802MOL0     H 8245   8.589   9.448  10.530 -1.3977 -1.0413 -0.6285
  802MOL0     H 8246   8.633   9.294  10.787  0.4669 -0.1601  0.9503
  802MOL0     H 8247   8.583   9.471  10.779  1.1839 -0.5987  1.1962
  802MOL0     H 8248   8.824   9.498  10.658  1.1966  0.5292  0.6002
  802MOL0     H 8249   8.803   9.490  10.820  3.9645  1.1655 -1.0919
  802MOL0     H 8250   7.811   9.093  10.358 -0.7349  1.7882  2.3490
  802MOL0     H 8251   7.560   9.030  10.313 -1.2382  2.1918  0.1429
  802MOL0     H 8252   7.141   9.359  10.288 -1.0758  1.0306 -1.7922
  802MOL0     H 8253   6.903   9.360  10.270  1.6689  1.5188 -0.5406
  802MOL0     H 8254   7.074   8.603  11.160  1.5300  2.5285  1.0775
  802MOL0     H 8255   7.295   8.614  11.152  0.0418 -0.9269  1.1721
  802MOL0     H 8256   7.715   8.853  10.792  2.6673  0.3675 -0.0602
  802MOL0     H 8257   7.945   8.831  10.813  4.2745 -2.7954 -0.8558
  802MOL0     H 8258   8.127   8.735  10.781 -0.1675  2.2091  2.6346
  802MOL0     H 8259   8.082   8.563  10.788 -0.9506  0.5411 -0.2516
  802MOL0     H 8260   8.324   8.612  10.736  1.9052 -0.2272  0.4171
  802MOL0     H 8261   8.275   8.486  10.843  1.6602 -0.6488 -2.7283
  802MOL0     H 8262   8.331   8.770  10.958  0.8942  0.7905  1.9141
  802MOL0     H 8263   8.467   8.666  10.897 -0.2560 -1.0604 -0.4954
  802MOL0     H 8264   8.394   8.644  11.152  0.5233  0.0515 -0.9199
  802MOL0     H 8265   8.257   8.542  11.084 -0.3329 -0.2960  1.3862
  802MOL0     H 8266   8.564   8.275  11.033  0.2689 -0.1545  1.5903
  802MOL0     H 8267   7.906   8.514  11.101  0.1088 -1.7854 -2.6751
  802MOL0     H 8268   7.544   8.465  11.073 -0.5985 -0.5184  2.9831
  802MOL0     H 8269   7.685   8.430  11.150  1.4265  0.8096  0.0872
  802MOL0     H 8270   7.601   8.564  11.212  0.7851  0.3919  0.3693
  803MOL0     O 8271   8.865   2.874   1.328  0.2410 -0.6557  0.6209
  803MOL0     C 8272   8.846   2.915   1.218 -0.4485 -0.5570  0.1403
  803MOL0     O 8273   8.870   3.044   1.176 -0.1298  0.1355 -0.2893
  803MOL0     C 8274   8.956   3.119   1.257 -0.9785 -0.2373  0.3819
  803MOL0     C 8275   8.919   3.191   1.367  0.4734  0.1838  0.1379
  803MOL0     C 8276   9.015   3.272   1.435  0.3361 -0.2111 -0.2230
  803MOL0     C 8277   9.146   3.278   1.396  0.2467 -0.4191 -0.2510
  803MOL0     O 8278   9.230   3.335   1.491 -0.5641 -0.3473  0.1946
  803MOL0     C 8279   9.373   3.362   1.472  0.3932  0.0913 -0.3437
  803MOL0     C 8280   9.396   3.490   1.385  0.4278 -0.0633  0.3782
  803MOL0     C 8281   9.539   3.527   1.350 -0.1345 -0.0938 -0.1349
  803MOL0     C 8282   9.602   3.431   1.245 -0.4103  0.2734 -0.3985
  803MOL0     C 8283   9.752   3.439   1.216  0.1179  0.3175 -0.2487
  803MOL0     C 8284   9.842   3.489   1.331 -0.0526 -1.0106  1.1748
  803MOL0     C 8285   9.982   3.454   1.311  0.4168 -0.7091  0.5637
  803MOL0     C 8286  10.018   3.318   1.364  0.8360 -0.0943 -0.1437
  803MOL0     N 8287  10.161   3.291   1.338  0.6957 -0.2459 -0.4168
  803MOL0     C 8288  10.267   3.338   1.412 -0.0650 -0.1456 -0.0854
  803MOL0     C 8289  10.377   3.282   1.356  0.0290  0.7010 -0.5006
  803MOL0     C 8290  10.530   3.290   1.391  0.2461  0.3217  0.2797
  803MOL0     C 8291  10.569   3.399   1.483  0.4889  0.2282  0.2445
  803MOL0     C 8292  10.554   3.539   1.404 -0.0788 -0.5250  0.2941
  803MOL0     C 8293  10.529   3.652   1.495  0.1833  0.5035  0.3634
  803MOL0     O 8294  10.644   3.674   1.575  0.3257 -0.0169 -0.0316
  803MOL0     C 8295  10.771   3.697   1.523  0.3236 -0.2367 -0.6368
  803MOL0     C 8296  10.884   3.647   1.596  0.0253 -0.1592  0.5530
  803MOL0     C 8297  11.012   3.680   1.552  0.1507 -0.9175  0.7127
  803MOL0     C 8298  11.035   3.757   1.431  0.2897  0.6455 -0.1330
  803MOL0     C 8299  11.171   3.795   1.390 -0.0902 -0.3918  0.4581
  803MOL0     O 8300  11.276   3.707   1.431  0.3187 -0.3456 -0.0815
  803MOL0     C 8301  11.414   3.742   1.412  0.2536  0.4374 -0.4690
  803MOL0     C 8302  11.458   3.881   1.398  0.0010  0.0360 -0.7329
  803MOL0     C 8303  11.592   3.912   1.408  0.0441 -0.7941  0.1566
  803MOL0     C 8304  11.687   3.802   1.409  0.6624 -0.5654  0.4148
  803MOL0     O 8305  11.821   3.826   1.396 -0.2264 -0.1505 -0.5077
  803MOL0     C 8306  11.869   3.880   1.523  0.2231 -0.1519 -1.2473
  803MOL0     C 8307  12.004   3.809   1.557  0.6395  0.6983  0.5369
  803MOL0     C 8308  12.059   3.853   1.688  0.0121 -0.4532  0.5255
  803MOL0     C 8309  12.122   3.997   1.680 -0.6192 -0.0423 -0.1880
  803MOL0     C 8310  12.160   4.047   1.819 -0.1831  0.1570 -0.5685
  803MOL0     C 8311  12.243   3.945   1.903  0.4564  0.0873  0.5463
  803MOL0     C 8312  12.305   4.018   2.024 -0.3320 -0.0689  0.4913
  803MOL0     C 8313  12.433   3.958   2.061 -1.0541 -0.2632  0.1544
  803MOL0    Cl 8314  12.545   3.940   1.909 -0.3573  0.4851 -0.2406
  803MOL0     C 8315  11.649   3.672   1.428 -0.2824  0.0567  0.5639
  803MOL0     C 8316  11.513   3.643   1.432 -0.0677  0.7195 -0.1066
  803MOL0     O 8317  11.179   3.898   1.318  0.0298  0.2110  0.1423
  803MOL0     C 8318  10.923   3.791   1.356  0.2962  0.1287  0.0947
  803MOL0     C 8319  10.791   3.768   1.402  0.3859  0.3419  0.3841
  803MOL0     N 8320  10.339   3.203   1.249  0.3219 -0.2494 -0.7041
  803MOL0     N 8321  10.208   3.201   1.249 -0.2818 -0.1429 -0.8609
  803MOL0     C 8322   9.184   3.200   1.283 -0.6747  0.1542  0.6348
  803MOL0     C 8323   9.084   3.125   1.213 -0.5945  0.6068 -0.3058
  803MOL0     C 8324   8.769   2.820   1.137  0.6028  0.3777  0.0703
  803MOL0     C 8325   8.690   2.888   1.048 -0.0714 -0.4293 -0.7273
  803MOL0     C 8326   8.605   2.820   0.958  0.0173  0.0523 -0.4949
  803MOL0     C 8327   8.604   2.680   0.957  0.7968 -0.3345 -0.4545
  803MOL0     O 8328   8.528   2.598   0.873 -0.0224  0.5380  0.3346
  803MOL0     C 8329   8.451   2.670   0.776  0.4964 -0.3777  0.7890
  803MOL0     C 8330   8.365   2.579   0.688 -1.1727  0.2799  0.3577
  803MOL0     C 8331   8.439   2.463   0.608 -0.3576  0.4088  1.7037
  803MOL0     C 8332   8.526   2.502   0.486  0.4381  0.1641 -0.3700
  803MOL0     C 8333   8.460   2.588   0.391 -0.2788  0.5445  0.0613
  803MOL0     C 8334   8.401   2.666   0.320 -0.3922  0.0246  0.5136
  803MOL0     C 8335   8.686   2.612   1.057 -0.3843 -0.6809  0.8695
  803MOL0     C 8336   8.770   2.686   1.141  0.4129 -0.5218 -0.4611
  803MOL0     C 8337   8.865   2.607   1.229  0.2399  0.6710 -0.6883
  803MOL0     H 8338   8.814   3.195   1.394  0.1572  1.3595 -1.1102
  803MOL0     H 8339   8.991   3.323   1.528  1.8114  3.9510 -1.8376
  803MOL0     H 8340   9.415   3.368   1.573 -0.9077  0.6234  0.1871
  803MOL0     H 8341   9.415   3.278   1.415 -1.8565 -2.2665  1.2162
  803MOL0     H 8342   9.354   3.574   1.442 -1.1794 -1.9426  2.1382
  803MOL0     H 8343   9.348   3.472   1.289 -2.6265  0.8838  1.5826
  803MOL0     H 8344   9.591   3.518   1.445 -2.9569  0.3680  1.5743
  803MOL0     H 8345   9.543   3.631   1.316 -0.1070 -0.4955 -1.4125
  803MOL0     H 8346   9.586   3.329   1.282  2.3194 -0.2229 -0.3781
  803MOL0     H 8347   9.549   3.435   1.149  2.1315 -0.2768 -1.9268
  803MOL0     H 8348   9.789   3.341   1.185  1.6965  0.3885  1.2251
  803MOL0     H 8349   9.752   3.507   1.130  0.2705  1.3824  0.5752
  803MOL0     H 8350   9.837   3.598   1.336 -0.0609 -1.0477  2.1907
  803MOL0     H 8351   9.804   3.450   1.425 -2.2060 -0.0818  0.7545
  803MOL0     H 8352  10.041   3.521   1.375  1.6507 -0.7897 -0.4585
  803MOL0     H 8353  10.003   3.448   1.204  1.7215 -1.2913  0.8378
  803MOL0     H 8354   9.990   3.320   1.470 -0.1223 -1.6202 -0.3287
  803MOL0     H 8355   9.960   3.237   1.318  1.5588 -0.3386 -0.6436
  803MOL0     H 8356  10.270   3.409   1.494  1.7546  0.9251 -1.0073
  803MOL0     H 8357  10.573   3.204   1.444  1.1691 -0.8081 -2.1561
  803MOL0     H 8358  10.590   3.290   1.299  0.5141 -0.9726  0.4295
  803MOL0     H 8359  10.497   3.398   1.565 -2.3050 -1.8234 -2.0415
  803MOL0     H 8360  10.674   3.392   1.514  0.8242  3.8082  0.3093
  803MOL0     H 8361  10.469   3.542   1.336 -0.8062  0.0792  1.2161
  803MOL0     H 8362  10.642   3.538   1.340 -0.4881 -1.6456 -0.2905
  803MOL0     H 8363  10.450   3.622   1.564  1.3302 -0.9327  1.1213
  803MOL0     H 8364  10.500   3.743   1.441 -1.1272 -0.5870 -0.8203
  803MOL0     H 8365  10.876   3.589   1.687 -1.0785 -2.0774 -0.6900
  803MOL0     H 8366  11.102   3.646   1.602  1.6814  1.1979 -0.4179
  803MOL0     H 8367  11.382   3.955   1.377 -0.1225 -0.1651 -0.9821
  803MOL0     H 8368  11.625   4.014   1.388 -2.9698  0.3094  0.3136
  803MOL0     H 8369  11.881   3.988   1.514  1.3345 -0.1214  0.3385
  803MOL0     H 8370  11.805   3.862   1.610 -0.2523  0.9653 -1.3497
  803MOL0     H 8371  11.990   3.702   1.539  0.8752  0.9132 -1.0485
  803MOL0     H 8372  12.071   3.843   1.477 -0.0496 -1.2692 -0.9548
  803MOL0     H 8373  11.983   3.840   1.766 -0.0637 -0.9559  0.3694
  803MOL0     H 8374  12.144   3.786   1.703  2.3686  2.0503 -0.7631
  803MOL0     H 8375  12.053   4.068   1.633  3.1435  3.8246 -0.5212
  803MOL0     H 8376  12.217   3.995   1.624 -0.1918  0.2822  0.5201
  803MOL0     H 8377  12.072   4.071   1.880  1.4911  1.6170  1.4386
  803MOL0     H 8378  12.208   4.143   1.795 -0.4513  0.1810 -1.0150
  803MOL0     H 8379  12.168   3.872   1.936  0.1566 -0.8266 -1.9340
  803MOL0     H 8380  12.318   3.889   1.847 -0.6637 -1.1574  0.2243
  803MOL0     H 8381  12.248   4.003   2.116  0.0377 -2.0949  0.4383
  803MOL0     H 8382  12.321   4.125   2.006  1.9510 -0.2814  0.9291
  803MOL0     H 8383  12.483   4.019   2.136 -0.7885  1.5404 -1.4113
  803MOL0     H 8384  12.415   3.861   2.109  3.0209 -1.8055 -1.0348
  803MOL0     H 8385  11.723   3.595   1.441 -1.4417 -1.3597 -0.9031
  803MOL0     H 8386  11.472   3.542   1.435  1.3864  0.1247  1.8765
  803MOL0     H 8387  10.928   3.846   1.263  0.3483  0.7679  0.4665
  803MOL0     H 8388  10.707   3.809   1.347  0.1904 -0.1109  0.3323
  803MOL0     H 8389   9.287   3.191   1.248 -1.1512 -0.3176 -0.7102
  803MOL0     H 8390   9.118   3.074   1.123 -0.7941  3.9734 -2.4645
  803MOL0     H 8391   8.680   2.996   1.046 -1.3103 -0.4926  0.7163
  803MOL0     H 8392   8.552   2.880   0.885 -0.1395 -0.3310 -0.6999
  803MOL0     H 8393   8.520   2.718   0.707 -1.0422 -3.2327 -3.1303
  803MOL0     H 8394   8.384   2.740   0.827  1.0945  1.4885 -0.8825
  803MOL0     H 8395   8.308   2.643   0.620 -2.7592  0.6116  1.9413
  803MOL0     H 8396   8.289   2.536   0.753 -1.2828 -1.8180 -1.0240
  803MOL0     H 8397   8.384   2.375   0.573 -1.1036  2.0732 -1.7559
  803MOL0     H 8398   8.506   2.414   0.679  1.2317  0.7986  0.5435
  803MOL0     H 8399   8.614   2.546   0.533  2.5328 -2.7701 -1.2490
  803MOL0     H 8400   8.559   2.411   0.435  1.5668  1.1011 -1.3574
  803MOL0     H 8401   8.354   2.727   0.245  0.7232  1.8929  1.2455
  803MOL0     H 8402   8.672   2.505   1.059 -1.3630 -0.5537  1.5135
  803MOL0     H 8403   8.884   2.510   1.183 -0.7455 -0.7428  1.7049
  803MOL0     H 8404   8.960   2.660   1.232  0.0378  0.9893  0.5292
  803MOL0     H 8405   8.827   2.592   1.330  2.2821  1.0671  0.1731
  804MOL0     O 8406   0.536   4.854   6.504  0.4735 -0.7861  0.9698
  804MOL0     C 8407   0.493   4.755   6.550  0.6039 -0.0857 -0.0992
  804MOL0     O 8408   0.549   4.685   6.647 -0.6780 -0.4916 -0.1381
  804MOL0     C 8409   0.668   4.714   6.710 -0.2415  0.1440 -0.2447
  804MOL0     C 8410   0.675   4.688   6.849  0.1099 -0.2967  0.2058
  804MOL0     C 8411   0.783   4.728   6.933  0.2934 -0.6540  0.5606
  804MOL0     C 8412   0.894   4.793   6.870  0.2371  0.8081 -0.8772
  804MOL0     O 8413   1.004   4.802   6.952  0.4169 -1.0241 -0.3479
  804MOL0     C 8414   1.134   4.837   6.907  0.4009 -0.4176  0.4842
  804MOL0     C 8415   1.223   4.866   7.022  0.0091  0.3351  0.3181
  804MOL0     C 8416   1.351   4.929   6.970 -0.3483 -0.1684  0.2665
  804MOL0     C 8417   1.439   4.961   7.093  0.2833  0.3805  0.1078
  804MOL0     C 8418   1.591   4.966   7.060  0.3178  0.4430 -0.4426
  804MOL0     C 8419   1.628   5.071   6.953  0.5644 -0.2535  1.0351
  804MOL0     C 8420   1.635   5.214   6.992  0.0098 -1.6450  0.2907
  804MOL0     C 8421   1.727   5.308   6.909 -0.1557  0.1899  0.6705
  804MOL0     N 8422   1.859   5.244   6.890 -0.2229  0.0790  0.1585
  804MOL0     C 8423   1.955   5.219   6.993  0.5333 -0.6013 -0.7672
  804MOL0     C 8424   2.066   5.163   6.934  0.8847 -0.7535  1.0355
  804MOL0     C 8425   2.184   5.124   7.012  0.1280  0.2671 -0.6544
  804MOL0     C 8426   2.290   5.231   7.034  0.5136  0.7451 -0.8083
  804MOL0     C 8427   2.257   5.371   7.078  0.6147  0.5010 -0.4275
  804MOL0     C 8428   2.201   5.373   7.222 -0.3323  0.4042  0.5433
  804MOL0     O 8429   2.291   5.310   7.315  0.3589 -0.7733 -0.3404
  804MOL0     C 8430   2.404   5.365   7.355  0.3409 -0.6439  0.0506
  804MOL0     C 8431   2.450   5.494   7.343  0.0668 -0.1152 -0.7736
  804MOL0     C 8432   2.565   5.543   7.402 -1.3141  0.7934  0.0109
  804MOL0     C 8433   2.650   5.457   7.469  1.7057  0.3569 -0.5387
  804MOL0     C 8434   2.781   5.503   7.524  0.3183  0.4123  0.3280
  804MOL0     O 8435   2.855   5.403   7.587  0.2193  0.5270 -0.2258
  804MOL0     C 8436   2.987   5.431   7.607 -0.0524 -0.2587 -0.6930
  804MOL0     C 8437   3.024   5.525   7.709  0.5082 -0.0499 -0.3707
  804MOL0     C 8438   3.159   5.546   7.731  0.2737  0.7160  1.1497
  804MOL0     C 8439   3.257   5.480   7.665 -0.4933  0.1984 -0.1730
  804MOL0     O 8440   3.391   5.498   7.688  0.5080 -0.6573  0.0559
  804MOL0     C 8441   3.438   5.603   7.773 -0.0654 -0.3199 -0.4334
  804MOL0     C 8442   3.587   5.589   7.797  1.0464  0.2713 -0.6872
  804MOL0     C 8443   3.670   5.711   7.846  0.1421 -0.0235  0.5815
  804MOL0     C 8444   3.815   5.671   7.869  0.2499 -0.2884  1.4010
  804MOL0     C 8445   3.903   5.789   7.858  0.4257 -0.6316 -0.4165
  804MOL0     C 8446   4.053   5.734   7.846  0.8041 -0.8082 -0.3278
  804MOL0     C 8447   4.149   5.855   7.819  0.0838  0.2167 -1.1696
  804MOL0     C 8448   4.288   5.810   7.811  0.2865  0.3912 -0.3098
  804MOL0    Cl 8449   4.339   5.785   7.972 -0.3232  0.5300 -0.0440
  804MOL0     C 8450   3.221   5.384   7.568 -0.3864  0.5907  0.5121
  804MOL0     C 8451   3.083   5.357   7.534  0.5230  0.3227 -0.2050
  804MOL0     O 8452   2.816   5.618   7.502 -0.2909 -0.4259  0.1104
  804MOL0     C 8453   2.608   5.322   7.481 -0.5159  0.2877 -0.2052
  804MOL0     C 8454   2.485   5.277   7.427 -0.2822  0.5737 -0.5012
  804MOL0     N 8455   2.048   5.170   6.799 -0.2168 -0.7830 -0.8499
  804MOL0     N 8456   1.929   5.206   6.772  0.4388 -0.0622  0.1109
  804MOL0     C 8457   0.897   4.817   6.731 -0.1248  0.2558 -0.1995
  804MOL0     C 8458   0.787   4.774   6.651 -0.0784 -0.2826  0.1755
  804MOL0     C 8459   0.376   4.689   6.487  0.3653 -0.1642 -0.2950
  804MOL0     C 8460   0.361   4.553   6.510  0.4199 -0.3944  0.3147
  804MOL0     C 8461   0.254   4.476   6.447  0.1063 -0.9397 -0.3096
  804MOL0     C 8462   0.156   4.555   6.375  0.4811 -0.1218  0.5858
  804MOL0     O 8463   0.052   4.497   6.304  0.1506 -0.1009  0.5617
  804MOL0     C 8464  -0.003   4.382   6.370 -0.3657  0.0442  0.6429
  804MOL0     C 8465  -0.150   4.380   6.343 -0.4980  0.2590 -0.6737
  804MOL0     C 8466  -0.184   4.362   6.190 -0.0008 -0.1226 -0.3348
  804MOL0     C 8467  -0.328   4.311   6.180 -0.0171 -0.8904  0.6464
  804MOL0     C 8468  -0.349   4.239   6.053  0.0176 -0.2699  0.7073
  804MOL0     C 8469  -0.377   4.186   5.941  1.2718 -0.2884 -0.0406
  804MOL0     C 8470   0.170   4.694   6.356 -0.7452  0.2281 -0.6447
  804MOL0     C 8471   0.277   4.762   6.416  0.4682  0.4405  0.1249
  804MOL0     C 8472   0.269   4.910   6.396  0.5848 -0.0670 -0.1810
  804MOL0     H 8473   0.599   4.632   6.903 -1.8719  0.0072 -2.0986
  804MOL0     H 8474   0.776   4.699   7.037 -1.0906 -1.5495  0.2352
  804MOL0     H 8475   1.183   4.748   6.865  1.6313  0.4135  0.1155
  804MOL0     H 8476   1.133   4.923   6.839  2.2638  0.2954  1.2912
  804MOL0     H 8477   1.244   4.766   7.062  0.4051 -0.8260 -2.5546
  804MOL0     H 8478   1.174   4.934   7.091 -3.1592 -1.1501 -0.3157
  804MOL0     H 8479   1.334   5.020   6.912  0.9205 -0.6695 -0.9406
  804MOL0     H 8480   1.418   4.863   6.914  2.9499  0.6871  2.8612
  804MOL0     H 8481   1.410   5.061   7.127 -3.3764 -0.8378  0.9832
  804MOL0     H 8482   1.412   4.892   7.173  0.5067  1.2350  0.9310
  804MOL0     H 8483   1.642   4.981   7.156  0.1707 -1.5466 -0.0084
  804MOL0     H 8484   1.622   4.865   7.034  0.8809 -0.2870  2.6300
  804MOL0     H 8485   1.731   5.039   6.934  1.7640  2.2173  2.8350
  804MOL0     H 8486   1.561   5.058   6.868  1.2333 -1.4481  0.6688
  804MOL0     H 8487   1.672   5.230   7.094 -1.4835  1.2228  0.4804
  804MOL0     H 8488   1.533   5.253   7.001  0.9768  0.7599  2.1300
  804MOL0     H 8489   1.693   5.339   6.810  3.8150 -1.1255 -1.3231
  804MOL0     H 8490   1.750   5.403   6.957  2.0649  0.2390 -0.3900
  804MOL0     H 8491   1.943   5.236   7.099 -0.6253  1.5113 -1.1857
  804MOL0     H 8492   2.140   5.104   7.110  1.7192  0.1327  0.0713
  804MOL0     H 8493   2.221   5.029   6.973  0.1141 -1.1312  2.4343
  804MOL0     H 8494   2.367   5.196   7.104 -3.3746  0.0564  3.6474
  804MOL0     H 8495   2.351   5.242   6.943  1.5341 -1.2776 -0.4258
  804MOL0     H 8496   2.192   5.423   7.006 -0.7126 -0.7860 -0.2049
  804MOL0     H 8497   2.344   5.436   7.087 -2.1765  4.3570  1.9436
  804MOL0     H 8498   2.108   5.315   7.214 -0.7130  1.0338  0.3661
  804MOL0     H 8499   2.172   5.476   7.244 -1.6530  0.8698 -2.7812
  804MOL0     H 8500   2.389   5.567   7.290  0.2200  0.5545 -0.0438
  804MOL0     H 8501   2.591   5.649   7.394 -1.4112  0.7127 -2.0055
  804MOL0     H 8502   2.951   5.579   7.767 -0.2569  0.3436 -1.6720
  804MOL0     H 8503   3.171   5.616   7.814  0.9660 -0.9670  2.5436
  804MOL0     H 8504   3.419   5.697   7.722  2.2442  0.0408 -0.7499
  804MOL0     H 8505   3.389   5.595   7.871  1.7907 -0.9854  0.4922
  804MOL0     H 8506   3.602   5.504   7.864  0.6105 -0.5651 -1.6206
  804MOL0     H 8507   3.614   5.545   7.700 -1.3840 -1.2122 -0.7832
  804MOL0     H 8508   3.659   5.782   7.763  0.0982 -1.0452 -0.3090
  804MOL0     H 8509   3.623   5.751   7.936 -2.9032  2.6991 -1.9477
  804MOL0     H 8510   3.849   5.598   7.796  0.8146  0.2548  1.1088
  804MOL0     H 8511   3.823   5.624   7.967 -0.1364 -2.7253  0.3309
  804MOL0     H 8512   3.891   5.867   7.934  0.8937  0.3810 -1.3485
  804MOL0     H 8513   3.867   5.835   7.766  0.5767 -0.4128 -0.3689
  804MOL0     H 8514   4.080   5.676   7.935  0.7293  0.1831  0.3569
  804MOL0     H 8515   4.062   5.673   7.756  3.2044 -3.3801  1.5118
  804MOL0     H 8516   4.152   5.932   7.897  0.2652  0.7716 -1.7140
  804MOL0     H 8517   4.119   5.895   7.722 -1.1117  0.2070 -0.8199
  804MOL0     H 8518   4.302   5.713   7.761  0.2353 -0.0620  0.5357
  804MOL0     H 8519   4.358   5.877   7.761 -1.2862  0.8700 -1.9557
  804MOL0     H 8520   3.291   5.319   7.516  0.2788  0.1861  1.8598
  804MOL0     H 8521   3.047   5.277   7.469 -2.9088 -0.1587  2.0441
  804MOL0     H 8522   2.670   5.247   7.528 -0.6869 -1.1616 -2.1565
  804MOL0     H 8523   2.451   5.174   7.439 -0.1336  0.4334 -1.2439
  804MOL0     H 8524   0.978   4.872   6.685  0.1029 -0.8288 -1.1180
  804MOL0     H 8525   0.803   4.796   6.546  3.5673 -0.0072  0.6784
  804MOL0     H 8526   0.430   4.496   6.572 -0.4347 -1.6737  0.1306
  804MOL0     H 8527   0.250   4.368   6.453 -2.9543 -0.9302 -0.7942
  804MOL0     H 8528   0.007   4.397   6.478 -1.7298  1.3857  0.6128
  804MOL0     H 8529   0.039   4.284   6.348 -0.7470  0.1653 -0.6615
  804MOL0     H 8530  -0.194   4.471   6.385 -1.1888 -0.5918  0.5434
  804MOL0     H 8531  -0.185   4.298   6.406  2.4523 -0.7736 -0.2170
  804MOL0     H 8532  -0.126   4.289   6.133  0.7661  3.3332 -4.4527
  804MOL0     H 8533  -0.170   4.451   6.127 -3.2189 -0.1584 -1.2582
  804MOL0     H 8534  -0.342   4.231   6.254 -1.5322 -0.4285  0.8860
  804MOL0     H 8535  -0.386   4.404   6.186  1.9483  0.5034 -0.7822
  804MOL0     H 8536  -0.394   4.123   5.856 -1.9583  0.0683  0.2021
  804MOL0     H 8537   0.087   4.747   6.311  0.9917  1.7777 -2.1967
  804MOL0     H 8538   0.166   4.943   6.382  0.1541 -0.1536  2.3289
  804MOL0     H 8539   0.317   4.966   6.476  2.2013 -0.0626 -1.1117
  804MOL0     H 8540   0.316   4.952   6.307 -0.7016  1.9447  0.0246
  805MOL0     O 8541   7.731   1.223   4.389  0.0356 -0.0455  0.0432
  805MOL0     C 8542   7.706   1.337   4.342 -0.6172 -0.5248  0.0279
  805MOL0     O 8543   7.806   1.427   4.312  0.7622 -0.2793  0.2825
  805MOL0     C 8544   7.933   1.389   4.314 -0.8308 -0.0560 -0.2434
  805MOL0     C 8545   7.999   1.361   4.191  0.5863 -0.4969  0.4370
  805MOL0     C 8546   8.130   1.315   4.187 -0.6439 -0.2583  0.4942
  805MOL0     C 8547   8.209   1.301   4.300  0.4661  0.8033 -0.4416
  805MOL0     O 8548   8.338   1.273   4.277 -0.0313  0.1525 -0.7864
  805MOL0     C 8549   8.435   1.262   4.385 -0.0121 -0.2954 -0.2918
  805MOL0     C 8550   8.562   1.227   4.321  0.0618 -0.9772 -0.2369
  805MOL0     C 8551   8.648   1.165   4.435  0.6899 -0.2718 -0.0847
  805MOL0     C 8552   8.792   1.153   4.386 -0.2262 -0.2810 -0.3693
  805MOL0     C 8553   8.878   1.078   4.500  0.7378 -0.4285 -0.3163
  805MOL0     C 8554   9.030   1.078   4.462 -0.0805  0.0209  0.4691
  805MOL0     C 8555   9.099   1.006   4.570  0.5836  0.8870  0.1585
  805MOL0     C 8556   9.222   0.932   4.510 -1.5816 -1.1714  0.8481
  805MOL0     N 8557   9.312   1.026   4.447 -0.0471  0.0077 -0.0727
  805MOL0     C 8558   9.399   1.112   4.512 -0.1137 -0.4014  0.3608
  805MOL0     C 8559   9.488   1.175   4.431  0.1582  0.1278  0.6060
  805MOL0     C 8560   9.594   1.278   4.464 -0.1682 -0.1523  0.1045
  805MOL0     C 8561   9.731   1.243   4.404 -0.1076  0.3864 -0.1797
  805MOL0     C 8562   9.829   1.365   4.434  0.3385  0.6631  0.3693
  805MOL0     C 8563   9.964   1.340   4.374  0.4918 -0.8161 -0.2526
  805MOL0     O 8564  10.036   1.263   4.466  0.3714 -0.2747 -0.1373
  805MOL0     C 8565  10.173   1.261   4.475 -0.8173  0.0853  0.1348
  805MOL0     C 8566  10.260   1.318   4.385  0.0592  0.1283  0.3818
  805MOL0     C 8567  10.400   1.306   4.406  0.7557  0.0776 -0.6532
  805MOL0     C 8568  10.455   1.250   4.523 -0.3072 -0.2549 -0.2663
  805MOL0     C 8569  10.602   1.248   4.553 -0.3736 -0.1930  0.4357
  805MOL0     O 8570  10.648   1.212   4.673  0.4119 -0.2562  0.1166
  805MOL0     C 8571  10.783   1.227   4.697  0.7043  0.7822 -1.1603
  805MOL0     C 8572  10.837   1.356   4.699 -0.1049 -0.5314  0.8684
  805MOL0     C 8573  10.972   1.384   4.718 -0.4999 -0.6943 -0.4285
  805MOL0     C 8574  11.054   1.270   4.752  0.2295 -0.2293  1.2986
  805MOL0     O 8575  11.190   1.267   4.779  0.0391 -0.6968  0.3025
  805MOL0     C 8576  11.255   1.383   4.835 -0.4268  0.1303  0.3116
  805MOL0     C 8577  11.403   1.346   4.873  0.6200 -0.6700 -0.3817
  805MOL0     C 8578  11.488   1.294   4.761  0.4867  0.1880  0.2902
  805MOL0     C 8579  11.606   1.381   4.732 -0.0144 -0.2181  0.6583
  805MOL0     C 8580  11.683   1.344   4.607 -0.8165  0.5379 -0.8877
  805MOL0     C 8581  11.601   1.297   4.489  0.9920 -1.1741  0.3949
  805MOL0     C 8582  11.689   1.254   4.384 -0.5532 -0.1365  0.3665
  805MOL0     C 8583  11.626   1.183   4.264  0.1615  0.2008 -0.0104
  805MOL0    Cl 8584  11.557   1.313   4.151  0.2725  0.0046  0.2047
  805MOL0     C 8585  11.004   1.136   4.755 -0.1195 -0.2245 -0.7205
  805MOL0     C 8586  10.868   1.116   4.724  0.2238  0.0515  0.4909
  805MOL0     O 8587  10.667   1.296   4.462 -0.2498 -0.0563  0.6465
  805MOL0     C 8588  10.362   1.196   4.613 -0.3589  0.7389  0.1245
  805MOL0     C 8589  10.225   1.198   4.594  1.0561 -0.6266 -0.8589
  805MOL0     N 8590   9.452   1.126   4.307 -0.4545 -0.4120 -0.3698
  805MOL0     N 8591   9.352   1.038   4.321 -0.9350  0.0464 -0.1888
  805MOL0     C 8592   8.153   1.338   4.423  0.6141  0.2346  0.4405
  805MOL0     C 8593   8.012   1.378   4.427 -0.1706 -0.1178  0.2574
  805MOL0     C 8594   7.564   1.375   4.310 -0.4456  0.1536 -0.6493
  805MOL0     C 8595   7.539   1.506   4.274  0.4103  0.3331  0.5958
  805MOL0     C 8596   7.410   1.550   4.241 -0.1168  0.2061  0.5006
  805MOL0     C 8597   7.298   1.467   4.247 -0.7167 -0.8104  0.1279
  805MOL0     O 8598   7.173   1.519   4.227 -0.6313  0.2072 -0.8192
  805MOL0     C 8599   7.058   1.464   4.291 -0.0959 -0.5928 -0.1688
  805MOL0     C 8600   6.952   1.576   4.266 -0.2505 -0.2275  0.5075
  805MOL0     C 8601   6.810   1.541   4.297  0.2902  0.3894  0.4764
  805MOL0     C 8602   6.781   1.524   4.447 -0.9651  0.3506  0.2385
  805MOL0     C 8603   6.633   1.502   4.471  0.1573  0.0844  0.6491
  805MOL0     C 8604   6.514   1.484   4.493 -0.0457  0.3205 -0.3864
  805MOL0     C 8605   7.316   1.336   4.294  0.8014  0.3331  0.0805
  805MOL0     C 8606   7.445   1.290   4.325  0.4043  0.0516 -0.2523
  805MOL0     C 8607   7.458   1.138   4.354 -0.0706 -0.9161 -0.6767
  805MOL0     H 8608   7.937   1.358   4.103  1.3009 -2.8301 -0.0639
  805MOL0     H 8609   8.178   1.297   4.092 -3.0967  2.7255 -1.5039
  805MOL0     H 8610   8.435   1.360   4.433 -0.5849 -0.1323 -0.6214
  805MOL0     H 8611   8.405   1.190   4.462  1.5563  0.3050  0.9456
  805MOL0     H 8612   8.609   1.315   4.275  1.3255 -1.2827  0.4227
  805MOL0     H 8613   8.561   1.155   4.240  1.5604 -0.1328 -1.0567
  805MOL0     H 8614   8.600   1.073   4.469  1.8478 -0.6474  0.5713
  805MOL0     H 8615   8.652   1.234   4.520 -1.9400 -0.1685  0.0495
  805MOL0     H 8616   8.802   1.109   4.286  1.9441  0.4130 -0.5099
  805MOL0     H 8617   8.838   1.252   4.379  1.2762 -0.9361 -0.0566
  805MOL0     H 8618   8.865   1.117   4.601 -2.9738 -0.2197 -0.7430
  805MOL0     H 8619   8.835   0.978   4.502  0.1895 -0.1956 -0.3726
  805MOL0     H 8620   9.038   1.028   4.365  2.8624 -0.2706  0.7856
  805MOL0     H 8621   9.073   1.178   4.454  1.1594 -0.4716  0.8756
  805MOL0     H 8622   9.030   0.934   4.615  0.9155 -0.4737 -1.4077
  805MOL0     H 8623   9.134   1.073   4.649 -0.3631  1.7116 -0.1073
  805MOL0     H 8624   9.274   0.888   4.596  2.8642  0.9299 -0.5033
  805MOL0     H 8625   9.193   0.854   4.439 -1.0536 -0.6829  0.0851
  805MOL0     H 8626   9.395   1.124   4.620 -1.1967 -0.5030  0.3482
  805MOL0     H 8627   9.564   1.375   4.425 -1.2523 -0.0339  1.1943
  805MOL0     H 8628   9.600   1.282   4.573 -0.0899  1.5474  0.0594
  805MOL0     H 8629   9.777   1.154   4.448  2.7219  1.2237 -1.2006
  805MOL0     H 8630   9.727   1.228   4.296 -0.0114  0.2340 -0.1613
  805MOL0     H 8631   9.830   1.391   4.540 -1.2511 -0.8898  0.8013
  805MOL0     H 8632   9.791   1.447   4.373 -1.7718 -0.4996  0.0127
  805MOL0     H 8633  10.023   1.432   4.366  2.3182 -1.8451  0.8551
  805MOL0     H 8634   9.965   1.295   4.275  1.0343 -1.2323 -0.0574
  805MOL0     H 8635  10.228   1.366   4.293 -4.9968 -2.0000  0.6622
  805MOL0     H 8636  10.464   1.354   4.333 -0.4312  1.3642 -0.8970
  805MOL0     H 8637  10.769   1.437   4.676 -0.5743 -1.5480 -1.6317
  805MOL0     H 8638  11.007   1.482   4.689  0.8463 -0.9938  0.1146
  805MOL0     H 8639  11.251   1.469   4.767  1.5216 -0.7483 -0.9757
  805MOL0     H 8640  11.215   1.409   4.934  1.1163 -1.2208  1.3460
  805MOL0     H 8641  11.458   1.427   4.921  0.9274 -1.4619  0.6308
  805MOL0     H 8642  11.398   1.267   4.949  4.1206 -0.5060  0.1834
  805MOL0     H 8643  11.520   1.190   4.773 -3.0909 -0.8579  2.4540
  805MOL0     H 8644  11.415   1.299   4.679  0.8881  1.2713 -0.0165
  805MOL0     H 8645  11.666   1.367   4.822 -0.7275 -0.7309  1.0632
  805MOL0     H 8646  11.573   1.486   4.735  2.1343  0.4809  1.8325
  805MOL0     H 8647  11.754   1.266   4.636 -0.6399  0.4376 -1.5691
  805MOL0     H 8648  11.738   1.433   4.577 -0.3115  1.0174  1.2707
  805MOL0     H 8649  11.534   1.217   4.523 -0.9465  0.6773  1.1420
  805MOL0     H 8650  11.535   1.377   4.456  2.1292 -0.4498 -0.1781
  805MOL0     H 8651  11.774   1.200   4.428 -0.1540  0.3659  0.2294
  805MOL0     H 8652  11.734   1.341   4.335 -1.8389 -1.7774 -4.1834
  805MOL0     H 8653  11.702   1.126   4.211 -0.8016 -1.2682  0.1244
  805MOL0     H 8654  11.547   1.113   4.292  1.4892 -0.7087  1.6136
  805MOL0     H 8655  11.077   1.057   4.765  0.3389  0.2853  0.0753
  805MOL0     H 8656  10.832   1.013   4.716  3.0311 -0.8832 -2.8111
  805MOL0     H 8657  10.396   1.163   4.710 -2.8671  1.9662  1.5216
  805MOL0     H 8658  10.143   1.176   4.662  1.2338  4.2847  1.3563
  805MOL0     H 8659   8.210   1.354   4.514  1.2169 -1.2419  0.3486
  805MOL0     H 8660   7.962   1.400   4.521  0.1910 -0.2172  0.4737
  805MOL0     H 8661   7.617   1.582   4.262  1.8955 -1.5315 -3.6940
  805MOL0     H 8662   7.401   1.658   4.228  3.2209  0.4885 -0.5907
  805MOL0     H 8663   7.063   1.448   4.399 -1.7591  0.6083  0.1369
  805MOL0     H 8664   7.021   1.367   4.257  0.2769 -1.1755  1.0529
  805MOL0     H 8665   6.953   1.612   4.162  0.0875  1.0332  0.9273
  805MOL0     H 8666   6.990   1.662   4.322 -0.5503  0.6226 -0.5382
  805MOL0     H 8667   6.784   1.450   4.243  2.0512  0.8050 -1.2074
  805MOL0     H 8668   6.754   1.621   4.247  0.9608  0.1697 -0.6715
  805MOL0     H 8669   6.836   1.437   4.486 -1.2452 -0.4081 -1.0141
  805MOL0     H 8670   6.819   1.609   4.505  0.1173 -1.2827  2.0656
  805MOL0     H 8671   6.408   1.481   4.506  0.2412  0.9123  3.1250
  805MOL0     H 8672   7.234   1.265   4.288 -1.4615  2.8383 -1.1590
  805MOL0     H 8673   7.507   1.082   4.275 -3.8922 -2.2200 -2.3524
  805MOL0     H 8674   7.518   1.130   4.446  0.6565  3.5057 -0.5741
  805MOL0     H 8675   7.362   1.086   4.359 -1.3315  0.7746 -4.2507
  806MOL0     O 8676   3.732  10.369   9.400 -0.2103 -0.6634  0.3801
  806MOL0     C 8677   3.682  10.414   9.292  0.3079 -1.1345 -0.3221
  806MOL0     O 8678   3.747  10.468   9.187  0.2169 -0.3367 -0.1674
  806MOL0     C 8679   3.879  10.478   9.198 -0.2555  0.1478 -0.3022
  806MOL0     C 8680   3.934  10.595   9.238  0.3932  0.7765  0.4768
  806MOL0     C 8681   4.072  10.619   9.212  0.4528 -0.3549  0.8235
  806MOL0     C 8682   4.149  10.517   9.154 -1.0199  0.9947  0.3383
  806MOL0     O 8683   4.284  10.537   9.129  0.3836 -0.1316  0.2839
  806MOL0     C 8684   4.383  10.447   9.147  0.5965 -0.2848 -0.9677
  806MOL0     C 8685   4.517  10.525   9.154  0.3703 -0.3251  0.3028
  806MOL0     C 8686   4.634  10.446   9.207 -1.0195 -0.1805 -1.3649
  806MOL0     C 8687   4.761  10.534   9.193  0.3444 -0.7056  0.7580
  806MOL0     C 8688   4.890  10.461   9.230  0.6164 -0.7496  1.1444
  806MOL0     C 8689   5.012  10.539   9.188 -0.1066 -0.2438  0.1701
  806MOL0     C 8690   5.143  10.507   9.257  0.1120 -0.0348 -0.2057
  806MOL0     C 8691   5.262  10.539   9.170 -0.4490 -0.2523 -0.2158
  806MOL0     N 8692   5.390  10.517   9.247  0.3713 -0.0921  1.3761
  806MOL0     C 8693   5.471  10.406   9.255  0.4252 -0.4127  0.3665
  806MOL0     C 8694   5.585  10.448   9.305  0.4587  0.6421 -0.5468
  806MOL0     C 8695   5.705  10.368   9.327  0.1947 -0.7750 -0.0950
  806MOL0     C 8696   5.820  10.418   9.244  0.5528 -0.5054 -0.1253
  806MOL0     C 8697   5.928  10.310   9.219 -1.1410  0.7682  0.3229
  806MOL0     C 8698   5.982  10.239   9.350 -1.4948 -0.1731  0.2265
  806MOL0     O 8699   6.053  10.325   9.442 -0.1647 -0.0279 -0.0374
  806MOL0     C 8700   6.177  10.378   9.418  0.9591 -0.0293  0.6202
  806MOL0     C 8701   6.263  10.346   9.317 -0.4029  0.0753 -0.8557
  806MOL0     C 8702   6.379  10.418   9.302  0.1310 -0.3333 -0.4857
  806MOL0     C 8703   6.415  10.519   9.398 -0.9176 -0.1120  0.4859
  806MOL0     C 8704   6.540  10.594   9.386  0.9051  0.8663 -0.1259
  806MOL0     O 8705   6.624  10.557   9.288 -0.5669  0.5815 -0.1403
  806MOL0     C 8706   6.742  10.624   9.262 -0.3305 -0.7513  0.3659
  806MOL0     C 8707   6.753  10.725   9.161 -0.3936  0.2269  0.2401
  806MOL0     C 8708   6.868  10.791   9.134  0.3339  0.2849 -0.8716
  806MOL0     C 8709   6.979  10.753   9.200 -0.2148 -0.0950 -0.6142
  806MOL0     O 8710   7.096  10.808   9.167  0.2310  0.2594 -0.0682
  806MOL0     C 8711   7.125  10.840   9.034 -0.1508  0.1468 -0.1826
  806MOL0     C 8712   7.126  10.997   9.033 -0.4534  0.7197 -0.6282
  806MOL0     C 8713   7.189  11.045   8.904  0.5393 -0.3640 -0.1970
  806MOL0     C 8714   7.119  11.008   8.773  0.6330 -0.4284 -0.2331
  806MOL0     C 8715   6.976  11.084   8.756 -0.8090  0.5205  0.1501
  806MOL0     C 8716   6.879  11.006   8.667  0.0287 -0.0074 -0.0697
  806MOL0     C 8717   6.740  11.075   8.673  0.2761 -0.2700 -0.2645
  806MOL0     C 8718   6.630  10.986   8.606 -0.5370 -0.6151  0.6836
  806MOL0    Cl 8719   6.589  10.850   8.706  0.4527  0.0865  0.1597
  806MOL0     C 8720   6.977  10.653   9.295 -0.1844 -0.0377 -0.7332
  806MOL0     C 8721   6.853  10.582   9.331 -2.1790 -0.2943  0.6394
  806MOL0     O 8722   6.552  10.682   9.461  0.5523 -0.2298 -0.0991
  806MOL0     C 8723   6.333  10.533   9.513 -1.2942  0.2851 -0.2462
  806MOL0     C 8724   6.210  10.475   9.508 -0.4332  0.3261 -0.5755
  806MOL0     N 8725   5.569  10.588   9.332 -0.5017  0.5204 -0.3097
  806MOL0     N 8726   5.450  10.622   9.303 -0.1113  0.0732 -0.5431
  806MOL0     C 8727   4.095  10.388   9.136 -0.9557 -0.0634 -0.1934
  806MOL0     C 8728   3.955  10.376   9.145  0.0468  0.5905 -0.2101
  806MOL0     C 8729   3.531  10.412   9.278  0.0834 -0.6223 -0.1083
  806MOL0     C 8730   3.473  10.376   9.151 -0.0410 -0.0784  0.2309
  806MOL0     C 8731   3.346  10.340   9.134  0.1077 -0.2238  0.7141
  806MOL0     C 8732   3.261  10.332   9.248  0.0328 -0.0400  0.9658
  806MOL0     O 8733   3.128  10.305   9.226 -0.6114  0.1064 -0.1634
  806MOL0     C 8734   3.044  10.260   9.334 -0.0622 -1.0040  0.7520
  806MOL0     C 8735   2.901  10.225   9.267 -0.6732 -0.0215 -0.0924
  806MOL0     C 8736   2.821  10.355   9.233 -0.5738  0.2321  0.2218
  806MOL0     C 8737   2.724  10.322   9.121 -0.0307 -0.7147 -0.2734
  806MOL0     C 8738   2.645  10.218   9.174 -0.2071 -0.2668  0.2604
  806MOL0     C 8739   2.586  10.135   9.231  0.0587  0.4406  0.3413
  806MOL0     C 8740   3.308  10.372   9.375  0.0934  0.2357  0.0050
  806MOL0     C 8741   3.436  10.426   9.381 -0.6307  0.1237 -0.3715
  806MOL0     C 8742   3.481  10.475   9.507  0.4214 -0.3167 -0.1268
  806MOL0     H 8743   3.872  10.670   9.286 -1.5321  0.2346 -1.0798
  806MOL0     H 8744   4.123  10.712   9.231 -0.1727  0.3884 -0.9257
  806MOL0     H 8745   4.370  10.398   9.244  0.0577 -0.0302 -0.9050
  806MOL0     H 8746   4.387  10.375   9.065 -0.2169  0.1529 -1.4016
  806MOL0     H 8747   4.506  10.610   9.223  3.4015  1.8849 -1.6565
  806MOL0     H 8748   4.536  10.568   9.055 -0.1720 -2.1223 -0.6106
  806MOL0     H 8749   4.655  10.348   9.162 -0.3779 -1.3045  1.1761
  806MOL0     H 8750   4.617  10.435   9.314  0.2380  2.0825 -0.8766
  806MOL0     H 8751   4.769  10.571   9.090  2.5510 -0.3897  0.9998
  806MOL0     H 8752   4.742  10.625   9.252 -0.0524  0.5846 -1.2431
  806MOL0     H 8753   4.872  10.470   9.337 -0.9861  0.1933  0.8374
  806MOL0     H 8754   4.896  10.365   9.177 -0.1942  1.0469 -2.5714
  806MOL0     H 8755   5.014  10.526   9.079 -0.8815 -0.7209  0.2035
  806MOL0     H 8756   4.995  10.645   9.209 -0.6123  0.3103 -2.5926
  806MOL0     H 8757   5.138  10.401   9.284  1.5290  0.2730  1.3530
  806MOL0     H 8758   5.152  10.571   9.345  2.5176  0.9222 -1.0667
  806MOL0     H 8759   5.265  10.476   9.080  2.6921  1.8225 -1.7509
  806MOL0     H 8760   5.248  10.642   9.135 -0.8061  0.5392  2.0970
  806MOL0     H 8761   5.452  10.307   9.215  0.8105 -0.1371 -0.5307
  806MOL0     H 8762   5.738  10.363   9.431  0.4631 -2.4047 -0.2250
  806MOL0     H 8763   5.690  10.264   9.295  2.4864 -2.1827  2.8929
  806MOL0     H 8764   5.788  10.471   9.154 -2.2232 -0.5327  0.7536
  806MOL0     H 8765   5.857  10.501   9.305 -2.0413  0.6727 -0.0080
  806MOL0     H 8766   6.016  10.351   9.169  1.1577 -2.4806  1.4150
  806MOL0     H 8767   5.901  10.241   9.139 -0.1876 -2.0549  2.3019
  806MOL0     H 8768   6.049  10.157   9.324  0.1097  0.3144  2.4984
  806MOL0     H 8769   5.897  10.196   9.405 -1.8438 -0.3963 -0.4786
  806MOL0     H 8770   6.236  10.262   9.253  0.1289 -3.0482  2.7112
  806MOL0     H 8771   6.443  10.395   9.217  0.7644 -1.4888  0.2721
  806MOL0     H 8772   6.664  10.743   9.102 -0.6232 -0.6685  0.3005
  806MOL0     H 8773   6.871  10.862   9.052 -0.1109 -1.9863 -2.9480
  806MOL0     H 8774   7.225  10.812   9.001 -0.4572  2.1913 -3.2625
  806MOL0     H 8775   7.052  10.800   8.964 -1.6768 -0.3074  1.5736
  806MOL0     H 8776   7.023  11.033   9.041 -0.9396 -0.9688  2.8006
  806MOL0     H 8777   7.174  11.037   9.123 -0.4254 -2.1551  0.7434
  806MOL0     H 8778   7.216  11.151   8.906  2.0553 -0.6766 -1.7205
  806MOL0     H 8779   7.290  11.005   8.894 -0.1555 -2.0170 -0.9695
  806MOL0     H 8780   7.107  10.900   8.758 -2.1487 -0.4187  1.2338
  806MOL0     H 8781   7.189  11.045   8.697  1.5620 -0.8047  0.4103
  806MOL0     H 8782   7.007  11.171   8.697  1.6963 -2.7250 -3.8847
  806MOL0     H 8783   6.927  11.120   8.847 -3.0582  1.3694 -1.2926
  806MOL0     H 8784   6.915  10.991   8.565  0.5931 -1.2877  0.2953
  806MOL0     H 8785   6.872  10.901   8.698 -1.0512 -0.8157 -2.7490
  806MOL0     H 8786   6.743  11.170   8.620 -2.5158  0.6317  1.0002
  806MOL0     H 8787   6.713  11.097   8.777  0.1135 -0.5932 -0.2385
  806MOL0     H 8788   6.550  11.053   8.572  1.7233  0.7958 -2.2273
  806MOL0     H 8789   6.670  10.948   8.512 -0.3570 -2.3651  1.4089
  806MOL0     H 8790   7.068  10.624   9.348  0.6098  2.2405 -0.7232
  806MOL0     H 8791   6.849  10.505   9.407 -0.3669 -0.9578  0.1045
  806MOL0     H 8792   6.365  10.601   9.591  0.0198 -1.2160  0.6025
  806MOL0     H 8793   6.141  10.502   9.588 -1.4282  0.1567 -1.3502
  806MOL0     H 8794   4.159  10.308   9.100 -0.2749 -0.0187  0.8685
  806MOL0     H 8795   3.910  10.281   9.118  1.5960 -0.6328  1.3217
  806MOL0     H 8796   3.542  10.358   9.068  1.2842 -0.6978  1.4304
  806MOL0     H 8797   3.307  10.308   9.038  1.6065 -3.1498  0.9682
  806MOL0     H 8798   3.038  10.340   9.408  1.8061  0.3991 -0.5275
  806MOL0     H 8799   3.090  10.171   9.378  4.4789  0.4900 -0.3798
  806MOL0     H 8800   2.849  10.149   9.326  1.5274 -0.4915  1.3641
  806MOL0     H 8801   2.923  10.172   9.175 -2.9636 -3.7039  1.2432
  806MOL0     H 8802   2.905  10.415   9.196  1.6501 -4.2530 -3.0099
  806MOL0     H 8803   2.776  10.415   9.313 -1.0384  2.0277 -1.3242
  806MOL0     H 8804   2.665  10.408   9.085 -1.4713 -2.6172 -2.7768
  806MOL0     H 8805   2.771  10.292   9.027 -1.3346  2.7611 -2.2358
  806MOL0     H 8806   2.538  10.064   9.295  2.3640 -0.3860  1.2403
  806MOL0     H 8807   3.247  10.355   9.463 -1.9113 -2.1505 -1.6590
  806MOL0     H 8808   3.569  10.539   9.497  2.6690 -3.4214 -1.6979
  806MOL0     H 8809   3.407  10.537   9.558 -0.1269  0.4200 -1.7607
  806MOL0     H 8810   3.500  10.389   9.572  1.0590  1.1126  1.6544
  807MOL0     O 8811   2.047   0.440   6.005 -0.0787 -0.9417  0.6198
  807MOL0     C 8812   1.981   0.525   6.069 -0.1903  0.5944  0.5306
  807MOL0     O 8813   2.006   0.568   6.190 -0.0032  0.7077  0.0394
  807MOL0     C 8814   2.132   0.548   6.224  0.1479 -0.2609 -0.6387
  807MOL0     C 8815   2.179   0.433   6.280 -0.2295 -0.4313 -1.0741
  807MOL0     C 8816   2.308   0.431   6.329 -1.0721  0.4834 -0.2114
  807MOL0     C 8817   2.401   0.540   6.318 -0.8420 -0.7145  0.3416
  807MOL0     O 8818   2.532   0.545   6.374 -0.7723 -0.2906  0.0464
  807MOL0     C 8819   2.582   0.416   6.417  0.5505 -0.2603  0.0102
  807MOL0     C 8820   2.732   0.422   6.453  0.6181 -0.9533  0.3405
  807MOL0     C 8821   2.765   0.301   6.547 -0.7535 -0.0146 -0.0930
  807MOL0     C 8822   2.908   0.295   6.572 -0.0473  0.1782  0.6395
  807MOL0     C 8823   2.952   0.198   6.683 -0.6166 -0.2778 -0.3746
  807MOL0     C 8824   2.965   0.057   6.633  0.1150  0.0545  0.0933
  807MOL0     C 8825   2.981  -0.046   6.747 -0.0609 -0.4517  0.5076
  807MOL0     C 8826   3.109  -0.030   6.831 -0.3932  0.2084 -0.1526
  807MOL0     N 8827   3.234  -0.031   6.765 -0.3030  0.0780 -0.4774
  807MOL0     C 8828   3.256  -0.123   6.666  0.6396 -0.2522 -0.2745
  807MOL0     C 8829   3.359  -0.071   6.590  0.5171  0.2385  0.0847
  807MOL0     C 8830   3.403  -0.113   6.460  0.3135  0.2094  0.1776
  807MOL0     C 8831   3.491  -0.236   6.469  0.1178 -0.4304 -0.9091
  807MOL0     C 8832   3.622  -0.210   6.549 -0.3818 -0.0229  0.8214
  807MOL0     C 8833   3.716  -0.100   6.490  0.2128 -0.1285 -0.1892
  807MOL0     O 8834   3.836  -0.115   6.561 -0.1797  0.5143  0.0813
  807MOL0     C 8835   3.946  -0.054   6.509  0.8042 -0.2283  0.8366
  807MOL0     C 8836   4.063  -0.129   6.508  0.6068 -1.3284 -0.7567
  807MOL0     C 8837   4.174  -0.081   6.441  0.1620 -0.1195  0.3638
  807MOL0     C 8838   4.174   0.057   6.393  0.2213  0.1757 -0.4410
  807MOL0     C 8839   4.294   0.123   6.334 -0.1580  0.5006 -0.5817
  807MOL0     O 8840   4.278   0.252   6.284 -0.5692 -0.1227  0.0122
  807MOL0     C 8841   4.384   0.328   6.247  0.3025 -1.0172 -0.2538
  807MOL0     C 8842   4.389   0.460   6.288  0.7446 -0.7656 -0.1179
  807MOL0     C 8843   4.484   0.549   6.252  0.7211 -0.6078  0.0048
  807MOL0     C 8844   4.594   0.506   6.180  0.3048  0.3850  1.1766
  807MOL0     O 8845   4.690   0.595   6.147 -0.6753 -0.2342  0.0606
  807MOL0     C 8846   4.808   0.559   6.081 -0.1058 -0.8278  0.6448
  807MOL0     C 8847   4.895   0.681   6.060 -0.4471  0.5538 -0.1948
  807MOL0     C 8848   5.043   0.658   6.023 -0.1688 -0.9433 -0.4494
  807MOL0     C 8849   5.112   0.796   6.029 -0.5973 -0.1897  0.6759
  807MOL0     C 8850   5.266   0.769   6.006 -0.1300 -0.0997 -0.4237
  807MOL0     C 8851   5.339   0.695   6.127  0.0439 -0.7972  0.1197
  807MOL0     C 8852   5.493   0.685   6.098 -0.3112  0.1237 -0.8877
  807MOL0     C 8853   5.570   0.821   6.104 -0.5353  0.3964 -0.6097
  807MOL0    Cl 8854   5.753   0.777   6.106  0.0972  0.0760  0.5568
  807MOL0     C 8855   4.597   0.375   6.138 -0.0755  0.8758 -0.2800
  807MOL0     C 8856   4.493   0.284   6.174  0.4780  0.0090 -0.0036
  807MOL0     O 8857   4.399   0.065   6.349 -0.0066 -0.1806 -1.1651
  807MOL0     C 8858   4.054   0.128   6.393 -0.7695 -0.1473  0.2060
  807MOL0     C 8859   3.940   0.075   6.452  0.4557  1.5010  0.0794
  807MOL0     N 8860   3.403   0.048   6.654 -0.3579  0.9805 -0.0288
  807MOL0     N 8861   3.325   0.075   6.752  0.5334  0.3909  0.1690
  807MOL0     C 8862   2.355   0.650   6.252  0.6549 -0.1477  0.3457
  807MOL0     C 8863   2.222   0.658   6.208  0.3598 -0.0994 -0.2688
  807MOL0     C 8864   1.861   0.567   5.997  0.2225  0.2843 -0.6694
  807MOL0     C 8865   1.768   0.474   5.956 -0.0964  0.2915 -0.3606
  807MOL0     C 8866   1.637   0.507   5.902 -0.0434  0.7954  0.3994
  807MOL0     C 8867   1.615   0.644   5.872 -0.4385  0.4685  0.1401
  807MOL0     O 8868   1.502   0.694   5.806 -0.9374 -0.7934 -0.4490
  807MOL0     C 8869   1.405   0.606   5.749 -0.6204 -0.9580  0.1392
  807MOL0     C 8870   1.292   0.691   5.683 -0.8566  0.3955  0.9583
  807MOL0     C 8871   1.216   0.614   5.579  1.2802  1.2679  0.4018
  807MOL0     C 8872   1.115   0.518   5.630 -0.1428 -0.4922  0.1690
  807MOL0     C 8873   0.990   0.586   5.659  0.3439 -0.0127 -0.4018
  807MOL0     C 8874   0.881   0.611   5.693  0.3126 -0.1264  0.5963
  807MOL0     C 8875   1.712   0.737   5.922 -0.5292 -0.1988  0.0506
  807MOL0     C 8876   1.835   0.697   5.980 -0.4239  0.5133 -0.3850
  807MOL0     C 8877   1.939   0.805   6.021 -0.1606 -0.2019 -0.9340
  807MOL0     H 8878   2.111   0.354   6.310 -0.3926  0.5316  1.3151
  807MOL0     H 8879   2.342   0.335   6.366  1.7720  2.1654  1.9802
  807MOL0     H 8880   2.530   0.389   6.509 -2.0289  1.2302 -0.9081
  807MOL0     H 8881   2.575   0.336   6.343  0.0554 -2.0984  1.9387
  807MOL0     H 8882   2.746   0.518   6.503  2.7984 -0.9337 -0.1926
  807MOL0     H 8883   2.791   0.408   6.362  1.6866 -1.9549  1.1532
  807MOL0     H 8884   2.716   0.218   6.494 -0.3926  0.5005 -1.2587
  807MOL0     H 8885   2.717   0.313   6.645  0.4319 -0.6223  0.5916
  807MOL0     H 8886   2.961   0.269   6.479  0.8819  1.3287  0.8184
  807MOL0     H 8887   2.943   0.394   6.603  1.8584 -1.2488  3.5193
  807MOL0     H 8888   3.045   0.232   6.731 -1.2209  2.4292 -0.9357
  807MOL0     H 8889   2.881   0.212   6.765  0.1323  2.2470 -0.0717
  807MOL0     H 8890   2.871   0.034   6.583 -1.3256 -1.9632  3.3875
  807MOL0     H 8891   3.044   0.043   6.559  0.7332  0.7463  0.6088
  807MOL0     H 8892   2.981  -0.145   6.702 -0.0905 -0.0592 -0.3649
  807MOL0     H 8893   2.901  -0.029   6.820  0.2545  0.5748  0.6410
  807MOL0     H 8894   3.107   0.064   6.887  1.8551  0.0857  0.2271
  807MOL0     H 8895   3.118  -0.108   6.907 -1.5311 -0.4814 -0.6921
  807MOL0     H 8896   3.193  -0.203   6.629 -0.0790  0.2379 -0.1132
  807MOL0     H 8897   3.312  -0.140   6.404  0.8204 -0.4918 -0.3241
  807MOL0     H 8898   3.447  -0.033   6.399 -0.4724  0.1152 -0.5413
  807MOL0     H 8899   3.436  -0.319   6.513  0.6588 -0.0673  0.5156
  807MOL0     H 8900   3.515  -0.265   6.367  3.2671 -3.2162  0.4661
  807MOL0     H 8901   3.671  -0.307   6.560 -0.0763 -0.1165 -1.1150
  807MOL0     H 8902   3.592  -0.181   6.650  0.5781  0.0788  1.0834
  807MOL0     H 8903   3.674   0.001   6.492  0.7572  0.0891  1.2323
  807MOL0     H 8904   3.728  -0.110   6.382 -3.9442  3.6268 -1.2814
  807MOL0     H 8905   4.052  -0.226   6.556  0.8583 -0.8058  0.3915
  807MOL0     H 8906   4.264  -0.140   6.428 -0.1549 -0.9321  1.6978
  807MOL0     H 8907   4.302   0.493   6.345 -0.4607 -0.4289 -2.0438
  807MOL0     H 8908   4.472   0.653   6.281  2.2809 -0.9678  2.2151
  807MOL0     H 8909   4.864   0.490   6.145  1.1285 -0.4520 -0.0016
  807MOL0     H 8910   4.802   0.517   5.980  2.0974  1.4692 -0.5558
  807MOL0     H 8911   4.836   0.741   5.990  0.0092  1.2630  0.0242
  807MOL0     H 8912   4.895   0.744   6.150 -1.1871  0.6221 -0.2341
  807MOL0     H 8913   5.089   0.594   6.098  1.9168  2.2091  1.2025
  807MOL0     H 8914   5.049   0.615   5.922 -1.9363  2.1026 -2.0082
  807MOL0     H 8915   5.078   0.840   6.123  0.0138 -0.0759  0.8503
  807MOL0     H 8916   5.079   0.862   5.948  2.0143  0.0938 -0.2764
  807MOL0     H 8917   5.311   0.868   5.990  0.9947 -0.9226 -2.7561
  807MOL0     H 8918   5.270   0.717   5.910  1.4438  0.3231 -0.6152
  807MOL0     H 8919   5.327   0.756   6.216 -0.7830 -0.9306  0.1063
  807MOL0     H 8920   5.289   0.598   6.138 -1.3059 -0.1933 -0.4173
  807MOL0     H 8921   5.519   0.639   6.002 -1.4692 -1.8921 -0.3121
  807MOL0     H 8922   5.536   0.622   6.177 -0.8474 -1.1177 -1.5413
  807MOL0     H 8923   5.539   0.873   6.013 -1.4420 -0.0968 -0.5941
  807MOL0     H 8924   5.549   0.884   6.191 -1.3020 -1.3323  0.5204
  807MOL0     H 8925   4.681   0.329   6.085 -1.1309 -1.2365 -0.2394
  807MOL0     H 8926   4.503   0.182   6.139  1.7357  0.5251 -1.2263
  807MOL0     H 8927   4.065   0.233   6.367  1.0925  0.0671  1.6509
  807MOL0     H 8928   3.847   0.130   6.463 -0.5309 -0.5024  3.1485
  807MOL0     H 8929   2.418   0.737   6.239 -1.5970  1.4034 -0.9409
  807MOL0     H 8930   2.178   0.742   6.155 -2.9869  0.1714  2.5528
  807MOL0     H 8931   1.794   0.369   5.968  2.2133  1.0034  1.4223
  807MOL0     H 8932   1.569   0.427   5.877  0.5602  0.1586  0.7662
  807MOL0     H 8933   1.362   0.536   5.821  0.2479 -2.4450 -0.7338
  807MOL0     H 8934   1.433   0.538   5.669 -1.6082 -1.5658  0.2884
  807MOL0     H 8935   1.342   0.772   5.629 -1.7289 -0.0509 -0.5946
  807MOL0     H 8936   1.219   0.728   5.756 -1.4548  1.1472  0.0017
  807MOL0     H 8937   1.287   0.560   5.517  0.9917  0.4011  0.8158
  807MOL0     H 8938   1.158   0.682   5.516 -2.3550 -1.2364  0.7379
  807MOL0     H 8939   1.088   0.437   5.562 -3.8475 -2.8771  3.9792
  807MOL0     H 8940   1.154   0.474   5.723  1.1400 -2.6578 -1.2917
  807MOL0     H 8941   0.783   0.634   5.732 -0.5826 -1.3222 -0.8437
  807MOL0     H 8942   1.699   0.844   5.906  1.1764 -0.3007 -2.5515
  807MOL0     H 8943   2.040   0.784   5.985  0.3010  0.3300  0.0248
  807MOL0     H 8944   1.913   0.898   5.970  1.3879  0.0004 -1.3976
  807MOL0     H 8945   1.932   0.816   6.130  2.4084  4.5703 -0.9833
  808MOL0     O 8946   4.731   0.250   7.042 -0.2876 -0.0466 -0.5292
  808MOL0     C 8947   4.680   0.138   7.048 -0.5994  0.4833 -0.0279
  808MOL0     O 8948   4.735   0.026   7.008 -0.2692 -0.3500  0.6313
  808MOL0     C 8949   4.874   0.011   7.021  0.6039 -0.7808  0.2575
  808MOL0     C 8950   4.956   0.101   7.091 -0.1588 -0.0816  0.8398
  808MOL0     C 8951   5.093   0.082   7.096  0.1653 -0.6973 -0.3769
  808MOL0     C 8952   5.155  -0.019   7.031 -1.7353 -0.6706  0.2157
  808MOL0     O 8953   5.294  -0.020   7.043 -0.0688  0.5554 -0.3655
  808MOL0     C 8954   5.360  -0.139   7.002 -0.3415  0.3185  0.0045
  808MOL0     C 8955   5.489  -0.157   7.085 -0.3031  0.8254  0.6187
  808MOL0     C 8956   5.586  -0.045   7.046  0.0209 -0.2212  0.1658
  808MOL0     C 8957   5.702  -0.047   7.136 -0.7565  0.7344 -0.3537
  808MOL0     C 8958   5.790   0.087   7.127  0.2644 -0.3247 -0.1259
  808MOL0     C 8959   5.919   0.055   7.211  0.6681 -0.0699  0.0874
  808MOL0     C 8960   6.015   0.173   7.217  0.3248  0.0879  0.3915
  808MOL0     C 8961   5.982   0.281   7.322 -0.3577  0.0620  0.0099
  808MOL0     N 8962   6.030   0.235   7.458 -0.4035 -0.4957  0.0096
  808MOL0     C 8963   6.159   0.218   7.502 -0.4626 -0.0607 -0.6130
  808MOL0     C 8964   6.159   0.148   7.612 -0.2365 -0.1927 -0.3051
  808MOL0     C 8965   6.274   0.127   7.700  0.5231  0.0830 -0.4819
  808MOL0     C 8966   6.286   0.250   7.785 -0.3667 -0.4033  0.3768
  808MOL0     C 8967   6.409   0.233   7.884  0.7928  0.6018 -1.1318
  808MOL0     C 8968   6.419   0.351   7.979 -0.1179 -0.1278  0.0511
  808MOL0     O 8969   6.548   0.333   8.040  0.1784  0.4770 -0.7850
  808MOL0     C 8970   6.614   0.430   8.100  0.3232 -0.9676  0.0992
  808MOL0     C 8971   6.558   0.556   8.154 -0.8477  0.2583  0.2507
  808MOL0     C 8972   6.637   0.643   8.232  0.2467  0.0536  0.3718
  808MOL0     C 8973   6.776   0.628   8.239  0.3802  0.2012  0.5571
  808MOL0     C 8974   6.866   0.718   8.313 -0.4535 -0.5785 -1.3762
  808MOL0     O 8975   6.809   0.829   8.372 -0.3452  0.2378 -0.0634
  808MOL0     C 8976   6.853   0.899   8.479 -0.2553  0.4103  0.0097
  808MOL0     C 8977   6.915   0.845   8.589  0.5198 -0.6338 -0.5741
  808MOL0     C 8978   6.964   0.929   8.684  0.7946 -0.5589 -0.2749
  808MOL0     C 8979   6.949   1.070   8.684 -1.0105 -0.3453 -0.6941
  808MOL0     O 8980   7.006   1.156   8.783  0.1794  0.6615 -0.4909
  808MOL0     C 8981   7.015   1.290   8.754  0.8675  0.9335  0.0904
  808MOL0     C 8982   7.083   1.357   8.869 -0.5274 -0.6579  0.0006
  808MOL0     C 8983   7.081   1.513   8.866  0.4023  0.0546  0.4278
  808MOL0     C 8984   7.108   1.563   9.007 -0.6140  0.2698 -0.3919
  808MOL0     C 8985   7.074   1.713   9.014 -0.7505  0.4121 -0.0270
  808MOL0     C 8986   7.173   1.800   8.931 -0.5921 -0.9480 -0.9893
  808MOL0     C 8987   7.302   1.840   9.017  0.0465  0.3934 -0.4249
  808MOL0     C 8988   7.429   1.763   8.967  0.6331  0.1784  0.5970
  808MOL0    Cl 8989   7.562   1.771   9.081 -0.0889 -0.1655 -0.0547
  808MOL0     C 8990   6.874   1.119   8.575  0.2832 -0.0984 -0.7846
  808MOL0     C 8991   6.828   1.039   8.474  0.7436  0.4268  0.0480
  808MOL0     O 8992   6.985   0.684   8.327 -0.2453 -0.8079 -0.1379
  808MOL0     C 8993   6.829   0.508   8.188  0.5521 -0.4868  0.1863
  808MOL0     C 8994   6.750   0.408   8.126 -0.1162 -0.1422  0.4150
  808MOL0     N 8995   6.027   0.124   7.639  1.1184 -0.3752  0.0234
  808MOL0     N 8996   5.949   0.168   7.548  0.0861 -1.1651  0.0091
  808MOL0     C 8997   5.080  -0.117   6.970 -0.0874  0.4972  0.0182
  808MOL0     C 8998   4.939  -0.099   6.962  0.0011  0.3558  0.3627
  808MOL0     C 8999   4.536   0.125   7.086 -0.6873  0.1111  0.7603
  808MOL0     C 9000   4.471  -0.004   7.066  0.5749  0.0103 -0.3989
  808MOL0     C 9001   4.342  -0.039   7.103 -0.1332  0.7095  0.3390
  808MOL0     C 9002   4.257   0.056   7.162 -0.7453  0.0972  0.9484
  808MOL0     O 9003   4.129   0.031   7.200 -0.4937 -1.0157 -0.3132
  808MOL0     C 9004   4.049  -0.079   7.164 -0.5740 -0.0930  0.0300
  808MOL0     C 9005   3.900  -0.038   7.152 -0.2099 -0.1955 -0.0017
  808MOL0     C 9006   3.857   0.038   7.277  0.6681 -0.3085 -0.2515
  808MOL0     C 9007   3.828  -0.040   7.409  0.4849 -0.3110  0.3408
  808MOL0     C 9008   3.739  -0.146   7.383  0.5266 -0.1856 -0.0994
  808MOL0     C 9009   3.658  -0.220   7.345  0.6466 -0.4210  0.2715
  808MOL0     C 9010   4.320   0.185   7.191  0.5725  0.1915 -0.1992
  808MOL0     C 9011   4.455   0.217   7.160  0.2471 -0.2589 -0.6225
  808MOL0     C 9012   4.492   0.362   7.196  0.4501 -0.1823  0.6539
  808MOL0     H 9013   4.919   0.190   7.141  2.3647  2.6314 -1.6993
  808MOL0     H 9014   5.166   0.136   7.157  1.3014 -2.0956 -0.4483
  808MOL0     H 9015   5.305  -0.233   7.015 -1.5960  0.8653 -1.0854
  808MOL0     H 9016   5.382  -0.122   6.897 -2.4884  0.7439 -0.4352
  808MOL0     H 9017   5.532  -0.254   7.057 -0.7775  0.2675  1.7783
  808MOL0     H 9018   5.467  -0.162   7.192 -1.0854  0.3391  0.4416
  808MOL0     H 9019   5.529   0.048   7.038  0.9411  0.3900  0.5983
  808MOL0     H 9020   5.629  -0.065   6.948  2.1361  0.0213  0.9873
  808MOL0     H 9021   5.665  -0.069   7.236  0.0361 -2.1159 -0.5854
  808MOL0     H 9022   5.762  -0.133   7.106 -1.6836  0.1393 -0.5358
  808MOL0     H 9023   5.815   0.097   7.021  0.7181  0.2916  0.0335
  808MOL0     H 9024   5.737   0.176   7.160 -1.3176 -0.6676 -1.5653
  808MOL0     H 9025   5.894   0.036   7.316  2.5740  1.1549  0.8190
  808MOL0     H 9026   5.973  -0.034   7.177 -3.0735 -3.3501  1.8376
  808MOL0     H 9027   6.007   0.234   7.127 -0.1162  0.3778  0.6262
  808MOL0     H 9028   6.119   0.143   7.233  0.2989 -0.1472  0.1423
  808MOL0     H 9029   6.034   0.373   7.295  0.9728 -0.4663  0.6846
  808MOL0     H 9030   5.873   0.289   7.331 -0.7728 -1.1804 -2.9272
  808MOL0     H 9031   6.253   0.259   7.464  0.4196  0.1867  1.6761
  808MOL0     H 9032   6.245   0.045   7.767  2.5805 -1.4131 -1.3095
  808MOL0     H 9033   6.369   0.098   7.654  0.6910 -0.5381  0.2254
  808MOL0     H 9034   6.303   0.340   7.725  1.2747 -1.2591 -0.5214
  808MOL0     H 9035   6.190   0.264   7.836  0.0570  1.5947  0.7136
  808MOL0     H 9036   6.500   0.212   7.826  0.1881 -2.8691 -0.9979
  808MOL0     H 9037   6.415   0.140   7.941  2.5834  0.3231 -1.7035
  808MOL0     H 9038   6.340   0.364   8.053  2.3076 -1.3124  3.0574
  808MOL0     H 9039   6.418   0.439   7.913  1.0185 -0.7698 -0.8641
  808MOL0     H 9040   6.454   0.583   8.135 -0.9117 -1.1160 -1.5476
  808MOL0     H 9041   6.582   0.726   8.275 -1.1171 -0.3104 -0.6114
  808MOL0     H 9042   6.924   0.737   8.595  1.8878 -0.6530 -2.2565
  808MOL0     H 9043   7.022   0.877   8.761  0.3955  1.2374  1.3095
  808MOL0     H 9044   7.076   1.301   8.665 -0.1377  0.1561 -0.7224
  808MOL0     H 9045   6.915   1.331   8.733 -0.7429 -2.5330  0.2136
  808MOL0     H 9046   7.029   1.322   8.957 -2.2974 -0.4732 -0.9617
  808MOL0     H 9047   7.185   1.322   8.887 -1.1674 -1.7787  1.5625
  808MOL0     H 9048   7.150   1.566   8.800 -0.7287  1.3410  0.2230
  808MOL0     H 9049   6.983   1.547   8.830  0.2464 -2.1332 -1.3863
  808MOL0     H 9050   7.217   1.556   9.021 -0.0498 -0.8399 -4.1616
  808MOL0     H 9051   7.062   1.497   9.081  0.3062 -0.1600 -0.1763
  808MOL0     H 9052   7.087   1.738   9.119  0.3924 -2.7739  0.6978
  808MOL0     H 9053   6.971   1.733   8.983 -1.4751 -0.0687  1.9447
  808MOL0     H 9054   7.205   1.757   8.836 -1.0010  0.0161 -1.5834
  808MOL0     H 9055   7.127   1.898   8.914  2.8062  1.1313  0.5877
  808MOL0     H 9056   7.284   1.818   9.122  1.1114  0.7528 -0.1549
  808MOL0     H 9057   7.332   1.945   9.008  4.2442 -0.7042 -1.6347
  808MOL0     H 9058   7.403   1.657   8.961  1.4632  0.0154 -0.2904
  808MOL0     H 9059   7.459   1.805   8.871  1.1006 -0.4765  0.4530
  808MOL0     H 9060   6.838   1.221   8.573 -1.4735 -0.6439  0.6347
  808MOL0     H 9061   6.769   1.078   8.392  2.3399  0.0561 -1.3211
  808MOL0     H 9062   6.935   0.491   8.200  0.9250 -0.3803 -2.5121
  808MOL0     H 9063   6.804   0.318   8.100  2.4041  0.2504  3.6489
  808MOL0     H 9064   5.125  -0.207   6.929  0.9724  0.9870  0.0710
  808MOL0     H 9065   4.861  -0.155   6.911 -1.4210  0.2994  2.4676
  808MOL0     H 9066   4.536  -0.077   7.018  2.3895  0.9602  0.4832
  808MOL0     H 9067   4.304  -0.135   7.070  3.1225  0.0663 -1.9162
  808MOL0     H 9068   4.071  -0.163   7.229 -0.8836  0.4567  0.8605
  808MOL0     H 9069   4.082  -0.106   7.063  2.2297  0.7608  0.6297
  808MOL0     H 9070   3.841  -0.129   7.139 -2.5963  1.3665 -0.9756
  808MOL0     H 9071   3.878   0.023   7.064 -1.0811  0.7603  0.8461
  808MOL0     H 9072   3.762   0.089   7.257  1.8830  1.7315 -1.2089
  808MOL0     H 9073   3.927   0.119   7.299  0.5570 -0.4269  0.5672
  808MOL0     H 9074   3.922  -0.077   7.450  1.5809  4.1714  2.5445
  808MOL0     H 9075   3.780   0.027   7.480 -0.0827 -1.9282  1.5294
  808MOL0     H 9076   3.587  -0.290   7.305  1.2389  0.0623 -1.7553
  808MOL0     H 9077   4.256   0.256   7.242 -0.4915 -1.2025  0.4459
  808MOL0     H 9078   4.513   0.424   7.109 -0.3931 -1.4444 -0.4823
  808MOL0     H 9079   4.409   0.408   7.251  0.7170 -0.9691  1.7535
  808MOL0     H 9080   4.580   0.354   7.260  0.9498  0.0346  0.0031
  809MOL0     O 9081   3.654   2.548   5.840 -0.0270  0.1796 -0.0862
  809MOL0     C 9082   3.652   2.428   5.816 -1.4230 -0.4394 -0.0166
  809MOL0     O 9083   3.753   2.345   5.860 -0.1281 -0.1085 -0.5502
  809MOL0     C 9084   3.868   2.376   5.922  0.1223  0.1065 -0.0856
  809MOL0     C 9085   3.994   2.327   5.878 -0.4401  0.1710 -0.0762
  809MOL0     C 9086   4.117   2.382   5.920 -0.5576 -0.5575  0.3413
  809MOL0     C 9087   4.122   2.481   6.025 -0.3960 -0.3922  0.0510
  809MOL0     O 9088   4.235   2.544   6.086  0.8468 -0.0358  0.2495
  809MOL0     C 9089   4.353   2.465   6.087  0.0315  0.2742  0.0154
  809MOL0     C 9090   4.443   2.525   6.191 -0.1668 -0.9276  0.1904
  809MOL0     C 9091   4.573   2.457   6.206 -0.3267 -0.0706  0.1852
  809MOL0     C 9092   4.670   2.515   6.313 -0.1110 -0.2072  0.1226
  809MOL0     C 9093   4.795   2.429   6.317 -0.5226 -0.2508 -0.3143
  809MOL0     C 9094   4.893   2.435   6.198  0.0579  0.1202 -0.1718
  809MOL0     C 9095   5.029   2.376   6.237  0.0893  0.8391 -0.3104
  809MOL0     C 9096   5.019   2.230   6.280  0.0055 -0.3123 -0.0546
  809MOL0     N 9097   5.156   2.177   6.313  0.2374  0.0372 -0.0631
  809MOL0     C 9098   5.186   2.049   6.364  0.6307  0.3822  0.6370
  809MOL0     C 9099   5.321   2.033   6.354  0.7022  0.9064  0.2182
  809MOL0     C 9100   5.385   1.905   6.380 -0.5998  0.0045 -0.0917
  809MOL0     C 9101   5.520   1.940   6.451 -0.6943  0.1650 -0.2581
  809MOL0     C 9102   5.601   1.806   6.467  0.4109 -0.3587  0.1430
  809MOL0     C 9103   5.727   1.818   6.537 -0.4037 -0.4153 -0.9313
  809MOL0     O 9104   5.797   1.938   6.517  0.3605 -0.4431 -0.0475
  809MOL0     C 9105   5.910   1.958   6.596  0.1257  0.6069  0.2528
  809MOL0     C 9106   5.961   2.087   6.588  0.4825 -0.2023 -0.5363
  809MOL0     C 9107   6.092   2.119   6.646 -0.3275  0.1718  0.2158
  809MOL0     C 9108   6.170   2.019   6.697 -0.3604  0.9785 -0.6602
  809MOL0     C 9109   6.302   2.044   6.747  0.4842  0.4031  0.8929
  809MOL0     O 9110   6.375   2.136   6.679 -0.2753 -0.4808 -0.5105
  809MOL0     C 9111   6.493   2.186   6.737  0.3601  0.3553 -0.4836
  809MOL0     C 9112   6.512   2.252   6.853 -0.4014  0.0855 -0.8103
  809MOL0     C 9113   6.638   2.284   6.893  0.7068  0.7885  0.4215
  809MOL0     C 9114   6.748   2.257   6.822 -0.4598 -0.3999 -0.8786
  809MOL0     O 9115   6.873   2.290   6.873 -0.1971 -0.4888  0.8001
  809MOL0     C 9116   6.972   2.183   6.862  0.2844  0.2177 -0.4616
  809MOL0     C 9117   7.101   2.220   6.933 -0.9264  0.4011 -1.5957
  809MOL0     C 9118   7.175   2.345   6.875 -0.0538 -0.5100 -0.2504
  809MOL0     C 9119   7.317   2.369   6.921  0.8850 -0.6789  0.2048
  809MOL0     C 9120   7.364   2.494   6.843  0.6449  0.1602  0.8668
  809MOL0     C 9121   7.515   2.518   6.848  0.3153 -0.6403  0.0917
  809MOL0     C 9122   7.556   2.636   6.770  0.6833  0.4337 -0.1915
  809MOL0     C 9123   7.701   2.647   6.740 -0.3620 -0.4856  0.0395
  809MOL0    Cl 9124   7.801   2.634   6.886 -0.2413  0.2703  0.2451
  809MOL0     C 9125   6.733   2.192   6.702  0.3401 -0.6028  1.1152
  809MOL0     C 9126   6.604   2.155   6.655 -0.4909  0.2197 -0.6763
  809MOL0     O 9127   6.338   1.988   6.845 -0.3234  0.0895 -1.2259
  809MOL0     C 9128   6.106   1.893   6.721  0.4272 -0.1711 -0.0970
  809MOL0     C 9129   5.973   1.865   6.676 -0.8834  1.3451 -0.5600
  809MOL0     N 9130   5.369   2.150   6.298 -0.2008  1.0162 -0.0308
  809MOL0     N 9131   5.274   2.236   6.279 -0.0851  0.4190  0.1679
  809MOL0     C 9132   3.999   2.518   6.080 -0.0468  0.3214  0.5971
  809MOL0     C 9133   3.877   2.469   6.025  0.1115  0.0701 -0.1744
  809MOL0     C 9134   3.539   2.375   5.740  0.3074 -0.2948  0.2033
  809MOL0     C 9135   3.422   2.436   5.748  1.0061  0.5564 -0.3620
  809MOL0     C 9136   3.313   2.410   5.661  0.0357  0.4561  0.2604
  809MOL0     C 9137   3.316   2.316   5.564  0.2757  0.2623  0.4931
  809MOL0     O 9138   3.207   2.297   5.480 -0.0709 -0.3117  0.4801
  809MOL0     C 9139   3.214   2.184   5.387  0.6512  0.0219 -0.0983
  809MOL0     C 9140   3.090   2.189   5.301 -0.4646 -0.2644  0.2526
  809MOL0     C 9141   3.104   2.314   5.209 -0.4504  0.1146  0.2264
  809MOL0     C 9142   2.969   2.316   5.126  0.1735  0.2884  0.4085
  809MOL0     C 9143   2.964   2.428   5.037 -0.1483 -0.6440  0.0040
  809MOL0     C 9144   2.955   2.521   4.957  0.1018 -0.5004 -0.6134
  809MOL0     C 9145   3.423   2.229   5.578 -0.3205  0.9636 -0.0732
  809MOL0     C 9146   3.533   2.258   5.659 -0.4273  0.0918 -0.1234
  809MOL0     C 9147   3.650   2.156   5.657  0.0715 -0.2547 -0.7363
  809MOL0     H 9148   3.990   2.252   5.799  0.2766 -1.5734  1.4633
  809MOL0     H 9149   4.214   2.352   5.882 -1.0326 -0.2052 -1.1935
  809MOL0     H 9150   4.343   2.357   6.101  0.1631  0.3090  0.3852
  809MOL0     H 9151   4.402   2.466   5.989  2.5201 -0.1369  1.1862
  809MOL0     H 9152   4.386   2.511   6.283  0.0358 -1.3181  0.2573
  809MOL0     H 9153   4.471   2.630   6.178  1.0931 -0.9260  2.3364
  809MOL0     H 9154   4.634   2.462   6.116 -0.7724  2.4886 -0.0303
  809MOL0     H 9155   4.563   2.350   6.227  3.7208 -0.7604 -0.5465
  809MOL0     H 9156   4.691   2.620   6.291  1.0875 -0.4219  0.1573
  809MOL0     H 9157   4.628   2.509   6.413  1.0636  1.6801  0.7849
  809MOL0     H 9158   4.854   2.440   6.408  1.5923 -2.7377 -1.2373
  809MOL0     H 9159   4.759   2.327   6.332 -1.6697  0.2216  0.2692
  809MOL0     H 9160   4.861   2.376   6.112  1.2468 -0.8831  0.0426
  809MOL0     H 9161   4.913   2.540   6.174 -2.0137  1.3399  2.7507
  809MOL0     H 9162   5.071   2.439   6.316  2.1292  1.4361 -1.8241
  809MOL0     H 9163   5.098   2.393   6.155 -1.6099  2.6265 -1.4664
  809MOL0     H 9164   4.964   2.211   6.372 -0.6502 -1.1322 -0.5984
  809MOL0     H 9165   4.975   2.180   6.193 -0.3710 -0.4689  0.2231
  809MOL0     H 9166   5.103   1.988   6.398  1.1190 -0.3626  0.5060
  809MOL0     H 9167   5.324   1.837   6.440 -0.0609  0.2602  0.7571
  809MOL0     H 9168   5.411   1.856   6.285  0.1818  0.2371 -0.0085
  809MOL0     H 9169   5.582   2.006   6.390 -2.2718  3.3958  1.3764
  809MOL0     H 9170   5.500   1.998   6.542  0.4656  0.8301 -0.4134
  809MOL0     H 9171   5.619   1.769   6.366  0.5551  0.3311 -0.0914
  809MOL0     H 9172   5.532   1.729   6.502  1.5585 -2.0830 -1.2461
  809MOL0     H 9173   5.790   1.734   6.508  0.2334  0.2065 -1.4022
  809MOL0     H 9174   5.704   1.801   6.643  0.4251 -3.2615 -1.1243
  809MOL0     H 9175   5.912   2.152   6.517  3.4327  2.2172 -0.5455
  809MOL0     H 9176   6.143   2.214   6.633  0.4664 -0.3750 -0.7787
  809MOL0     H 9177   6.434   2.291   6.917 -0.4484  2.8215 -2.3762
  809MOL0     H 9178   6.666   2.339   6.983  3.5368 -1.5308  1.1364
  809MOL0     H 9179   6.935   2.097   6.919  2.2046  0.1015  0.7215
  809MOL0     H 9180   6.992   2.152   6.759  2.7803 -0.5342  0.1827
  809MOL0     H 9181   7.083   2.237   7.040 -1.8156 -3.5418 -0.9663
  809MOL0     H 9182   7.167   2.132   6.930  1.4339  1.9780  0.0952
  809MOL0     H 9183   7.185   2.343   6.766  3.2039  1.4776 -0.1117
  809MOL0     H 9184   7.118   2.434   6.903 -2.0181 -1.8907  0.4075
  809MOL0     H 9185   7.382   2.285   6.895  1.7938  0.2908 -0.7082
  809MOL0     H 9186   7.305   2.385   7.029  0.9018  0.9619 -0.0177
  809MOL0     H 9187   7.300   2.582   6.854  2.8736  1.9671  0.3654
  809MOL0     H 9188   7.362   2.454   6.742  1.8209 -3.6074  2.1592
  809MOL0     H 9189   7.538   2.530   6.954  0.8651 -1.8214  0.1266
  809MOL0     H 9190   7.574   2.432   6.813 -1.7982 -2.7242  1.3992
  809MOL0     H 9191   7.529   2.724   6.830  1.1778 -0.4490  1.3697
  809MOL0     H 9192   7.506   2.632   6.673 -0.3121 -2.9567  0.3329
  809MOL0     H 9193   7.740   2.566   6.679  2.3213 -0.5520  1.6948
  809MOL0     H 9194   7.712   2.746   6.695 -0.7407  0.2239  1.4239
  809MOL0     H 9195   6.814   2.164   6.635 -1.5760 -1.5541 -0.9709
  809MOL0     H 9196   6.584   2.116   6.556 -1.0208  0.2188 -0.5718
  809MOL0     H 9197   6.158   1.825   6.788  0.4468  2.0677  2.3108
  809MOL0     H 9198   5.924   1.769   6.693 -0.8058  1.3052 -0.5630
  809MOL0     H 9199   3.997   2.599   6.153 -1.1836  0.4081  0.4881
  809MOL0     H 9200   3.783   2.517   6.052  0.0447  0.4510 -1.0910
  809MOL0     H 9201   3.402   2.522   5.812 -1.8330 -0.2974  0.0434
  809MOL0     H 9202   3.228   2.477   5.672 -0.1203  0.0120  1.9578
  809MOL0     H 9203   3.212   2.087   5.438 -2.4807  0.0200  0.0161
  809MOL0     H 9204   3.302   2.183   5.324  0.8251  0.6205  0.1345
  809MOL0     H 9205   3.005   2.194   5.370  0.5091  3.3659  1.4013
  809MOL0     H 9206   3.074   2.098   5.242 -1.1586 -0.1795  0.2997
  809MOL0     H 9207   3.192   2.313   5.144  0.0955 -1.2301  0.9646
  809MOL0     H 9208   3.122   2.399   5.276 -1.2875 -0.9692  1.8802
  809MOL0     H 9209   2.960   2.228   5.062 -0.0723  0.8826 -0.3877
  809MOL0     H 9210   2.887   2.324   5.197  0.3210 -1.5025  0.8214
  809MOL0     H 9211   2.963   2.613   4.903  1.6515 -0.2694 -0.0260
  809MOL0     H 9212   3.425   2.144   5.511  1.3521 -1.1332  2.4441
  809MOL0     H 9213   3.657   2.123   5.761  2.2230  0.2636 -0.6651
  809MOL0     H 9214   3.641   2.070   5.591 -0.9286  0.7234 -1.9279
  809MOL0     H 9215   3.743   2.211   5.641 -0.7559  0.9583 -1.5869
  810MOL0     O 9216   3.794   0.930   7.218  0.3334 -0.5030  0.2279
  810MOL0     C 9217   3.767   0.812   7.182 -0.3368 -0.6374 -1.2420
  810MOL0     O 9218   3.839   0.702   7.193 -0.4192  0.4114  0.5240
  810MOL0     C 9219   3.975   0.717   7.173 -0.3186 -1.4170  0.3454
  810MOL0     C 9220   4.060   0.633   7.246  0.3593 -0.0662  0.3013
  810MOL0     C 9221   4.198   0.641   7.237 -0.5092 -0.7774 -0.6283
  810MOL0     C 9222   4.260   0.744   7.168  0.5734  0.0147  0.0693
  810MOL0     O 9223   4.389   0.740   7.161  0.2635  0.4609 -0.0984
  810MOL0     C 9224   4.470   0.858   7.144 -0.2462  0.5425  0.3755
  810MOL0     C 9225   4.609   0.829   7.178  0.1072 -0.6391 -0.1507
  810MOL0     C 9226   4.660   0.731   7.078  0.2753  0.3847  0.3703
  810MOL0     C 9227   4.809   0.691   7.112  0.3980 -0.2048  0.3849
  810MOL0     C 9228   4.863   0.588   7.002  0.1441  0.1555 -0.0470
  810MOL0     C 9229   5.010   0.545   7.014 -0.5391  0.6014  0.4217
  810MOL0     C 9230   5.110   0.662   7.037  0.3464  0.1493 -0.0833
  810MOL0     C 9231   5.250   0.635   7.004 -0.5119 -0.3777 -0.0650
  810MOL0     N 9232   5.321   0.533   7.078 -0.0616 -0.7563  0.3211
  810MOL0     C 9233   5.303   0.518   7.215  0.3370  0.3466 -0.3531
  810MOL0     C 9234   5.398   0.431   7.251  0.3943 -0.3204  0.1341
  810MOL0     C 9235   5.420   0.374   7.383 -0.0741  0.1026 -0.4269
  810MOL0     C 9236   5.552   0.422   7.443  0.0481 -0.0649 -1.0405
  810MOL0     C 9237   5.590   0.323   7.549 -0.2127 -1.0173  0.3157
  810MOL0     C 9238   5.510   0.340   7.688 -0.4100 -0.1768  0.2352
  810MOL0     O 9239   5.538   0.462   7.750  0.9081  0.1399  0.0022
  810MOL0     C 9240   5.664   0.491   7.787 -1.0237  0.8968 -0.7935
  810MOL0     C 9241   5.763   0.395   7.829 -0.1818  0.3759 -0.5136
  810MOL0     C 9242   5.897   0.438   7.847  0.6996 -0.5364 -0.4138
  810MOL0     C 9243   5.935   0.570   7.840  0.2485 -0.4402  0.6837
  810MOL0     C 9244   6.071   0.618   7.873  0.2308  0.1300 -0.0715
  810MOL0     O 9245   6.085   0.755   7.870 -0.9165 -0.7212  0.1610
  810MOL0     C 9246   6.219   0.795   7.875  0.4079 -1.2254 -0.2320
  810MOL0     C 9247   6.277   0.829   7.999 -0.2897 -0.3476 -0.1332
  810MOL0     C 9248   6.399   0.898   8.012 -0.5019  0.3181 -1.0201
  810MOL0     C 9249   6.485   0.912   7.895  0.0783  1.1159  0.0035
  810MOL0     O 9250   6.609   0.960   7.896 -0.3036  0.6246  0.3503
  810MOL0     C 9251   6.701   0.922   7.999  0.0962  0.1599  0.5907
  810MOL0     C 9252   6.837   0.991   7.975  0.0459  0.0733  0.3682
  810MOL0     C 9253   6.928   0.971   8.095 -0.4826  0.2040 -0.5866
  810MOL0     C 9254   7.062   1.046   8.078 -0.2298 -0.3822 -0.7052
  810MOL0     C 9255   7.186   0.996   8.149 -0.7146 -0.3674 -0.3026
  810MOL0     C 9256   7.173   1.045   8.296 -0.4117  0.1604 -0.0129
  810MOL0     C 9257   7.295   1.024   8.392  0.1242  0.3027 -0.2205
  810MOL0     C 9258   7.274   1.098   8.523  0.6912  1.0581 -0.1158
  810MOL0    Cl 9259   7.267   1.277   8.501  0.0081  0.2915 -0.3165
  810MOL0     C 9260   6.432   0.864   7.780  0.2268  0.5327  0.5481
  810MOL0     C 9261   6.297   0.823   7.766 -0.1453  1.2747 -0.5667
  810MOL0     O 9262   6.152   0.540   7.916 -0.2498  0.0597  0.0030
  810MOL0     C 9263   5.831   0.667   7.812  0.8133 -0.2760  0.2481
  810MOL0     C 9264   5.700   0.627   7.781 -0.9881  0.7849 -0.2855
  810MOL0     N 9265   5.476   0.416   7.128 -0.1514  0.7006 -1.0640
  810MOL0     N 9266   5.439   0.489   7.033  0.0903  0.3272  0.2273
  810MOL0     C 9267   4.179   0.822   7.084  0.4647  0.8758  0.4722
  810MOL0     C 9268   4.038   0.808   7.089  0.4337 -0.9854 -0.1527
  810MOL0     C 9269   3.622   0.788   7.140 -0.2311 -0.3534  0.5095
  810MOL0     C 9270   3.553   0.677   7.195  0.9960  0.5834  0.3155
  810MOL0     C 9271   3.421   0.642   7.144  0.4059 -0.3819 -0.8229
  810MOL0     C 9272   3.368   0.711   7.034  0.0615 -0.1116  0.2847
  810MOL0     O 9273   3.240   0.690   6.980  0.5549 -0.0637  0.3606
  810MOL0     C 9274   3.170   0.572   7.023 -0.0566  0.1844 -0.4557
  810MOL0     C 9275   3.044   0.577   6.942  1.1809  0.4942  0.5288
  810MOL0     C 9276   2.962   0.463   6.981  1.0310  0.7167 -0.3495
  810MOL0     C 9277   2.813   0.486   6.961 -0.7278 -0.3141  0.4100
  810MOL0     C 9278   2.741   0.369   7.001  0.5308  0.1741 -0.7152
  810MOL0     C 9279   2.690   0.264   7.028  0.6852  0.1828 -0.7638
  810MOL0     C 9280   3.447   0.813   6.970  0.1545 -0.5058  0.3819
  810MOL0     C 9281   3.562   0.864   7.034 -0.2936  0.8240  0.0778
  810MOL0     C 9282   3.625   0.984   6.967 -0.3130 -0.6064  0.3682
  810MOL0     H 9283   4.014   0.566   7.319  1.0834 -2.2005 -1.0970
  810MOL0     H 9284   4.267   0.576   7.289  1.8774  1.0747 -1.2736
  810MOL0     H 9285   4.470   0.907   7.046 -0.6403  1.3092  0.7463
  810MOL0     H 9286   4.429   0.931   7.214  0.2499  0.7576  0.4413
  810MOL0     H 9287   4.603   0.783   7.277  1.0548  0.2841  0.3695
  810MOL0     H 9288   4.669   0.921   7.180 -0.2305 -0.0940 -4.7648
  810MOL0     H 9289   4.644   0.770   6.977  0.8338 -2.6019 -0.9797
  810MOL0     H 9290   4.594   0.644   7.074  1.5740 -0.6111 -0.1420
  810MOL0     H 9291   4.884   0.769   7.125 -0.3685  0.5534  0.3807
  810MOL0     H 9292   4.793   0.633   7.204 -0.9926 -1.1792 -0.4304
  810MOL0     H 9293   4.803   0.497   7.007  0.3561  0.0800  1.4179
  810MOL0     H 9294   4.848   0.627   6.900 -1.7985 -1.7316 -0.5642
  810MOL0     H 9295   5.015   0.471   7.094 -0.5866  3.2029  2.9827
  810MOL0     H 9296   5.043   0.486   6.928  1.9336 -2.6257  3.2628
  810MOL0     H 9297   5.104   0.698   7.140  3.5736  2.1643 -0.4542
  810MOL0     H 9298   5.078   0.743   6.972  1.8078  1.4557  0.7407
  810MOL0     H 9299   5.256   0.604   6.899  1.3998  3.2562 -1.1800
  810MOL0     H 9300   5.312   0.725   7.000 -1.0114 -0.0546 -1.2904
  810MOL0     H 9301   5.231   0.566   7.281  3.5957  1.7952  2.4805
  810MOL0     H 9302   5.343   0.421   7.446  1.4281  0.9916  0.8143
  810MOL0     H 9303   5.407   0.266   7.374  0.3982  0.1426 -1.8457
  810MOL0     H 9304   5.622   0.416   7.359  0.5707 -0.6929 -0.5727
  810MOL0     H 9305   5.527   0.522   7.477  2.1195 -0.0017  0.4704
  810MOL0     H 9306   5.697   0.312   7.569  0.1347  2.6680  1.2143
  810MOL0     H 9307   5.568   0.221   7.516  0.9195 -1.9110  2.1060
  810MOL0     H 9308   5.529   0.253   7.752  4.8450  1.9923  2.2741
  810MOL0     H 9309   5.402   0.350   7.672 -0.5231 -0.1584  0.9602
  810MOL0     H 9310   5.740   0.289   7.821 -1.6035  0.4481  1.7194
  810MOL0     H 9311   5.969   0.361   7.871  1.0526 -0.7684 -2.0993
  810MOL0     H 9312   6.227   0.805   8.093  0.8454 -0.4416  0.4676
  810MOL0     H 9313   6.423   0.927   8.114 -1.3685  0.8238 -0.9459
  810MOL0     H 9314   6.663   0.962   8.093 -0.1754  1.7463 -0.1587
  810MOL0     H 9315   6.706   0.813   8.002 -0.0131  0.1378  0.1229
  810MOL0     H 9316   6.882   0.947   7.886 -0.1563  0.0498  0.2786
  810MOL0     H 9317   6.818   1.097   7.953  2.6028  0.3882 -0.6728
  810MOL0     H 9318   6.877   0.999   8.188  3.4276  0.1244  1.8201
  810MOL0     H 9319   6.947   0.863   8.097 -0.7114  0.0786 -2.8552
  810MOL0     H 9320   7.052   1.155   8.083  1.8387 -0.2010  1.3346
  810MOL0     H 9321   7.104   1.029   7.979  3.1777 -0.1855  0.5824
  810MOL0     H 9322   7.275   1.041   8.103 -2.0134  3.1248  0.3413
  810MOL0     H 9323   7.201   0.888   8.139  0.8148 -0.1094 -1.1581
  810MOL0     H 9324   7.168   1.155   8.296 -0.6992  0.1873 -1.8980
  810MOL0     H 9325   7.084   0.998   8.338 -0.8660  0.5834 -0.4831
  810MOL0     H 9326   7.389   1.057   8.348 -0.9884  0.6723 -2.5060
  810MOL0     H 9327   7.312   0.918   8.413  1.6254  0.5618 -0.0209
  810MOL0     H 9328   7.191   1.060   8.583  3.0941 -1.8427  1.6658
  810MOL0     H 9329   7.343   1.076   8.604 -0.7400 -2.6341  0.3026
  810MOL0     H 9330   6.486   0.861   7.686 -1.4535 -1.9371 -0.4323
  810MOL0     H 9331   6.265   0.799   7.664  2.3193  0.3501 -1.2000
  810MOL0     H 9332   5.853   0.772   7.795  1.2790 -0.5886 -1.2395
  810MOL0     H 9333   5.634   0.699   7.733 -0.4281  1.7632  0.3801
  810MOL0     H 9334   4.237   0.883   7.016  1.4866  1.4005  1.7703
  810MOL0     H 9335   3.988   0.865   7.012 -0.2680 -0.0718  0.9477
  810MOL0     H 9336   3.608   0.627   7.273 -1.1171 -0.8583  0.9785
  810MOL0     H 9337   3.370   0.558   7.191 -2.3815  1.1325 -0.9549
  810MOL0     H 9338   3.151   0.579   7.131  1.7065  1.4172 -0.1859
  810MOL0     H 9339   3.221   0.477   7.004 -1.6049 -0.6576 -0.5784
  810MOL0     H 9340   3.059   0.562   6.835 -1.2999  2.8135 -0.2466
  810MOL0     H 9341   2.991   0.672   6.958 -0.3758 -0.4464  1.2977
  810MOL0     H 9342   2.978   0.443   7.087  1.6570  1.0816 -0.3694
  810MOL0     H 9343   2.982   0.369   6.931 -2.4980 -0.2900 -0.1781
  810MOL0     H 9344   2.773   0.571   7.018  0.1978  1.2136 -1.1352
  810MOL0     H 9345   2.790   0.521   6.860 -0.3266  0.3270  0.5318
  810MOL0     H 9346   2.646   0.168   7.045  1.7736 -0.4289 -1.3194
  810MOL0     H 9347   3.408   0.869   6.886  0.8705  1.6141  1.3877
  810MOL0     H 9348   3.703   0.947   6.901 -2.0497 -1.6886 -1.1836
  810MOL0     H 9349   3.550   1.042   6.912  2.3694  2.2830 -0.5020
  810MOL0     H 9350   3.663   1.054   7.042 -0.0154 -0.8037  0.4024
  811MOL0     O 9351   0.774   7.768   9.126 -0.7548  0.7522  0.1442
  811MOL0     C 9352   0.728   7.866   9.184 -0.6768 -0.0298 -0.6499
  811MOL0     O 9353   0.794   7.954   9.258 -0.8160  0.4633 -0.7283
  811MOL0     C 9354   0.931   7.942   9.290  0.0086 -0.2554 -0.3364
  811MOL0     C 9355   0.962   7.944   9.434 -0.1644  0.2759 -0.2201
  811MOL0     C 9356   1.098   7.937   9.478  0.0824  0.1072  0.1775
  811MOL0     C 9357   1.206   7.943   9.385 -0.5143 -0.0249  0.2222
  811MOL0     O 9358   1.338   7.944   9.415 -0.7112 -0.1354 -0.1977
  811MOL0     C 9359   1.391   7.835   9.492 -0.0710  0.6101 -0.1560
  811MOL0     C 9360   1.502   7.903   9.573 -0.4116 -0.9227  0.1040
  811MOL0     C 9361   1.569   7.809   9.669  0.1536  0.2592  0.4190
  811MOL0     C 9362   1.698   7.879   9.727  0.1570  0.3103 -0.3259
  811MOL0     C 9363   1.734   7.828   9.862 -0.4252  0.2911 -0.0255
  811MOL0     C 9364   1.866   7.878   9.916 -0.4131  0.6432  0.1297
  811MOL0     C 9365   1.911   7.816  10.039  0.2101  0.1482  0.1604
  811MOL0     C 9366   2.056   7.852  10.087 -0.6900  0.3502 -0.2516
  811MOL0     N 9367   2.080   7.991  10.130  0.3858 -0.6816 -0.2337
  811MOL0     C 9368   2.036   8.044  10.250 -0.0189  0.1415  0.5521
  811MOL0     C 9369   2.083   8.174  10.250 -0.4726 -0.7618  0.1220
  811MOL0     C 9370   2.056   8.273  10.360 -0.9309  0.9554  1.4854
  811MOL0     C 9371   2.178   8.317  10.441 -0.4361 -0.2405 -0.7645
  811MOL0     C 9372   2.265   8.203  10.505 -0.3210 -0.2132 -0.1083
  811MOL0     C 9373   2.212   8.136  10.634 -0.3240 -0.1163 -0.7138
  811MOL0     O 9374   2.295   8.022  10.670  0.2519  0.3416 -0.0781
  811MOL0     C 9375   2.398   8.041  10.764 -0.5107  0.0426  0.5939
  811MOL0     C 9376   2.452   7.924  10.823  0.2140 -0.8152  0.0026
  811MOL0     C 9377   2.557   7.931  10.925  0.7313  0.3212 -0.3797
  811MOL0     C 9378   2.600   8.052  10.983 -0.1189  0.8448 -0.0582
  811MOL0     C 9379   2.692   8.041  11.089 -0.6264 -0.7167 -0.0807
  811MOL0     O 9380   2.740   7.912  11.133 -0.2176  0.0451 -0.5371
  811MOL0     C 9381   2.804   7.899  11.256  0.5871  0.7274  0.0387
  811MOL0     C 9382   2.785   7.786  11.335  0.8295  0.7667 -0.3792
  811MOL0     C 9383   2.845   7.766  11.461 -0.0141  0.2844  0.4991
  811MOL0     C 9384   2.933   7.868  11.507 -1.1269 -0.2093 -0.6805
  811MOL0     O 9385   3.002   7.861  11.630  0.3783 -0.5230 -0.4546
  811MOL0     C 9386   2.955   7.935  11.740  1.5521 -0.9112  0.5542
  811MOL0     C 9387   3.011   7.881  11.867  0.3971 -0.0794 -0.1578
  811MOL0     C 9388   3.160   7.927  11.888  0.6363  0.2836  0.4342
  811MOL0     C 9389   3.247   7.825  11.963  0.5287 -0.0377  0.0369
  811MOL0     C 9390   3.392   7.858  11.964 -0.5657 -0.1519 -0.1353
  811MOL0     C 9391   3.470   7.824  11.835  0.8329 -0.1186  0.1620
  811MOL0     C 9392   3.470   7.672  11.787  0.2565 -0.3719  0.0809
  811MOL0     C 9393   3.536   7.659  11.643 -0.0922 -0.5037 -0.6121
  811MOL0    Cl 9394   3.708   7.695  11.661  0.4560  0.0650  0.1137
  811MOL0     C 9395   2.961   7.974  11.422  0.0559  0.1491  0.4710
  811MOL0     C 9396   2.893   7.997  11.304  0.7705 -0.2242  0.4657
  811MOL0     O 9397   2.739   8.154  11.126 -0.1749  0.4066  0.5555
  811MOL0     C 9398   2.534   8.170  10.926  0.5836  0.2901 -0.7888
  811MOL0     C 9399   2.449   8.164  10.815  1.2104 -0.3177 -1.0471
  811MOL0     N 9400   2.164   8.193  10.136 -0.8631 -0.2701  0.3286
  811MOL0     N 9401   2.164   8.080  10.071 -0.7271  0.2778 -0.1085
  811MOL0     C 9402   1.173   7.932   9.247  0.0801 -0.7381 -1.0097
  811MOL0     C 9403   1.040   7.933   9.203 -0.5870 -0.0770  0.5555
  811MOL0     C 9404   0.582   7.879   9.175  0.0828 -0.3360 -1.0156
  811MOL0     C 9405   0.515   7.958   9.270  0.0426  0.0551 -0.4949
  811MOL0     C 9406   0.371   7.970   9.279 -0.0031 -0.1659  0.0992
  811MOL0     C 9407   0.296   7.896   9.184  0.8012  0.0179  0.3734
  811MOL0     O 9408   0.159   7.903   9.176 -0.0051  0.3227 -0.1874
  811MOL0     C 9409   0.085   8.001   9.251  0.3887 -0.7048  0.6797
  811MOL0     C 9410  -0.064   8.001   9.209 -0.0619 -0.3693  0.4188
  811MOL0     C 9411  -0.123   7.859   9.213  0.6278  0.7572 -0.3164
  811MOL0     C 9412  -0.280   7.868   9.232  0.3988  0.0435  0.3743
  811MOL0     C 9413  -0.317   7.731   9.267  1.0498  0.1261 -0.7046
  811MOL0     C 9414  -0.352   7.624   9.323 -0.7056 -1.7354  0.4422
  811MOL0     C 9415   0.360   7.821   9.084  0.6527 -0.0592 -0.2618
  811MOL0     C 9416   0.499   7.813   9.074 -0.3365 -0.0480 -0.5668
  811MOL0     C 9417   0.558   7.742   8.956  0.9606  0.6044  0.1161
  811MOL0     H 9418   0.883   7.947   9.508  1.9742 -0.5269  2.2267
  811MOL0     H 9419   1.119   7.943   9.584 -1.4622 -1.5201  0.6240
  811MOL0     H 9420   1.326   7.788   9.567  0.9428 -2.8510 -1.2661
  811MOL0     H 9421   1.434   7.755   9.430  1.1937  1.3303 -0.2440
  811MOL0     H 9422   1.454   7.982   9.631  0.9904 -0.4871  0.7160
  811MOL0     H 9423   1.579   7.946   9.509 -1.4702 -2.7621 -2.5903
  811MOL0     H 9424   1.587   7.710   9.627  1.5522 -0.0695  1.6855
  811MOL0     H 9425   1.505   7.785   9.754 -1.9784 -0.9728 -1.4299
  811MOL0     H 9426   1.781   7.870   9.656 -0.4419  0.4843 -1.0710
  811MOL0     H 9427   1.689   7.988   9.731 -0.5814  0.4248 -3.1512
  811MOL0     H 9428   1.651   7.850   9.930 -0.8709 -0.3036 -0.3630
  811MOL0     H 9429   1.740   7.719   9.862  1.7591  0.3542  1.2160
  811MOL0     H 9430   1.947   7.854   9.846 -0.4478  1.3532 -0.1640
  811MOL0     H 9431   1.856   7.987   9.922 -1.7733  0.5102  0.6410
  811MOL0     H 9432   1.916   7.708  10.028  2.2117  0.1812  0.4342
  811MOL0     H 9433   1.842   7.830  10.123 -0.7997 -0.4387 -0.5458
  811MOL0     H 9434   2.081   7.799  10.179 -0.0072  2.1417  0.6430
  811MOL0     H 9435   2.125   7.840  10.003 -1.2780 -0.5890 -0.6095
  811MOL0     H 9436   1.960   8.009  10.319 -1.4673  1.0319 -0.5358
  811MOL0     H 9437   1.997   8.355  10.317 -2.7379 -0.7813  0.5047
  811MOL0     H 9438   1.983   8.220  10.422 -4.2709 -0.6671 -3.2641
  811MOL0     H 9439   2.248   8.373  10.378 -0.0887  1.6442  1.1465
  811MOL0     H 9440   2.134   8.384  10.516  2.8809 -2.0383  3.2301
  811MOL0     H 9441   2.363   8.245  10.530 -0.0315 -0.4073 -0.8770
  811MOL0     H 9442   2.277   8.123  10.431 -3.0854  0.9011 -1.9570
  811MOL0     H 9443   2.108   8.112  10.612  0.6694 -2.1455 -3.9305
  811MOL0     H 9444   2.211   8.209  10.716  0.2939 -0.8233 -0.0594
  811MOL0     H 9445   2.408   7.833  10.783  1.5495 -1.6700  0.4108
  811MOL0     H 9446   2.590   7.832  10.957 -1.7301 -0.4846 -0.1403
  811MOL0     H 9447   2.729   7.709  11.285  1.5811 -0.4478  0.5933
  811MOL0     H 9448   2.849   7.665  11.501  1.2271 -0.6298 -1.7481
  811MOL0     H 9449   2.984   8.040  11.735  1.3988 -0.8654  0.6308
  811MOL0     H 9450   2.847   7.921  11.736  0.8482  3.1145  1.2984
  811MOL0     H 9451   2.955   7.919  11.953 -0.1750 -1.3456  0.0438
  811MOL0     H 9452   2.995   7.773  11.867 -0.6601 -0.0076 -3.1382
  811MOL0     H 9453   3.204   7.954  11.792 -0.4132 -0.7840 -0.3868
  811MOL0     H 9454   3.155   8.016  11.951 -1.9636  0.2742  0.3581
  811MOL0     H 9455   3.237   7.730  11.909  1.5229 -2.1651  3.2349
  811MOL0     H 9456   3.219   7.813  12.068  1.0895 -1.3851  0.0521
  811MOL0     H 9457   3.424   7.801  12.052 -0.4494 -1.5458 -1.0485
  811MOL0     H 9458   3.408   7.963  11.989  0.4294 -0.6656  1.5401
  811MOL0     H 9459   3.421   7.883  11.757 -1.1884 -1.2473  0.5190
  811MOL0     H 9460   3.577   7.848  11.836  0.7324  0.4085 -0.9739
  811MOL0     H 9461   3.371   7.630  11.773  1.1063 -2.7985  0.8701
  811MOL0     H 9462   3.518   7.603  11.857 -0.4574 -0.9013  0.0582
  811MOL0     H 9463   3.519   7.559  11.602 -1.3254 -1.0739  1.1718
  811MOL0     H 9464   3.485   7.722  11.569 -2.2389 -2.5956 -1.0367
  811MOL0     H 9465   3.035   8.049  11.449  2.1222  0.3942 -4.7307
  811MOL0     H 9466   2.919   8.085  11.246 -2.7384 -0.9250 -2.5685
  811MOL0     H 9467   2.553   8.270  10.964 -3.0988  0.4006  1.1642
  811MOL0     H 9468   2.410   8.261  10.785 -2.5313 -1.3351 -0.1070
  811MOL0     H 9469   1.259   7.923   9.181  0.8492 -1.1172  0.0201
  811MOL0     H 9470   1.035   7.917   9.096  0.8751 -1.6886  0.6906
  811MOL0     H 9471   0.581   8.009   9.339  1.0066 -0.3076 -1.1296
  811MOL0     H 9472   0.332   8.034   9.358  0.5426  1.0175 -0.5559
  811MOL0     H 9473   0.128   8.098   9.223 -0.4897 -0.4612  0.1525
  811MOL0     H 9474   0.090   7.997   9.360  0.9580 -0.4677  0.6649
  811MOL0     H 9475  -0.073   8.042   9.108 -0.4676 -1.0999  0.1495
  811MOL0     H 9476  -0.121   8.066   9.276 -0.7243  1.1607 -1.5186
  811MOL0     H 9477  -0.083   7.807   9.300 -1.6129 -3.4526 -1.5583
  811MOL0     H 9478  -0.093   7.796   9.128  1.0831 -0.8076  0.9666
  811MOL0     H 9479  -0.311   7.940   9.308 -1.8651 -3.2756  2.8536
  811MOL0     H 9480  -0.342   7.890   9.145 -2.9520  2.3104  3.0927
  811MOL0     H 9481  -0.397   7.538   9.367  2.0736 -3.5663 -0.0559
  811MOL0     H 9482   0.290   7.767   9.021 -0.7170 -0.2985  1.3978
  811MOL0     H 9483   0.605   7.649   8.989 -0.7056 -0.1790  0.4297
  811MOL0     H 9484   0.480   7.718   8.882 -0.9524  3.8954  0.8927
  811MOL0     H 9485   0.638   7.798   8.906  2.8450  0.4518  2.7666
  812MOL0     O 9486   9.217   6.805   4.186  0.4823 -0.1339 -0.4596
  812MOL0     C 9487   9.123   6.752   4.133 -0.1271  0.4540 -0.0987
  812MOL0     O 9488   9.117   6.619   4.102 -0.1147  0.1462  0.3662
  812MOL0     C 9489   9.216   6.548   4.167  0.0941 -0.0892  1.3617
  812MOL0     C 9490   9.340   6.523   4.107 -0.2392 -0.4446  0.3764
  812MOL0     C 9491   9.449   6.455   4.170  0.2016 -0.6901  0.0022
  812MOL0     C 9492   9.432   6.410   4.309 -0.3353  0.0171 -0.6486
  812MOL0     O 9493   9.530   6.357   4.391 -0.5729  0.3116  0.0366
  812MOL0     C 9494   9.657   6.309   4.343  0.1220  0.2903 -0.2073
  812MOL0     C 9495   9.747   6.431   4.320 -0.4336  1.0024 -0.7922
  812MOL0     C 9496   9.889   6.387   4.272  0.1608 -0.5468  0.2682
  812MOL0     C 9497   9.966   6.521   4.245  0.6133 -0.6745 -0.2581
  812MOL0     C 9498  10.101   6.507   4.177  0.4590  0.4784 -0.1100
  812MOL0     C 9499  10.161   6.640   4.133  0.6260  0.7074 -0.4200
  812MOL0     C 9500  10.312   6.625   4.135  0.1714  0.0935  0.3715
  812MOL0     C 9501  10.380   6.756   4.086  0.5756  0.0532  0.7451
  812MOL0     N 9502  10.528   6.723   4.096  0.0497  0.4674  0.0057
  812MOL0     C 9503  10.597   6.630   4.017 -0.6160 -0.1337 -0.0463
  812MOL0     C 9504  10.716   6.613   4.081  0.4400  0.0794 -0.0870
  812MOL0     C 9505  10.834   6.536   4.023  0.2207  0.1341  0.1514
  812MOL0     C 9506  10.889   6.585   3.892 -0.5006 -0.2976  0.4208
  812MOL0     C 9507  10.946   6.727   3.903 -0.3881 -0.1274  0.0193
  812MOL0     C 9508  10.987   6.777   3.768  0.2428 -0.6849 -0.9622
  812MOL0     O 9509  11.007   6.912   3.784 -0.1357  0.3291 -0.6418
  812MOL0     C 9510  11.136   6.953   3.808 -0.4576 -0.0319 -0.2636
  812MOL0     C 9511  11.241   6.867   3.854  0.4914  0.7628  0.9428
  812MOL0     C 9512  11.368   6.915   3.875  0.1946  0.5448  0.0888
  812MOL0     C 9513  11.399   7.048   3.853 -0.0383 -0.1708 -0.0221
  812MOL0     C 9514  11.540   7.088   3.876 -0.7429 -0.0952  0.4599
  812MOL0     O 9515  11.622   6.984   3.895 -0.2686 -0.1517 -0.7838
  812MOL0     C 9516  11.756   6.990   3.916  0.3373  0.2693  0.1336
  812MOL0     C 9517  11.833   7.084   3.845 -0.8725  0.1365 -0.2194
  812MOL0     C 9518  11.969   7.091   3.873 -0.4441  0.5751 -0.4923
  812MOL0     C 9519  12.035   7.007   3.963 -0.4695 -0.5429  0.0607
  812MOL0     O 9520  12.154   7.049   4.019  0.1604 -0.4108  0.3947
  812MOL0     C 9521  12.271   7.033   3.936  1.2830 -0.7832 -0.7994
  812MOL0     C 9522  12.406   7.064   3.999  0.2067  0.0311 -0.5864
  812MOL0     C 9523  12.444   6.972   4.115  0.3636  0.2553  0.6247
  812MOL0     C 9524  12.574   7.011   4.178 -0.2037 -0.1648  0.1076
  812MOL0     C 9525  12.653   6.910   4.261 -0.3871  0.1788 -0.4132
  812MOL0     C 9526  12.774   6.975   4.329 -0.0544  1.0628  0.0140
  812MOL0     C 9527  12.747   7.078   4.442  0.6419 -0.5960 -0.2411
  812MOL0     C 9528  12.665   7.013   4.547 -0.0506  0.1726  0.4987
  812MOL0    Cl 9529  12.750   6.883   4.629  0.4302 -0.0015  0.4473
  812MOL0     C 9530  11.959   6.903   4.026  0.8857 -0.8484 -0.4873
  812MOL0     C 9531  11.821   6.890   3.995  0.0375 -0.5445  1.0247
  812MOL0     O 9532  11.576   7.206   3.862 -0.3334 -0.5030 -0.0114
  812MOL0     C 9533  11.301   7.131   3.807 -0.0015 -0.2754  0.1482
  812MOL0     C 9534  11.168   7.085   3.791 -0.3074 -0.3100  0.1691
  812MOL0     N 9535  10.717   6.693   4.193 -0.4799 -0.2668 -0.9276
  812MOL0     N 9536  10.605   6.766   4.200  0.1378  0.2640 -1.0216
  812MOL0     C 9537   9.307   6.430   4.366  0.1809 -0.2410 -0.5643
  812MOL0     C 9538   9.206   6.502   4.301 -0.4254  1.0673 -0.8362
  812MOL0     C 9539   9.002   6.828   4.106  1.7207  0.2992  0.6257
  812MOL0     C 9540   8.918   6.787   4.002  0.2242 -0.3644  0.0410
  812MOL0     C 9541   8.799   6.861   3.977 -0.1313  0.2512 -0.2934
  812MOL0     C 9542   8.751   6.964   4.059  0.2804 -0.0979 -0.1900
  812MOL0     O 9543   8.624   7.017   4.052  0.1829  0.6115  0.0501
  812MOL0     C 9544   8.617   7.158   4.063  0.4669 -0.0047  0.7331
  812MOL0     C 9545   8.695   7.231   3.952 -0.5405  0.1365 -0.0101
  812MOL0     C 9546   8.679   7.180   3.807  0.1138  0.2941  0.3292
  812MOL0     C 9547   8.714   7.271   3.693  0.0267 -0.2700 -0.1105
  812MOL0     C 9548   8.621   7.380   3.694  0.8357  0.2112 -0.0266
  812MOL0     C 9549   8.538   7.464   3.675  0.5244 -0.3320  0.0617
  812MOL0     C 9550   8.832   6.997   4.162  0.5270 -0.0795 -0.3676
  812MOL0     C 9551   8.960   6.948   4.184  0.4727  0.1313 -0.7005
  812MOL0     C 9552   9.031   7.001   4.305 -0.3977 -0.3830 -0.7154
  812MOL0     H 9553   9.351   6.542   4.001  0.7570  2.6852  0.9551
  812MOL0     H 9554   9.535   6.429   4.108 -0.2041 -2.0273 -0.0402
  812MOL0     H 9555   9.694   6.243   4.421 -0.0339  2.0687  1.4541
  812MOL0     H 9556   9.645   6.263   4.245  1.2791  1.4537 -0.9369
  812MOL0     H 9557   9.754   6.475   4.420 -1.0792  0.8053 -0.6559
  812MOL0     H 9558   9.696   6.498   4.251 -0.3910  1.5215 -0.3255
  812MOL0     H 9559   9.874   6.341   4.174 -1.7361 -0.2394  0.3784
  812MOL0     H 9560   9.933   6.313   4.340  1.3116 -1.9581 -1.9002
  812MOL0     H 9561   9.907   6.587   4.179 -0.0371 -0.2904  0.6754
  812MOL0     H 9562   9.984   6.567   4.343  1.3196  0.5181 -0.9144
  812MOL0     H 9563  10.169   6.443   4.233  0.9980 -0.8109 -2.1346
  812MOL0     H 9564  10.086   6.450   4.085 -0.0614 -2.4925  1.6857
  812MOL0     H 9565  10.115   6.657   4.035  3.9328  1.0321 -2.0700
  812MOL0     H 9566  10.124   6.720   4.199 -1.0509  0.7568 -1.3730
  812MOL0     H 9567  10.348   6.546   4.069 -1.9271  0.4582 -1.3477
  812MOL0     H 9568  10.339   6.606   4.239  1.7335  1.6283  0.2948
  812MOL0     H 9569  10.342   6.758   3.983  1.7600 -2.5391  0.1894
  812MOL0     H 9570  10.342   6.847   4.135  0.1405  1.2723 -1.7109
  812MOL0     H 9571  10.575   6.584   3.921  2.2995  1.5867 -1.6876
  812MOL0     H 9572  10.919   6.532   4.093  1.4394 -0.7587 -1.3100
  812MOL0     H 9573  10.802   6.432   4.011 -1.8393  0.5249  1.7236
  812MOL0     H 9574  10.958   6.516   3.842  0.7246  2.9692 -2.7834
  812MOL0     H 9575  10.800   6.604   3.831 -2.8126 -4.9622  1.8379
  812MOL0     H 9576  11.034   6.734   3.968 -0.3186  4.3923 -0.2304
  812MOL0     H 9577  10.871   6.795   3.941 -0.9994 -0.3864 -0.6986
  812MOL0     H 9578  10.897   6.767   3.706  0.9895 -0.9601 -2.0196
  812MOL0     H 9579  11.069   6.716   3.730  2.8483  1.5773  0.6291
  812MOL0     H 9580  11.239   6.759   3.865  0.3558  0.8018  1.3341
  812MOL0     H 9581  11.446   6.843   3.900  1.2599  0.8974 -1.9912
  812MOL0     H 9582  11.793   7.166   3.786 -2.6473  0.9663  1.9656
  812MOL0     H 9583  12.034   7.163   3.825  2.4251 -2.5300 -1.6813
  812MOL0     H 9584  12.279   6.928   3.907  1.4425 -1.1974  0.6368
  812MOL0     H 9585  12.259   7.093   3.846  0.2189 -2.2648 -1.6958
  812MOL0     H 9586  12.476   7.054   3.916 -1.2188 -2.4627 -1.5949
  812MOL0     H 9587  12.410   7.164   4.042  1.2079  0.6160 -2.0023
  812MOL0     H 9588  12.367   6.970   4.192  2.7866  0.0454  3.1970
  812MOL0     H 9589  12.442   6.867   4.085  0.5999 -0.1049  1.8129
  812MOL0     H 9590  12.541   7.088   4.248  0.4048  2.4663 -2.3066
  812MOL0     H 9591  12.644   7.067   4.115  1.4671 -1.7424  0.4747
  812MOL0     H 9592  12.675   6.832   4.188  1.5279  0.7575 -0.5035
  812MOL0     H 9593  12.587   6.877   4.342  1.5124  2.7519  2.4236
  812MOL0     H 9594  12.849   6.898   4.353 -3.3807 -2.3071  0.6289
  812MOL0     H 9595  12.817   7.038   4.251 -1.5670  1.4975 -0.4871
  812MOL0     H 9596  12.695   7.167   4.405 -1.7018 -1.0158  1.7881
  812MOL0     H 9597  12.842   7.119   4.480  0.4885 -0.1418 -0.3419
  812MOL0     H 9598  12.633   7.088   4.620  0.4159  1.1713 -0.2928
  812MOL0     H 9599  12.574   6.972   4.502  0.5559  1.8582 -2.5443
  812MOL0     H 9600  11.999   6.837   4.102 -3.2483 -0.8428  1.9795
  812MOL0     H 9601  11.769   6.807   4.042 -0.8337 -0.6405 -0.0512
  812MOL0     H 9602  11.305   7.237   3.783  0.9451  0.0449  1.5919
  812MOL0     H 9603  11.088   7.155   3.769  0.3451  0.7792  1.1659
  812MOL0     H 9604   9.275   6.381   4.458  0.0876  1.3665  0.3027
  812MOL0     H 9605   9.110   6.508   4.351 -0.1202 -0.6275  0.0410
  812MOL0     H 9606   8.956   6.703   3.945 -0.1010 -1.7272  1.7340
  812MOL0     H 9607   8.726   6.832   3.901 -1.7738 -0.4868  1.4728
  812MOL0     H 9608   8.632   7.193   4.165 -2.6584  0.6139  1.1077
  812MOL0     H 9609   8.512   7.189   4.052  0.1049 -1.8010 -1.7896
  812MOL0     H 9610   8.800   7.235   3.981 -1.2977 -0.7770  3.2954
  812MOL0     H 9611   8.653   7.332   3.953 -1.1397 -0.0753  2.3719
  812MOL0     H 9612   8.576   7.147   3.790 -0.0229 -0.5580  2.5768
  812MOL0     H 9613   8.747   7.095   3.798 -0.1328 -0.0184  1.2698
  812MOL0     H 9614   8.815   7.311   3.704 -0.0326  0.1104 -0.8790
  812MOL0     H 9615   8.712   7.213   3.600 -2.7353 -5.1129  2.5559
  812MOL0     H 9616   8.467   7.538   3.646 -0.8406 -1.3396  0.7219
  812MOL0     H 9617   8.790   7.069   4.231  2.7776  0.8367  0.1539
  812MOL0     H 9618   8.953   7.029   4.376  0.4374  0.7060 -0.2003
  812MOL0     H 9619   9.086   6.920   4.355 -2.7471 -1.1316  0.8019
  812MOL0     H 9620   9.103   7.077   4.275 -0.2529 -1.2590 -2.7603
  813MOL0     O 9621   6.820   9.373  10.566 -0.0440  0.0590 -0.2742
  813MOL0     C 9622   6.767   9.426  10.662 -0.4653 -0.6249  1.5236
  813MOL0     O 9623   6.817   9.528  10.737  0.4448  0.3131 -0.1333
  813MOL0     C 9624   6.938   9.577  10.703 -0.2409  0.1663 -0.0947
  813MOL0     C 9625   7.052   9.504  10.737 -0.6822  0.2061  0.5867
  813MOL0     C 9626   7.182   9.539  10.695  0.3156 -0.0694 -0.1130
  813MOL0     C 9627   7.205   9.666  10.632  0.0182  0.4539  0.3660
  813MOL0     O 9628   7.324   9.713  10.596 -0.1276 -0.3068 -0.2429
  813MOL0     C 9629   7.432   9.625  10.581  0.3214  0.0351 -0.0777
  813MOL0     C 9630   7.408   9.546  10.455  0.4360 -0.3179 -0.5129
  813MOL0     C 9631   7.383   9.614  10.322 -0.3063  0.2346 -1.1924
  813MOL0     C 9632   7.500   9.716  10.295  0.4215 -0.3070 -0.1835
  813MOL0     C 9633   7.488   9.794  10.158  0.2070 -0.5169 -0.3543
  813MOL0     C 9634   7.492   9.709  10.032  0.4820 -0.3825 -0.7698
  813MOL0     C 9635   7.463   9.788   9.912 -0.0432  0.2354  0.1578
  813MOL0     C 9636   7.443   9.703   9.786 -0.6828 -1.0834  0.1536
  813MOL0     N 9637   7.575   9.642   9.741  0.0998 -0.5880 -0.4419
  813MOL0     C 9638   7.662   9.695   9.651 -0.3383 -0.4013  0.1538
  813MOL0     C 9639   7.747   9.593   9.628 -0.1177 -0.9552 -0.0960
  813MOL0     C 9640   7.850   9.634   9.524 -0.2312  0.0103 -0.4223
  813MOL0     C 9641   7.987   9.625   9.603  0.1076 -0.2496  0.1804
  813MOL0     C 9642   8.119   9.649   9.516 -0.3774  1.4323  1.9000
  813MOL0     C 9643   8.136   9.557   9.394  0.5198  0.0466 -0.9822
  813MOL0     O 9644   8.123   9.428   9.443 -0.0278  0.2992  0.8045
  813MOL0     C 9645   8.238   9.355   9.474 -0.0692  1.0399 -0.3854
  813MOL0     C 9646   8.237   9.287   9.593  0.6333 -1.3116 -0.4504
  813MOL0     C 9647   8.330   9.201   9.643  0.3011  0.4321  0.1070
  813MOL0     C 9648   8.442   9.178   9.555  0.2529 -0.9006  0.2192
  813MOL0     C 9649   8.550   9.085   9.597  0.4470  0.1674 -0.6304
  813MOL0     O 9650   8.518   9.009   9.705  0.6224 -0.8461  0.0216
  813MOL0     C 9651   8.619   8.941   9.764  0.8641 -0.0999  0.0473
  813MOL0     C 9652   8.621   8.805   9.739  0.5753  0.4447  0.0575
  813MOL0     C 9653   8.717   8.726   9.799 -0.5683 -0.1867  0.1903
  813MOL0     C 9654   8.818   8.787   9.887  0.5829 -0.5165 -0.2663
  813MOL0     O 9655   8.926   8.724   9.950 -0.8032 -0.1181 -0.4183
  813MOL0     C 9656   8.930   8.581   9.937  0.2896  0.2021  0.5467
  813MOL0     C 9657   9.001   8.506  10.056 -0.5536  0.7895 -0.3810
  813MOL0     C 9658   9.148   8.565  10.074  0.1821 -0.0111  0.3445
  813MOL0     C 9659   9.216   8.501  10.194  0.2977 -0.1480  0.7123
  813MOL0     C 9660   9.345   8.568  10.226  0.2657  0.2079 -0.6362
  813MOL0     C 9661   9.465   8.521  10.141  0.0467  0.6250 -0.5398
  813MOL0     C 9662   9.607   8.566  10.186 -0.0176 -0.3740 -0.1094
  813MOL0     C 9663   9.636   8.718  10.167  0.1867  0.6875 -0.2889
  813MOL0    Cl 9664   9.789   8.779  10.254 -0.2226 -0.0724 -0.1946
  813MOL0     C 9665   8.798   8.924   9.915  0.1610  0.0945  0.8530
  813MOL0     C 9666   8.702   9.004   9.847 -0.1115  0.1475 -0.8090
  813MOL0     O 9667   8.660   9.086   9.544 -0.2000  0.3272 -0.1751
  813MOL0     C 9668   8.452   9.245   9.431 -0.1371  0.3042 -0.2575
  813MOL0     C 9669   8.348   9.338   9.398 -0.7008 -0.4412  0.0852
  813MOL0     N 9670   7.703   9.484   9.694 -0.0987  0.2735 -0.6824
  813MOL0     N 9671   7.606   9.514   9.774 -0.5492 -1.0308 -0.5890
  813MOL0     C 9672   7.094   9.744  10.614 -0.8253 -0.4619 -0.2181
  813MOL0     C 9673   6.965   9.696  10.639 -0.7610 -0.6932  0.2218
  813MOL0     C 9674   6.627   9.371  10.691 -0.8891  0.1426 -0.0062
  813MOL0     C 9675   6.553   9.450  10.783  1.1054  1.0824 -0.0681
  813MOL0     C 9676   6.418   9.409  10.818 -0.2053 -0.0577 -0.1167
  813MOL0     C 9677   6.359   9.298  10.766 -0.8192  0.0213 -0.2605
  813MOL0     O 9678   6.227   9.255  10.792 -0.1833  0.2864  0.4762
  813MOL0     C 9679   6.156   9.296  10.911  0.7656  0.6990 -0.3959
  813MOL0     C 9680   6.023   9.230  10.895 -0.4284  0.2341  0.0758
  813MOL0     C 9681   5.942   9.233  11.022  0.1132 -0.6411  0.4017
  813MOL0     C 9682   5.806   9.181  10.982  0.1873  0.0924  0.2089
  813MOL0     C 9683   5.733   9.197  11.114  1.1080  0.3994 -0.2457
  813MOL0     C 9684   5.678   9.205  11.222  0.1867 -0.2302  0.0169
  813MOL0     C 9685   6.434   9.233  10.672  0.5172  0.4424  0.3555
  813MOL0     C 9686   6.556   9.270  10.617 -0.4409 -1.1505 -1.4263
  813MOL0     C 9687   6.616   9.181  10.512 -0.7153  0.8020  0.5806
  813MOL0     H 9688   7.040   9.413  10.794 -2.3998  0.7557  1.1613
  813MOL0     H 9689   7.265   9.474  10.720  0.8417  1.4545  2.5774
  813MOL0     H 9690   7.518   9.691  10.564 -1.3497  1.4579 -3.9390
  813MOL0     H 9691   7.455   9.563  10.668  2.9560 -0.3106 -0.9228
  813MOL0     H 9692   7.317   9.491  10.483 -0.3265  1.6138  0.9970
  813MOL0     H 9693   7.499   9.486  10.448  0.2245 -0.4875 -2.1818
  813MOL0     H 9694   7.290   9.672  10.332  1.7376  3.4196  1.7256
  813MOL0     H 9695   7.364   9.549  10.236 -2.1152  2.0400 -2.2415
  813MOL0     H 9696   7.503   9.788  10.377 -0.9710 -1.9407  1.3733
  813MOL0     H 9697   7.595   9.661  10.291  0.9067  0.5073 -0.2231
  813MOL0     H 9698   7.391   9.844  10.169  0.3504  0.0555 -1.4634
  813MOL0     H 9699   7.565   9.871  10.144  0.0157 -0.7255 -3.0709
  813MOL0     H 9700   7.594   9.671  10.025  1.7753  2.1249  2.0199
  813MOL0     H 9701   7.419   9.629  10.050 -0.9010  1.3082  1.7851
  813MOL0     H 9702   7.551   9.851   9.892  2.4675 -2.7806  0.9565
  813MOL0     H 9703   7.376   9.855   9.920  0.3544  0.8181 -0.3260
  813MOL0     H 9704   7.368   9.624   9.804 -0.5322 -0.8536  1.9795
  813MOL0     H 9705   7.398   9.767   9.710 -1.5273 -3.6618 -1.6795
  813MOL0     H 9706   7.653   9.796   9.611 -0.5586 -0.4024  0.2009
  813MOL0     H 9707   7.852   9.572   9.434  2.7685  0.0360 -0.4906
  813MOL0     H 9708   7.837   9.734   9.481  2.8696  1.2660  1.2750
  813MOL0     H 9709   7.977   9.708   9.673 -2.3997  1.2978 -1.8262
  813MOL0     H 9710   7.997   9.532   9.659  0.4895 -1.9630 -2.5209
  813MOL0     H 9711   8.207   9.617   9.573  0.5832 -1.1323 -0.7676
  813MOL0     H 9712   8.145   9.749   9.482 -0.6349  0.3585 -1.8646
  813MOL0     H 9713   8.237   9.576   9.355  0.7846  0.8592  0.0575
  813MOL0     H 9714   8.065   9.584   9.316  0.2604 -0.1150 -0.8032
  813MOL0     H 9715   8.147   9.311   9.649  1.1764  2.6708 -0.9996
  813MOL0     H 9716   8.312   9.147   9.736 -2.6989 -0.6510 -1.0058
  813MOL0     H 9717   8.552   8.754   9.673  0.1440  0.0483  0.8031
  813MOL0     H 9718   8.713   8.620   9.774  1.0115 -0.1729 -0.2563
  813MOL0     H 9719   8.828   8.544   9.945 -1.0250  2.5918 -2.8906
  813MOL0     H 9720   8.963   8.549   9.838 -0.2041  1.4625 -0.0368
  813MOL0     H 9721   8.952   8.510  10.154  0.6279  0.3675  0.2398
  813MOL0     H 9722   9.009   8.399  10.035  0.3958  0.8060 -0.1184
  813MOL0     H 9723   9.205   8.555   9.981 -0.1658  1.1467 -0.0192
  813MOL0     H 9724   9.147   8.674  10.086  2.0618  0.4550 -2.6162
  813MOL0     H 9725   9.239   8.395  10.178 -0.3068 -0.4331  1.6164
  813MOL0     H 9726   9.146   8.521  10.276  1.4657 -1.4274  2.0710
  813MOL0     H 9727   9.371   8.537  10.328 -0.7483 -2.0224 -1.0049
  813MOL0     H 9728   9.332   8.677  10.223 -1.1365  0.0506 -0.8239
  813MOL0     H 9729   9.469   8.412  10.151  1.9032  0.8016  1.2187
  813MOL0     H 9730   9.444   8.542  10.036 -1.7452  3.0660  0.1991
  813MOL0     H 9731   9.687   8.510  10.137  0.8793 -0.3428  1.2726
  813MOL0     H 9732   9.612   8.552  10.294 -0.5930 -0.1656 -0.0520
  813MOL0     H 9733   9.653   8.738  10.061 -0.0939  0.6658 -0.3388
  813MOL0     H 9734   9.553   8.781  10.200 -1.2190 -1.3421  0.2553
  813MOL0     H 9735   8.872   8.966   9.983  2.3467  0.4788 -1.5857
  813MOL0     H 9736   8.695   9.111   9.861  1.9483  0.5039 -2.1054
  813MOL0     H 9737   8.549   9.242   9.382 -0.1077  0.4113 -0.2063
  813MOL0     H 9738   8.349   9.398   9.308  0.2950 -0.8876 -0.2175
  813MOL0     H 9739   7.119   9.847  10.590 -3.0515  0.6795  1.9450
  813MOL0     H 9740   6.887   9.761  10.602 -1.3697  0.2396  2.9326
  813MOL0     H 9741   6.602   9.535  10.829  0.6013  0.7345  1.1465
  813MOL0     H 9742   6.371   9.466  10.897 -0.1494 -0.2327  0.0442
  813MOL0     H 9743   6.159   9.404  10.924  1.3537  0.7794 -1.1383
  813MOL0     H 9744   6.213   9.244  10.989  1.1635  0.3295 -0.9328
  813MOL0     H 9745   6.042   9.125  10.872  1.5428 -0.2180  3.1650
  813MOL0     H 9746   5.963   9.277  10.817 -1.7756 -0.5307  0.6191
  813MOL0     H 9747   5.938   9.334  11.062 -1.2904 -0.1358 -0.9197
  813MOL0     H 9748   5.983   9.169  11.101  0.5946  0.1734  0.8203
  813MOL0     H 9749   5.767   9.237  10.897  1.8281 -1.0022 -1.3112
  813MOL0     H 9750   5.815   9.076  10.952  0.9676 -0.5507  2.4776
  813MOL0     H 9751   5.635   9.219  11.319 -1.0765  2.4661 -0.8500
  813MOL0     H 9752   6.386   9.145  10.629  3.1103 -0.3935 -1.0368
  813MOL0     H 9753   6.710   9.139  10.550 -0.1277  0.9260 -0.6987
  813MOL0     H 9754   6.549   9.097  10.489  1.6865 -1.2951  0.7746
  813MOL0     H 9755   6.630   9.242  10.423  0.7241  1.0062  0.9212
  814MOL0     O 9756   7.117   7.177   2.480  0.2031 -1.1243  1.0040
  814MOL0     C 9757   7.109   7.220   2.362 -0.0067  0.9836  0.3425
  814MOL0     O 9758   7.192   7.301   2.306 -0.2681  0.1094 -0.0588
  814MOL0     C 9759   7.299   7.345   2.380  0.1523  0.4795  0.3923
  814MOL0     C 9760   7.288   7.438   2.483  0.3868 -0.0870 -0.0098
  814MOL0     C 9761   7.401   7.486   2.547  0.0914 -0.0283 -0.7453
  814MOL0     C 9762   7.529   7.446   2.506  0.3091  0.0026  0.8577
  814MOL0     O 9763   7.636   7.485   2.589 -0.1728 -0.0854  0.2083
  814MOL0     C 9764   7.766   7.448   2.556  0.5860 -1.0152  0.3628
  814MOL0     C 9765   7.861   7.513   2.664  0.7115  0.0933 -0.4449
  814MOL0     C 9766   8.007   7.489   2.635  0.1667  1.1253  0.5412
  814MOL0     C 9767   8.096   7.537   2.743 -0.4341  0.0632 -0.4253
  814MOL0     C 9768   8.230   7.605   2.683  0.2042  0.6619 -0.1273
  814MOL0     C 9769   8.331   7.625   2.787 -0.7432  0.1877 -0.3465
  814MOL0     C 9770   8.451   7.697   2.724 -0.3043  0.5138 -0.7296
  814MOL0     C 9771   8.557   7.749   2.819  0.6393 -0.7057 -0.5801
  814MOL0     N 9772   8.607   7.645   2.910 -0.0465  0.4150  0.0168
  814MOL0     C 9773   8.559   7.623   3.037  0.2242 -0.3949 -0.4250
  814MOL0     C 9774   8.640   7.514   3.076 -0.0655 -0.3842  0.7161
  814MOL0     C 9775   8.622   7.429   3.192 -0.1436  1.0353 -0.0389
  814MOL0     C 9776   8.614   7.491   3.333  0.3356 -0.1990 -0.0330
  814MOL0     C 9777   8.728   7.583   3.371 -1.0306 -0.4952 -0.4704
  814MOL0     C 9778   8.861   7.515   3.386 -0.6177  0.5870  0.0670
  814MOL0     O 9779   8.955   7.603   3.450 -0.4954  0.6108  0.0052
  814MOL0     C 9780   9.079   7.548   3.460 -0.1284  0.0762 -0.0543
  814MOL0     C 9781   9.122   7.421   3.434 -0.1729  0.1863 -0.5250
  814MOL0     C 9782   9.257   7.384   3.442 -0.5512 -0.0503  0.2783
  814MOL0     C 9783   9.349   7.487   3.461 -0.3532  0.3112 -0.2030
  814MOL0     C 9784   9.491   7.463   3.441 -0.0820  0.7784  0.0143
  814MOL0     O 9785   9.568   7.567   3.457 -0.4378 -0.3942  0.5641
  814MOL0     C 9786   9.703   7.559   3.426  0.0252 -0.5683  0.0395
  814MOL0     C 9787   9.757   7.608   3.305 -0.1948  0.0020  0.6373
  814MOL0     C 9788   9.899   7.602   3.279 -0.2629 -0.0765  0.6204
  814MOL0     C 9789   9.987   7.567   3.377 -1.6424 -0.1005 -0.4047
  814MOL0     O 9790  10.128   7.545   3.377  0.5087 -0.7018  0.0796
  814MOL0     C 9791  10.195   7.613   3.278  0.1703 -0.3660  0.6428
  814MOL0     C 9792  10.343   7.619   3.326  0.0576  0.1864 -0.4575
  814MOL0     C 9793  10.424   7.679   3.208 -0.1371 -0.2997 -0.5763
  814MOL0     C 9794  10.575   7.710   3.242  0.7928 -0.2180  0.0872
  814MOL0     C 9795  10.663   7.703   3.119  0.2424 -0.3424 -0.4303
  814MOL0     C 9796  10.816   7.703   3.159 -0.3385 -0.1868  1.0453
  814MOL0     C 9797  10.898   7.712   3.035 -0.0411 -0.6657  0.1670
  814MOL0     C 9798  11.047   7.726   3.068  0.3966  0.3332 -0.9784
  814MOL0    Cl 9799  11.154   7.709   2.922  0.0837 -0.1339 -0.2804
  814MOL0     C 9800   9.931   7.517   3.502  0.1830 -0.6853 -0.1458
  814MOL0     C 9801   9.796   7.514   3.523 -0.3925  1.1632  0.2770
  814MOL0     O 9802   9.532   7.359   3.397 -0.4454  0.3643  0.8586
  814MOL0     C 9803   9.309   7.605   3.506  0.8346 -0.7530 -0.1334
  814MOL0     C 9804   9.172   7.641   3.505 -0.0627  0.4304  0.1435
  814MOL0     N 9805   8.731   7.485   2.976 -0.0515 -0.3235 -0.0384
  814MOL0     N 9806   8.708   7.560   2.875  0.8256 -0.2849  0.0712
  814MOL0     C 9807   7.540   7.360   2.398 -1.0277  0.3620 -0.0803
  814MOL0     C 9808   7.424   7.305   2.336 -0.7784 -0.7069 -0.5393
  814MOL0     C 9809   6.994   7.178   2.273 -0.2703  0.2948  0.4041
  814MOL0     C 9810   6.942   7.277   2.181  0.5531  0.5666  0.2708
  814MOL0     C 9811   6.827   7.257   2.097 -0.2461  0.4091  0.0729
  814MOL0     C 9812   6.760   7.134   2.106  0.2570  0.4149  0.9846
  814MOL0     O 9813   6.645   7.107   2.038 -0.1747 -0.2985  0.1728
  814MOL0     C 9814   6.607   7.184   1.919 -0.2980  0.3669  0.0018
  814MOL0     C 9815   6.458   7.158   1.883 -0.7380 -0.5295 -0.3604
  814MOL0     C 9816   6.416   7.012   1.898  1.1884  0.5525  0.2755
  814MOL0     C 9817   6.273   6.994   1.842  0.0059 -0.4721 -0.1066
  814MOL0     C 9818   6.202   6.874   1.895 -0.3546  0.4415 -0.7454
  814MOL0     C 9819   6.155   6.777   1.955  1.6929 -0.2550 -0.1157
  814MOL0     C 9820   6.811   7.032   2.184  0.5161 -0.5342  0.9528
  814MOL0     C 9821   6.920   7.055   2.273 -0.2435  0.2949 -0.4331
  814MOL0     C 9822   6.961   6.938   2.367  0.4459 -0.1436 -0.4917
  814MOL0     H 9823   7.192   7.476   2.516  1.1243  3.6604 -1.5992
  814MOL0     H 9824   7.390   7.550   2.634 -0.4710  1.5405 -1.9073
  814MOL0     H 9825   7.771   7.339   2.553  0.5079 -1.0243  0.5326
  814MOL0     H 9826   7.783   7.475   2.452  1.2795 -0.2638  0.6534
  814MOL0     H 9827   7.849   7.476   2.766 -0.8599 -4.7338 -2.1060
  814MOL0     H 9828   7.841   7.621   2.663  3.5416  0.6874 -1.3782
  814MOL0     H 9829   8.038   7.549   2.549  2.0821 -0.9623 -0.3527
  814MOL0     H 9830   8.022   7.383   2.611 -0.1415  1.4403 -1.2107
  814MOL0     H 9831   8.047   7.606   2.812 -0.5491 -0.0236 -0.4182
  814MOL0     H 9832   8.126   7.453   2.805  2.8748  1.4529  0.0181
  814MOL0     H 9833   8.274   7.537   2.609  2.9632  0.2085  1.7627
  814MOL0     H 9834   8.194   7.694   2.629 -1.0391 -0.8006 -1.8283
  814MOL0     H 9835   8.288   7.682   2.870 -1.0081  0.1706 -0.4723
  814MOL0     H 9836   8.367   7.534   2.835  0.9740  1.1943  0.3999
  814MOL0     H 9837   8.411   7.784   2.672 -1.0622  0.9340  0.5135
  814MOL0     H 9838   8.503   7.634   2.651 -1.5171  1.3036 -2.3463
  814MOL0     H 9839   8.644   7.784   2.762  0.3920 -0.0115 -0.5442
  814MOL0     H 9840   8.510   7.827   2.879  1.7766 -0.8460  0.5495
  814MOL0     H 9841   8.479   7.663   3.098 -0.9122 -4.4614  1.0964
  814MOL0     H 9842   8.532   7.368   3.183  1.1902 -0.9187 -1.0769
  814MOL0     H 9843   8.707   7.359   3.192 -0.4975  0.5963 -0.5250
  814MOL0     H 9844   8.520   7.548   3.335  1.0865  1.0378  1.4602
  814MOL0     H 9845   8.605   7.408   3.403  3.3751 -2.6426 -2.2654
  814MOL0     H 9846   8.705   7.612   3.474  1.1909  0.8685 -0.2992
  814MOL0     H 9847   8.725   7.670   3.305 -0.2359 -1.2153 -1.4893
  814MOL0     H 9848   8.890   7.485   3.285 -2.1328  2.5402 -1.0130
  814MOL0     H 9849   8.838   7.427   3.447 -1.3814 -0.6161 -1.8672
  814MOL0     H 9850   9.050   7.344   3.407  0.2378 -0.8789  1.2550
  814MOL0     H 9851   9.291   7.282   3.425  1.9266  0.2469  2.6264
  814MOL0     H 9852   9.682   7.632   3.230  0.2779 -0.6122 -0.0419
  814MOL0     H 9853   9.944   7.624   3.183 -0.5399 -0.8793  0.3034
  814MOL0     H 9854  10.191   7.556   3.185  3.0085 -4.9943  2.9691
  814MOL0     H 9855  10.167   7.718   3.270  1.9274 -0.0401 -3.3172
  814MOL0     H 9856  10.353   7.679   3.417  1.3041 -2.0114  0.9584
  814MOL0     H 9857  10.380   7.518   3.349 -1.2015 -0.3740 -0.7893
  814MOL0     H 9858  10.425   7.606   3.126 -0.1545 -1.1455  0.1657
  814MOL0     H 9859  10.396   7.777   3.168  2.9421  1.1002  0.3791
  814MOL0     H 9860  10.612   7.634   3.312  4.1256  1.3891  0.2566
  814MOL0     H 9861  10.591   7.803   3.297  0.2090 -1.1891  2.0262
  814MOL0     H 9862  10.645   7.799   3.070  0.1463  1.6454  3.1181
  814MOL0     H 9863  10.642   7.611   3.063  1.8862 -0.4140 -0.9657
  814MOL0     H 9864  10.838   7.793   3.217  0.8695  0.7042 -0.7043
  814MOL0     H 9865  10.838   7.615   3.220 -1.2054 -0.6509  0.7072
  814MOL0     H 9866  10.865   7.800   2.980 -0.5090 -0.7514  0.3034
  814MOL0     H 9867  10.874   7.632   2.964  0.2690  2.1542 -3.3232
  814MOL0     H 9868  11.065   7.817   3.126  1.6016 -1.3867  1.5436
  814MOL0     H 9869  11.072   7.650   3.142 -1.2416  1.4618  0.8291
  814MOL0     H 9870   9.997   7.474   3.576 -0.7833 -0.0794  1.0941
  814MOL0     H 9871   9.750   7.486   3.617 -0.2122 -3.2285 -0.7231
  814MOL0     H 9872   9.382   7.683   3.528  0.5629  0.4662 -3.0684
  814MOL0     H 9873   9.145   7.742   3.536 -3.4730  0.1350 -1.3838
  814MOL0     H 9874   7.638   7.346   2.354 -0.5160  1.3515  0.6928
  814MOL0     H 9875   7.429   7.236   2.253  0.1745  0.7837 -1.7847
  814MOL0     H 9876   6.985   7.377   2.174 -0.5350  1.0557  0.3629
  814MOL0     H 9877   6.799   7.334   2.025 -2.9265 -0.5023  0.0349
  814MOL0     H 9878   6.669   7.156   1.833 -0.1647 -1.8315  0.7540
  814MOL0     H 9879   6.637   7.289   1.926  0.5831  0.0309  1.5134
  814MOL0     H 9880   6.443   7.174   1.776  0.9435  1.9897 -0.3155
  814MOL0     H 9881   6.388   7.223   1.938 -1.2128 -1.8033  0.5867
  814MOL0     H 9882   6.407   6.974   2.000 -4.0668  0.0779 -0.0709
  814MOL0     H 9883   6.479   6.939   1.846 -1.9671 -0.6353 -2.2552
  814MOL0     H 9884   6.224   7.088   1.868  2.2619 -0.0083  3.0305
  814MOL0     H 9885   6.275   6.993   1.733  2.0440  1.0766 -0.1341
  814MOL0     H 9886   6.097   6.699   1.999  1.0701  0.7347  0.8759
  814MOL0     H 9887   6.753   6.943   2.205  0.9228 -0.3438  3.1509
  814MOL0     H 9888   7.069   6.927   2.377  0.2361 -0.3078  2.5153
  814MOL0     H 9889   6.906   6.951   2.460  1.9993  0.2452  0.4061
  814MOL0     H 9890   6.924   6.840   2.332 -1.5012  0.7042 -0.9554
  815MOL0     O 9891   9.188   9.458   8.713  0.8166  0.8893  0.5411
  815MOL0     C 9892   9.108   9.510   8.630  0.1228 -0.6752  1.2023
  815MOL0     O 9893   9.143   9.617   8.553 -0.0578 -0.6447 -0.1421
  815MOL0     C 9894   9.263   9.675   8.591 -0.4902  0.4511 -0.5357
  815MOL0     C 9895   9.272   9.772   8.692 -0.8658 -0.2916 -0.1152
  815MOL0     C 9896   9.384   9.852   8.703  0.2025  0.4887 -0.5103
  815MOL0     C 9897   9.506   9.827   8.630 -0.5003  0.7535 -0.2764
  815MOL0     O 9898   9.619   9.901   8.656  0.2224  0.5811  0.1670
  815MOL0     C 9899   9.747   9.866   8.594 -0.3887  0.2361  0.8037
  815MOL0     C 9900   9.759   9.891   8.440  0.3493 -0.4800  0.0596
  815MOL0     C 9901   9.905   9.870   8.395 -1.0070  0.1006 -0.1976
  815MOL0     C 9902   9.916   9.927   8.251 -0.5614  0.2098 -1.1370
  815MOL0     C 9903  10.041   9.886   8.183  0.2207 -0.5194  0.1128
  815MOL0     C 9904  10.031   9.737   8.143  0.3051  0.1212 -0.3407
  815MOL0     C 9905  10.162   9.690   8.073  0.7764  0.2944  0.1516
  815MOL0     C 9906  10.162   9.754   7.936 -0.5456 -0.3079  0.1215
  815MOL0     N 9907  10.265   9.693   7.849  0.0619 -0.5078 -0.6834
  815MOL0     C 9908  10.231   9.660   7.725  0.6001  0.2139  0.8115
  815MOL0     C 9909  10.340   9.594   7.685 -0.1711  0.2532  0.1152
  815MOL0     C 9910  10.360   9.545   7.546 -0.4229  0.4156 -0.3254
  815MOL0     C 9911  10.273   9.425   7.513 -0.2134 -0.2813  0.2241
  815MOL0     C 9912  10.254   9.311   7.610 -0.3465  0.3731 -0.1754
  815MOL0     C 9913  10.356   9.201   7.568 -0.4442 -0.2290 -0.3340
  815MOL0     O 9914  10.486   9.257   7.568  0.1837  0.6306  0.1277
  815MOL0     C 9915  10.597   9.176   7.549 -0.3966  0.0937 -0.6919
  815MOL0     C 9916  10.589   9.038   7.528 -0.1406 -0.0907  0.4510
  815MOL0     C 9917  10.703   8.960   7.501  0.4029  0.3633 -0.1022
  815MOL0     C 9918  10.833   9.016   7.513 -0.0540 -0.2384  0.3883
  815MOL0     C 9919  10.956   8.932   7.499 -0.4542 -0.8298 -0.9299
  815MOL0     O 9920  11.067   9.000   7.507 -0.7827  0.1240  0.3551
  815MOL0     C 9921  11.194   8.934   7.493  0.5362 -0.3725  0.5346
  815MOL0     C 9922  11.221   8.817   7.424 -0.2543 -0.2115 -0.5342
  815MOL0     C 9923  11.347   8.763   7.419 -0.1652  0.7200 -0.1223
  815MOL0     C 9924  11.457   8.811   7.489 -0.2982 -0.5467 -0.8538
  815MOL0     O 9925  11.584   8.749   7.494  0.6014 -0.3493  0.0192
  815MOL0     C 9926  11.600   8.616   7.443 -0.5342 -0.4251 -0.6927
  815MOL0     C 9927  11.628   8.622   7.293  0.3298 -0.3244 -0.6288
  815MOL0     C 9928  11.779   8.626   7.266 -0.0624 -0.1006 -0.4913
  815MOL0     C 9929  11.809   8.616   7.116 -0.1242  0.2392  0.0925
  815MOL0     C 9930  11.964   8.624   7.082  0.1937  0.8698  0.0895
  815MOL0     C 9931  11.998   8.632   6.934  1.3620 -0.1532 -0.6285
  815MOL0     C 9932  12.146   8.610   6.916 -0.1317 -0.2397 -0.1243
  815MOL0     C 9933  12.216   8.716   6.844 -0.0976 -0.4917  0.1146
  815MOL0    Cl 9934  12.393   8.681   6.868 -0.3533  0.3228  0.0453
  815MOL0     C 9935  11.430   8.927   7.568 -0.5595 -0.2407  0.1266
  815MOL0     C 9936  11.307   8.986   7.556 -0.1440 -0.3405  0.4519
  815MOL0     O 9937  10.943   8.810   7.480  0.4817 -0.5613  0.1488
  815MOL0     C 9938  10.842   9.158   7.514 -0.0764  0.2637 -1.3529
  815MOL0     C 9939  10.725   9.235   7.539  0.6515  0.1027 -0.0638
  815MOL0     N 9940  10.431   9.586   7.786 -0.1123  0.1063  0.5010
  815MOL0     N 9941  10.383   9.641   7.888  0.8317  0.5392 -0.4188
  815MOL0     C 9942   9.507   9.705   8.551  0.2046 -0.0779  0.1091
  815MOL0     C 9943   9.385   9.633   8.526  0.3131  0.1443 -0.5688
  815MOL0     C 9944   8.969   9.463   8.620  0.0270 -0.6362 -0.4099
  815MOL0     C 9945   8.916   9.466   8.488  0.1495 -0.2511  0.6944
  815MOL0     C 9946   8.784   9.428   8.462  0.5769 -0.2586  0.0182
  815MOL0     C 9947   8.702   9.370   8.569  0.5620 -0.0532  0.4118
  815MOL0     O 9948   8.592   9.309   8.523  0.7119  0.2690 -0.6095
  815MOL0     C 9949   8.502   9.238   8.609 -0.4292  0.1618 -0.0034
  815MOL0     C 9950   8.397   9.327   8.674 -0.6079  0.2899 -0.1299
  815MOL0     C 9951   8.268   9.239   8.679  0.1921  0.0575  0.1734
  815MOL0     C 9952   8.156   9.302   8.766 -0.3677  0.5073  0.8142
  815MOL0     C 9953   8.177   9.263   8.905  0.1271  0.4226 -0.2525
  815MOL0     C 9954   8.204   9.213   9.014 -0.4576  0.3740  0.0833
  815MOL0     C 9955   8.759   9.353   8.697  0.2176  0.1381  0.1846
  815MOL0     C 9956   8.889   9.410   8.720  0.1540 -0.2310 -0.1783
  815MOL0     C 9957   8.931   9.401   8.863 -0.2125  0.0339  0.3204
  815MOL0     H 9958   9.184   9.793   8.751 -1.0804  2.0705 -1.1799
  815MOL0     H 9959   9.386   9.929   8.779  1.3693  0.9934 -1.0380
  815MOL0     H 9960   9.821   9.932   8.640 -0.3579 -0.0265  1.1403
  815MOL0     H 9961   9.776   9.763   8.618 -1.3450  0.0791  1.3569
  815MOL0     H 9962   9.731   9.995   8.421  0.5108 -0.4728 -0.1507
  815MOL0     H 9963   9.692   9.829   8.380 -1.4705 -0.9474  2.4534
  815MOL0     H 9964   9.940   9.766   8.394 -0.1629  0.3532 -2.2589
  815MOL0     H 9965   9.971   9.927   8.461 -1.3508 -1.2689  1.3991
  815MOL0     H 9966   9.828   9.893   8.196  0.3755 -0.2974 -2.3598
  815MOL0     H 9967   9.914  10.036   8.254 -1.7603  0.1951  0.6364
  815MOL0     H 9968  10.030   9.946   8.092 -1.8775  1.5269  1.5866
  815MOL0     H 9969  10.128   9.911   8.244  0.4894  0.7891 -0.7509
  815MOL0     H 9970  10.016   9.668   8.226 -0.1285  2.6740  1.8128
  815MOL0     H 9971   9.949   9.718   8.074  2.5188  1.1109 -3.5007
  815MOL0     H 9972  10.146   9.582   8.065  0.5910  0.2623  0.8695
  815MOL0     H 9973  10.250   9.721   8.131  1.3862  2.5328 -1.8059
  815MOL0     H 9974  10.063   9.743   7.891  0.0343 -3.1140 -0.6518
  815MOL0     H 9975  10.184   9.861   7.941 -0.7768 -0.2269 -0.5128
  815MOL0     H 9976  10.143   9.682   7.666  0.6372 -0.0065  0.6741
  815MOL0     H 9977  10.329   9.621   7.473  0.8955  0.1076 -1.2412
  815MOL0     H 9978  10.466   9.522   7.534 -0.4902  0.4237 -0.9338
  815MOL0     H 9979  10.170   9.454   7.492  0.4513  1.1730 -1.2364
  815MOL0     H 9980  10.299   9.390   7.413 -0.7302 -0.1111  0.0310
  815MOL0     H 9981  10.156   9.269   7.585 -0.2647  0.9932 -1.6320
  815MOL0     H 9982  10.260   9.343   7.714  0.4010  1.6943 -0.5978
  815MOL0     H 9983  10.329   9.166   7.468  3.5975 -1.8360 -1.0587
  815MOL0     H 9984  10.347   9.113   7.633  2.3981 -2.5720 -2.8251
  815MOL0     H 9985  10.496   8.981   7.528  1.2123 -2.4389  0.1344
  815MOL0     H 9986  10.697   8.853   7.484 -0.6288  0.3437  0.3198
  815MOL0     H 9987  11.146   8.764   7.366  0.1330 -0.3215 -0.9441
  815MOL0     H 9988  11.350   8.672   7.360  0.4314  2.5887 -3.2485
  815MOL0     H 9989  11.677   8.558   7.495 -0.7336  1.4536  1.8825
  815MOL0     H 9990  11.509   8.559   7.465 -0.2142  0.0030  2.1063
  815MOL0     H 9991  11.577   8.537   7.248  0.1078 -0.2229 -0.5691
  815MOL0     H 9992  11.574   8.709   7.255  0.9281  0.9254  1.2111
  815MOL0     H 9993  11.820   8.724   7.290 -0.0470 -0.0767 -0.6153
  815MOL0     H 9994  11.830   8.551   7.327  1.6013  2.6674  1.7698
  815MOL0     H 9995  11.763   8.702   7.066  0.5427  0.4857 -0.1105
  815MOL0     H 9996  11.769   8.523   7.074  1.4779 -0.9617  1.1032
  815MOL0     H 9997  12.011   8.536   7.125  4.0919  0.4385 -4.2729
  815MOL0     H 9998  11.994   8.720   7.125  1.4547  1.2260 -1.5122
  815MOL0     H 9999  11.955   8.548   6.880  1.4993 -0.9660  0.4820
  815MOL0     H10000  11.960   8.729   6.899 -2.3253 -0.2927  2.3500
  815MOL0     H10001  12.170   8.514   6.868  0.9134 -0.6671  1.1759
  815MOL0     H10002  12.196   8.606   7.014  1.3200 -0.6249 -0.8536
  815MOL0     H10003  12.176   8.710   6.743 -4.7091 -0.2688  1.7145
  815MOL0     H10004  12.199   8.820   6.875  2.8363  0.1040  0.0584
  815MOL0     H10005  11.507   8.978   7.626 -0.8322  0.0973  0.1966
  815MOL0     H10006  11.303   9.082   7.608  1.6695  0.4401 -0.7331
  815MOL0     H10007  10.940   9.202   7.498  1.3876 -1.2327  2.4319
  815MOL0     H10008  10.738   9.340   7.561  0.2617  0.1240  0.0696
  815MOL0     H10009   9.596   9.668   8.501 -1.4111 -0.6648 -2.5700
  815MOL0     H10010   9.391   9.555   8.451  4.9562 -0.4138  0.0777
  815MOL0     H10011   8.969   9.508   8.403 -1.8595 -3.1147 -2.2330
  815MOL0     H10012   8.746   9.424   8.361 -1.1405 -0.0435  0.6119
  815MOL0     H10013   8.560   9.176   8.677 -2.8088 -1.8693  0.3090
  815MOL0     H10014   8.453   9.167   8.542 -0.6293 -0.5882  0.9250
  815MOL0     H10015   8.377   9.406   8.601  2.4179 -1.8508 -3.6630
  815MOL0     H10016   8.426   9.381   8.764 -0.6177  0.5900 -0.3021
  815MOL0     H10017   8.291   9.140   8.718  3.5693 -0.0091 -1.6343
  815MOL0     H10018   8.230   9.231   8.577  0.1320  2.5152 -0.0566
  815MOL0     H10019   8.158   9.411   8.758  1.6233  0.4778  0.2256
  815MOL0     H10020   8.063   9.258   8.729  0.2132 -1.4194  1.5119
  815MOL0     H10021   8.228   9.185   9.114  2.2215 -1.0474 -0.8604
  815MOL0     H10022   8.702   9.317   8.782  2.8931  0.8774  2.4163
  815MOL0     H10023   8.840   9.392   8.923 -1.9048  1.5273 -1.8569
  815MOL0     H10024   8.997   9.314   8.877 -0.4308 -0.2960 -0.5931
  815MOL0     H10025   8.975   9.496   8.895 -0.7068 -0.3614  2.3222
  816MOL0     O10026   9.849   1.756  10.826 -0.5137 -0.0499 -0.5196
  816MOL0     C10027   9.783   1.756  10.936 -0.5225  0.1790  1.2405
  816MOL0     O10028   9.837   1.743  11.060 -1.0446  0.3575  0.3606
  816MOL0     C10029   9.976   1.748  11.070 -0.4485 -0.1019  0.1919
  816MOL0     C10030  10.055   1.628  11.079  0.6810 -0.3379  0.4420
  816MOL0     C10031  10.191   1.640  11.066 -0.0285  0.3097 -0.3985
  816MOL0     C10032  10.257   1.761  11.059  0.1197 -0.9092  0.4820
  816MOL0     O10033  10.392   1.761  11.042 -0.7651 -0.2778 -0.4770
  816MOL0     C10034  10.459   1.889  11.030 -0.6435 -0.9987 -0.1385
  816MOL0     C10035  10.589   1.873  11.105  0.0451 -0.1598 -0.6027
  816MOL0     C10036  10.681   1.989  11.072 -0.3123 -0.2914  0.6197
  816MOL0     C10037  10.799   2.013  11.177  0.5553  0.7416  0.7901
  816MOL0     C10038  10.883   2.136  11.148 -0.3120  0.7803  0.1112
  816MOL0     C10039  10.992   2.133  11.253 -0.4173  0.1175  0.1730
  816MOL0     C10040  11.092   2.238  11.213  0.6537 -0.1028 -0.1134
  816MOL0     C10041  11.191   2.257  11.328 -0.0369 -0.0408 -1.0966
  816MOL0     N10042  11.327   2.315  11.301  0.3014 -0.1754 -0.2204
  816MOL0     C10043  11.428   2.253  11.228  0.1631 -0.0180 -0.7669
  816MOL0     C10044  11.520   2.351  11.222 -0.4725  0.8684  0.0514
  816MOL0     C10045  11.654   2.328  11.160 -0.7565  0.7196  0.1321
  816MOL0     C10046  11.745   2.229  11.234  0.0118  0.0032 -0.4917
  816MOL0     C10047  11.770   2.259  11.386  0.5675 -0.8496 -0.3591
  816MOL0     C10048  11.802   2.402  11.415  0.4188 -0.0367 -0.3689
  816MOL0     O10049  11.905   2.449  11.332 -0.7578 -0.4242 -0.7701
  816MOL0     C10050  12.030   2.472  11.394 -0.1763 -0.5568  0.2518
  816MOL0     C10051  12.135   2.383  11.365  0.3021  1.1327 -0.1990
  816MOL0     C10052  12.265   2.421  11.404 -0.2598  0.3878 -0.1816
  816MOL0     C10053  12.287   2.539  11.467 -0.0555 -0.1794  0.1195
  816MOL0     C10054  12.415   2.573  11.517 -0.3890  0.1721  0.0109
  816MOL0     O10055  12.502   2.473  11.527 -0.2367 -0.3997 -0.1114
  816MOL0     C10056  12.636   2.492  11.550  0.2831 -0.6359 -0.5161
  816MOL0     C10057  12.682   2.392  11.636  0.6944  0.5929  0.4412
  816MOL0     C10058  12.818   2.382  11.664 -0.2588 -0.0892 -0.1187
  816MOL0     C10059  12.909   2.473  11.610 -0.3362  0.0445 -0.4184
  816MOL0     O10060  13.046   2.461  11.636  0.5101 -0.7037 -0.3940
  816MOL0     C10061  13.137   2.551  11.575  0.4767 -0.4498 -0.0698
  816MOL0     C10062  13.262   2.566  11.662 -0.7155  0.5472  0.6030
  816MOL0     C10063  13.378   2.622  11.577 -0.0933  0.3495 -0.0363
  816MOL0     C10064  13.506   2.636  11.659  0.2804  0.4052 -0.6474
  816MOL0     C10065  13.613   2.701  11.578  0.0180 -0.4750  0.2516
  816MOL0     C10066  13.756   2.686  11.634 -0.0400 -0.0560 -0.6158
  816MOL0     C10067  13.844   2.699  11.512 -0.4056 -0.8206 -0.6658
  816MOL0     C10068  13.971   2.758  11.555  0.3827 -0.2064 -0.2386
  816MOL0    Cl10069  14.033   2.648  11.685  0.2559  0.0564 -0.1914
  816MOL0     C10070  12.849   2.583  11.542 -0.1233 -0.4555  0.0312
  816MOL0     C10071  12.717   2.596  11.501  0.1017 -0.3181 -1.1092
  816MOL0     O10072  12.453   2.689  11.539 -0.1278  0.3332 -0.8815
  816MOL0     C10073  12.188   2.630  11.481  0.9995 -0.3232  0.1249
  816MOL0     C10074  12.062   2.596  11.446  0.8444  0.1089 -0.0970
  816MOL0     N10075  11.483   2.463  11.297 -0.1159  0.1075 -0.0227
  816MOL0     N10076  11.371   2.442  11.347  0.3522 -0.6883 -0.2258
  816MOL0     C10077  10.177   1.879  11.057  0.7311 -0.4812 -0.2120
  816MOL0     C10078  10.040   1.868  11.069  1.1299 -0.2254 -0.8911
  816MOL0     C10079   9.643   1.749  10.912  0.5330  0.0380  0.0697
  816MOL0     C10080   9.565   1.714  11.025 -0.2372  0.5796  0.6643
  816MOL0     C10081   9.426   1.722  11.030 -0.2103  0.3454 -0.1124
  816MOL0     C10082   9.354   1.750  10.909  0.4034  0.6920  0.3925
  816MOL0     O10083   9.214   1.769  10.913 -0.6477  0.3103 -0.6326
  816MOL0     C10084   9.135   1.708  10.809  0.0843  0.4925 -0.3547
  816MOL0     C10085   9.086   1.572  10.855  0.0700  0.9215  0.4556
  816MOL0     C10086   8.978   1.597  10.965  0.1372 -0.3594 -0.4308
  816MOL0     C10087   8.890   1.472  10.992  0.6203  0.0037  0.2738
  816MOL0     C10088   8.828   1.409  10.871 -0.1274 -0.2508  0.0845
  816MOL0     C10089   8.773   1.348  10.787  0.1277  0.0658 -0.8563
  816MOL0     C10090   9.430   1.776  10.795 -0.3163 -0.5434  0.8069
  816MOL0     C10091   9.566   1.781  10.793 -0.2729  0.0624 -0.1624
  816MOL0     C10092   9.631   1.804  10.659  0.1113 -0.3399 -0.3816
  816MOL0     H10093  10.000   1.535  11.089  1.1323 -0.8809 -1.5798
  816MOL0     H10094  10.252   1.552  11.050  0.2705  0.4617 -0.1079
  816MOL0     H10095  10.480   1.921  10.928 -1.5777  0.6052  0.1468
  816MOL0     H10096  10.408   1.974  11.075  2.5243  0.2543  1.3517
  816MOL0     H10097  10.629   1.776  11.075 -1.9002 -1.2743  0.2184
  816MOL0     H10098  10.581   1.874  11.214 -1.4343  0.1706 -0.6881
  816MOL0     H10099  10.620   2.080  11.066 -0.8857 -0.7543 -1.3588
  816MOL0     H10100  10.723   1.980  10.972 -1.6068 -2.4855  0.2127
  816MOL0     H10101  10.769   2.004  11.282  0.3616  0.2325  0.6926
  816MOL0     H10102  10.865   1.926  11.163 -0.0353  0.3894  0.1381
  816MOL0     H10103  10.917   2.134  11.044 -3.2179  0.5718 -0.9212
  816MOL0     H10104  10.819   2.223  11.160  1.6653  2.3354 -0.0820
  816MOL0     H10105  10.941   2.145  11.349 -2.4120 -2.7054 -0.4169
  816MOL0     H10106  11.040   2.035  11.258 -0.1701  0.2796  1.2079
  816MOL0     H10107  11.038   2.333  11.199 -1.1901 -0.5419  3.1262
  816MOL0     H10108  11.147   2.207  11.124  2.8789 -1.9802  1.8091
  816MOL0     H10109  11.130   2.312  11.401 -0.1205 -1.7438  0.1708
  816MOL0     H10110  11.213   2.163  11.379  0.9039  0.6690 -0.1527
  816MOL0     H10111  11.417   2.150  11.195  1.3710 -0.7250  0.9013
  816MOL0     H10112  11.633   2.273  11.067  2.6272 -1.7302  0.6477
  816MOL0     H10113  11.701   2.427  11.153  1.0987 -0.0734  0.7833
  816MOL0     H10114  11.701   2.129  11.228  0.4646 -0.3286  1.3068
  816MOL0     H10115  11.843   2.219  11.188 -0.4922 -1.1405 -1.3861
  816MOL0     H10116  11.853   2.193  11.417 -1.2087 -3.1389 -0.1884
  816MOL0     H10117  11.681   2.227  11.441  1.1054 -1.9628 -0.0981
  816MOL0     H10118  11.836   2.406  11.519  3.5301 -4.7462 -0.9088
  816MOL0     H10119  11.707   2.455  11.402  1.6462  2.1426 -0.8968
  816MOL0     H10120  12.108   2.297  11.305 -2.3094  1.0144  0.9947
  816MOL0     H10121  12.349   2.355  11.383 -1.8837 -1.9374  0.2901
  816MOL0     H10122  12.620   2.308  11.667  0.9187 -1.4416 -3.8276
  816MOL0     H10123  12.855   2.295  11.718 -2.5010 -1.4003 -0.5619
  816MOL0     H10124  13.167   2.505  11.480 -0.2627 -2.5706  0.6738
  816MOL0     H10125  13.108   2.655  11.558 -0.9915 -0.6435  1.0707
  816MOL0     H10126  13.236   2.641  11.738 -2.6077  0.4951  0.0792
  816MOL0     H10127  13.293   2.469  11.699  2.2461  0.9305 -0.6156
  816MOL0     H10128  13.387   2.545  11.500 -0.0726  1.8040 -1.5414
  816MOL0     H10129  13.340   2.716  11.537 -1.6791 -0.7484 -1.2724
  816MOL0     H10130  13.540   2.536  11.689 -0.8830 -0.5101 -2.2226
  816MOL0     H10131  13.488   2.683  11.756  2.4626 -1.1726  0.6190
  816MOL0     H10132  13.585   2.804  11.554  2.0237 -0.1062 -0.7235
  816MOL0     H10133  13.621   2.655  11.478  1.0273  2.2191 -1.0103
  816MOL0     H10134  13.787   2.762  11.706 -0.0052 -0.2096 -0.4683
  816MOL0     H10135  13.776   2.588  11.679  1.5871  0.3208 -0.4735
  816MOL0     H10136  13.800   2.758  11.431  1.7562  0.8567 -0.7071
  816MOL0     H10137  13.872   2.601  11.472 -2.1013 -1.0596 -1.3470
  816MOL0     H10138  14.042   2.748  11.473  2.2250  1.2094  1.0917
  816MOL0     H10139  13.962   2.863  11.583  0.0923 -0.1950 -0.3726
  816MOL0     H10140  12.913   2.664  11.508 -1.0398  0.4239  0.3172
  816MOL0     H10141  12.670   2.676  11.444 -2.0673 -3.0646 -3.5138
  816MOL0     H10142  12.201   2.729  11.523 -4.0308  1.3764 -1.5049
  816MOL0     H10143  11.984   2.670  11.458 -0.7943 -1.3024 -1.5268
  816MOL0     H10144  10.214   1.980  11.040 -2.1009  0.6772 -0.0049
  816MOL0     H10145   9.982   1.960  11.064  0.9496 -0.3566 -1.2866
  816MOL0     H10146   9.619   1.683  11.113 -2.1748 -0.2479  1.6270
  816MOL0     H10147   9.373   1.708  11.124  0.0370 -0.7775 -0.1220
  816MOL0     H10148   9.192   1.690  10.718  0.0238 -1.1415 -0.1051
  816MOL0     H10149   9.053   1.772  10.776 -0.4275  0.5911  1.0381
  816MOL0     H10150   9.173   1.514  10.888  3.3718  4.8229 -0.4935
  816MOL0     H10151   9.061   1.511  10.768  1.2772 -0.1421  0.8169
  816MOL0     H10152   8.916   1.684  10.941  0.4505  0.3118  1.0433
  816MOL0     H10153   9.029   1.626  11.058  0.2137 -1.0198 -0.2646
  816MOL0     H10154   8.942   1.393  11.046 -0.0331 -0.4812  0.2127
  816MOL0     H10155   8.817   1.512  11.063 -0.2226 -0.0003 -0.5545
  816MOL0     H10156   8.728   1.308  10.698 -0.9970  2.4756 -1.4665
  816MOL0     H10157   9.380   1.807  10.704  0.8094  0.8707  0.6509
  816MOL0     H10158   9.696   1.722  10.626  1.4342  0.0893  1.0391
  816MOL0     H10159   9.554   1.820  10.584 -2.6661  1.0180  2.5578
  816MOL0     H10160   9.707   1.881  10.675  1.4849 -1.4171 -1.3952
  817MOL0     O10161   5.281   1.313   5.041 -0.2557  0.0033  1.2620
  817MOL0     C10162   5.211   1.253   4.959  0.5022  0.6421 -0.3811
  817MOL0     O10163   5.259   1.177   4.846 -0.0887  0.2794 -0.4939
  817MOL0     C10164   5.394   1.166   4.836 -0.9028  0.3683  0.1470
  817MOL0     C10165   5.475   1.246   4.757 -0.3713 -0.5565 -0.1068
  817MOL0     C10166   5.615   1.236   4.765  0.7139 -0.2824 -0.6783
  817MOL0     C10167   5.672   1.136   4.849 -0.0018 -0.0814  0.4510
  817MOL0     O10168   5.814   1.113   4.868 -0.0915  0.1951 -0.0282
  817MOL0     C10169   5.895   1.171   4.768 -0.4701 -0.4218  0.4179
  817MOL0     C10170   6.025   1.100   4.765  0.5966  0.3024  0.0352
  817MOL0     C10171   6.124   1.175   4.673  0.3673  0.5096 -0.6165
  817MOL0     C10172   6.258   1.116   4.709  0.2913  0.3692 -0.5825
  817MOL0     C10173   6.380   1.177   4.640  0.2792  0.4607  0.1526
  817MOL0     C10174   6.499   1.083   4.651 -0.1100  0.2628  0.0179
  817MOL0     C10175   6.621   1.143   4.604  0.5838  0.3434 -0.5251
  817MOL0     C10176   6.732   1.041   4.617 -0.4653 -0.3988  0.6675
  817MOL0     N10177   6.861   1.106   4.598 -0.2785 -0.3863  0.5167
  817MOL0     C10178   6.957   1.155   4.681 -0.0659  0.0432 -0.7342
  817MOL0     C10179   7.058   1.204   4.603 -0.8513  0.3900  0.4968
  817MOL0     C10180   7.193   1.250   4.661  0.1776  0.0728  0.8352
  817MOL0     C10181   7.280   1.129   4.685  0.1064  0.6752 -0.1020
  817MOL0     C10182   7.425   1.161   4.719  0.7998 -0.4174  0.8128
  817MOL0     C10183   7.439   1.236   4.857 -0.2631  0.6481 -0.3457
  817MOL0     O10184   7.539   1.164   4.931  0.0574 -0.1456 -0.5946
  817MOL0     C10185   7.671   1.149   4.899  0.1353  0.9392 -0.0385
  817MOL0     C10186   7.744   1.054   4.967 -0.6007 -0.2254 -0.4757
  817MOL0     C10187   7.871   1.026   4.921  0.1492  0.5325  0.0581
  817MOL0     C10188   7.931   1.090   4.804  1.4334  0.1602 -0.0640
  817MOL0     C10189   8.066   1.048   4.757  0.2386 -0.0674  0.0991
  817MOL0     O10190   8.144   0.966   4.842 -0.7761 -0.6705 -0.4376
  817MOL0     C10191   8.267   0.923   4.794  0.3022 -0.5147 -0.2541
  817MOL0     C10192   8.284   0.869   4.667  0.0701  0.2308  0.0694
  817MOL0     C10193   8.414   0.818   4.632 -0.3111 -0.0095  0.0071
  817MOL0     C10194   8.519   0.807   4.711 -0.2302  0.1893 -0.2434
  817MOL0     O10195   8.635   0.742   4.676  0.1973  0.0397 -0.0114
  817MOL0     C10196   8.616   0.603   4.670  0.5042 -0.2808 -1.5124
  817MOL0     C10197   8.557   0.521   4.793  0.6682 -0.0119  0.1766
  817MOL0     C10198   8.640   0.395   4.827  0.1646  0.4783  0.7220
  817MOL0     C10199   8.772   0.433   4.902  0.1218  0.0552  0.1449
  817MOL0     C10200   8.864   0.307   4.912 -0.5287  1.1581  1.1540
  817MOL0     C10201   9.014   0.342   4.930  0.3395 -0.4607  0.0682
  817MOL0     C10202   9.042   0.470   5.014  0.9020  0.0713  0.0989
  817MOL0     C10203   9.186   0.481   5.049  0.0123 -0.0304  0.2192
  817MOL0    Cl10204   9.211   0.617   5.168  0.0257 -0.5928 -0.0280
  817MOL0     C10205   8.500   0.867   4.833  0.0185  1.1994 -0.3869
  817MOL0     C10206   8.379   0.929   4.877  0.0960  0.5069 -0.5837
  817MOL0     O10207   8.098   1.089   4.646  0.1772 -0.3355  0.1258
  817MOL0     C10208   7.856   1.187   4.737  0.3304 -0.1435 -0.6242
  817MOL0     C10209   7.726   1.216   4.786 -0.0856 -0.1127 -0.3291
  817MOL0     N10210   7.018   1.178   4.475  0.1913  0.2889  0.1845
  817MOL0     N10211   6.908   1.125   4.478  0.2748 -0.2841  0.7305
  817MOL0     C10212   5.593   1.049   4.922  0.1893 -0.7845 -0.5790
  817MOL0     C10213   5.450   1.067   4.911 -0.3914  0.7138 -0.3879
  817MOL0     C10214   5.064   1.273   4.960 -0.0869  0.2372  0.4818
  817MOL0     C10215   5.001   1.261   5.080 -0.1262  0.0950 -0.2859
  817MOL0     C10216   4.862   1.268   5.097 -0.0119  1.1273 -0.3562
  817MOL0     C10217   4.777   1.270   4.983  0.0730  0.0815 -0.6296
  817MOL0     O10218   4.647   1.234   4.983 -0.2918 -0.1683  0.1460
  817MOL0     C10219   4.557   1.279   5.086 -0.0665 -0.0464 -0.6645
  817MOL0     C10220   4.424   1.217   5.073  0.3704  0.5508 -0.0347
  817MOL0     C10221   4.415   1.060   5.035  0.5975  0.2826  0.9048
  817MOL0     C10222   4.265   1.026   5.031 -0.1196  0.5881  0.3627
  817MOL0     C10223   4.262   0.880   5.000 -0.5878  0.3899  0.2804
  817MOL0     C10224   4.271   0.759   4.979 -0.5254  0.1578  0.3687
  817MOL0     C10225   4.839   1.282   4.860  0.5504 -0.3196 -0.5881
  817MOL0     C10226   4.976   1.289   4.846 -0.0778  0.4521 -0.7180
  817MOL0     C10227   5.035   1.313   4.714  0.3705 -0.1663  0.5499
  817MOL0     H10228   5.432   1.315   4.687  3.3379  0.0622 -2.0570
  817MOL0     H10229   5.660   1.309   4.699 -0.8924 -0.0284 -1.5297
  817MOL0     H10230   5.850   1.166   4.668  1.8333  4.0364 -1.1076
  817MOL0     H10231   5.905   1.277   4.790  1.0133 -0.8265  1.8260
  817MOL0     H10232   6.012   0.998   4.728 -1.6485  0.4774  0.2083
  817MOL0     H10233   6.055   1.104   4.871  0.0750  3.1264  0.1541
  817MOL0     H10234   6.139   1.281   4.696  1.1293  0.4775 -0.9209
  817MOL0     H10235   6.096   1.155   4.570  0.8292  0.7336 -0.7893
  817MOL0     H10236   6.269   1.114   4.818 -0.1032 -1.0401 -0.5537
  817MOL0     H10237   6.247   1.010   4.686  0.3601  0.2453 -0.0499
  817MOL0     H10238   6.351   1.204   4.539 -1.9767 -0.3090  0.5242
  817MOL0     H10239   6.396   1.271   4.693 -2.6275  1.6840 -0.9617
  817MOL0     H10240   6.493   1.039   4.751 -0.6305 -0.2244 -0.2222
  817MOL0     H10241   6.485   0.999   4.582 -1.1248  0.6815 -0.3038
  817MOL0     H10242   6.638   1.242   4.646 -0.2064 -0.7924  2.7096
  817MOL0     H10243   6.616   1.156   4.495 -0.8530  1.3347 -0.3598
  817MOL0     H10244   6.731   0.993   4.715 -0.4838 -0.0389  0.8440
  817MOL0     H10245   6.734   0.957   4.546 -0.7994 -1.1331  1.5061
  817MOL0     H10246   6.957   1.146   4.789 -1.7492 -0.6372 -0.7629
  817MOL0     H10247   7.247   1.320   4.596  2.6297 -0.0974  2.5854
  817MOL0     H10248   7.164   1.300   4.755 -1.7401 -1.3411  1.0539
  817MOL0     H10249   7.227   1.072   4.761  1.9133 -0.1227  0.6145
  817MOL0     H10250   7.292   1.074   4.591  0.8582 -0.3154  0.5563
  817MOL0     H10251   7.464   1.222   4.638  2.1014 -4.1722 -1.6629
  817MOL0     H10252   7.482   1.068   4.727 -0.6892 -1.5133 -0.5665
  817MOL0     H10253   7.343   1.239   4.909 -0.6802  0.7872 -1.1007
  817MOL0     H10254   7.472   1.338   4.838  0.2534  0.5727  0.1134
  817MOL0     H10255   7.718   1.006   5.061  3.8377  0.8982  1.6239
  817MOL0     H10256   7.934   0.960   4.981  2.9808  2.5585 -0.5087
  817MOL0     H10257   8.210   0.872   4.588 -1.3025  2.5594  1.3522
  817MOL0     H10258   8.438   0.775   4.535  0.1701 -1.3200  0.6775
  817MOL0     H10259   8.556   0.583   4.581 -1.0778 -0.8193 -0.3795
  817MOL0     H10260   8.717   0.562   4.655 -0.4348 -3.8855  0.7468
  817MOL0     H10261   8.569   0.580   4.884  0.3532 -0.2214  0.3551
  817MOL0     H10262   8.451   0.507   4.774  0.4860 -0.2477  1.3027
  817MOL0     H10263   8.581   0.337   4.899 -0.0195  2.5550  2.3347
  817MOL0     H10264   8.652   0.340   4.733 -2.8901  0.8303  0.0270
  817MOL0     H10265   8.752   0.477   5.000  2.7714 -0.9245  1.2206
  817MOL0     H10266   8.825   0.509   4.844  0.0612 -0.5531 -0.7324
  817MOL0     H10267   8.859   0.247   4.820  2.4526  1.9945  0.3533
  817MOL0     H10268   8.815   0.251   4.992  0.1591 -1.4129 -0.1093
  817MOL0     H10269   9.065   0.256   4.975 -0.5344 -0.6967  0.6263
  817MOL0     H10270   9.058   0.368   4.834  0.7601 -0.5069  0.2460
  817MOL0     H10271   8.980   0.458   5.103 -1.8339  1.0405 -1.5556
  817MOL0     H10272   9.007   0.562   4.966 -0.5135 -0.2825  0.4182
  817MOL0     H10273   9.222   0.387   5.091  3.0172  0.4822 -0.9774
  817MOL0     H10274   9.252   0.504   4.965 -0.0343 -2.7720 -0.6673
  817MOL0     H10275   8.588   0.869   4.896  0.4404  2.6157 -0.9809
  817MOL0     H10276   8.376   0.976   4.974  2.0102  1.1363 -0.7881
  817MOL0     H10277   7.891   1.233   4.645 -2.1816 -0.8781 -2.0553
  817MOL0     H10278   7.667   1.283   4.724 -1.2196 -2.3377 -1.7986
  817MOL0     H10279   5.641   0.970   4.978  0.6606  0.8637  1.5067
  817MOL0     H10280   5.398   1.000   4.979  2.6415  0.4915  1.9523
  817MOL0     H10281   5.053   1.248   5.174 -3.4054  0.2399  1.6924
  817MOL0     H10282   4.828   1.265   5.200 -2.3776  2.6388 -1.0258
  817MOL0     H10283   4.541   1.387   5.074 -0.8858 -0.1541 -0.6348
  817MOL0     H10284   4.593   1.261   5.188 -0.8117 -1.0681 -0.5631
  817MOL0     H10285   4.360   1.272   5.004  0.0159  2.0509  1.4060
  817MOL0     H10286   4.369   1.230   5.167 -0.7128  0.2380 -0.6080
  817MOL0     H10287   4.471   0.999   5.108  0.1470 -2.2595 -0.7536
  817MOL0     H10288   4.454   1.047   4.934 -0.3966 -0.1483  0.5647
  817MOL0     H10289   4.218   1.045   5.128  1.1045 -0.7755  1.2570
  817MOL0     H10290   4.219   1.082   4.948  0.1692 -2.2834 -1.9004
  817MOL0     H10291   4.260   0.653   4.978 -1.9878  0.2254  2.6021
  817MOL0     H10292   4.774   1.293   4.774  0.2611 -1.5674 -0.5526
  817MOL0     H10293   5.064   1.217   4.670 -0.5330 -0.7776  1.2402
  817MOL0     H10294   4.955   1.352   4.649  0.1213 -0.5286  0.6323
  817MOL0     H10295   5.111   1.388   4.735 -0.9202  0.5985  2.7204
  818MOL0     O10296   9.857   4.099   6.019 -0.0857 -0.3119 -0.7319
  818MOL0     C10297   9.835   3.985   5.983  0.2144 -0.2568 -0.5489
  818MOL0     O10298   9.895   3.873   6.037 -0.1680 -0.6093 -0.2054
  818MOL0     C10299  10.025   3.875   6.078 -0.3659 -0.3145  1.0672
  818MOL0     C10300  10.124   3.964   6.027 -0.0486 -0.6019 -0.4643
  818MOL0     C10301  10.263   3.936   6.041  0.8880 -0.7591 -0.2541
  818MOL0     C10302  10.297   3.833   6.126  0.2042 -0.6483 -0.5103
  818MOL0     O10303  10.428   3.819   6.172  0.2772 -0.0454  0.1323
  818MOL0     C10304  10.534   3.915   6.143 -0.9037 -0.1666  0.1038
  818MOL0     C10305  10.665   3.850   6.154  0.6518  0.7524 -0.4344
  818MOL0     C10306  10.777   3.944   6.191  0.8103 -0.3279 -0.1132
  818MOL0     C10307  10.904   3.862   6.224 -0.1608  0.1237  0.2048
  818MOL0     C10308  11.017   3.945   6.294 -0.2157 -0.5396 -0.4315
  818MOL0     C10309  11.138   3.861   6.341  0.1341  0.7256  0.6123
  818MOL0     C10310  11.241   3.930   6.427 -0.0315 -0.3125 -0.8725
  818MOL0     C10311  11.389   3.874   6.422  0.4996  0.2063 -0.0726
  818MOL0     N10312  11.401   3.759   6.513 -0.5786  0.4024 -0.0053
  818MOL0     C10313  11.363   3.634   6.487  0.5653  0.2773  0.3193
  818MOL0     C10314  11.355   3.574   6.604  0.2276 -0.1439 -0.0557
  818MOL0     C10315  11.309   3.432   6.629 -0.4989  0.2024 -1.3728
  818MOL0     C10316  11.165   3.412   6.647  0.2223 -0.1878 -0.2106
  818MOL0     C10317  11.115   3.392   6.791 -0.1067 -0.3182  0.6857
  818MOL0     C10318  10.968   3.359   6.789 -0.9225  0.9225 -1.4863
  818MOL0     O10319  10.947   3.223   6.769  0.3424  0.0245 -0.7365
  818MOL0     C10320  10.823   3.168   6.746 -0.3750 -0.0826 -0.2726
  818MOL0     C10321  10.808   3.033   6.756 -0.4215  0.1994  0.3874
  818MOL0     C10322  10.684   2.962   6.729 -0.3389 -0.3295  1.0419
  818MOL0     C10323  10.576   3.039   6.696 -0.0973  0.5950  0.2460
  818MOL0     C10324  10.445   2.974   6.683  0.8740 -0.4588 -0.1124
  818MOL0     O10325  10.350   3.045   6.623  0.2422  0.0925 -0.4033
  818MOL0     C10326  10.220   3.017   6.646 -0.1711 -0.4064  0.2087
  818MOL0     C10327  10.154   2.899   6.676  0.6459  0.0913 -0.2394
  818MOL0     C10328  10.012   2.891   6.696 -0.7247  0.0910  0.2657
  818MOL0     C10329   9.942   3.005   6.662  0.0654  0.8396 -0.0802
  818MOL0     O10330   9.807   2.991   6.660 -0.0595  0.0270 -0.4450
  818MOL0     C10331   9.723   3.032   6.550  0.1103  0.1861 -0.4852
  818MOL0     C10332   9.575   2.994   6.571 -0.2871  0.4007  0.6764
  818MOL0     C10333   9.475   3.067   6.479 -0.2162 -0.1743 -0.1784
  818MOL0     C10334   9.337   3.006   6.472  0.6923  0.1060  0.4261
  818MOL0     C10335   9.241   3.087   6.375  0.0805 -0.8938  0.1426
  818MOL0     C10336   9.093   3.045   6.406 -0.0147 -0.3550  0.1809
  818MOL0     C10337   9.060   2.892   6.390  0.2634 -0.0672  0.2932
  818MOL0     C10338   8.942   2.859   6.294 -0.1574  0.2145 -0.2115
  818MOL0    Cl10339   8.798   2.921   6.367  0.1615  0.0107 -0.2321
  818MOL0     C10340  10.004   3.126   6.616  0.4486 -0.1590 -0.0393
  818MOL0     C10341  10.147   3.133   6.618  0.4294  0.0624 -0.7061
  818MOL0     O10342  10.435   2.859   6.728  0.1281 -0.5417 -0.0671
  818MOL0     C10343  10.593   3.178   6.686  0.2022 -0.2609  0.2442
  818MOL0     C10344  10.715   3.240   6.700  1.0249  0.9856 -0.0804
  818MOL0     N10345  11.402   3.655   6.708  0.7939  0.3860  0.2613
  818MOL0     N10346  11.425   3.771   6.644  1.0285  0.1206 -0.1689
  818MOL0     C10347  10.203   3.763   6.189  0.4548  0.8663  1.1929
  818MOL0     C10348  10.065   3.777   6.159 -0.3271 -0.2118 -0.2693
  818MOL0     C10349   9.701   3.964   5.896 -0.8643  0.4977 -0.3507
  818MOL0     C10350   9.657   3.833   5.855 -0.9204  0.0035  0.3055
  818MOL0     C10351   9.544   3.808   5.775  0.3315  0.4865 -0.2160
  818MOL0     C10352   9.458   3.914   5.757 -0.0429  0.0470 -0.1992
  818MOL0     O10353   9.325   3.905   5.713  0.3297 -0.1387 -0.0265
  818MOL0     C10354   9.274   3.766   5.738 -0.1780 -0.5210  0.9455
  818MOL0     C10355   9.126   3.742   5.715 -0.0079  0.5613 -0.1851
  818MOL0     C10356   9.087   3.801   5.584 -0.2250 -0.0070  0.5320
  818MOL0     C10357   8.937   3.800   5.558  0.1862 -0.0773  0.4194
  818MOL0     C10358   8.861   3.856   5.675  0.9260 -0.4332  1.1567
  818MOL0     C10359   8.778   3.890   5.759 -0.4313 -0.6002  0.3117
  818MOL0     C10360   9.506   4.038   5.778  0.4151 -1.3827 -0.5888
  818MOL0     C10361   9.630   4.072   5.835 -0.3347 -0.4498  0.2822
  818MOL0     C10362   9.673   4.223   5.856 -0.8589 -0.8653 -0.4803
  818MOL0     H10363  10.107   4.047   5.960  2.6493  2.3341  2.1977
  818MOL0     H10364  10.337   4.002   5.996  1.9560 -1.0754  0.9776
  818MOL0     H10365  10.529   3.953   6.041 -2.3948 -1.3124 -0.2866
  818MOL0     H10366  10.527   3.999   6.213  1.7972  2.0279 -2.0208
  818MOL0     H10367  10.698   3.804   6.060  1.6023  0.2377  0.1350
  818MOL0     H10368  10.662   3.769   6.228 -0.7302  0.7940 -0.4211
  818MOL0     H10369  10.752   4.007   6.277  1.9922 -1.9804  1.5235
  818MOL0     H10370  10.797   4.007   6.104  0.5231  0.8441  0.6402
  818MOL0     H10371  10.873   3.788   6.299  1.4572 -0.0379  0.7545
  818MOL0     H10372  10.942   3.820   6.130 -1.3501  0.5463 -0.4853
  818MOL0     H10373  11.036   4.028   6.226 -0.7845  1.2636  1.5069
  818MOL0     H10374  10.967   3.978   6.386 -0.3161 -0.8551 -0.3739
  818MOL0     H10375  11.105   3.764   6.379 -0.2687  1.6494  2.7718
  818MOL0     H10376  11.187   3.843   6.245 -1.2413  2.5113 -0.4791
  818MOL0     H10377  11.201   3.936   6.529  1.3645 -2.2704 -0.1414
  818MOL0     H10378  11.234   4.033   6.393  1.8837 -0.1328 -0.8362
  818MOL0     H10379  11.403   3.849   6.317 -3.0701  0.9839 -0.8500
  818MOL0     H10380  11.460   3.953   6.452  1.4778 -0.5879 -0.2509
  818MOL0     H10381  11.318   3.590   6.399 -0.3936  0.8418  0.5104
  818MOL0     H10382  11.346   3.362   6.553  1.7632 -0.5904  0.3398
  818MOL0     H10383  11.353   3.410   6.727 -0.6929  3.1572 -0.5319
  818MOL0     H10384  11.111   3.498   6.605 -1.2780 -1.1329 -0.3073
  818MOL0     H10385  11.136   3.330   6.582  3.0525 -0.8377 -0.7757
  818MOL0     H10386  11.132   3.488   6.840  0.2870  0.6618 -1.2489
  818MOL0     H10387  11.171   3.310   6.837 -0.0302 -0.5481  0.1929
  818MOL0     H10388  10.929   3.428   6.714  1.0878  1.1600 -2.3869
  818MOL0     H10389  10.934   3.382   6.891  2.1843  1.6980 -0.4925
  818MOL0     H10390  10.900   2.981   6.781  1.6622  2.7882 -1.3981
  818MOL0     H10391  10.681   2.854   6.731  1.2461 -0.4606 -0.6598
  818MOL0     H10392  10.192   2.798   6.692 -1.7285 -1.2633 -2.2793
  818MOL0     H10393   9.959   2.800   6.721 -1.9121  0.9598  1.0019
  818MOL0     H10394   9.726   3.141   6.554 -1.2340  0.3291 -2.1629
  818MOL0     H10395   9.758   2.994   6.454 -0.6166  0.5512 -0.9005
  818MOL0     H10396   9.563   2.888   6.549 -0.5765  0.4034  0.8208
  818MOL0     H10397   9.539   3.010   6.673 -1.9869 -0.1053  0.1915
  818MOL0     H10398   9.468   3.169   6.518 -1.2241 -0.5542  0.6698
  818MOL0     H10399   9.510   3.090   6.377 -1.6951 -2.3981 -1.2603
  818MOL0     H10400   9.296   2.990   6.572 -1.3416  0.2798 -0.3485
  818MOL0     H10401   9.340   2.905   6.429 -0.7129  0.0769  0.3642
  818MOL0     H10402   9.281   3.057   6.277  1.6091 -1.1738  0.8195
  818MOL0     H10403   9.245   3.195   6.393 -1.0313 -0.3507 -2.4237
  818MOL0     H10404   9.057   3.074   6.505 -1.1856 -0.2376 -0.2687
  818MOL0     H10405   9.027   3.084   6.329 -0.2089 -2.2138 -0.6592
  818MOL0     H10406   9.046   2.836   6.483 -1.4986  0.8853  0.6462
  818MOL0     H10407   9.142   2.838   6.341  0.1248 -0.3047  0.3189
  818MOL0     H10408   8.956   2.912   6.199  1.2864  1.9324  0.8852
  818MOL0     H10409   8.941   2.752   6.274  3.1926  0.3671 -2.1394
  818MOL0     H10410   9.935   3.207   6.595 -0.0966 -0.8625 -1.0669
  818MOL0     H10411  10.203   3.225   6.604 -0.7919  1.0837  0.7897
  818MOL0     H10412  10.505   3.233   6.653  0.6014 -0.9900 -2.2224
  818MOL0     H10413  10.724   3.348   6.690 -0.0504  1.0417 -0.5075
  818MOL0     H10414  10.241   3.694   6.264  1.6162  2.2450  1.9366
  818MOL0     H10415   9.991   3.710   6.200 -0.6353 -0.6649 -1.5345
  818MOL0     H10416   9.725   3.753   5.885 -2.2663 -1.6629 -0.9020
  818MOL0     H10417   9.517   3.710   5.739 -2.0539  0.5311  1.2124
  818MOL0     H10418   9.308   3.733   5.837  0.6574  0.4139  0.9959
  818MOL0     H10419   9.337   3.707   5.671 -1.7542  0.6908 -1.7645
  818MOL0     H10420   9.080   3.793   5.801 -0.4956  0.5359 -0.4237
  818MOL0     H10421   9.115   3.633   5.714  3.9760  0.0365 -0.8196
  818MOL0     H10422   9.141   3.751   5.503 -1.8200  0.0992 -0.6453
  818MOL0     H10423   9.124   3.903   5.568  1.6032 -1.0041 -2.2005
  818MOL0     H10424   8.913   3.846   5.462 -0.1147 -0.5618  0.2592
  818MOL0     H10425   8.907   3.696   5.544 -0.3026  0.0056  0.8449
  818MOL0     H10426   8.716   3.914   5.843  0.5247  1.9941  0.3580
  818MOL0     H10427   9.437   4.118   5.752 -1.0143 -0.6981  4.2651
  818MOL0     H10428   9.775   4.249   5.826  0.7116  0.3936  4.8229
  818MOL0     H10429   9.603   4.289   5.804  1.5470  0.3046 -2.4122
  818MOL0     H10430   9.662   4.237   5.964 -0.2407 -1.7479 -0.2948
  819MOL0     O10431   9.605   2.940   4.398  0.4877 -0.7728 -0.1149
  819MOL0     C10432   9.527   2.897   4.317  0.2630 -0.5758 -0.2101
  819MOL0     O10433   9.548   2.780   4.239  0.5254  0.5646 -0.5237
  819MOL0     C10434   9.674   2.732   4.234 -0.4643 -1.1532  0.4434
  819MOL0     C10435   9.724   2.649   4.338  0.4469 -0.4143 -0.0561
  819MOL0     C10436   9.855   2.598   4.325  0.7974 -0.1802 -1.5135
  819MOL0     C10437   9.928   2.634   4.210 -0.7843 -0.1344 -0.5249
  819MOL0     O10438  10.060   2.596   4.196  0.5054 -0.0020 -0.6093
  819MOL0     C10439  10.076   2.447   4.191  0.6632 -0.6521  0.5569
  819MOL0     C10440  10.221   2.406   4.181  0.4882  0.0097 -0.0522
  819MOL0     C10441  10.290   2.404   4.322  0.1666 -0.2451 -0.5613
  819MOL0     C10442  10.439   2.367   4.297  1.3398  0.3128  0.6917
  819MOL0     C10443  10.501   2.300   4.425  0.3031  0.0048  1.3015
  819MOL0     C10444  10.644   2.267   4.386 -0.7125  0.1331  0.2527
  819MOL0     C10445  10.738   2.210   4.495 -0.0100  0.4901 -0.4128
  819MOL0     C10446  10.796   2.318   4.593  0.4736 -0.1538  0.1620
  819MOL0     N10447  10.874   2.429   4.534  0.1593 -0.3959  0.0959
  819MOL0     C10448  10.969   2.405   4.439  0.2122 -0.5120  0.3255
  819MOL0     C10449  11.043   2.518   4.432  0.0615 -0.4164 -0.1512
  819MOL0     C10450  11.178   2.551   4.379  0.0753  0.1935  0.0133
  819MOL0     C10451  11.291   2.580   4.492 -0.2556  0.3571 -0.6441
  819MOL0     C10452  11.305   2.471   4.590 -0.3947 -0.6995 -0.0742
  819MOL0     C10453  11.438   2.471   4.668 -0.7822 -0.0066  0.9757
  819MOL0     O10454  11.436   2.597   4.749 -0.1338  0.1046  0.4141
  819MOL0     C10455  11.554   2.652   4.772 -0.2457  0.0472  0.5317
  819MOL0     C10456  11.566   2.775   4.829 -0.5040 -1.1274 -0.4911
  819MOL0     C10457  11.683   2.819   4.893  0.5012  0.7989 -0.3986
  819MOL0     C10458  11.801   2.735   4.899  0.7534  0.5676 -0.5954
  819MOL0     C10459  11.924   2.783   4.959  0.5015  0.0413  0.2478
  819MOL0     O10460  12.014   2.696   5.001 -0.2878 -0.4250  0.0389
  819MOL0     C10461  12.125   2.731   5.077 -0.7073  0.4439  0.1695
  819MOL0     C10462  12.239   2.666   5.029 -0.0477  0.2134 -0.1057
  819MOL0     C10463  12.361   2.696   5.093  0.2944  0.6073  0.3037
  819MOL0     C10464  12.366   2.753   5.217  0.9701 -0.0807  1.1641
  819MOL0     O10465  12.486   2.736   5.279  0.8895 -0.6880 -0.2685
  819MOL0     C10466  12.510   2.833   5.377 -0.3220 -0.2896  0.5445
  819MOL0     C10467  12.657   2.839   5.394 -0.5691 -1.4030  0.4424
  819MOL0     C10468  12.707   2.917   5.270  0.5054  0.0365  0.3671
  819MOL0     C10469  12.842   2.987   5.293 -0.3424 -0.8987 -0.2900
  819MOL0     C10470  12.948   2.895   5.363  0.1608  0.5430  0.3553
  819MOL0     C10471  13.091   2.953   5.351  0.6069  0.1656 -0.1632
  819MOL0     C10472  13.113   3.098   5.381  0.1531 -0.0861  0.0914
  819MOL0     C10473  13.257   3.141   5.357 -0.0148 -0.7676  0.2731
  819MOL0    Cl10474  13.291   3.166   5.181  0.5753  0.4344 -0.4096
  819MOL0     C10475  12.255   2.824   5.258  0.5600 -0.2990  0.1492
  819MOL0     C10476  12.125   2.818   5.187 -0.6287  0.6302 -0.8614
  819MOL0     O10477  11.931   2.899   4.985  0.0144  0.3864  0.0603
  819MOL0     C10478  11.793   2.612   4.833  0.0964 -0.1389 -0.5593
  819MOL0     C10479  11.668   2.565   4.791 -0.4249 -0.0184 -0.3329
  819MOL0     N10480  10.979   2.610   4.516  0.3475  0.8822 -0.0068
  819MOL0     N10481  10.874   2.561   4.577 -0.5622 -0.0271 -0.6865
  819MOL0     C10482   9.881   2.714   4.105 -0.0659  0.1119 -0.8442
  819MOL0     C10483   9.747   2.762   4.118  0.6520  0.0047  0.5566
  819MOL0     C10484   9.397   2.960   4.305  0.0583  0.0018  0.2600
  819MOL0     C10485   9.322   2.935   4.177  0.0560 -0.1267 -0.4182
  819MOL0     C10486   9.205   2.996   4.155  0.6531  0.0149 -0.1478
  819MOL0     C10487   9.148   3.083   4.245 -0.8163 -0.0291 -0.8920
  819MOL0     O10488   9.023   3.121   4.209 -0.1208  0.1114 -0.3327
  819MOL0     C10489   8.926   3.122   4.322  0.0444  0.4192  0.2141
  819MOL0     C10490   8.777   3.130   4.265 -0.2499  0.0321 -0.2962
  819MOL0     C10491   8.736   2.990   4.208 -0.8377 -0.5665 -0.2015
  819MOL0     C10492   8.593   3.010   4.170 -0.2336  0.0632 -1.2967
  819MOL0     C10493   8.560   2.888   4.096  0.4052 -0.9898 -0.4534
  819MOL0     C10494   8.536   2.781   4.042  0.4034  1.0993 -0.6300
  819MOL0     C10495   9.210   3.101   4.371  1.6297  0.6747 -1.3740
  819MOL0     C10496   9.334   3.046   4.408 -0.0913 -0.1512  1.3045
  819MOL0     C10497   9.389   3.075   4.539  0.0887 -0.6881 -0.3205
  819MOL0     H10498   9.662   2.626   4.424 -0.0808 -2.7740 -0.9773
  819MOL0     H10499   9.885   2.536   4.408  0.6184  0.8869 -0.6324
  819MOL0     H10500  10.040   2.391   4.278  1.5883  0.5160  1.7236
  819MOL0     H10501  10.025   2.405   4.103  1.5214 -0.7846  0.1135
  819MOL0     H10502  10.267   2.485   4.120 -2.5574  1.5125 -0.5882
  819MOL0     H10503  10.236   2.309   4.133  1.7499 -0.4938  1.2636
  819MOL0     H10504  10.243   2.320   4.375  1.9648 -2.5738 -2.4142
  819MOL0     H10505  10.282   2.497   4.379 -1.2621  0.4245 -1.8020
  819MOL0     H10506  10.440   2.303   4.209 -0.8432  2.6263 -1.1748
  819MOL0     H10507  10.492   2.452   4.253  1.4963 -0.6569 -1.0502
  819MOL0     H10508  10.513   2.363   4.514  1.9951 -1.6221  2.2921
  819MOL0     H10509  10.451   2.213   4.469 -1.5248  0.5789  0.4774
  819MOL0     H10510  10.650   2.188   4.310 -4.4438  1.1981 -1.3965
  819MOL0     H10511  10.692   2.358   4.349  0.3823  0.0613  1.4489
  819MOL0     H10512  10.817   2.154   4.444 -1.6647 -0.5072 -2.0093
  819MOL0     H10513  10.681   2.134   4.551 -0.9319  1.8045  0.4902
  819MOL0     H10514  10.716   2.363   4.652  2.3220  3.1378  0.3743
  819MOL0     H10515  10.845   2.248   4.661  0.8980 -0.1869 -0.1703
  819MOL0     H10516  10.992   2.305   4.404  1.0397 -0.6937  1.3593
  819MOL0     H10517  11.212   2.480   4.303  0.5745  0.6626 -0.2117
  819MOL0     H10518  11.153   2.646   4.331 -2.6601  0.7650  2.3319
  819MOL0     H10519  11.386   2.594   4.440  0.4083 -4.0465 -0.9800
  819MOL0     H10520  11.269   2.671   4.549  0.7560  0.8467 -1.0253
  819MOL0     H10521  11.294   2.377   4.535 -3.2608 -0.1441 -0.6269
  819MOL0     H10522  11.216   2.465   4.653 -2.3354 -0.7684 -2.6836
  819MOL0     H10523  11.518   2.464   4.594 -2.7367  0.9304 -1.3612
  819MOL0     H10524  11.455   2.384   4.733  0.3457 -1.4396 -1.1324
  819MOL0     H10525  11.476   2.836   4.833  0.3266  0.0769  0.7280
  819MOL0     H10526  11.670   2.917   4.938  0.4590  1.1330 -1.1201
  819MOL0     H10527  12.239   2.612   4.935  3.4877  1.5913 -1.0885
  819MOL0     H10528  12.455   2.658   5.052 -0.9480 -3.0040  0.4898
  819MOL0     H10529  12.477   2.932   5.343  0.3025 -0.6499 -1.1511
  819MOL0     H10530  12.450   2.822   5.468 -1.4113  1.3880  0.0848
  819MOL0     H10531  12.683   2.903   5.478 -0.7025 -1.3664  0.4568
  819MOL0     H10532  12.710   2.743   5.401 -2.8255 -2.6156  2.9147
  819MOL0     H10533  12.715   2.848   5.186 -2.0928  0.0629  0.0124
  819MOL0     H10534  12.633   2.991   5.239 -1.8050 -2.0552  0.5365
  819MOL0     H10535  12.822   3.075   5.354 -1.4527 -1.5045  0.2649
  819MOL0     H10536  12.883   3.035   5.204 -1.0563  4.5282  1.9089
  819MOL0     H10537  12.954   2.797   5.315 -2.5483  1.0956 -1.2872
  819MOL0     H10538  12.922   2.886   5.469  1.9421 -0.6276  0.7519
  819MOL0     H10539  13.156   2.902   5.423 -0.4443  1.2482  1.6346
  819MOL0     H10540  13.133   2.933   5.252  0.7628 -1.9214  0.2690
  819MOL0     H10541  13.078   3.109   5.484 -1.1118  0.6055 -0.3970
  819MOL0     H10542  13.057   3.167   5.318  1.7571  0.9451 -0.2409
  819MOL0     H10543  13.279   3.232   5.414 -4.3697 -0.5713  2.0903
  819MOL0     H10544  13.329   3.065   5.389  1.8466  1.2481  1.0455
  819MOL0     H10545  12.255   2.874   5.354  0.6103  0.2692 -0.1410
  819MOL0     H10546  12.027   2.846   5.224 -1.2368 -2.6067  0.3685
  819MOL0     H10547  11.883   2.552   4.832  0.3285 -0.1322  3.3778
  819MOL0     H10548  11.660   2.461   4.763 -1.2688  0.6457 -2.8354
  819MOL0     H10549   9.953   2.729   4.025 -1.4514 -1.3026 -2.4345
  819MOL0     H10550   9.699   2.817   4.039  2.4282 -0.9922 -1.3045
  819MOL0     H10551   9.355   2.872   4.096 -1.3340  0.0848 -1.1762
  819MOL0     H10552   9.155   2.975   4.061  0.4619 -2.1382  0.3760
  819MOL0     H10553   8.940   3.206   4.391  1.6189  0.3549  0.0061
  819MOL0     H10554   8.930   3.029   4.379 -0.2911  0.6959  0.7019
  819MOL0     H10555   8.767   3.202   4.183  1.1439 -0.4629 -0.9214
  819MOL0     H10556   8.716   3.153   4.353 -0.7096 -0.0780 -0.5801
  819MOL0     H10557   8.753   2.905   4.275  2.0674 -0.3225 -0.5398
  819MOL0     H10558   8.798   2.968   4.121  1.9819  0.4484  1.4324
  819MOL0     H10559   8.535   3.022   4.261  0.7201  1.4883 -0.8546
  819MOL0     H10560   8.588   3.099   4.107  0.6261  1.4831  0.5514
  819MOL0     H10561   8.523   2.693   3.982 -0.5923  2.0940 -1.9278
  819MOL0     H10562   9.166   3.178   4.433 -0.7133 -0.8168 -1.0386
  819MOL0     H10563   9.313   3.121   4.603 -1.7375 -0.4164 -2.5683
  819MOL0     H10564   9.436   2.990   4.590  1.1634 -0.6057 -1.1357
  819MOL0     H10565   9.465   3.150   4.519  0.3689 -0.9990 -0.4278
  820MOL0     O10566   4.298   1.651   7.356 -0.1747 -0.1656  0.4284
  820MOL0     C10567   4.202   1.721   7.330  0.1705 -0.7761  0.3179
  820MOL0     O10568   4.206   1.857   7.350  0.2676 -0.3509  0.2734
  820MOL0     C10569   4.329   1.916   7.377 -0.1850  0.2090  0.8448
  820MOL0     C10570   4.367   2.016   7.295  0.3003  0.6620 -0.1256
  820MOL0     C10571   4.479   2.088   7.330 -0.2532 -0.2797  0.2749
  820MOL0     C10572   4.535   2.076   7.459 -0.2107  0.2571 -0.4293
  820MOL0     O10573   4.622   2.168   7.501 -0.4663 -0.2679 -0.0321
  820MOL0     C10574   4.759   2.120   7.499  0.2058 -0.1086  0.2163
  820MOL0     C10575   4.840   2.190   7.603 -0.5030 -0.3893 -0.3486
  820MOL0     C10576   4.986   2.148   7.591  0.4865  0.3672  0.2104
  820MOL0     C10577   5.061   2.213   7.703 -0.1336 -0.0324 -0.2921
  820MOL0     C10578   5.191   2.145   7.697 -0.5884  1.0450  0.7568
  820MOL0     C10579   5.303   2.191   7.790  0.1234 -0.2056  0.0036
  820MOL0     C10580   5.448   2.148   7.742  0.4206 -0.4375 -0.0843
  820MOL0     C10581   5.560   2.194   7.836  0.4450 -0.5058 -0.0025
  820MOL0     N10582   5.529   2.155   7.982 -0.3574 -0.1815 -0.6014
  820MOL0     C10583   5.519   2.024   8.017  0.4069 -0.6920 -0.5698
  820MOL0     C10584   5.461   2.019   8.145  0.4948  0.3087  0.6315
  820MOL0     C10585   5.437   1.900   8.234 -0.6307  1.0217 -0.4259
  820MOL0     C10586   5.550   1.869   8.337  0.8317 -0.4963  0.1431
  820MOL0     C10587   5.539   1.975   8.455 -0.3238 -0.0611 -0.2720
  820MOL0     C10588   5.648   1.952   8.558  0.2297 -0.0366 -0.1121
  820MOL0     O10589   5.625   1.828   8.615  0.5052 -0.0251  0.7740
  820MOL0     C10590   5.693   1.797   8.730  0.1839  1.1261  0.3085
  820MOL0     C10591   5.620   1.711   8.820  0.7969  0.1764 -0.2858
  820MOL0     C10592   5.666   1.691   8.949 -0.0768  0.5152 -0.4545
  820MOL0     C10593   5.788   1.748   8.996  0.4454 -0.0388  0.3670
  820MOL0     C10594   5.825   1.742   9.139 -0.3359  0.1455 -0.2544
  820MOL0     O10595   5.937   1.825   9.169 -0.0640  0.3326 -0.0939
  820MOL0     C10596   5.983   1.827   9.297 -0.0876  0.4127  0.0406
  820MOL0     C10597   6.079   1.734   9.348 -0.2742 -0.1267  0.1210
  820MOL0     C10598   6.127   1.735   9.482  0.2577 -0.1329  1.1596
  820MOL0     C10599   6.092   1.839   9.564 -0.2217 -1.2462 -0.2154
  820MOL0     O10600   6.150   1.852   9.686  0.3592 -0.1167 -0.2330
  820MOL0     C10601   6.287   1.877   9.700 -0.7630  0.1304  0.1407
  820MOL0     C10602   6.365   1.744   9.725  0.4244 -0.3276 -0.6833
  820MOL0     C10603   6.510   1.766   9.678 -0.1468 -0.0703 -0.4045
  820MOL0     C10604   6.598   1.831   9.781 -0.6606 -0.8189  1.0105
  820MOL0     C10605   6.740   1.847   9.721  0.1846  0.8273 -0.3504
  820MOL0     C10606   6.829   1.912   9.820  0.1922 -0.2460 -0.7279
  820MOL0     C10607   6.960   1.948   9.755 -0.2010  0.1495  0.6921
  820MOL0     C10608   7.060   2.015   9.863 -0.3582  0.4131 -0.1315
  820MOL0    Cl10609   7.141   1.897   9.960 -0.1051 -0.1015 -0.0443
  820MOL0     C10610   6.001   1.934   9.515 -0.1694 -0.4053 -0.2959
  820MOL0     C10611   5.942   1.931   9.383 -0.3657 -0.0643  0.5211
  820MOL0     O10612   5.757   1.674   9.217 -0.0190  0.0156 -0.0384
  820MOL0     C10613   5.858   1.825   8.903 -0.8047  0.6425  0.3157
  820MOL0     C10614   5.819   1.841   8.768  0.7649  0.2065  0.3249
  820MOL0     N10615   5.434   2.152   8.179 -0.5471  0.0308 -0.0660
  820MOL0     N10616   5.467   2.235   8.078  0.4575 -0.1800 -0.1242
  820MOL0     C10617   4.502   1.966   7.539  0.0595 -0.5997  0.6717
  820MOL0     C10618   4.396   1.889   7.501 -0.0733 -0.2734  0.2177
  820MOL0     C10619   4.065   1.663   7.307 -0.8183 -0.3724 -0.1755
  820MOL0     C10620   3.965   1.744   7.250  0.2273 -0.3101  0.5894
  820MOL0     C10621   3.840   1.699   7.213  0.3771  0.6560  0.4752
  820MOL0     C10622   3.801   1.569   7.228 -0.2755 -0.7508  0.4635
  820MOL0     O10623   3.674   1.519   7.212 -0.1858 -0.6933 -0.0301
  820MOL0     C10624   3.591   1.566   7.104  0.6994  0.1916  0.3978
  820MOL0     C10625   3.463   1.481   7.086 -0.6645 -0.1337 -0.6449
  820MOL0     C10626   3.378   1.530   6.965 -0.5493 -0.6208 -0.4029
  820MOL0     C10627   3.240   1.468   6.949 -0.7164 -0.0221  0.5463
  820MOL0     C10628   3.254   1.319   6.946 -0.1494  0.2093  0.1192
  820MOL0     C10629   3.262   1.200   6.954  0.1646  0.1304  0.2996
  820MOL0     C10630   3.900   1.485   7.279 -0.4375  0.6841 -0.9525
  820MOL0     C10631   4.033   1.527   7.320 -0.0682  0.1531  0.0112
  820MOL0     C10632   4.131   1.412   7.359  0.5589  0.7239  0.0528
  820MOL0     H10633   4.313   2.027   7.201 -1.3760 -0.9116  0.5877
  820MOL0     H10634   4.531   2.162   7.270  0.5707 -1.3744 -0.3979
  820MOL0     H10635   4.751   2.012   7.516  0.0382  0.2240  2.5109
  820MOL0     H10636   4.807   2.129   7.401 -0.8944 -1.2883 -0.4697
  820MOL0     H10637   4.801   2.169   7.703 -0.3534 -1.6631 -0.5398
  820MOL0     H10638   4.829   2.297   7.586  0.4693 -0.3825 -0.9995
  820MOL0     H10639   5.023   2.183   7.494  2.0491 -1.2646  0.1678
  820MOL0     H10640   4.975   2.039   7.588  1.8882  0.2248 -0.8110
  820MOL0     H10641   5.070   2.322   7.696  1.3984 -0.0087  1.4268
  820MOL0     H10642   5.015   2.192   7.799 -0.0028 -2.5023 -0.7034
  820MOL0     H10643   5.178   2.037   7.709 -1.4936  0.8031 -1.7663
  820MOL0     H10644   5.226   2.161   7.594  1.0438  4.7811  1.7443
  820MOL0     H10645   5.297   2.300   7.798  0.7184 -0.1217 -0.6730
  820MOL0     H10646   5.271   2.151   7.887 -2.2571  2.4411  0.4536
  820MOL0     H10647   5.467   2.194   7.645  0.9751 -2.0256 -0.7527
  820MOL0     H10648   5.466   2.041   7.725 -0.9545 -0.7248  0.1675
  820MOL0     H10649   5.650   2.144   7.801 -0.8633 -1.2410 -2.6085
  820MOL0     H10650   5.560   2.303   7.826 -1.3361 -0.4971 -0.3588
  820MOL0     H10651   5.557   1.934   7.970  0.1180 -1.0480 -0.1393
  820MOL0     H10652   5.345   1.920   8.290 -1.2182 -0.8657 -0.6489
  820MOL0     H10653   5.432   1.814   8.168 -2.3852  0.7149  0.0459
  820MOL0     H10654   5.529   1.768   8.373 -0.9953  0.4421  1.9423
  820MOL0     H10655   5.647   1.873   8.289  0.8004 -1.0596  0.0252
  820MOL0     H10656   5.439   1.985   8.496 -0.0747  2.0407 -0.0738
  820MOL0     H10657   5.560   2.073   8.411  0.0014  1.3758  2.8491
  820MOL0     H10658   5.665   2.033   8.630 -0.1569 -1.6159  1.8545
  820MOL0     H10659   5.742   1.943   8.504  0.4378  0.1135  0.2228
  820MOL0     H10660   5.529   1.676   8.772 -0.9894  3.6018  0.3451
  820MOL0     H10661   5.621   1.628   9.026  1.7116  1.5109  1.5008
  820MOL0     H10662   6.128   1.678   9.268 -0.9968  0.6406 -0.8739
  820MOL0     H10663   6.203   1.662   9.509  0.9053 -0.0348 -0.3454
  820MOL0     H10664   6.325   1.936   9.617 -0.7636 -1.2182 -0.8616
  820MOL0     H10665   6.289   1.937   9.791 -2.8436 -0.8750  0.9343
  820MOL0     H10666   6.355   1.713   9.830 -0.9660 -0.0975 -0.7194
  820MOL0     H10667   6.324   1.662   9.665 -0.7282  1.0196 -1.8215
  820MOL0     H10668   6.551   1.666   9.667  1.5449  0.6444 -0.9476
  820MOL0     H10669   6.505   1.816   9.580 -1.7968 -1.2405 -0.9613
  820MOL0     H10670   6.597   1.789   9.882 -1.1324  0.2299  1.4569
  820MOL0     H10671   6.563   1.934   9.794  1.4582 -0.0356  0.9018
  820MOL0     H10672   6.736   1.910   9.632 -1.8534  3.2078  1.2850
  820MOL0     H10673   6.778   1.749   9.692 -2.6808 -0.8955  1.3046
  820MOL0     H10674   6.776   1.996   9.865  0.9028 -0.8283  1.2798
  820MOL0     H10675   6.847   1.844   9.903  0.7088 -0.2201 -0.8162
  820MOL0     H10676   6.949   2.022   9.675  0.0982  1.3319  1.7122
  820MOL0     H10677   7.009   1.862   9.709  0.0573  1.4780 -1.6703
  820MOL0     H10678   7.141   2.069   9.814 -0.0501 -0.0085 -0.0873
  820MOL0     H10679   7.007   2.084   9.930 -0.7969  0.6009 -0.6659
  820MOL0     H10680   5.992   2.028   9.569  2.8372  0.1750 -0.6446
  820MOL0     H10681   5.880   2.017   9.358  1.0165  1.1269  1.0343
  820MOL0     H10682   5.948   1.877   8.936  0.8132 -0.6576 -1.7440
  820MOL0     H10683   5.878   1.906   8.704  0.7178  1.7335  1.7575
  820MOL0     H10684   4.538   1.953   7.640 -0.5473 -0.7912  0.8696
  820MOL0     H10685   4.344   1.812   7.556  0.2979 -1.6377 -1.2700
  820MOL0     H10686   3.984   1.850   7.235  2.0266 -1.0587 -3.9440
  820MOL0     H10687   3.771   1.778   7.185 -1.9763 -0.2042  3.3388
  820MOL0     H10688   3.654   1.569   7.014  1.7255 -0.3590  1.0804
  820MOL0     H10689   3.563   1.666   7.140  0.8345 -0.2899  1.9140
  820MOL0     H10690   3.410   1.479   7.182  0.4228 -1.7583 -0.0243
  820MOL0     H10691   3.504   1.380   7.084 -0.8139 -0.1825 -1.6384
  820MOL0     H10692   3.432   1.517   6.870 -1.0513  0.2753 -0.8284
  820MOL0     H10693   3.368   1.639   6.967  0.6539 -0.4994  0.4112
  820MOL0     H10694   3.174   1.501   7.030 -0.5356  1.1491  0.2459
  820MOL0     H10695   3.204   1.502   6.852  0.9538  2.3275  0.6515
  820MOL0     H10696   3.264   1.094   6.941  2.8105  0.2262 -0.6958
  820MOL0     H10697   3.877   1.380   7.288 -4.1120  1.3455 -1.3714
  820MOL0     H10698   4.083   1.314   7.369  1.1764  0.6851  4.1059
  820MOL0     H10699   4.206   1.405   7.280 -0.0050 -3.8830 -0.2979
  820MOL0     H10700   4.177   1.429   7.457 -1.3361  0.9447  0.9485
  821MOL0     O10701   3.044   7.824   8.006  0.0525  0.0131 -0.1663
  821MOL0     C10702   3.076   7.708   7.977  0.2551 -0.2766 -0.1477
  821MOL0     O10703   3.197   7.641   8.010  0.5180 -0.1104 -0.7601
  821MOL0     C10704   3.287   7.715   8.081 -0.0917 -0.3688  0.6138
  821MOL0     C10705   3.386   7.786   8.011  0.1064 -0.2788  0.0460
  821MOL0     C10706   3.496   7.844   8.082 -0.2116 -0.1395  0.1943
  821MOL0     C10707   3.514   7.824   8.223 -0.2450  0.6703  0.4069
  821MOL0     O10708   3.624   7.875   8.280  0.2347  0.0222  0.9131
  821MOL0     C10709   3.592   7.953   8.393 -0.6025 -0.6673  0.3135
  821MOL0     C10710   3.697   8.063   8.406  0.4309 -0.2864 -0.4967
  821MOL0     C10711   3.705   8.129   8.547 -0.0628 -0.4225  0.3133
  821MOL0     C10712   3.834   8.218   8.557 -0.0112  0.1977 -0.9000
  821MOL0     C10713   3.816   8.322   8.670 -0.7742  0.0637  0.3077
  821MOL0     C10714   3.948   8.388   8.717 -0.4500 -0.3527  0.3755
  821MOL0     C10715   3.943   8.523   8.777 -0.7762  0.0241 -0.6312
  821MOL0     C10716   3.866   8.630   8.703  0.4371 -0.0887 -0.2311
  821MOL0     N10717   3.900   8.657   8.563  1.3449  0.5251  0.3623
  821MOL0     C10718   3.979   8.759   8.518  0.1566 -0.3801 -0.9692
  821MOL0     C10719   3.981   8.746   8.382 -0.4086 -0.4591 -0.0403
  821MOL0     C10720   4.048   8.837   8.289 -0.7888 -0.6391 -0.1464
  821MOL0     C10721   4.192   8.882   8.335  0.1714 -0.1649  0.1566
  821MOL0     C10722   4.261   8.991   8.260  0.7447 -0.0739 -0.5499
  821MOL0     C10723   4.395   9.023   8.322 -0.8287  0.2125  0.8464
  821MOL0     O10724   4.395   9.103   8.435  0.1410 -0.1513 -0.3712
  821MOL0     C10725   4.509   9.163   8.486  0.9971 -0.0114 -0.4116
  821MOL0     C10726   4.493   9.245   8.599  0.4597 -0.3611  0.4381
  821MOL0     C10727   4.612   9.291   8.660 -0.2665  0.1350 -0.0305
  821MOL0     C10728   4.744   9.268   8.618 -0.9323 -0.2398 -0.3376
  821MOL0     C10729   4.865   9.316   8.693  0.0912  0.0911  0.0899
  821MOL0     O10730   4.984   9.280   8.638  0.1312 -0.4770  0.4532
  821MOL0     C10731   5.104   9.313   8.692  0.0205 -0.8306  0.3414
  821MOL0     C10732   5.210   9.339   8.600  0.0317  0.3726  0.0614
  821MOL0     C10733   5.346   9.358   8.640 -0.6033  0.7809  0.0624
  821MOL0     C10734   5.373   9.350   8.775 -0.2141  0.7606 -0.1424
  821MOL0     O10735   5.510   9.343   8.803  0.3081  0.0153  0.3426
  821MOL0     C10736   5.553   9.337   8.941  0.3958 -0.3307  0.3404
  821MOL0     C10737   5.698   9.389   8.952  0.7099 -0.0653 -0.2017
  821MOL0     C10738   5.713   9.545   8.972 -0.4446  0.2817 -0.8107
  821MOL0     C10739   5.867   9.560   8.970 -0.0548 -1.8063 -0.3503
  821MOL0     C10740   5.920   9.556   8.832  0.1965  0.1084 -0.0553
  821MOL0     C10741   6.070   9.560   8.825  0.4465 -0.1143 -0.1007
  821MOL0     C10742   6.130   9.427   8.874  0.8903 -0.3169  0.0839
  821MOL0     C10743   6.268   9.401   8.800  0.4055  1.1056 -0.1740
  821MOL0    Cl10744   6.396   9.514   8.837 -0.4940  0.2319 -0.0931
  821MOL0     C10745   5.274   9.323   8.873  0.0800 -0.2424  0.3883
  821MOL0     C10746   5.142   9.302   8.826  0.7190  0.2450 -0.4047
  821MOL0     O10747   4.847   9.394   8.788 -0.5812  0.3376 -0.1065
  821MOL0     C10748   4.749   9.183   8.509 -0.0332  0.1414 -1.1249
  821MOL0     C10749   4.642   9.132   8.444 -0.1282 -1.0497 -0.0323
  821MOL0     N10750   3.920   8.630   8.351  0.7894  0.2431  0.2613
  821MOL0     N10751   3.865   8.574   8.450  0.1370  0.0847 -0.0625
  821MOL0     C10752   3.417   7.756   8.290  0.3909 -0.3676 -0.1365
  821MOL0     C10753   3.304   7.706   8.221  0.1020  0.1062  0.5788
  821MOL0     C10754   2.980   7.629   7.894  0.4660 -0.2540  0.3987
  821MOL0     C10755   2.977   7.491   7.910  0.7533 -0.3997  0.0853
  821MOL0     C10756   2.876   7.408   7.852  0.3064 -1.1579  0.0901
  821MOL0     C10757   2.783   7.461   7.766 -0.3023  0.5407 -0.5419
  821MOL0     O10758   2.692   7.394   7.696  0.1728 -0.3988  0.2056
  821MOL0     C10759   2.672   7.253   7.713  0.5387  0.1804 -0.8599
  821MOL0     C10760   2.563   7.213   7.614 -0.9500  0.2576  0.8924
  821MOL0     C10761   2.419   7.257   7.645  0.8760 -0.1659  0.5837
  821MOL0     C10762   2.321   7.206   7.537 -0.7030 -0.1015  0.1590
  821MOL0     C10763   2.355   7.258   7.404 -0.4761  0.1750  0.1366
  821MOL0     C10764   2.386   7.303   7.299  0.3621  0.2368  0.4016
  821MOL0     C10765   2.783   7.603   7.743 -0.6427  0.3522 -0.0333
  821MOL0     C10766   2.881   7.684   7.804 -0.6946 -0.0178 -0.2755
  821MOL0     C10767   2.871   7.832   7.773 -0.5219  0.1606 -1.1485
  821MOL0     H10768   3.372   7.795   7.903 -1.7237  2.0914  0.4034
  821MOL0     H10769   3.574   7.888   8.020 -0.4235  0.9096  0.6428
  821MOL0     H10770   3.495   8.002   8.386  1.0544  3.3704  2.2158
  821MOL0     H10771   3.593   7.893   8.485  0.7864 -1.6045 -0.2652
  821MOL0     H10772   3.674   8.133   8.325 -2.4127  0.1982  0.6300
  821MOL0     H10773   3.796   8.020   8.388  1.4539  1.2620  1.0903
  821MOL0     H10774   3.719   8.053   8.625  1.7219  1.5394  2.0555
  821MOL0     H10775   3.608   8.181   8.555  1.8209  3.9258 -1.8874
  821MOL0     H10776   3.916   8.151   8.584  0.5407  0.7506 -1.2054
  821MOL0     H10777   3.857   8.270   8.464  2.2243 -1.3761 -1.3127
  821MOL0     H10778   3.741   8.394   8.636 -1.1654 -0.4121  0.1534
  821MOL0     H10779   3.766   8.279   8.756  0.4599 -1.5496  0.2593
  821MOL0     H10780   3.997   8.327   8.793  2.5309  2.1105  0.6445
  821MOL0     H10781   4.010   8.396   8.628  0.7717  1.0191  1.3088
  821MOL0     H10782   4.046   8.555   8.796 -1.0014  1.6684 -1.9398
  821MOL0     H10783   3.889   8.514   8.872  0.8201 -1.4048  0.2044
  821MOL0     H10784   3.757   8.623   8.710  0.3622  1.4021  0.4008
  821MOL0     H10785   3.887   8.724   8.754 -0.4276  1.6343 -2.8373
  821MOL0     H10786   4.028   8.837   8.576 -2.0654  0.1377  0.3472
  821MOL0     H10787   4.072   8.777   8.201 -1.5969 -2.4102  0.7909
  821MOL0     H10788   3.983   8.923   8.268 -0.5101 -0.6122 -0.9378
  821MOL0     H10789   4.176   8.914   8.439 -4.0137 -0.0481 -0.3893
  821MOL0     H10790   4.255   8.793   8.339  1.4418  0.5788 -1.7806
  821MOL0     H10791   4.194   9.077   8.257 -1.4714 -1.6835  0.3247
  821MOL0     H10792   4.274   8.951   8.160 -0.3511  1.0194 -1.1635
  821MOL0     H10793   4.454   9.067   8.241  2.5690 -0.4024  2.7632
  821MOL0     H10794   4.447   8.930   8.347 -2.3983 -0.8579  0.2924
  821MOL0     H10795   4.392   9.269   8.631 -0.2906 -1.3792 -1.0086
  821MOL0     H10796   4.598   9.340   8.755 -2.0445 -0.3870  0.0156
  821MOL0     H10797   5.190   9.343   8.494 -0.6290  1.5219  0.2182
  821MOL0     H10798   5.429   9.365   8.570  1.4212 -2.0148  1.9808
  821MOL0     H10799   5.488   9.397   9.006 -2.2493 -0.7818 -1.7692
  821MOL0     H10800   5.553   9.233   8.973 -2.2334 -0.8600 -1.1272
  821MOL0     H10801   5.753   9.336   9.031  1.2732  2.3362  1.1108
  821MOL0     H10802   5.748   9.333   8.873 -1.7738 -4.7134  1.1456
  821MOL0     H10803   5.663   9.596   8.890 -1.6926 -1.5657 -1.2677
  821MOL0     H10804   5.676   9.582   9.068  0.1192 -2.5508  0.6449
  821MOL0     H10805   5.902   9.478   9.034 -0.0682  0.6321  3.0904
  821MOL0     H10806   5.899   9.653   9.018 -2.1417 -1.5127  0.5752
  821MOL0     H10807   5.887   9.644   8.777  2.6185  0.5857 -0.9097
  821MOL0     H10808   5.886   9.467   8.778  1.2354  0.2953 -1.0548
  821MOL0     H10809   6.114   9.581   8.727  4.5214  0.9958  1.7410
  821MOL0     H10810   6.107   9.638   8.892 -2.3433  0.8184  0.4551
  821MOL0     H10811   6.061   9.343   8.870 -0.2979  0.6575 -0.6041
  821MOL0     H10812   6.140   9.439   8.983 -2.5681 -2.9000  0.8597
  821MOL0     H10813   6.299   9.308   8.850  2.6056  1.8317 -0.0636
  821MOL0     H10814   6.267   9.381   8.692  1.7671 -3.0096  0.3815
  821MOL0     H10815   5.288   9.330   8.981  1.6521 -1.1701  0.2807
  821MOL0     H10816   5.062   9.287   8.898  1.0109 -1.0830 -0.3320
  821MOL0     H10817   4.843   9.142   8.474  0.3959 -0.0322  0.1775
  821MOL0     H10818   4.668   9.057   8.371  0.8306 -1.3949  0.6367
  821MOL0     H10819   3.428   7.747   8.398 -0.0121  3.2276  0.3557
  821MOL0     H10820   3.219   7.662   8.272 -0.1422  0.5182  0.5315
  821MOL0     H10821   3.044   7.434   7.973 -1.0777 -2.0752  0.6117
  821MOL0     H10822   2.879   7.301   7.872 -2.2637 -1.5201 -1.0465
  821MOL0     H10823   2.647   7.217   7.813 -2.2179 -1.7876 -2.1244
  821MOL0     H10824   2.761   7.195   7.685 -0.0269  0.5726 -3.7826
  821MOL0     H10825   2.571   7.106   7.598 -0.0338  0.5579 -0.8916
  821MOL0     H10826   2.592   7.258   7.519  0.5814 -2.9158 -0.2636
  821MOL0     H10827   2.414   7.366   7.650  0.0910 -0.1395 -0.3956
  821MOL0     H10828   2.403   7.219   7.746  0.8434 -1.7648  0.0023
  821MOL0     H10829   2.319   7.097   7.537  0.9215 -0.1665  0.7677
  821MOL0     H10830   2.221   7.238   7.567 -0.5271 -0.4417  1.1196
  821MOL0     H10831   2.407   7.347   7.203  2.0108  1.7004  1.3766
  821MOL0     H10832   2.701   7.646   7.686  1.3470  1.5544 -2.1705
  821MOL0     H10833   2.836   7.842   7.670  0.9437 -0.6541 -1.7543
  821MOL0     H10834   2.804   7.887   7.838  1.9729  0.8527  1.0132
  821MOL0     H10835   2.976   7.864   7.767 -0.7884  1.8868  1.7960
  822MOL0     O10836  11.074   3.984   0.109 -0.2110  0.0710 -0.3639
  822MOL0     C10837  11.039   4.013  -0.003 -0.3940  1.1623 -0.4592
  822MOL0     O10838  11.129   4.014  -0.117  0.4083 -0.6094 -0.5404
  822MOL0     C10839  11.258   4.060  -0.114  0.1463  0.2757  0.2830
  822MOL0     C10840  11.345   4.082  -0.008 -1.0725  0.3317 -0.0404
  822MOL0     C10841  11.478   4.123  -0.026  0.0521  1.0212  0.0678
  822MOL0     C10842  11.529   4.153  -0.151  0.1643 -0.3438 -0.1905
  822MOL0     O10843  11.661   4.185  -0.161 -0.4473  1.2101  0.7303
  822MOL0     C10844  11.736   4.181  -0.281 -0.4281  0.7797  0.7843
  822MOL0     C10845  11.817   4.050  -0.299  0.3526 -0.5860 -0.4823
  822MOL0     C10846  11.907   4.009  -0.176  0.1813  0.7064 -0.5731
  822MOL0     C10847  12.028   4.101  -0.138  0.8352  0.6804 -0.2941
  822MOL0     C10848  12.086   4.069   0.004  0.5004  0.0863 -0.2564
  822MOL0     C10849  12.215   4.141   0.038  0.1456 -0.5844  0.1792
  822MOL0     C10850  12.231   4.155   0.188  0.0017 -0.5418  0.5699
  822MOL0     C10851  12.264   4.031   0.257 -0.7242 -0.4415  0.5929
  822MOL0     N10852  12.365   3.955   0.186 -0.3836 -0.3309 -0.0280
  822MOL0     C10853  12.486   3.986   0.134 -0.6494 -0.4935 -0.0503
  822MOL0     C10854  12.553   3.869   0.111  0.1808  0.1327  0.9091
  822MOL0     C10855  12.695   3.862   0.057  0.1208  0.1295 -0.5777
  822MOL0     C10856  12.791   3.928   0.155  0.0017  0.3486 -0.2278
  822MOL0     C10857  12.941   3.913   0.112  0.9267 -0.0037  0.1718
  822MOL0     C10858  13.045   3.983   0.207  0.9710 -0.2129 -0.0752
  822MOL0     O10859  13.165   3.911   0.209  0.6786 -0.7291 -0.7445
  822MOL0     C10860  13.265   3.935   0.294 -0.0145 -0.2309 -0.5465
  822MOL0     C10861  13.381   3.865   0.266 -0.0585 -0.4349  0.3004
  822MOL0     C10862  13.507   3.876   0.323  0.4870  1.3137  0.0665
  822MOL0     C10863  13.516   3.963   0.428  0.9078  0.0723  0.5276
  822MOL0     C10864  13.655   3.975   0.487 -0.3043  1.1405 -0.0243
  822MOL0     O10865  13.659   4.050   0.597 -0.2548  0.4573 -0.0217
  822MOL0     C10866  13.773   4.092   0.663 -0.1847 -0.4069 -0.1761
  822MOL0     C10867  13.763   4.206   0.731 -0.4003 -0.4328  0.2365
  822MOL0     C10868  13.867   4.261   0.807 -1.2207 -0.1220  0.4377
  822MOL0     C10869  13.989   4.193   0.816  0.0051 -0.2457 -0.2666
  822MOL0     O10870  14.103   4.236   0.876 -0.2942 -0.3479  0.3992
  822MOL0     C10871  14.098   4.368   0.935  0.1235  0.7450 -0.0966
  822MOL0     C10872  14.249   4.422   0.931  0.4601 -0.1607 -0.3762
  822MOL0     C10873  14.329   4.354   1.040 -0.0165 -0.5317 -0.4449
  822MOL0     C10874  14.476   4.407   1.049  0.3503 -0.8532 -0.8161
  822MOL0     C10875  14.572   4.295   1.109 -0.6795 -0.0518 -1.0920
  822MOL0     C10876  14.719   4.342   1.139  1.0585 -0.0170 -0.1217
  822MOL0     C10877  14.717   4.445   1.251  0.6761  0.1430 -0.1053
  822MOL0     C10878  14.853   4.506   1.256 -0.0927 -1.3284 -0.5685
  822MOL0    Cl10879  14.865   4.611   1.403  0.2833 -0.6023  0.0637
  822MOL0     C10880  13.992   4.064   0.758  0.0127 -0.3947 -0.4279
  822MOL0     C10881  13.888   4.010   0.686  0.1695  0.6672  0.9309
  822MOL0     O10882  13.750   3.930   0.418 -0.4011  0.0913 -0.0658
  822MOL0     C10883  13.406   4.040   0.463 -0.1261  0.3365 -0.4563
  822MOL0     C10884  13.278   4.025   0.402 -0.1609 -0.5658 -0.4815
  822MOL0     N10885  12.474   3.769   0.152 -0.4684 -0.0137 -0.2413
  822MOL0     N10886  12.361   3.819   0.184 -0.1204 -0.4146  0.1620
  822MOL0     C10887  11.436   4.137  -0.258 -1.2872 -0.5862  0.3043
  822MOL0     C10888  11.308   4.094  -0.241  0.8673  0.4890 -0.4961
  822MOL0     C10889  10.894   4.014  -0.020 -0.2909  0.0533  0.3808
  822MOL0     C10890  10.808   3.949   0.071  0.1963  0.7608  1.1726
  822MOL0     C10891  10.669   3.951   0.054 -0.0115 -0.7985 -0.6285
  822MOL0     C10892  10.606   4.033  -0.032  0.2229 -0.4753  0.1773
  822MOL0     O10893  10.464   4.062  -0.053 -0.1099  0.2599  0.6880
  822MOL0     C10894  10.373   3.984   0.032 -0.3042 -0.0992 -0.3695
  822MOL0     C10895  10.365   4.040   0.181  0.4477 -0.5045 -0.1856
  822MOL0     C10896  10.342   4.191   0.165  0.7988 -0.1104  0.7377
  822MOL0     C10897  10.277   4.234   0.292  0.0046  0.4924 -0.1524
  822MOL0     C10898  10.243   4.377   0.304  0.5436  0.2162 -0.0813
  822MOL0     C10899  10.206   4.488   0.308  0.2285 -0.5538 -0.3105
  822MOL0     C10900  10.688   4.094  -0.131  0.3841  0.4375 -0.7124
  822MOL0     C10901  10.825   4.086  -0.130 -0.5083  0.2484 -1.0607
  822MOL0     C10902  10.903   4.174  -0.223 -0.4562  0.0132  0.3605
  822MOL0     H10903  11.317   4.063   0.095 -1.3962 -0.6880 -0.3095
  822MOL0     H10904  11.527   4.134   0.070 -3.8998  1.1592  2.2693
  822MOL0     H10905  11.676   4.201  -0.371 -0.9357 -2.6992  0.1970
  822MOL0     H10906  11.811   4.260  -0.275 -1.6157  1.8705  1.9478
  822MOL0     H10907  11.877   4.059  -0.390  1.4649  0.9149  0.3653
  822MOL0     H10908  11.752   3.962  -0.306  1.3705 -1.5625  1.6599
  822MOL0     H10909  11.961   3.919  -0.205  0.5764  0.7138  0.1169
  822MOL0     H10910  11.846   3.993  -0.086 -0.2464  2.7391 -0.4534
  822MOL0     H10911  12.112   4.092  -0.207  0.4319 -1.4571 -0.5814
  822MOL0     H10912  11.988   4.203  -0.133  1.1712  0.7521  1.6160
  822MOL0     H10913  12.004   4.091   0.072  0.4204 -0.0371 -0.3124
  822MOL0     H10914  12.093   3.960   0.001 -4.0813 -0.3903 -0.0612
  822MOL0     H10915  12.298   4.092  -0.013 -0.9088 -2.9478  0.6256
  822MOL0     H10916  12.213   4.246   0.005  0.7087 -0.4836  0.4535
  822MOL0     H10917  12.145   4.197   0.242 -1.0535 -0.4880 -1.0802
  822MOL0     H10918  12.317   4.222   0.201  0.3296 -1.1938  1.9360
  822MOL0     H10919  12.308   4.059   0.354  0.1231  0.9843 -0.1736
  822MOL0     H10920  12.172   3.974   0.273 -2.3462  1.3924 -1.6316
  822MOL0     H10921  12.534   4.082   0.122 -0.2272 -0.7273 -0.2749
  822MOL0     H10922  12.723   3.757   0.047  0.7590  0.1476  0.8225
  822MOL0     H10923  12.701   3.905  -0.043 -1.9063 -0.5958 -1.0597
  822MOL0     H10924  12.768   4.035   0.161  1.2867  0.6680 -0.7696
  822MOL0     H10925  12.777   3.883   0.253 -0.0110 -3.5891 -1.8424
  822MOL0     H10926  12.953   3.947   0.009 -3.9272  1.5864 -0.0963
  822MOL0     H10927  12.962   3.806   0.120 -0.4002 -0.2807  0.1648
  822MOL0     H10928  13.012   3.989   0.311  1.7276 -2.6280  0.3545
  822MOL0     H10929  13.066   4.085   0.172  0.8383 -0.2312 -0.2107
  822MOL0     H10930  13.379   3.792   0.185  0.4402  1.0374 -1.0892
  822MOL0     H10931  13.587   3.806   0.301  1.3073  2.3857 -0.5394
  822MOL0     H10932  13.672   4.265   0.718 -1.6008 -2.3937 -0.7802
  822MOL0     H10933  13.853   4.357   0.856 -3.0624  1.5367 -2.9993
  822MOL0     H10934  14.046   4.435   0.866  0.0746  0.1431 -0.6512
  822MOL0     H10935  14.054   4.370   1.035  1.5357  3.1263  0.5525
  822MOL0     H10936  14.295   4.412   0.832  1.7488  1.1767  0.0561
  822MOL0     H10937  14.248   4.528   0.961  0.6483  0.2740 -1.8190
  822MOL0     H10938  14.275   4.365   1.135 -1.4254 -1.9724 -1.0427
  822MOL0     H10939  14.333   4.247   1.015  2.6177 -0.6574  0.2257
  822MOL0     H10940  14.483   4.498   1.109  2.4978 -0.4231 -1.6029
  822MOL0     H10941  14.510   4.434   0.948  0.8241  2.7269  0.1835
  822MOL0     H10942  14.571   4.210   1.041 -1.9749 -3.3735  2.6582
  822MOL0     H10943  14.543   4.253   1.206  2.5035  0.1769  0.0970
  822MOL0     H10944  14.791   4.263   1.165  1.6783  0.2021 -1.1157
  822MOL0     H10945  14.756   4.390   1.048 -0.3520  1.7826  0.2022
  822MOL0     H10946  14.703   4.392   1.345 -1.1189 -1.1289 -1.0244
  822MOL0     H10947  14.638   4.519   1.239  0.9058  0.4560  0.2971
  822MOL0     H10948  14.932   4.431   1.266  2.7879  1.7971  3.2112
  822MOL0     H10949  14.875   4.563   1.165 -1.0203 -0.7297 -0.4325
  822MOL0     H10950  14.087   4.016   0.775  1.3305  2.3311  0.5083
  822MOL0     H10951  13.906   3.918   0.630 -0.9576  0.6126  0.6364
  822MOL0     H10952  13.414   4.111   0.545 -1.5644  0.7120 -0.5991
  822MOL0     H10953  13.196   4.071   0.457 -1.1105 -0.5103 -1.9092
  822MOL0     H10954  11.470   4.166  -0.358  2.1857 -0.9068  1.2373
  822MOL0     H10955  11.242   4.096  -0.327  0.5124  0.2108 -0.2322
  822MOL0     H10956  10.842   3.879   0.147  2.7682  0.1177 -0.4099
  822MOL0     H10957  10.604   3.890   0.115 -0.6739  0.0124 -0.5041
  822MOL0     H10958  10.404   3.879   0.024 -1.7887 -0.4170 -4.2508
  822MOL0     H10959  10.272   3.998  -0.009 -1.6385 -0.9543  2.3810
  822MOL0     H10960  10.459   4.014   0.231  1.0422 -0.1784 -1.0965
  822MOL0     H10961  10.279   3.997   0.231 -0.0843 -1.1307 -1.5756
  822MOL0     H10962  10.273   4.200   0.081  1.1224  0.3138  0.5173
  822MOL0     H10963  10.435   4.247   0.158 -2.2506  5.3892 -2.7293
  822MOL0     H10964  10.180   4.187   0.303  0.3631  0.2899  3.4606
  822MOL0     H10965  10.341   4.216   0.379  0.4321 -2.6243 -1.0035
  822MOL0     H10966  10.192   4.594   0.322  1.1998 -0.3593 -0.6974
  822MOL0     H10967  10.641   4.149  -0.213 -0.0247  1.6446  0.3058
  822MOL0     H10968  10.832   4.225  -0.290 -0.5232 -1.5864 -0.8406
  822MOL0     H10969  10.952   4.252  -0.164 -1.8126 -0.4004  2.1447
  822MOL0     H10970  10.973   4.117  -0.285  0.4944  0.8404  0.6531
  823MOL0     O10971   4.434  10.292   9.463  0.1926 -0.3892  0.1468
  823MOL0     C10972   4.318  10.291   9.496 -0.5194  0.0225  0.6349
  823MOL0     O10973   4.271  10.374   9.598 -1.0372 -0.6649 -0.8666
  823MOL0     C10974   4.344  10.488   9.626 -0.4549 -0.3116  1.1906
  823MOL0     C10975   4.360  10.581   9.525 -0.0308  0.1939 -0.9014
  823MOL0     C10976   4.446  10.680   9.540 -0.9457 -0.7092 -0.2044
  823MOL0     C10977   4.519  10.702   9.655  0.7209  0.9766  0.8129
  823MOL0     O10978   4.595  10.815   9.661  0.0807  0.7654 -0.2498
  823MOL0     C10979   4.632  10.870   9.790  0.7043  0.3590 -0.3362
  823MOL0     C10980   4.715  10.994   9.764 -0.4593 -0.4609 -0.7169
  823MOL0     C10981   4.856  10.956   9.710 -0.1035 -0.0133 -0.2576
  823MOL0     C10982   4.963  10.986   9.807 -0.5522  1.0761 -0.5804
  823MOL0     C10983   5.094  10.935   9.758 -0.0381  0.8344  0.5788
  823MOL0     C10984   5.207  10.977   9.853 -0.0515  0.4760 -0.0001
  823MOL0     C10985   5.338  10.964   9.784 -0.5134 -0.4882  0.4573
  823MOL0     C10986   5.466  10.974   9.880 -0.3217 -0.6437  0.2914
  823MOL0     N10987   5.508  10.848   9.944  0.3210 -0.0309 -0.3081
  823MOL0     C10988   5.427  10.761  10.016 -0.3768 -0.3802  0.4680
  823MOL0     C10989   5.500  10.653  10.055 -0.8142  0.5880  0.5550
  823MOL0     C10990   5.477  10.529  10.133  0.0729 -0.3191 -0.0972
  823MOL0     C10991   5.389  10.431  10.058 -0.0702  0.4379 -0.4799
  823MOL0     C10992   5.237  10.473  10.063 -0.0845  0.6657  0.2743
  823MOL0     C10993   5.147  10.360  10.014 -0.5098 -0.0795 -0.3514
  823MOL0     O10994   5.177  10.230  10.075 -0.1178 -0.2092  0.0922
  823MOL0     C10995   5.078  10.136  10.073  0.3806 -0.3783 -0.8152
  823MOL0     C10996   4.980  10.124   9.971  0.4882 -1.0125  0.4249
  823MOL0     C10997   4.883  10.025   9.973  0.8220 -0.6871 -0.7830
  823MOL0     C10998   4.893   9.926  10.070  0.5248  0.4736 -0.3587
  823MOL0     C10999   4.787   9.812  10.066  0.2386  0.3329 -0.9509
  823MOL0     O11000   4.696   9.825   9.980  0.4679 -0.1443  0.4014
  823MOL0     C11001   4.597   9.726   9.974  0.4877  0.1113  0.3065
  823MOL0     C11002   4.581   9.653   9.860  0.4139 -0.1972 -0.5887
  823MOL0     C11003   4.466   9.572   9.844 -0.7099 -0.6491  0.3177
  823MOL0     C11004   4.357   9.572   9.930 -0.7300  0.0906 -0.0480
  823MOL0     O11005   4.235   9.520   9.902 -0.4555 -0.0958 -0.6869
  823MOL0     C11006   4.209   9.441   9.790 -0.9482  0.0406  0.6314
  823MOL0     C11007   4.077   9.377   9.799 -0.0860  0.0081  0.3824
  823MOL0     C11008   4.077   9.287   9.930  0.2781  0.3370  1.1360
  823MOL0     C11009   3.947   9.199   9.933  0.4939 -0.0917  0.1597
  823MOL0     C11010   3.930   9.133  10.073 -0.3457 -0.1074 -0.5204
  823MOL0     C11011   4.054   9.056  10.111  0.2601 -0.5169  0.2864
  823MOL0     C11012   4.109   8.954  10.003 -0.6531 -1.0743  0.5311
  823MOL0     C11013   4.226   8.873  10.061 -0.5940 -0.1564  0.4628
  823MOL0    Cl11014   4.292   8.772   9.930 -0.2825  0.0774  0.1108
  823MOL0     C11015   4.373   9.655  10.034 -0.1540 -0.9080 -0.1692
  823MOL0     C11016   4.485   9.737  10.057  0.2977 -0.1166  1.1561
  823MOL0     O11017   4.791   9.727  10.155  0.0232 -0.1739 -0.1763
  823MOL0     C11018   4.995   9.928  10.167  0.1277 -0.1809 -0.0373
  823MOL0     C11019   5.088  10.029  10.171 -0.7786  0.1047 -0.6891
  823MOL0     N11020   5.631  10.669   9.999  1.1557  0.1695 -0.0529
  823MOL0     N11021   5.635  10.788   9.941 -0.3595  0.6842 -0.2680
  823MOL0     C11022   4.505  10.606   9.758  1.1808 -0.2860 -0.9071
  823MOL0     C11023   4.415  10.497   9.746 -0.5027  0.5090  0.3951
  823MOL0     C11024   4.218  10.201   9.427 -0.0907 -0.4785 -0.1400
  823MOL0     C11025   4.080  10.212   9.455 -0.0033  0.3821  0.6840
  823MOL0     C11026   3.983  10.131   9.393  0.0704  0.2159 -0.2636
  823MOL0     C11027   4.021  10.037   9.303 -0.9823 -0.5384  0.3234
  823MOL0     O11028   3.940   9.936   9.248 -0.4170 -0.0693 -0.3451
  823MOL0     C11029   3.796   9.939   9.275  0.3044  0.3342 -0.2780
  823MOL0     C11030   3.722  10.025   9.175  0.3363  0.5077  0.1644
  823MOL0     C11031   3.572  10.039   9.197 -0.0462  0.3050  0.4172
  823MOL0     C11032   3.494   9.916   9.197  1.1636 -0.4618 -0.0137
  823MOL0     C11033   3.353   9.950   9.174 -0.7002  0.3654 -0.6850
  823MOL0     C11034   3.251  10.007   9.166  0.3353 -0.1158  0.4648
  823MOL0     C11035   4.154  10.025   9.267 -0.5710  0.7406  0.1742
  823MOL0     C11036   4.256  10.105   9.333  0.9182  0.1195  0.2273
  823MOL0     C11037   4.389  10.090   9.274 -0.3684  0.1299  0.1546
  823MOL0     H11038   4.302  10.592   9.434 -0.7478  3.2815 -0.2020
  823MOL0     H11039   4.449  10.758   9.465  0.6097  0.3141  0.8485
  823MOL0     H11040   4.543  10.899   9.847 -0.3386 -2.6478 -0.2617
  823MOL0     H11041   4.688  10.799   9.851 -0.9465 -0.1481  0.6530
  823MOL0     H11042   4.723  11.066   9.846  1.1639 -0.7307 -0.6118
  823MOL0     H11043   4.677  11.053   9.680  1.5779 -1.2554 -2.2890
  823MOL0     H11044   4.866  11.003   9.611  2.7662 -2.2053 -1.1580
  823MOL0     H11045   4.858  10.850   9.684  1.9419  0.0309 -0.4467
  823MOL0     H11046   4.981  11.092   9.827  0.2569  0.4906  2.1355
  823MOL0     H11047   4.942  10.950   9.908  2.1969 -0.2473 -0.3808
  823MOL0     H11048   5.090  10.826   9.747  1.0157  0.9549 -1.9200
  823MOL0     H11049   5.108  10.962   9.653  1.3872 -0.8276  0.2849
  823MOL0     H11050   5.196  11.084   9.873  0.6522  1.0437 -2.3424
  823MOL0     H11051   5.191  10.923   9.946 -3.5271  0.6883 -0.3302
  823MOL0     H11052   5.344  11.046   9.711 -1.2848  0.0686  1.0069
  823MOL0     H11053   5.344  10.870   9.729  0.2612 -0.9881  1.3597
  823MOL0     H11054   5.548  11.001   9.814 -1.0044  0.1780 -0.2364
  823MOL0     H11055   5.440  11.054   9.950 -1.5791  0.8364 -1.7810
  823MOL0     H11056   5.324  10.772  10.048 -0.6065 -0.4796 -0.2084
  823MOL0     H11057   5.572  10.478  10.153  0.6987  0.2351 -1.5128
  823MOL0     H11058   5.442  10.555  10.234  2.1370  0.9678  0.3509
  823MOL0     H11059   5.420  10.421   9.954 -1.3561  1.0027 -0.9355
  823MOL0     H11060   5.398  10.331  10.102 -2.3562  0.5733  0.4308
  823MOL0     H11061   5.217  10.562  10.003 -1.7555 -0.2689 -0.6035
  823MOL0     H11062   5.203  10.498  10.164  1.4835  1.2179  0.6985
  823MOL0     H11063   5.149  10.351   9.905  3.3096  1.1456 -0.5283
  823MOL0     H11064   5.047  10.383  10.052  0.8338 -0.2471  3.8807
  823MOL0     H11065   4.977  10.203   9.897  1.8197 -0.5389  0.8574
  823MOL0     H11066   4.798  10.014   9.906 -1.2244  2.0267  1.1156
  823MOL0     H11067   4.658   9.635   9.786 -0.3210 -2.8461 -0.8243
  823MOL0     H11068   4.444   9.513   9.756  0.3972 -1.6288  0.6629
  823MOL0     H11069   4.215   9.499   9.697  1.2375 -0.9647  0.0865
  823MOL0     H11070   4.270   9.351   9.782 -1.1753 -0.3047  2.4467
  823MOL0     H11071   4.005   9.459   9.808 -0.3893 -0.3117  0.9215
  823MOL0     H11072   4.057   9.310   9.714 -2.8396 -0.6984  1.4789
  823MOL0     H11073   4.164   9.221   9.925  0.0358  0.0676  0.3478
  823MOL0     H11074   4.086   9.358  10.013 -0.5641  0.9353  0.7335
  823MOL0     H11075   3.953   9.125   9.853  0.1502  1.1623 -1.0518
  823MOL0     H11076   3.861   9.266   9.925  1.2578  1.2074  1.8741
  823MOL0     H11077   3.852   9.058  10.058 -1.2532  0.7352 -0.1447
  823MOL0     H11078   3.897   9.208  10.146  0.0673  0.4906 -0.9334
  823MOL0     H11079   4.120   9.136  10.146 -0.5270  0.2117  0.1288
  823MOL0     H11080   4.016   9.005  10.199 -1.3071 -1.9276 -1.1280
  823MOL0     H11081   4.141   9.000   9.909  1.0280 -3.5105 -0.1881
  823MOL0     H11082   4.034   8.882   9.970 -0.2591 -0.1489 -2.7567
  823MOL0     H11083   4.303   8.935  10.107 -0.3202 -1.6568  2.1561
  823MOL0     H11084   4.188   8.808  10.141  0.7881 -1.7316 -0.0796
  823MOL0     H11085   4.295   9.668  10.108  0.2353 -0.2581  0.1439
  823MOL0     H11086   4.474   9.811  10.136 -1.6179  0.3523  0.5015
  823MOL0     H11087   5.006   9.855  10.246  1.9879  0.8549  0.7240
  823MOL0     H11088   5.163  10.030  10.249 -2.2572 -0.0706  0.7839
  823MOL0     H11089   4.563  10.614   9.850 -0.4570 -0.7443  0.2004
  823MOL0     H11090   4.415  10.417   9.819  0.2982 -0.9553 -1.1254
  823MOL0     H11091   4.045  10.288   9.525  0.9164  1.4828 -0.0144
  823MOL0     H11092   3.879  10.164   9.397  0.1023  0.2106  2.7653
  823MOL0     H11093   3.765   9.975   9.373 -2.2018 -3.1044  0.3715
  823MOL0     H11094   3.748   9.841   9.281 -2.2287  1.5920  3.8249
  823MOL0     H11095   3.732   9.980   9.076  3.4505 -1.6862  1.3356
  823MOL0     H11096   3.759  10.128   9.182 -1.2495  1.0777  0.7318
  823MOL0     H11097   3.535  10.107   9.120  2.0263  0.5752 -0.4105
  823MOL0     H11098   3.560  10.088   9.294 -2.4757  1.5126 -0.4170
  823MOL0     H11099   3.526   9.840   9.125  3.5905  0.7707 -0.3759
  823MOL0     H11100   3.506   9.876   9.298  4.9897  1.2333  0.3783
  823MOL0     H11101   3.158  10.054   9.140  0.4986 -0.7673 -1.5142
  823MOL0     H11102   4.182   9.953   9.191  3.4423  1.9168  0.2878
  823MOL0     H11103   4.420  10.178   9.219  2.2212 -0.3448  0.7216
  823MOL0     H11104   4.467  10.077   9.350 -2.5310 -0.8112  2.3809
  823MOL0     H11105   4.388  10.005   9.205 -1.2975  1.2782 -1.2849
  824MOL0     O11106   2.818   7.004   1.289  0.2700 -0.2177 -0.4021
  824MOL0     C11107   2.806   6.888   1.311  0.2785 -0.0197  0.8846
  824MOL0     O11108   2.910   6.801   1.336  0.7389  0.0899 -0.1320
  824MOL0     C11109   3.034   6.853   1.347 -0.7343 -0.8761 -0.0209
  824MOL0     C11110   3.128   6.772   1.289 -0.9767 -0.2757  0.1464
  824MOL0     C11111   3.260   6.803   1.308  0.7842 -0.2825  0.2356
  824MOL0     C11112   3.302   6.920   1.372  0.5622  0.3674 -0.5887
  824MOL0     O11113   3.431   6.932   1.383 -0.8354  0.3003  0.0480
  824MOL0     C11114   3.484   7.065   1.390  0.4291 -0.4367  0.6918
  824MOL0     C11115   3.636   7.050   1.386 -0.1384  0.1420 -0.4978
  824MOL0     C11116   3.709   7.175   1.427  1.3994  0.2105 -0.4109
  824MOL0     C11117   3.838   7.133   1.490 -0.4480 -0.1781 -0.0762
  824MOL0     C11118   3.937   7.247   1.494 -0.9185  0.7002 -0.0852
  824MOL0     C11119   4.065   7.211   1.573 -0.3945 -0.0308 -0.3986
  824MOL0     C11120   4.136   7.332   1.638  0.0177 -0.4830 -0.4499
  824MOL0     C11121   4.204   7.412   1.534  0.8151  0.0908  0.3868
  824MOL0     N11122   4.326   7.348   1.492 -0.6010  0.1537 -0.1778
  824MOL0     C11123   4.438   7.361   1.571  0.5081  0.1199  0.4475
  824MOL0     C11124   4.534   7.289   1.503 -1.2823 -0.1597 -0.0140
  824MOL0     C11125   4.678   7.292   1.544  0.8887  0.1403 -0.3355
  824MOL0     C11126   4.750   7.414   1.477  0.5769 -0.4561 -0.2284
  824MOL0     C11127   4.811   7.388   1.338 -0.3754 -0.7902  0.1489
  824MOL0     C11128   4.932   7.474   1.310  0.5694  0.0819 -0.8994
  824MOL0     O11129   4.987   7.434   1.185 -0.0526 -0.3872 -0.2064
  824MOL0     C11130   5.093   7.502   1.135  0.1067  0.3210  0.3183
  824MOL0     C11131   5.157   7.610   1.191 -0.7923 -0.5354 -0.0063
  824MOL0     C11132   5.278   7.655   1.124 -0.5634  0.2873 -0.3149
  824MOL0     C11133   5.322   7.607   0.996 -0.1126 -0.3018  0.0477
  824MOL0     C11134   5.451   7.648   0.937 -0.3139  0.2009  0.1296
  824MOL0     O11135   5.502   7.578   0.832 -0.1057  0.2046 -0.5782
  824MOL0     C11136   5.633   7.590   0.792  0.0445  0.7907 -0.3423
  824MOL0     C11137   5.731   7.492   0.822 -0.0053  0.4945  0.0481
  824MOL0     C11138   5.857   7.498   0.770  0.2417  0.6486  0.1140
  824MOL0     C11139   5.885   7.595   0.676 -1.1572 -0.1921 -0.2334
  824MOL0     O11140   6.002   7.604   0.613 -0.4064  0.5733  0.2700
  824MOL0     C11141   6.119   7.549   0.673 -0.9743  0.4537  0.2440
  824MOL0     C11142   6.235   7.594   0.589 -0.3195 -0.1338  0.9826
  824MOL0     C11143   6.242   7.523   0.446  0.6755 -0.4867 -0.5289
  824MOL0     C11144   6.375   7.581   0.388 -0.3500 -0.5726 -0.0887
  824MOL0     C11145   6.431   7.496   0.264  0.6494  0.7594  0.8339
  824MOL0     C11146   6.542   7.577   0.199 -0.1827  0.3698 -0.0301
  824MOL0     C11147   6.595   7.516   0.064  0.6116 -0.4666 -0.9842
  824MOL0     C11148   6.669   7.377   0.077  0.3760 -1.2168  0.3352
  824MOL0    Cl11149   6.755   7.351  -0.070  0.5407 -0.2049  0.0285
  824MOL0     C11150   5.794   7.697   0.654  0.0556  0.1243 -0.1798
  824MOL0     C11151   5.663   7.693   0.708 -0.0294 -0.1498  0.5412
  824MOL0     O11152   5.506   7.736   1.001 -0.1614 -0.1039  0.4705
  824MOL0     C11153   5.249   7.507   0.938  1.0475  1.4405 -0.3757
  824MOL0     C11154   5.130   7.460   1.006 -0.2523 -0.2269 -0.5447
  824MOL0     N11155   4.466   7.230   1.396  0.2833 -0.6096 -0.4546
  824MOL0     N11156   4.344   7.273   1.392  0.6541  0.1865  0.4259
  824MOL0     C11157   3.211   7.009   1.426  0.3397 -0.1650  0.8359
  824MOL0     C11158   3.070   6.972   1.415 -0.1255  0.0038 -0.6897
  824MOL0     C11159   2.670   6.820   1.298  0.8429  0.1596  0.2882
  824MOL0     C11160   2.664   6.683   1.270 -0.3933 -0.4734  0.6350
  824MOL0     C11161   2.547   6.611   1.246 -0.9088 -0.0480  0.0459
  824MOL0     C11162   2.424   6.668   1.265 -0.4090  0.0829 -0.7905
  824MOL0     O11163   2.314   6.591   1.241 -0.3046  0.1557 -0.0384
  824MOL0     C11164   2.184   6.647   1.234  0.6931 -0.0685 -0.8233
  824MOL0     C11165   2.084   6.533   1.219 -0.2448  0.3036  0.1695
  824MOL0     C11166   1.950   6.571   1.158  0.8372  0.5902  0.2069
  824MOL0     C11167   1.870   6.448   1.103  0.1044  0.1428 -0.1150
  824MOL0     C11168   1.745   6.488   1.023  0.2779 -0.3934 -1.6545
  824MOL0     C11169   1.655   6.529   0.963  0.3937 -0.6262  0.5434
  824MOL0     C11170   2.418   6.802   1.302  0.1453  0.3195 -0.2450
  824MOL0     C11171   2.540   6.877   1.314 -0.5271  1.0672 -0.5295
  824MOL0     C11172   2.520   7.026   1.348  0.4000  0.5281  0.8678
  824MOL0     H11173   3.094   6.680   1.243  0.6767 -0.4828 -0.7283
  824MOL0     H11174   3.334   6.729   1.281  3.2550  1.7306  1.0167
  824MOL0     H11175   3.453   7.121   1.301 -0.8621 -2.6233 -0.3121
  824MOL0     H11176   3.456   7.119   1.482  0.7520 -0.6207  0.8991
  824MOL0     H11177   3.663   7.026   1.283  1.1408  1.9390 -0.6300
  824MOL0     H11178   3.673   6.970   1.452  1.8718  0.1122 -1.5746
  824MOL0     H11179   3.643   7.228   1.497 -2.0770 -2.9131 -1.0088
  824MOL0     H11180   3.735   7.235   1.339  1.2341  0.8944  0.0013
  824MOL0     H11181   3.820   7.104   1.594 -1.2392  3.4747  0.9398
  824MOL0     H11182   3.888   7.056   1.430 -1.6232 -0.9936 -0.0600
  824MOL0     H11183   3.964   7.276   1.392  0.4740 -0.1430  0.0163
  824MOL0     H11184   3.892   7.337   1.538  2.3352  1.9007  1.1502
  824MOL0     H11185   4.040   7.144   1.656  0.7416 -2.6807 -2.0833
  824MOL0     H11186   4.137   7.162   1.508  0.1701  3.8395 -3.0051
  824MOL0     H11187   4.215   7.284   1.696 -2.0041 -1.1882  1.8879
  824MOL0     H11188   4.068   7.402   1.687  1.9095  2.3046 -1.5588
  824MOL0     H11189   4.146   7.424   1.442  1.1090  0.5942  0.2623
  824MOL0     H11190   4.230   7.506   1.584  1.2568 -0.6085  1.5174
  824MOL0     H11191   4.451   7.430   1.654  3.1789 -0.4791  0.6109
  824MOL0     H11192   4.687   7.302   1.653  0.7249 -2.2582 -0.0285
  824MOL0     H11193   4.731   7.200   1.517 -0.5774 -1.5457  2.0958
  824MOL0     H11194   4.680   7.498   1.473  0.4789 -0.4774  0.7316
  824MOL0     H11195   4.835   7.451   1.535  2.2886 -0.6989 -2.4572
  824MOL0     H11196   4.736   7.398   1.259  2.9370  0.7939 -3.0870
  824MOL0     H11197   4.845   7.284   1.340  0.9698 -0.4071 -1.4687
  824MOL0     H11198   5.004   7.466   1.392  0.0882  1.4294 -0.3180
  824MOL0     H11199   4.895   7.576   1.300  3.6205  1.2920 -0.7312
  824MOL0     H11200   5.130   7.654   1.287 -0.4895 -0.9316  0.2653
  824MOL0     H11201   5.339   7.724   1.181 -0.2025 -0.6317  0.4311
  824MOL0     H11202   5.702   7.413   0.890 -0.2883  1.1057  0.6471
  824MOL0     H11203   5.924   7.417   0.798 -3.5898 -3.2617 -1.0780
  824MOL0     H11204   6.143   7.573   0.777  0.2716  0.5803 -0.0605
  824MOL0     H11205   6.127   7.440   0.680  2.8900  0.6409  1.3013
  824MOL0     H11206   6.246   7.703   0.586  2.3463 -0.3357 -2.9766
  824MOL0     H11207   6.321   7.565   0.651  0.2878  1.5658  0.9944
  824MOL0     H11208   6.248   7.415   0.459 -2.4272 -0.6131  0.9224
  824MOL0     H11209   6.151   7.543   0.388  2.1466  0.8525 -2.4962
  824MOL0     H11210   6.451   7.572   0.465 -0.7037  0.6064  0.4162
  824MOL0     H11211   6.351   7.687   0.373  0.6901 -0.4228 -0.7788
  824MOL0     H11212   6.355   7.471   0.190  0.6720 -0.5035  1.2165
  824MOL0     H11213   6.477   7.405   0.303  2.3942  0.4695 -1.6776
  824MOL0     H11214   6.500   7.675   0.174  3.7699  3.2191  3.1940
  824MOL0     H11215   6.627   7.584   0.267 -0.9152 -2.4735  1.3349
  824MOL0     H11216   6.656   7.597   0.023 -1.4567  1.4964 -0.3963
  824MOL0     H11217   6.516   7.496  -0.009 -0.7880 -2.3069  0.9116
  824MOL0     H11218   6.749   7.396   0.150  1.6690  0.3308 -1.3581
  824MOL0     H11219   6.592   7.308   0.109 -0.7750  0.0583  0.4049
  824MOL0     H11220   5.822   7.775   0.584  3.0476 -1.1386 -0.5463
  824MOL0     H11221   5.591   7.768   0.676 -0.5095 -0.0110  1.8698
  824MOL0     H11222   5.289   7.466   0.846 -1.1994 -1.0367 -0.3723
  824MOL0     H11223   5.073   7.384   0.955 -1.5494 -0.4764  1.1821
  824MOL0     H11224   3.235   7.102   1.475  2.6300  1.6397 -3.1902
  824MOL0     H11225   2.989   7.037   1.449 -1.1058 -1.1811 -0.6966
  824MOL0     H11226   2.748   6.617   1.248  0.4841  0.8234 -0.0747
  824MOL0     H11227   2.554   6.505   1.225  2.8706  0.0371  0.1494
  824MOL0     H11228   2.162   6.715   1.151 -0.2964  0.1867 -0.3689
  824MOL0     H11229   2.153   6.695   1.327 -0.4259  0.2411 -1.3318
  824MOL0     H11230   2.069   6.476   1.311  0.0509 -0.7776 -0.4326
  824MOL0     H11231   2.127   6.463   1.147 -2.0496  0.6085 -1.2637
  824MOL0     H11232   1.961   6.638   1.072 -0.9511  2.0832  1.0973
  824MOL0     H11233   1.905   6.628   1.239  1.9921  2.6152 -0.4866
  824MOL0     H11234   1.943   6.397   1.039  0.4525  0.1068  0.3033
  824MOL0     H11235   1.848   6.385   1.190  0.3477  1.0946  0.6509
  824MOL0     H11236   1.566   6.575   0.926  1.4475 -0.4499 -1.9548
  824MOL0     H11237   2.324   6.855   1.296  0.7005  1.4977  0.7433
  824MOL0     H11238   2.414   7.053   1.343  0.7265  1.7049 -0.1616
  824MOL0     H11239   2.559   7.037   1.450  0.9999 -1.5524  0.9138
  824MOL0     H11240   2.580   7.088   1.281 -1.2318  0.4193 -0.7544
  825MOL0     O11241   2.134   6.163   0.510  0.1904 -0.0709  0.2605
  825MOL0     C11242   2.116   6.274   0.558 -0.1916  0.2194  0.2029
  825MOL0     O11243   2.197   6.323   0.643  0.3050 -0.2980  0.0001
  825MOL0     C11244   2.331   6.294   0.629  0.0550 -0.0838  0.3366
  825MOL0     C11245   2.413   6.401   0.600 -0.6813 -1.2763  0.1877
  825MOL0     C11246   2.547   6.386   0.615  0.0915 -0.3607 -0.2448
  825MOL0     C11247   2.605   6.257   0.643  1.0225  0.4246 -0.2702
  825MOL0     O11248   2.735   6.237   0.663  0.6219 -0.3680  0.1935
  825MOL0     C11249   2.816   6.349   0.654 -0.7173  0.7842 -1.3027
  825MOL0     C11250   2.945   6.317   0.741  0.9031  0.5416  0.3247
  825MOL0     C11251   3.022   6.207   0.677 -0.4834  0.2651  0.0654
  825MOL0     C11252   3.160   6.181   0.733 -0.0002 -0.3499  0.9761
  825MOL0     C11253   3.238   6.090   0.643 -0.7501  0.2544  0.2849
  825MOL0     C11254   3.361   6.033   0.700 -0.3057  0.1238  0.2474
  825MOL0     C11255   3.465   6.136   0.750 -0.1828  0.2578  0.5001
  825MOL0     C11256   3.559   6.070   0.842  0.0352 -0.0954 -0.1891
  825MOL0     N11257   3.676   6.159   0.858  0.5508 -0.4393 -0.4788
  825MOL0     C11258   3.681   6.298   0.877  0.4249  0.4528 -0.3788
  825MOL0     C11259   3.813   6.319   0.857 -0.2982 -0.7189 -0.4591
  825MOL0     C11260   3.869   6.459   0.862  0.8801 -0.2714  0.1459
  825MOL0     C11261   3.972   6.498   0.972  0.3198  0.3885  0.6295
  825MOL0     C11262   4.106   6.415   0.968 -0.0107 -0.8868 -0.5310
  825MOL0     C11263   4.204   6.477   1.073 -0.1525  0.2856 -0.0471
  825MOL0     O11264   4.332   6.420   1.084  0.3777  0.4162 -0.4445
  825MOL0     C11265   4.441   6.491   1.149 -0.6380 -0.1850  0.0958
  825MOL0     C11266   4.508   6.427   1.257  0.0433 -0.9304  0.2977
  825MOL0     C11267   4.624   6.493   1.306 -0.1330 -0.6826  0.1240
  825MOL0     C11268   4.663   6.621   1.262  0.9996 -0.6362 -0.5578
  825MOL0     C11269   4.794   6.675   1.298 -0.0723 -0.1935  0.4446
  825MOL0     O11270   4.850   6.774   1.223  0.1128  0.6700 -0.0665
  825MOL0     C11271   4.978   6.818   1.268  0.1778  0.1797  0.1907
  825MOL0     C11272   5.008   6.956   1.284 -0.2581  0.2959 -0.8521
  825MOL0     C11273   5.133   7.015   1.307 -0.0649  0.2298 -0.0904
  825MOL0     C11274   5.251   6.935   1.313  0.5263  0.2932 -1.1811
  825MOL0     O11275   5.378   6.983   1.343  0.1230  0.1312  0.2306
  825MOL0     C11276   5.392   7.112   1.407 -0.2988 -0.0475  0.1996
  825MOL0     C11277   5.538   7.152   1.417 -0.0072  0.0991 -0.0113
  825MOL0     C11278   5.607   7.179   1.288 -0.2320  0.1472  0.7571
  825MOL0     C11279   5.737   7.252   1.299  0.5743  0.4695  0.0592
  825MOL0     C11280   5.852   7.163   1.350  0.4722  0.1107  0.5037
  825MOL0     C11281   5.980   7.233   1.350 -0.5917  0.4268  0.4528
  825MOL0     C11282   6.101   7.154   1.389  0.3038  1.0521 -0.0550
  825MOL0     C11283   6.238   7.215   1.360 -0.9989 -0.7378 -0.1192
  825MOL0    Cl11284   6.240   7.356   1.470  0.2195 -0.4856  0.0986
  825MOL0     C11285   5.230   6.796   1.311 -0.0668 -0.2046  0.5306
  825MOL0     C11286   5.101   6.741   1.287 -0.3617 -0.3602 -0.1168
  825MOL0     O11287   4.844   6.633   1.401 -1.1769  0.3817  0.7872
  825MOL0     C11288   4.590   6.676   1.163  0.0246  0.5766 -0.7538
  825MOL0     C11289   4.482   6.617   1.106  0.2322  0.5168 -0.0383
  825MOL0     N11290   3.887   6.209   0.842  0.5268  0.3256  0.0235
  825MOL0     N11291   3.804   6.112   0.839  0.4150  0.1649  0.4362
  825MOL0     C11292   2.523   6.150   0.655 -0.3044 -0.3089  0.1639
  825MOL0     C11293   2.384   6.171   0.655 -0.1822 -0.6832  0.5280
  825MOL0     C11294   1.980   6.344   0.522 -0.6101 -0.2458  0.0421
  825MOL0     C11295   1.913   6.300   0.399 -0.7373 -0.7253  0.7951
  825MOL0     C11296   1.791   6.363   0.364 -0.3682 -0.7840 -0.2296
  825MOL0     C11297   1.730   6.457   0.448  0.4107 -0.6706 -0.7576
  825MOL0     O11298   1.618   6.502   0.397 -0.1189 -0.5670 -0.3023
  825MOL0     C11299   1.531   6.589   0.480 -0.5753  0.1562  0.4821
  825MOL0     C11300   1.446   6.506   0.574  0.0065 -0.3887 -0.5597
  825MOL0     C11301   1.366   6.393   0.496 -0.5199  0.1888  0.2314
  825MOL0     C11302   1.288   6.305   0.586 -0.4934  0.6602 -0.2494
  825MOL0     C11303   1.386   6.224   0.657  0.5498  0.1394  0.2322
  825MOL0     C11304   1.464   6.164   0.725 -0.4853  0.9702 -0.9156
  825MOL0     C11305   1.785   6.485   0.579 -0.4252  0.2296  0.8068
  825MOL0     C11306   1.911   6.433   0.612 -0.2651 -0.3345 -0.2027
  825MOL0     C11307   1.959   6.450   0.750 -0.0503  0.5765 -0.5632
  825MOL0     H11308   2.369   6.500   0.591  1.6286 -0.2905 -0.9989
  825MOL0     H11309   2.597   6.479   0.590 -2.4791  1.0385 -0.5564
  825MOL0     H11310   2.835   6.380   0.551  3.0636  0.0090 -0.9651
  825MOL0     H11311   2.769   6.432   0.708  0.9452 -0.6367  2.7474
  825MOL0     H11312   2.909   6.294   0.842  2.1114 -0.0437  0.6337
  825MOL0     H11313   3.000   6.411   0.752 -0.9409  1.7310 -0.1291
  825MOL0     H11314   3.044   6.232   0.573 -4.1345  1.3598 -0.5728
  825MOL0     H11315   2.962   6.117   0.662  0.5892 -0.5462  0.4587
  825MOL0     H11316   3.212   6.276   0.749  2.6437 -1.4604 -0.3009
  825MOL0     H11317   3.143   6.144   0.834 -0.8860  0.1253  1.0054
  825MOL0     H11318   3.165   6.009   0.631 -1.5491  0.6254  2.2568
  825MOL0     H11319   3.261   6.137   0.547 -0.1418 -1.4909 -0.4784
  825MOL0     H11320   3.324   5.979   0.788  0.9863  2.9864  2.7580
  825MOL0     H11321   3.407   5.963   0.630  1.3668  0.5434  0.8591
  825MOL0     H11322   3.405   6.212   0.800 -0.7323  0.1112  0.0815
  825MOL0     H11323   3.524   6.173   0.665 -0.7578 -0.7738 -0.3797
  825MOL0     H11324   3.529   6.030   0.939  3.6354 -1.1387  0.6145
  825MOL0     H11325   3.594   5.984   0.784 -1.8358 -1.5644  0.7469
  825MOL0     H11326   3.606   6.374   0.899 -1.4986 -1.3439 -0.4661
  825MOL0     H11327   3.913   6.479   0.764  0.6282 -2.1365 -0.3787
  825MOL0     H11328   3.775   6.513   0.870 -0.3145 -2.3193  0.4475
  825MOL0     H11329   4.003   6.602   0.972  0.4484  0.3681 -0.8401
  825MOL0     H11330   3.927   6.469   1.068 -1.8492 -4.3191 -1.4396
  825MOL0     H11331   4.156   6.421   0.871  0.9808 -0.5162 -0.0111
  825MOL0     H11332   4.093   6.307   0.973 -0.3680 -0.8709 -1.0687
  825MOL0     H11333   4.153   6.462   1.169  0.2418 -1.1969 -0.0424
  825MOL0     H11334   4.212   6.585   1.057  1.8823  0.3313  0.9516
  825MOL0     H11335   4.484   6.330   1.300 -0.3241  0.0615  2.5139
  825MOL0     H11336   4.686   6.434   1.373  2.1485 -0.8211 -1.9411
  825MOL0     H11337   4.932   7.034   1.288 -1.4336 -0.8609  1.5237
  825MOL0     H11338   5.135   7.122   1.322  0.2081  0.5969 -2.3933
  825MOL0     H11339   5.342   7.189   1.348  0.9581  1.6190  1.2264
  825MOL0     H11340   5.344   7.102   1.505 -0.5061 -4.3114 -0.1310
  825MOL0     H11341   5.539   7.252   1.462 -2.0707 -0.5070  1.4886
  825MOL0     H11342   5.587   7.074   1.475  1.4061  1.5415  0.8301
  825MOL0     H11343   5.630   7.087   1.233 -1.0443  1.7520 -2.5782
  825MOL0     H11344   5.544   7.242   1.224  1.9073  1.3079 -0.3370
  825MOL0     H11345   5.729   7.346   1.355  0.7905  1.0705 -0.8885
  825MOL0     H11346   5.759   7.276   1.194  0.6368 -1.9246 -0.5234
  825MOL0     H11347   5.851   7.078   1.282  1.4643 -2.6183  3.6486
  825MOL0     H11348   5.839   7.122   1.450 -2.2645  2.2756  1.1538
  825MOL0     H11349   5.986   7.274   1.248  1.5544  0.5840  0.6014
  825MOL0     H11350   5.979   7.325   1.410  1.8864  1.7894 -1.3985
  825MOL0     H11351   6.096   7.070   1.319 -2.0227  0.8694  0.2611
  825MOL0     H11352   6.089   7.115   1.490 -0.7044 -0.8513 -0.8614
  825MOL0     H11353   6.314   7.148   1.402 -0.8180  0.9839  2.5306
  825MOL0     H11354   6.251   7.232   1.253  0.5725  1.4631  0.3646
  825MOL0     H11355   5.308   6.726   1.338 -0.1867 -0.4302  0.3053
  825MOL0     H11356   5.091   6.634   1.272  1.6148 -0.6398  0.3717
  825MOL0     H11357   4.620   6.771   1.121 -1.4122  0.1813 -2.8213
  825MOL0     H11358   4.415   6.661   1.033 -1.8533 -4.6144 -1.7095
  825MOL0     H11359   2.571   6.057   0.683  2.7676  1.3492  0.9136
  825MOL0     H11360   2.318   6.085   0.660 -2.0671  0.5376 -1.5725
  825MOL0     H11361   1.950   6.221   0.335 -2.1069 -0.3709 -0.4955
  825MOL0     H11362   1.746   6.332   0.271  0.2409  1.0713 -1.1967
  825MOL0     H11363   1.466   6.646   0.413  0.9310  1.3273 -0.0479
  825MOL0     H11364   1.580   6.678   0.522 -1.4496  1.4250 -1.0995
  825MOL0     H11365   1.370   6.563   0.627 -0.9694 -0.1736 -2.1525
  825MOL0     H11366   1.514   6.463   0.648 -0.5981 -0.8616 -0.2704
  825MOL0     H11367   1.429   6.338   0.426 -0.2898  0.2733  0.3734
  825MOL0     H11368   1.289   6.435   0.430 -0.2585 -1.0626 -0.9142
  825MOL0     H11369   1.216   6.349   0.656  0.4683 -0.9315  1.8807
  825MOL0     H11370   1.216   6.245   0.529 -0.2715  1.6863 -1.6514
  825MOL0     H11371   1.533   6.124   0.797 -0.6422  0.5596 -0.9854
  825MOL0     H11372   1.723   6.545   0.645 -0.6137 -0.9291  1.7204
  825MOL0     H11373   2.025   6.537   0.758 -0.7600  1.0578  0.1931
  825MOL0     H11374   1.869   6.479   0.804 -0.9389 -0.2171 -1.5887
  825MOL0     H11375   1.998   6.358   0.796  0.1478 -0.4765 -2.7452
  826MOL0     O11376   3.712   7.521   1.161 -0.2031 -0.6678  0.3738
  826MOL0     C11377   3.645   7.621   1.173 -0.7527  0.5007 -0.0463
  826MOL0     O11378   3.694   7.741   1.225  0.2987 -0.3784 -0.1354
  826MOL0     C11379   3.833   7.732   1.261  0.3969 -0.2706  0.2682
  826MOL0     C11380   3.928   7.712   1.172 -0.6951 -0.0444  0.1301
  826MOL0     C11381   4.075   7.708   1.209  0.4707 -0.4095  1.2644
  826MOL0     C11382   4.107   7.738   1.344 -0.2374  0.7489  0.5449
  826MOL0     O11383   4.228   7.731   1.407 -0.7086 -0.2771  0.4752
  826MOL0     C11384   4.341   7.776   1.322 -0.2120 -0.3569 -0.9150
  826MOL0     C11385   4.428   7.661   1.283  0.7625 -0.0695 -0.0970
  826MOL0     C11386   4.564   7.694   1.219  0.5592  0.4626 -0.3724
  826MOL0     C11387   4.567   7.800   1.106 -0.6906 -0.9166  0.6180
  826MOL0     C11388   4.709   7.785   1.046 -0.1921 -0.2267  0.1244
  826MOL0     C11389   4.743   7.895   0.949  0.2795 -0.6570 -0.4166
  826MOL0     C11390   4.639   7.930   0.846  0.3635  0.2267  0.0881
  826MOL0     C11391   4.608   7.806   0.759 -0.0674  0.2828 -0.1813
  826MOL0     N11392   4.707   7.790   0.652  0.0726  0.4542  0.5222
  826MOL0     C11393   4.714   7.885   0.558 -0.1888 -0.5395  0.3745
  826MOL0     C11394   4.830   7.871   0.497 -0.5682  0.0941  0.4561
  826MOL0     C11395   4.885   7.957   0.387  0.1605  0.3382  0.6490
  826MOL0     C11396   5.007   7.893   0.305  0.3977 -0.6670 -0.1852
  826MOL0     C11397   5.129   7.856   0.388  0.1978 -0.8200  0.1024
  826MOL0     C11398   5.247   7.858   0.290  0.8121  0.4197 -0.4987
  826MOL0     O11399   5.367   7.807   0.353 -0.5268 -0.4249 -0.0560
  826MOL0     C11400   5.485   7.807   0.277 -0.0160  0.0674  0.2695
  826MOL0     C11401   5.490   7.870   0.157 -0.2168 -0.1225  0.2622
  826MOL0     C11402   5.608   7.878   0.083 -0.5292  0.3029 -0.7070
  826MOL0     C11403   5.730   7.834   0.140  0.9610  0.3926  0.2605
  826MOL0     C11404   5.864   7.851   0.080  0.8323  0.4550  0.2417
  826MOL0     O11405   5.972   7.798   0.136  0.1163  0.4461  0.1725
  826MOL0     C11406   6.095   7.842   0.099  0.3589 -0.1775 -0.0306
  826MOL0     C11407   6.164   7.904   0.199 -1.0410  0.3087  0.2403
  826MOL0     C11408   6.294   7.946   0.171 -0.7541 -0.4756 -0.1087
  826MOL0     C11409   6.352   7.919   0.043 -0.4554 -0.5512  0.5564
  826MOL0     O11410   6.482   7.962   0.027 -0.1190 -0.1797  0.2007
  826MOL0     C11411   6.546   7.957  -0.104 -0.1137 -0.5033  0.7124
  826MOL0     C11412   6.684   8.011  -0.098  0.3672  0.7742 -0.2909
  826MOL0     C11413   6.773   7.897  -0.056 -0.0428  0.1503 -0.0622
  826MOL0     C11414   6.814   7.805  -0.176  0.1409  0.5510 -0.3010
  826MOL0     C11415   6.948   7.846  -0.241 -0.9327 -0.7950 -0.1863
  826MOL0     C11416   7.005   7.760  -0.359 -0.6646  1.0255  0.1620
  826MOL0     C11417   7.118   7.843  -0.422 -0.1541  0.0476 -0.1564
  826MOL0     C11418   7.193   7.768  -0.534  0.2681 -0.1586  0.5859
  826MOL0    Cl11419   7.078   7.729  -0.668 -0.0810 -0.3204 -0.2695
  826MOL0     C11420   6.279   7.852  -0.058  0.7807  0.4265 -0.0594
  826MOL0     C11421   6.148   7.821  -0.030  0.3397 -0.2937  0.4740
  826MOL0     O11422   5.859   7.907  -0.032 -0.1917  0.3453  0.0164
  826MOL0     C11423   5.727   7.774   0.271 -0.7694 -0.1023 -0.0676
  826MOL0     C11424   5.607   7.762   0.331  0.1539 -1.0092 -0.3738
  826MOL0     N11425   4.896   7.769   0.564  0.7901 -0.2122  0.2053
  826MOL0     N11426   4.825   7.726   0.658 -0.3650 -0.6609  0.2422
  826MOL0     C11427   4.000   7.746   1.437  0.3328 -0.2621  0.5146
  826MOL0     C11428   3.866   7.753   1.391  0.2919 -0.2182 -1.0813
  826MOL0     C11429   3.501   7.616   1.154  0.2367  0.7877 -0.4037
  826MOL0     C11430   3.442   7.725   1.085  0.1998 -0.5616  0.1474
  826MOL0     C11431   3.303   7.738   1.079  0.5180  0.4988 -0.3308
  826MOL0     C11432   3.226   7.644   1.133  0.7459  0.0467 -0.2262
  826MOL0     O11433   3.088   7.672   1.144 -0.0328 -0.1300 -0.3800
  826MOL0     C11434   2.992   7.569   1.142  0.1775  0.1984 -0.0844
  826MOL0     C11435   2.861   7.624   1.088  0.6705 -0.6813 -0.3180
  826MOL0     C11436   2.848   7.628   0.936 -0.3172 -0.1996  0.7678
  826MOL0     C11437   2.725   7.714   0.893  0.0456  0.1303 -0.4595
  826MOL0     C11438   2.721   7.708   0.748 -0.2178 -0.0820 -0.2134
  826MOL0     C11439   2.723   7.708   0.629 -0.1233  0.0811  0.6950
  826MOL0     C11440   3.280   7.535   1.198  0.1759  0.0606 -0.3509
  826MOL0     C11441   3.419   7.515   1.212  0.6031  0.6262  0.3007
  826MOL0     C11442   3.480   7.397   1.299 -0.2223  0.2674 -0.1110
  826MOL0     H11443   3.905   7.705   1.067 -0.2403 -1.1127  0.0920
  826MOL0     H11444   4.148   7.691   1.130 -0.5927 -1.5213  0.4758
  826MOL0     H11445   4.306   7.827   1.232 -0.3439  1.6177  0.2010
  826MOL0     H11446   4.403   7.843   1.383 -0.0089 -1.3841  0.0540
  826MOL0     H11447   4.372   7.607   1.206 -2.0830  2.7144 -0.1191
  826MOL0     H11448   4.441   7.596   1.370  2.4584  1.1344  0.6061
  826MOL0     H11449   4.597   7.598   1.176  0.3813 -0.0226  0.5599
  826MOL0     H11450   4.633   7.718   1.300  0.7691 -0.8918 -0.1267
  826MOL0     H11451   4.490   7.785   1.030 -0.8181  1.9006  0.1075
  826MOL0     H11452   4.556   7.901   1.146  0.8515 -0.0889 -0.9329
  826MOL0     H11453   4.785   7.793   1.124  0.0931  2.2418 -0.3246
  826MOL0     H11454   4.730   7.688   1.000  0.4117  1.0152 -2.4325
  826MOL0     H11455   4.760   7.986   1.008 -1.6963 -0.4868 -0.0504
  826MOL0     H11456   4.834   7.864   0.898 -0.6518 -2.7992 -0.8955
  826MOL0     H11457   4.659   8.018   0.785 -1.3696  0.4569 -0.1893
  826MOL0     H11458   4.548   7.959   0.900  1.2047 -2.6538  3.4584
  826MOL0     H11459   4.597   7.711   0.812 -0.3069  1.0131  1.1280
  826MOL0     H11460   4.510   7.821   0.713 -0.2783  1.6261  0.6469
  826MOL0     H11461   4.646   7.965   0.528 -0.5608 -1.8883 -2.7627
  826MOL0     H11462   4.796   7.958   0.323 -2.2401 -2.8519  3.5404
  826MOL0     H11463   4.900   8.059   0.424 -0.2783  0.5015  0.3885
  826MOL0     H11464   4.970   7.804   0.253 -0.8869 -1.3903  1.7910
  826MOL0     H11465   5.033   7.968   0.231 -1.2174 -0.0401 -0.1582
  826MOL0     H11466   5.104   7.757   0.427  2.3789 -1.2573  0.5298
  826MOL0     H11467   5.148   7.914   0.479 -2.0536 -0.7606  0.5850
  826MOL0     H11468   5.255   7.961   0.253  0.5273  0.0920 -1.4916
  826MOL0     H11469   5.225   7.792   0.206 -2.3574 -1.1038  1.3248
  826MOL0     H11470   5.403   7.904   0.102  2.0597  2.0658 -2.3105
  826MOL0     H11471   5.598   7.923  -0.016  1.1585 -2.2022 -2.1310
  826MOL0     H11472   6.116   7.918   0.295 -0.2175 -0.8444  0.8488
  826MOL0     H11473   6.348   8.010   0.241 -2.8104  2.0811 -0.7039
  826MOL0     H11474   6.548   7.853  -0.136  4.3386 -0.6905  0.9839
  826MOL0     H11475   6.482   8.014  -0.172  0.1710 -0.6183  0.3461
  826MOL0     H11476   6.725   8.057  -0.188  3.0744  0.3207  0.5961
  826MOL0     H11477   6.686   8.080  -0.013 -0.0862 -2.5369  2.6564
  826MOL0     H11478   6.861   7.940  -0.006 -0.5143 -0.7358  1.5925
  826MOL0     H11479   6.719   7.837   0.017  0.0035  0.2151  0.0255
  826MOL0     H11480   6.730   7.793  -0.245 -0.2882 -1.0440  0.4521
  826MOL0     H11481   6.828   7.700  -0.148 -1.1479  1.0296  2.4603
  826MOL0     H11482   7.026   7.856  -0.164  1.2459 -0.1252 -2.3593
  826MOL0     H11483   6.940   7.948  -0.277  0.5876 -0.4001  0.5133
  826MOL0     H11484   7.042   7.664  -0.322 -1.0245  1.5843  2.0701
  826MOL0     H11485   6.924   7.740  -0.429 -0.5543 -2.0177  0.7517
  826MOL0     H11486   7.183   7.889  -0.347 -0.2691 -0.5187  0.3024
  826MOL0     H11487   7.074   7.936  -0.459 -1.6186  0.0272  1.4020
  826MOL0     H11488   7.280   7.809  -0.585 -0.6790 -0.5272 -1.4203
  826MOL0     H11489   7.229   7.673  -0.493  0.5183 -0.7058 -0.8626
  826MOL0     H11490   6.308   7.825  -0.159  1.9924  1.2472  0.0596
  826MOL0     H11491   6.079   7.786  -0.106 -1.7683  0.7124  1.8014
  826MOL0     H11492   5.815   7.730   0.319  1.3160 -0.0004 -3.4358
  826MOL0     H11493   5.599   7.724   0.432  2.0928  0.0477  0.2337
  826MOL0     H11494   4.019   7.759   1.543  0.5371 -0.4068  0.4944
  826MOL0     H11495   3.787   7.780   1.461  1.5291 -1.0799  0.7164
  826MOL0     H11496   3.475   7.815   1.033 -4.3105  1.6207  0.6395
  826MOL0     H11497   3.257   7.825   1.033  0.9990  1.2568  0.5978
  826MOL0     H11498   2.980   7.543   1.248  0.7920  1.4214  0.3051
  826MOL0     H11499   3.020   7.476   1.091  0.7596  0.6351 -0.5809
  826MOL0     H11500   2.850   7.721   1.138 -0.6683  0.9250 -3.4825
  826MOL0     H11501   2.771   7.570   1.118  0.0902  0.7223  0.5516
  826MOL0     H11502   2.840   7.527   0.895 -0.7978 -0.6985  2.0582
  826MOL0     H11503   2.943   7.657   0.888 -0.0302 -1.7400  0.3598
  826MOL0     H11504   2.640   7.664   0.941  2.1077 -2.5463  0.7172
  826MOL0     H11505   2.739   7.819   0.920 -0.0586  0.7419 -2.6594
  826MOL0     H11506   2.714   7.709   0.523  1.2370 -3.1951  0.4511
  826MOL0     H11507   3.220   7.466   1.256  0.9353 -3.0104 -2.9828
  826MOL0     H11508   3.549   7.339   1.238 -2.2289  1.2251 -3.5735
  826MOL0     H11509   3.539   7.444   1.378  0.8599  0.3659 -0.9516
  826MOL0     H11510   3.397   7.334   1.333  1.1680 -0.3826  2.2962
  827MOL0     O11511   8.139   7.605   7.773 -0.0164  0.5325 -0.2700
  827MOL0     C11512   8.104   7.518   7.696 -0.7326 -0.2735 -0.0284
  827MOL0     O11513   8.184   7.421   7.633  0.7450  0.4313 -0.1366
  827MOL0     C11514   8.317   7.407   7.684  0.1402 -0.1257  0.4161
  827MOL0     C11515   8.396   7.491   7.759 -0.5307 -0.0631 -0.3378
  827MOL0     C11516   8.533   7.466   7.784 -0.4929 -0.4217 -0.0728
  827MOL0     C11517   8.601   7.354   7.735 -0.3341  0.6312 -0.2014
  827MOL0     O11518   8.732   7.319   7.746 -0.0792 -1.5713 -0.7925
  827MOL0     C11519   8.822   7.407   7.823 -0.1615 -0.1396  0.0619
  827MOL0     C11520   8.969   7.367   7.782  0.0900 -0.5281  0.5254
  827MOL0     C11521   9.073   7.450   7.852  0.3020 -0.0774 -0.3684
  827MOL0     C11522   9.206   7.412   7.799 -0.2924  0.2293 -0.2349
  827MOL0     C11523   9.320   7.473   7.872 -0.1716  0.5721 -0.6557
  827MOL0     C11524   9.457   7.441   7.802 -0.6090 -1.0242  0.0026
  827MOL0     C11525   9.519   7.304   7.831  0.5128 -0.7529  0.5749
  827MOL0     C11526   9.566   7.302   7.980 -0.0798  0.0362 -0.3572
  827MOL0     N11527   9.598   7.161   7.997  0.6535 -0.0577  0.9979
  827MOL0     C11528   9.520   7.064   8.038  0.2993 -0.2251  0.2961
  827MOL0     C11529   9.572   6.942   8.015  1.1126 -1.0560  0.0992
  827MOL0     C11530   9.495   6.813   8.024 -0.8795 -0.4524  0.5218
  827MOL0     C11531   9.385   6.823   7.913  0.1786  0.1492  0.4752
  827MOL0     C11532   9.295   6.695   7.931  0.3416  0.2045  0.2576
  827MOL0     C11533   9.174   6.722   8.026 -0.0077 -0.5395  0.4416
  827MOL0     O11534   9.083   6.800   7.949 -0.3152 -0.2842 -0.1630
  827MOL0     C11535   8.977   6.859   8.018 -0.4094 -0.2713  0.8494
  827MOL0     C11536   8.946   6.848   8.158 -0.6720  0.0548  0.4866
  827MOL0     C11537   8.851   6.923   8.220 -0.3186  0.6442  0.7442
  827MOL0     C11538   8.753   6.993   8.148 -0.1008  0.0740 -0.4616
  827MOL0     C11539   8.635   7.055   8.203 -0.0182 -0.1772 -0.1878
  827MOL0     O11540   8.553   7.127   8.121  0.8160 -0.3071 -0.2077
  827MOL0     C11541   8.434   7.186   8.157 -0.0884 -0.3396 -0.0121
  827MOL0     C11542   8.362   7.173   8.279  0.0350 -0.5830  1.1922
  827MOL0     C11543   8.244   7.244   8.301  0.0892  0.3168  0.4558
  827MOL0     C11544   8.190   7.325   8.201  0.0676 -0.3961  0.5238
  827MOL0     O11545   8.065   7.384   8.200 -0.1309 -0.6532 -0.9785
  827MOL0     C11546   7.972   7.343   8.100 -0.6079 -0.0364  0.6305
  827MOL0     C11547   7.829   7.363   8.153  0.5316 -0.1539 -0.2201
  827MOL0     C11548   7.705   7.328   8.054  0.0380 -0.5598 -0.0815
  827MOL0     C11549   7.569   7.375   8.111 -0.6300  0.2664 -0.0870
  827MOL0     C11550   7.450   7.287   8.069 -0.5135  0.7858 -0.0435
  827MOL0     C11551   7.318   7.356   8.105 -0.0612  0.6146  0.2946
  827MOL0     C11552   7.199   7.263   8.060  0.0869 -0.7817  0.1660
  827MOL0     C11553   7.059   7.316   8.103 -0.3218 -0.5281  0.6461
  827MOL0    Cl11554   7.048   7.321   8.281  0.0801  0.0167  0.1525
  827MOL0     C11555   8.255   7.339   8.083 -0.9521 -1.3111  0.4943
  827MOL0     C11556   8.381   7.275   8.064  0.0064  0.2232  0.2726
  827MOL0     O11557   8.624   7.045   8.327  0.8165 -0.2928 -0.4726
  827MOL0     C11558   8.790   7.021   8.011 -0.1714 -0.1298 -0.7395
  827MOL0     C11559   8.893   6.948   7.950  0.4196 -0.2957  0.3111
  827MOL0     N11560   9.690   6.965   7.951 -0.5572  0.1478 -0.1353
  827MOL0     N11561   9.713   7.094   7.952  0.4965  0.0740  0.3223
  827MOL0     C11562   8.521   7.263   7.667 -0.2574 -0.3629 -0.1672
  827MOL0     C11563   8.380   7.288   7.638 -0.1854  0.0635 -0.4243
  827MOL0     C11564   7.959   7.520   7.652 -0.4002 -0.1763  0.6414
  827MOL0     C11565   7.913   7.404   7.592  0.5323  0.4201  0.4101
  827MOL0     C11566   7.775   7.388   7.546  0.6223  1.1092  1.1276
  827MOL0     C11567   7.687   7.493   7.540 -0.5388 -0.3254 -0.3193
  827MOL0     O11568   7.560   7.500   7.502 -0.2177  0.1486  0.2084
  827MOL0     C11569   7.495   7.384   7.443  0.4777 -0.5218 -0.1884
  827MOL0     C11570   7.439   7.299   7.564  0.7739 -0.4844 -0.6062
  827MOL0     C11571   7.367   7.388   7.663  0.6821 -0.0586 -0.3639
  827MOL0     C11572   7.251   7.465   7.603  0.1115  0.2861  1.1406
  827MOL0     C11573   7.182   7.546   7.707 -0.2562  0.4806 -0.3705
  827MOL0     C11574   7.139   7.610   7.794 -0.6904 -0.6737 -0.2981
  827MOL0     C11575   7.747   7.613   7.592  0.4119 -0.3478  0.2751
  827MOL0     C11576   7.869   7.632   7.647 -0.0254  0.2559  0.1249
  827MOL0     C11577   7.903   7.768   7.711 -0.2496 -0.2037 -0.0369
  827MOL0     H11578   8.371   7.592   7.790  0.5371  1.2702 -3.4750
  827MOL0     H11579   8.580   7.540   7.847  0.9655 -1.7391  0.4735
  827MOL0     H11580   8.809   7.512   7.797  2.4763  1.6891  4.8542
  827MOL0     H11581   8.806   7.400   7.931 -0.7122 -0.4428 -0.0325
  827MOL0     H11582   8.979   7.377   7.674  0.6536 -1.6451  0.4599
  827MOL0     H11583   8.993   7.263   7.806  0.4157 -0.6677 -0.3832
  827MOL0     H11584   9.064   7.432   7.959  1.5059 -0.7897 -0.3759
  827MOL0     H11585   9.065   7.557   7.830 -1.0664 -0.7184 -3.6448
  827MOL0     H11586   9.215   7.303   7.805 -0.5366  0.1837 -0.6309
  827MOL0     H11587   9.214   7.428   7.691 -1.1983 -0.0684 -0.3532
  827MOL0     H11588   9.304   7.581   7.866 -0.2073  0.8892  2.8404
  827MOL0     H11589   9.323   7.443   7.977  0.5442  2.0504 -0.2240
  827MOL0     H11590   9.446   7.462   7.695  0.6545 -0.6985 -0.0814
  827MOL0     H11591   9.527   7.519   7.835  0.3295  1.0373 -5.6829
  827MOL0     H11592   9.600   7.285   7.760  0.4031 -3.2182  1.0096
  827MOL0     H11593   9.444   7.230   7.802  1.9010 -0.5567 -4.3470
  827MOL0     H11594   9.654   7.364   7.993  0.5182 -0.3847 -2.1076
  827MOL0     H11595   9.492   7.331   8.056 -0.4343 -1.0713 -0.2588
  827MOL0     H11596   9.418   7.076   8.073 -0.0778  1.9433 -1.3486
  827MOL0     H11597   9.568   6.732   8.009  0.3530  0.4581  1.3256
  827MOL0     H11598   9.444   6.816   8.121  0.2664 -0.6656  1.1531
  827MOL0     H11599   9.330   6.917   7.924  0.9580  0.5276  1.3550
  827MOL0     H11600   9.432   6.818   7.815 -1.4088  0.6827 -0.3492
  827MOL0     H11601   9.361   6.622   7.980 -0.3449  0.5144  1.6854
  827MOL0     H11602   9.261   6.651   7.837  0.0034 -0.6494  0.7648
  827MOL0     H11603   9.211   6.772   8.116 -1.8307  1.7326  0.0102
  827MOL0     H11604   9.133   6.625   8.056  0.1067 -0.3333  1.2908
  827MOL0     H11605   9.014   6.798   8.226 -0.2144 -1.8702 -1.2745
  827MOL0     H11606   8.841   6.901   8.326  0.2534 -0.6995  0.5350
  827MOL0     H11607   8.382   7.101   8.358  1.3119  0.7216  2.1080
  827MOL0     H11608   8.177   7.219   8.383  1.3973  1.2304  1.8622
  827MOL0     H11609   7.988   7.396   8.005 -2.3187  0.4727  0.5918
  827MOL0     H11610   7.989   7.236   8.085  2.2971  0.5646 -1.1527
  827MOL0     H11611   7.822   7.294   8.237  0.2153  2.1141  1.7275
  827MOL0     H11612   7.818   7.464   8.194 -3.3096 -0.3930 -0.2495
  827MOL0     H11613   7.719   7.384   7.961 -0.8143  1.0881  0.7354
  827MOL0     H11614   7.702   7.224   8.020 -1.8225  0.2306 -2.7130
  827MOL0     H11615   7.557   7.484   8.103  1.1148  0.4856 -0.1345
  827MOL0     H11616   7.574   7.367   8.220 -0.5113 -3.1201 -0.2509
  827MOL0     H11617   7.461   7.186   8.108 -1.3637  1.2649  1.5111
  827MOL0     H11618   7.461   7.273   7.961 -0.6724  0.5491 -0.0295
  827MOL0     H11619   7.308   7.366   8.213 -3.7469 -2.4970  0.4667
  827MOL0     H11620   7.310   7.453   8.054  2.1316 -0.4162 -2.2214
  827MOL0     H11621   7.218   7.161   8.094 -0.2013 -1.1509 -0.7421
  827MOL0     H11622   7.198   7.248   7.951  0.6955  2.6801 -0.4405
  827MOL0     H11623   7.038   7.417   8.067 -2.0380 -0.8120  0.7964
  827MOL0     H11624   6.986   7.244   8.066 -0.5497 -0.6837  1.3697
  827MOL0     H11625   8.231   7.418   8.012  2.3425  0.5175  1.1714
  827MOL0     H11626   8.432   7.278   7.968 -0.1819 -1.7347  0.0612
  827MOL0     H11627   8.727   7.087   7.952  0.2079 -0.1002 -1.1173
  827MOL0     H11628   8.922   6.975   7.849  1.3645  0.5928  0.8041
  827MOL0     H11629   8.568   7.172   7.631  1.8707  0.8236 -0.5539
  827MOL0     H11630   8.328   7.214   7.579 -1.5232  1.6996 -1.3682
  827MOL0     H11631   7.975   7.317   7.574  1.0454  0.8237  0.1969
  827MOL0     H11632   7.740   7.290   7.514 -1.5146  1.1883  2.9333
  827MOL0     H11633   7.551   7.319   7.374  1.1337 -0.3083  0.1339
  827MOL0     H11634   7.409   7.426   7.390  2.9074  2.0016 -2.5282
  827MOL0     H11635   7.513   7.239   7.617  0.6047 -0.1911 -0.0264
  827MOL0     H11636   7.370   7.222   7.529 -0.2480  0.2901 -0.3399
  827MOL0     H11637   7.441   7.453   7.709 -0.1348 -0.0873  1.0353
  827MOL0     H11638   7.324   7.322   7.739  0.8307  1.6503  1.2793
  827MOL0     H11639   7.293   7.537   7.532 -0.0172 -1.7599 -1.1355
  827MOL0     H11640   7.183   7.394   7.556 -0.0276  1.4036 -0.4312
  827MOL0     H11641   7.105   7.652   7.886 -1.3083 -0.7499 -0.4861
  827MOL0     H11642   7.672   7.690   7.578  0.2003 -0.8958 -2.0178
  827MOL0     H11643   7.841   7.846   7.666 -0.8829  0.3541  1.6971
  827MOL0     H11644   7.867   7.758   7.814  0.9660 -2.7605  0.2298
  827MOL0     H11645   8.005   7.806   7.700  0.3025 -1.4825  0.4814
  828MOL0     O11646   8.565   8.900  10.251  0.3344 -0.5813 -0.3632
  828MOL0     C11647   8.460   8.848  10.223 -0.8455 -0.1840 -0.9218
  828MOL0     O11648   8.424   8.739  10.281  0.3326  0.9195  0.2631
  828MOL0     C11649   8.511   8.645  10.336 -0.2932 -0.1973  0.5619
  828MOL0     C11650   8.631   8.608  10.280 -0.1565  0.7557  0.2082
  828MOL0     C11651   8.708   8.506  10.337  0.2684  0.7822 -0.5569
  828MOL0     C11652   8.673   8.450  10.464  0.1265 -0.5994  0.4153
  828MOL0     O11653   8.760   8.359  10.527  0.3944 -0.2580  0.6000
  828MOL0     C11654   8.791   8.375  10.664  0.1643 -0.3477 -0.3151
  828MOL0     C11655   8.923   8.309  10.697  0.0075 -0.1840  0.1263
  828MOL0     C11656   9.038   8.394  10.635  0.0211 -0.2079 -0.2578
  828MOL0     C11657   9.173   8.321  10.661  0.2508  0.0227 -0.7880
  828MOL0     C11658   9.283   8.383  10.571 -0.9167  0.7681 -0.5027
  828MOL0     C11659   9.408   8.320  10.615 -0.5109 -0.1171 -0.2857
  828MOL0     C11660   9.524   8.398  10.555 -0.4175 -0.2151  0.3793
  828MOL0     C11661   9.660   8.344  10.609  0.1275 -0.2153  0.1319
  828MOL0     N11662   9.772   8.402  10.535  0.9388 -0.3446 -0.5160
  828MOL0     C11663   9.846   8.510  10.571 -0.1546  0.4795  0.6359
  828MOL0     C11664   9.933   8.516  10.465 -0.2673  0.5242 -0.2362
  828MOL0     C11665  10.049   8.615  10.483 -0.8178  0.1018  0.3854
  828MOL0     C11666  10.117   8.654  10.347  1.0994 -0.3295 -0.1122
  828MOL0     C11667  10.249   8.736  10.368 -0.2050 -0.1293 -0.8539
  828MOL0     C11668  10.306   8.785  10.238  0.5257 -0.1174  0.1141
  828MOL0     O11669  10.368   8.673  10.179 -0.4077  0.0020  0.3733
  828MOL0     C11670  10.489   8.679  10.128  0.0319  0.6048 -0.1505
  828MOL0     C11671  10.556   8.553  10.138 -0.6981  0.0813 -0.7696
  828MOL0     C11672  10.684   8.540  10.073  0.0434 -0.0837  0.4810
  828MOL0     C11673  10.752   8.647  10.014 -0.1465 -0.0401 -0.2709
  828MOL0     C11674  10.886   8.631   9.958 -0.1355  0.2921  0.0349
  828MOL0     O11675  10.937   8.499   9.963 -0.1521 -0.4143 -0.1862
  828MOL0     C11676  11.064   8.494   9.908 -0.8720 -0.1348  0.0953
  828MOL0     C11677  11.144   8.399   9.974  0.3152  0.5052  0.5932
  828MOL0     C11678  11.262   8.359   9.908  0.7965  1.1402 -0.2250
  828MOL0     C11679  11.308   8.403   9.787  0.2512 -0.7129 -0.0144
  828MOL0     O11680  11.425   8.364   9.725 -0.5088  0.1377 -0.4753
  828MOL0     C11681  11.510   8.267   9.781  0.5666 -0.5081 -0.3151
  828MOL0     C11682  11.634   8.265   9.701 -0.3251  0.1429  0.4211
  828MOL0     C11683  11.697   8.134   9.737  0.1087 -0.6891 -0.0953
  828MOL0     C11684  11.815   8.096   9.647  0.6113  0.7403  0.4074
  828MOL0     C11685  11.886   7.964   9.685  0.4074 -0.2687 -0.8927
  828MOL0     C11686  11.967   7.978   9.814 -0.2624 -0.1011  0.2935
  828MOL0     C11687  12.016   7.846   9.864 -0.7549 -0.1881  1.1135
  828MOL0     C11688  12.131   7.788   9.782  0.2389  0.1218  0.2857
  828MOL0    Cl11689  12.173   7.630   9.858  0.1512  0.1700 -0.1457
  828MOL0     C11690  11.222   8.504   9.726 -1.1975  0.4943 -0.6821
  828MOL0     C11691  11.110   8.549   9.787 -0.1113  0.2536  0.1332
  828MOL0     O11692  10.935   8.736   9.910 -0.6716  0.4433  0.0702
  828MOL0     C11693  10.676   8.768  10.003 -0.5816 -1.0085  0.2673
  828MOL0     C11694  10.553   8.778  10.061 -0.1114 -0.5166  0.4698
  828MOL0     N11695   9.903   8.419  10.371  0.8387 -0.3674 -0.1592
  828MOL0     N11696   9.802   8.355  10.413 -0.0689 -0.0792  0.1502
  828MOL0     C11697   8.555   8.501  10.519  0.1945 -0.6627 -0.4877
  828MOL0     C11698   8.476   8.593  10.452  0.6606  0.5311 -0.5896
  828MOL0     C11699   8.360   8.931  10.135  0.1140  0.5485  0.0401
  828MOL0     C11700   8.246   8.862  10.081  0.2372  0.3479  0.4533
  828MOL0     C11701   8.151   8.927  10.007  0.5013 -0.2204 -0.6343
  828MOL0     C11702   8.166   9.060   9.968 -0.2311 -0.3176  0.0328
  828MOL0     O11703   8.097   9.119   9.868 -0.5754  0.8095 -0.0624
  828MOL0     C11704   7.968   9.062   9.834 -0.5536  0.0696  0.8357
  828MOL0     C11705   7.887   9.164   9.741 -1.2572 -0.2773 -0.0865
  828MOL0     C11706   7.892   9.126   9.589  0.0275 -0.9474  0.2518
  828MOL0     C11707   7.804   9.232   9.510 -0.1692 -0.7946  0.0420
  828MOL0     C11708   7.844   9.240   9.366  0.0215  0.2500  0.0678
  828MOL0     C11709   7.887   9.251   9.254 -0.3441 -0.6065  1.3368
  828MOL0     C11710   8.273   9.131  10.018 -0.1265  0.4028 -0.1105
  828MOL0     C11711   8.373   9.068  10.102 -0.3899 -0.0590  0.1700
  828MOL0     C11712   8.487   9.155  10.140  0.3277  0.2249 -0.1724
  828MOL0     H11713   8.655   8.644  10.180 -2.2473 -0.3549 -0.7745
  828MOL0     H11714   8.795   8.470  10.283  1.2878  2.9756 -0.4854
  828MOL0     H11715   8.791   8.480  10.696 -2.2741  0.2945 -2.1698
  828MOL0     H11716   8.723   8.306  10.715  2.6901 -2.9754 -0.2428
  828MOL0     H11717   8.928   8.211  10.648 -2.3427 -1.4685  2.2078
  828MOL0     H11718   8.925   8.280  10.802  0.5041 -2.2113 -0.3968
  828MOL0     H11719   9.049   8.490  10.686  2.2623 -0.1065 -0.8139
  828MOL0     H11720   9.019   8.413  10.530 -0.4408  0.8712  0.0126
  828MOL0     H11721   9.204   8.330  10.765  1.5555  0.0585 -1.1711
  828MOL0     H11722   9.164   8.215  10.634  0.3895 -0.0461 -0.5669
  828MOL0     H11723   9.259   8.347  10.470  0.6677 -1.7958 -0.0588
  828MOL0     H11724   9.291   8.492  10.583  0.1876  0.4687  2.0853
  828MOL0     H11725   9.419   8.323  10.724 -0.7754  1.3094 -0.2809
  828MOL0     H11726   9.419   8.219  10.575  0.8081  0.0784 -0.4558
  828MOL0     H11727   9.519   8.506  10.572  1.9470  0.0469 -0.2025
  828MOL0     H11728   9.525   8.383  10.446  3.1078  0.3198  0.1971
  828MOL0     H11729   9.669   8.367  10.716  0.6915  2.3342 -0.3825
  828MOL0     H11730   9.665   8.238  10.586 -2.8758  0.0319 -2.2365
  828MOL0     H11731   9.855   8.568  10.663  0.5654 -2.3576  2.4777
  828MOL0     H11732  10.019   8.712  10.525 -0.5915  1.2574 -1.9898
  828MOL0     H11733  10.120   8.556  10.542 -0.0988  0.5607 -0.0041
  828MOL0     H11734  10.137   8.568  10.282 -1.7548  0.0679 -1.6417
  828MOL0     H11735  10.039   8.712  10.298  1.2993  1.2083  1.2846
  828MOL0     H11736  10.324   8.674  10.417  0.2553  1.8877  1.1934
  828MOL0     H11737  10.214   8.817  10.434  0.2964 -1.1630  0.7345
  828MOL0     H11738  10.381   8.863  10.254  0.4379  0.7535 -2.9470
  828MOL0     H11739  10.238   8.828  10.164  1.2316  1.1200  0.1549
  828MOL0     H11740  10.518   8.464  10.188 -1.0003  0.7608  0.2441
  828MOL0     H11741  10.736   8.445  10.084  0.2460  0.3117  4.1755
  828MOL0     H11742  11.114   8.341  10.061  2.0258 -1.7543 -0.2382
  828MOL0     H11743  11.311   8.281   9.966 -0.9818  0.2974  0.2227
  828MOL0     H11744  11.517   8.280   9.889 -1.8925  1.6303 -0.3307
  828MOL0     H11745  11.460   8.171   9.764  0.4945 -0.1314 -2.5066
  828MOL0     H11746  11.608   8.257   9.595 -0.3760 -1.9410  0.5616
  828MOL0     H11747  11.701   8.349   9.722  2.1320 -1.8099  0.7654
  828MOL0     H11748  11.745   8.145   9.835  1.6573  1.2899 -1.0093
  828MOL0     H11749  11.618   8.058   9.735  0.0134 -0.5990  0.1899
  828MOL0     H11750  11.885   8.180   9.645 -0.2990  1.5048 -0.1694
  828MOL0     H11751  11.787   8.083   9.542  1.3857  0.4509  0.2269
  828MOL0     H11752  11.953   7.938   9.603  1.5870  1.8044 -0.6579
  828MOL0     H11753  11.810   7.887   9.702  0.4452  0.0215  0.8255
  828MOL0     H11754  12.054   8.039   9.787  0.1348 -1.3762 -1.4484
  828MOL0     H11755  11.914   8.015   9.903  0.2188 -2.8338  1.8245
  828MOL0     H11756  11.931   7.779   9.878 -0.9221  0.0720  1.3422
  828MOL0     H11757  12.060   7.866   9.963 -0.2919  0.9035  0.6996
  828MOL0     H11758  12.084   7.780   9.684 -0.3972 -1.7858  0.7006
  828MOL0     H11759  12.213   7.860   9.774  1.9131 -1.6595  0.6033
  828MOL0     H11760  11.258   8.532   9.628 -0.1224  1.5224 -0.0181
  828MOL0     H11761  11.043   8.619   9.739 -0.2245  1.7327  2.2936
  828MOL0     H11762  10.719   8.855   9.953  1.0614  0.9966  4.6131
  828MOL0     H11763  10.505   8.874  10.045  1.3349  0.1853  0.1725
  828MOL0     H11764   8.537   8.468  10.621  1.3187  1.6195  0.5332
  828MOL0     H11765   8.379   8.625  10.490  1.2155  0.4245  0.9856
  828MOL0     H11766   8.242   8.758  10.112  2.2593  0.9635  3.1044
  828MOL0     H11767   8.065   8.864   9.985 -0.5531  0.1997  1.9655
  828MOL0     H11768   7.917   9.048   9.930  0.2825  0.3778  1.3280
  828MOL0     H11769   7.984   8.963   9.791 -3.5326  0.8166 -2.5029
  828MOL0     H11770   7.928   9.263   9.761 -4.3061  0.8460  1.3422
  828MOL0     H11771   7.781   9.166   9.770 -1.1143 -2.5957  0.7449
  828MOL0     H11772   7.867   9.021   9.567 -3.3658 -0.3821  0.7874
  828MOL0     H11773   7.996   9.140   9.560 -0.1272 -2.2500 -1.0493
  828MOL0     H11774   7.697   9.209   9.520  0.1307 -2.6605 -0.6149
  828MOL0     H11775   7.828   9.328   9.555  1.8829 -1.3193  0.1698
  828MOL0     H11776   7.910   9.261   9.150 -2.1149 -0.0483  0.9769
  828MOL0     H11777   8.271   9.237   9.992 -0.6869 -0.0651 -2.1142
  828MOL0     H11778   8.470   9.259  10.108 -0.7209 -0.8208 -3.3384
  828MOL0     H11779   8.510   9.147  10.247  1.5385 -0.6000 -0.4715
  828MOL0     H11780   8.579   9.141  10.082  0.0464 -0.8612 -0.3647
  829MOL0     O11781   6.362   6.769   0.693  0.0225  0.3043 -0.3918
  829MOL0     C11782   6.293   6.737   0.598 -0.8598 -0.5625 -0.8042
  829MOL0     O11783   6.342   6.679   0.490 -0.2222  0.1629 -0.0084
  829MOL0     C11784   6.473   6.650   0.465 -0.1015 -0.4531  0.5449
  829MOL0     C11785   6.498   6.540   0.390  0.8438  1.0466  0.8474
  829MOL0     C11786   6.628   6.502   0.357  0.3508  0.5233 -0.0386
  829MOL0     C11787   6.739   6.580   0.393  0.3245  0.0262 -0.0935
  829MOL0     O11788   6.861   6.556   0.335  0.3958 -0.2539 -0.9264
  829MOL0     C11789   6.920   6.665   0.266 -0.0656  0.5166  0.4683
  829MOL0     C11790   7.031   6.617   0.193 -0.9637  0.6293  0.0513
  829MOL0     C11791   7.163   6.638   0.260  0.5972  0.6532  0.3429
  829MOL0     C11792   7.283   6.573   0.178 -0.2404 -0.3915 -0.8844
  829MOL0     C11793   7.407   6.585   0.277  0.8784  0.2883  0.8212
  829MOL0     C11794   7.537   6.540   0.203  0.9922 -0.1816 -0.3592
  829MOL0     C11795   7.542   6.387   0.196 -0.0145  0.8111 -0.8529
  829MOL0     C11796   7.648   6.341   0.099  0.1953 -0.6624 -0.1125
  829MOL0     N11797   7.631   6.402  -0.035  0.8937  0.3579  0.1132
  829MOL0     C11798   7.503   6.418  -0.093  0.1784  0.2787 -0.9936
  829MOL0     C11799   7.523   6.430  -0.226 -0.1807 -0.9008  0.4446
  829MOL0     C11800   7.416   6.445  -0.337 -0.5321  0.0263 -0.3221
  829MOL0     C11801   7.458   6.473  -0.470  0.2295  0.6078  0.3816
  829MOL0     C11802   7.503   6.345  -0.537 -0.3854  0.3778 -1.0511
  829MOL0     C11803   7.514   6.356  -0.685 -0.9553  0.2499  1.1543
  829MOL0     O11804   7.602   6.459  -0.721 -0.7239  0.0834  0.0826
  829MOL0     C11805   7.732   6.421  -0.741 -0.7331 -0.1649  0.0095
  829MOL0     C11806   7.809   6.315  -0.678 -0.5349 -0.4717  0.0130
  829MOL0     C11807   7.944   6.294  -0.698  0.2063  0.5449 -0.1873
  829MOL0     C11808   8.011   6.379  -0.787  0.4802  0.7629  0.6257
  829MOL0     C11809   8.156   6.364  -0.820 -0.6705  0.2602 -0.4257
  829MOL0     O11810   8.212   6.451  -0.907  0.0445  0.2057  0.4949
  829MOL0     C11811   8.345   6.439  -0.937 -0.4187  0.2615 -0.3304
  829MOL0     C11812   8.413   6.555  -0.976 -0.0647  0.8971 -0.5868
  829MOL0     C11813   8.552   6.556  -1.000 -0.1539 -0.7041  0.9320
  829MOL0     C11814   8.618   6.435  -1.014 -0.6520  0.2359 -0.5117
  829MOL0     O11815   8.750   6.444  -1.054  0.4675 -0.0505 -0.3662
  829MOL0     C11816   8.830   6.321  -1.067  0.2653 -0.5942  0.2214
  829MOL0     C11817   8.969   6.350  -1.112  0.8215 -0.4023 -0.2136
  829MOL0     C11818   9.056   6.221  -1.097  0.4959 -1.5756  0.6639
  829MOL0     C11819   9.198   6.253  -1.149 -0.0117 -0.0676 -0.1884
  829MOL0     C11820   9.281   6.125  -1.132 -0.1471  0.6810 -0.7011
  829MOL0     C11821   9.428   6.137  -1.179 -0.1379 -0.3432  0.2347
  829MOL0     C11822   9.511   6.009  -1.148  0.1676 -0.0683 -0.0004
  829MOL0     C11823   9.652   6.035  -1.208  0.4270 -0.1052  0.2710
  829MOL0    Cl11824   9.739   6.151  -1.133 -0.3715  0.0559 -0.2261
  829MOL0     C11825   8.561   6.320  -0.957 -1.2101  0.0790  0.2356
  829MOL0     C11826   8.426   6.323  -0.928  0.6257  0.4032 -0.3372
  829MOL0     O11827   8.211   6.277  -0.753  0.5839  0.6952 -0.3207
  829MOL0     C11828   7.937   6.477  -0.858  0.9039 -0.3317  0.9981
  829MOL0     C11829   7.804   6.504  -0.834  0.5231 -0.4536 -0.2838
  829MOL0     N11830   7.663   6.423  -0.245 -0.3303 -0.0233  1.0339
  829MOL0     N11831   7.722   6.409  -0.135  1.3145  0.0794 -0.2394
  829MOL0     C11832   6.717   6.700   0.459  0.2267  0.2032  0.2020
  829MOL0     C11833   6.584   6.734   0.493 -0.5360 -0.5450 -0.7487
  829MOL0     C11834   6.143   6.766   0.589  0.4573 -0.7765  0.0593
  829MOL0     C11835   6.083   6.750   0.462  0.2017 -0.6590  0.1726
  829MOL0     C11836   5.943   6.764   0.451 -0.1336  0.0346  0.2295
  829MOL0     C11837   5.860   6.803   0.562 -0.7168 -0.2185  0.4151
  829MOL0     O11838   5.733   6.828   0.530  0.1462 -0.2645  0.3275
  829MOL0     C11839   5.638   6.889   0.617 -0.1585 -0.4109 -0.1627
  829MOL0     C11840   5.498   6.905   0.556 -0.2880  0.2051  0.4266
  829MOL0     C11841   5.447   6.775   0.503  0.3950  0.4270  0.4427
  829MOL0     C11842   5.401   6.688   0.627 -0.0866 -0.1319  0.3861
  829MOL0     C11843   5.257   6.713   0.640 -0.8588 -0.0532 -0.3047
  829MOL0     C11844   5.139   6.732   0.660 -0.1336  0.6756  1.0208
  829MOL0     C11845   5.918   6.812   0.689  0.3398 -0.1207  0.2785
  829MOL0     C11846   6.057   6.801   0.701  0.2339 -0.9226  0.4324
  829MOL0     C11847   6.111   6.820   0.841  0.9028 -0.0584 -0.3547
  829MOL0     H11848   6.409   6.480   0.374  1.2034  1.0230 -1.3160
  829MOL0     H11849   6.654   6.413   0.300 -1.0058  1.1138 -1.6454
  829MOL0     H11850   6.850   6.704   0.193 -0.1430  1.7799  1.1887
  829MOL0     H11851   6.945   6.741   0.341  1.4180  0.0016  0.5382
  829MOL0     H11852   7.037   6.675   0.100  2.4135 -1.6375 -1.3582
  829MOL0     H11853   7.018   6.512   0.163  3.8145 -0.0600 -0.4167
  829MOL0     H11854   7.163   6.586   0.357  1.7652  2.7243  1.5204
  829MOL0     H11855   7.188   6.744   0.267  2.3345  0.2183  1.2333
  829MOL0     H11856   7.258   6.467   0.162 -0.3699 -0.6270  0.6958
  829MOL0     H11857   7.307   6.634   0.091 -0.7618  0.3477 -0.5234
  829MOL0     H11858   7.410   6.690   0.307 -0.6721 -0.2148  3.0360
  829MOL0     H11859   7.395   6.524   0.367  0.2873  0.2170  0.6975
  829MOL0     H11860   7.541   6.588   0.105 -1.1748 -0.6922 -0.7334
  829MOL0     H11861   7.623   6.587   0.253  0.5244  1.5981 -1.1401
  829MOL0     H11862   7.449   6.340   0.164  0.5001 -1.0853  0.2491
  829MOL0     H11863   7.563   6.345   0.295  0.1761 -2.3662 -2.1248
  829MOL0     H11864   7.744   6.377   0.137 -0.8782  1.7488  0.5049
  829MOL0     H11865   7.651   6.232   0.092 -1.2995 -0.8145  1.0257
  829MOL0     H11866   7.404   6.431  -0.049  0.4417  4.4086 -1.1791
  829MOL0     H11867   7.353   6.356  -0.338 -1.8134  0.9033 -1.1716
  829MOL0     H11868   7.354   6.532  -0.311 -1.0340 -0.4106 -0.0319
  829MOL0     H11869   7.369   6.498  -0.529  1.1855  0.3601 -1.2173
  829MOL0     H11870   7.526   6.558  -0.473  1.0340  0.0141  1.2696
  829MOL0     H11871   7.432   6.266  -0.516  2.1990 -2.0401 -0.8685
  829MOL0     H11872   7.595   6.318  -0.485 -0.3515 -0.0346 -1.3243
  829MOL0     H11873   7.411   6.365  -0.721 -0.6001  0.8618  0.2302
  829MOL0     H11874   7.542   6.264  -0.737 -0.7048  0.2409  1.3063
  829MOL0     H11875   7.759   6.245  -0.613  1.1312 -1.5491  0.2006
  829MOL0     H11876   7.991   6.209  -0.648 -0.3319 -0.2064 -0.9281
  829MOL0     H11877   8.366   6.652  -0.982  1.4267  1.5745 -2.3750
  829MOL0     H11878   8.599   6.654  -1.002 -1.0424 -0.2443 -1.2703
  829MOL0     H11879   8.837   6.280  -0.966 -0.1088 -2.5416 -0.4905
  829MOL0     H11880   8.780   6.251  -1.135  1.2805 -0.5907 -0.5477
  829MOL0     H11881   8.962   6.377  -1.218  0.0536  1.7418  0.3375
  829MOL0     H11882   9.014   6.435  -1.060  1.1967 -1.3401  1.0428
  829MOL0     H11883   9.059   6.190  -0.992 -0.1444  1.3010  1.6566
  829MOL0     H11884   9.011   6.148  -1.164 -1.7040 -1.4664  1.9124
  829MOL0     H11885   9.241   6.331  -1.085  0.5144 -1.1302  0.7758
  829MOL0     H11886   9.192   6.279  -1.255  1.0712 -0.2287 -0.2935
  829MOL0     H11887   9.232   6.043  -1.186  0.3867 -1.4115  1.8144
  829MOL0     H11888   9.294   6.095  -1.028  1.7117  0.5007 -0.9531
  829MOL0     H11889   9.437   6.163  -1.285  0.4327  0.2178  0.4140
  829MOL0     H11890   9.477   6.225  -1.138  0.5723  0.0383 -1.3759
  829MOL0     H11891   9.471   5.924  -1.205  3.0837 -2.2937  1.0243
  829MOL0     H11892   9.507   5.964  -1.048  0.2430  0.7495  0.3810
  829MOL0     H11893   9.708   5.942  -1.204 -0.7004 -0.9297 -1.5242
  829MOL0     H11894   9.639   6.063  -1.314  0.2023  0.7142  0.5055
  829MOL0     H11895   8.620   6.229  -0.955 -0.4625  0.5571  0.1408
  829MOL0     H11896   8.383   6.228  -0.899  1.3360  0.5741  1.4473
  829MOL0     H11897   7.979   6.526  -0.945  0.3064  0.7812  1.3179
  829MOL0     H11898   7.753   6.585  -0.887  0.5603  0.0229  0.3922
  829MOL0     H11899   6.797   6.767   0.490 -0.5352  2.3591 -2.1511
  829MOL0     H11900   6.551   6.827   0.540  0.1114 -0.0966 -1.1697
  829MOL0     H11901   6.132   6.729   0.368  1.0779 -0.6734  0.6218
  829MOL0     H11902   5.897   6.765   0.352 -2.2433 -1.7024  1.1064
  829MOL0     H11903   5.661   6.991   0.648 -1.2687 -0.1554 -0.1516
  829MOL0     H11904   5.641   6.827   0.708 -1.7855 -0.0464  0.1780
  829MOL0     H11905   5.514   6.981   0.479  1.5450  0.0543  0.6201
  829MOL0     H11906   5.427   6.947   0.628 -1.3381  0.6525 -0.8333
  829MOL0     H11907   5.520   6.719   0.444  1.5557  0.5117  1.7437
  829MOL0     H11908   5.361   6.798   0.440  1.4739  1.1549 -0.8164
  829MOL0     H11909   5.430   6.583   0.615  1.1702  0.1081  1.2024
  829MOL0     H11910   5.463   6.715   0.713  0.2091 -1.2712  0.5475
  829MOL0     H11911   5.039   6.768   0.668 -0.5952 -0.5366  0.9868
  829MOL0     H11912   5.860   6.822   0.780  1.0127  0.3505  0.6674
  829MOL0     H11913   6.177   6.735   0.857  0.1726 -0.2828  1.7603
  829MOL0     H11914   6.166   6.914   0.854  2.6168 -1.2117  1.1666
  829MOL0     H11915   6.037   6.803   0.920 -0.5699 -3.5488 -2.2633
  830MOL0     O11916   0.131   5.351   8.142  0.8623  0.0964 -0.9143
  830MOL0     C11917   0.038   5.276   8.149 -0.9125  0.1801 -0.5998
  830MOL0     O11918   0.050   5.139   8.156  0.1488  0.3550 -0.5296
  830MOL0     C11919   0.175   5.085   8.143  0.2362  0.3248 -0.3160
  830MOL0     C11920   0.276   5.108   8.243  0.1799 -0.0790 -0.1601
  830MOL0     C11921   0.406   5.057   8.224 -0.0847  0.2364 -0.1581
  830MOL0     C11922   0.449   5.005   8.100 -0.3329 -0.0247  0.2797
  830MOL0     O11923   0.582   4.988   8.074 -0.0886  0.5562  0.4396
  830MOL0     C11924   0.636   4.895   7.972  0.3954  0.3426  0.6281
  830MOL0     C11925   0.787   4.871   7.993 -0.5652 -0.5927 -0.4948
  830MOL0     C11926   0.837   4.857   8.141 -0.1867 -0.3146  0.0487
  830MOL0     C11927   0.992   4.826   8.138 -0.1561  0.5889 -0.4079
  830MOL0     C11928   1.071   4.829   8.268  0.6345 -0.1900  0.2335
  830MOL0     C11929   1.045   4.713   8.354 -1.0112 -0.1027 -0.7826
  830MOL0     C11930   1.124   4.727   8.479  0.3292  0.5538  1.1203
  830MOL0     C11931   1.072   4.620   8.580  0.6595  1.3858 -0.4119
  830MOL0     N11932   1.146   4.633   8.704 -0.2503 -0.7704  0.3486
  830MOL0     C11933   1.266   4.572   8.731  0.0599 -0.2008  0.5323
  830MOL0     C11934   1.320   4.621   8.848  0.2275 -0.2405 -0.6849
  830MOL0     C11935   1.458   4.611   8.909 -0.0632  0.5988 -0.3177
  830MOL0     C11936   1.504   4.467   8.940 -0.0266  0.5632  0.2205
  830MOL0     C11937   1.568   4.399   8.821 -0.0059 -0.7256  0.0088
  830MOL0     C11938   1.657   4.275   8.864 -0.0230 -0.8215  0.4108
  830MOL0     O11939   1.757   4.315   8.948  0.3938 -0.1078  0.3745
  830MOL0     C11940   1.849   4.220   8.977  0.0523 -0.4594 -0.4642
  830MOL0     C11941   1.862   4.080   8.932  0.6117  0.0978 -0.0645
  830MOL0     C11942   1.965   3.992   8.974  0.6162  0.5310  0.1742
  830MOL0     C11943   2.064   4.049   9.063 -0.4685 -0.5601  0.7618
  830MOL0     C11944   2.180   3.971   9.111  0.1851 -0.6171  0.2481
  830MOL0     O11945   2.235   4.013   9.232  0.1563  1.0185 -0.5891
  830MOL0     C11946   2.329   3.941   9.301  0.2018  0.1634 -0.4188
  830MOL0     C11947   2.363   3.804   9.303  0.0730  0.5398  0.8076
  830MOL0     C11948   2.449   3.764   9.406 -0.4577  0.7297 -0.1015
  830MOL0     C11949   2.516   3.847   9.497 -0.8882 -0.3450 -0.4645
  830MOL0     O11950   2.618   3.806   9.586 -0.3595 -0.0557 -0.3773
  830MOL0     C11951   2.662   3.666   9.599  0.4658 -0.6850 -0.2950
  830MOL0     C11952   2.772   3.646   9.700 -0.1548  0.8293 -0.1138
  830MOL0     C11953   2.723   3.671   9.845 -0.5405  0.0552 -0.3586
  830MOL0     C11954   2.840   3.681   9.942 -0.0176 -0.1143 -0.4956
  830MOL0     C11955   2.807   3.729  10.081 -0.2022  0.2776  0.0831
  830MOL0     C11956   2.938   3.756  10.158  0.6547 -0.9445  0.7710
  830MOL0     C11957   2.922   3.788  10.304  0.5391 -0.1257 -0.1189
  830MOL0     C11958   2.806   3.881  10.328 -0.0375  0.3279 -0.4244
  830MOL0    Cl11959   2.814   3.954  10.495 -0.3448  0.1845 -0.1010
  830MOL0     C11960   2.486   3.979   9.481 -0.7988  0.1496 -0.7388
  830MOL0     C11961   2.397   4.020   9.392  0.2125 -0.3214  0.5941
  830MOL0     O11962   2.212   3.867   9.053 -0.8024  0.4682  0.7526
  830MOL0     C11963   2.052   4.180   9.107 -0.3277 -0.3451  0.1708
  830MOL0     C11964   1.949   4.263   9.059  0.7036  0.2880 -0.2852
  830MOL0     N11965   1.220   4.714   8.895 -0.1668 -0.1600  0.1648
  830MOL0     N11966   1.125   4.719   8.811  0.7543 -0.2083  0.0192
  830MOL0     C11967   0.344   4.979   8.007 -0.9780  0.1287 -0.0350
  830MOL0     C11968   0.208   5.018   8.031 -0.5565 -0.3923  0.0992
  830MOL0     C11969  -0.099   5.320   8.176 -0.1840 -0.2198  0.6869
  830MOL0     C11970  -0.207   5.225   8.153  0.6155  0.2256 -0.5561
  830MOL0     C11971  -0.340   5.260   8.180 -0.0955 -0.1618  0.7572
  830MOL0     C11972  -0.374   5.387   8.231  0.3238 -0.4843 -0.7448
  830MOL0     O11973  -0.506   5.430   8.234 -0.1826  0.3127  0.4525
  830MOL0     C11974  -0.622   5.347   8.195 -0.3824 -0.0699 -1.0522
  830MOL0     C11975  -0.748   5.423   8.241 -0.3125  1.1016 -0.4376
  830MOL0     C11976  -0.886   5.349   8.219  0.6635 -0.2793  0.1710
  830MOL0     C11977  -0.880   5.200   8.275 -0.6103  0.2765  0.2509
  830MOL0     C11978  -1.005   5.128   8.246  0.1293  0.1875 -0.6563
  830MOL0     C11979  -1.107   5.069   8.237 -0.0524  0.8354 -0.5380
  830MOL0     C11980  -0.271   5.478   8.265 -0.7636 -0.5072 -0.4779
  830MOL0     C11981  -0.133   5.444   8.243 -0.2411  0.1602 -0.7390
  830MOL0     C11982  -0.043   5.553   8.271  0.6403  0.5464  1.0434
  830MOL0     H11983   0.242   5.162   8.331 -1.5171  0.6767 -1.2147
  830MOL0     H11984   0.476   5.094   8.298  0.8975 -0.4825 -0.7076
  830MOL0     H11985   0.593   4.795   7.978  1.1437 -0.1677 -1.4987
  830MOL0     H11986   0.621   4.941   7.874 -0.4583 -2.2975 -0.5724
  830MOL0     H11987   0.844   4.959   7.963 -2.4273  0.4888 -1.0203
  830MOL0     H11988   0.824   4.786   7.933 -0.5788 -1.8175  1.1682
  830MOL0     H11989   0.790   4.776   8.197  1.7902 -0.9508  0.8819
  830MOL0     H11990   0.831   4.954   8.191  3.2382  0.9763 -1.6639
  830MOL0     H11991   1.002   4.725   8.097 -0.0991  1.7856 -3.6198
  830MOL0     H11992   1.044   4.895   8.072 -0.4395  0.8768 -0.3338
  830MOL0     H11993   1.176   4.836   8.237  0.9075 -0.9363  0.9514
  830MOL0     H11994   1.036   4.917   8.322 -1.2743  0.7188 -2.3104
  830MOL0     H11995   0.939   4.710   8.382 -1.3112  0.5030 -1.7921
  830MOL0     H11996   1.069   4.624   8.294  1.2891  0.7698 -1.2791
  830MOL0     H11997   1.129   4.826   8.525 -1.2672  0.6796  1.1005
  830MOL0     H11998   1.227   4.697   8.458 -0.1502  0.7206 -1.8113
  830MOL0     H11999   0.966   4.638   8.603  0.9776  2.0034  0.6245
  830MOL0     H12000   1.094   4.521   8.540  0.0601  0.9929  0.2175
  830MOL0     H12001   1.306   4.501   8.659  0.3584  0.4284  0.0582
  830MOL0     H12002   1.528   4.669   8.847  0.4120 -0.9589 -1.2913
  830MOL0     H12003   1.456   4.675   8.998 -2.8723  1.9040 -1.1938
  830MOL0     H12004   1.588   4.469   9.009 -1.6079  0.8039  2.2145
  830MOL0     H12005   1.421   4.405   8.976 -2.2312  3.4537  0.5064
  830MOL0     H12006   1.621   4.473   8.760 -0.8882 -1.0061 -1.1520
  830MOL0     H12007   1.498   4.354   8.750  0.0711 -2.6728  1.1243
  830MOL0     H12008   1.689   4.221   8.774 -2.5056 -1.3796 -0.2318
  830MOL0     H12009   1.600   4.196   8.914  0.1460 -1.0340  0.2647
  830MOL0     H12010   1.791   4.039   8.862  3.0100 -1.2250 -1.8916
  830MOL0     H12011   1.970   3.890   8.937  0.0649 -1.0628  4.0389
  830MOL0     H12012   2.321   3.736   9.230  1.2073  0.0650  0.5796
  830MOL0     H12013   2.468   3.658   9.407 -2.6584  0.2841  1.1383
  830MOL0     H12014   2.582   3.597   9.626  0.1237  0.3341  1.4347
  830MOL0     H12015   2.698   3.635   9.500 -2.7680  1.1055 -2.1710
  830MOL0     H12016   2.801   3.541   9.690  1.3781  0.8839  2.6738
  830MOL0     H12017   2.869   3.690   9.675  1.0753 -2.4214 -1.6774
  830MOL0     H12018   2.675   3.769   9.848 -1.6068 -0.4552 -0.0643
  830MOL0     H12019   2.646   3.600   9.876  1.6340 -2.5363 -0.5306
  830MOL0     H12020   2.915   3.744   9.893 -1.3100  0.2392 -2.0799
  830MOL0     H12021   2.891   3.585   9.952  1.3942  0.6409 -0.1012
  830MOL0     H12022   2.753   3.647  10.129 -0.8333 -0.3748 -1.6291
  830MOL0     H12023   2.754   3.823  10.060 -0.3548  0.2509  0.3556
  830MOL0     H12024   3.003   3.668  10.146  1.1404 -0.7433  1.8208
  830MOL0     H12025   2.978   3.845  10.108  1.9777 -1.0367  1.6097
  830MOL0     H12026   3.014   3.834  10.340  0.0395 -0.8762  2.2729
  830MOL0     H12027   2.898   3.692  10.349 -0.4506 -0.4624 -1.2869
  830MOL0     H12028   2.809   3.965  10.257 -0.4704  0.3845 -0.3770
  830MOL0     H12029   2.711   3.829  10.322 -0.6027  1.0307  1.4430
  830MOL0     H12030   2.538   4.046   9.548 -1.5002 -1.3550  1.4127
  830MOL0     H12031   2.390   4.129   9.392 -0.3802 -0.3547  0.7290
  830MOL0     H12032   2.113   4.222   9.186  0.0025 -1.3935  0.4843
  830MOL0     H12033   1.947   4.366   9.092 -1.2807  0.3276 -0.4403
  830MOL0     H12034   0.364   4.937   7.909 -3.6275  1.2228 -1.1631
  830MOL0     H12035   0.139   5.009   7.948 -1.6107  1.3192  0.7428
  830MOL0     H12036  -0.187   5.127   8.111  0.4809 -0.7165  1.4607
  830MOL0     H12037  -0.421   5.189   8.162  1.7184 -2.6571  1.7944
  830MOL0     H12038  -0.619   5.245   8.234 -0.6969  0.6216  0.8893
  830MOL0     H12039  -0.624   5.333   8.086  2.2077 -1.0247 -1.0550
  830MOL0     H12040  -0.755   5.520   8.190  0.5224 -0.4261 -3.7336
  830MOL0     H12041  -0.740   5.434   8.349  1.4883  0.2650 -0.4597
  830MOL0     H12042  -0.905   5.339   8.112 -1.2006 -1.5105  0.5709
  830MOL0     H12043  -0.960   5.405   8.277 -0.5079 -1.1270 -0.4551
  830MOL0     H12044  -0.797   5.146   8.228 -0.4911  1.8165 -1.4190
  830MOL0     H12045  -0.866   5.198   8.384 -0.5226 -0.4220  0.2307
  830MOL0     H12046  -1.193   5.006   8.225  2.2716 -2.0313 -5.3038
  830MOL0     H12047  -0.303   5.572   8.310  0.4979 -0.6100  0.6999
  830MOL0     H12048  -0.088   5.635   8.328 -2.3209  0.4676 -0.9351
  830MOL0     H12049   0.045   5.514   8.322  1.6191 -1.6109 -1.9810
  830MOL0     H12050  -0.003   5.591   8.176 -1.7519  0.0097 -0.2771
  831MOL0     O12051   4.780   8.348   9.023 -0.0473  0.7870 -0.8066
  831MOL0     C12052   4.698   8.363   8.938  0.6531  0.1942  0.1939
  831MOL0     O12053   4.730   8.365   8.810  0.1979 -0.7999 -0.6071
  831MOL0     C12054   4.856   8.371   8.761 -0.3884 -0.6990 -0.1883
  831MOL0     C12055   4.962   8.451   8.818 -0.1217  0.2837  0.4057
  831MOL0     C12056   5.084   8.454   8.752  0.0782 -0.2885  0.0096
  831MOL0     C12057   5.105   8.409   8.625  0.5938  0.6832  0.4946
  831MOL0     O12058   5.226   8.420   8.554 -0.6603  0.5330 -0.5984
  831MOL0     C12059   5.343   8.477   8.611  0.0504 -0.3551  0.7798
  831MOL0     C12060   5.463   8.435   8.521  0.1259  0.1136 -0.4414
  831MOL0     C12061   5.588   8.504   8.575 -0.8983 -0.0358 -0.2831
  831MOL0     C12062   5.701   8.514   8.468 -0.1493 -0.1120  0.3262
  831MOL0     C12063   5.808   8.615   8.516  0.4940 -1.1195  0.1875
  831MOL0     C12064   5.899   8.656   8.407 -0.6163  0.0126 -0.3689
  831MOL0     C12065   6.032   8.723   8.467 -0.6360 -0.8788 -0.5835
  831MOL0     C12066   6.141   8.755   8.364  0.9147 -0.3628 -0.1167
  831MOL0     N12067   6.257   8.810   8.427 -0.4172  0.9159  0.8038
  831MOL0     C12068   6.254   8.932   8.491  0.2662 -0.5406 -0.1712
  831MOL0     C12069   6.371   8.938   8.555  0.0728 -0.2666 -1.0574
  831MOL0     C12070   6.421   9.051   8.646 -0.5021 -0.4481  0.0932
  831MOL0     C12071   6.517   9.141   8.564  0.1586  0.4248  0.7173
  831MOL0     C12072   6.471   9.188   8.421  0.8422 -0.2127  0.0142
  831MOL0     C12073   6.557   9.300   8.359 -0.0144 -0.3612 -0.1279
  831MOL0     O12074   6.564   9.417   8.447  0.4887 -0.2378 -0.1655
  831MOL0     C12075   6.660   9.516   8.437  0.0475 -1.0224 -0.5880
  831MOL0     C12076   6.768   9.509   8.358 -0.1358  0.4233  0.4113
  831MOL0     C12077   6.876   9.607   8.368  0.3808  0.2037  0.5264
  831MOL0     C12078   6.863   9.715   8.457 -0.1370 -0.8637  0.0431
  831MOL0     C12079   6.963   9.816   8.468  0.0956  0.1230 -0.4103
  831MOL0     O12080   6.974   9.882   8.589 -0.6022  0.4688 -0.1001
  831MOL0     C12081   7.057   9.988   8.582 -0.3243  0.4175  0.6204
  831MOL0     C12082   7.194   9.975   8.622 -0.2294  0.3572  0.5287
  831MOL0     C12083   7.295  10.072   8.609  0.1436 -0.5784  0.2279
  831MOL0     C12084   7.253  10.204   8.574  0.4427 -0.2843 -0.4820
  831MOL0     O12085   7.344  10.298   8.595 -0.0157 -0.6909 -0.1140
  831MOL0     C12086   7.322  10.432   8.535  0.1471 -0.4176  0.0399
  831MOL0     C12087   7.455  10.508   8.559  0.1351  0.3673  1.1969
  831MOL0     C12088   7.569  10.444   8.474 -0.6967 -0.2980 -0.6323
  831MOL0     C12089   7.708  10.488   8.520  0.3826  0.0650 -0.1306
  831MOL0     C12090   7.815  10.390   8.484 -0.4167 -0.7012 -0.0888
  831MOL0     C12091   7.848  10.360   8.334  0.1908  0.3847 -1.2698
  831MOL0     C12092   7.899  10.481   8.267 -0.5991  0.5447  0.5865
  831MOL0     C12093   7.945  10.455   8.121  0.2088 -0.1984 -1.0942
  831MOL0    Cl12094   7.987  10.608   8.030 -0.3141  0.0978  0.3842
  831MOL0     C12095   7.114  10.216   8.536 -0.5441 -0.4762 -0.3701
  831MOL0     C12096   7.024  10.112   8.535 -0.0406  1.0317  0.5420
  831MOL0     O12097   7.042   9.828   8.375 -0.2012  0.2440  0.4354
  831MOL0     C12098   6.752   9.719   8.535 -0.2892 -0.3242 -0.5544
  831MOL0     C12099   6.652   9.626   8.523  0.5209 -0.4592 -0.2477
  831MOL0     N12100   6.436   8.819   8.545 -0.2757 -0.0779  0.3244
  831MOL0     N12101   6.366   8.731   8.474  0.1945  0.1168 -0.1731
  831MOL0     C12102   5.003   8.335   8.565 -0.7418  0.0061  0.6549
  831MOL0     C12103   4.883   8.315   8.636  0.0636 -0.3590  0.1771
  831MOL0     C12104   4.554   8.380   8.975 -0.2642 -0.0030  0.6748
  831MOL0     C12105   4.465   8.432   8.881  0.0139  0.2237  0.2225
  831MOL0     C12106   4.338   8.458   8.919  0.2053  0.1613 -0.3803
  831MOL0     C12107   4.280   8.424   9.045  0.5263 -0.7916  0.3332
  831MOL0     O12108   4.141   8.440   9.063  1.1705 -0.0984  0.7862
  831MOL0     C12109   4.070   8.377   9.168 -0.4068  0.8683  0.4974
  831MOL0     C12110   3.914   8.389   9.142 -0.0020 -0.0008 -0.2249
  831MOL0     C12111   3.824   8.369   9.267 -0.6506 -0.6868  0.4204
  831MOL0     C12112   3.680   8.361   9.230 -0.3756  0.0470 -0.8084
  831MOL0     C12113   3.652   8.243   9.149  0.5013  0.3726 -0.6749
  831MOL0     C12114   3.669   8.144   9.077 -0.2630  0.1296  0.1662
  831MOL0     C12115   4.369   8.351   9.126 -0.0537 -0.0870  0.1450
  831MOL0     C12116   4.508   8.340   9.101 -0.1704 -0.1028 -0.2244
  831MOL0     C12117   4.595   8.284   9.213 -0.1301  0.4723 -0.0202
  831MOL0     H12118   4.943   8.510   8.907  0.4027  1.2888 -0.1246
  831MOL0     H12119   5.172   8.492   8.803  0.0935  3.8102 -2.5635
  831MOL0     H12120   5.336   8.586   8.608  2.0220 -0.2052 -0.9564
  831MOL0     H12121   5.373   8.444   8.711  2.5405  1.6965  0.8205
  831MOL0     H12122   5.442   8.444   8.414  0.4584  0.3764 -0.4876
  831MOL0     H12123   5.487   8.328   8.526  2.9641  0.7390  1.0802
  831MOL0     H12124   5.630   8.462   8.666 -1.8659 -0.1823  0.1087
  831MOL0     H12125   5.554   8.605   8.599  1.9513  0.7314  0.8941
  831MOL0     H12126   5.745   8.414   8.470 -0.0201 -0.0432  1.3559
  831MOL0     H12127   5.661   8.544   8.370  2.4881  1.5028 -0.3659
  831MOL0     H12128   5.759   8.703   8.559  0.5321  0.6833 -3.1459
  831MOL0     H12129   5.871   8.569   8.593  0.0140  0.6413  1.7110
  831MOL0     H12130   5.932   8.567   8.353  1.3658  0.2134  0.4377
  831MOL0     H12131   5.839   8.728   8.350 -0.6019 -1.0590 -1.7795
  831MOL0     H12132   6.072   8.660   8.547 -2.4509 -2.9871 -1.2085
  831MOL0     H12133   6.020   8.824   8.507  0.0411 -1.6398  1.6994
  831MOL0     H12134   6.178   8.667   8.312  1.8591  0.1775 -0.3732
  831MOL0     H12135   6.094   8.810   8.282  2.6930 -0.2441 -1.1030
  831MOL0     H12136   6.168   8.999   8.484  0.3385 -0.1994  1.7200
  831MOL0     H12137   6.332   9.107   8.675  0.5183  0.2676  2.0906
  831MOL0     H12138   6.467   9.021   8.741 -1.8976 -0.5893  0.7456
  831MOL0     H12139   6.532   9.231   8.624 -1.4631  0.9784  0.3327
  831MOL0     H12140   6.612   9.088   8.549  0.7352  1.2139  1.4707
  831MOL0     H12141   6.367   9.218   8.428  1.2521  1.4156 -0.5273
  831MOL0     H12142   6.468   9.097   8.360 -1.1847 -0.1641 -0.0271
  831MOL0     H12143   6.510   9.322   8.262  0.4806  0.4592 -0.1873
  831MOL0     H12144   6.660   9.269   8.342  0.9213  0.6219  3.0636
  831MOL0     H12145   6.784   9.424   8.293 -1.1763  0.5329  0.0004
  831MOL0     H12146   6.966   9.596   8.308 -1.4390 -0.7754 -2.2405
  831MOL0     H12147   7.227   9.879   8.662 -1.5962 -0.7797 -0.9577
  831MOL0     H12148   7.398  10.048   8.636 -0.1561 -3.6439 -0.9324
  831MOL0     H12149   7.309  10.422   8.427  2.4794 -1.8806 -0.1815
  831MOL0     H12150   7.243  10.498   8.573 -0.5870 -0.5624 -1.1911
  831MOL0     H12151   7.430  10.610   8.528 -2.8941 -0.2079  1.4261
  831MOL0     H12152   7.468  10.500   8.667  0.4047 -1.9486  1.0559
  831MOL0     H12153   7.552  10.336   8.473 -1.4421 -0.1944 -2.5003
  831MOL0     H12154   7.561  10.474   8.370  0.5758  2.0462 -0.1151
  831MOL0     H12155   7.717  10.490   8.629 -0.6944 -2.0856  0.0549
  831MOL0     H12156   7.720  10.589   8.481 -2.1936  0.9968  1.2676
  831MOL0     H12157   7.790  10.291   8.523  1.4891 -1.6035 -1.0059
  831MOL0     H12158   7.910  10.428   8.523 -1.0641 -0.4337  1.2846
  831MOL0     H12159   7.936  10.294   8.334  2.7312  3.4768  0.3025
  831MOL0     H12160   7.758  10.312   8.294  0.4455 -1.4406  0.1853
  831MOL0     H12161   7.984  10.529   8.315 -0.5898  2.5710 -1.2953
  831MOL0     H12162   7.814  10.548   8.247 -1.9136 -1.3428 -0.5575
  831MOL0     H12163   8.030  10.387   8.126 -0.1077 -0.5736 -0.7456
  831MOL0     H12164   7.872  10.398   8.061  1.1561 -3.8092  0.8806
  831MOL0     H12165   7.084  10.317   8.508  3.8532  1.4121  0.8896
  831MOL0     H12166   6.925  10.126   8.493 -1.5389 -1.0682  3.0974
  831MOL0     H12167   6.745   9.804   8.602  0.0166  1.1248 -2.2718
  831MOL0     H12168   6.555   9.632   8.573  0.7734 -0.7405  0.2794
  831MOL0     H12169   5.017   8.283   8.471 -0.0453 -0.6778  1.1301
  831MOL0     H12170   4.802   8.259   8.590  0.2646 -1.3953  1.0534
  831MOL0     H12171   4.503   8.461   8.784  0.2978 -1.2303 -0.1196
  831MOL0     H12172   4.281   8.525   8.856 -0.9513  1.0487  1.5418
  831MOL0     H12173   4.081   8.418   9.269  1.8508  0.1406  0.5982
  831MOL0     H12174   4.093   8.270   9.174  0.6861  0.8763 -2.2247
  831MOL0     H12175   3.887   8.315   9.066  1.2173  0.0454 -0.7358
  831MOL0     H12176   3.891   8.489   9.104 -0.2036 -0.6374 -1.8534
  831MOL0     H12177   3.850   8.435   9.351 -0.0772 -0.1779 -0.1482
  831MOL0     H12178   3.858   8.274   9.310  1.7842  0.3451  0.9868
  831MOL0     H12179   3.620   8.342   9.320 -1.3708  0.9206 -1.2614
  831MOL0     H12180   3.639   8.449   9.180 -1.1529 -1.1358 -2.3211
  831MOL0     H12181   3.673   8.055   9.018 -4.2478 -1.2795  1.7017
  831MOL0     H12182   4.320   8.327   9.220 -1.1007  1.7516  0.1283
  831MOL0     H12183   4.602   8.176   9.198  2.0860  0.8828 -3.0573
  831MOL0     H12184   4.694   8.329   9.231  0.1230  1.0571 -2.5021
  831MOL0     H12185   4.543   8.302   9.307 -0.6858  2.6401 -0.6785
  832MOL0     O12186   8.030   5.267   1.868  0.3988  0.2992 -0.0890
  832MOL0     C12187   8.002   5.161   1.938  0.1585 -0.2588 -0.4465
  832MOL0     O12188   8.086   5.050   1.948 -0.0531 -0.8960  0.2984
  832MOL0     C12189   8.211   5.044   1.898  0.3548  0.0107  0.1361
  832MOL0     C12190   8.261   4.913   1.866 -0.0335  0.1036 -1.1272
  832MOL0     C12191   8.388   4.880   1.832  0.3139 -0.1908  0.0488
  832MOL0     C12192   8.476   4.995   1.835 -0.0086  0.7404 -0.5633
  832MOL0     O12193   8.602   4.964   1.798 -0.5847  0.0742 -0.1113
  832MOL0     C12194   8.709   5.053   1.833  0.1123 -0.6629  0.0958
  832MOL0     C12195   8.835   4.975   1.813 -0.5095  0.5657 -0.7647
  832MOL0     C12196   8.855   4.971   1.667  0.0369 -0.0564 -0.1385
  832MOL0     C12197   9.007   4.943   1.648  0.7839 -0.5900  0.3491
  832MOL0     C12198   9.034   4.891   1.507 -0.2653  0.1354  0.1613
  832MOL0     C12199   8.995   4.990   1.393  0.1700 -0.5735  0.0662
  832MOL0     C12200   8.969   4.930   1.264  0.9571  0.0683 -0.4927
  832MOL0     C12201   9.094   4.867   1.213  0.2423  0.0691  0.4236
  832MOL0     N12202   9.077   4.720   1.213  0.4019  0.1990  1.3799
  832MOL0     C12203   9.133   4.619   1.294  0.0399 -0.9338  0.2208
  832MOL0     C12204   9.108   4.502   1.234  0.8034 -0.3723  0.9344
  832MOL0     C12205   9.168   4.376   1.275 -0.3083  0.0357  0.3391
  832MOL0     C12206   9.279   4.332   1.172  0.5853 -0.5656  0.0509
  832MOL0     C12207   9.389   4.427   1.123  0.4506 -0.0341  1.6842
  832MOL0     C12208   9.533   4.403   1.167  0.5854 -0.4902  0.3379
  832MOL0     O12209   9.566   4.267   1.134  0.5781 -0.2926 -0.3661
  832MOL0     C12210   9.694   4.245   1.112  0.3218  0.8040  0.4407
  832MOL0     C12211   9.733   4.158   1.013  0.6743 -0.2954 -0.7605
  832MOL0     C12212   9.871   4.137   0.992 -0.1730  0.8102 -0.2038
  832MOL0     C12213   9.972   4.183   1.076 -0.4118 -0.2638 -0.4449
  832MOL0     C12214  10.117   4.145   1.050  0.1104  0.1575 -0.3282
  832MOL0     O12215  10.211   4.164   1.153  0.2869 -0.3812  0.4011
  832MOL0     C12216  10.340   4.130   1.122  1.3995  0.4202 -0.2262
  832MOL0     C12217  10.404   4.042   1.209  0.4364 -0.0245  0.0063
  832MOL0     C12218  10.540   4.018   1.206 -0.2840  1.0101  0.1839
  832MOL0     C12219  10.620   4.080   1.112  1.1962  0.2598  0.3942
  832MOL0     O12220  10.743   4.039   1.089 -0.8639  0.0360  0.1045
  832MOL0     C12221  10.849   4.141   1.108 -0.1449 -0.0575 -0.4702
  832MOL0     C12222  10.973   4.115   1.025  0.0921  0.3232 -0.0099
  832MOL0     C12223  11.084   4.222   1.065  0.6373 -0.7145  0.1871
  832MOL0     C12224  11.230   4.168   1.039  0.0658  0.0073  0.1776
  832MOL0     C12225  11.343   4.271   1.071  1.0950  0.4229 -0.4949
  832MOL0     C12226  11.372   4.273   1.224 -0.1257 -0.6888  0.2154
  832MOL0     C12227  11.458   4.400   1.261  0.2217  0.1006  0.0329
  832MOL0     C12228  11.523   4.380   1.391 -0.0589 -1.0288  0.0040
  832MOL0    Cl12229  11.669   4.293   1.353 -0.3587 -0.4819 -0.4529
  832MOL0     C12230  10.560   4.171   1.020  0.0144 -0.1052  1.4920
  832MOL0     C12231  10.418   4.200   1.027 -0.8515  0.6123  0.7011
  832MOL0     O12232  10.132   4.086   0.948 -0.3264  0.6183 -0.8364
  832MOL0     C12233   9.928   4.265   1.178 -0.2426  1.0322 -0.5612
  832MOL0     C12234   9.795   4.304   1.190  0.2918 -0.3454 -0.1612
  832MOL0     N12235   9.054   4.529   1.111 -0.2588  0.0001  0.3230
  832MOL0     N12236   9.030   4.666   1.100 -0.2804  0.3726 -0.2348
  832MOL0     C12237   8.432   5.123   1.863  0.1011 -0.4082 -0.7514
  832MOL0     C12238   8.295   5.151   1.888 -0.3807  0.2639  0.3327
  832MOL0     C12239   7.875   5.152   2.005 -0.1099  0.6189  0.0453
  832MOL0     C12240   7.791   5.268   2.020 -0.5318 -0.7538 -0.3393
  832MOL0     C12241   7.669   5.272   2.088  0.7840  0.1939  0.6787
  832MOL0     C12242   7.627   5.158   2.158  0.0419  0.1521 -0.1587
  832MOL0     O12243   7.523   5.169   2.245  0.0975  0.0361 -0.2887
  832MOL0     C12244   7.435   5.059   2.255  0.2707  0.2892  0.5101
  832MOL0     C12245   7.454   4.982   2.384  0.0531  0.1779  0.4862
  832MOL0     C12246   7.339   4.881   2.397 -0.4697 -0.4572 -0.4657
  832MOL0     C12247   7.361   4.769   2.501 -0.6863 -0.1225  0.2297
  832MOL0     C12248   7.234   4.724   2.558  0.6283  0.2173 -0.0669
  832MOL0     C12249   7.126   4.701   2.620  0.0484 -1.4320 -0.0949
  832MOL0     C12250   7.701   5.037   2.141  0.0854 -0.1363  0.1645
  832MOL0     C12251   7.822   5.034   2.064  1.1486  0.3182 -0.5124
  832MOL0     C12252   7.881   4.893   2.055  0.3326 -0.6711  0.9562
  832MOL0     H12253   8.193   4.832   1.889 -1.8611  2.2618  1.7626
  832MOL0     H12254   8.415   4.778   1.810 -1.0087 -0.4216 -0.6370
  832MOL0     H12255   8.702   5.145   1.774  1.0186 -0.6067  0.0696
  832MOL0     H12256   8.705   5.087   1.937 -2.6225  0.0780 -0.1663
  832MOL0     H12257   8.828   4.879   1.865 -3.4515  1.5273  0.9230
  832MOL0     H12258   8.922   5.025   1.856 -1.0866  0.1182  1.0402
  832MOL0     H12259   8.815   5.061   1.619  1.2016 -0.5129 -2.0980
  832MOL0     H12260   8.797   4.886   1.628  0.2710 -0.3895  0.2264
  832MOL0     H12261   9.064   5.031   1.682 -0.0648 -0.4584  1.5078
  832MOL0     H12262   9.047   4.869   1.717  0.1007 -0.0016  1.4094
  832MOL0     H12263   9.137   4.855   1.505 -0.9512 -1.9941 -0.0707
  832MOL0     H12264   8.980   4.798   1.485  2.1320 -0.7775 -2.5186
  832MOL0     H12265   8.902   5.037   1.425 -0.0045 -1.5321  0.9946
  832MOL0     H12266   9.081   5.058   1.391  0.1508 -0.4849  1.4186
  832MOL0     H12267   8.929   5.014   1.206 -1.5330 -0.0364  0.9231
  832MOL0     H12268   8.889   4.859   1.288  0.8354  1.1238  2.7659
  832MOL0     H12269   9.112   4.899   1.110  2.2973  0.8732  0.9724
  832MOL0     H12270   9.179   4.886   1.279  0.6510 -0.5354  0.0750
  832MOL0     H12271   9.201   4.639   1.376  0.1653 -4.6841  1.1914
  832MOL0     H12272   9.213   4.389   1.374 -1.1597 -3.1026  1.2702
  832MOL0     H12273   9.091   4.299   1.285 -0.9808  0.4061 -1.5404
  832MOL0     H12274   9.332   4.249   1.220  2.7602  1.5883  1.6435
  832MOL0     H12275   9.227   4.292   1.084 -3.2261 -2.4019  2.8384
  832MOL0     H12276   9.355   4.528   1.148 -1.0183 -0.1301  0.2039
  832MOL0     H12277   9.397   4.423   1.014  0.8320 -2.0491  1.7382
  832MOL0     H12278   9.540   4.413   1.276  1.8736  0.3995  0.1920
  832MOL0     H12279   9.607   4.466   1.118  1.4890 -1.1275  0.8607
  832MOL0     H12280   9.658   4.103   0.956  1.1033 -1.4830 -0.2104
  832MOL0     H12281   9.901   4.066   0.916 -0.7007 -0.7016  0.9595
  832MOL0     H12282  10.342   3.985   1.276  0.1998 -1.5139 -1.4247
  832MOL0     H12283  10.573   3.931   1.262 -1.2102  1.0772  0.8689
  832MOL0     H12284  10.811   4.243   1.102  1.5409  1.1640  4.7766
  832MOL0     H12285  10.866   4.120   1.214  0.1816 -0.1026 -0.5311
  832MOL0     H12286  11.015   4.019   1.056 -1.9336 -1.4539 -2.3822
  832MOL0     H12287  10.958   4.113   0.917  1.2160 -3.7460 -0.2600
  832MOL0     H12288  11.065   4.303   0.994  0.3074 -1.3985 -0.5159
  832MOL0     H12289  11.077   4.254   1.169 -0.0738 -0.4765  0.0750
  832MOL0     H12290  11.238   4.143   0.933 -1.9184  1.6380 -0.4079
  832MOL0     H12291  11.249   4.078   1.098  0.0257  0.5330  1.0090
  832MOL0     H12292  11.302   4.371   1.054 -1.2976  0.0050  1.9919
  832MOL0     H12293  11.433   4.252   1.012  1.0607  0.8223 -0.6786
  832MOL0     H12294  11.287   4.271   1.293 -1.0934 -0.1862 -0.9182
  832MOL0     H12295  11.431   4.183   1.247 -0.7070 -1.7495 -2.1457
  832MOL0     H12296  11.402   4.493   1.277  0.2798  0.2963 -0.8550
  832MOL0     H12297  11.530   4.423   1.182 -0.1842  2.8733  0.3800
  832MOL0     H12298  11.543   4.477   1.438  0.4065 -1.2800  0.3409
  832MOL0     H12299  11.454   4.322   1.453  0.1159  2.1271  3.5147
  832MOL0     H12300  10.625   4.231   0.957  0.4754 -1.1403  0.9623
  832MOL0     H12301  10.376   4.275   0.962  1.9226  2.8134  1.2295
  832MOL0     H12302  10.008   4.300   1.242  1.4059  0.2036 -2.0950
  832MOL0     H12303   9.773   4.367   1.276 -0.3710 -0.2618 -0.3853
  832MOL0     H12304   8.496   5.209   1.876 -0.2987 -0.2912  0.6425
  832MOL0     H12305   8.259   5.251   1.908  1.9629  1.2122  0.1247
  832MOL0     H12306   7.825   5.359   1.971  1.9655 -1.4354 -0.0298
  832MOL0     H12307   7.602   5.357   2.095  1.4179  0.6320  1.6200
  832MOL0     H12308   7.439   4.993   2.168 -0.2792  2.0553 -0.8944
  832MOL0     H12309   7.340   5.112   2.259  0.4018  0.4519  1.9262
  832MOL0     H12310   7.465   5.044   2.474  0.0925 -0.7451  1.1278
  832MOL0     H12311   7.548   4.927   2.372  0.3906  0.7791  0.3477
  832MOL0     H12312   7.337   4.830   2.300  0.3932 -1.4282  0.0082
  832MOL0     H12313   7.241   4.927   2.413  0.0825  0.3877  0.6131
  832MOL0     H12314   7.406   4.679   2.458  0.4663 -1.4603  3.7964
  832MOL0     H12315   7.429   4.805   2.579  1.7244 -0.0908 -1.7805
  832MOL0     H12316   7.040   4.677   2.679  1.4419 -3.0391  1.3946
  832MOL0     H12317   7.674   4.946   2.194 -0.2665 -0.9554 -1.3782
  832MOL0     H12318   7.989   4.892   2.076  0.5100 -4.1122  0.3642
  832MOL0     H12319   7.839   4.822   2.126  2.6392  0.4936  3.7129
  832MOL0     H12320   7.862   4.862   1.953 -0.4021 -0.2035  0.9448
  833MOL0     O12321   7.372   1.070   0.424 -0.3103  0.4516  0.7046
  833MOL0     C12322   7.396   1.158   0.342  0.5869  0.1452  0.5607
  833MOL0     O12323   7.517   1.162   0.269 -0.5637 -0.2867  0.1426
  833MOL0     C12324   7.618   1.099   0.331 -0.7047  0.6872 -0.0535
  833MOL0     C12325   7.662   0.974   0.279  0.6014 -0.3607  0.6374
  833MOL0     C12326   7.766   0.908   0.352  0.4975  0.7921  0.2567
  833MOL0     C12327   7.830   0.961   0.464 -0.0655  0.5383 -0.7746
  833MOL0     O12328   7.920   0.877   0.528 -0.3893 -0.2900 -0.3984
  833MOL0     C12329   7.927   0.885   0.679 -0.1343  0.9191 -0.3690
  833MOL0     C12330   8.047   0.802   0.713 -0.4825  0.9152  0.1841
  833MOL0     C12331   8.181   0.836   0.647  0.6490 -0.4004 -0.3571
  833MOL0     C12332   8.254   0.962   0.704 -0.0408 -0.7159 -0.4533
  833MOL0     C12333   8.320   1.046   0.603 -0.8138 -0.2477  0.8495
  833MOL0     C12334   8.376   1.167   0.678 -0.2218  0.8142  0.3693
  833MOL0     C12335   8.459   1.259   0.589 -1.1274 -0.2272  0.4893
  833MOL0     C12336   8.592   1.190   0.552 -0.4272  0.2753  0.5521
  833MOL0     N12337   8.688   1.290   0.507  0.2688 -0.1669  0.7158
  833MOL0     C12338   8.763   1.356   0.592  0.0073  0.2323  0.5227
  833MOL0     C12339   8.841   1.432   0.515 -0.0548  0.1656 -0.0257
  833MOL0     C12340   8.965   1.504   0.567  1.2061  0.1756  0.4047
  833MOL0     C12341   9.012   1.613   0.475 -0.1905  0.0327 -0.1109
  833MOL0     C12342   9.098   1.556   0.363  0.1726 -0.3307  0.5805
  833MOL0     C12343   9.144   1.654   0.250  0.3878 -0.2341 -0.4915
  833MOL0     O12344   9.231   1.587   0.166  0.3643  0.3176  0.0626
  833MOL0     C12345   9.366   1.591   0.194  0.0001 -0.3733 -0.7448
  833MOL0     C12346   9.452   1.548   0.094  0.5144 -0.4031 -0.4615
  833MOL0     C12347   9.594   1.535   0.106 -0.0977  0.0401 -0.9388
  833MOL0     C12348   9.655   1.580   0.229  0.0686 -0.3323 -0.2550
  833MOL0     C12349   9.801   1.581   0.252 -0.7968  0.4328 -0.0515
  833MOL0     O12350   9.862   1.655   0.338 -1.1886 -0.3130 -0.0618
  833MOL0     C12351   9.990   1.629   0.394 -0.1328 -0.3014 -0.5765
  833MOL0     C12352  10.062   1.736   0.452  0.4637  0.3647 -0.8650
  833MOL0     C12353  10.198   1.722   0.490  0.1743  0.3243 -0.5018
  833MOL0     C12354  10.261   1.593   0.482  0.1730 -0.0505 -0.3081
  833MOL0     O12355  10.381   1.566   0.535 -0.0346 -0.3250 -0.3378
  833MOL0     C12356  10.477   1.661   0.496 -0.2338  0.6514 -0.2013
  833MOL0     C12357  10.613   1.616   0.546  0.5211  0.1806 -0.3035
  833MOL0     C12358  10.719   1.719   0.512  0.0317  0.1703 -0.1646
  833MOL0     C12359  10.762   1.715   0.359  0.1096  1.0671 -0.3597
  833MOL0     C12360  10.892   1.807   0.336  0.4485  1.0393  0.0285
  833MOL0     C12361  11.007   1.733   0.279  0.0103  0.1625  0.2243
  833MOL0     C12362  11.133   1.828   0.259  0.2376 -0.0784  0.1969
  833MOL0     C12363  11.215   1.811   0.130 -0.0881  0.3514 -0.0467
  833MOL0    Cl12364  11.347   1.930   0.143  0.5420 -0.0278 -0.5229
  833MOL0     C12365  10.191   1.483   0.438 -0.2627  0.2013  0.5652
  833MOL0     C12366  10.062   1.509   0.388  0.8016 -0.4532 -0.2181
  833MOL0     O12367   9.852   1.495   0.179  0.3674  0.0880 -0.8599
  833MOL0     C12368   9.562   1.629   0.335 -1.1147 -0.0156  1.0221
  833MOL0     C12369   9.425   1.628   0.313  0.5681 -0.0734  0.1974
  833MOL0     N12370   8.799   1.412   0.380 -0.3631  0.1421  0.2743
  833MOL0     N12371   8.707   1.323   0.373 -0.2897  0.3834 -0.3904
  833MOL0     C12372   7.788   1.088   0.507  0.7912  0.2657 -0.2129
  833MOL0     C12373   7.682   1.150   0.442 -0.5704 -0.6079 -0.4682
  833MOL0     C12374   7.286   1.257   0.314 -0.0809  0.4530  0.5348
  833MOL0     C12375   7.311   1.374   0.235  0.5854 -0.2705 -0.1331
  833MOL0     C12376   7.215   1.478   0.217 -0.4623  0.6820 -0.9463
  833MOL0     C12377   7.090   1.465   0.274 -1.0532 -0.4792  1.0177
  833MOL0     O12378   7.007   1.566   0.239  0.1222  0.4587  0.3447
  833MOL0     C12379   6.879   1.578   0.303 -0.2353  0.0092 -0.5950
  833MOL0     C12380   6.808   1.704   0.250 -0.1125  0.0987  0.1683
  833MOL0     C12381   6.685   1.737   0.334 -0.1150 -0.2105  0.0599
  833MOL0     C12382   6.585   1.843   0.273  0.0835 -0.9362  0.0620
  833MOL0     C12383   6.656   1.965   0.249 -1.0230 -0.1677 -0.7017
  833MOL0     C12384   6.741   2.050   0.225 -0.0970  0.3764 -0.5369
  833MOL0     C12385   7.061   1.352   0.356 -0.8366 -0.2315 -0.0124
  833MOL0     C12386   7.156   1.244   0.374  0.5233 -0.4828 -0.5542
  833MOL0     C12387   7.112   1.127   0.461 -0.0001  0.3004 -0.1463
  833MOL0     H12388   7.620   0.924   0.192  1.1939 -1.3400  0.8905
  833MOL0     H12389   7.785   0.806   0.322 -0.4257  0.3847  1.0069
  833MOL0     H12390   7.936   0.987   0.717 -2.4306 -0.2599  4.0421
  833MOL0     H12391   7.837   0.847   0.729  0.9297 -1.6539 -0.2378
  833MOL0     H12392   8.028   0.704   0.668 -0.6006  0.4126  1.2958
  833MOL0     H12393   8.064   0.800   0.821 -0.3681 -0.7771  0.1526
  833MOL0     H12394   8.156   0.849   0.541 -2.4884  1.3098  0.4485
  833MOL0     H12395   8.244   0.747   0.647 -1.4172 -2.0184 -2.6756
  833MOL0     H12396   8.178   1.022   0.754 -1.4750 -1.8079 -1.2089
  833MOL0     H12397   8.330   0.931   0.776  1.5581 -0.7093 -2.0723
  833MOL0     H12398   8.392   0.986   0.548 -3.1348 -2.7563  0.2864
  833MOL0     H12399   8.252   1.082   0.525  1.7205 -0.4057 -1.5529
  833MOL0     H12400   8.290   1.227   0.712 -0.5415  0.1873  0.6891
  833MOL0     H12401   8.433   1.141   0.767  1.2319 -0.5905 -0.8981
  833MOL0     H12402   8.484   1.344   0.653 -0.2476  1.4067 -1.8845
  833MOL0     H12403   8.413   1.301   0.499  1.2600  0.6610 -0.4047
  833MOL0     H12404   8.636   1.140   0.639  2.4018 -1.0121 -1.4427
  833MOL0     H12405   8.571   1.111   0.480 -4.1536 -0.0940  1.8508
  833MOL0     H12406   8.770   1.350   0.700  2.4747  0.1068  0.4050
  833MOL0     H12407   8.924   1.542   0.661 -1.6599 -2.6500  0.4987
  833MOL0     H12408   9.044   1.432   0.590 -0.2007 -0.5685  3.3372
  833MOL0     H12409   8.925   1.671   0.443 -0.3212 -0.4762 -0.6789
  833MOL0     H12410   9.068   1.688   0.532 -1.9829  1.0179  0.4101
  833MOL0     H12411   9.036   1.482   0.311 -2.4331  2.7338 -1.0836
  833MOL0     H12412   9.189   1.516   0.408  0.8371  0.1120 -0.3247
  833MOL0     H12413   9.192   1.746   0.284  1.2761 -0.4824 -1.0656
  833MOL0     H12414   9.054   1.672   0.190 -0.2219 -0.5374  0.3044
  833MOL0     H12415   9.412   1.525  -0.005 -0.2146  1.2513 -0.5761
  833MOL0     H12416   9.650   1.495   0.023 -0.8833 -1.4203 -0.8024
  833MOL0     H12417  10.022   1.837   0.457 -1.2525 -0.3151  0.3025
  833MOL0     H12418  10.260   1.807   0.518 -1.4588  1.2031  0.6774
  833MOL0     H12419  10.482   1.664   0.387  3.1136 -3.0132 -0.3817
  833MOL0     H12420  10.460   1.765   0.527 -2.6109  0.6660 -1.3428
  833MOL0     H12421  10.594   1.604   0.653 -3.4552  0.5623 -0.8219
  833MOL0     H12422  10.634   1.523   0.493  1.2976 -2.0763  3.5700
  833MOL0     H12423  10.691   1.823   0.533  2.6384  1.1083 -0.8851
  833MOL0     H12424  10.795   1.690   0.584 -0.8764  0.2995  0.8799
  833MOL0     H12425  10.680   1.741   0.292 -0.4501 -1.3203 -0.6832
  833MOL0     H12426  10.786   1.609   0.345  0.6364  0.8593  1.7464
  833MOL0     H12427  10.926   1.838   0.435 -3.9841  0.2393  2.0730
  833MOL0     H12428  10.875   1.899   0.280  2.0946  1.3307 -0.0226
  833MOL0     H12429  11.038   1.647   0.339  1.9961  0.3652 -0.4621
  833MOL0     H12430  10.980   1.698   0.179  0.8090 -1.9619  0.7039
  833MOL0     H12431  11.194   1.820   0.350  0.2854  0.6913  0.2420
  833MOL0     H12432  11.111   1.935   0.254  0.6286 -0.0473 -2.0287
  833MOL0     H12433  11.251   1.708   0.123  1.9868  1.0465 -0.4101
  833MOL0     H12434  11.165   1.807   0.032  0.0753 -3.5600 -0.1394
  833MOL0     H12435  10.229   1.382   0.435 -1.1809 -0.1376 -1.5300
  833MOL0     H12436  10.004   1.427   0.348 -0.3746  0.9719 -1.5055
  833MOL0     H12437   9.610   1.668   0.424 -1.6134  0.7065  0.9798
  833MOL0     H12438   9.373   1.659   0.403  3.5875  1.1709  1.6451
  833MOL0     H12439   7.840   1.139   0.588 -1.5917 -0.2046  1.7146
  833MOL0     H12440   7.645   1.251   0.455 -5.0954 -1.8323 -1.9360
  833MOL0     H12441   7.405   1.389   0.184  0.4058  0.6801 -0.2134
  833MOL0     H12442   7.242   1.555   0.146  1.3588  1.3785  0.4231
  833MOL0     H12443   6.889   1.585   0.412  0.5067 -2.1034 -0.4647
  833MOL0     H12444   6.811   1.493   0.286 -1.0823  0.4738  0.3383
  833MOL0     H12445   6.788   1.690   0.143 -1.5690 -0.4389  0.4942
  833MOL0     H12446   6.879   1.787   0.258 -0.8822  0.7925 -0.1217
  833MOL0     H12447   6.711   1.757   0.438 -0.9929 -1.4043  0.5363
  833MOL0     H12448   6.628   1.644   0.336 -1.4775  0.6031  0.7424
  833MOL0     H12449   6.537   1.811   0.181 -1.3132  2.2607 -0.4342
  833MOL0     H12450   6.504   1.860   0.344  2.3783  1.6080  2.3401
  833MOL0     H12451   6.810   2.130   0.208 -0.1285  0.7182  0.8768
  833MOL0     H12452   6.959   1.333   0.387 -0.4363 -1.1859  0.7954
  833MOL0     H12453   7.117   1.030   0.410  1.3841  0.4586 -0.3589
  833MOL0     H12454   7.170   1.118   0.553  2.0135  0.4279 -1.3296
  833MOL0     H12455   7.009   1.138   0.496  0.1553 -0.4414  0.5775
  834MOL0     O12456   5.327   3.057   9.629 -0.0635  0.3118 -0.2019
  834MOL0     C12457   5.237   3.021   9.699  0.3472 -0.4670 -1.1675
  834MOL0     O12458   5.238   2.926   9.798  1.1621  0.2121 -0.0559
  834MOL0     C12459   5.355   2.855   9.820 -0.0977  0.0935 -0.8175
  834MOL0     C12460   5.487   2.890   9.789 -0.3790  0.0371  1.0016
  834MOL0     C12461   5.595   2.806   9.822 -0.3889 -0.3886  0.7083
  834MOL0     C12462   5.574   2.690   9.900 -0.3101  0.4682 -0.0271
  834MOL0     O12463   5.662   2.614   9.967  1.2474 -0.7601  0.0609
  834MOL0     C12464   5.795   2.658   9.942 -0.5366  0.1793 -0.1849
  834MOL0     C12465   5.897   2.571  10.022 -0.2502  0.3347  0.1208
  834MOL0     C12466   6.039   2.594   9.969  0.9691  0.1801 -0.5300
  834MOL0     C12467   6.149   2.494  10.029  0.3162 -0.4631 -0.4974
  834MOL0     C12468   6.287   2.557  10.011  1.0234 -0.1784 -0.4867
  834MOL0     C12469   6.402   2.466  10.050  0.2586  0.5212 -0.2544
  834MOL0     C12470   6.447   2.357   9.951 -0.3837 -0.2242 -0.1487
  834MOL0     C12471   6.549   2.255  10.004  0.1786  0.3321 -0.1272
  834MOL0     N12472   6.681   2.320  10.019 -0.3702 -0.3968  0.3350
  834MOL0     C12473   6.725   2.393  10.130  1.3112 -0.1970  1.1567
  834MOL0     C12474   6.847   2.425  10.086 -0.2157  0.1488 -0.4139
  834MOL0     C12475   6.943   2.491  10.172 -0.0851 -1.3852  0.1651
  834MOL0     C12476   7.059   2.575  10.092  0.6209  0.4555 -0.1292
  834MOL0     C12477   7.168   2.613  10.194  0.9624 -0.2046  0.3759
  834MOL0     C12478   7.308   2.633  10.132 -0.5523 -0.1538  0.9062
  834MOL0     O12479   7.399   2.691  10.232  0.1655 -0.2816  0.2388
  834MOL0     C12480   7.533   2.695  10.205 -0.3985 -0.2102 -0.0361
  834MOL0     C12481   7.603   2.624  10.101 -0.2264 -0.0991 -0.7516
  834MOL0     C12482   7.743   2.634  10.080 -0.2094 -0.3917  0.0816
  834MOL0     C12483   7.815   2.713  10.170  0.0273  0.2253  0.3636
  834MOL0     C12484   7.966   2.718  10.158  0.4800 -0.7105  0.6951
  834MOL0     O12485   8.033   2.774  10.259 -0.0445  0.2648  0.1192
  834MOL0     C12486   8.170   2.759  10.275  0.9131  0.5178 -0.4361
  834MOL0     C12487   8.241   2.852  10.348 -0.1507 -0.6225 -0.4529
  834MOL0     C12488   8.380   2.836  10.384 -0.4234 -0.0224 -0.3454
  834MOL0     C12489   8.446   2.722  10.348 -0.1204  0.4883  0.5164
  834MOL0     O12490   8.573   2.710  10.387 -0.0017  0.8365 -0.1448
  834MOL0     C12491   8.624   2.572  10.384 -0.0954 -0.2344 -0.1456
  834MOL0     C12492   8.769   2.592  10.434 -0.7747 -1.0721  0.5519
  834MOL0     C12493   8.866   2.478  10.424 -0.9947  0.0458 -0.0074
  834MOL0     C12494   8.982   2.523  10.495  0.2319 -0.1022  0.2320
  834MOL0     C12495   9.104   2.437  10.460 -0.2364 -0.0348  0.7971
  834MOL0     C12496   9.221   2.486  10.546 -0.3691  1.1631  1.0403
  834MOL0     C12497   9.193   2.503  10.696  0.0020  0.4211 -0.1913
  834MOL0     C12498   9.308   2.456  10.781  0.0008 -0.4382  0.5053
  834MOL0    Cl12499   9.444   2.572  10.747  0.0459 -0.0121 -0.7678
  834MOL0     C12500   8.380   2.634  10.257  0.5676 -0.5070  0.7655
  834MOL0     C12501   8.239   2.647  10.232 -0.2351  1.0688  0.4894
  834MOL0     O12502   8.014   2.673  10.058 -0.3195 -0.2644 -0.3689
  834MOL0     C12503   7.749   2.777  10.280  0.1788  0.2409  0.3001
  834MOL0     C12504   7.606   2.770  10.295  0.0821  0.4141  0.2293
  834MOL0     N12505   6.883   2.372   9.966  0.1169  0.0322  0.0146
  834MOL0     N12506   6.782   2.308   9.924 -0.4020  0.3918  0.8251
  834MOL0     C12507   5.448   2.648   9.921  1.3303 -0.7142 -0.5745
  834MOL0     C12508   5.339   2.733   9.885 -0.4048  0.4942 -0.4995
  834MOL0     C12509   5.104   3.083   9.672  1.0003  0.6427 -0.9056
  834MOL0     C12510   4.986   3.023   9.728  0.1820  0.5678 -0.0855
  834MOL0     C12511   4.860   3.074   9.700  0.2158 -0.4987 -0.8294
  834MOL0     C12512   4.841   3.194   9.627 -0.3528  0.1802 -0.8129
  834MOL0     O12513   4.721   3.253   9.595 -0.4215  0.0523 -0.7105
  834MOL0     C12514   4.602   3.227   9.672 -0.3648 -0.6036  0.1828
  834MOL0     C12515   4.494   3.329   9.632 -0.1538  0.0849  0.7601
  834MOL0     C12516   4.368   3.283   9.704 -0.0018 -0.6143 -0.0923
  834MOL0     C12517   4.247   3.337   9.636  0.5184  0.2602 -0.4056
  834MOL0     C12518   4.194   3.239   9.539  0.0927  0.1034  0.0545
  834MOL0     C12519   4.153   3.152   9.463  0.7579  0.0666 -0.2954
  834MOL0     C12520   4.956   3.254   9.585 -0.8823  0.2147 -0.2463
  834MOL0     C12521   5.087   3.200   9.604  0.5168 -0.3320 -0.0113
  834MOL0     C12522   5.203   3.280   9.550  0.2071  0.3809 -0.1538
  834MOL0     H12523   5.512   2.977   9.730 -0.3527 -2.2688 -2.7376
  834MOL0     H12524   5.694   2.848   9.807 -1.2162  1.9543  1.2527
  834MOL0     H12525   5.820   2.658   9.835  1.9006 -0.2273  0.3115
  834MOL0     H12526   5.807   2.759   9.982  2.2866 -0.6135  1.2829
  834MOL0     H12527   5.868   2.466  10.013 -0.0539  0.3752 -1.2087
  834MOL0     H12528   5.887   2.603  10.126  0.5004  0.2073  0.2350
  834MOL0     H12529   6.064   2.693  10.009  1.0499 -1.2384  3.3373
  834MOL0     H12530   6.043   2.584   9.861  0.4714  0.9885 -0.6378
  834MOL0     H12531   6.138   2.473  10.136  0.8268 -0.4288 -0.4322
  834MOL0     H12532   6.141   2.400   9.974  2.2703  0.0795 -1.8216
  834MOL0     H12533   6.308   2.588   9.909  1.6047  2.4785  0.3585
  834MOL0     H12534   6.286   2.646  10.074  0.7512 -1.2183  1.0485
  834MOL0     H12535   6.489   2.529  10.071 -0.0375  0.3529  1.6906
  834MOL0     H12536   6.374   2.411  10.140  1.1959 -1.1903 -0.9614
  834MOL0     H12537   6.495   2.403   9.865 -1.5148 -2.2668 -1.9505
  834MOL0     H12538   6.361   2.301   9.914 -1.6867  2.5084 -1.5844
  834MOL0     H12539   6.507   2.219  10.098  0.5996  2.3117  0.8671
  834MOL0     H12540   6.550   2.179   9.925 -3.2776  2.8960 -2.9906
  834MOL0     H12541   6.661   2.411  10.216 -1.6484  1.3919 -1.1860
  834MOL0     H12542   6.888   2.559  10.238 -1.2506 -1.1858 -0.9710
  834MOL0     H12543   6.979   2.413  10.239 -0.1991 -1.9972 -0.4836
  834MOL0     H12544   7.092   2.510  10.010 -1.2686  1.0552 -1.4402
  834MOL0     H12545   7.021   2.665  10.043  1.2453  0.7349 -0.1029
  834MOL0     H12546   7.172   2.544  10.278 -0.8729 -1.0977 -0.2134
  834MOL0     H12547   7.126   2.704  10.237 -1.3778 -1.8836  1.8823
  834MOL0     H12548   7.310   2.701  10.046 -1.2384  1.1608  1.8786
  834MOL0     H12549   7.343   2.537  10.095 -0.0403 -0.0988  1.2303
  834MOL0     H12550   7.567   2.549  10.032  2.8910 -0.7997 -1.7628
  834MOL0     H12551   7.782   2.590   9.989 -0.0937  1.1550 -0.6536
  834MOL0     H12552   8.170   2.925  10.385  1.5585  0.2073  1.3402
  834MOL0     H12553   8.435   2.900  10.451  1.6057 -0.3430 -1.6158
  834MOL0     H12554   8.562   2.508  10.447  1.4811 -1.0391  0.6608
  834MOL0     H12555   8.615   2.532  10.282 -1.7905  0.7569 -0.4116
  834MOL0     H12556   8.811   2.669  10.369 -0.6044 -3.4052 -2.2805
  834MOL0     H12557   8.756   2.619  10.539 -3.9715 -2.6621  0.6766
  834MOL0     H12558   8.833   2.389  10.480  1.0637  0.0898  1.4147
  834MOL0     H12559   8.891   2.454  10.320  1.5353 -1.4591  0.8559
  834MOL0     H12560   8.955   2.513  10.601 -0.2680  1.1169  0.2370
  834MOL0     H12561   9.010   2.624  10.465  0.5788 -0.4819 -0.7766
  834MOL0     H12562   9.123   2.446  10.353 -2.3925 -1.4697  0.2291
  834MOL0     H12563   9.086   2.332  10.484 -0.7699  0.0525  0.7946
  834MOL0     H12564   9.309   2.420  10.545 -0.0645  1.5759  0.2930
  834MOL0     H12565   9.258   2.581  10.507  1.4879  0.3511  0.7162
  834MOL0     H12566   9.107   2.444  10.730  2.1370 -2.6791  0.1844
  834MOL0     H12567   9.175   2.609  10.718 -1.7211 -0.0651  1.0470
  834MOL0     H12568   9.295   2.457  10.889 -1.4452  2.3969  0.3941
  834MOL0     H12569   9.342   2.359  10.743  0.7721  0.4163 -1.0942
  834MOL0     H12570   8.419   2.546  10.208 -1.9369 -0.4150 -1.6066
  834MOL0     H12571   8.192   2.576  10.164 -1.2266  1.1033  1.1136
  834MOL0     H12572   7.815   2.839  10.339 -1.2421  1.3515  0.7876
  834MOL0     H12573   7.568   2.836  10.373  0.3542  0.9829 -0.1148
  834MOL0     H12574   5.417   2.567   9.986 -0.6592  0.8478  0.5459
  834MOL0     H12575   5.237   2.706   9.908 -0.6260  1.7279  0.0161
  834MOL0     H12576   4.985   2.935   9.792 -0.3683  0.4670 -0.2269
  834MOL0     H12577   4.770   3.021   9.730 -0.4152  0.7060 -0.5532
  834MOL0     H12578   4.612   3.233   9.780 -0.5598 -2.5088  0.3329
  834MOL0     H12579   4.567   3.127   9.647 -0.0281 -1.4278  2.7967
  834MOL0     H12580   4.480   3.324   9.524  0.5502 -1.6779  0.7151
  834MOL0     H12581   4.509   3.432   9.664 -0.5771 -0.0743  1.4996
  834MOL0     H12582   4.366   3.341   9.796 -0.7299  1.5693 -1.4173
  834MOL0     H12583   4.357   3.175   9.720 -0.1323 -0.5811  0.0486
  834MOL0     H12584   4.165   3.361   9.705  2.1448  0.7774  1.4478
  834MOL0     H12585   4.280   3.430   9.591  1.5068  0.2747  0.3039
  834MOL0     H12586   4.104   3.069   9.416 -0.6105  0.1146  0.9344
  834MOL0     H12587   4.945   3.340   9.520  3.0509  1.0193 -0.1055
  834MOL0     H12588   5.254   3.224   9.471 -0.4520  0.5149 -0.6853
  834MOL0     H12589   5.170   3.365   9.490  0.5820 -0.0313 -0.9546
  834MOL0     H12590   5.273   3.310   9.629  1.8032 -2.3447 -0.4182
  835MOL0     O12591   9.124  10.749   9.935 -1.2065 -0.1871 -0.0211
  835MOL0     C12592   9.092  10.845  10.005  0.8843  0.3877 -0.1863
  835MOL0     O12593   9.170  10.919  10.076  0.1382  0.5528  0.2354
  835MOL0     C12594   9.304  10.935  10.040  0.7390  0.5650 -0.5871
  835MOL0     C12595   9.394  10.981  10.142 -0.1795  0.3729 -0.0778
  835MOL0     C12596   9.534  10.995  10.118  0.3062  0.0818 -0.1043
  835MOL0     C12597   9.582  10.960   9.986  0.3085 -0.2743 -0.7971
  835MOL0     O12598   9.714  10.979   9.976  0.1590  0.6182 -0.5392
  835MOL0     C12599   9.774  10.985   9.848 -0.1730  0.0377 -0.6392
  835MOL0     C12600   9.928  10.971   9.861  0.6332  0.3800 -0.0552
  835MOL0     C12601   9.974  10.830   9.880  0.6752 -0.3367 -0.0689
  835MOL0     C12602  10.112  10.800   9.820 -0.4958  0.1225 -0.1617
  835MOL0     C12603  10.223  10.874   9.899  0.0237  0.0939 -0.7181
  835MOL0     C12604  10.353  10.799   9.848 -0.5752 -0.2187  0.4033
  835MOL0     C12605  10.476  10.873   9.885 -0.3401 -0.4044  0.0060
  835MOL0     C12606  10.489  11.018   9.823  0.7044  0.0933  0.2000
  835MOL0     N12607  10.624  11.057   9.791 -0.2365 -0.0602  0.7084
  835MOL0     C12608  10.682  11.045   9.669  0.5790 -0.5735  0.8487
  835MOL0     C12609  10.814  11.072   9.681  0.2963  0.1015 -0.5099
  835MOL0     C12610  10.908  11.041   9.565 -0.0290 -0.4403  0.0242
  835MOL0     C12611  10.947  10.885   9.553 -0.5160  0.4714 -0.2379
  835MOL0     C12612  10.993  10.834   9.689 -0.6359  0.1618 -0.6425
  835MOL0     C12613  11.106  10.910   9.747  0.1999 -0.4853 -0.3006
  835MOL0     O12614  11.215  10.885   9.656 -0.7952 -0.4276  0.1127
  835MOL0     C12615  11.340  10.910   9.689 -0.9022 -0.1949 -0.4577
  835MOL0     C12616  11.383  11.002   9.789  0.2652 -0.8283  0.4436
  835MOL0     C12617  11.521  11.030   9.807  0.1844 -0.3372 -0.4117
  835MOL0     C12618  11.624  10.978   9.726  0.1941 -1.1455  0.0461
  835MOL0     C12619  11.758  11.045   9.731 -0.5659  0.3751 -0.7333
  835MOL0     O12620  11.846  10.996   9.636  0.9275  0.0568  0.2284
  835MOL0     C12621  11.968  11.059   9.628 -0.1998  0.1636 -0.2993
  835MOL0     C12622  11.999  11.127   9.509  0.1002 -0.1271 -0.6726
  835MOL0     C12623  12.129  11.193   9.493 -0.1795  0.1071  0.8392
  835MOL0     C12624  12.222  11.187   9.589 -0.1128  0.4892 -0.8878
  835MOL0     O12625  12.337  11.253   9.591 -0.4820 -0.2558 -0.6201
  835MOL0     C12626  12.374  11.349   9.493  0.5293 -0.0746  1.0705
  835MOL0     C12627  12.484  11.433   9.538  0.7710  0.0332  0.7676
  835MOL0     C12628  12.543  11.525   9.428 -0.5210 -0.5154 -0.3635
  835MOL0     C12629  12.648  11.610   9.490 -0.3687  0.5410  1.5246
  835MOL0     C12630  12.706  11.725   9.402 -0.2775 -0.4415 -0.7325
  835MOL0     C12631  12.764  11.836   9.484  0.0320  0.0341 -0.0197
  835MOL0     C12632  12.848  11.919   9.392 -0.2260 -0.6819 -0.1128
  835MOL0     C12633  12.869  12.060   9.461 -0.3433  0.3638  0.3398
  835MOL0    Cl12634  12.911  12.185   9.337 -0.3659  0.4474  0.2804
  835MOL0     C12635  12.188  11.110   9.704  0.2810  0.1150  1.3364
  835MOL0     C12636  12.064  11.048   9.727 -0.2078 -0.5817  0.3093
  835MOL0     O12637  11.780  11.138   9.807 -0.0851 -0.0691 -0.6074
  835MOL0     C12638  11.586  10.884   9.630 -0.2413 -0.2589  0.1439
  835MOL0     C12639  11.444  10.851   9.610  0.5134  0.4092 -0.0455
  835MOL0     N12640  10.835  11.116   9.811  0.4854  0.4259  0.2824
  835MOL0     N12641  10.716  11.112   9.872 -0.2709 -0.0697  0.1795
  835MOL0     C12642   9.490  10.930   9.887  0.5184 -0.4765 -0.0913
  835MOL0     C12643   9.354  10.924   9.912 -0.9169 -0.5135 -0.1037
  835MOL0     C12644   8.944  10.881  10.021 -0.2141  0.4881 -0.9036
  835MOL0     C12645   8.910  10.989  10.101 -1.0246  0.8834 -0.7235
  835MOL0     C12646   8.777  11.021  10.128 -0.6158  0.2352 -0.5539
  835MOL0     C12647   8.674  10.949  10.079 -0.8459  1.2422  0.1249
  835MOL0     O12648   8.545  10.966  10.110  0.4241 -0.0487  0.4425
  835MOL0     C12649   8.508  11.045  10.226 -0.3726  0.5989  1.2544
  835MOL0     C12650   8.356  11.031  10.251 -0.8297  0.4052  0.4314
  835MOL0     C12651   8.327  10.888  10.313 -0.4800 -0.4890  0.2599
  835MOL0     C12652   8.193  10.899  10.379 -0.6572 -0.2547 -0.7508
  835MOL0     C12653   8.134  10.775  10.406  0.3458  0.5724 -0.0795
  835MOL0     C12654   8.076  10.668  10.437 -0.2370  0.0233  0.2821
  835MOL0     C12655   8.705  10.848   9.985 -1.0826  0.3618 -0.1229
  835MOL0     C12656   8.835  10.809   9.959 -0.8432  1.6021 -0.1326
  835MOL0     C12657   8.860  10.686   9.877 -0.3357 -0.8207  0.4083
  835MOL0     H12658   9.361  11.007  10.242  0.6195 -0.1147  0.3264
  835MOL0     H12659   9.598  11.031  10.197 -0.9134  0.8228  0.5712
  835MOL0     H12660   9.735  10.909   9.779  0.2626 -1.8688  1.1416
  835MOL0     H12661   9.747  11.085   9.812 -1.3509  0.8189  2.1883
  835MOL0     H12662   9.953  11.027   9.952 -0.1335  1.5519 -0.5378
  835MOL0     H12663   9.966  11.025   9.774  1.2597  0.7244  0.4214
  835MOL0     H12664   9.913  10.767   9.815 -0.0778  2.8745 -2.7037
  835MOL0     H12665   9.972  10.804   9.986  3.4672  2.3247  0.7839
  835MOL0     H12666  10.121  10.691   9.822 -0.8317  0.0979  1.5226
  835MOL0     H12667  10.125  10.836   9.717 -0.1980 -3.2493 -1.4108
  835MOL0     H12668  10.221  10.982   9.878  1.2855  0.5132  1.1208
  835MOL0     H12669  10.217  10.860  10.007  1.5670 -0.8301 -0.7208
  835MOL0     H12670  10.368  10.696   9.883 -2.4736 -1.5835 -2.4830
  835MOL0     H12671  10.352  10.782   9.740 -0.2806  1.6700  0.0649
  835MOL0     H12672  10.569  10.820   9.861  1.0042  1.4221  0.8521
  835MOL0     H12673  10.483  10.880   9.994 -0.1426  1.6911 -0.0901
  835MOL0     H12674  10.441  11.031   9.725  2.7935  3.5906 -0.5392
  835MOL0     H12675  10.435  11.086   9.888  0.2266 -0.3073  0.2267
  835MOL0     H12676  10.643  10.999   9.579  1.7629 -2.0079  1.0284
  835MOL0     H12677  10.867  11.084   9.473  1.1479 -0.4169 -0.5044
  835MOL0     H12678  11.002  11.092   9.586 -0.3121 -0.4828  1.5256
  835MOL0     H12679  10.861  10.824   9.523 -0.8281 -1.5823  3.9853
  835MOL0     H12680  11.023  10.875   9.476 -2.0620  2.0312 -2.0702
  835MOL0     H12681  11.022  10.729   9.686  0.3266  0.4226 -1.1497
  835MOL0     H12682  10.913  10.829   9.764  0.4932 -2.8001  0.5168
  835MOL0     H12683  11.118  10.865   9.845 -3.0417 -0.0815  0.3964
  835MOL0     H12684  11.084  11.014   9.775 -2.4417 -1.3526  1.1416
  835MOL0     H12685  11.318  11.054   9.858  1.3411  0.0590  0.8123
  835MOL0     H12686  11.543  11.109   9.879 -1.6632  0.3721 -0.5626
  835MOL0     H12687  11.947  11.133   9.413 -0.3919  0.3415 -0.3821
  835MOL0     H12688  12.161  11.241   9.401 -1.8666  1.7766  1.0545
  835MOL0     H12689  12.406  11.291   9.406 -0.3277  3.3116 -1.7411
  835MOL0     H12690  12.298  11.422   9.460  3.7016  3.2073  0.4000
  835MOL0     H12691  12.456  11.495   9.624  2.3234  1.4142  0.3240
  835MOL0     H12692  12.562  11.365   9.572  0.1212  0.1593  2.6483
  835MOL0     H12693  12.588  11.463   9.349 -0.0220  0.3745 -0.7961
  835MOL0     H12694  12.464  11.592   9.392 -2.9611 -2.1941  1.5105
  835MOL0     H12695  12.730  11.543   9.517  0.9450  0.8355 -1.3299
  835MOL0     H12696  12.615  11.654   9.585  2.3456 -0.6116  3.1292
  835MOL0     H12697  12.629  11.761   9.333  0.2182 -0.0224 -1.0766
  835MOL0     H12698  12.793  11.689   9.346 -0.1242  0.1636 -0.8840
  835MOL0     H12699  12.678  11.889   9.528  0.3712  0.6653 -0.1087
  835MOL0     H12700  12.830  11.798   9.562 -0.9995 -0.4960  0.6224
  835MOL0     H12701  12.791  11.938   9.300 -2.4464 -2.1730  0.8783
  835MOL0     H12702  12.944  11.873   9.370  0.9535  1.6152 -0.1003
  835MOL0     H12703  12.782  12.100   9.513  0.4819  1.9415  0.5730
  835MOL0     H12704  12.946  12.051   9.538 -0.3249  1.4810  0.4745
  835MOL0     H12705  12.269  11.110   9.777  0.3334  2.6048  1.3496
  835MOL0     H12706  12.040  10.997   9.820 -0.8640 -0.5115  0.1806
  835MOL0     H12707  11.660  10.842   9.563  0.7706  2.4154 -0.5455
  835MOL0     H12708  11.412  10.793   9.524 -2.6408 -0.5851  1.6244
  835MOL0     H12709   9.518  10.907   9.784 -1.1335  3.1415 -1.5599
  835MOL0     H12710   9.299  10.901   9.822  0.4020  0.3707 -1.1880
  835MOL0     H12711   8.987  11.038  10.160 -1.9098 -0.2605  1.5098
  835MOL0     H12712   8.753  11.114  10.178 -0.6806 -0.9056  1.6700
  835MOL0     H12713   8.531  11.148  10.197  0.5415  0.5426  1.7617
  835MOL0     H12714   8.577  11.024  10.308  2.1949  0.6490 -0.7683
  835MOL0     H12715   8.301  11.045  10.157  0.3934 -0.7522 -0.4916
  835MOL0     H12716   8.332  11.111  10.321 -2.4025  0.6186 -0.3102
  835MOL0     H12717   8.404  10.858  10.384  0.8952 -0.4838 -1.1868
  835MOL0     H12718   8.326  10.810  10.237 -0.4522 -1.8069  1.5735
  835MOL0     H12719   8.196  10.947  10.477  1.3345  2.6361 -2.0673
  835MOL0     H12720   8.127  10.968  10.324  1.6292  3.3228  0.6102
  835MOL0     H12721   8.025  10.575  10.452  0.5806 -0.6294 -0.7960
  835MOL0     H12722   8.625  10.799   9.931  0.3437  0.0606 -2.0976
  835MOL0     H12723   8.766  10.631   9.869  0.6441 -2.9131  2.1466
  835MOL0     H12724   8.915  10.713   9.787  1.4266 -0.4303  1.5466
  835MOL0     H12725   8.924  10.615   9.931 -0.1111 -0.8982  0.0387
  836MOL0     O12726   0.280   8.462  10.098 -0.2971 -0.1025  0.6630
  836MOL0     C12727   0.331   8.570  10.122  0.4720  0.3552  0.9210
  836MOL0     O12728   0.462   8.590  10.153 -0.0932  0.2753 -0.1130
  836MOL0     C12729   0.556   8.494  10.163 -0.4603 -0.8834 -0.6825
  836MOL0     C12730   0.570   8.385  10.076 -0.5863  0.5017  0.4786
  836MOL0     C12731   0.683   8.291  10.087  0.7522 -0.0409  0.2788
  836MOL0     C12732   0.781   8.315  10.188 -0.7847 -0.2901  0.2554
  836MOL0     O12733   0.881   8.219  10.205 -0.1608 -0.3768 -0.1738
  836MOL0     C12734   0.988   8.251  10.292 -0.1343 -1.1399 -0.0792
  836MOL0     C12735   1.088   8.337  10.207 -0.3901  0.3153 -0.4696
  836MOL0     C12736   1.217   8.365  10.293  0.3870 -0.1989  0.3831
  836MOL0     C12737   1.298   8.477  10.234 -0.0846  0.1929  0.1251
  836MOL0     C12738   1.440   8.504  10.288 -0.1058 -0.9877 -0.2097
  836MOL0     C12739   1.449   8.478  10.436 -1.1123 -0.4216 -0.6853
  836MOL0     C12740   1.597   8.490  10.465  0.1887  0.2389 -0.4388
  836MOL0     C12741   1.623   8.492  10.614  0.2377 -0.6296  0.1040
  836MOL0     N12742   1.759   8.462  10.647 -0.5469  0.9392  0.2436
  836MOL0     C12743   1.854   8.538  10.714 -0.7363 -0.2214 -0.1895
  836MOL0     C12744   1.955   8.455  10.736 -0.3945 -0.3807  0.5884
  836MOL0     C12745   2.093   8.498  10.788  0.5900  0.0434  0.3616
  836MOL0     C12746   2.100   8.535  10.936  0.4665 -0.1697  0.1699
  836MOL0     C12747   2.253   8.540  10.988  0.9057 -0.4585  0.3434
  836MOL0     C12748   2.349   8.632  10.908  0.4425 -0.3866  0.5701
  836MOL0     O12749   2.488   8.616  10.951  0.0734  0.1116  0.1733
  836MOL0     C12750   2.548   8.677  11.059 -0.3634  0.1239  0.1497
  836MOL0     C12751   2.679   8.659  11.077 -0.2109 -0.2076 -1.0937
  836MOL0     C12752   2.751   8.733  11.177 -1.1435  0.9463  0.7452
  836MOL0     C12753   2.685   8.814  11.262 -0.1856 -0.6092 -0.2896
  836MOL0     C12754   2.759   8.905  11.353  0.0116  0.3839  0.2472
  836MOL0     O12755   2.891   8.885  11.346 -0.8034 -0.3118 -0.7248
  836MOL0     C12756   2.981   8.959  11.426  0.5364  1.0349 -0.3155
  836MOL0     C12757   2.960   9.094  11.461  0.0603 -0.2055 -0.2360
  836MOL0     C12758   3.048   9.153  11.547 -0.2831  0.5557 -1.0020
  836MOL0     C12759   3.162   9.083  11.591  0.7706 -0.0355 -0.2425
  836MOL0     O12760   3.254   9.153  11.668 -0.3023  0.0103  0.5333
  836MOL0     C12761   3.388   9.129  11.633  0.0040 -0.1214  0.2081
  836MOL0     C12762   3.466   9.256  11.693  0.1835  0.7719 -0.4153
  836MOL0     C12763   3.592   9.266  11.607  1.0730 -0.0003 -0.9255
  836MOL0     C12764   3.698   9.347  11.679  0.2035  0.3712  0.2519
  836MOL0     C12765   3.821   9.369  11.594  0.2732  1.0128  0.4814
  836MOL0     C12766   3.923   9.262  11.622 -0.7691  0.5064 -0.1128
  836MOL0     C12767   4.034   9.249  11.514  0.5176  0.2453 -0.0710
  836MOL0     C12768   4.153   9.170  11.550  0.6350 -0.0598 -0.4742
  836MOL0    Cl12769   4.282   9.157  11.436 -0.4397  0.1406  0.0484
  836MOL0     C12770   3.187   8.942  11.556 -0.0144 -0.4253  0.5987
  836MOL0     C12771   3.094   8.879  11.471  0.1105 -1.0534  0.2703
  836MOL0     O12772   2.699   8.993  11.408  0.0191  0.1255 -0.0288
  836MOL0     C12773   2.554   8.838  11.237 -0.1229  0.4389  0.4524
  836MOL0     C12774   2.482   8.764  11.146 -0.4164 -0.2649  0.4501
  836MOL0     N12775   1.927   8.331  10.677  0.6164  0.3066 -0.4017
  836MOL0     N12776   1.813   8.341  10.620  0.1434  0.5182  0.1305
  836MOL0     C12777   0.773   8.437  10.262  0.7919  0.6503 -0.7519
  836MOL0     C12778   0.662   8.513  10.257 -0.3000 -0.0159  0.3800
  836MOL0     C12779   0.241   8.686  10.097  0.5743  0.0101  0.3189
  836MOL0     C12780   0.100   8.662  10.097  0.2355 -0.1913 -0.3391
  836MOL0     C12781   0.007   8.771  10.074 -0.3206 -0.9411 -0.1109
  836MOL0     C12782   0.053   8.901  10.053 -0.6298 -0.0408  0.2335
  836MOL0     O12783  -0.029   9.007  10.019 -0.1383 -0.2934 -0.8235
  836MOL0     C12784  -0.171   8.997  10.014  0.5600 -0.7640 -0.1805
  836MOL0     C12785  -0.231   9.139  10.019 -0.4855 -0.8973  0.2616
  836MOL0     C12786  -0.223   9.207  10.158  0.0443  0.1550 -0.1018
  836MOL0     C12787  -0.320   9.155  10.267  0.3590 -0.7853  0.1555
  836MOL0     C12788  -0.455   9.174  10.214 -0.4681  0.7723 -0.1635
  836MOL0     C12789  -0.570   9.177  10.177  0.1676 -0.1011 -0.4354
  836MOL0     C12790   0.190   8.920  10.063 -0.2092 -1.6283  0.6503
  836MOL0     C12791   0.286   8.820  10.084 -0.1862 -0.3233 -0.5557
  836MOL0     C12792   0.437   8.865  10.094  0.2087  0.4762  0.3103
  836MOL0     H12793   0.488   8.368  10.008  0.1932  0.6365 -0.5245
  836MOL0     H12794   0.682   8.203  10.023 -0.7992 -0.4062  0.7666
  836MOL0     H12795   0.963   8.293  10.389  1.3743  0.2554 -0.2550
  836MOL0     H12796   1.047   8.160  10.305  1.5351 -0.3550 -1.6962
  836MOL0     H12797   1.052   8.433  10.172  1.5967  2.5510  3.0071
  836MOL0     H12798   1.113   8.277  10.119  1.7241  1.7498 -0.9092
  836MOL0     H12799   1.277   8.274  10.290 -1.4887 -1.4935 -1.9266
  836MOL0     H12800   1.191   8.387  10.397 -1.2924 -4.8254  1.1635
  836MOL0     H12801   1.307   8.467  10.126 -0.8126 -0.3874  0.1151
  836MOL0     H12802   1.238   8.568  10.250 -0.2221 -0.1262  1.6346
  836MOL0     H12803   1.506   8.439  10.229  1.9512  0.2833  0.5933
  836MOL0     H12804   1.465   8.609  10.267  1.9282 -1.9241 -3.1853
  836MOL0     H12805   1.389   8.548  10.496 -1.6064 -0.4858 -1.0957
  836MOL0     H12806   1.427   8.377  10.469 -1.1661 -0.1325  0.1804
  836MOL0     H12807   1.645   8.577  10.420  0.1103  0.4531 -0.1114
  836MOL0     H12808   1.650   8.401  10.428 -0.1001 -0.1934  0.1651
  836MOL0     H12809   1.613   8.597  10.645 -1.1665  0.1070 -2.5475
  836MOL0     H12810   1.552   8.421  10.657  0.9285 -0.0995  2.2377
  836MOL0     H12811   1.844   8.643  10.742 -2.5378 -0.1047 -1.1427
  836MOL0     H12812   2.167   8.420  10.768  1.5014  0.0414  3.2327
  836MOL0     H12813   2.138   8.578  10.729  2.6388  0.2503  2.1107
  836MOL0     H12814   2.047   8.628  10.957  0.4326 -0.0563 -0.4102
  836MOL0     H12815   2.054   8.456  10.996  0.8584 -0.6545 -0.1661
  836MOL0     H12816   2.294   8.440  10.971 -1.3011 -1.3087 -0.3839
  836MOL0     H12817   2.236   8.573  11.091 -2.1195 -0.5216 -0.0270
  836MOL0     H12818   2.312   8.733  10.926 -1.2918 -1.0509  0.8619
  836MOL0     H12819   2.333   8.603  10.804  0.3124 -0.9970  0.7591
  836MOL0     H12820   2.724   8.577  11.022 -2.1849 -2.4117  0.4027
  836MOL0     H12821   2.856   8.710  11.192 -0.7474  1.7888 -0.6430
  836MOL0     H12822   2.878   9.149  11.416 -2.7836 -2.0301  2.3564
  836MOL0     H12823   3.047   9.253  11.589 -1.3638 -0.5429  1.8104
  836MOL0     H12824   3.430   9.041  11.684 -0.1674  1.3223  3.0802
  836MOL0     H12825   3.394   9.124  11.524 -0.5563 -0.2256  0.1811
  836MOL0     H12826   3.410   9.349  11.685 -1.7443 -0.3427 -0.4561
  836MOL0     H12827   3.480   9.223  11.796 -2.4033 -3.4453 -1.1988
  836MOL0     H12828   3.633   9.171  11.570  0.3918  0.1865 -2.2175
  836MOL0     H12829   3.556   9.316  11.517  0.0923 -0.5852 -0.8726
  836MOL0     H12830   3.733   9.300  11.772 -1.1908 -0.2767  0.4756
  836MOL0     H12831   3.656   9.442  11.715  1.1602  1.1794 -0.7052
  836MOL0     H12832   3.868   9.466  11.615  0.4441  1.4360 -1.6994
  836MOL0     H12833   3.786   9.368  11.491 -1.7491 -0.7945  1.1114
  836MOL0     H12834   3.984   9.296  11.706 -0.1416  1.1387 -0.8024
  836MOL0     H12835   3.879   9.167  11.653 -1.5507  0.7925 -0.3142
  836MOL0     H12836   4.059   9.351  11.486 -1.7169  2.4950  4.9483
  836MOL0     H12837   3.992   9.206  11.422  2.7004 -1.1035 -0.5049
  836MOL0     H12838   4.202   9.210  11.639  0.0044  2.8904 -1.3674
  836MOL0     H12839   4.122   9.070  11.583  0.2408  0.2737  0.1757
  836MOL0     H12840   3.281   8.900  11.590 -0.5470 -0.1543  2.5527
  836MOL0     H12841   3.112   8.783  11.423 -0.5566 -0.8820 -0.3409
  836MOL0     H12842   2.493   8.900  11.302  0.2138  0.2087  0.9884
  836MOL0     H12843   2.376   8.778  11.130  0.1499  0.4929 -4.2214
  836MOL0     H12844   0.842   8.466  10.340 -0.4673 -0.0813  0.6989
  836MOL0     H12845   0.656   8.606  10.313 -1.1176  0.2735 -0.1634
  836MOL0     H12846   0.046   8.572  10.125 -2.2629  1.3901  0.2367
  836MOL0     H12847  -0.100   8.758  10.061 -1.4896  5.3471  0.0537
  836MOL0     H12848  -0.211   8.930  10.090  1.4552 -0.8711  0.2092
  836MOL0     H12849  -0.194   8.965   9.912  1.5206  0.5168 -0.8348
  836MOL0     H12850  -0.334   9.137   9.983  0.0708  1.7481 -1.7505
  836MOL0     H12851  -0.177   9.193   9.941 -0.5026 -0.8902  0.2552
  836MOL0     H12852  -0.232   9.315  10.147  0.2450  0.4434  2.1919
  836MOL0     H12853  -0.117   9.195  10.185  0.5342  0.0865 -1.8722
  836MOL0     H12854  -0.311   9.049  10.291 -0.3122 -0.4102  2.2906
  836MOL0     H12855  -0.307   9.219  10.355 -3.3078 -2.1456  1.9224
  836MOL0     H12856  -0.670   9.188  10.138  0.0481  1.1722  0.1819
  836MOL0     H12857   0.219   9.022  10.043 -4.2088 -0.1288  1.4314
  836MOL0     H12858   0.487   8.829  10.004  1.8063 -0.2912  1.4491
  836MOL0     H12859   0.449   8.973  10.104 -0.1020  0.6616 -1.1371
  836MOL0     H12860   0.495   8.826  10.178 -0.9911  1.1071  1.4833
  837MOL0     O12861   6.065   5.962   0.973  0.7999  0.1852 -0.6491
  837MOL0     C12862   5.995   5.864   0.937  0.4691  0.0381  0.5944
  837MOL0     O12863   6.043   5.754   0.868  0.0054 -0.0803 -0.4152
  837MOL0     C12864   6.167   5.759   0.809 -0.9685 -0.2786 -0.8024
  837MOL0     C12865   6.163   5.753   0.668  0.0045  0.4914 -0.7377
  837MOL0     C12866   6.283   5.749   0.598 -0.4499  0.3102  0.0428
  837MOL0     C12867   6.409   5.759   0.663  0.1922 -1.0967 -1.0293
  837MOL0     O12868   6.536   5.789   0.599  0.2550  0.0943  0.2420
  837MOL0     C12869   6.577   5.675   0.523  0.5157  0.0066  0.2033
  837MOL0     C12870   6.733   5.672   0.497  0.4327  0.5297  0.6365
  837MOL0     C12871   6.819   5.654   0.619 -0.5734  0.0164  0.0155
  837MOL0     C12872   6.964   5.632   0.567  0.0519 -0.7286 -0.1665
  837MOL0     C12873   7.064   5.715   0.647  0.7098  0.0562 -0.6126
  837MOL0     C12874   7.206   5.666   0.627  1.0842 -0.7659  0.1497
  837MOL0     C12875   7.307   5.729   0.716 -0.3253 -0.6494 -0.5822
  837MOL0     C12876   7.348   5.876   0.686  0.1547 -0.3281  0.0325
  837MOL0     N12877   7.475   5.880   0.620 -0.0648  0.2275  0.3993
  837MOL0     C12878   7.501   5.908   0.488 -0.7753  0.5732  1.0748
  837MOL0     C12879   7.638   5.907   0.462 -0.7382  1.2584 -1.1140
  837MOL0     C12880   7.710   5.914   0.331  0.3835  0.0730 -0.7491
  837MOL0     C12881   7.807   6.035   0.306 -0.3869  0.1875  0.6095
  837MOL0     C12882   7.868   6.037   0.171 -0.3050 -0.3086 -0.4827
  837MOL0     C12883   7.936   5.899   0.152  0.2402 -0.7894  0.4620
  837MOL0     O12884   7.995   5.900   0.021 -0.3517  0.5049  0.0331
  837MOL0     C12885   8.130   5.880   0.018 -0.0905 -0.5855  0.2887
  837MOL0     C12886   8.207   5.962  -0.066  0.1085 -0.2788  0.3412
  837MOL0     C12887   8.341   5.961  -0.076 -0.3297  0.3511  0.6732
  837MOL0     C12888   8.408   5.862  -0.001  0.6402 -0.0130 -0.0642
  837MOL0     C12889   8.550   5.855  -0.020 -0.3456  0.1683  0.2858
  837MOL0     O12890   8.607   5.946  -0.098 -0.4095 -0.5404  0.8151
  837MOL0     C12891   8.740   5.942  -0.141 -0.1682  0.3566  0.1058
  837MOL0     C12892   8.804   6.067  -0.165  0.1097 -0.4802 -0.2581
  837MOL0     C12893   8.939   6.065  -0.218  0.3257  0.0498 -0.8746
  837MOL0     C12894   9.002   5.944  -0.252  0.3887  0.2374 -0.4068
  837MOL0     O12895   9.118   5.944  -0.321  0.0046 -0.1983 -0.0502
  837MOL0     C12896   9.230   5.919  -0.235 -0.1897  0.0702 -0.2136
  837MOL0     C12897   9.340   6.018  -0.266 -0.4292  0.6824 -0.1052
  837MOL0     C12898   9.400   6.009  -0.410 -0.3849 -0.5026 -0.0425
  837MOL0     C12899   9.417   5.871  -0.458 -0.5246  0.5054  0.3099
  837MOL0     C12900   9.464   5.860  -0.605  0.3787  0.1060  0.1043
  837MOL0     C12901   9.608   5.903  -0.628  0.2773 -0.0249  1.1013
  837MOL0     C12902   9.655   5.886  -0.772  0.6581 -0.6665 -0.0113
  837MOL0     C12903   9.806   5.908  -0.791  0.0054  0.0351 -0.1790
  837MOL0    Cl12904   9.858   6.088  -0.773  0.5265  0.2835 -0.1799
  837MOL0     C12905   8.926   5.827  -0.241 -0.2971 -0.0164 -0.1791
  837MOL0     C12906   8.800   5.825  -0.180  0.2540 -0.2067 -1.1391
  837MOL0     O12907   8.609   5.765   0.035 -0.0977 -0.0234 -0.4619
  837MOL0     C12908   8.331   5.777   0.085 -0.4067  1.5865  0.6321
  837MOL0     C12909   8.197   5.781   0.089  0.2836 -0.1469  0.5418
  837MOL0     N12910   7.694   5.876   0.589  0.3238  0.8640  0.7539
  837MOL0     N12911   7.593   5.858   0.675 -0.0774  0.5681 -0.2831
  837MOL0     C12912   6.416   5.767   0.802  0.1021  0.3001 -0.3078
  837MOL0     C12913   6.297   5.776   0.873  0.9252  0.1278  0.1435
  837MOL0     C12914   5.851   5.865   0.958  0.3251 -0.2260  0.5858
  837MOL0     C12915   5.814   5.897   1.089 -0.1282  0.6333  0.0001
  837MOL0     C12916   5.679   5.902   1.123  0.5710  0.1559 -0.6492
  837MOL0     C12917   5.579   5.880   1.029 -0.6847 -0.0752  0.8513
  837MOL0     O12918   5.443   5.882   1.052 -0.7976 -0.6183  0.3244
  837MOL0     C12919   5.403   6.017   1.090  0.1147 -0.3472  1.2637
  837MOL0     C12920   5.282   6.013   1.178 -0.2706  0.1124 -0.2592
  837MOL0     C12921   5.155   5.960   1.114 -0.0831  0.1354 -0.0415
  837MOL0     C12922   5.042   5.938   1.219 -0.3547 -0.0859 -0.2127
  837MOL0     C12923   4.998   6.057   1.296  0.2432  0.1884  0.7787
  837MOL0     C12924   4.966   6.165   1.344  0.9024  0.0347  0.5080
  837MOL0     C12925   5.615   5.849   0.898 -0.2891 -1.0567 -0.3194
  837MOL0     C12926   5.753   5.844   0.857 -0.0166  0.3006  0.0262
  837MOL0     C12927   5.784   5.817   0.710 -0.7380  1.0060  0.2529
  837MOL0     H12928   6.070   5.745   0.613 -1.2420  0.0449  1.3408
  837MOL0     H12929   6.278   5.733   0.490 -0.0587  1.4526 -0.1605
  837MOL0     H12930   6.555   5.584   0.579  3.2572 -0.6162  0.4379
  837MOL0     H12931   6.527   5.671   0.426 -0.3404  0.5488  0.6127
  837MOL0     H12932   6.758   5.774   0.465  4.4439  0.3767  2.6357
  837MOL0     H12933   6.756   5.611   0.409 -0.9857  2.7076 -1.3521
  837MOL0     H12934   6.783   5.574   0.685 -0.5716 -0.1148 -0.1421
  837MOL0     H12935   6.808   5.751   0.669 -0.0352  0.9720 -1.6384
  837MOL0     H12936   6.998   5.529   0.582 -0.5229 -1.2174 -1.9926
  837MOL0     H12937   6.975   5.652   0.460 -1.5843 -1.0665 -0.4279
  837MOL0     H12938   7.081   5.820   0.622  0.3607  0.4230  0.6197
  837MOL0     H12939   7.034   5.712   0.752 -3.3407  0.6547 -1.5583
  837MOL0     H12940   7.212   5.559   0.653  3.8126 -0.4253  1.2651
  837MOL0     H12941   7.235   5.671   0.522  0.6228  1.1714  0.0920
  837MOL0     H12942   7.399   5.671   0.698 -0.6498 -0.5772 -2.6300
  837MOL0     H12943   7.278   5.716   0.821 -0.1276  1.0029 -0.2935
  837MOL0     H12944   7.277   5.925   0.619 -0.1858  0.9367  1.2678
  837MOL0     H12945   7.353   5.930   0.781 -3.7132 -1.0623  0.8196
  837MOL0     H12946   7.432   5.928   0.407  0.7368  1.3315 -0.0749
  837MOL0     H12947   7.771   5.823   0.331 -1.5961 -1.4175  2.5703
  837MOL0     H12948   7.633   5.910   0.253 -0.1163  2.9740 -0.5056
  837MOL0     H12949   7.757   6.124   0.343 -0.6733 -0.3108  1.4545
  837MOL0     H12950   7.895   6.015   0.368 -0.3612 -1.1528  0.1855
  837MOL0     H12951   7.943   6.117   0.165  2.2849 -2.1910  2.6598
  837MOL0     H12952   7.796   6.061   0.094 -0.4321  0.8686 -0.0129
  837MOL0     H12953   7.872   5.810   0.152  2.0574 -2.1912  1.6831
  837MOL0     H12954   8.006   5.873   0.233  0.0390 -0.8301  0.6239
  837MOL0     H12955   8.146   6.033  -0.120  0.9236  2.2461  2.5394
  837MOL0     H12956   8.392   6.023  -0.149  1.5333 -1.0706  0.6901
  837MOL0     H12957   8.744   6.152  -0.136 -1.6738 -1.8667  0.2812
  837MOL0     H12958   8.997   6.154  -0.242  1.6692 -1.2007 -2.5057
  837MOL0     H12959   9.210   5.946  -0.130  1.9648 -1.3387  0.6036
  837MOL0     H12960   9.255   5.813  -0.234  0.2718  0.1328  2.3650
  837MOL0     H12961   9.300   6.115  -0.235  0.3074  0.8315  0.4086
  837MOL0     H12962   9.419   5.996  -0.194 -0.0632  1.1075 -0.3716
  837MOL0     H12963   9.331   6.067  -0.472  1.4284  1.3997 -0.3889
  837MOL0     H12964   9.494   6.064  -0.414 -1.4051  1.4719  1.0574
  837MOL0     H12965   9.316   5.829  -0.468  0.1162 -0.8564 -0.9242
  837MOL0     H12966   9.475   5.812  -0.387 -1.6885  0.4121  1.2094
  837MOL0     H12967   9.399   5.912  -0.676 -2.5672 -0.9383  1.9105
  837MOL0     H12968   9.454   5.755  -0.632 -2.7317  1.2293 -4.1822
  837MOL0     H12969   9.611   6.009  -0.601 -1.8566  0.1916  0.6159
  837MOL0     H12970   9.671   5.840  -0.564 -2.6649 -1.7198  2.5155
  837MOL0     H12971   9.587   5.938  -0.840  0.6336 -0.8353 -0.1177
  837MOL0     H12972   9.632   5.781  -0.793 -0.6187 -0.5553  0.7038
  837MOL0     H12973   9.857   5.847  -0.716 -1.5507 -2.3640 -0.9629
  837MOL0     H12974   9.844   5.875  -0.888 -1.6717 -2.6820  0.0062
  837MOL0     H12975   8.974   5.739  -0.285  3.8721  1.3947  1.0514
  837MOL0     H12976   8.753   5.727  -0.169 -1.4266  0.8217  2.4781
  837MOL0     H12977   8.388   5.705   0.144  1.6422  3.7737  1.4918
  837MOL0     H12978   8.154   5.708   0.157  1.4938 -1.0012  0.4222
  837MOL0     H12979   6.512   5.791   0.846 -0.0066  1.9914 -0.9290
  837MOL0     H12980   6.300   5.802   0.979 -3.1675 -0.4036  0.5433
  837MOL0     H12981   5.888   5.924   1.164  0.2044 -0.2716  0.0170
  837MOL0     H12982   5.651   5.924   1.225  0.4852 -3.1588  0.1508
  837MOL0     H12983   5.367   6.072   1.002  1.8056 -2.2474 -0.7308
  837MOL0     H12984   5.488   6.068   1.134  2.4974 -2.6770 -0.3242
  837MOL0     H12985   5.266   6.107   1.232  1.7981 -0.0883  0.7924
  837MOL0     H12986   5.307   5.942   1.257  0.9291 -0.2322 -0.9341
  837MOL0     H12987   5.174   5.863   1.067  2.6842  0.9159 -0.7744
  837MOL0     H12988   5.114   6.033   1.043 -0.0679 -0.7422 -0.9677
  837MOL0     H12989   4.952   5.901   1.169  0.4882  2.3677 -3.9004
  837MOL0     H12990   5.071   5.865   1.296  0.8882  2.6490  2.1139
  837MOL0     H12991   4.939   6.258   1.390  0.4012  0.6241 -0.9380
  837MOL0     H12992   5.534   5.831   0.828  0.6669 -0.8800 -1.5143
  837MOL0     H12993   5.798   5.709   0.697  0.9720  1.0346  1.5430
  837MOL0     H12994   5.694   5.847   0.657  0.8859  0.5791 -3.0291
  837MOL0     H12995   5.867   5.884   0.684 -1.5725  1.9446 -0.0534
  838MOL0     O12996   1.187   8.792   2.577  0.6034 -0.1211 -0.0299
  838MOL0     C12997   1.245   8.774   2.680  0.2964  0.4915  0.5461
  838MOL0     O12998   1.371   8.748   2.696  0.0522 -0.5073 -0.0205
  838MOL0     C12999   1.463   8.755   2.590  0.5461 -0.3469 -0.1982
  838MOL0     C13000   1.439   8.706   2.466 -0.3361  0.0336  1.1529
  838MOL0     C13001   1.532   8.715   2.359 -0.1728  0.1287  0.3724
  838MOL0     C13002   1.665   8.755   2.395 -0.3835 -0.5191 -0.1009
  838MOL0     O13003   1.774   8.762   2.311  0.0521 -0.4846  0.5109
  838MOL0     C13004   1.759   8.796   2.173  0.3109 -0.6226  0.7280
  838MOL0     C13005   1.710   8.943   2.151 -0.2230 -0.4278 -0.0488
  838MOL0     C13006   1.815   9.045   2.202  0.3166 -0.1009  0.0282
  838MOL0     C13007   1.789   9.196   2.175 -0.5234 -0.7768 -0.8702
  838MOL0     C13008   1.870   9.288   2.269  0.0382 -0.2879  0.2348
  838MOL0     C13009   1.807   9.430   2.268 -0.0662 -0.3773  0.2771
  838MOL0     C13010   1.849   9.495   2.399 -0.2680  0.1933 -0.8560
  838MOL0     C13011   1.791   9.630   2.431 -0.4506 -0.6067 -0.2034
  838MOL0     N13012   1.834   9.669   2.569 -0.2271 -0.7721 -0.0021
  838MOL0     C13013   1.809   9.597   2.688 -0.2773 -0.1149  0.1563
  838MOL0     C13014   1.876   9.661   2.790 -0.2323  0.3801  0.2214
  838MOL0     C13015   1.879   9.613   2.938  0.0576  0.4919 -0.4753
  838MOL0     C13016   2.017   9.551   2.969  0.0507 -0.5592 -0.4651
  838MOL0     C13017   2.108   9.659   3.023 -1.2276  0.1235 -0.2123
  838MOL0     C13018   2.240   9.598   3.067 -0.4825 -0.3258 -0.0431
  838MOL0     O13019   2.316   9.693   3.145  0.2500  0.9022 -0.0445
  838MOL0     C13020   2.430   9.649   3.207  0.2956  1.3708 -0.3922
  838MOL0     C13021   2.484   9.518   3.207 -0.8032  0.7806  0.2006
  838MOL0     C13022   2.598   9.481   3.288  0.7998  0.7350  0.4615
  838MOL0     C13023   2.671   9.587   3.342 -0.4299 -0.6089  0.3560
  838MOL0     C13024   2.801   9.548   3.402  0.0469  0.0379 -0.3744
  838MOL0     O13025   2.870   9.451   3.331 -0.1948  0.0756 -0.1119
  838MOL0     C13026   3.000   9.423   3.374 -0.4811  0.1592  0.9208
  838MOL0     C13027   3.025   9.357   3.496  0.6040 -0.0905  0.1834
  838MOL0     C13028   3.159   9.343   3.539 -0.5289 -0.1207  0.5802
  838MOL0     C13029   3.269   9.381   3.463  0.6045  0.4745 -0.3099
  838MOL0     O13030   3.402   9.361   3.491 -0.7421 -1.0248  0.4764
  838MOL0     C13031   3.429   9.341   3.631 -0.2986  0.2444 -0.5588
  838MOL0     C13032   3.571   9.305   3.672  0.6254  0.1963  0.3387
  838MOL0     C13033   3.675   9.419   3.678  0.4927  0.2408  0.4687
  838MOL0     C13034   3.811   9.384   3.741 -0.1427 -0.6028  0.1752
  838MOL0     C13035   3.887   9.512   3.787  0.5300 -0.3162  0.5219
  838MOL0     C13036   4.021   9.480   3.852 -0.0100 -0.2961 -0.5053
  838MOL0     C13037   4.135   9.489   3.746 -0.1915 -0.3808  0.8657
  838MOL0     C13038   4.269   9.506   3.804  0.0044  0.3084  0.6718
  838MOL0    Cl13039   4.305   9.377   3.913 -0.6236  0.7947 -0.3015
  838MOL0     C13040   3.242   9.419   3.332 -0.2171 -0.2095 -0.6418
  838MOL0     C13041   3.113   9.450   3.293  0.1319 -0.0010 -0.1515
  838MOL0     O13042   2.844   9.622   3.486 -0.1869  0.5708 -0.7976
  838MOL0     C13043   2.625   9.720   3.338 -0.6301  0.3163 -0.3342
  838MOL0     C13044   2.498   9.743   3.278  0.1559 -0.2480 -1.4912
  838MOL0     N13045   1.947   9.762   2.729  0.1989 -0.2047 -0.0919
  838MOL0     N13046   1.924   9.769   2.599  0.6857  0.5624  0.4401
  838MOL0     C13047   1.694   8.806   2.519 -0.2343 -0.0204 -0.6623
  838MOL0     C13048   1.596   8.815   2.620 -0.0775  0.6731 -0.3365
  838MOL0     C13049   1.168   8.803   2.812  0.9358  0.1779 -0.3900
  838MOL0     C13050   1.025   8.810   2.802 -1.0014  0.4685  0.3327
  838MOL0     C13051   0.949   8.829   2.909  0.2858  0.1129 -0.6284
  838MOL0     C13052   0.997   8.858   3.033  0.4670  0.0561  0.3878
  838MOL0     O13053   0.902   8.874   3.131 -0.1993 -0.1353 -1.0750
  838MOL0     C13054   0.940   8.869   3.269  0.3565 -0.1554  1.1610
  838MOL0     C13055   0.973   8.725   3.312 -0.4339 -0.3826 -0.2183
  838MOL0     C13056   1.035   8.727   3.454 -0.0194  0.1161 -0.3979
  838MOL0     C13057   1.174   8.795   3.475 -0.2782 -0.7258 -0.2736
  838MOL0     C13058   1.291   8.725   3.405  0.2217  0.6317  0.3571
  838MOL0     C13059   1.380   8.672   3.348  0.0256  0.3332  0.2651
  838MOL0     C13060   1.138   8.842   3.048 -0.0553 -0.9774  0.2922
  838MOL0     C13061   1.224   8.814   2.946 -0.1209  0.8625  0.8485
  838MOL0     C13062   1.370   8.804   2.984 -0.6163 -0.0573 -0.1065
  838MOL0     H13063   1.347   8.651   2.456 -1.3357  1.6388  1.1255
  838MOL0     H13064   1.525   8.674   2.259 -1.1280  0.3502  0.3407
  838MOL0     H13065   1.855   8.770   2.128 -0.9962  0.2637 -2.8926
  838MOL0     H13066   1.691   8.738   2.110 -2.6549  1.3944  1.8230
  838MOL0     H13067   1.622   8.965   2.213  0.4190  1.4380  0.2859
  838MOL0     H13068   1.680   8.962   2.047  0.9627  1.5608 -0.0736
  838MOL0     H13069   1.912   9.009   2.167  0.9156  2.5434 -1.3137
  838MOL0     H13070   1.819   9.033   2.311 -0.0915 -1.7333 -0.1217
  838MOL0     H13071   1.821   9.221   2.073  2.4757 -0.0236  0.1459
  838MOL0     H13072   1.684   9.220   2.191  0.0456  1.6991 -0.5476
  838MOL0     H13073   1.866   9.244   2.369  1.7172  0.6683  0.7570
  838MOL0     H13074   1.975   9.294   2.239 -0.1169  1.2796 -0.0793
  838MOL0     H13075   1.853   9.490   2.189  1.9788 -0.5952  1.2510
  838MOL0     H13076   1.699   9.415   2.260 -0.2185  0.1401  1.1278
  838MOL0     H13077   1.957   9.514   2.390 -0.5871  2.2646 -0.7674
  838MOL0     H13078   1.826   9.427   2.482  2.7792  0.6853  0.5295
  838MOL0     H13079   1.820   9.700   2.353  0.8069 -0.6138  0.2346
  838MOL0     H13080   1.682   9.614   2.430 -0.6166  0.4748 -0.0910
  838MOL0     H13081   1.745   9.509   2.688  1.1109 -1.1781  1.2300
  838MOL0     H13082   1.851   9.696   3.004  0.9990 -1.2028  2.2546
  838MOL0     H13083   1.800   9.537   2.944  2.3496 -2.0893 -1.0443
  838MOL0     H13084   2.008   9.486   3.056  3.8967 -0.4798  0.1523
  838MOL0     H13085   2.052   9.491   2.883  2.3154  0.5763 -0.4080
  838MOL0     H13086   2.066   9.701   3.114 -1.0030  1.0512 -0.5328
  838MOL0     H13087   2.129   9.733   2.945  0.7706  0.5829  0.7055
  838MOL0     H13088   2.306   9.575   2.983 -0.4665 -2.3359  0.4680
  838MOL0     H13089   2.220   9.504   3.120  3.1054 -2.2615 -1.7192
  838MOL0     H13090   2.430   9.435   3.162  0.3243  0.3406 -0.3773
  838MOL0     H13091   2.620   9.374   3.290  0.8765  0.7419  0.0706
  838MOL0     H13092   2.942   9.328   3.560 -0.5513  0.0145 -1.2301
  838MOL0     H13093   3.176   9.302   3.638 -2.4745 -0.2416  0.9014
  838MOL0     H13094   3.395   9.435   3.677  1.0621  0.0748  0.8337
  838MOL0     H13095   3.371   9.260   3.676  1.1784  0.7159  2.4236
  838MOL0     H13096   3.555   9.261   3.770 -2.4734 -0.2219 -0.2392
  838MOL0     H13097   3.606   9.234   3.595  0.1659 -0.7392  0.9713
  838MOL0     H13098   3.698   9.450   3.575  0.4689  0.1047  0.4228
  838MOL0     H13099   3.623   9.503   3.725  1.8207  0.5780  1.3778
  838MOL0     H13100   3.875   9.329   3.672 -0.0742  0.3819 -0.5735
  838MOL0     H13101   3.799   9.320   3.829  0.4872 -1.2272 -0.1849
  838MOL0     H13102   3.819   9.576   3.845 -1.3449  0.6506 -2.5257
  838MOL0     H13103   3.906   9.583   3.705 -0.5406  1.3369  1.6370
  838MOL0     H13104   4.044   9.550   3.933  0.2797  1.2825 -1.8939
  838MOL0     H13105   4.026   9.387   3.910  0.2967 -1.0618 -1.7318
  838MOL0     H13106   4.128   9.578   3.683  0.5618 -0.7772  0.2092
  838MOL0     H13107   4.129   9.405   3.677 -1.0011  0.3371  0.0392
  838MOL0     H13108   4.349   9.511   3.729 -1.1032  1.9940 -0.4605
  838MOL0     H13109   4.271   9.602   3.856  0.5955  2.2505 -2.6918
  838MOL0     H13110   3.325   9.459   3.274  1.5924 -0.7554  1.4656
  838MOL0     H13111   3.103   9.513   3.205 -1.3579  1.3018  0.8913
  838MOL0     H13112   2.670   9.804   3.390  2.6306 -1.0721 -0.6648
  838MOL0     H13113   2.455   9.842   3.277 -0.0982 -0.2120  1.9324
  838MOL0     H13114   1.797   8.833   2.538 -0.0804 -2.3905  2.9316
  838MOL0     H13115   1.627   8.847   2.719 -0.5295 -0.3266  0.1392
  838MOL0     H13116   0.987   8.799   2.701  1.4989 -3.7929 -0.3845
  838MOL0     H13117   0.841   8.821   2.897 -0.5647  4.7253  1.4909
  838MOL0     H13118   0.856   8.909   3.328 -0.2279 -1.5071  1.2705
  838MOL0     H13119   1.024   8.938   3.278  0.6773 -0.3600 -0.0117
  838MOL0     H13120   1.044   8.680   3.243  2.3521  0.9691  1.5683
  838MOL0     H13121   0.883   8.663   3.318 -1.7545  1.5508  1.2185
  838MOL0     H13122   1.043   8.621   3.478  1.7506  0.0403 -1.1789
  838MOL0     H13123   0.969   8.775   3.527  2.5621  2.2247  0.7642
  838MOL0     H13124   1.158   8.902   3.456 -0.1558 -0.4789  0.9702
  838MOL0     H13125   1.181   8.782   3.583 -2.6664 -0.6411 -0.0666
  838MOL0     H13126   1.446   8.622   3.280  0.1867  1.4894 -0.4406
  838MOL0     H13127   1.186   8.841   3.145  0.4397 -2.3494  0.0564
  838MOL0     H13128   1.378   8.772   3.089 -2.4545  2.1022  0.7668
  838MOL0     H13129   1.414   8.720   2.929 -2.0513 -1.0091  0.1654
  838MOL0     H13130   1.424   8.898   2.967 -0.1593 -0.6427 -2.1966
  839MOL0     O13131   1.101   8.002   4.649  0.3937  0.4128 -0.2203
  839MOL0     C13132   1.043   7.891   4.658 -0.5291  0.1925  0.4512
  839MOL0     O13133   1.100   7.772   4.618  0.1302  0.9362 -0.1155
  839MOL0     C13134   1.235   7.763   4.578  0.3825 -0.8806 -0.9007
  839MOL0     C13135   1.253   7.725   4.451  0.0435  0.1311  0.5768
  839MOL0     C13136   1.387   7.720   4.405  0.0830  0.3080 -0.7686
  839MOL0     C13137   1.500   7.745   4.487  0.1029  0.3345 -0.3689
  839MOL0     O13138   1.632   7.739   4.445  0.4463  0.6979  0.7031
  839MOL0     C13139   1.649   7.635   4.344 -0.4632 -0.6716 -0.5109
  839MOL0     C13140   1.797   7.623   4.318 -0.7157  0.1946 -0.8725
  839MOL0     C13141   1.853   7.757   4.265 -0.2097  0.0329  0.3136
  839MOL0     C13142   2.004   7.776   4.273 -0.1406 -0.4186 -0.0465
  839MOL0     C13143   2.046   7.905   4.199  0.2354  0.0580 -0.1722
  839MOL0     C13144   2.194   7.935   4.221  0.4647 -0.0025  1.1532
  839MOL0     C13145   2.248   8.045   4.126  0.3082 -0.0179  0.5876
  839MOL0     C13146   2.386   8.090   4.180  0.0941 -0.0817 -0.0921
  839MOL0     N13147   2.491   7.988   4.191 -0.5368  0.3363  0.3727
  839MOL0     C13148   2.569   7.954   4.079  0.2440  0.4219 -0.1903
  839MOL0     C13149   2.627   7.835   4.114 -0.2835 -0.0488  0.2973
  839MOL0     C13150   2.720   7.738   4.037 -0.2530 -0.8872 -0.7970
  839MOL0     C13151   2.871   7.756   4.071  0.5630  0.1798  0.2888
  839MOL0     C13152   2.955   7.645   4.001 -0.5225 -0.2324  0.2988
  839MOL0     C13153   3.110   7.684   3.984 -0.2118 -0.3290  0.7633
  839MOL0     O13154   3.179   7.667   4.109 -0.2433  0.1924  0.2557
  839MOL0     C13155   3.314   7.681   4.112 -0.0124  0.1754 -0.9934
  839MOL0     C13156   3.382   7.656   4.233  0.5565  0.0119  0.1688
  839MOL0     C13157   3.520   7.653   4.241  1.2096  0.8656 -0.0116
  839MOL0     C13158   3.596   7.706   4.138  0.3981  0.4502 -0.2678
  839MOL0     C13159   3.742   7.721   4.139 -0.4253  0.1404  0.7041
  839MOL0     O13160   3.796   7.767   4.262 -0.8068  0.1165 -0.0298
  839MOL0     C13161   3.934   7.765   4.287  0.8896  0.2188  0.5979
  839MOL0     C13162   4.028   7.676   4.225  0.0398 -0.1966  0.1577
  839MOL0     C13163   4.162   7.694   4.253  0.4675  0.9196  0.6538
  839MOL0     C13164   4.217   7.788   4.339  0.6098  0.6852  0.2166
  839MOL0     O13165   4.343   7.803   4.383 -0.8807  0.7552 -0.0001
  839MOL0     C13166   4.437   7.719   4.315  0.0078  0.3570  0.1586
  839MOL0     C13167   4.577   7.752   4.374  0.4893 -0.0590  0.7628
  839MOL0     C13168   4.617   7.897   4.360 -0.0029  0.0357  0.3495
  839MOL0     C13169   4.767   7.925   4.393  0.2022  0.1986  0.2775
  839MOL0     C13170   4.871   7.904   4.280 -0.0581 -0.4001  0.6878
  839MOL0     C13171   5.007   7.946   4.335 -0.9393  0.5238 -0.9281
  839MOL0     C13172   5.118   7.880   4.241  0.0999  0.8142 -0.7562
  839MOL0     C13173   5.232   7.982   4.211 -0.4174 -0.9041  0.5525
  839MOL0    Cl13174   5.361   7.877   4.150  0.3502  0.0450 -0.4711
  839MOL0     C13175   4.112   7.869   4.402 -1.1010  0.6220  0.4909
  839MOL0     C13176   3.975   7.858   4.376 -0.4568  0.1473 -0.4360
  839MOL0     O13177   3.811   7.696   4.037  0.5507  0.3303 -0.6342
  839MOL0     C13178   3.528   7.749   4.026  0.1254 -0.3300 -0.1602
  839MOL0     C13179   3.394   7.734   4.013  0.3111 -0.4201 -0.2914
  839MOL0     N13180   2.588   7.810   4.247 -0.5702 -0.9163 -0.2498
  839MOL0     N13181   2.510   7.902   4.291 -1.0006 -0.1962  0.4124
  839MOL0     C13182   1.476   7.790   4.617 -0.2490  0.0516 -0.1139
  839MOL0     C13183   1.341   7.789   4.669 -0.0997  0.5753  0.9690
  839MOL0     C13184   0.911   7.889   4.723 -0.4464  0.0491 -0.3583
  839MOL0     C13185   0.896   7.974   4.834  0.0248 -0.1804  0.1942
  839MOL0     C13186   0.776   7.987   4.899  0.0826 -0.2200 -0.4429
  839MOL0     C13187   0.668   7.902   4.870 -0.1486 -0.1781  0.3996
  839MOL0     O13188   0.553   7.912   4.943 -0.6076  0.7497 -0.8899
  839MOL0     C13189   0.433   7.855   4.890  0.1980  0.0500  0.0763
  839MOL0     C13190   0.311   7.914   4.964 -0.4222  0.1322 -0.1850
  839MOL0     C13191   0.292   8.063   4.969  0.2823 -0.7870 -0.2332
  839MOL0     C13192   0.160   8.118   5.023  0.2406  0.0103 -0.5603
  839MOL0     C13193   0.180   8.235   5.102 -0.5046 -0.0894  0.3191
  839MOL0     C13194   0.204   8.334   5.161  0.2953 -0.3331 -0.7436
  839MOL0     C13195   0.688   7.817   4.769 -0.3749  0.0234  0.0380
  839MOL0     C13196   0.807   7.802   4.694 -0.7945 -1.7424  0.6846
  839MOL0     C13197   0.819   7.702   4.581 -0.3532  0.0791  0.5937
  839MOL0     H13198   1.164   7.723   4.388  1.5654  1.9826 -1.8330
  839MOL0     H13199   1.386   7.727   4.297 -1.7138 -1.8148 -0.9648
  839MOL0     H13200   1.618   7.539   4.386 -2.1823 -0.6029 -1.5380
  839MOL0     H13201   1.599   7.675   4.255 -2.0173  1.1993  1.1253
  839MOL0     H13202   1.812   7.537   4.252 -0.6859 -1.2097  0.8970
  839MOL0     H13203   1.853   7.590   4.406 -0.4298 -0.7131 -1.3819
  839MOL0     H13204   1.812   7.849   4.308  1.9946  1.6557 -0.8434
  839MOL0     H13205   1.824   7.765   4.160  0.5193 -0.2016  0.0889
  839MOL0     H13206   2.037   7.782   4.377  1.1334  0.0335 -0.4550
  839MOL0     H13207   2.060   7.691   4.232  0.1260 -0.0191 -0.5282
  839MOL0     H13208   2.023   7.891   4.093 -1.1539 -0.4941  0.1789
  839MOL0     H13209   1.990   7.985   4.249  1.4155  0.0422  1.2320
  839MOL0     H13210   2.206   7.972   4.324 -1.6927  0.3462  1.3251
  839MOL0     H13211   2.247   7.840   4.215 -2.9168 -1.9317 -1.5434
  839MOL0     H13212   2.179   8.129   4.124 -1.4489 -1.3995 -0.8111
  839MOL0     H13213   2.251   7.995   4.028 -2.1396 -0.3844  0.6474
  839MOL0     H13214   2.426   8.164   4.110 -1.0206  1.0698  0.4392
  839MOL0     H13215   2.378   8.138   4.278 -0.2789  0.9136 -0.5988
  839MOL0     H13216   2.578   8.001   3.982 -0.7425 -0.0953 -0.5426
  839MOL0     H13217   2.687   7.637   4.063 -0.8869 -0.4316  0.2332
  839MOL0     H13218   2.703   7.762   3.931  1.0512  0.9983 -0.6367
  839MOL0     H13219   2.904   7.858   4.049 -0.0156  0.0091 -1.5832
  839MOL0     H13220   2.866   7.746   4.180 -0.9005 -0.3289  0.2002
  839MOL0     H13221   2.923   7.641   3.896  0.0896  3.0071 -0.1171
  839MOL0     H13222   2.948   7.548   4.052 -1.8649  0.7876  2.1751
  839MOL0     H13223   3.127   7.778   3.930  1.4931 -0.5474  0.8886
  839MOL0     H13224   3.147   7.606   3.916 -0.6630  0.6952 -0.7011
  839MOL0     H13225   3.322   7.621   4.318 -0.1584 -0.7645 -0.6352
  839MOL0     H13226   3.576   7.620   4.329  3.1102  0.9212 -1.1384
  839MOL0     H13227   3.992   7.609   4.147  0.9447  1.4378 -1.7349
  839MOL0     H13228   4.221   7.626   4.193 -2.1635 -1.2306  0.3263
  839MOL0     H13229   4.415   7.612   4.324 -0.8533  0.5113  0.0416
  839MOL0     H13230   4.438   7.739   4.207  0.7148  2.4533  0.5029
  839MOL0     H13231   4.589   7.708   4.474  4.0896 -1.9637 -0.3064
  839MOL0     H13232   4.644   7.684   4.320 -0.7696 -2.2346  1.7753
  839MOL0     H13233   4.595   7.933   4.259  1.9397 -0.0729 -0.1639
  839MOL0     H13234   4.548   7.944   4.429  0.3319 -0.4424  1.0178
  839MOL0     H13235   4.793   7.857   4.474  2.2670  3.4494  2.5763
  839MOL0     H13236   4.780   8.026   4.432 -3.0116  0.9880 -0.4120
  839MOL0     H13237   4.837   7.969   4.198 -2.1069  2.0607  3.2739
  839MOL0     H13238   4.876   7.799   4.250  1.4969  0.1468 -1.1052
  839MOL0     H13239   5.018   8.055   4.337  2.5410  0.2815 -0.3452
  839MOL0     H13240   5.027   7.910   4.436  1.1891  1.6513 -0.8831
  839MOL0     H13241   5.065   7.832   4.158 -0.5600  0.9215 -0.4052
  839MOL0     H13242   5.162   7.796   4.295 -1.4080 -0.8102 -1.9100
  839MOL0     H13243   5.204   8.057   4.137 -0.6394 -0.2401  1.3055
  839MOL0     H13244   5.262   8.026   4.306  1.8473  2.8394 -1.6619
  839MOL0     H13245   4.151   7.943   4.471  1.3454  2.7615 -2.8697
  839MOL0     H13246   3.905   7.923   4.428 -0.4141 -0.7102  0.7085
  839MOL0     H13247   3.583   7.807   3.952  0.3283  0.3503  0.5223
  839MOL0     H13248   3.349   7.775   3.923  1.5761 -0.5957 -1.0195
  839MOL0     H13249   1.555   7.824   4.683 -0.4455 -1.1730  0.7870
  839MOL0     H13250   1.324   7.810   4.774 -0.3705  2.4075  0.5979
  839MOL0     H13251   0.978   8.042   4.856  0.0084  0.3583 -1.3182
  839MOL0     H13252   0.764   8.046   4.989  0.5597  1.1465 -1.2383
  839MOL0     H13253   0.437   7.746   4.886  2.1012  0.0352  1.1280
  839MOL0     H13254   0.427   7.897   4.789 -1.2443 -2.5592 -1.0138
  839MOL0     H13255   0.322   7.886   5.069 -0.1223  1.3654  0.1206
  839MOL0     H13256   0.215   7.882   4.922 -0.5364  1.1651 -0.7373
  839MOL0     H13257   0.330   8.112   4.879 -0.8821  0.2355 -0.2012
  839MOL0     H13258   0.364   8.106   5.039 -2.2367 -1.5062  3.0986
  839MOL0     H13259   0.084   8.149   4.950 -0.7728  1.5497  1.0548
  839MOL0     H13260   0.112   8.044   5.087 -0.8243  0.3327 -0.9433
  839MOL0     H13261   0.229   8.418   5.223  1.9743 -1.6966  0.5443
  839MOL0     H13262   0.614   7.743   4.738 -0.0733 -1.4348  2.4905
  839MOL0     H13263   0.723   7.653   4.564 -1.5262  1.6758  2.1637
  839MOL0     H13264   0.851   7.743   4.485  3.7715 -0.8457  1.3822
  839MOL0     H13265   0.894   7.626   4.604  2.8619  1.7639 -3.2169
  840MOL0     O13266  11.130   3.108   1.661  0.0033 -0.5391  0.1500
  840MOL0     C13267  11.028   3.179   1.670 -0.1296  0.1791  1.2081
  840MOL0     O13268  11.024   3.316   1.675 -0.6145  0.2363 -0.0490
  840MOL0     C13269  11.135   3.372   1.727 -0.6660 -0.0617 -0.2098
  840MOL0     C13270  11.263   3.377   1.665 -0.4491 -0.6964  0.6116
  840MOL0     C13271  11.372   3.442   1.723  0.6743 -0.3122  0.0170
  840MOL0     C13272  11.350   3.528   1.831  0.6847 -0.1246  0.0854
  840MOL0     O13273  11.457   3.602   1.880 -0.4722 -0.4141  0.3303
  840MOL0     C13274  11.521   3.691   1.790  0.5476  0.2751  0.2670
  840MOL0     C13275  11.620   3.767   1.875  0.8996  0.4537 -0.6405
  840MOL0     C13276  11.745   3.689   1.916  0.0629  0.2896 -0.3690
  840MOL0     C13277  11.828   3.753   2.029  0.4641  0.1023 -0.8203
  840MOL0     C13278  11.957   3.680   2.047  0.1819 -0.9113 -0.3100
  840MOL0     C13279  12.037   3.714   2.174 -0.2511  0.2984  0.1277
  840MOL0     C13280  12.001   3.645   2.298  0.5077 -0.3545  0.8744
  840MOL0     C13281  12.104   3.668   2.411  0.1992 -0.9940 -0.0243
  840MOL0     N13282  12.229   3.600   2.394  0.0352 -0.6688  0.4381
  840MOL0     C13283  12.256   3.481   2.449 -0.5179  0.1947  0.6862
  840MOL0     C13284  12.390   3.456   2.410 -0.0823 -0.1877 -0.0563
  840MOL0     C13285  12.470   3.338   2.439  0.9289  0.3338  0.0373
  840MOL0     C13286  12.621   3.371   2.416 -0.0632  0.4237 -0.3979
  840MOL0     C13287  12.682   3.457   2.528 -0.5114  0.0683  0.0665
  840MOL0     C13288  12.828   3.495   2.498 -0.5525  0.1726 -0.8336
  840MOL0     O13289  12.916   3.379   2.505 -0.3583  0.5268  0.2623
  840MOL0     C13290  13.050   3.388   2.486 -0.1443 -0.4602  0.3064
  840MOL0     C13291  13.128   3.503   2.475  0.3095  0.4996 -0.4119
  840MOL0     C13292  13.266   3.494   2.474  0.0716  0.0394  0.1115
  840MOL0     C13293  13.332   3.365   2.477  0.1413 -0.2884  0.5997
  840MOL0     C13294  13.480   3.359   2.469  0.3885  0.0123  1.1964
  840MOL0     O13295  13.528   3.237   2.440 -0.1606 -0.3268 -0.6362
  840MOL0     C13296  13.672   3.232   2.438  0.0505  0.2173 -0.2075
  840MOL0     C13297  13.729   3.249   2.313  0.0240  0.1577  0.1077
  840MOL0     C13298  13.871   3.248   2.302  0.4393 -0.1124  0.2702
  840MOL0     C13299  13.956   3.229   2.408 -0.1343 -0.0418 -0.0718
  840MOL0     O13300  14.091   3.232   2.381  0.4690  0.2289  0.1567
  840MOL0     C13301  14.184   3.212   2.483 -1.0795 -0.2612 -0.2454
  840MOL0     C13302  14.324   3.222   2.414  0.9631  0.1161 -0.3509
  840MOL0     C13303  14.438   3.180   2.514 -0.5405 -0.7444  0.2581
  840MOL0     C13304  14.574   3.232   2.467  0.1489  0.9888 -0.7195
  840MOL0     C13305  14.690   3.188   2.551  0.1002 -0.3704 -0.2640
  840MOL0     C13306  14.822   3.266   2.502 -0.4019  0.3328 -0.1995
  840MOL0     C13307  14.943   3.228   2.595 -1.0915  0.4138  1.0962
  840MOL0     C13308  15.083   3.241   2.530  0.1329 -0.2792  0.2721
  840MOL0    Cl13309  15.199   3.176   2.646 -0.2494 -0.1702 -0.2724
  840MOL0     C13310  13.894   3.213   2.536  0.4149  0.1961  0.2876
  840MOL0     C13311  13.753   3.218   2.548 -0.2817 -0.4722 -0.6242
  840MOL0     O13312  13.545   3.463   2.475 -0.2305  0.0424  0.0076
  840MOL0     C13313  13.248   3.252   2.467 -0.5684 -0.2105  0.8760
  840MOL0     C13314  13.115   3.264   2.477 -0.2698 -0.4273  0.2029
  840MOL0     N13315  12.422   3.562   2.324 -1.1783 -0.3898 -0.3894
  840MOL0     N13316  12.336   3.647   2.326 -0.3418 -0.1574 -0.2652
  840MOL0     C13317  11.223   3.535   1.886  0.2497 -0.1735  0.1597
  840MOL0     C13318  11.118   3.450   1.833  0.2053 -1.0706  0.2638
  840MOL0     C13319  10.892   3.119   1.684 -0.6508 -0.4435 -0.2987
  840MOL0     C13320  10.784   3.197   1.730 -0.0923  0.3013 -0.0069
  840MOL0     C13321  10.652   3.148   1.728  0.2567 -0.2494  0.5927
  840MOL0     C13322  10.632   3.019   1.676  0.3170 -0.4494 -0.3408
  840MOL0     O13323  10.500   2.981   1.665 -0.0707 -0.1224 -0.9865
  840MOL0     C13324  10.392   3.080   1.684 -0.0438  0.0644 -0.2482
  840MOL0     C13325  10.253   3.013   1.674 -0.1709  0.5955  0.8135
  840MOL0     C13326  10.233   2.935   1.542 -0.4119 -0.7885  0.2362
  840MOL0     C13327  10.079   2.923   1.505 -0.1102  0.1250  0.7029
  840MOL0     C13328   9.989   2.895   1.620 -0.4992  0.0172  0.3185
  840MOL0     C13329   9.926   2.868   1.719  1.0630 -0.0173 -0.4121
  840MOL0     C13330  10.735   2.943   1.632  0.2268 -0.0976  0.5536
  840MOL0     C13331  10.860   2.988   1.627 -0.3973 -0.3613 -0.8092
  840MOL0     C13332  10.962   2.896   1.560 -0.4402 -0.1586  0.0785
  840MOL0     H13333  11.271   3.317   1.575 -0.3961  0.5637 -0.2570
  840MOL0     H13334  11.464   3.433   1.667  1.1592  2.1091  0.3162
  840MOL0     H13335  11.581   3.625   1.726 -2.0851 -1.5105 -0.5104
  840MOL0     H13336  11.456   3.749   1.723  2.5386  1.2248 -0.9280
  840MOL0     H13337  11.571   3.807   1.965 -1.6410 -1.9159 -0.8254
  840MOL0     H13338  11.648   3.851   1.812  0.8451  0.9494 -0.0203
  840MOL0     H13339  11.803   3.677   1.824  1.1218 -1.2135  0.4576
  840MOL0     H13340  11.719   3.592   1.958  0.4250  0.6508  0.7260
  840MOL0     H13341  11.851   3.857   2.002 -0.0341  0.9283  1.6473
  840MOL0     H13342  11.772   3.764   2.122  0.5667 -0.0051 -0.7448
  840MOL0     H13343  11.930   3.574   2.042  0.4990 -0.9568 -1.3201
  840MOL0     H13344  12.022   3.702   1.961 -1.4467 -0.5758 -1.5197
  840MOL0     H13345  12.143   3.695   2.154 -0.2363 -0.6872  1.0452
  840MOL0     H13346  12.031   3.820   2.201  0.3017 -0.3835  3.3472
  840MOL0     H13347  11.987   3.540   2.273  0.5463  0.0492 -0.9346
  840MOL0     H13348  11.910   3.685   2.345  0.7171  0.3517  0.7015
  840MOL0     H13349  12.128   3.774   2.419 -2.9050 -0.2456  0.4927
  840MOL0     H13350  12.059   3.639   2.507 -1.5284  1.6036  0.0619
  840MOL0     H13351  12.191   3.419   2.510  2.3342 -3.6093  0.2141
  840MOL0     H13352  12.454   3.320   2.546  0.0712  3.4970  0.5654
  840MOL0     H13353  12.431   3.253   2.384  0.8633 -0.1058  0.7510
  840MOL0     H13354  12.683   3.281   2.428  0.2107  0.9014  2.9067
  840MOL0     H13355  12.639   3.412   2.316  1.3464  1.1718  0.1370
  840MOL0     H13356  12.670   3.405   2.623  0.9076  0.7611  0.6569
  840MOL0     H13357  12.615   3.543   2.541  0.0549  0.2046  2.5175
  840MOL0     H13358  12.862   3.572   2.568  0.1422 -0.7591 -0.1211
  840MOL0     H13359  12.839   3.526   2.394  1.8579  0.7037 -0.4937
  840MOL0     H13360  13.081   3.600   2.478  0.5930  0.6163  0.6511
  840MOL0     H13361  13.320   3.586   2.455  0.4838  0.2239  1.9667
  840MOL0     H13362  13.677   3.273   2.221 -1.6486  0.7210  1.1502
  840MOL0     H13363  13.912   3.264   2.202  0.1829 -2.0340 -0.1776
  840MOL0     H13364  14.168   3.283   2.565  0.3758  0.9430 -0.9557
  840MOL0     H13365  14.169   3.110   2.518 -1.5040 -1.0903 -2.6597
  840MOL0     H13366  14.329   3.141   2.341  1.8098 -0.4809  0.3528
  840MOL0     H13367  14.335   3.321   2.368  0.2211  0.6380  0.5575
  840MOL0     H13368  14.432   3.220   2.616  1.1131  1.8583 -0.5569
  840MOL0     H13369  14.440   3.071   2.520 -0.0064 -0.9943 -2.8272
  840MOL0     H13370  14.568   3.341   2.473 -0.6173  0.8705  1.1746
  840MOL0     H13371  14.590   3.196   2.365 -2.5450 -2.5190 -0.0854
  840MOL0     H13372  14.697   3.082   2.527 -0.6344 -0.9405  1.8715
  840MOL0     H13373  14.662   3.197   2.656  0.3368  2.0256 -0.3421
  840MOL0     H13374  14.843   3.223   2.403 -1.7153  0.0431 -0.3776
  840MOL0     H13375  14.816   3.375   2.504  2.6123  0.5491  1.9742
  840MOL0     H13376  14.934   3.121   2.616 -1.6677  0.0283 -0.8790
  840MOL0     H13377  14.947   3.290   2.685 -0.2538  2.2616 -0.1450
  840MOL0     H13378  15.079   3.184   2.436  2.4981  1.3810 -0.9641
  840MOL0     H13379  15.106   3.347   2.513 -2.1820  0.2139 -0.1560
  840MOL0     H13380  13.949   3.214   2.630  0.0691  4.2811  0.6241
  840MOL0     H13381  13.704   3.214   2.644 -0.0258  2.0675 -0.3119
  840MOL0     H13382  13.301   3.157   2.462 -1.8743 -0.9604  0.4923
  840MOL0     H13383  13.056   3.174   2.493  3.7156 -2.9499  2.5600
  840MOL0     H13384  11.202   3.596   1.973 -1.3238 -1.9805  1.1255
  840MOL0     H13385  11.019   3.461   1.874  0.4571 -1.4806  0.9893
  840MOL0     H13386  10.802   3.302   1.751  2.3261  0.3029 -1.7080
  840MOL0     H13387  10.573   3.219   1.749  1.2227  0.9989  0.1827
  840MOL0     H13388  10.395   3.162   1.611  0.5502 -2.2391 -3.0428
  840MOL0     H13389  10.405   3.124   1.783  2.0934 -3.1731  1.0852
  840MOL0     H13390  10.177   3.092   1.678  1.9575  2.7025  3.1493
  840MOL0     H13391  10.242   2.941   1.755 -4.0595 -1.5407 -1.2750
  840MOL0     H13392  10.275   2.834   1.539 -0.3423 -0.7476 -0.3138
  840MOL0     H13393  10.283   2.990   1.462  0.9122 -1.2449  0.7259
  840MOL0     H13394  10.055   3.019   1.460  1.2211  0.7291  1.2153
  840MOL0     H13395  10.069   2.836   1.440 -0.5251  0.0433  0.8708
  840MOL0     H13396   9.875   2.832   1.806  0.2166  0.6307 -0.6255
  840MOL0     H13397  10.705   2.851   1.583  0.7428 -0.0121  0.0626
  840MOL0     H13398  11.014   2.943   1.477 -0.0621 -2.4914 -1.0784
  840MOL0     H13399  11.034   2.872   1.639 -2.7927  0.1208  2.4728
  840MOL0     H13400  10.911   2.806   1.524  1.4724 -1.8112  1.3280
  841MOL0     O13401   2.677   2.005   1.016  0.0745 -0.0812 -0.4632
  841MOL0     C13402   2.601   1.904   0.992 -0.0234 -0.1345 -0.2712
  841MOL0     O13403   2.641   1.776   0.989  0.5081 -0.4876 -0.3941
  841MOL0     C13404   2.757   1.756   1.055  0.3148  0.9080  0.7952
  841MOL0     C13405   2.793   1.801   1.176  0.0477  0.0022 -0.0608
  841MOL0     C13406   2.926   1.775   1.217 -0.3165  0.2012  0.3866
  841MOL0     C13407   3.017   1.703   1.141 -0.2912 -0.5485  0.7662
  841MOL0     O13408   3.144   1.699   1.186 -0.4059 -0.4960  0.2360
  841MOL0     C13409   3.248   1.673   1.090  0.1185 -0.2322 -0.3790
  841MOL0     C13410   3.365   1.597   1.153  0.4722  0.5914  0.0928
  841MOL0     C13411   3.483   1.567   1.055  0.6739  0.4337  0.0604
  841MOL0     C13412   3.551   1.690   0.997  0.0376  0.6302 -0.4790
  841MOL0     C13413   3.667   1.661   0.901 -0.6526  0.7285 -0.3066
  841MOL0     C13414   3.783   1.579   0.975 -0.1829  0.0546  0.4346
  841MOL0     C13415   3.902   1.557   0.881 -0.1118  0.4636  0.4506
  841MOL0     C13416   4.028   1.551   0.966  0.0117  0.2171  0.4312
  841MOL0     N13417   4.148   1.526   0.875  0.5589  0.5022  0.3367
  841MOL0     C13418   4.180   1.606   0.769 -0.5300  0.1218 -0.2507
  841MOL0     C13419   4.304   1.567   0.730 -0.0774  0.5017  0.1361
  841MOL0     C13420   4.392   1.632   0.626 -0.3841  0.3976  0.2321
  841MOL0     C13421   4.542   1.618   0.646 -0.0296  0.8046 -0.7043
  841MOL0     C13422   4.596   1.654   0.787  0.5447 -1.0019 -0.1227
  841MOL0     C13423   4.749   1.642   0.786  0.1821  0.1558  0.7572
  841MOL0     O13424   4.814   1.746   0.704 -0.9772 -0.1957 -0.7281
  841MOL0     C13425   4.950   1.736   0.699 -0.8267  0.4062  0.3441
  841MOL0     C13426   5.020   1.791   0.590  0.2247 -0.1236  0.6367
  841MOL0     C13427   5.160   1.783   0.584  1.3444 -0.1921  0.4796
  841MOL0     C13428   5.233   1.721   0.687  0.2371  0.2515 -0.9007
  841MOL0     C13429   5.378   1.736   0.695  0.2164  0.2567 -0.5074
  841MOL0     O13430   5.431   1.700   0.821 -0.2194  0.4336  0.1200
  841MOL0     C13431   5.566   1.682   0.832  0.3284 -0.3692  0.3795
  841MOL0     C13432   5.624   1.564   0.867 -0.7238  0.9719  0.1474
  841MOL0     C13433   5.761   1.553   0.875  0.4892  0.3884  0.1856
  841MOL0     C13434   5.851   1.662   0.862 -0.0896  0.1613  0.1133
  841MOL0     O13435   5.984   1.654   0.885 -0.2590  0.5065  0.5224
  841MOL0     C13436   6.034   1.558   0.976 -0.1216  0.0246  0.2570
  841MOL0     C13437   6.175   1.612   1.025  0.6772  0.0781 -0.6250
  841MOL0     C13438   6.280   1.560   0.936  0.5252  0.6663  0.1163
  841MOL0     C13439   6.317   1.409   0.964 -0.4096 -0.8028  0.6786
  841MOL0     C13440   6.434   1.378   0.876  0.0305  0.2429  0.1513
  841MOL0     C13441   6.397   1.346   0.736 -0.2044 -0.0810  0.8606
  841MOL0     C13442   6.519   1.299   0.653  0.6046  0.2971  0.2783
  841MOL0     C13443   6.495   1.345   0.503  0.2027  0.0489  1.0819
  841MOL0    Cl13444   6.638   1.282   0.415  0.0173  0.1827 -0.0355
  841MOL0     C13445   5.792   1.786   0.836  0.1497 -0.0531 -0.1415
  841MOL0     C13446   5.650   1.798   0.810  0.0415  0.5278  1.0207
  841MOL0     O13447   5.444   1.768   0.603  0.0333 -0.0750  0.9237
  841MOL0     C13448   5.163   1.647   0.784  0.0480  0.3951 -0.0691
  841MOL0     C13449   5.021   1.666   0.792 -1.1630  0.6028  0.0574
  841MOL0     N13450   4.324   1.448   0.797 -1.0236 -0.3951  0.5580
  841MOL0     N13451   4.233   1.418   0.880  0.2012  0.0989  0.1698
  841MOL0     C13452   2.973   1.658   1.010 -0.2659  0.7480  0.5555
  841MOL0     C13453   2.844   1.685   0.968 -1.0806  0.0846  0.0041
  841MOL0     C13454   2.454   1.918   0.983  0.2716 -0.4360  1.4708
  841MOL0     C13455   2.373   1.813   1.024 -0.0214  0.4129 -0.3419
  841MOL0     C13456   2.232   1.834   1.020  0.2711 -1.0084 -0.6395
  841MOL0     C13457   2.175   1.959   0.987  0.3842  0.1372  0.2959
  841MOL0     O13458   2.038   1.975   0.996  0.6063  0.6434  0.4768
  841MOL0     C13459   1.986   1.963   1.126 -1.4621 -0.3942 -0.2336
  841MOL0     C13460   1.834   1.997   1.126  0.3962 -0.3357  0.2483
  841MOL0     C13461   1.742   1.890   1.082 -0.0528 -0.5031 -0.2630
  841MOL0     C13462   1.595   1.950   1.066 -0.4155 -0.0705  0.3808
  841MOL0     C13463   1.512   1.854   1.001  0.1929 -0.3640  0.1172
  841MOL0     C13464   1.441   1.771   0.938  0.3956  0.0842  0.7937
  841MOL0     C13465   2.254   2.054   0.936 -0.5889 -0.2764 -1.2015
  841MOL0     C13466   2.392   2.036   0.942 -0.5712  0.4842  0.9038
  841MOL0     C13467   2.473   2.158   0.885  0.1175  0.3015  0.7161
  841MOL0     H13468   2.718   1.850   1.237 -1.0598 -1.7980  0.0978
  841MOL0     H13469   2.957   1.812   1.313 -1.6292  2.8257 -0.1079
  841MOL0     H13470   3.214   1.621   1.000  1.3692  3.2708 -3.1152
  841MOL0     H13471   3.295   1.769   1.064 -0.2160  0.4703  1.4740
  841MOL0     H13472   3.330   1.500   1.191 -1.1103  0.4178 -1.6272
  841MOL0     H13473   3.396   1.650   1.243  1.3195 -1.4859  1.0855
  841MOL0     H13474   3.449   1.505   0.972  0.5055 -0.0044  0.4589
  841MOL0     H13475   3.564   1.510   1.102  0.2353 -1.3068 -1.2051
  841MOL0     H13476   3.474   1.744   0.942 -5.3525 -0.6491  4.7312
  841MOL0     H13477   3.593   1.752   1.077 -0.6475  1.0771 -0.4575
  841MOL0     H13478   3.625   1.598   0.822 -0.9881  1.8273 -1.0289
  841MOL0     H13479   3.721   1.752   0.871  0.9776  0.4321  1.5164
  841MOL0     H13480   3.821   1.634   1.061  0.5382  0.6385 -0.2403
  841MOL0     H13481   3.744   1.481   1.003  2.7148 -2.5475 -3.5326
  841MOL0     H13482   3.920   1.639   0.811  2.4889 -1.0411 -0.7858
  841MOL0     H13483   3.888   1.470   0.817  4.3074  0.3073 -0.6267
  841MOL0     H13484   4.044   1.643   1.021  1.4698 -0.0989  0.5914
  841MOL0     H13485   4.004   1.474   1.040 -4.6290  0.9525 -0.0428
  841MOL0     H13486   4.131   1.692   0.724 -0.2264  0.9644  0.9795
  841MOL0     H13487   4.374   1.589   0.527  0.4699 -0.9866  0.6541
  841MOL0     H13488   4.368   1.738   0.619 -0.2894  0.3024 -3.3388
  841MOL0     H13489   4.560   1.510   0.645  0.3463  0.5430  4.6391
  841MOL0     H13490   4.596   1.678   0.572 -0.1172  3.8208  1.4993
  841MOL0     H13491   4.558   1.589   0.866  1.1945  0.0833  1.1110
  841MOL0     H13492   4.574   1.756   0.819 -0.5638 -1.1306 -0.4255
  841MOL0     H13493   4.785   1.545   0.753  2.9884  0.4402  2.6093
  841MOL0     H13494   4.776   1.650   0.892 -1.4063 -0.2955  1.2165
  841MOL0     H13495   4.965   1.812   0.500  0.1078  3.1856  1.3690
  841MOL0     H13496   5.212   1.823   0.497  1.5466 -0.1986  0.5957
  841MOL0     H13497   5.566   1.476   0.894 -1.3659  0.0611 -3.6064
  841MOL0     H13498   5.794   1.455   0.908 -0.1120  0.9525  2.7335
  841MOL0     H13499   5.968   1.540   1.061  2.2747  1.1702  2.5065
  841MOL0     H13500   6.048   1.459   0.932 -0.5255 -0.4259  1.1259
  841MOL0     H13501   6.170   1.721   1.013 -0.9116  0.3004  1.3694
  841MOL0     H13502   6.202   1.586   1.128 -3.6100  0.5198  0.8323
  841MOL0     H13503   6.266   1.588   0.832 -1.5746  0.8767  0.4213
  841MOL0     H13504   6.371   1.614   0.963 -0.2150  1.4311  1.1640
  841MOL0     H13505   6.230   1.345   0.947 -2.1224  1.4015  0.6393
  841MOL0     H13506   6.346   1.388   1.068  1.3916 -3.3057 -0.2198
  841MOL0     H13507   6.474   1.289   0.924  1.1609 -0.9029 -2.7246
  841MOL0     H13508   6.510   1.456   0.879  2.3835 -1.9300  0.1409
  841MOL0     H13509   6.320   1.268   0.738 -1.1866  0.8309 -0.5137
  841MOL0     H13510   6.360   1.437   0.689 -0.4336 -0.1282  0.9489
  841MOL0     H13511   6.505   1.191   0.653 -1.1112  0.4923 -0.1941
  841MOL0     H13512   6.616   1.330   0.693  0.1882  0.8624  0.8790
  841MOL0     H13513   6.394   1.316   0.470  0.9827 -0.2928 -1.1794
  841MOL0     H13514   6.498   1.452   0.485 -2.4944 -0.2396 -2.1296
  841MOL0     H13515   5.851   1.876   0.826 -0.4536  0.2651 -0.9590
  841MOL0     H13516   5.614   1.889   0.762 -0.5285  0.1671  0.7564
  841MOL0     H13517   5.209   1.580   0.855 -1.0660 -1.3801 -0.9561
  841MOL0     H13518   4.972   1.603   0.865  0.2852 -0.1796  0.3946
  841MOL0     H13519   3.037   1.607   0.939  0.1077 -1.9232  2.6219
  841MOL0     H13520   2.810   1.656   0.869 -1.1620  2.8431 -0.8557
  841MOL0     H13521   2.413   1.718   1.060 -0.2532 -0.3326 -1.9459
  841MOL0     H13522   2.157   1.757   1.034  0.6476 -1.0065  1.9832
  841MOL0     H13523   2.045   2.033   1.186  0.7675 -2.9900  0.8218
  841MOL0     H13524   1.989   1.862   1.168 -3.1087 -0.6481 -0.6471
  841MOL0     H13525   1.820   2.080   1.055  2.2935 -0.0557  0.1492
  841MOL0     H13526   1.806   2.023   1.228 -1.7711  0.8823 -0.5723
  841MOL0     H13527   1.746   1.800   1.144  1.1406  0.1063  0.5868
  841MOL0     H13528   1.772   1.862   0.980 -0.8759  1.8128 -1.2067
  841MOL0     H13529   1.555   1.976   1.164  0.1620  3.8088 -0.2719
  841MOL0     H13530   1.591   2.046   1.014 -3.2223 -0.1057  0.4077
  841MOL0     H13531   1.363   1.724   0.882 -0.4660  2.1742  0.1275
  841MOL0     H13532   2.216   2.153   0.911  2.0137  1.1637  0.0375
  841MOL0     H13533   2.420   2.241   0.838  1.1396  0.8210  0.4377
  841MOL0     H13534   2.518   2.202   0.975  1.5828  0.6861 -0.1727
  841MOL0     H13535   2.559   2.131   0.823 -0.3007  3.1267 -1.2761
  842MOL0     O13536   5.249   7.333   1.579  0.1659 -0.2718  0.1947
  842MOL0     C13537   5.221   7.425   1.654 -0.0735  0.5453 -0.3401
  842MOL0     O13538   5.306   7.530   1.686  0.9316 -0.1325 -0.7454
  842MOL0     C13539   5.417   7.537   1.605  0.4945 -0.4267 -0.7324
  842MOL0     C13540   5.410   7.575   1.467 -0.4406 -0.1095  0.1317
  842MOL0     C13541   5.520   7.590   1.383 -0.2390 -0.1903  0.8893
  842MOL0     C13542   5.650   7.583   1.435 -0.2088 -0.9533 -0.0976
  842MOL0     O13543   5.756   7.593   1.358  0.1283 -0.1405  0.0223
  842MOL0     C13544   5.743   7.651   1.230 -0.1520  0.3425  0.5040
  842MOL0     C13545   5.874   7.698   1.169 -0.4981  0.3584  0.2542
  842MOL0     C13546   5.993   7.596   1.192  0.3000  0.2606  0.2547
  842MOL0     C13547   6.112   7.626   1.099  0.1880  0.7165  0.3752
  842MOL0     C13548   6.206   7.510   1.096 -0.2320  0.3445  0.4615
  842MOL0     C13549   6.341   7.545   1.033 -0.1170 -0.5222  0.0342
  842MOL0     C13550   6.455   7.457   1.084 -0.6865 -1.0424 -0.4017
  842MOL0     C13551   6.488   7.486   1.224 -0.2334 -0.3283 -0.2420
  842MOL0     N13552   6.585   7.382   1.269 -0.4004 -0.9736  1.0033
  842MOL0     C13553   6.714   7.367   1.225 -0.6070  0.3474  0.1854
  842MOL0     C13554   6.751   7.245   1.251 -0.4217 -0.6210 -0.9614
  842MOL0     C13555   6.892   7.186   1.220  0.1796 -0.0548 -0.7395
  842MOL0     C13556   6.914   7.062   1.308  0.7199 -0.4331  0.2179
  842MOL0     C13557   6.844   6.938   1.249  1.0858  0.3409 -0.1638
  842MOL0     C13558   6.925   6.860   1.141 -1.0085  0.2709 -0.0001
  842MOL0     O13559   7.042   6.811   1.214 -0.2061  0.1168  0.1686
  842MOL0     C13560   7.162   6.834   1.155  0.3301 -0.0833 -0.4558
  842MOL0     C13561   7.257   6.859   1.250  0.1171 -0.4911  0.2811
  842MOL0     C13562   7.387   6.894   1.211 -0.2857  0.2785  1.0115
  842MOL0     C13563   7.431   6.875   1.076  0.0909  0.4108 -0.6021
  842MOL0     C13564   7.569   6.910   1.032  0.1743  0.2305 -0.5564
  842MOL0     O13565   7.650   6.973   1.126  0.1168 -0.2632  0.1463
  842MOL0     C13566   7.789   6.985   1.107 -0.4252 -0.2625 -0.0801
  842MOL0     C13567   7.849   7.010   0.982  0.5153 -0.1600 -0.9928
  842MOL0     C13568   7.987   6.995   0.971  0.3187 -1.0647 -0.0327
  842MOL0     C13569   8.072   6.969   1.080  0.7423 -0.7025  0.2551
  842MOL0     O13570   8.212   6.940   1.072  1.1221  0.2848 -0.1245
  842MOL0     C13571   8.281   7.010   0.966 -0.2036  0.0917 -0.3792
  842MOL0     C13572   8.422   6.957   0.981  0.3346 -0.7295 -0.0964
  842MOL0     C13573   8.441   6.822   0.906  0.5839 -0.7427 -0.5833
  842MOL0     C13574   8.578   6.771   0.952  0.3330 -0.0916  0.7186
  842MOL0     C13575   8.639   6.675   0.851 -0.5407 -0.4422  0.3537
  842MOL0     C13576   8.570   6.540   0.856  0.2409  0.7708 -0.3665
  842MOL0     C13577   8.637   6.435   0.764  0.2471 -0.0888 -1.6701
  842MOL0     C13578   8.534   6.380   0.673 -0.3302 -0.2661  0.0703
  842MOL0    Cl13579   8.459   6.499   0.559 -0.0384  0.4339  0.0209
  842MOL0     C13580   8.005   6.958   1.198  0.0264 -0.2419 -0.9209
  842MOL0     C13581   7.871   6.969   1.218  0.9123  0.1624 -0.1152
  842MOL0     O13582   7.609   6.873   0.922 -0.3814  0.1159  0.0844
  842MOL0     C13583   7.330   6.836   0.984  0.1638 -0.2602 -0.8177
  842MOL0     C13584   7.194   6.826   1.028  0.0548 -0.4451  0.7099
  842MOL0     N13585   6.651   7.197   1.333 -0.5254  0.3223 -0.3884
  842MOL0     N13586   6.552   7.274   1.340  0.6604 -0.5382  0.3599
  842MOL0     C13587   5.659   7.549   1.576  0.1146  0.3944 -0.5792
  842MOL0     C13588   5.546   7.527   1.650 -0.7087  0.3207 -1.0737
  842MOL0     C13589   5.112   7.418   1.754  0.0896  0.2273  0.6489
  842MOL0     C13590   5.115   7.504   1.862 -0.4945 -0.2733  0.2470
  842MOL0     C13591   5.029   7.496   1.973  1.7351  0.0306  0.2254
  842MOL0     C13592   4.923   7.407   1.966 -0.4599 -0.4889 -0.5728
  842MOL0     O13593   4.840   7.412   2.073 -0.2474  0.4739 -0.0278
  842MOL0     C13594   4.716   7.334   2.076 -0.3331  0.2397 -0.0705
  842MOL0     C13595   4.641   7.374   2.202  0.6085 -0.1595  0.4018
  842MOL0     C13596   4.490   7.348   2.184 -0.5583  0.1299 -0.1405
  842MOL0     C13597   4.451   7.200   2.152 -0.9237 -0.3877  0.5821
  842MOL0     C13598   4.492   7.159   2.011  0.7276  0.0150  1.0603
  842MOL0     C13599   4.523   7.127   1.898 -0.0425  0.7268  0.0823
  842MOL0     C13600   4.919   7.320   1.858  0.3180  1.0830  0.9556
  842MOL0     C13601   5.007   7.323   1.747 -0.9927 -0.0633  0.0416
  842MOL0     C13602   4.993   7.220   1.637 -0.9428  0.2060 -0.6564
  842MOL0     H13603   5.315   7.590   1.417 -0.8139 -0.0456  0.8529
  842MOL0     H13604   5.498   7.596   1.277  1.4289  0.6929  0.5654
  842MOL0     H13605   5.708   7.578   1.156 -1.5879  0.7600  0.7418
  842MOL0     H13606   5.670   7.732   1.228 -0.7450 -0.1595  1.5472
  842MOL0     H13607   5.901   7.787   1.226 -0.5228  0.2920  0.3696
  842MOL0     H13608   5.868   7.723   1.063 -0.5979  0.9257  0.3906
  842MOL0     H13609   5.966   7.492   1.169  4.3899 -0.6120 -1.7473
  842MOL0     H13610   6.020   7.598   1.298  1.8535  1.3196 -0.1243
  842MOL0     H13611   6.073   7.634   0.997 -0.7606 -2.4042  0.3812
  842MOL0     H13612   6.168   7.714   1.130  1.1207  0.5047 -0.6511
  842MOL0     H13613   6.219   7.484   1.201 -0.6600  0.4046  0.5329
  842MOL0     H13614   6.160   7.421   1.052 -1.4760  0.1778  1.9731
  842MOL0     H13615   6.341   7.536   0.924  0.7261  1.5599 -0.1880
  842MOL0     H13616   6.376   7.647   1.050  1.1433 -1.1952  1.7146
  842MOL0     H13617   6.547   7.467   1.025  0.3982 -0.2057  1.3474
  842MOL0     H13618   6.419   7.353   1.077 -1.4427 -0.7214 -1.6134
  842MOL0     H13619   6.540   7.582   1.225  2.6327 -1.7590 -0.6096
  842MOL0     H13620   6.401   7.480   1.289 -1.0033  1.4177 -1.0431
  842MOL0     H13621   6.774   7.442   1.176 -3.2353 -0.0006 -4.0372
  842MOL0     H13622   6.908   7.159   1.115 -0.3703 -0.7002 -0.6700
  842MOL0     H13623   6.966   7.258   1.257  0.1815 -0.0274 -0.7972
  842MOL0     H13624   7.022   7.047   1.317  0.3654 -2.4642  2.0018
  842MOL0     H13625   6.872   7.087   1.406  0.9672  1.0126 -0.0265
  842MOL0     H13626   6.740   6.953   1.220  1.2930  1.2300 -0.4632
  842MOL0     H13627   6.844   6.869   1.334 -1.5297  0.0657 -0.3021
  842MOL0     H13628   6.952   6.929   1.061  3.9598 -2.6363 -1.2851
  842MOL0     H13629   6.875   6.775   1.094  3.8737 -1.7573 -2.2841
  842MOL0     H13630   7.237   6.864   1.357  1.2083  0.5447  0.4596
  842MOL0     H13631   7.457   6.928   1.287  2.3070  0.8916 -1.4624
  842MOL0     H13632   7.789   7.025   0.893  1.4297 -0.4804 -1.6762
  842MOL0     H13633   8.023   7.003   0.869 -3.0039  2.1865 -1.1521
  842MOL0     H13634   8.246   6.984   0.865 -2.7384 -1.8592  0.8680
  842MOL0     H13635   8.291   7.118   0.977  4.6291  0.0547 -1.9715
  842MOL0     H13636   8.487   7.027   0.926 -1.5797  0.8715 -0.4165
  842MOL0     H13637   8.435   6.955   1.090 -2.7257 -0.1219  0.3638
  842MOL0     H13638   8.370   6.744   0.935  0.8883 -0.3398  1.4526
  842MOL0     H13639   8.434   6.839   0.798  0.6670 -1.1670 -0.6562
  842MOL0     H13640   8.571   6.730   1.053  1.8179 -3.3437 -0.3587
  842MOL0     H13641   8.647   6.856   0.957 -2.7736  2.8684 -1.3106
  842MOL0     H13642   8.747   6.661   0.862 -0.3111 -2.4632 -2.9865
  842MOL0     H13643   8.630   6.714   0.750  1.7770  0.5547  0.4737
  842MOL0     H13644   8.592   6.506   0.958  0.5747 -0.2451 -0.7681
  842MOL0     H13645   8.462   6.540   0.839  0.6582 -1.0795 -3.8173
  842MOL0     H13646   8.684   6.358   0.826 -0.5780 -1.5311 -2.7688
  842MOL0     H13647   8.721   6.470   0.704 -0.3156  1.7364 -1.4552
  842MOL0     H13648   8.596   6.313   0.612 -0.6644 -1.3145  0.8476
  842MOL0     H13649   8.459   6.317   0.722 -1.2310  2.5800  2.7089
  842MOL0     H13650   8.066   6.943   1.286 -0.7482  2.4732  0.1676
  842MOL0     H13651   7.838   6.962   1.322  1.4505  0.4692  0.0776
  842MOL0     H13652   7.361   6.838   0.880  0.6601 -1.9023 -0.7265
  842MOL0     H13653   7.115   6.810   0.956 -0.1193  3.9586 -0.3019
  842MOL0     H13654   5.753   7.539   1.629 -1.1043  0.4655  1.7176
  842MOL0     H13655   5.550   7.495   1.754  2.3857  0.3182 -1.0921
  842MOL0     H13656   5.188   7.584   1.869  0.4456 -1.2402  2.2634
  842MOL0     H13657   5.042   7.563   2.057 -0.6975  1.0620 -0.1426
  842MOL0     H13658   4.740   7.227   2.082  0.0918  0.3384  0.0541
  842MOL0     H13659   4.660   7.358   1.985 -0.2348  2.3517  0.3670
  842MOL0     H13660   4.656   7.482   2.210  1.7108 -0.4191  2.6523
  842MOL0     H13661   4.674   7.325   2.293 -2.4301  0.2208  1.8434
  842MOL0     H13662   4.461   7.421   2.107 -1.7662 -2.6769 -2.5398
  842MOL0     H13663   4.448   7.381   2.279  4.0007  1.7898  1.5855
  842MOL0     H13664   4.495   7.136   2.228 -0.7919 -0.6188  0.3108
  842MOL0     H13665   4.342   7.199   2.161 -1.0053  1.7581  0.4434
  842MOL0     H13666   4.558   7.115   1.798 -1.3220 -0.2800 -0.2696
  842MOL0     H13667   4.834   7.255   1.841  1.3303  0.2299 -1.3383
  842MOL0     H13668   4.908   7.152   1.645  0.4563 -1.8617 -2.2582
  842MOL0     H13669   4.996   7.265   1.538 -1.1652 -0.8062 -1.1259
  842MOL0     H13670   5.080   7.153   1.636 -0.7497  0.4428 -0.2074
  843MOL0     O13671   2.276   3.403   4.248 -0.0842 -0.4860  0.0412
  843MOL0     C13672   2.225   3.420   4.134  0.1523  0.3295 -0.2957
  843MOL0     O13673   2.288   3.397   4.015 -0.4933  0.0757  1.2931
  843MOL0     C13674   2.411   3.340   4.033 -0.1911  0.6651 -0.4293
  843MOL0     C13675   2.532   3.412   4.003 -0.4938 -0.1610 -0.3646
  843MOL0     C13676   2.655   3.347   3.983  0.1049  0.0148  0.4323
  843MOL0     C13677   2.669   3.218   4.009 -0.3023  0.6828 -0.2524
  843MOL0     O13678   2.791   3.158   3.988  0.2965  0.3891  0.5709
  843MOL0     C13679   2.825   3.028   4.042 -0.1432  0.5559 -0.9106
  843MOL0     C13680   2.976   3.000   4.023  0.3111  0.2689  0.3611
  843MOL0     C13681   3.062   3.098   4.108  0.1456 -0.3212  0.2588
  843MOL0     C13682   3.051   3.084   4.266  0.1248  0.1263 -0.7876
  843MOL0     C13683   3.148   3.176   4.335 -0.1818 -0.0998  0.1678
  843MOL0     C13684   3.118   3.323   4.324  0.3937  0.5027  0.7093
  843MOL0     C13685   3.214   3.410   4.406  0.5489 -0.2712  0.4168
  843MOL0     C13686   3.189   3.551   4.381  0.0887 -0.0973  0.1593
  843MOL0     N13687   3.265   3.629   4.476  0.1310 -0.3052 -0.9701
  843MOL0     C13688   3.210   3.745   4.537 -0.2428 -0.3846  0.6170
  843MOL0     C13689   3.315   3.811   4.584  0.0708 -0.8964 -0.6671
  843MOL0     C13690   3.295   3.943   4.661 -0.1568 -0.5725  0.1590
  843MOL0     C13691   3.425   4.021   4.668 -0.0363  0.3199 -0.1348
  843MOL0     C13692   3.425   4.151   4.742  0.9387 -0.8342 -0.1027
  843MOL0     C13693   3.559   4.198   4.778  1.0474  0.1191  0.1648
  843MOL0     O13694   3.565   4.343   4.768  0.7174 -0.0817 -0.4705
  843MOL0     C13695   3.696   4.401   4.797  0.1940  0.1514  0.6993
  843MOL0     C13696   3.807   4.322   4.810  0.0972  0.3393 -0.7488
  843MOL0     C13697   3.931   4.372   4.865  0.6721  0.2682  1.0355
  843MOL0     C13698   3.948   4.511   4.884 -0.3262  0.6280 -0.1981
  843MOL0     C13699   4.084   4.566   4.921  0.0188 -0.6151  0.7253
  843MOL0     O13700   4.183   4.472   4.920 -0.0839 -0.1834 -0.3791
  843MOL0     C13701   4.312   4.484   4.942  0.1922  0.4135 -0.0435
  843MOL0     C13702   4.396   4.395   4.876  0.0661 -0.6931  0.8585
  843MOL0     C13703   4.534   4.402   4.911 -0.3795  0.3087 -0.4081
  843MOL0     C13704   4.585   4.503   5.007  0.3009  0.5589 -0.5632
  843MOL0     O13705   4.721   4.493   5.034  0.0036  0.2410  0.8130
  843MOL0     C13706   4.776   4.615   5.093  0.6758  0.7837  1.3326
  843MOL0     C13707   4.925   4.595   5.124 -0.6404  0.5990 -0.3005
  843MOL0     C13708   5.005   4.597   4.997  0.1745 -0.0288 -0.1451
  843MOL0     C13709   5.159   4.574   5.015  0.5782 -0.0318 -0.3031
  843MOL0     C13710   5.197   4.423   5.020  0.4700  0.0739 -0.5047
  843MOL0     C13711   5.344   4.401   5.051 -0.4814 -0.5119 -0.0089
  843MOL0     C13712   5.440   4.470   4.953  0.1971 -0.4728 -0.0057
  843MOL0     C13713   5.585   4.439   4.996  0.5599 -0.1161  0.6149
  843MOL0    Cl13714   5.706   4.502   4.877 -0.7298  0.1012 -0.2375
  843MOL0     C13715   4.493   4.585   5.071 -0.3788 -0.1088 -0.0263
  843MOL0     C13716   4.357   4.577   5.043  0.1027  0.9071 -0.6377
  843MOL0     O13717   4.104   4.687   4.946  0.0411 -0.0555 -0.1250
  843MOL0     C13718   3.836   4.594   4.849  0.1089  0.0084  0.1698
  843MOL0     C13719   3.720   4.540   4.815  0.3585  0.6565  0.7084
  843MOL0     N13720   3.424   3.726   4.578 -1.0008 -0.7157  0.2039
  843MOL0     N13721   3.393   3.619   4.512 -0.6413  0.3406 -0.4361
  843MOL0     C13722   2.560   3.145   4.042 -0.2823  0.8427  0.0228
  843MOL0     C13723   2.430   3.196   4.058 -0.5484  0.6873  0.1136
  843MOL0     C13724   2.082   3.456   4.131  0.3341 -0.5187 -0.3686
  843MOL0     C13725   2.033   3.512   4.013  0.1716 -0.9583  0.1773
  843MOL0     C13726   1.909   3.564   4.001  0.8060  0.2161 -0.5086
  843MOL0     C13727   1.822   3.576   4.109  0.2623 -0.9763 -0.5728
  843MOL0     O13728   1.702   3.638   4.088 -0.1453  0.4122  0.1119
  843MOL0     C13729   1.617   3.669   4.202 -0.8649 -0.3244 -0.0610
  843MOL0     C13730   1.533   3.548   4.262 -0.2668  0.0523 -0.5681
  843MOL0     C13731   1.452   3.484   4.152 -0.0105 -0.5227  0.8085
  843MOL0     C13732   1.358   3.584   4.074 -0.3366 -0.0303 -0.1798
  843MOL0     C13733   1.252   3.504   4.009  0.2172 -0.2855  0.6033
  843MOL0     C13734   1.168   3.433   3.966  0.2876 -0.2270  0.8300
  843MOL0     C13735   1.861   3.513   4.233 -0.1710  0.7301  0.3253
  843MOL0     C13736   1.986   3.451   4.242 -0.2279  0.9524  0.5127
  843MOL0     C13737   2.015   3.385   4.373 -0.5582  0.3159 -0.3195
  843MOL0     H13738   2.535   3.520   3.998  2.3095 -0.1727 -0.7451
  843MOL0     H13739   2.742   3.408   3.963 -2.2500  3.9088  0.9726
  843MOL0     H13740   2.792   3.015   4.146 -4.1320  0.3735 -2.0542
  843MOL0     H13741   2.769   2.946   3.995  3.2266 -2.2076 -0.5325
  843MOL0     H13742   2.988   3.018   3.916 -2.8380  0.4601 -0.0288
  843MOL0     H13743   3.008   2.899   4.052  1.4719  0.3469 -0.5348
  843MOL0     H13744   3.026   3.199   4.087  0.2596  0.1539  2.0997
  843MOL0     H13745   3.164   3.090   4.071  0.5925 -2.2123  1.7492
  843MOL0     H13746   2.950   3.104   4.304  1.4217  2.8581  1.6328
  843MOL0     H13747   3.072   2.981   4.294 -0.5780  0.3171  0.5484
  843MOL0     H13748   3.155   3.154   4.442  0.1120 -2.2524 -0.2394
  843MOL0     H13749   3.247   3.159   4.294  0.2953  0.8722  0.8863
  843MOL0     H13750   3.125   3.359   4.221 -3.0691 -1.7758 -0.4942
  843MOL0     H13751   3.011   3.340   4.337 -0.0450  3.8071 -4.3006
  843MOL0     H13752   3.312   3.372   4.374 -0.0168 -0.1874 -1.5579
  843MOL0     H13753   3.193   3.384   4.510  1.8589 -1.2235  0.4663
  843MOL0     H13754   3.218   3.576   4.279  0.6031 -0.6458  0.1655
  843MOL0     H13755   3.083   3.574   4.395  0.0505  0.8764 -1.4560
  843MOL0     H13756   3.109   3.783   4.544 -0.0660  0.2394 -0.1914
  843MOL0     H13757   3.209   3.993   4.617 -0.0807  0.3776  1.0401
  843MOL0     H13758   3.267   3.924   4.765  0.9088  0.4995  0.6671
  843MOL0     H13759   3.501   3.950   4.701  0.2239 -1.0012 -3.2839
  843MOL0     H13760   3.450   4.045   4.564  0.7543  3.1448  0.5993
  843MOL0     H13761   3.359   4.132   4.828  0.5896 -2.9665 -0.7868
  843MOL0     H13762   3.380   4.232   4.685  2.5717  0.1278 -0.0848
  843MOL0     H13763   3.624   4.160   4.699  1.0290 -1.9770  1.0791
  843MOL0     H13764   3.590   4.159   4.876  1.0702  0.6935  0.3873
  843MOL0     H13765   3.805   4.217   4.783 -1.6380  0.2090 -0.1883
  843MOL0     H13766   4.012   4.305   4.891  0.4068  0.2220  1.7661
  843MOL0     H13767   4.351   4.329   4.802  3.3047 -1.0879 -0.9056
  843MOL0     H13768   4.613   4.352   4.855 -1.7822  0.0402 -2.2794
  843MOL0     H13769   4.762   4.697   5.021  2.0310 -0.9582 -1.0522
  843MOL0     H13770   4.731   4.642   5.189 -0.7959  0.8916  0.6391
  843MOL0     H13771   4.958   4.680   5.184  1.5584  0.5076 -1.2789
  843MOL0     H13772   4.951   4.504   5.179 -2.7138 -0.6298 -1.2500
  843MOL0     H13773   4.956   4.543   4.915 -1.0038  0.6185  0.1107
  843MOL0     H13774   5.007   4.700   4.959 -0.6587  0.2439  0.5276
  843MOL0     H13775   5.191   4.624   5.106 -2.0338 -1.1269  1.3237
  843MOL0     H13776   5.212   4.626   4.935 -1.0330  2.2074 -0.0034
  843MOL0     H13777   5.182   4.376   4.922  1.4937  1.0099 -1.1288
  843MOL0     H13778   5.130   4.368   5.087 -1.2477 -0.7651 -2.7590
  843MOL0     H13779   5.362   4.444   5.149  3.1440  1.2121 -1.2589
  843MOL0     H13780   5.360   4.293   5.055  0.2047 -0.4564 -0.8400
  843MOL0     H13781   5.419   4.577   4.955 -4.7039 -1.2269 -0.5969
  843MOL0     H13782   5.429   4.441   4.848 -2.1285 -0.6941  0.2561
  843MOL0     H13783   5.616   4.471   5.096  0.7398 -1.6217  1.0701
  843MOL0     H13784   5.597   4.330   5.001 -1.1417 -0.2819  2.0406
  843MOL0     H13785   4.530   4.655   5.146 -0.6053 -1.7272  1.6942
  843MOL0     H13786   4.289   4.621   5.116  1.1637  0.3302  0.7477
  843MOL0     H13787   3.848   4.701   4.858  0.6519 -0.0860  0.6437
  843MOL0     H13788   3.633   4.601   4.795  1.7080  2.1552 -0.9326
  843MOL0     H13789   2.574   3.038   4.048 -1.5547  0.5139 -2.1722
  843MOL0     H13790   2.347   3.127   4.072  1.0712 -1.3649  0.1283
  843MOL0     H13791   2.094   3.521   3.924  0.8244  0.5320  0.7472
  843MOL0     H13792   1.873   3.617   3.914  3.6861  3.2016 -0.0631
  843MOL0     H13793   1.555   3.757   4.181  0.1092  0.0160 -1.7161
  843MOL0     H13794   1.674   3.696   4.292 -1.7697 -1.1291  0.7719
  843MOL0     H13795   1.484   3.571   4.357  1.0404 -0.5839  0.2940
  843MOL0     H13796   1.598   3.466   4.293 -1.8340 -0.9714  0.1392
  843MOL0     H13797   1.388   3.409   4.199 -1.0012  1.6107  3.1239
  843MOL0     H13798   1.525   3.440   4.084  0.1898  0.5716  0.2943
  843MOL0     H13799   1.320   3.656   4.147 -0.2811  1.3681 -1.4874
  843MOL0     H13800   1.417   3.636   3.998  0.9728 -2.3994 -0.8899
  843MOL0     H13801   1.092   3.371   3.923 -0.2733  1.0264 -0.0496
  843MOL0     H13802   1.796   3.497   4.318  0.7889 -0.7598  0.8140
  843MOL0     H13803   1.932   3.396   4.443  0.9603  1.3410  1.4068
  843MOL0     H13804   2.028   3.278   4.353  0.0285  0.2452  0.4082
  843MOL0     H13805   2.107   3.406   4.427 -0.4248 -4.0410  1.5888
  844MOL0     O13806  10.409   1.735   5.730 -0.5235 -0.1516 -0.2270
  844MOL0     C13807  10.370   1.848   5.740 -0.7776 -0.7037 -0.4279
  844MOL0     O13808  10.448   1.955   5.782  0.1015  0.1474  0.5259
  844MOL0     C13809  10.581   1.955   5.789 -0.2076  0.2555  0.0937
  844MOL0     C13810  10.658   1.891   5.693  0.0266 -0.0639  0.4421
  844MOL0     C13811  10.794   1.876   5.726 -0.8292 -0.0069 -0.0208
  844MOL0     C13812  10.855   1.926   5.846  0.3699 -0.8918 -0.0141
  844MOL0     O13813  10.990   1.923   5.856  0.0376 -0.3694 -0.7100
  844MOL0     C13814  11.040   1.935   5.989 -0.9529 -0.3996 -0.8062
  844MOL0     C13815  11.169   1.856   5.992 -0.0589 -0.8140 -0.5264
  844MOL0     C13816  11.291   1.939   5.957  0.8564 -0.1419 -0.5071
  844MOL0     C13817  11.424   1.861   5.981  0.1406  0.1076 -0.2440
  844MOL0     C13818  11.549   1.938   5.934  0.0757  1.1607  0.7523
  844MOL0     C13819  11.685   1.891   6.006  0.6762  0.0676 -0.7696
  844MOL0     C13820  11.726   1.746   5.980 -0.0144  0.0969  0.1273
  844MOL0     C13821  11.858   1.719   6.063  0.5378  0.4217 -0.6270
  844MOL0     N13822  11.972   1.773   5.988 -0.1743 -0.2188  0.3242
  844MOL0     C13823  12.006   1.758   5.857  0.1364 -0.8100  0.3817
  844MOL0     C13824  12.115   1.837   5.839 -0.6886 -0.8146  0.1541
  844MOL0     C13825  12.159   1.867   5.703 -0.2577  1.0827  0.2730
  844MOL0     C13826  12.307   1.918   5.691  0.5855 -0.1075  0.2167
  844MOL0     C13827  12.403   1.800   5.714 -0.0519  0.6143  0.0656
  844MOL0     C13828  12.549   1.836   5.690  0.6835 -0.2527 -0.6348
  844MOL0     O13829  12.558   1.881   5.553 -0.3298  0.1033  0.9615
  844MOL0     C13830  12.672   1.921   5.493 -0.2439  0.1817 -0.7146
  844MOL0     C13831  12.657   1.981   5.367 -0.9047 -0.3402  0.0737
  844MOL0     C13832  12.769   2.033   5.302 -0.2888  0.3887  0.5213
  844MOL0     C13833  12.903   2.020   5.355 -0.3264  0.1351  0.9184
  844MOL0     C13834  13.027   2.062   5.283  0.5196  0.2347  0.3871
  844MOL0     O13835  13.016   2.082   5.148 -0.5449 -0.6991 -0.0217
  844MOL0     C13836  13.121   2.141   5.073  0.4731 -0.2239  0.4111
  844MOL0     C13837  13.066   2.217   4.966 -0.7783 -0.2688  0.9249
  844MOL0     C13838  13.151   2.293   4.880  0.3530 -0.2103 -0.4158
  844MOL0     C13839  13.291   2.284   4.886 -0.2325  0.4943  0.1543
  844MOL0     O13840  13.375   2.362   4.807  0.6875 -0.2312  0.0714
  844MOL0     C13841  13.311   2.430   4.692 -0.5669 -0.2262 -0.0951
  844MOL0     C13842  13.420   2.468   4.605  0.0769  0.5209  0.3267
  844MOL0     C13843  13.487   2.605   4.646  0.8118  0.5127  0.0356
  844MOL0     C13844  13.570   2.679   4.540 -0.2383 -0.0073  0.6301
  844MOL0     C13845  13.620   2.815   4.584 -0.5596 -0.3887 -0.3509
  844MOL0     C13846  13.691   2.896   4.471  0.2215  0.6078 -0.1618
  844MOL0     C13847  13.765   3.017   4.525  0.2654  1.0696 -1.1822
  844MOL0     C13848  13.797   3.123   4.418  0.1338 -0.2718 -0.0720
  844MOL0    Cl13849  13.908   3.249   4.467  0.0916 -0.8019  0.0061
  844MOL0     C13850  13.335   2.207   4.998 -0.0475 -0.1770 -0.7713
  844MOL0     C13851  13.254   2.132   5.086  0.5564 -0.4494 -0.4501
  844MOL0     O13852  13.115   2.100   5.354 -1.0544 -0.0591  0.6351
  844MOL0     C13853  12.917   1.957   5.481  0.4200 -0.3762 -0.2168
  844MOL0     C13854  12.806   1.910   5.551 -0.2860  0.2021 -0.7654
  844MOL0     N13855  12.151   1.886   5.963  0.4232 -0.2318 -0.6134
  844MOL0     N13856  12.072   1.837   6.050 -0.0413 -0.1579 -0.5761
  844MOL0     C13857  10.769   1.998   5.941 -0.6981 -0.4833  0.0359
  844MOL0     C13858  10.636   2.006   5.911  0.8849  1.1093 -0.0278
  844MOL0     C13859  10.222   1.887   5.729 -0.3130  0.7787 -0.1082
  844MOL0     C13860  10.190   2.021   5.693 -0.4347 -0.7283  1.3991
  844MOL0     C13861  10.054   2.058   5.691 -0.1791  0.2126 -0.4732
  844MOL0     C13862   9.953   1.975   5.724  0.0235 -0.1540  1.0677
  844MOL0     O13863   9.820   2.007   5.716  0.1188  0.1402  0.5565
  844MOL0     C13864   9.785   2.134   5.653  0.1174  0.1647  0.5562
  844MOL0     C13865   9.623   2.143   5.634 -0.4621  0.0205 -0.4407
  844MOL0     C13866   9.590   2.045   5.522 -0.6314 -0.4733 -0.7891
  844MOL0     C13867   9.446   2.037   5.499  0.0744  0.6052 -0.0006
  844MOL0     C13868   9.421   1.920   5.412  0.2545 -0.0339  0.3112
  844MOL0     C13869   9.401   1.821   5.353  0.5663  0.6143 -0.4177
  844MOL0     C13870   9.985   1.842   5.756  0.0504  0.3222 -0.1031
  844MOL0     C13871  10.116   1.801   5.762 -0.4398 -0.4530  0.3759
  844MOL0     C13872  10.145   1.652   5.778 -0.7241 -0.7542 -0.7724
  844MOL0     H13873  10.628   1.851   5.597  0.3885  0.7239  0.0007
  844MOL0     H13874  10.853   1.825   5.651  0.1257  0.5542  0.3204
  844MOL0     H13875  11.065   2.040   6.011  0.7249 -0.4017 -2.3637
  844MOL0     H13876  10.968   1.899   6.062  0.5567  0.3263  1.1483
  844MOL0     H13877  11.159   1.768   5.929 -4.4848 -0.8020 -0.1688
  844MOL0     H13878  11.189   1.834   6.097 -0.9806 -0.8879 -0.3524
  844MOL0     H13879  11.291   2.032   6.014  0.7043 -2.5443  3.8709
  844MOL0     H13880  11.283   1.968   5.852 -0.4352  0.1983 -0.3352
  844MOL0     H13881  11.434   1.843   6.088 -0.0131 -1.8072 -0.5311
  844MOL0     H13882  11.428   1.766   5.928  4.4285  1.2794 -2.5223
  844MOL0     H13883  11.565   1.921   5.827  0.3475  1.0166  0.8146
  844MOL0     H13884  11.520   2.043   5.930 -0.5626  1.0239 -3.5161
  844MOL0     H13885  11.767   1.955   5.972 -0.0523 -0.8505 -4.8382
  844MOL0     H13886  11.675   1.916   6.112 -0.1349  3.9469 -1.6307
  844MOL0     H13887  11.757   1.728   5.876  2.1331  1.3706  0.4707
  844MOL0     H13888  11.642   1.683   6.008  0.0226 -1.1654 -2.3247
  844MOL0     H13889  11.845   1.772   6.158 -2.7364 -0.0309 -0.7335
  844MOL0     H13890  11.869   1.611   6.078 -0.8293  0.0477 -2.0831
  844MOL0     H13891  11.965   1.695   5.779 -1.8565 -1.0035  1.5172
  844MOL0     H13892  12.133   1.775   5.650 -0.7675  1.3320  0.0811
  844MOL0     H13893  12.095   1.948   5.665 -0.7786  0.1660 -0.8768
  844MOL0     H13894  12.322   1.962   5.592 -0.9071  1.1754  0.5377
  844MOL0     H13895  12.328   2.004   5.755 -0.4144 -0.3420  0.8650
  844MOL0     H13896  12.374   1.720   5.646  4.7684 -0.4833 -1.0572
  844MOL0     H13897  12.393   1.760   5.815  2.8453  0.1817  0.2477
  844MOL0     H13898  12.622   1.755   5.698  1.4892  0.2585 -2.3111
  844MOL0     H13899  12.575   1.909   5.766  1.5389 -0.2193 -0.9480
  844MOL0     H13900  12.556   1.995   5.329 -1.4615 -1.2519  1.1476
  844MOL0     H13901  12.768   2.074   5.201  2.8175  2.1197  1.0704
  844MOL0     H13902  12.960   2.222   4.944 -0.1393  0.1781 -2.6543
  844MOL0     H13903  13.097   2.357   4.811 -0.4636 -2.5068 -2.0417
  844MOL0     H13904  13.243   2.362   4.640  1.6518 -0.4455 -2.9683
  844MOL0     H13905  13.265   2.524   4.726 -2.5577 -0.2483 -2.4733
  844MOL0     H13906  13.496   2.390   4.594 -0.5751 -0.0403 -0.3183
  844MOL0     H13907  13.378   2.502   4.510  0.1061  0.9938  0.4771
  844MOL0     H13908  13.412   2.679   4.677 -0.8038 -0.6379 -0.9899
  844MOL0     H13909  13.553   2.593   4.732 -0.0442 -0.8838  0.5135
  844MOL0     H13910  13.518   2.707   4.448 -0.3132  1.4868  1.1010
  844MOL0     H13911  13.652   2.614   4.508  1.2162  0.8012  2.5261
  844MOL0     H13912  13.689   2.797   4.667  0.2537 -0.3090 -0.9985
  844MOL0     H13913  13.537   2.879   4.617 -0.1187  0.2926 -0.5286
  844MOL0     H13914  13.755   2.826   4.415  0.5146 -0.3953  1.3739
  844MOL0     H13915  13.610   2.932   4.407 -1.9926  0.6060  2.4504
  844MOL0     H13916  13.853   2.987   4.582 -0.8936  1.7017  1.0545
  844MOL0     H13917  13.701   3.070   4.596  0.3486  1.1050 -1.1336
  844MOL0     H13918  13.840   3.064   4.337 -1.3935 -0.3315 -0.8637
  844MOL0     H13919  13.702   3.168   4.390  0.6199  1.5156  0.9867
  844MOL0     H13920  13.441   2.183   4.994 -0.1169 -0.8663  0.9220
  844MOL0     H13921  13.296   2.058   5.153 -1.5933 -2.2110 -0.9378
  844MOL0     H13922  13.012   1.947   5.533 -0.8528 -1.0536  2.1151
  844MOL0     H13923  12.812   1.852   5.642 -0.9572  0.8557 -0.2879
  844MOL0     H13924  10.823   2.027   6.031  2.0421 -2.0700 -0.9492
  844MOL0     H13925  10.562   2.060   5.970 -1.2209 -0.7680 -0.8132
  844MOL0     H13926  10.269   2.093   5.675 -0.5339 -0.1947  2.9272
  844MOL0     H13927  10.027   2.159   5.663  0.0865  0.8325  1.3450
  844MOL0     H13928   9.834   2.136   5.555  0.4711 -2.0110  0.6209
  844MOL0     H13929   9.812   2.213   5.723  0.4386  1.3556 -0.8546
  844MOL0     H13930   9.607   2.238   5.582  1.0206  0.0007 -0.9743
  844MOL0     H13931   9.565   2.127   5.726  0.1704 -1.5431 -0.2874
  844MOL0     H13932   9.629   1.946   5.546  0.3447 -0.3594 -1.8057
  844MOL0     H13933   9.635   2.079   5.428 -1.1387  0.5028 -0.6923
  844MOL0     H13934   9.395   2.030   5.595  0.0257  1.1381  0.0107
  844MOL0     H13935   9.415   2.124   5.441  0.5216  0.5414 -0.3476
  844MOL0     H13936   9.374   1.730   5.302 -2.2110  2.4191 -2.4467
  844MOL0     H13937   9.903   1.775   5.778 -0.6156  0.4803 -1.9260
  844MOL0     H13938  10.177   1.604   5.685 -1.2279 -0.6395 -1.0092
  844MOL0     H13939  10.216   1.639   5.860 -0.5422 -0.5791 -0.9022
  844MOL0     H13940  10.053   1.610   5.820 -1.7813  2.0066 -0.0895
  845MOL0     O13941   4.206   4.434   2.081 -0.3325 -0.0303 -0.3245
  845MOL0     C13942   4.204   4.419   1.958 -0.0001  0.7629  0.2323
  845MOL0     O13943   4.304   4.481   1.877  0.1955 -0.2839  0.8768
  845MOL0     C13944   4.396   4.566   1.947 -0.1619  0.0971  1.0451
  845MOL0     C13945   4.367   4.688   2.006  0.0134  0.8304 -0.7186
  845MOL0     C13946   4.465   4.772   2.065 -0.2098  0.0508 -0.4822
  845MOL0     C13947   4.601   4.741   2.069 -0.4283  0.1739  0.1972
  845MOL0     O13948   4.715   4.806   2.116 -0.0802  0.4978 -0.1414
  845MOL0     C13949   4.705   4.939   2.158 -0.0614 -0.5755  0.6663
  845MOL0     C13950   4.677   5.039   2.050  0.6328 -0.0340 -0.8277
  845MOL0     C13951   4.802   5.059   1.972  0.5473 -0.1848  0.0789
  845MOL0     C13952   4.770   5.134   1.843 -0.5122  0.0174  0.0001
  845MOL0     C13953   4.902   5.154   1.762 -0.5559  0.9589 -0.2830
  845MOL0     C13954   5.013   5.224   1.840  0.4497  0.5485  0.6380
  845MOL0     C13955   5.145   5.238   1.761  0.3953 -0.2357  0.1906
  845MOL0     C13956   5.172   5.120   1.679 -0.6454  0.5317  0.0574
  845MOL0     N13957   5.308   5.118   1.619  0.0562 -0.3621 -0.3114
  845MOL0     C13958   5.359   5.211   1.533  0.3887 -0.9193  0.3155
  845MOL0     C13959   5.479   5.163   1.493 -0.3303  0.5276  0.2141
  845MOL0     C13960   5.558   5.230   1.385  0.5015  0.4335  0.2174
  845MOL0     C13961   5.711   5.221   1.399  0.3551 -0.6424  0.8963
  845MOL0     C13962   5.762   5.085   1.355  0.2746 -0.3990  0.0881
  845MOL0     C13963   5.918   5.079   1.379 -0.1324 -0.1108  0.3590
  845MOL0     O13964   5.985   5.151   1.279 -0.3122 -0.4582 -0.2230
  845MOL0     C13965   6.105   5.099   1.233  0.8545 -0.0648 -0.1255
  845MOL0     C13966   6.116   5.034   1.116  0.2887 -0.0925 -0.4827
  845MOL0     C13967   6.238   5.000   1.066  0.4672  0.3938 -0.1008
  845MOL0     C13968   6.356   5.021   1.140 -0.2118  0.5665  0.2402
  845MOL0     C13969   6.484   4.980   1.076 -1.0750  0.4789  0.0868
  845MOL0     O13970   6.605   5.007   1.136 -0.1124 -0.0573 -0.3673
  845MOL0     C13971   6.719   4.958   1.076 -0.1581 -0.1308 -0.8429
  845MOL0     C13972   6.789   4.863   1.144 -0.5738  0.3636 -0.0880
  845MOL0     C13973   6.913   4.822   1.097 -0.7447  1.1245 -0.4512
  845MOL0     C13974   6.978   4.871   0.982  0.9887 -1.3249 -0.6225
  845MOL0     O13975   7.099   4.835   0.938 -0.1291 -0.5337 -0.4615
  845MOL0     C13976   7.190   4.747   1.008  0.1090 -0.1630  0.3599
  845MOL0     C13977   7.306   4.714   0.923 -0.3580 -0.0431 -0.0172
  845MOL0     C13978   7.399   4.831   0.886 -0.1863 -0.1007 -0.2030
  845MOL0     C13979   7.543   4.794   0.848 -0.5107 -0.2457 -0.0608
  845MOL0     C13980   7.625   4.917   0.820 -0.0685 -0.0060  0.0434
  845MOL0     C13981   7.719   4.901   0.704 -1.3677  0.0398  0.2208
  845MOL0     C13982   7.816   5.015   0.686 -0.0728 -0.1005 -0.0701
  845MOL0     C13983   7.849   5.037   0.542 -0.6829 -0.4291 -0.0343
  845MOL0    Cl13984   7.971   5.174   0.526  0.2291  0.2760 -0.0035
  845MOL0     C13985   6.899   4.961   0.907  0.1033 -0.8798  0.3710
  845MOL0     C13986   6.760   4.999   0.952 -0.8528 -0.3714  0.4283
  845MOL0     O13987   6.478   4.913   0.969  0.4358  0.5964  0.3001
  845MOL0     C13988   6.341   5.085   1.259 -0.1485 -0.1400 -0.1153
  845MOL0     C13989   6.218   5.121   1.307 -0.6902 -0.4186  0.1940
  845MOL0     N13990   5.504   5.051   1.566  0.3085 -0.4708 -0.2046
  845MOL0     N13991   5.406   5.025   1.647 -0.8127 -0.0064 -0.5543
  845MOL0     C13992   4.627   4.611   2.016  0.1529 -0.1657 -0.5088
  845MOL0     C13993   4.530   4.520   1.967 -0.4316 -0.3299 -0.4242
  845MOL0     C13994   4.101   4.331   1.887 -0.5361  0.0433  0.5475
  845MOL0     C13995   4.128   4.310   1.744 -0.0270  0.4942 -0.2960
  845MOL0     C13996   4.045   4.232   1.670 -0.2390 -0.2314 -0.4355
  845MOL0     C13997   3.923   4.189   1.720 -0.5963  0.3113 -0.7961
  845MOL0     O13998   3.808   4.148   1.655 -0.5157 -0.2826 -0.5245
  845MOL0     C13999   3.823   4.075   1.535  0.5055 -0.5989 -1.1913
  845MOL0     C14000   3.724   3.963   1.513  1.0336  0.0550 -0.1422
  845MOL0     C14001   3.590   4.020   1.462  0.7069  0.6876 -0.1228
  845MOL0     C14002   3.515   4.102   1.573  0.1968 -1.0174 -0.3063
  845MOL0     C14003   3.371   4.105   1.546  0.8428 -0.2974 -0.2916
  845MOL0     C14004   3.257   4.127   1.527  0.4235  0.2973  0.0563
  845MOL0     C14005   3.905   4.192   1.866 -0.2845 -0.3551 -0.0066
  845MOL0     C14006   3.996   4.259   1.950 -0.9172  0.8074 -0.1149
  845MOL0     C14007   3.974   4.259   2.096  0.8235 -0.1660 -0.3196
  845MOL0     H14008   4.263   4.718   2.001 -0.6436 -1.0857  0.6272
  845MOL0     H14009   4.424   4.868   2.096 -0.2207 -0.3561  0.8027
  845MOL0     H14010   4.620   4.951   2.225  0.2374 -0.6948  1.0727
  845MOL0     H14011   4.794   4.956   2.219  1.7205 -2.3280 -1.2939
  845MOL0     H14012   4.637   5.134   2.088  2.7077  1.0257 -1.1819
  845MOL0     H14013   4.603   5.000   1.979 -0.5592  1.5448 -0.5212
  845MOL0     H14014   4.856   4.966   1.947 -0.9414 -0.9031 -0.5859
  845MOL0     H14015   4.866   5.116   2.040 -2.2089 -1.3321  3.9143
  845MOL0     H14016   4.702   5.067   1.790 -0.9225  1.9521 -2.0591
  845MOL0     H14017   4.718   5.228   1.858  0.2667  0.6550 -1.1255
  845MOL0     H14018   4.932   5.051   1.740  1.5676  1.3573  0.5339
  845MOL0     H14019   4.871   5.196   1.665 -0.3268 -2.4604 -2.0093
  845MOL0     H14020   4.973   5.314   1.888 -3.0533 -0.4530 -0.1810
  845MOL0     H14021   5.037   5.152   1.919 -1.4976 -0.1442  0.6317
  845MOL0     H14022   5.229   5.240   1.831  1.7700 -1.0796 -1.3755
  845MOL0     H14023   5.162   5.334   1.710  0.6669 -0.1905  0.3640
  845MOL0     H14024   5.152   5.030   1.738  1.1919 -1.9613 -2.8533
  845MOL0     H14025   5.097   5.127   1.599  0.7149 -0.8685 -1.4082
  845MOL0     H14026   5.295   5.288   1.490  3.1166 -0.0133 -2.4177
  845MOL0     H14027   5.531   5.183   1.290 -0.8182 -0.2960  0.9265
  845MOL0     H14028   5.531   5.336   1.385  1.1400  0.6166 -1.2015
  845MOL0     H14029   5.757   5.297   1.336 -1.3180 -1.6097 -1.6206
  845MOL0     H14030   5.737   5.241   1.504  1.9316  2.6256  0.0186
  845MOL0     H14031   5.760   5.080   1.246  0.9457  2.0464 -0.1041
  845MOL0     H14032   5.697   5.009   1.398 -2.8392  2.0011 -0.0144
  845MOL0     H14033   5.947   4.974   1.384 -1.5931 -0.5443  0.3942
  845MOL0     H14034   5.950   5.124   1.473  2.3940  2.6985 -1.6413
  845MOL0     H14035   6.033   4.993   1.058  0.8777 -0.2799 -1.2069
  845MOL0     H14036   6.235   4.948   0.971  1.8223 -1.5917  0.8888
  845MOL0     H14037   6.757   4.827   1.241  1.1212 -1.4748 -0.1323
  845MOL0     H14038   6.961   4.744   1.155 -0.1441  0.9091 -1.2274
  845MOL0     H14039   7.225   4.796   1.099 -0.8825 -1.1702  1.3080
  845MOL0     H14040   7.137   4.656   1.037  1.4051 -0.5297  1.6581
  845MOL0     H14041   7.361   4.635   0.975 -1.4866  0.4207  1.9880
  845MOL0     H14042   7.273   4.675   0.826  0.4190 -0.3095 -0.1811
  845MOL0     H14043   7.352   4.878   0.799 -0.6638  0.0566  0.1352
  845MOL0     H14044   7.400   4.905   0.966 -0.5822  1.3867 -1.5293
  845MOL0     H14045   7.554   4.719   0.769 -2.4871  0.0921 -0.7072
  845MOL0     H14046   7.595   4.762   0.939 -0.7046  0.7192  0.3959
  845MOL0     H14047   7.677   4.955   0.908  0.3533  0.3884 -0.3661
  845MOL0     H14048   7.561   5.000   0.789 -2.0814 -2.1154 -1.8374
  845MOL0     H14049   7.775   4.809   0.720  0.7310  1.1109 -0.6356
  845MOL0     H14050   7.664   4.891   0.609  0.6600 -0.6293 -0.9394
  845MOL0     H14051   7.906   4.997   0.747  0.5458  0.6053 -0.7613
  845MOL0     H14052   7.773   5.110   0.718 -0.7139 -1.1441  2.4693
  845MOL0     H14053   7.884   4.947   0.490 -0.4291 -0.2666 -0.1472
  845MOL0     H14054   7.764   5.075   0.485 -0.6537 -1.0424 -0.5016
  845MOL0     H14055   6.935   4.996   0.811  1.3675 -2.2484  0.3234
  845MOL0     H14056   6.699   5.073   0.901  0.1063 -0.5351 -1.0088
  845MOL0     H14057   6.423   5.115   1.323 -0.3303  0.6722 -0.2523
  845MOL0     H14058   6.208   5.171   1.403 -0.6704  3.0755 -1.4735
  845MOL0     H14059   4.733   4.590   2.000  1.3350  4.3121 -0.0285
  845MOL0     H14060   4.561   4.423   1.930 -0.8426 -0.8818  0.6239
  845MOL0     H14061   4.219   4.349   1.699 -0.6859  4.0356  1.1141
  845MOL0     H14062   4.057   4.228   1.562 -1.0399 -3.9979 -0.4913
  845MOL0     H14063   3.922   4.029   1.541  1.5570  1.3125 -2.6323
  845MOL0     H14064   3.816   4.145   1.451 -0.2803 -0.9224 -1.4019
  845MOL0     H14065   3.700   3.906   1.604 -0.7570  0.1357 -0.5314
  845MOL0     H14066   3.762   3.908   1.427 -1.2890  0.2958 -1.3907
  845MOL0     H14067   3.527   3.933   1.442  1.6584  0.0489 -0.4038
  845MOL0     H14068   3.597   4.080   1.371 -2.9629  0.0221 -1.0260
  845MOL0     H14069   3.534   4.072   1.677  3.4188  0.0366 -0.4855
  845MOL0     H14070   3.553   4.203   1.558 -1.7990 -0.0788  0.4727
  845MOL0     H14071   3.159   4.164   1.507  1.3672  1.8508 -2.2845
  845MOL0     H14072   3.817   4.153   1.916  0.7896 -0.5208  1.8516
  845MOL0     H14073   3.948   4.361   2.127 -1.3617 -0.6455 -0.4878
  845MOL0     H14074   3.886   4.207   2.134  2.2689 -2.3878  0.1850
  845MOL0     H14075   4.063   4.223   2.149  1.2253 -0.9801 -1.5133
  846MOL0     O14076   9.296   6.750   6.927  0.1028  0.2307 -0.4580
  846MOL0     C14077   9.365   6.711   7.023  0.2158  0.9181 -0.3724
  846MOL0     O14078   9.352   6.749   7.155 -0.4629  0.0160 -0.7166
  846MOL0     C14079   9.263   6.851   7.189  0.3108  0.6892  0.0212
  846MOL0     C14080   9.129   6.835   7.194  0.6857  0.3633 -0.5732
  846MOL0     C14081   9.044   6.940   7.246  0.5213  0.3090 -0.0676
  846MOL0     C14082   9.098   7.049   7.306  0.0915 -0.6009 -0.6476
  846MOL0     O14083   9.037   7.152   7.372 -0.1529  0.7835 -0.4947
  846MOL0     C14084   8.923   7.196   7.306  0.2848 -0.5862 -0.2325
  846MOL0     C14085   8.834   7.278   7.397 -0.2510  0.9569  0.0505
  846MOL0     C14086   8.714   7.317   7.316  0.1911  0.5389  0.1160
  846MOL0     C14087   8.602   7.209   7.288 -0.4869 -0.4885 -0.7654
  846MOL0     C14088   8.489   7.286   7.205  0.4200  0.3230  0.3377
  846MOL0     C14089   8.368   7.194   7.167 -0.4956  0.0592  0.5278
  846MOL0     C14090   8.250   7.257   7.116  0.9183  0.0120  0.0378
  846MOL0     C14091   8.204   7.359   7.211  0.1929 -0.1844 -0.1898
  846MOL0     N14092   8.073   7.415   7.188  1.1042  0.2295 -0.4376
  846MOL0     C14093   8.019   7.527   7.248  0.2576  0.7120 -0.9577
  846MOL0     C14094   7.903   7.556   7.188 -0.4401 -0.6653  0.0807
  846MOL0     C14095   7.809   7.669   7.224  0.4172 -0.3529  0.1680
  846MOL0     C14096   7.853   7.793   7.305  0.4051 -0.2274  0.1475
  846MOL0     C14097   7.954   7.881   7.234  0.5853 -0.8029 -0.2060
  846MOL0     C14098   8.010   7.996   7.324 -0.6916 -0.2409 -0.0236
  846MOL0     O14099   8.074   7.952   7.446  0.4777 -0.5570  0.4666
  846MOL0     C14100   8.205   7.908   7.445  0.1484 -0.2595  0.1234
  846MOL0     C14101   8.253   7.869   7.571  0.0913 -0.1245  0.3509
  846MOL0     C14102   8.379   7.819   7.585 -0.4164 -0.1048 -0.4115
  846MOL0     C14103   8.469   7.801   7.476 -0.3963 -0.6328 -0.6496
  846MOL0     C14104   8.596   7.730   7.495  0.4504 -0.4004  0.0129
  846MOL0     O14105   8.674   7.725   7.381  0.5113 -0.0217 -0.0376
  846MOL0     C14106   8.797   7.672   7.380 -0.4430 -0.5361  0.0245
  846MOL0     C14107   8.829   7.611   7.263 -0.4193 -0.9549  0.0524
  846MOL0     C14108   8.958   7.571   7.237  0.1298  0.1366  0.0168
  846MOL0     C14109   9.058   7.605   7.324 -0.6691 -0.4694 -0.0162
  846MOL0     O14110   9.178   7.589   7.262  0.1707  0.9779  0.2848
  846MOL0     C14111   9.270   7.550   7.364 -0.0471  0.3594  0.2009
  846MOL0     C14112   9.370   7.461   7.291  0.1943  0.7125  0.2331
  846MOL0     C14113   9.487   7.432   7.387  0.5837  0.5357 -0.0536
  846MOL0     C14114   9.594   7.352   7.314 -0.7317 -0.2932 -0.4135
  846MOL0     C14115   9.727   7.331   7.394 -0.0620 -0.0629 -0.8096
  846MOL0     C14116   9.862   7.311   7.323 -0.2450  0.2973 -0.2144
  846MOL0     C14117   9.895   7.416   7.217 -0.3484 -1.0713  1.4870
  846MOL0     C14118  10.035   7.398   7.151  0.4605  0.4611  0.7756
  846MOL0    Cl14119  10.162   7.436   7.271 -0.0649  0.1942  0.3266
  846MOL0     C14120   9.027   7.668   7.450 -0.0049 -0.6232  0.1376
  846MOL0     C14121   8.894   7.695   7.477  0.5698  0.3399 -0.5528
  846MOL0     O14122   8.635   7.714   7.609  0.3146  0.2618  0.2693
  846MOL0     C14123   8.415   7.843   7.353 -0.1268 -0.7255 -0.3755
  846MOL0     C14124   8.284   7.890   7.336 -0.7344 -0.0324  0.4322
  846MOL0     N14125   7.878   7.460   7.090 -0.4699 -0.1712  0.2963
  846MOL0     N14126   7.970   7.369   7.098 -0.2162  0.0597 -0.4483
  846MOL0     C14127   9.229   7.066   7.299  0.1857 -0.2998  0.3451
  846MOL0     C14128   9.315   6.973   7.239  0.3277  0.1285 -0.1557
  846MOL0     C14129   9.463   6.598   7.001 -0.2743 -0.2079 -0.5087
  846MOL0     C14130   9.575   6.592   7.089  0.5939  1.0227  0.6616
  846MOL0     C14131   9.675   6.501   7.071 -0.6992  0.3441  0.5384
  846MOL0     C14132   9.662   6.400   6.972 -0.5783 -0.5917 -0.8163
  846MOL0     O14133   9.766   6.311   6.948  0.1500  0.1802  0.0074
  846MOL0     C14134   9.776   6.266   6.812  0.2837  0.1744  0.1187
  846MOL0     C14135   9.918   6.216   6.785 -0.7530  0.3476 -0.3481
  846MOL0     C14136   9.937   6.075   6.838  0.7806 -1.5677 -0.6343
  846MOL0     C14137  10.081   6.029   6.839  0.3490 -0.1286  0.6741
  846MOL0     C14138  10.091   5.914   6.926 -0.2139  0.6609 -0.4551
  846MOL0     C14139  10.096   5.817   7.007  0.4187 -0.6399  0.4251
  846MOL0     C14140   9.543   6.395   6.897 -0.7367 -0.1868 -0.0501
  846MOL0     C14141   9.452   6.500   6.899  0.4009  0.6943  0.6832
  846MOL0     C14142   9.349   6.486   6.795 -0.3259  0.2303 -0.3775
  846MOL0     H14143   9.071   6.749   7.160  0.6295 -0.1796  0.8119
  846MOL0     H14144   8.936   6.929   7.250  0.0148  3.3844 -2.1627
  846MOL0     H14145   8.964   7.251   7.221  3.8262 -1.9522  0.3731
  846MOL0     H14146   8.855   7.115   7.280 -1.2603  0.3735  0.6804
  846MOL0     H14147   8.898   7.360   7.431  1.4311  0.1175 -0.9535
  846MOL0     H14148   8.808   7.225   7.489 -1.4371  0.0578 -0.7623
  846MOL0     H14149   8.758   7.348   7.220  1.0899 -0.9667 -0.0001
  846MOL0     H14150   8.661   7.403   7.358 -0.4735  0.7658 -1.1179
  846MOL0     H14151   8.637   7.117   7.241 -1.4751 -0.7701 -0.9755
  846MOL0     H14152   8.549   7.182   7.380  0.4794  1.2055  0.3587
  846MOL0     H14153   8.470   7.378   7.260  1.9339 -1.5027  4.2869
  846MOL0     H14154   8.535   7.319   7.111  0.3113  2.0982  0.8815
  846MOL0     H14155   8.401   7.125   7.088 -1.4949  1.1025 -0.8542
  846MOL0     H14156   8.340   7.129   7.250  1.7318 -2.3553 -0.4640
  846MOL0     H14157   8.177   7.177   7.100  2.1993 -1.0849 -0.5245
  846MOL0     H14158   8.266   7.293   7.014 -0.6479 -1.8636 -0.9380
  846MOL0     H14159   8.204   7.321   7.314 -3.8610  1.4999  0.6485
  846MOL0     H14160   8.271   7.446   7.206  1.3645 -1.1061 -1.0775
  846MOL0     H14161   8.059   7.592   7.325  3.6972  0.5469 -2.4292
  846MOL0     H14162   7.781   7.706   7.125 -2.6764 -1.8672  0.3599
  846MOL0     H14163   7.722   7.627   7.275  0.6070 -2.0631 -0.8481
  846MOL0     H14164   7.770   7.863   7.324  1.9656  1.7489  0.0493
  846MOL0     H14165   7.892   7.759   7.401 -1.3439 -2.9846 -0.0272
  846MOL0     H14166   7.905   7.926   7.147  0.5145 -0.0429  0.2212
  846MOL0     H14167   8.038   7.821   7.198  1.9852  0.5122  0.7681
  846MOL0     H14168   7.928   8.060   7.356 -2.6623 -1.4362 -2.3069
  846MOL0     H14169   8.077   8.057   7.263 -0.9064 -1.4039 -1.5006
  846MOL0     H14170   8.187   7.889   7.654 -0.8421 -3.4896  0.5655
  846MOL0     H14171   8.401   7.798   7.689 -2.5669  1.0493  0.3441
  846MOL0     H14172   8.764   7.595   7.177  0.8219  0.8315 -1.2919
  846MOL0     H14173   8.982   7.517   7.146  2.1321 -0.4084  0.8310
  846MOL0     H14174   9.336   7.629   7.402 -1.1029  0.6896  1.4286
  846MOL0     H14175   9.219   7.494   7.443 -1.9961  0.7070 -0.7487
  846MOL0     H14176   9.333   7.362   7.265  1.4715  0.2456  0.1403
  846MOL0     H14177   9.413   7.514   7.205  1.4537 -1.7078 -0.7378
  846MOL0     H14178   9.533   7.525   7.420 -4.1402  2.5292  1.7581
  846MOL0     H14179   9.455   7.377   7.476  0.6332  3.4201  1.8740
  846MOL0     H14180   9.602   7.417   7.226 -0.9876  1.2638  0.6670
  846MOL0     H14181   9.558   7.261   7.265 -0.6392  0.0314 -1.1032
  846MOL0     H14182   9.706   7.236   7.445  0.7717  0.0852 -0.1656
  846MOL0     H14183   9.730   7.411   7.468  0.8371  0.5547 -1.4975
  846MOL0     H14184   9.938   7.326   7.401  0.8472  1.6099 -1.4786
  846MOL0     H14185   9.856   7.211   7.279 -1.3687  0.1915  0.1436
  846MOL0     H14186   9.887   7.515   7.262  1.8888  0.3600 -1.0145
  846MOL0     H14187   9.817   7.402   7.142 -1.1882  0.2806  2.0610
  846MOL0     H14188  10.052   7.297   7.113 -1.0351  0.5422 -0.2107
  846MOL0     H14189  10.051   7.465   7.066  1.3655 -0.5798  0.1008
  846MOL0     H14190   9.106   7.704   7.515  1.9895  2.7048 -3.6668
  846MOL0     H14191   8.874   7.738   7.575  0.7252 -2.0527  0.5825
  846MOL0     H14192   8.473   7.822   7.263  0.2101  1.6466 -0.7753
  846MOL0     H14193   8.236   7.912   7.241 -1.1052  3.0442  1.2171
  846MOL0     H14194   9.274   7.157   7.338 -0.4305 -0.2037  0.8508
  846MOL0     H14195   9.417   7.006   7.225  0.3500 -0.3917 -1.3082
  846MOL0     H14196   9.591   6.665   7.167 -1.1663  0.7617  1.3196
  846MOL0     H14197   9.762   6.504   7.137 -0.9750  2.2608  0.8694
  846MOL0     H14198   9.756   6.352   6.747  0.3368  0.3023  0.2724
  846MOL0     H14199   9.701   6.189   6.795  0.7497 -0.5606  1.2878
  846MOL0     H14200   9.991   6.286   6.827 -1.4303  0.5591  0.5093
  846MOL0     H14201   9.939   6.214   6.678 -1.7146 -1.9986 -0.5496
  846MOL0     H14202   9.869   6.001   6.794 -0.7507 -1.7591  1.8453
  846MOL0     H14203   9.905   6.073   6.942 -1.4695 -0.3217 -1.2199
  846MOL0     H14204  10.119   6.004   6.739 -1.3434 -2.0309  0.4416
  846MOL0     H14205  10.137   6.116   6.877  0.4051  1.0345 -1.8704
  846MOL0     H14206  10.099   5.726   7.064 -1.0062  0.1468  1.8644
  846MOL0     H14207   9.535   6.308   6.832  0.3979 -1.7253  1.7477
  846MOL0     H14208   9.257   6.480   6.855 -0.1496  1.8004  0.0900
  846MOL0     H14209   9.347   6.576   6.734 -3.7190  1.5950  1.4609
  846MOL0     H14210   9.345   6.396   6.732 -2.1954  0.8296 -1.1936
  847MOL0     O14211   0.996   2.493   8.589 -0.5182 -0.1912 -0.5996
  847MOL0     C14212   1.016   2.484   8.707  0.1532 -0.1381 -0.7920
  847MOL0     O14213   1.142   2.487   8.770 -0.0136  0.2299 -0.4260
  847MOL0     C14214   1.257   2.490   8.699  0.3223  0.1744  1.0336
  847MOL0     C14215   1.346   2.606   8.694  0.8899  0.1075  0.9410
  847MOL0     C14216   1.465   2.607   8.617  0.5903 -0.0863  0.0779
  847MOL0     C14217   1.509   2.488   8.558  0.1273  0.1962 -0.1850
  847MOL0     O14218   1.624   2.483   8.488 -0.1246 -0.2897 -0.7852
  847MOL0     C14219   1.720   2.588   8.504 -0.8315 -0.2451  0.3076
  847MOL0     C14220   1.849   2.564   8.415  0.3955  0.3999  0.2337
  847MOL0     C14221   1.960   2.660   8.445  0.1832 -0.3067  0.0394
  847MOL0     C14222   2.029   2.626   8.581  0.3599 -0.4892  0.0751
  847MOL0     C14223   2.152   2.711   8.622 -0.5591 -0.3843 -0.0781
  847MOL0     C14224   2.256   2.718   8.503  0.0812 -0.0144 -0.5605
  847MOL0     C14225   2.359   2.825   8.547 -0.1120 -0.0634  0.3414
  847MOL0     C14226   2.472   2.842   8.445 -0.3226 -0.3622 -0.1231
  847MOL0     N14227   2.551   2.720   8.432  0.1215  0.1502 -0.2360
  847MOL0     C14228   2.662   2.689   8.515  0.1343 -0.1563  0.4892
  847MOL0     C14229   2.740   2.606   8.443  0.5845  0.0308  0.9862
  847MOL0     C14230   2.880   2.552   8.467 -1.2548  0.4770 -0.4966
  847MOL0     C14231   2.943   2.647   8.563 -0.9874  0.4595 -0.2105
  847MOL0     C14232   3.064   2.580   8.640  0.1934  0.1059  0.3293
  847MOL0     C14233   3.181   2.541   8.543  0.5006 -0.0639  0.4209
  847MOL0     O14234   3.313   2.561   8.597  0.1280 -0.1375 -0.1792
  847MOL0     C14235   3.346   2.526   8.722 -0.1031  0.7418 -0.0782
  847MOL0     C14236   3.287   2.433   8.814 -0.1090 -0.3306  0.2641
  847MOL0     C14237   3.340   2.414   8.945  0.5372 -1.0278  0.3549
  847MOL0     C14238   3.439   2.508   8.999  0.6499  0.9191 -0.3340
  847MOL0     C14239   3.510   2.476   9.126 -0.2834  0.0172 -0.0512
  847MOL0     O14240   3.635   2.523   9.139 -0.8480 -0.3713 -0.3145
  847MOL0     C14241   3.703   2.488   9.256 -0.0259  0.6192  0.0503
  847MOL0     C14242   3.738   2.359   9.297  0.7716  0.5019  0.4516
  847MOL0     C14243   3.808   2.341   9.421 -0.3256  0.7094  0.5713
  847MOL0     C14244   3.845   2.446   9.499 -0.5049  0.1711 -1.0398
  847MOL0     O14245   3.932   2.433   9.606 -0.1490  0.0583  0.3579
  847MOL0     C14246   3.946   2.311   9.685 -0.4181 -0.1604 -0.3979
  847MOL0     C14247   4.030   2.355   9.809 -0.5060 -0.0624 -0.0033
  847MOL0     C14248   4.062   2.230   9.893 -0.3496 -0.4909  0.3647
  847MOL0     C14249   4.135   2.244  10.023 -0.5460 -0.1281 -0.8573
  847MOL0     C14250   4.101   2.138  10.125  0.4756 -0.2630 -0.0136
  847MOL0     C14251   4.109   2.188  10.267 -0.5295 -0.7570 -0.0354
  847MOL0     C14252   4.088   2.070  10.365  1.4750 -0.7776 -0.2600
  847MOL0     C14253   4.217   2.012  10.411 -0.1132  0.2653  0.2835
  847MOL0    Cl14254   4.317   2.125  10.511 -0.3044  0.0721 -0.4729
  847MOL0     C14255   3.802   2.569   9.460  0.2509 -1.2404 -0.6859
  847MOL0     C14256   3.739   2.590   9.343 -0.2394  0.2515  0.3584
  847MOL0     O14257   3.453   2.404   9.210 -0.1841 -0.0935 -0.2887
  847MOL0     C14258   3.489   2.604   8.911 -0.1519  0.0243  0.6114
  847MOL0     C14259   3.454   2.598   8.777  0.0551 -1.1099  0.1213
  847MOL0     N14260   2.688   2.592   8.316 -0.4177  0.2003  0.0645
  847MOL0     N14261   2.585   2.668   8.310 -0.4928 -0.0327 -0.0441
  847MOL0     C14262   1.424   2.380   8.571 -0.6288 -0.2194  0.0784
  847MOL0     C14263   1.309   2.376   8.646 -0.0933  0.8737 -0.3872
  847MOL0     C14264   0.887   2.481   8.784 -0.6118 -0.0110  1.6962
  847MOL0     C14265   0.887   2.469   8.922 -0.4378 -0.5799 -0.4882
  847MOL0     C14266   0.775   2.450   9.001 -0.2631  0.3969  1.3884
  847MOL0     C14267   0.649   2.465   8.940  0.6044  0.4146  0.5619
  847MOL0     O14268   0.528   2.450   9.003  0.2262  0.3665 -0.4881
  847MOL0     C14269   0.522   2.483   9.140  0.0618  0.6835 -0.4678
  847MOL0     C14270   0.379   2.487   9.186 -0.1763 -0.1121 -0.1187
  847MOL0     C14271   0.377   2.510   9.338  0.8880  0.3637 -0.3903
  847MOL0     C14272   0.243   2.520   9.415 -0.3217 -0.4391  0.9601
  847MOL0     C14273   0.130   2.594   9.352  0.1463  0.2697  1.2535
  847MOL0     C14274   0.051   2.661   9.291  0.6098  0.5909  1.2730
  847MOL0     C14275   0.645   2.484   8.806  0.0093 -0.3025 -0.2083
  847MOL0     C14276   0.761   2.494   8.720  0.1337 -0.5559 -0.5419
  847MOL0     C14277   0.731   2.524   8.578 -0.2788 -0.0904 -0.3328
  847MOL0     H14278   1.301   2.690   8.746 -0.8919 -1.9304  2.9571
  847MOL0     H14279   1.497   2.710   8.603 -0.8064  0.2956 -0.4642
  847MOL0     H14280   1.660   2.676   8.477 -0.0760  1.1552  2.8209
  847MOL0     H14281   1.741   2.593   8.612  0.0353 -0.0769  0.1334
  847MOL0     H14282   1.812   2.570   8.312  1.0764 -0.0433 -0.0438
  847MOL0     H14283   1.877   2.458   8.417 -2.0511 -0.5961 -4.2999
  847MOL0     H14284   1.926   2.764   8.440 -0.9003 -0.6540 -0.0233
  847MOL0     H14285   2.031   2.659   8.363  0.2810  2.3903  0.0182
  847MOL0     H14286   1.957   2.633   8.664  0.6089 -2.5363  0.5109
  847MOL0     H14287   2.069   2.525   8.586  1.2854 -0.2486 -1.8282
  847MOL0     H14288   2.126   2.816   8.642 -2.5950 -1.1786  1.8560
  847MOL0     H14289   2.204   2.676   8.711  1.9253 -0.9470 -1.6364
  847MOL0     H14290   2.303   2.619   8.504 -1.2395 -0.6920  1.6620
  847MOL0     H14291   2.209   2.743   8.408  1.7747 -2.0339 -2.0263
  847MOL0     H14292   2.391   2.810   8.650 -4.7298 -0.1276  2.0203
  847MOL0     H14293   2.300   2.918   8.544  1.8778  1.2402 -1.8842
  847MOL0     H14294   2.435   2.864   8.345  1.5456 -0.3601 -0.8516
  847MOL0     H14295   2.522   2.937   8.464 -2.6493  0.7176  1.1238
  847MOL0     H14296   2.681   2.732   8.612 -0.1530 -1.4063  1.1181
  847MOL0     H14297   2.879   2.452   8.510  0.0362 -0.1143 -1.7629
  847MOL0     H14298   2.947   2.555   8.380 -0.2564  0.2412  0.2428
  847MOL0     H14299   2.970   2.734   8.503 -1.3366  0.5199 -0.2816
  847MOL0     H14300   2.872   2.677   8.641  2.7349 -0.6574  4.0577
  847MOL0     H14301   3.021   2.497   8.697 -0.3919  0.5468  0.5465
  847MOL0     H14302   3.096   2.662   8.707 -0.9105  1.6716 -0.9820
  847MOL0     H14303   3.177   2.608   8.457 -1.0097  1.0274  1.2900
  847MOL0     H14304   3.166   2.437   8.512 -0.4653  0.5649 -1.3636
  847MOL0     H14305   3.200   2.373   8.788  1.2246 -1.7908 -1.0124
  847MOL0     H14306   3.307   2.330   9.004 -2.8450 -0.6119 -0.7221
  847MOL0     H14307   3.715   2.272   9.237  2.9797 -0.1840  0.5149
  847MOL0     H14308   3.824   2.238   9.450  1.1689  0.6982 -0.2066
  847MOL0     H14309   3.846   2.275   9.711 -1.5620  0.7545 -3.2109
  847MOL0     H14310   4.006   2.239   9.628  2.4188  1.3654  0.4859
  847MOL0     H14311   4.130   2.377   9.771 -0.1321 -1.8517 -0.1858
  847MOL0     H14312   3.981   2.430   9.870  1.3903  0.5149  0.8637
  847MOL0     H14313   3.970   2.173   9.910 -1.0908  0.3039 -0.8379
  847MOL0     H14314   4.128   2.175   9.826 -2.6536 -0.7849 -1.8018
  847MOL0     H14315   4.095   2.332  10.075 -3.4995 -1.9960  0.2391
  847MOL0     H14316   4.242   2.262  10.006 -0.3501 -0.7207 -0.2639
  847MOL0     H14317   4.171   2.055  10.115 -0.7795 -1.1971 -1.6495
  847MOL0     H14318   4.001   2.098  10.106 -0.7340  1.9685  1.1772
  847MOL0     H14319   4.201   2.245  10.285  0.5955 -1.9999 -1.5816
  847MOL0     H14320   4.031   2.260  10.295  0.3177  0.4500 -0.6976
  847MOL0     H14321   4.026   1.990  10.323 -0.5376  0.6458 -0.1445
  847MOL0     H14322   4.033   2.108  10.452  3.1386  3.7289 -0.8910
  847MOL0     H14323   4.190   1.922  10.466 -1.6918  0.1036 -0.7184
  847MOL0     H14324   4.256   1.982  10.313 -2.0924  1.5868 -0.9784
  847MOL0     H14325   3.811   2.653   9.528 -4.1607  0.0168 -1.3458
  847MOL0     H14326   3.722   2.688   9.298  1.1868  0.3543  0.0078
  847MOL0     H14327   3.574   2.665   8.940  0.2152 -1.2544  2.4533
  847MOL0     H14328   3.503   2.676   8.719  0.3815  0.3281  2.1990
  847MOL0     H14329   1.448   2.291   8.513  0.1413 -0.4980  0.7932
  847MOL0     H14330   1.249   2.287   8.663  2.8970 -1.3042 -0.4281
  847MOL0     H14331   0.984   2.463   8.969  0.4693 -2.3637 -2.4244
  847MOL0     H14332   0.795   2.430   9.106  3.7049 -0.5728  0.6384
  847MOL0     H14333   0.575   2.575   9.168  0.6210 -0.5052  2.8074
  847MOL0     H14334   0.569   2.407   9.203  0.7377  0.5354 -1.1383
  847MOL0     H14335   0.325   2.394   9.165  0.9741 -1.1928  1.5334
  847MOL0     H14336   0.320   2.566   9.136  1.9906  2.0256  0.5072
  847MOL0     H14337   0.432   2.602   9.363  2.1600 -1.0136  2.2824
  847MOL0     H14338   0.425   2.421   9.378  1.9704  1.8592  1.8418
  847MOL0     H14339   0.214   2.420   9.448 -0.1842 -0.2335  1.7223
  847MOL0     H14340   0.262   2.572   9.510  0.6619  1.2141 -0.0711
  847MOL0     H14341  -0.022   2.722   9.241 -0.1149 -0.2336  1.3023
  847MOL0     H14342   0.545   2.485   8.765 -0.8950 -0.3020  1.8868
  847MOL0     H14343   0.626   2.557   8.577 -0.6132 -1.0507  0.7845
  847MOL0     H14344   0.790   2.607   8.539 -1.5530  2.1598  2.1395
  847MOL0     H14345   0.750   2.435   8.519 -0.4756 -1.1251  1.1200
  848MOL0     O14346   3.947   8.238   9.537 -0.3564  0.2741 -0.2019
  848MOL0     C14347   3.901   8.277   9.644  0.0972 -0.8608  0.0760
  848MOL0     O14348   3.930   8.228   9.775  0.1038 -0.3715  0.9665
  848MOL0     C14349   4.016   8.123   9.786  0.0282 -0.7442  0.3160
  848MOL0     C14350   3.975   8.000   9.732  0.3716 -0.8705 -0.4079
  848MOL0     C14351   4.067   7.892   9.736  0.4719 -0.0268 -0.1804
  848MOL0     C14352   4.189   7.900   9.796  0.5001  0.7969  0.2715
  848MOL0     O14353   4.269   7.791   9.783  0.2248 -0.2284  0.1061
  848MOL0     C14354   4.303   7.737   9.906 -0.1093  0.1925  0.1218
  848MOL0     C14355   4.350   7.592   9.869 -0.3962 -0.2638  0.1552
  848MOL0     C14356   4.500   7.584   9.840 -0.1980 -0.8007 -0.4742
  848MOL0     C14357   4.587   7.564   9.956 -0.3929  0.0931 -0.0107
  848MOL0     C14358   4.724   7.500   9.924  0.4763  0.4898 -0.5180
  848MOL0     C14359   4.794   7.585   9.823  0.0467  0.3982  0.4538
  848MOL0     C14360   4.943   7.542   9.807  0.6817  0.7588  0.1100
  848MOL0     C14361   5.029   7.570   9.930  0.6813 -0.3333 -0.9005
  848MOL0     N14362   5.030   7.708   9.975 -0.6824 -0.4526 -0.0719
  848MOL0     C14363   5.060   7.814   9.888 -0.6027  0.5089  0.2624
  848MOL0     C14364   5.028   7.924   9.965 -1.1102  0.0585 -0.5134
  848MOL0     C14365   5.046   8.061   9.905  0.3951 -0.1930  0.1106
  848MOL0     C14366   5.061   8.186  10.004 -1.1693  0.4850  0.6691
  848MOL0     C14367   5.202   8.209  10.060 -0.1148 -0.7062  0.6018
  848MOL0     C14368   5.311   8.241   9.955 -0.8063 -0.0796  0.5554
  848MOL0     O14369   5.357   8.127   9.892  0.3695 -0.2469  0.0322
  848MOL0     C14370   5.438   8.135   9.782  0.5046  0.4396 -0.1417
  848MOL0     C14371   5.532   8.235   9.757  0.7941 -0.1251 -0.0191
  848MOL0     C14372   5.622   8.224   9.652  0.2129 -0.0715 -0.5221
  848MOL0     C14373   5.633   8.102   9.585  0.6033 -0.6413  0.9529
  848MOL0     C14374   5.734   8.102   9.477  0.1694 -0.8002 -0.2606
  848MOL0     O14375   5.852   8.153   9.512 -0.1200 -0.0681 -0.3297
  848MOL0     C14376   5.957   8.149   9.421 -0.6535  0.0311  0.0174
  848MOL0     C14377   6.016   8.032   9.360  0.2588  0.2615 -0.5486
  848MOL0     C14378   6.126   8.036   9.280  0.3292  0.0672 -0.0628
  848MOL0     C14379   6.183   8.159   9.244 -0.2092 -0.6817 -0.6654
  848MOL0     O14380   6.296   8.159   9.165  0.4960 -0.7010 -0.4101
  848MOL0     C14381   6.311   8.269   9.075 -0.6161  0.0119  0.8488
  848MOL0     C14382   6.441   8.247   8.994  0.6300 -0.1261 -0.3166
  848MOL0     C14383   6.564   8.277   9.069 -0.0529 -0.2474 -0.3751
  848MOL0     C14384   6.682   8.250   8.974  1.0039  0.4840  0.6854
  848MOL0     C14385   6.810   8.246   9.051 -0.3058 -0.3134  0.2394
  848MOL0     C14386   6.874   8.379   9.073 -0.6301  0.2605 -0.3461
  848MOL0     C14387   6.963   8.371   9.199 -0.5804  0.2573  0.6860
  848MOL0     C14388   6.962   8.509   9.272 -0.1174  0.3526  0.2475
  848MOL0    Cl14389   7.100   8.595   9.177 -0.0058 -0.0478  0.2901
  848MOL0     C14390   6.135   8.273   9.310 -0.0527 -0.4736  0.6409
  848MOL0     C14391   6.020   8.268   9.391  0.6223 -0.2461  0.4645
  848MOL0     O14392   5.709   8.047   9.375  0.2783  0.7998  0.4266
  848MOL0     C14393   5.535   7.998   9.607  0.2356 -1.1235  0.2038
  848MOL0     C14394   5.437   8.016   9.707 -0.0566 -0.3033  0.8093
  848MOL0     N14395   4.980   7.881  10.088 -0.1717 -0.1808  0.6082
  848MOL0     N14396   4.977   7.752  10.092 -0.1284 -0.5935  0.4214
  848MOL0     C14397   4.233   8.024   9.845 -0.5493 -0.0939 -0.0677
  848MOL0     C14398   4.146   8.132   9.842  0.4059  0.3558 -0.7563
  848MOL0     C14399   3.812   8.390   9.629 -0.1381  0.3645 -0.2117
  848MOL0     C14400   3.677   8.367   9.609  0.9710 -0.5222  0.1317
  848MOL0     C14401   3.586   8.472   9.614  0.5173  0.4173  0.5161
  848MOL0     C14402   3.636   8.598   9.633 -0.8731 -0.4133 -0.5915
  848MOL0     O14403   3.547   8.702   9.612  0.7440  0.6673  0.9057
  848MOL0     C14404   3.448   8.718   9.713  0.2509  1.2094  0.0852
  848MOL0     C14405   3.370   8.833   9.661 -0.1934 -0.1986 -0.0509
  848MOL0     C14406   3.306   8.814   9.527  0.2807  0.3827  0.9425
  848MOL0     C14407   3.192   8.918   9.500 -0.6081 -0.2838  1.1574
  848MOL0     C14408   3.142   8.896   9.367 -0.5741  0.6417  0.7292
  848MOL0     C14409   3.104   8.874   9.257  0.6047 -1.0785 -0.6477
  848MOL0     C14410   3.769   8.627   9.653 -0.6689  0.0715 -0.9279
  848MOL0     C14411   3.857   8.520   9.662 -0.1427  0.0318  0.0970
  848MOL0     C14412   4.003   8.557   9.693  0.1051  0.0461  0.1986
  848MOL0     H14413   3.877   7.987   9.686  0.1227  0.8808 -0.4457
  848MOL0     H14414   4.046   7.800   9.683  0.5802 -1.0717  1.5166
  848MOL0     H14415   4.380   7.800   9.951  0.4896 -0.8333  0.5593
  848MOL0     H14416   4.220   7.733   9.977  0.1569 -1.4200  0.3837
  848MOL0     H14417   4.284   7.559   9.788 -0.2722  0.2754 -0.1701
  848MOL0     H14418   4.332   7.519   9.949 -1.4497 -2.2613 -1.7967
  848MOL0     H14419   4.532   7.678   9.793 -1.0669 -1.9898 -3.7585
  848MOL0     H14420   4.520   7.497   9.777  1.3839 -0.8945  0.1163
  848MOL0     H14421   4.603   7.661  10.004 -0.2587  0.0291  0.0755
  848MOL0     H14422   4.540   7.504  10.034  3.7833 -0.7775  2.1301
  848MOL0     H14423   4.780   7.494  10.018  1.7303  1.6152 -1.1610
  848MOL0     H14424   4.713   7.398   9.887 -0.3671 -0.6611  2.6061
  848MOL0     H14425   4.742   7.565   9.729 -0.1968  0.5421  0.5570
  848MOL0     H14426   4.780   7.688   9.857  1.1463 -0.1875  2.8640
  848MOL0     H14427   4.987   7.601   9.725 -0.8919  1.2722 -0.3968
  848MOL0     H14428   4.933   7.436   9.779  0.7827  1.1062 -1.3077
  848MOL0     H14429   4.998   7.513  10.018  1.3775 -1.6426 -1.4706
  848MOL0     H14430   5.134   7.547   9.909  1.0464 -0.7931  1.1853
  848MOL0     H14431   5.102   7.801   9.790 -1.2975 -4.6586  0.3645
  848MOL0     H14432   5.120   8.059   9.825  0.2805  1.0676 -0.0494
  848MOL0     H14433   4.958   8.085   9.844  2.0016  0.2568 -2.1690
  848MOL0     H14434   5.056   8.272   9.937 -0.0964 -1.7786 -2.5495
  848MOL0     H14435   4.988   8.178  10.085 -0.3171  0.7002  1.4825
  848MOL0     H14436   5.231   8.115  10.107  0.9461 -0.2651  0.8817
  848MOL0     H14437   5.195   8.284  10.140  0.3243 -1.2304  1.1428
  848MOL0     H14438   5.393   8.287  10.010  0.4497  0.7565 -1.8611
  848MOL0     H14439   5.278   8.316   9.883 -1.0185 -3.3132 -3.0742
  848MOL0     H14440   5.544   8.302   9.842 -1.2181 -2.9440  2.7157
  848MOL0     H14441   5.693   8.304   9.635 -1.9132  1.8305 -0.9550
  848MOL0     H14442   5.982   7.930   9.378  2.2508  0.0539  3.0033
  848MOL0     H14443   6.160   7.941   9.240  2.0729  0.8286 -0.5000
  848MOL0     H14444   6.230   8.261   9.002  0.2277  3.3655 -0.6724
  848MOL0     H14445   6.302   8.368   9.120 -2.1135 -0.5925  1.9314
  848MOL0     H14446   6.431   8.146   8.955 -0.6058 -0.7744  1.5375
  848MOL0     H14447   6.448   8.315   8.908  4.4501 -1.3911 -1.1897
  848MOL0     H14448   6.547   8.382   9.092  0.2457  0.0608 -1.5015
  848MOL0     H14449   6.572   8.212   9.156  1.3258 -1.9260 -1.6680
  848MOL0     H14450   6.688   8.325   8.894  0.1809  0.5510  0.6724
  848MOL0     H14451   6.664   8.154   8.924  1.9675 -1.1686  3.3496
  848MOL0     H14452   6.885   8.179   9.008  0.8459  0.5065  0.8840
  848MOL0     H14453   6.784   8.197   9.145  0.7036 -0.1762  0.6047
  848MOL0     H14454   6.927   8.409   8.982 -0.9025 -1.4805 -1.1175
  848MOL0     H14455   6.792   8.448   9.094  0.1994  0.8846  1.0356
  848MOL0     H14456   7.066   8.339   9.178 -0.6221 -0.5045  1.5764
  848MOL0     H14457   6.924   8.292   9.265 -0.1031 -1.0116 -0.4890
  848MOL0     H14458   6.868   8.565   9.273 -0.5554 -0.3875  1.2228
  848MOL0     H14459   6.999   8.492   9.373 -0.8329  2.7122  0.9646
  848MOL0     H14460   6.196   8.362   9.295 -0.4812 -0.1300  0.9102
  848MOL0     H14461   5.976   8.360   9.428 -2.3668 -1.1725 -0.5114
  848MOL0     H14462   5.539   7.909   9.544 -0.9023  0.0302 -1.5800
  848MOL0     H14463   5.371   7.931   9.715  1.3672 -1.8033 -1.8714
  848MOL0     H14464   4.334   8.036   9.881 -0.6996  0.1884  0.2656
  848MOL0     H14465   4.167   8.227   9.890 -3.1110  0.6066  0.5862
  848MOL0     H14466   3.638   8.268   9.586 -1.8379  0.9995 -2.3004
  848MOL0     H14467   3.480   8.464   9.591  0.8171 -0.4320 -0.6176
  848MOL0     H14468   3.487   8.733   9.815 -2.7348  0.7878  1.3875
  848MOL0     H14469   3.368   8.643   9.711 -0.8130  2.2465  1.6388
  848MOL0     H14470   3.435   8.921   9.660 -2.9723  2.0170 -1.0332
  848MOL0     H14471   3.296   8.860   9.737  1.0074  3.7045 -0.0631
  848MOL0     H14472   3.258   8.716   9.523 -0.5081  0.7966 -0.3303
  848MOL0     H14473   3.393   8.811   9.462  0.8744 -0.0931  1.7355
  848MOL0     H14474   3.122   8.917   9.584 -2.5908  2.1398 -0.3029
  848MOL0     H14475   3.229   9.021   9.498 -1.6209  0.0855  0.5553
  848MOL0     H14476   3.078   8.863   9.154 -1.7811  3.0540 -0.6911
  848MOL0     H14477   3.804   8.729   9.664  0.8537 -0.5429  0.4555
  848MOL0     H14478   4.034   8.657   9.661  0.1485 -0.6205 -2.0014
  848MOL0     H14479   4.015   8.554   9.802  1.1575  2.1557  0.1788
  848MOL0     H14480   4.074   8.484   9.652 -0.5404 -0.6793  0.3404
  849MOL0     O14481   0.311   1.765   8.417 -0.3263 -0.5101  0.3138
  849MOL0     C14482   0.283   1.849   8.506 -1.0692 -0.0420 -0.4552
  849MOL0     O14483   0.368   1.952   8.550 -0.0619 -0.0203  0.0059
  849MOL0     C14484   0.487   1.989   8.488  0.0959  0.1474 -0.7673
  849MOL0     C14485   0.582   2.043   8.570  0.0851  0.3038  0.0895
  849MOL0     C14486   0.705   2.077   8.522 -0.2863  0.5571 -0.1667
  849MOL0     C14487   0.740   2.070   8.386  0.3802 -0.1530 -0.2794
  849MOL0     O14488   0.852   2.118   8.319  0.3812  0.1859  0.2950
  849MOL0     C14489   0.945   2.202   8.385 -1.0522  0.0366 -0.5946
  849MOL0     C14490   1.052   2.266   8.295  0.1534 -0.0672 -0.3190
  849MOL0     C14491   1.153   2.160   8.253  0.6153  0.1537 -0.1971
  849MOL0     C14492   1.278   2.204   8.183 -0.1032  0.1380  0.2373
  849MOL0     C14493   1.334   2.083   8.100  0.1252 -0.3594  0.3341
  849MOL0     C14494   1.457   2.120   8.012 -1.1297 -0.3934  0.1753
  849MOL0     C14495   1.499   2.019   7.895  0.0419  0.9264 -0.5355
  849MOL0     C14496   1.408   2.033   7.769  0.6957  0.8375  0.2783
  849MOL0     N14497   1.497   2.006   7.655 -0.2562 -0.5224 -0.6934
  849MOL0     C14498   1.588   2.096   7.612 -0.5615  0.3510  0.3819
  849MOL0     C14499   1.645   2.039   7.505  0.5008 -0.3388  0.8698
  849MOL0     C14500   1.742   2.097   7.411  0.4270  0.6726  0.2533
  849MOL0     C14501   1.883   2.065   7.443 -0.3695  0.1997 -0.3479
  849MOL0     C14502   1.918   2.142   7.569  0.9809  0.2100 -0.1108
  849MOL0     C14503   2.048   2.208   7.574 -0.0191  0.9914 -0.1220
  849MOL0     O14504   2.147   2.099   7.558  0.4794  0.3990 -0.1145
  849MOL0     C14505   2.286   2.128   7.560  0.2916 -0.2878  0.0647
  849MOL0     C14506   2.347   2.251   7.580  0.7863  0.1114 -0.5947
  849MOL0     C14507   2.488   2.259   7.588  0.2057  1.0831  0.1157
  849MOL0     C14508   2.573   2.146   7.571  0.2787 -0.2841 -0.8940
  849MOL0     C14509   2.721   2.163   7.562 -0.4171  0.0139  0.0820
  849MOL0     O14510   2.791   2.250   7.637 -0.1616 -0.0636  0.5783
  849MOL0     C14511   2.924   2.234   7.637 -0.1246  0.1989  0.1130
  849MOL0     C14512   3.000   2.350   7.597 -0.6901  0.9407 -0.5962
  849MOL0     C14513   3.147   2.338   7.581  0.6815 -1.6834 -0.3256
  849MOL0     C14514   3.205   2.217   7.603 -0.2609 -0.5681  0.2104
  849MOL0     O14515   3.340   2.192   7.582 -0.3778  0.5117 -0.1807
  849MOL0     C14516   3.426   2.303   7.573  0.2408  0.4724  0.1442
  849MOL0     C14517   3.563   2.258   7.523 -0.0023 -0.1686  0.2417
  849MOL0     C14518   3.665   2.369   7.505 -0.2338  0.2151 -0.1320
  849MOL0     C14519   3.710   2.420   7.638  0.4462  0.0169  0.4198
  849MOL0     C14520   3.821   2.527   7.625  0.1124 -0.4389  0.0319
  849MOL0     C14521   3.828   2.601   7.763 -0.4407  0.3468  0.3883
  849MOL0     C14522   3.958   2.681   7.791 -0.1496 -0.2952 -0.1506
  849MOL0     C14523   4.084   2.593   7.795 -0.5535  0.7692 -0.1257
  849MOL0    Cl14524   4.105   2.485   7.935  0.5567 -0.2203  0.0040
  849MOL0     C14525   3.134   2.111   7.655  0.2842 -0.0484 -0.4322
  849MOL0     C14526   2.992   2.117   7.668 -0.2623 -0.4814 -0.1230
  849MOL0     O14527   2.766   2.067   7.491 -0.0437 -0.6295  0.0048
  849MOL0     C14528   2.505   2.017   7.564  0.0382  0.1146 -0.1053
  849MOL0     C14529   2.359   2.009   7.553  0.0862 -0.9001 -0.4211
  849MOL0     N14530   1.592   1.910   7.488  0.2488  0.3623 -0.1825
  849MOL0     N14531   1.504   1.889   7.577  0.4321 -0.5816  0.0702
  849MOL0     C14532   0.638   2.016   8.309 -0.4689 -0.6990 -0.1584
  849MOL0     C14533   0.521   1.970   8.355  1.1720  0.1186 -0.2520
  849MOL0     C14534   0.149   1.835   8.573  0.8716 -0.0544  0.5281
  849MOL0     C14535   0.120   1.951   8.653  0.6855  0.4404  0.3714
  849MOL0     C14536   0.012   1.956   8.738 -0.3993  0.1980  0.0492
  849MOL0     C14537  -0.083   1.857   8.740 -0.6907  0.9787  0.1856
  849MOL0     O14538  -0.193   1.856   8.817  1.0660 -0.0919  0.2569
  849MOL0     C14539  -0.283   1.959   8.795 -0.3660 -0.0253  0.2481
  849MOL0     C14540  -0.269   2.080   8.894  0.0453 -0.4404  0.2346
  849MOL0     C14541  -0.376   2.191   8.878  0.1327 -0.7607  0.1424
  849MOL0     C14542  -0.392   2.277   9.004  0.4503  0.5214  0.3405
  849MOL0     C14543  -0.543   2.309   9.010 -0.1509 -0.3301 -0.1328
  849MOL0     C14544  -0.663   2.330   9.019 -0.3124  0.8245  0.1717
  849MOL0     C14545  -0.063   1.743   8.659  1.4164 -0.4335 -0.0380
  849MOL0     C14546   0.053   1.729   8.579 -0.5789  0.2853 -0.2870
  849MOL0     C14547   0.048   1.600   8.505 -0.3842 -0.0589  0.1026
  849MOL0     H14548   0.559   2.088   8.666 -1.8756 -0.3112 -0.0371
  849MOL0     H14549   0.774   2.133   8.584  0.3957 -1.3134  0.8507
  849MOL0     H14550   0.885   2.280   8.431 -1.7324 -0.3871 -0.7474
  849MOL0     H14551   0.996   2.142   8.461  1.7249  2.5656 -0.2971
  849MOL0     H14552   1.117   2.334   8.351  1.5189  1.2069 -3.2539
  849MOL0     H14553   1.003   2.323   8.216 -2.6367 -0.3961  1.0605
  849MOL0     H14554   1.099   2.101   8.178  0.7434  1.8273 -1.6714
  849MOL0     H14555   1.190   2.096   8.333 -2.4118 -2.5430 -0.7419
  849MOL0     H14556   1.262   2.299   8.131  2.2715  0.3938 -0.1431
  849MOL0     H14557   1.355   2.225   8.258 -0.9288 -0.1561  1.1869
  849MOL0     H14558   1.362   1.998   8.163 -0.3070  0.1635  1.2395
  849MOL0     H14559   1.253   2.049   8.034  0.2563 -0.0896  0.0288
  849MOL0     H14560   1.437   2.220   7.972  0.5915  0.1128  0.5003
  849MOL0     H14561   1.532   2.122   8.092 -2.2638 -1.8871  1.3327
  849MOL0     H14562   1.484   1.918   7.934 -2.2774  1.0707 -0.9202
  849MOL0     H14563   1.605   2.044   7.885  0.3723  0.2413  0.9578
  849MOL0     H14564   1.318   1.971   7.777  1.6115 -1.2504 -3.4418
  849MOL0     H14565   1.377   2.137   7.777 -1.9503  0.1583 -0.1502
  849MOL0     H14566   1.605   2.198   7.646 -0.6568  0.8360 -0.9767
  849MOL0     H14567   1.713   2.051   7.316  1.3852 -2.0487  1.1603
  849MOL0     H14568   1.727   2.205   7.414  2.8614  1.0321  1.0018
  849MOL0     H14569   1.887   1.956   7.449 -0.1940  0.0499 -2.4673
  849MOL0     H14570   1.950   2.091   7.361  0.4334 -1.0510 -0.1161
  849MOL0     H14571   1.887   2.089   7.660 -4.0470  0.0731 -1.5751
  849MOL0     H14572   1.847   2.226   7.570 -0.5400 -1.0226  0.1238
  849MOL0     H14573   2.065   2.250   7.673 -1.5769  0.5566  0.3586
  849MOL0     H14574   2.056   2.283   7.494 -2.1282 -0.3426 -1.6989
  849MOL0     H14575   2.284   2.340   7.584 -1.4261 -1.3340 -1.4219
  849MOL0     H14576   2.539   2.354   7.579  0.4596  0.7542 -3.9601
  849MOL0     H14577   2.951   2.446   7.582  0.3830  1.5611 -0.1956
  849MOL0     H14578   3.206   2.426   7.556 -0.7050  0.2262  2.6226
  849MOL0     H14579   3.384   2.371   7.498 -1.4865  0.1386  0.7594
  849MOL0     H14580   3.433   2.358   7.667  0.4476  1.3041 -0.3469
  849MOL0     H14581   3.607   2.181   7.588  0.1705  0.2001  0.5650
  849MOL0     H14582   3.541   2.208   7.428 -0.5327  0.5053  0.0003
  849MOL0     H14583   3.753   2.328   7.455  0.0256  0.3276  0.2379
  849MOL0     H14584   3.622   2.450   7.445  1.8634  0.8675 -0.8425
  849MOL0     H14585   3.746   2.337   7.699  1.9470 -1.0968 -1.8463
  849MOL0     H14586   3.627   2.474   7.686  0.8561  1.6799 -0.6337
  849MOL0     H14587   3.813   2.599   7.543  1.1464  1.6188  1.6216
  849MOL0     H14588   3.914   2.476   7.600 -0.4251 -0.4120 -2.2210
  849MOL0     H14589   3.739   2.664   7.769 -0.8471 -0.0980 -0.7817
  849MOL0     H14590   3.818   2.525   7.841 -0.3532 -0.3705 -0.2909
  849MOL0     H14591   3.957   2.734   7.887  2.6269  2.0661 -1.2438
  849MOL0     H14592   3.988   2.755   7.716  0.6830  0.3622  0.8067
  849MOL0     H14593   4.083   2.526   7.709 -0.8180 -0.6251  0.9196
  849MOL0     H14594   4.176   2.652   7.801 -1.2649  1.7565  2.7246
  849MOL0     H14595   3.192   2.021   7.674  1.9518  1.1186  0.3031
  849MOL0     H14596   2.930   2.031   7.693  0.9990 -0.8186  2.0676
  849MOL0     H14597   2.551   1.919   7.551  2.0646  1.2847 -2.6060
  849MOL0     H14598   2.297   1.921   7.543  0.0370 -0.8732 -0.3453
  849MOL0     H14599   0.666   2.008   8.204  1.0166  2.3906 -0.1057
  849MOL0     H14600   0.461   1.903   8.294  0.1946 -0.2973  1.1000
  849MOL0     H14601   0.184   2.038   8.666  0.8550  0.9458 -2.9769
  849MOL0     H14602  -0.017   2.042   8.797 -3.4559  0.9846 -2.3640
  849MOL0     H14603  -0.385   1.920   8.795  0.4615 -2.3863 -0.6207
  849MOL0     H14604  -0.270   1.996   8.692 -1.3289  0.3646  0.2548
  849MOL0     H14605  -0.175   2.135   8.890  0.2934 -0.6536  2.1441
  849MOL0     H14606  -0.279   2.034   8.992  1.7499 -1.9178 -0.2296
  849MOL0     H14607  -0.470   2.139   8.856  2.1391 -3.9056 -1.8506
  849MOL0     H14608  -0.344   2.254   8.794 -0.1106 -1.7236 -0.6897
  849MOL0     H14609  -0.360   2.211   9.085 -1.0311  1.3000  1.6048
  849MOL0     H14610  -0.337   2.371   8.998 -0.4865  1.1409  1.1800
  849MOL0     H14611  -0.767   2.355   9.029 -0.1357  2.5816 -1.6227
  849MOL0     H14612  -0.142   1.669   8.660  2.6596 -1.8274 -0.8546
  849MOL0     H14613   0.148   1.561   8.484  0.6338  1.9151  1.0070
  849MOL0     H14614  -0.016   1.534   8.563 -1.6985  2.2761  1.4924
  849MOL0     H14615  -0.005   1.610   8.409 -2.1314 -3.2875  0.6056
  850MOL0     O14616   3.661   2.291   1.838  0.1234 -0.2201 -0.0988
  850MOL0     C14617   3.640   2.411   1.829 -1.0591 -0.2737 -0.5203
  850MOL0     O14618   3.726   2.515   1.854 -0.3529  0.0711 -1.1158
  850MOL0     C14619   3.858   2.487   1.893  0.8719 -0.2473  1.4444
  850MOL0     C14620   3.952   2.572   1.829 -0.2131 -0.1393  0.6736
  850MOL0     C14621   4.084   2.545   1.846 -0.2204 -0.6717  0.0904
  850MOL0     C14622   4.130   2.449   1.937 -1.0949 -0.2444 -1.0669
  850MOL0     O14623   4.260   2.430   1.970  0.3213 -0.6248 -0.0276
  850MOL0     C14624   4.358   2.481   1.879 -0.4289 -1.2687  0.8461
  850MOL0     C14625   4.496   2.407   1.911 -0.5157 -0.2389 -0.2311
  850MOL0     C14626   4.585   2.383   1.787 -0.9448  0.8530  1.0639
  850MOL0     C14627   4.657   2.520   1.734 -0.5654  0.0528 -0.1183
  850MOL0     C14628   4.745   2.486   1.616 -0.0474  0.5523 -0.3937
  850MOL0     C14629   4.811   2.605   1.553 -0.2408  0.6106  0.9419
  850MOL0     C14630   4.912   2.553   1.447 -0.0225 -0.2779 -0.3938
  850MOL0     C14631   5.000   2.679   1.402  0.1108 -1.2978  0.7682
  850MOL0     N14632   5.112   2.721   1.485  0.2552  0.6039 -0.2922
  850MOL0     C14633   5.233   2.651   1.492  0.4272 -0.0616 -0.5118
  850MOL0     C14634   5.307   2.727   1.580  0.0763 -0.8939  0.2604
  850MOL0     C14635   5.443   2.703   1.644 -0.4290 -1.1754 -0.3678
  850MOL0     C14636   5.543   2.685   1.527  0.2430  0.8650  0.7378
  850MOL0     C14637   5.681   2.637   1.569 -0.6007  0.1746  0.6984
  850MOL0     C14638   5.748   2.719   1.679 -0.8771  0.6065  0.3229
  850MOL0     O14639   5.779   2.846   1.632 -0.3311 -0.3650 -0.5538
  850MOL0     C14640   5.881   2.878   1.543 -0.2605 -1.0684 -0.1995
  850MOL0     C14641   6.017   2.829   1.545 -0.0218  0.6452 -0.5523
  850MOL0     C14642   6.114   2.879   1.460  0.7557 -0.4503  0.2970
  850MOL0     C14643   6.080   2.976   1.361 -0.6973 -1.1850 -0.8904
  850MOL0     C14644   6.165   3.032   1.257  0.0734  0.6453  0.2527
  850MOL0     O14645   6.290   2.973   1.246  0.2240 -0.4379 -0.2621
  850MOL0     C14646   6.388   3.021   1.159  0.2409  0.2564 -0.0709
  850MOL0     C14647   6.363   3.053   1.020  0.2470  0.6489 -0.4254
  850MOL0     C14648   6.470   3.088   0.939  0.3645  0.0629  0.5876
  850MOL0     C14649   6.600   3.095   0.989  0.2966 -0.7208 -0.2030
  850MOL0     O14650   6.701   3.146   0.906 -0.6441  0.5245 -0.7618
  850MOL0     C14651   6.814   3.061   0.891 -0.7778 -0.6087 -0.9686
  850MOL0     C14652   6.916   3.146   0.808 -0.1615  0.0521 -1.4197
  850MOL0     C14653   7.029   3.048   0.770 -1.2644  0.6682  0.2812
  850MOL0     C14654   7.174   3.114   0.797  0.9374 -0.4096  0.6772
  850MOL0     C14655   7.284   3.028   0.735  0.0567  0.4425  0.5982
  850MOL0     C14656   7.425   3.075   0.781  0.2073  0.2491 -0.0744
  850MOL0     C14657   7.524   2.966   0.745 -0.6109 -0.1677 -0.4797
  850MOL0     C14658   7.671   3.010   0.749 -0.2758  0.6726 -0.4093
  850MOL0    Cl14659   7.783   2.875   0.718 -0.3170  0.1001 -0.3121
  850MOL0     C14660   6.619   3.078   1.127  0.0414  0.0608 -0.3578
  850MOL0     C14661   6.511   3.033   1.216  0.3494 -0.5272 -0.1554
  850MOL0     O14662   6.130   3.127   1.192 -0.2746  0.2385 -0.2976
  850MOL0     C14663   5.948   3.025   1.363  0.4630  0.2430 -0.4743
  850MOL0     C14664   5.850   2.975   1.448 -0.3931 -0.4919  0.4458
  850MOL0     N14665   5.229   2.833   1.627 -0.1315  0.0576  0.0095
  850MOL0     N14666   5.114   2.826   1.572 -0.6435  0.5771  0.3478
  850MOL0     C14667   4.041   2.368   1.995 -1.0788  0.3581 -0.0570
  850MOL0     C14668   3.902   2.381   1.973 -0.4032  0.0299  0.4572
  850MOL0     C14669   3.499   2.448   1.788 -0.2860 -0.1318  0.5602
  850MOL0     C14670   3.493   2.549   1.696 -0.2327  1.0982  0.0789
  850MOL0     C14671   3.374   2.586   1.636 -0.2401  0.5167 -0.1264
  850MOL0     C14672   3.258   2.511   1.664  0.1519 -0.4379  1.1401
  850MOL0     O14673   3.137   2.540   1.598 -0.4293 -0.1343 -0.2100
  850MOL0     C14674   3.109   2.677   1.565  0.5586  0.4950  0.2108
  850MOL0     C14675   2.958   2.695   1.531 -0.6907  0.2824  0.2826
  850MOL0     C14676   2.918   2.607   1.415 -0.0619 -0.1394 -0.7778
  850MOL0     C14677   2.778   2.657   1.354  0.3168 -0.0836 -0.2620
  850MOL0     C14678   2.801   2.756   1.251 -0.5300 -0.3698 -0.2873
  850MOL0     C14679   2.837   2.853   1.186  0.6118  0.5052  0.2544
  850MOL0     C14680   3.261   2.411   1.759  0.1886  0.3804 -0.3735
  850MOL0     C14681   3.384   2.373   1.819 -0.4442 -0.2653  0.5131
  850MOL0     C14682   3.374   2.252   1.905  0.3354 -0.5042  0.4741
  850MOL0     H14683   3.928   2.649   1.756 -1.1669  0.5713  1.7190
  850MOL0     H14684   4.155   2.607   1.793 -1.3305  1.0570  0.5010
  850MOL0     H14685   4.334   2.456   1.775 -1.2044  2.1031  0.0934
  850MOL0     H14686   4.369   2.590   1.879 -1.2236 -1.1797  0.0976
  850MOL0     H14687   4.476   2.305   1.946 -3.8682  0.1994 -0.6219
  850MOL0     H14688   4.550   2.462   1.989 -1.7726  2.6245 -1.2405
  850MOL0     H14689   4.527   2.350   1.700 -0.5784  1.3567  0.6190
  850MOL0     H14690   4.660   2.305   1.805 -0.7306  1.0578  1.0510
  850MOL0     H14691   4.573   2.585   1.706 -2.6268 -3.1846 -2.0874
  850MOL0     H14692   4.713   2.568   1.815  0.3469  0.1379 -0.7816
  850MOL0     H14693   4.808   2.401   1.646 -0.6306 -0.1543 -1.1307
  850MOL0     H14694   4.680   2.441   1.541  0.3908  3.5443 -2.7756
  850MOL0     H14695   4.740   2.670   1.501  1.2411 -0.4401 -2.7184
  850MOL0     H14696   4.864   2.672   1.621 -0.1959  1.6479 -0.0692
  850MOL0     H14697   4.854   2.490   1.378 -2.3759 -1.3275  2.3449
  850MOL0     H14698   4.987   2.489   1.493  0.2370 -1.3613 -2.2348
  850MOL0     H14699   5.037   2.651   1.303 -0.1366  0.1642  0.2457
  850MOL0     H14700   4.934   2.765   1.390  1.0049 -0.6102  0.6178
  850MOL0     H14701   5.253   2.562   1.433 -5.3354 -0.6053 -2.2260
  850MOL0     H14702   5.477   2.789   1.702  0.2780 -1.0160 -0.9964
  850MOL0     H14703   5.448   2.617   1.710 -0.3707  0.8245  2.4268
  850MOL0     H14704   5.501   2.601   1.472  1.4384 -1.2671  2.9009
  850MOL0     H14705   5.540   2.770   1.458 -0.2575 -0.5601 -1.0616
  850MOL0     H14706   5.744   2.629   1.480 -3.0661  1.6196 -1.3138
  850MOL0     H14707   5.670   2.535   1.605 -0.9244 -0.5451 -1.2912
  850MOL0     H14708   5.840   2.674   1.718 -1.4224 -1.0347 -0.2204
  850MOL0     H14709   5.686   2.730   1.768 -1.6147 -2.4112  0.2711
  850MOL0     H14710   6.041   2.760   1.625  1.9820  1.3745 -0.4857
  850MOL0     H14711   6.210   2.829   1.453  0.1393 -1.4617 -3.0531
  850MOL0     H14712   6.264   3.044   0.976 -0.6925 -1.8913  1.9345
  850MOL0     H14713   6.471   3.086   0.830  0.1672 -3.6166  0.5198
  850MOL0     H14714   6.857   3.033   0.988 -0.9922 -2.9004 -1.4805
  850MOL0     H14715   6.794   2.965   0.843 -0.6253 -0.4320 -1.3996
  850MOL0     H14716   6.869   3.198   0.724 -1.5747  1.8246  0.3806
  850MOL0     H14717   6.962   3.214   0.881 -0.6881 -0.9246 -0.1409
  850MOL0     H14718   7.024   2.956   0.828 -0.3450  1.4556  1.6774
  850MOL0     H14719   7.016   3.028   0.663  2.9876  0.0411 -0.3119
  850MOL0     H14720   7.175   3.146   0.902 -2.4617 -0.1762  0.7669
  850MOL0     H14721   7.186   3.215   0.757 -2.2820  1.1627  3.0986
  850MOL0     H14722   7.272   3.023   0.626  0.8878  1.7854  0.4291
  850MOL0     H14723   7.282   2.927   0.778  3.0956 -0.2105 -0.5661
  850MOL0     H14724   7.449   3.169   0.730  0.7170 -0.7611 -1.7737
  850MOL0     H14725   7.415   3.094   0.889 -2.1880  0.9017 -0.3484
  850MOL0     H14726   7.496   2.920   0.649 -1.9520  4.0152 -2.3080
  850MOL0     H14727   7.512   2.891   0.824 -1.4228 -2.4708 -2.6114
  850MOL0     H14728   7.682   3.092   0.677 -1.0500  0.3151 -0.9335
  850MOL0     H14729   7.700   3.059   0.843  2.8432  0.9330 -1.3982
  850MOL0     H14730   6.721   3.103   1.158 -0.0541 -0.6205  0.5224
  850MOL0     H14731   6.529   2.994   1.316 -1.4860 -1.1676 -0.0262
  850MOL0     H14732   5.917   3.102   1.293  0.2936  0.5430 -0.0748
  850MOL0     H14733   5.750   3.019   1.454 -0.0183  0.1557  3.2764
  850MOL0     H14734   4.087   2.296   2.063 -1.5436  0.9488  0.8980
  850MOL0     H14735   3.820   2.322   2.012 -3.3692  2.1389 -2.1433
  850MOL0     H14736   3.580   2.611   1.674  2.2845 -1.2136  2.7566
  850MOL0     H14737   3.371   2.657   1.554  0.0332 -0.0724 -0.6540
  850MOL0     H14738   3.165   2.714   1.478 -2.3470 -0.6163 -2.3348
  850MOL0     H14739   3.125   2.747   1.647 -2.0715  1.1878  0.2410
  850MOL0     H14740   2.929   2.796   1.501 -3.2947 -1.0233 -2.0527
  850MOL0     H14741   2.898   2.667   1.618 -5.4174 -1.1475 -3.0092
  850MOL0     H14742   2.917   2.504   1.451  4.0696 -0.2968 -0.6939
  850MOL0     H14743   3.002   2.614   1.345  1.3830  1.3385  1.0009
  850MOL0     H14744   2.723   2.580   1.299  0.4186  0.2858 -0.8765
  850MOL0     H14745   2.708   2.698   1.427  0.1365  2.6829 -1.8576
  850MOL0     H14746   2.878   2.933   1.128  2.0358 -1.0929 -1.0571
  850MOL0     H14747   3.177   2.346   1.784 -1.3779  3.1031  2.1042
  850MOL0     H14748   3.460   2.190   1.878  2.9137  2.1951  1.7644
  850MOL0     H14749   3.386   2.278   2.011 -0.1459  1.5727  0.0694
  850MOL0     H14750   3.286   2.188   1.892  0.1082  0.1210 -1.2141
  851MOL0     O14751   0.767   3.069   5.468  0.7076  0.0689  0.3610
  851MOL0     C14752   0.699   3.109   5.377  0.2710  0.7961  0.9389
  851MOL0     O14753   0.748   3.163   5.255 -0.3171  0.4879  0.1704
  851MOL0     C14754   0.884   3.194   5.233 -0.6860 -0.1047  0.5713
  851MOL0     C14755   0.910   3.208   5.096  0.5083  0.7282 -0.7385
  851MOL0     C14756   1.038   3.232   5.051  0.0217 -0.5497  0.5783
  851MOL0     C14757   1.144   3.258   5.143 -0.7827 -0.1501  0.5259
  851MOL0     O14758   1.261   3.279   5.080  0.4287  0.5810 -0.5193
  851MOL0     C14759   1.382   3.296   5.160  0.5037  0.4841  0.6880
  851MOL0     C14760   1.510   3.320   5.077  0.4822 -0.2162  0.2446
  851MOL0     C14761   1.623   3.391   5.155 -0.6517  0.1865 -0.0618
  851MOL0     C14762   1.758   3.401   5.080 -0.5392 -0.2971 -0.7195
  851MOL0     C14763   1.867   3.487   5.159  0.2041 -0.1918  0.1576
  851MOL0     C14764   1.996   3.501   5.077  0.5201 -0.2728 -0.0782
  851MOL0     C14765   2.115   3.565   5.159  0.2964  0.3099  0.0108
  851MOL0     C14766   2.123   3.707   5.213  0.1942 -0.1457 -0.0043
  851MOL0     N14767   2.110   3.810   5.105 -0.1619 -0.4737 -0.3988
  851MOL0     C14768   2.026   3.923   5.109  0.0030 -1.0412 -0.4530
  851MOL0     C14769   2.050   3.993   4.993  0.8121 -0.1845  0.2717
  851MOL0     C14770   1.984   4.124   4.952 -0.5314  0.4032 -0.1161
  851MOL0     C14771   1.979   4.128   4.801 -0.0459 -0.2442  0.6304
  851MOL0     C14772   1.913   4.257   4.749  0.3665  0.6464  1.1624
  851MOL0     C14773   2.003   4.320   4.637  0.1481  0.4307  0.1474
  851MOL0     O14774   2.133   4.360   4.691  0.7305  0.3420  0.0184
  851MOL0     C14775   2.240   4.358   4.610  0.4620  0.3057 -0.8562
  851MOL0     C14776   2.273   4.244   4.534 -0.4712  0.6478  0.9329
  851MOL0     C14777   2.390   4.247   4.455 -0.5903  0.3536 -0.4008
  851MOL0     C14778   2.469   4.365   4.453  0.9060  0.3518  0.6452
  851MOL0     C14779   2.591   4.374   4.376  0.2184 -0.3639 -0.6408
  851MOL0     O14780   2.663   4.487   4.393  0.4664 -0.4268 -0.2619
  851MOL0     C14781   2.783   4.515   4.334  0.1856 -0.2844  0.1301
  851MOL0     C14782   2.873   4.590   4.417 -0.4648  0.3743  0.2330
  851MOL0     C14783   2.996   4.640   4.355  0.6870 -0.5352 -0.9579
  851MOL0     C14784   3.032   4.594   4.221  0.5418  0.7987 -0.7535
  851MOL0     O14785   3.148   4.646   4.173  0.5630 -0.3494  0.5612
  851MOL0     C14786   3.234   4.546   4.114  0.0221  0.2631  0.5829
  851MOL0     C14787   3.348   4.612   4.034 -0.9941 -0.5624  0.1076
  851MOL0     C14788   3.292   4.692   3.906  0.0978  0.8099  0.5463
  851MOL0     C14789   3.412   4.704   3.802  0.4115  0.1303 -0.5743
  851MOL0     C14790   3.540   4.764   3.854 -0.4829 -0.0582 -0.8749
  851MOL0     C14791   3.604   4.841   3.735 -0.1072 -0.0724  0.5029
  851MOL0     C14792   3.738   4.901   3.783  0.4904  0.8418  0.7080
  851MOL0     C14793   3.829   4.947   3.674 -0.2871  0.3126 -0.1246
  851MOL0    Cl14794   3.977   5.039   3.713 -0.2705  0.0938  0.2834
  851MOL0     C14795   2.937   4.522   4.154  1.3935  0.3484 -0.5069
  851MOL0     C14796   2.821   4.475   4.203  0.2343  0.3277 -0.3719
  851MOL0     O14797   2.618   4.283   4.303 -0.2474  0.3588 -0.1016
  851MOL0     C14798   2.431   4.477   4.529  0.2301 -0.7217  0.7020
  851MOL0     C14799   2.318   4.478   4.612 -0.7651  0.0011  0.1434
  851MOL0     N14800   2.149   3.923   4.926  0.3960 -0.1206  0.2645
  851MOL0     N14801   2.181   3.814   4.988 -0.0825  0.0758 -0.1937
  851MOL0     C14802   1.111   3.255   5.284 -0.3074 -0.3675  0.3754
  851MOL0     C14803   0.985   3.219   5.333  0.7876  0.5842 -0.3956
  851MOL0     C14804   0.548   3.083   5.371  0.4513 -0.1338  0.9102
  851MOL0     C14805   0.487   3.075   5.244 -0.7305 -0.3356  0.3132
  851MOL0     C14806   0.354   3.041   5.224  0.2755 -0.6629 -0.2002
  851MOL0     C14807   0.274   3.024   5.334 -0.2167 -0.4662 -0.4681
  851MOL0     O14808   0.144   2.991   5.318  0.2676  0.1603 -0.0498
  851MOL0     C14809   0.050   3.100   5.338 -0.1326 -0.8041  0.0047
  851MOL0     C14810  -0.009   3.138   5.199 -0.5749  0.4093 -0.6076
  851MOL0     C14811  -0.140   3.223   5.205 -0.7242  0.6288  0.0367
  851MOL0     C14812  -0.186   3.267   5.064  0.0637  0.1617 -0.0617
  851MOL0     C14813  -0.309   3.345   5.065  0.0697 -0.1650  0.5454
  851MOL0     C14814  -0.415   3.404   5.058  0.1111 -0.1505 -0.1120
  851MOL0     C14815   0.334   3.042   5.464 -0.3804  0.0158  0.7990
  851MOL0     C14816   0.469   3.066   5.482 -0.6216 -0.9172 -0.6774
  851MOL0     C14817   0.521   3.070   5.618 -0.7310 -0.2090 -0.2121
  851MOL0     H14818   0.820   3.183   5.041 -2.1399 -0.2498  3.5739
  851MOL0     H14819   1.066   3.238   4.946  1.4672  1.4371  1.0241
  851MOL0     H14820   1.355   3.382   5.221 -1.7892  0.6486 -0.4496
  851MOL0     H14821   1.397   3.215   5.233 -0.4963  1.6041  2.1863
  851MOL0     H14822   1.476   3.375   4.989  1.3412 -1.3024 -0.7920
  851MOL0     H14823   1.538   3.221   5.041 -1.4915 -0.7655  0.1112
  851MOL0     H14824   1.640   3.346   5.252  0.8010 -1.1433 -0.8889
  851MOL0     H14825   1.590   3.492   5.181 -2.5617 -0.9195  2.0376
  851MOL0     H14826   1.797   3.300   5.067  2.1694  0.6252 -0.4827
  851MOL0     H14827   1.743   3.452   4.984  2.3274  1.5755 -0.3030
  851MOL0     H14828   1.830   3.587   5.186  2.7387  0.2805  2.2733
  851MOL0     H14829   1.888   3.448   5.259 -1.4912 -1.4840  0.0633
  851MOL0     H14830   2.033   3.412   5.026  1.1076  0.0262 -0.1905
  851MOL0     H14831   1.990   3.575   4.996 -0.6536  1.8478  1.8342
  851MOL0     H14832   2.191   3.562   5.080 -0.7101 -2.3538 -0.9611
  851MOL0     H14833   2.142   3.493   5.237 -1.4521 -1.8758 -1.2568
  851MOL0     H14834   2.040   3.717   5.284 -0.7996 -4.0689 -0.3835
  851MOL0     H14835   2.216   3.732   5.264 -0.5614  0.9978  0.8687
  851MOL0     H14836   1.960   3.954   5.190 -2.9509 -3.0038 -1.9181
  851MOL0     H14837   1.884   4.124   4.997 -0.4349  0.5580  0.1028
  851MOL0     H14838   2.045   4.202   5.000  2.4248 -2.8850  1.9079
  851MOL0     H14839   2.079   4.121   4.756  0.2234  0.5429  1.0860
  851MOL0     H14840   1.919   4.045   4.763  1.7106 -0.3669 -2.2292
  851MOL0     H14841   1.907   4.334   4.827  1.2320  2.3148 -0.3604
  851MOL0     H14842   1.818   4.234   4.700  2.0557 -0.8512 -1.6674
  851MOL0     H14843   1.943   4.408   4.610 -0.8043  0.3668  1.8777
  851MOL0     H14844   2.005   4.265   4.543 -0.9207  2.9664 -1.4534
  851MOL0     H14845   2.216   4.152   4.540  0.7967 -0.0962  2.2267
  851MOL0     H14846   2.424   4.159   4.401 -2.6965  0.3858 -1.9260
  851MOL0     H14847   2.849   4.607   4.522 -1.8048 -1.8447  0.3526
  851MOL0     H14848   3.066   4.705   4.406  0.2527 -0.7553 -0.0570
  851MOL0     H14849   3.278   4.474   4.184  2.8155 -0.3554 -1.6130
  851MOL0     H14850   3.169   4.490   4.046 -0.6392  0.7192  0.8389
  851MOL0     H14851   3.408   4.681   4.094 -1.5397  0.7559 -0.8039
  851MOL0     H14852   3.420   4.537   4.000 -0.2760  0.4034 -0.5485
  851MOL0     H14853   3.205   4.642   3.863  0.7089 -0.9297  1.2636
  851MOL0     H14854   3.255   4.793   3.926  0.3609  1.1134 -0.4286
  851MOL0     H14855   3.379   4.757   3.712  0.0254 -1.0237 -1.1239
  851MOL0     H14856   3.444   4.606   3.767  0.3587 -0.9320  2.1270
  851MOL0     H14857   3.605   4.684   3.890 -2.2537 -0.7499  0.9410
  851MOL0     H14858   3.528   4.830   3.940  0.9815 -0.7165 -0.1280
  851MOL0     H14859   3.615   4.771   3.651  1.2288 -0.4272  0.9564
  851MOL0     H14860   3.547   4.922   3.688  1.7905  0.2841 -1.3315
  851MOL0     H14861   3.793   4.824   3.838  2.5240  1.3754 -0.4354
  851MOL0     H14862   3.721   4.983   3.853  0.1764  1.6647 -0.2941
  851MOL0     H14863   3.860   4.863   3.612 -0.0373  1.6605 -1.9184
  851MOL0     H14864   3.766   5.012   3.613 -0.3943  1.7395  1.4112
  851MOL0     H14865   2.956   4.506   4.048  2.3615 -0.6964 -0.1970
  851MOL0     H14866   2.759   4.413   4.139 -1.7239 -1.5260  3.0051
  851MOL0     H14867   2.489   4.567   4.516  0.6217 -1.3277 -2.7855
  851MOL0     H14868   2.291   4.559   4.679  1.7590  0.1641  1.0743
  851MOL0     H14869   1.184   3.280   5.361 -2.9359  0.6330  2.6773
  851MOL0     H14870   0.961   3.205   5.438  1.1419  0.7115 -0.2943
  851MOL0     H14871   0.531   3.088   5.146 -1.7659 -1.0633 -0.2666
  851MOL0     H14872   0.309   3.032   5.126 -3.9303  2.6042  1.1421
  851MOL0     H14873   0.102   3.188   5.376 -1.2318 -1.1246  2.4717
  851MOL0     H14874  -0.033   3.082   5.407  0.6843  1.7407  1.7896
  851MOL0     H14875  -0.040   3.046   5.147 -0.3712 -0.5454  0.9092
  851MOL0     H14876   0.071   3.196   5.152 -0.7268  1.0892 -0.0399
  851MOL0     H14877  -0.123   3.310   5.269 -1.7366  0.5965  0.3723
  851MOL0     H14878  -0.223   3.162   5.240  1.2772 -2.2705  0.0622
  851MOL0     H14879  -0.105   3.318   5.012  0.7206  0.6154  1.3609
  851MOL0     H14880  -0.203   3.180   4.999  2.8985  0.2165 -0.9862
  851MOL0     H14881  -0.513   3.449   5.058 -1.0035 -2.3581  1.6266
  851MOL0     H14882   0.268   3.035   5.550  0.2340 -0.6082  1.2334
  851MOL0     H14883   0.586   2.984   5.637 -3.7846 -2.2402  1.8068
  851MOL0     H14884   0.570   3.166   5.640 -0.7842  0.4441 -2.6373
  851MOL0     H14885   0.437   3.058   5.687  0.0112 -1.8842  0.4569
  852MOL0     O14886   9.766   4.651   0.680  0.7201 -0.0481  0.3379
  852MOL0     C14887   9.812   4.537   0.673 -0.6572  0.3595  0.1125
  852MOL0     O14888   9.744   4.417   0.663  0.1636  0.0075  0.8033
  852MOL0     C14889   9.610   4.421   0.655 -0.1699  0.3894 -0.5381
  852MOL0     C14890   9.535   4.367   0.757  0.2416 -0.3822 -0.0963
  852MOL0     C14891   9.390   4.366   0.744 -0.4431 -1.1817  0.3717
  852MOL0     C14892   9.322   4.419   0.626  0.9228  0.4171 -0.7046
  852MOL0     O14893   9.184   4.432   0.628  1.1369 -0.5683 -0.2818
  852MOL0     C14894   9.105   4.416   0.753  1.1677  1.0309  0.3790
  852MOL0     C14895   8.958   4.379   0.719 -0.2226 -0.0083  0.1066
  852MOL0     C14896   8.887   4.499   0.650  0.3191 -0.4420 -0.8713
  852MOL0     C14897   8.839   4.589   0.766  0.6724 -0.9947 -0.0964
  852MOL0     C14898   8.778   4.725   0.725 -0.3516  0.3767 -0.7969
  852MOL0     C14899   8.746   4.809   0.849  0.6569 -0.5753 -0.1075
  852MOL0     C14900   8.613   4.775   0.917  0.7812  0.4973  0.0764
  852MOL0     C14901   8.565   4.861   1.030 -0.7012  0.1656 -1.2159
  852MOL0     N14902   8.543   5.003   0.999  0.5690  0.4206 -0.6501
  852MOL0     C14903   8.455   5.046   0.906 -0.3633 -0.6365  0.0173
  852MOL0     C14904   8.507   5.160   0.862  0.3101  0.1005 -0.4528
  852MOL0     C14905   8.434   5.244   0.770  0.5302  0.0002  1.4839
  852MOL0     C14906   8.509   5.240   0.635 -0.2593 -0.8042  0.4798
  852MOL0     C14907   8.459   5.347   0.534  0.0241 -0.1222 -0.7564
  852MOL0     C14908   8.530   5.353   0.399  0.0963 -0.4210 -0.4434
  852MOL0     O14909   8.497   5.248   0.306  0.0601 -0.0896  0.1970
  852MOL0     C14910   8.598   5.214   0.213 -0.7611 -0.3618  0.2079
  852MOL0     C14911   8.653   5.084   0.211 -0.3814  0.8875  0.2147
  852MOL0     C14912   8.753   5.066   0.111  1.2060  0.1253 -0.6332
  852MOL0     C14913   8.794   5.162   0.013  0.5039  0.0730 -0.1482
  852MOL0     C14914   8.891   5.130  -0.087 -0.0182  1.1723 -0.1363
  852MOL0     O14915   8.984   5.034  -0.066  0.3817  0.4637 -0.1665
  852MOL0     C14916   9.087   5.000  -0.153 -0.3790 -0.8362 -0.3474
  852MOL0     C14917   9.078   4.998  -0.290 -0.1729 -0.5771 -0.1348
  852MOL0     C14918   9.187   4.970  -0.372 -0.3419 -0.0828  0.2443
  852MOL0     C14919   9.309   4.940  -0.307  0.7139  0.7532  0.1335
  852MOL0     O14920   9.433   4.908  -0.379  0.7499  0.0259 -0.3083
  852MOL0     C14921   9.428   4.848  -0.514 -0.0268  0.0506 -0.4877
  852MOL0     C14922   9.373   4.698  -0.496  0.1962 -0.7765 -0.0252
  852MOL0     C14923   9.276   4.644  -0.599  0.4110 -0.1119 -0.2552
  852MOL0     C14924   9.338   4.619  -0.732  0.2261  0.2977  0.3104
  852MOL0     C14925   9.249   4.547  -0.826  0.1318  0.7437  0.3882
  852MOL0     C14926   9.311   4.506  -0.957 -0.5118  0.6661 -0.8563
  852MOL0     C14927   9.199   4.456  -1.062  0.1894  0.5478  0.4130
  852MOL0     C14928   9.268   4.442  -1.202  0.6402  0.2203  0.3038
  852MOL0    Cl14929   9.332   4.596  -1.268  0.4412 -0.2802 -0.1502
  852MOL0     C14930   9.315   4.941  -0.170  0.2132 -0.9696  0.3680
  852MOL0     C14931   9.203   4.969  -0.093  0.4806  0.3562  0.0242
  852MOL0     O14932   8.893   5.203  -0.185  0.2783 -0.2791 -0.7064
  852MOL0     C14933   8.736   5.281   0.023 -0.4455  0.0120  0.3776
  852MOL0     C14934   8.645   5.315   0.127 -0.1077 -0.5228 -1.1111
  852MOL0     N14935   8.619   5.186   0.924 -0.9530 -0.9597 -0.1950
  852MOL0     N14936   8.641   5.095   1.012 -0.0614 -0.6843  0.4816
  852MOL0     C14937   9.403   4.472   0.526  0.2699  0.0630 -0.4353
  852MOL0     C14938   9.545   4.471   0.542  0.1351 -0.5499  0.7581
  852MOL0     C14939   9.964   4.519   0.681  0.1416 -0.4126  0.8946
  852MOL0     C14940  10.018   4.397   0.723 -0.2348 -0.0404 -0.4321
  852MOL0     C14941  10.154   4.368   0.736 -0.4695 -0.0522  0.4565
  852MOL0     C14942  10.246   4.463   0.680 -0.0706 -0.8410 -0.0538
  852MOL0     O14943  10.380   4.438   0.683  0.0150 -0.1361 -0.1148
  852MOL0     C14944  10.487   4.520   0.634 -0.3811  0.7305 -0.3068
  852MOL0     C14945  10.529   4.634   0.732 -0.3127  0.3146  0.5083
  852MOL0     C14946  10.559   4.597   0.871 -0.1280  0.5980  0.4922
  852MOL0     C14947  10.705   4.579   0.907  0.0632  0.1043 -0.0023
  852MOL0     C14948  10.761   4.456   0.847 -0.6616  0.3370  0.1732
  852MOL0     C14949  10.796   4.350   0.792  0.2229  0.4669 -0.9989
  852MOL0     C14950  10.193   4.589   0.636 -0.4066 -0.6201  0.6847
  852MOL0     C14951  10.054   4.611   0.628 -0.8509  0.2748 -0.0051
  852MOL0     C14952  10.017   4.733   0.553 -0.4683 -0.7172 -0.3220
  852MOL0     H14953   9.580   4.322   0.845 -0.2939  1.1768  1.0067
  852MOL0     H14954   9.339   4.335   0.835  2.5664 -1.2697  2.1526
  852MOL0     H14955   9.136   4.332   0.816  0.4074 -0.1590 -0.7850
  852MOL0     H14956   9.120   4.512   0.804  3.3141  0.7376  0.3915
  852MOL0     H14957   8.897   4.347   0.803  1.5553 -0.1974  1.3918
  852MOL0     H14958   8.961   4.302   0.641 -0.8896  1.8028 -1.8104
  852MOL0     H14959   8.807   4.460   0.587  0.8556 -0.4423 -1.5592
  852MOL0     H14960   8.959   4.550   0.586 -1.2479 -0.2070 -2.5326
  852MOL0     H14961   8.773   4.533   0.833 -0.8040 -1.2444 -1.6847
  852MOL0     H14962   8.926   4.623   0.822  1.4891  2.4889 -3.1445
  852MOL0     H14963   8.854   4.775   0.664  2.0857 -1.2741  0.6842
  852MOL0     H14964   8.692   4.706   0.660 -2.2932  0.1222  1.6992
  852MOL0     H14965   8.826   4.800   0.923  0.7097  1.1445  0.0902
  852MOL0     H14966   8.731   4.911   0.811  0.7032 -1.3020 -2.1690
  852MOL0     H14967   8.623   4.677   0.965 -3.1937 -0.4147 -0.6455
  852MOL0     H14968   8.524   4.765   0.855 -0.9778 -0.6768  2.6027
  852MOL0     H14969   8.473   4.824   1.075 -0.4812  1.1543  0.0841
  852MOL0     H14970   8.644   4.852   1.105 -1.3071 -4.2961 -0.8320
  852MOL0     H14971   8.363   4.995   0.877 -1.3417  0.4988  1.0189
  852MOL0     H14972   8.328   5.215   0.770  1.0536 -2.4814  4.1823
  852MOL0     H14973   8.449   5.344   0.811 -1.5541  1.3618 -0.8334
  852MOL0     H14974   8.613   5.268   0.658 -1.1010  2.2874  0.9652
  852MOL0     H14975   8.508   5.149   0.575  0.3793  0.4562 -1.5316
  852MOL0     H14976   8.462   5.448   0.576 -2.1825  0.2765 -1.4489
  852MOL0     H14977   8.354   5.323   0.520  0.5460 -1.7243 -2.1775
  852MOL0     H14978   8.639   5.353   0.409  0.2671 -3.7933 -1.2934
  852MOL0     H14979   8.504   5.451   0.359  0.1603  0.7387  2.1269
  852MOL0     H14980   8.608   5.006   0.271 -1.7771  0.4892 -1.2939
  852MOL0     H14981   8.801   4.969   0.102  0.6962 -0.2435  0.5357
  852MOL0     H14982   8.990   5.007  -0.353  0.3089 -1.6038 -0.9885
  852MOL0     H14983   9.176   4.973  -0.480  1.6853 -0.4217 -0.0159
  852MOL0     H14984   9.360   4.900  -0.582  0.0493  1.2878  0.3461
  852MOL0     H14985   9.529   4.851  -0.556  1.6380  2.3554  3.1605
  852MOL0     H14986   9.463   4.636  -0.496  0.6252 -0.1929  1.4214
  852MOL0     H14987   9.333   4.691  -0.395  1.7767  2.3226  0.9384
  852MOL0     H14988   9.238   4.547  -0.564  0.3023 -0.0613 -0.2310
  852MOL0     H14989   9.196   4.718  -0.606 -0.2819 -0.7957  0.2339
  852MOL0     H14990   9.426   4.555  -0.718 -0.7309 -1.5714 -1.4913
  852MOL0     H14991   9.366   4.716  -0.774  2.7119  0.5446  2.3276
  852MOL0     H14992   9.156   4.605  -0.827 -2.3674 -2.9011  0.9210
  852MOL0     H14993   9.214   4.453  -0.781 -1.8465  1.0361 -0.4385
  852MOL0     H14994   9.359   4.597  -0.994  3.0360 -0.5920  0.2287
  852MOL0     H14995   9.390   4.434  -0.934 -0.6781  0.9967  0.9650
  852MOL0     H14996   9.112   4.521  -1.076 -0.2907 -0.1965 -0.0734
  852MOL0     H14997   9.166   4.354  -1.040  1.6864 -0.1273 -0.3360
  852MOL0     H14998   9.354   4.380  -1.175 -0.4479 -0.7585  1.6840
  852MOL0     H14999   9.199   4.384  -1.264  0.9993  1.0978 -0.9598
  852MOL0     H15000   9.406   4.909  -0.120  0.7555  0.1698  0.1619
  852MOL0     H15001   9.212   4.965   0.015  2.6689  0.6911 -0.0858
  852MOL0     H15002   8.751   5.364  -0.046 -0.5608 -0.5506 -0.3327
  852MOL0     H15003   8.600   5.414   0.131  0.9628 -0.0560  2.9298
  852MOL0     H15004   9.356   4.522   0.442  1.3427  1.5275 -0.1933
  852MOL0     H15005   9.600   4.524   0.465  0.0288  2.0713  2.3524
  852MOL0     H15006   9.946   4.328   0.765 -0.5839 -0.1044 -1.1333
  852MOL0     H15007  10.182   4.275   0.784 -0.2615  0.5234  1.4969
  852MOL0     H15008  10.462   4.561   0.536  0.0610  1.2013 -0.2237
  852MOL0     H15009  10.566   4.449   0.608 -1.2428 -0.8224  1.1042
  852MOL0     H15010  10.450   4.709   0.740 -1.6376 -1.2012  2.2119
  852MOL0     H15011  10.614   4.687   0.686 -0.0750  0.2111  0.8237
  852MOL0     H15012  10.501   4.506   0.891 -2.7898  1.1460 -3.5832
  852MOL0     H15013  10.531   4.680   0.936  4.3857  1.6015  1.4827
  852MOL0     H15014  10.762   4.665   0.871  0.1573 -0.0971 -0.3379
  852MOL0     H15015  10.702   4.578   1.017 -3.1859  0.5907  0.0082
  852MOL0     H15016  10.824   4.268   0.730 -1.7404  0.2828 -1.6830
  852MOL0     H15017  10.253   4.671   0.597 -0.7722 -1.4339 -1.7656
  852MOL0     H15018  10.092   4.761   0.478  1.9020 -4.6975  0.2871
  852MOL0     H15019   9.922   4.730   0.499 -0.6034  1.3827 -0.2842
  852MOL0     H15020  10.015   4.821   0.618 -0.4432 -0.4581 -0.6666
  853MOL0     O15021   2.915   7.015   8.855  0.1414 -0.0954  0.1509
  853MOL0     C15022   2.872   6.998   8.737  0.0920 -0.5896  0.0872
  853MOL0     O15023   2.951   6.961   8.628 -0.3624  0.5206 -0.8453
  853MOL0     C15024   3.085   6.933   8.664  0.4471  0.5264  0.3047
  853MOL0     C15025   3.179   7.026   8.623 -0.2895 -0.7963 -0.4219
  853MOL0     C15026   3.317   7.007   8.654  0.1815 -0.3844  0.4409
  853MOL0     C15027   3.358   6.903   8.734  0.3630 -0.0890 -0.2229
  853MOL0     O15028   3.488   6.885   8.756  0.2973  0.0760  0.2766
  853MOL0     C15029   3.535   6.983   8.849 -0.3767  0.0137 -0.0672
  853MOL0     C15030   3.689   6.981   8.870  0.5086 -0.0041 -0.1595
  853MOL0     C15031   3.769   7.003   8.740 -0.3393  0.5583 -0.2344
  853MOL0     C15032   3.921   6.974   8.762 -0.5614  0.5249 -0.3991
  853MOL0     C15033   3.987   7.085   8.852  0.2288 -0.5354  0.2526
  853MOL0     C15034   4.145   7.108   8.833  0.1853  0.0104 -0.4303
  853MOL0     C15035   4.234   6.979   8.830 -0.1058  0.7810  0.6236
  853MOL0     C15036   4.385   6.984   8.826  0.1863  0.2204 -1.1416
  853MOL0     N15037   4.461   6.858   8.803  0.8747 -0.8461 -0.7798
  853MOL0     C15038   4.404   6.734   8.823  0.4217 -0.7155 -0.2588
  853MOL0     C15039   4.464   6.654   8.732 -0.1170 -0.4524  0.1357
  853MOL0     C15040   4.424   6.514   8.702  0.2205 -0.6841 -0.0853
  853MOL0     C15041   4.440   6.487   8.559  0.5947 -0.7035  0.0638
  853MOL0     C15042   4.388   6.351   8.520  0.2954 -0.1829 -0.1770
  853MOL0     C15043   4.391   6.322   8.368  0.2956  0.4808 -0.5183
  853MOL0     O15044   4.320   6.421   8.284 -0.0545 -0.2554 -0.5252
  853MOL0     C15045   4.185   6.409   8.261  0.1886 -0.1491  0.4787
  853MOL0     C15046   4.135   6.483   8.153 -0.2839  0.6386 -0.3095
  853MOL0     C15047   4.002   6.489   8.119  0.0747  0.0810  0.7071
  853MOL0     C15048   3.910   6.407   8.182 -0.0070  0.2888  0.1968
  853MOL0     C15049   3.769   6.408   8.142  0.7179 -0.0920 -0.4863
  853MOL0     O15050   3.730   6.473   8.028  0.2425  0.2245  0.1239
  853MOL0     C15051   3.593   6.470   7.987  0.4898 -0.0215 -0.0577
  853MOL0     C15052   3.578   6.503   7.852 -0.8861  0.1034  0.0951
  853MOL0     C15053   3.447   6.517   7.803 -0.0545  0.0810  0.7669
  853MOL0     C15054   3.332   6.498   7.882  0.0109  0.3305 -0.5904
  853MOL0     O15055   3.216   6.492   7.816 -0.0308  0.0189  0.6559
  853MOL0     C15056   3.109   6.414   7.879  0.2264  0.7881  1.2825
  853MOL0     C15057   2.994   6.398   7.779 -0.1985 -0.7936  0.1105
  853MOL0     C15058   2.874   6.342   7.851 -1.2452  0.2851  0.3781
  853MOL0     C15059   2.750   6.341   7.757 -0.1169  0.1027  1.1487
  853MOL0     C15060   2.625   6.301   7.832 -0.4026 -0.3896 -0.2982
  853MOL0     C15061   2.498   6.305   7.750  0.4271 -0.1491  0.1743
  853MOL0     C15062   2.394   6.227   7.838  0.8307  0.1904 -0.3223
  853MOL0     C15063   2.322   6.328   7.918  0.5040 -0.0340 -1.0019
  853MOL0    Cl15064   2.405   6.355   8.067  0.4370  0.2004  0.1890
  853MOL0     C15065   3.346   6.471   8.015  0.8169 -0.6481  0.2222
  853MOL0     C15066   3.477   6.462   8.068  0.2416  1.1011 -0.2988
  853MOL0     O15067   3.695   6.347   8.221  0.8079 -0.5325  0.5932
  853MOL0     C15068   3.956   6.323   8.283  0.2106  0.2796 -0.4886
  853MOL0     C15069   4.093   6.326   8.323 -0.9112  0.0426 -0.0156
  853MOL0     N15070   4.567   6.726   8.675 -0.3722  0.5440  0.6531
  853MOL0     N15071   4.570   6.847   8.714 -0.3586  0.1052 -0.5632
  853MOL0     C15072   3.256   6.806   8.773  0.2821  0.4596  0.3444
  853MOL0     C15073   3.128   6.822   8.731  0.9250 -0.2988  0.4319
  853MOL0     C15074   2.730   7.019   8.709 -0.3871 -0.0582  0.9665
  853MOL0     C15075   2.686   6.993   8.575 -0.9586 -0.3065 -0.1745
  853MOL0     C15076   2.554   7.004   8.543 -0.1974 -0.4330  0.2966
  853MOL0     C15077   2.454   7.051   8.634  0.1007  0.5221 -0.2257
  853MOL0     O15078   2.320   7.049   8.616 -0.6113  0.4483 -0.1924
  853MOL0     C15079   2.274   6.972   8.504  0.3134  0.2748  0.1446
  853MOL0     C15080   2.119   6.994   8.497 -0.6913  0.4523 -0.2696
  853MOL0     C15081   2.069   6.910   8.384  0.2273  0.4519 -0.0311
  853MOL0     C15082   1.918   6.923   8.376  0.6490 -0.2496  0.0905
  853MOL0     C15083   1.879   6.967   8.244 -0.9419 -0.3686  0.2389
  853MOL0     C15084   1.850   6.995   8.131 -0.2066 -0.2272 -0.7437
  853MOL0     C15085   2.495   7.075   8.765  0.0240 -0.2992 -0.1450
  853MOL0     C15086   2.628   7.059   8.806  0.3851  0.8407  0.7019
  853MOL0     C15087   2.650   7.073   8.955  0.5407  0.0418 -0.2600
  853MOL0     H15088   3.157   7.121   8.575  1.6422  1.1233  2.2362
  853MOL0     H15089   3.388   7.086   8.635  1.2100 -1.4155 -0.1783
  853MOL0     H15090   3.509   7.085   8.817  0.6339 -0.1627 -1.5591
  853MOL0     H15091   3.492   6.959   8.946 -2.7131  0.3412 -0.9639
  853MOL0     H15092   3.723   6.890   8.919  3.0859 -0.6484 -2.8564
  853MOL0     H15093   3.714   7.066   8.934  0.6625  0.5791 -0.9731
  853MOL0     H15094   3.743   7.104   8.706  4.0822  2.1703  0.4406
  853MOL0     H15095   3.733   6.931   8.666  0.4896 -1.9497  1.6701
  853MOL0     H15096   3.950   6.878   8.805  1.3007  1.1610 -0.1155
  853MOL0     H15097   3.979   6.988   8.670  1.4816  3.8835  1.2095
  853MOL0     H15098   3.938   7.180   8.827 -0.1067 -0.2471  1.8445
  853MOL0     H15099   3.970   7.062   8.958  1.9027 -2.3391  0.1895
  853MOL0     H15100   4.150   7.162   8.738 -3.4757  2.1812  0.4290
  853MOL0     H15101   4.182   7.172   8.913 -0.5714 -1.9012  1.5600
  853MOL0     H15102   4.201   6.918   8.745 -0.7471  0.8409  0.8248
  853MOL0     H15103   4.220   6.921   8.921 -0.7378 -1.8860 -1.0570
  853MOL0     H15104   4.416   7.058   8.752 -1.3705  0.4732 -1.5824
  853MOL0     H15105   4.421   7.021   8.922 -2.4112  2.0585 -0.7469
  853MOL0     H15106   4.318   6.712   8.886 -1.1120  2.7502 -0.9124
  853MOL0     H15107   4.491   6.447   8.756 -0.1784 -1.9668 -1.1510
  853MOL0     H15108   4.320   6.506   8.735  0.0408  0.3232 -0.3693
  853MOL0     H15109   4.389   6.567   8.504 -0.2268  1.4226  3.5666
  853MOL0     H15110   4.543   6.507   8.529 -0.1023  0.7102 -1.5569
  853MOL0     H15111   4.281   6.346   8.545 -0.1586 -0.5186 -2.0115
  853MOL0     H15112   4.443   6.271   8.569  3.5734  1.1273 -1.4674
  853MOL0     H15113   4.366   6.216   8.351  1.3834  0.2459 -0.7249
  853MOL0     H15114   4.491   6.328   8.325  0.7078 -2.8225 -0.2748
  853MOL0     H15115   4.196   6.560   8.107 -0.8921  1.8788  0.8888
  853MOL0     H15116   3.971   6.555   8.038  0.4726 -3.3729 -2.5100
  853MOL0     H15117   3.668   6.525   7.795 -1.3114 -0.0604 -0.6519
  853MOL0     H15118   3.429   6.530   7.697  2.9293  0.8320  0.2408
  853MOL0     H15119   3.136   6.312   7.911 -0.2813  0.1016 -0.3662
  853MOL0     H15120   3.077   6.474   7.965  0.2591  4.5146 -1.0914
  853MOL0     H15121   2.978   6.499   7.740 -0.5123 -1.1889 -0.8118
  853MOL0     H15122   3.027   6.333   7.699 -1.9878 -0.6008 -0.8288
  853MOL0     H15123   2.885   6.238   7.883 -2.7917 -1.8253 -4.9001
  853MOL0     H15124   2.863   6.405   7.940  2.2744 -0.8628  1.8051
  853MOL0     H15125   2.775   6.269   7.679 -3.2993  0.4276 -0.3113
  853MOL0     H15126   2.732   6.442   7.719 -2.2511 -1.2524 -1.7647
  853MOL0     H15127   2.611   6.372   7.914 -1.3491  1.5998 -2.0982
  853MOL0     H15128   2.649   6.198   7.859  4.1309  0.2861 -0.9738
  853MOL0     H15129   2.460   6.405   7.731 -1.5458 -0.5154  1.8010
  853MOL0     H15130   2.498   6.255   7.653 -0.6283 -0.0960  0.1334
  853MOL0     H15131   2.448   6.162   7.907  1.0918  3.0225  2.3525
  853MOL0     H15132   2.333   6.174   7.765  1.0505 -1.4183  0.6363
  853MOL0     H15133   2.304   6.423   7.865 -0.9465  0.4225  0.2598
  853MOL0     H15134   2.223   6.286   7.937  0.5301 -0.3742 -1.5767
  853MOL0     H15135   3.270   6.458   8.092 -0.6983  0.1400 -1.0720
  853MOL0     H15136   3.494   6.452   8.175 -0.1778 -0.4907 -0.3670
  853MOL0     H15137   3.895   6.254   8.340 -0.6455 -0.4790 -2.2209
  853MOL0     H15138   4.119   6.268   8.411 -3.4928 -0.2602  0.6219
  853MOL0     H15139   3.288   6.721   8.831  4.5015  0.8591 -1.0109
  853MOL0     H15140   3.055   6.749   8.764  0.4676 -0.5033 -0.9633
  853MOL0     H15141   2.760   6.973   8.498  0.8185  0.2486  1.3050
  853MOL0     H15142   2.542   6.984   8.437  2.1661 -0.0621 -0.0831
  853MOL0     H15143   2.281   6.865   8.524 -0.3871  0.2255  0.1648
  853MOL0     H15144   2.322   7.001   8.410  1.8582  0.0643  0.8458
  853MOL0     H15145   2.109   7.101   8.477  1.1861  0.6624 -0.2773
  853MOL0     H15146   2.075   6.954   8.589 -4.3343  2.4351 -0.9817
  853MOL0     H15147   2.107   6.809   8.402  2.2341  0.6216 -2.7381
  853MOL0     H15148   2.120   6.937   8.291  0.8827  1.0898  0.5118
  853MOL0     H15149   1.867   6.827   8.392 -0.6932  0.6024  1.1131
  853MOL0     H15150   1.873   6.988   8.452  2.6241  0.9614  0.2846
  853MOL0     H15151   1.818   7.019   8.032 -1.0630  1.0258 -0.1825
  853MOL0     H15152   2.431   7.101   8.849  1.3933  2.4835  0.1580
  853MOL0     H15153   2.741   7.132   8.972 -0.1790  1.2360 -0.4729
  853MOL0     H15154   2.562   7.112   9.006 -0.6685 -2.7237 -0.0158
  853MOL0     H15155   2.660   6.971   8.995  1.1564 -0.0643 -0.6486
  854MOL0     O15156   8.368   3.305   8.990 -0.0923 -0.3626 -0.5651
  854MOL0     C15157   8.354   3.192   9.045 -0.4877  0.0096 -0.6490
  854MOL0     O15158   8.451   3.126   9.124  0.3843 -0.0291 -0.0432
  854MOL0     C15159   8.545   3.208   9.175 -0.4581 -0.1223 -0.7732
  854MOL0     C15160   8.519   3.329   9.253  0.2949  0.0819  0.4051
  854MOL0     C15161   8.629   3.399   9.305  0.5060  0.1966 -0.0122
  854MOL0     C15162   8.759   3.356   9.279  1.3260 -0.4397  0.6274
  854MOL0     O15163   8.870   3.416   9.326 -0.7586 -0.3345 -0.3201
  854MOL0     C15164   8.877   3.559   9.333  0.0613 -0.2450  0.2583
  854MOL0     C15165   9.005   3.607   9.409 -0.0632 -0.3272  0.4758
  854MOL0     C15166   9.123   3.518   9.391 -0.2331  0.1394  0.6096
  854MOL0     C15167   9.244   3.567   9.461 -1.2213  0.1400 -0.3963
  854MOL0     C15168   9.301   3.700   9.411 -0.2343  0.3833 -0.8309
  854MOL0     C15169   9.442   3.739   9.467 -0.5807  0.4992 -0.5543
  854MOL0     C15170   9.448   3.741   9.621 -0.0150 -0.0965  0.2207
  854MOL0     C15171   9.583   3.737   9.690 -0.0119 -0.2575 -0.2243
  854MOL0     N15172   9.566   3.760   9.835 -0.3766 -0.1824 -0.8582
  854MOL0     C15173   9.543   3.664   9.927 -0.6184 -0.0045  0.3435
  854MOL0     C15174   9.501   3.731  10.037 -0.2618  0.4497 -0.0355
  854MOL0     C15175   9.472   3.662  10.166 -0.3088 -0.5094  0.1920
  854MOL0     C15176   9.361   3.734  10.245  0.0331 -0.9835 -0.3313
  854MOL0     C15177   9.284   3.643  10.343  0.0204 -0.0456  0.2760
  854MOL0     C15178   9.363   3.546  10.433 -0.5171  0.1253  0.4173
  854MOL0     O15179   9.426   3.619  10.538 -0.2492  0.9536 -0.3869
  854MOL0     C15180   9.550   3.585  10.595  0.1576  0.7890 -0.5194
  854MOL0     C15181   9.597   3.455  10.595  0.2388 -0.8368 -0.0168
  854MOL0     C15182   9.701   3.423  10.686  0.3880 -0.0649  0.1279
  854MOL0     C15183   9.772   3.515  10.761 -0.2220 -0.4743 -0.5865
  854MOL0     C15184   9.889   3.481  10.850 -0.6726 -0.0535  0.6187
  854MOL0     O15185   9.962   3.378  10.801 -0.0924 -0.7284  0.0635
  854MOL0     C15186  10.062   3.320  10.877  0.1123 -0.4082  0.1476
  854MOL0     C15187  10.113   3.352  11.009 -0.1952 -0.3307  0.2915
  854MOL0     C15188  10.226   3.278  11.056  0.0392  0.4298  0.7011
  854MOL0     C15189  10.295   3.180  10.972  0.2702  0.2414 -0.2479
  854MOL0     O15190  10.417   3.121  11.002  0.1675  0.2835 -0.1750
  854MOL0     C15191  10.501   3.186  11.102  0.0096 -0.1837 -0.1391
  854MOL0     C15192  10.657   3.190  11.087 -0.4892  0.2084 -0.6665
  854MOL0     C15193  10.733   3.057  11.069 -0.0579 -0.2654 -0.0521
  854MOL0     C15194  10.886   3.081  11.067 -1.0326 -0.0075  0.6931
  854MOL0     C15195  10.965   2.969  10.988 -0.3846 -0.0679  0.1562
  854MOL0     C15196  11.110   3.002  11.018 -0.4561 -0.0901  0.6005
  854MOL0     C15197  11.196   2.886  10.958  0.0721 -0.7508  0.2416
  854MOL0     C15198  11.349   2.901  10.982  0.0836  0.0898 -0.7704
  854MOL0    Cl15199  11.431   2.776  10.875  0.2549 -0.1377 -0.2155
  854MOL0     C15200  10.241   3.152  10.851  0.5132 -1.2823  0.0017
  854MOL0     C15201  10.136   3.228  10.799 -0.0259  0.1162 -0.0628
  854MOL0     O15202   9.896   3.542  10.959 -0.0833 -0.6018 -0.5935
  854MOL0     C15203   9.723   3.650  10.755 -0.1151 -0.5465 -0.4135
  854MOL0     C15204   9.614   3.680  10.678  0.1874  0.1722 -0.7483
  854MOL0     N15205   9.523   3.866  10.024  0.5268 -0.0927  0.7636
  854MOL0     N15206   9.557   3.880   9.899 -0.5498  0.4178  0.0203
  854MOL0     C15207   8.778   3.223   9.227 -0.3907  0.2397  0.7493
  854MOL0     C15208   8.675   3.150   9.177 -0.3416 -0.6309  0.3004
  854MOL0     C15209   8.242   3.107   9.011 -0.4760  0.4912  0.5343
  854MOL0     C15210   8.270   2.975   8.963 -0.0457  0.1085 -0.8759
  854MOL0     C15211   8.176   2.893   8.911  0.0439  0.3543  0.4153
  854MOL0     C15212   8.045   2.938   8.916  0.2825 -0.1014  0.4733
  854MOL0     O15213   7.957   2.851   8.855 -0.0868 -0.1861  0.4431
  854MOL0     C15214   7.817   2.867   8.872  0.5241  0.3138  0.2581
  854MOL0     C15215   7.754   2.815   9.001 -0.3293  0.4419  0.0845
  854MOL0     C15216   7.768   2.671   9.034  0.5116 -0.8790  0.3568
  854MOL0     C15217   7.652   2.580   8.973 -0.6069 -0.8936  0.9077
  854MOL0     C15218   7.514   2.613   9.014  0.7735 -0.3195  0.6220
  854MOL0     C15219   7.406   2.657   9.049  0.6875 -0.5288  0.1850
  854MOL0     C15220   8.012   3.064   8.969 -0.3162 -0.0309 -0.0431
  854MOL0     C15221   8.110   3.154   9.015 -0.0432  0.3176 -0.0649
  854MOL0     C15222   8.080   3.295   9.057 -0.4026  0.4092 -1.0652
  854MOL0     H15223   8.417   3.360   9.275  0.0408 -0.8937  0.6641
  854MOL0     H15224   8.615   3.496   9.352  0.8462  0.1584  0.1735
  854MOL0     H15225   8.874   3.589   9.228 -3.1526  2.6344  0.9934
  854MOL0     H15226   8.792   3.607   9.382  0.3275 -1.2086  1.7553
  854MOL0     H15227   8.978   3.620   9.514 -0.0974  1.4063  0.2687
  854MOL0     H15228   9.046   3.703   9.378  1.1448 -0.6794  0.8855
  854MOL0     H15229   9.166   3.510   9.291  3.0581  0.6540  1.8491
  854MOL0     H15230   9.100   3.418   9.430  0.3450  0.0297  0.6757
  854MOL0     H15231   9.224   3.575   9.569  1.7164 -0.6799  0.2920
  854MOL0     H15232   9.324   3.495   9.444  0.8210  2.1818  0.0669
  854MOL0     H15233   9.294   3.706   9.302  0.2695 -2.7581 -1.1255
  854MOL0     H15234   9.240   3.783   9.447  1.5870  0.7166  1.7432
  854MOL0     H15235   9.522   3.678   9.426 -0.4768  0.1614  0.1299
  854MOL0     H15236   9.466   3.839   9.431 -1.8816  0.1924 -2.4316
  854MOL0     H15237   9.386   3.660   9.662  1.8177 -2.1054 -0.7948
  854MOL0     H15238   9.396   3.835   9.643  1.3659  1.6035 -3.1478
  854MOL0     H15239   9.633   3.641   9.678 -1.4743 -1.0212 -0.4571
  854MOL0     H15240   9.653   3.808   9.646 -0.9821 -1.4319 -4.0329
  854MOL0     H15241   9.545   3.555   9.917 -0.4026  0.0756 -0.6594
  854MOL0     H15242   9.431   3.565  10.135 -0.6058 -1.5805  3.5334
  854MOL0     H15243   9.561   3.659  10.230  0.4120  2.5449 -0.5250
  854MOL0     H15244   9.399   3.824  10.293  0.0410 -2.0068  1.7049
  854MOL0     H15245   9.277   3.760  10.180 -2.2119  2.3955  3.3926
  854MOL0     H15246   9.215   3.577  10.288 -1.2637 -0.6381  2.4976
  854MOL0     H15247   9.222   3.710  10.403 -2.3361 -3.8404  2.5400
  854MOL0     H15248   9.443   3.494  10.379 -1.3653 -0.9232  0.1407
  854MOL0     H15249   9.292   3.473  10.473  0.1860 -2.1201 -2.1433
  854MOL0     H15250   9.546   3.377  10.539 -0.9766 -0.2171  0.1722
  854MOL0     H15251   9.737   3.320  10.688  0.7937  0.0727  0.1039
  854MOL0     H15252  10.081   3.445  11.054  3.1233  0.7044  0.7010
  854MOL0     H15253  10.274   3.303  11.150  1.3087 -0.8006  0.4281
  854MOL0     H15254  10.470   3.287  11.131 -0.6906 -0.2798 -0.5221
  854MOL0     H15255  10.486   3.131  11.195 -0.6414 -0.7095 -0.5407
  854MOL0     H15256  10.687   3.260  11.008  0.3701  1.9936  1.1717
  854MOL0     H15257  10.693   3.233  11.181 -1.3594  0.4938 -0.4516
  854MOL0     H15258  10.711   2.986  11.148  1.5129  0.6213  1.2477
  854MOL0     H15259  10.702   3.022  10.970 -0.0779  0.7574 -0.4247
  854MOL0     H15260  10.919   3.090  11.171  0.4700  2.2936  0.0839
  854MOL0     H15261  10.903   3.177  11.018  2.1628 -1.0393 -0.4174
  854MOL0     H15262  10.954   2.982  10.880  1.3423  0.5301  0.0093
  854MOL0     H15263  10.928   2.869  11.008 -4.4378  1.1188 -0.5164
  854MOL0     H15264  11.135   3.098  10.972 -1.3642  0.4860  1.2747
  854MOL0     H15265  11.136   3.016  11.124  0.1316 -1.4752  0.6550
  854MOL0     H15266  11.168   2.877  10.852 -0.3866 -1.3233  0.4085
  854MOL0     H15267  11.159   2.791  10.995 -0.2608 -1.5138 -1.9081
  854MOL0     H15268  11.378   2.998  10.939  2.4402  0.0117  0.4870
  854MOL0     H15269  11.378   2.891  11.087 -1.6529  0.4090 -0.2407
  854MOL0     H15270  10.290   3.089  10.778  3.4758  1.9075 -1.0483
  854MOL0     H15271  10.116   3.200  10.697  1.3712 -0.0252 -0.3165
  854MOL0     H15272   9.775   3.726  10.813  0.8395 -1.0408 -0.6075
  854MOL0     H15273   9.567   3.778  10.683 -2.9343 -1.2419 -0.3904
  854MOL0     H15274   8.880   3.189   9.215  0.8550  2.7047  3.2910
  854MOL0     H15275   8.709   3.052   9.143  1.5814  0.6863 -1.8979
  854MOL0     H15276   8.375   2.950   8.958  0.4614  0.1534  4.2936
  854MOL0     H15277   8.200   2.800   8.861 -0.2342  0.5732 -0.1401
  854MOL0     H15278   7.769   2.810   8.792 -1.6303  1.5217  0.5862
  854MOL0     H15279   7.783   2.969   8.851 -3.5475 -1.2283 -1.5983
  854MOL0     H15280   7.649   2.846   8.997 -0.1876  1.4963  2.4460
  854MOL0     H15281   7.794   2.883   9.078 -1.1685  0.3934  0.5841
  854MOL0     H15282   7.772   2.657   9.143 -1.0477 -0.4574  0.4892
  854MOL0     H15283   7.865   2.638   8.996 -0.2577  0.4759 -3.1032
  854MOL0     H15284   7.665   2.589   8.865  3.6963  0.7507  1.3254
  854MOL0     H15285   7.678   2.480   9.007 -0.6691 -0.5913  1.8927
  854MOL0     H15286   7.312   2.681   9.094 -0.6295 -0.3924 -2.4646
  854MOL0     H15287   7.908   3.095   8.971 -0.9470 -2.0434  1.1122
  854MOL0     H15288   8.130   3.330   9.148 -3.4116  1.1852  0.4152
  854MOL0     H15289   8.101   3.369   8.979  2.3678  2.2210  1.1620
  854MOL0     H15290   7.975   3.303   9.087 -1.2008  1.5474 -3.8317
  855MOL0     O15291   1.338   7.382   7.168  0.1129 -0.4270  0.0967
  855MOL0     C15292   1.267   7.456   7.098  0.2882 -0.9006 -0.2932
  855MOL0     O15293   1.308   7.528   6.980  0.3573  0.5595 -0.0383
  855MOL0     C15294   1.432   7.514   6.936  0.2941  0.1343 -0.9115
  855MOL0     C15295   1.528   7.614   6.946 -0.2940 -0.4528  0.3293
  855MOL0     C15296   1.652   7.592   6.891 -0.0429  0.8200 -0.3825
  855MOL0     C15297   1.684   7.463   6.835 -0.1524 -0.7044  0.0090
  855MOL0     O15298   1.808   7.444   6.800 -0.5618 -0.0635 -0.2841
  855MOL0     C15299   1.864   7.314   6.803  0.1490  0.3531 -0.1853
  855MOL0     C15300   2.014   7.313   6.852 -0.2618 -0.4620  0.2462
  855MOL0     C15301   2.096   7.407   6.768 -0.5506  0.0067 -0.0181
  855MOL0     C15302   2.196   7.485   6.859 -0.3271  0.9048  0.8930
  855MOL0     C15303   2.110   7.602   6.928 -0.5962  0.3729 -0.8433
  855MOL0     C15304   2.201   7.664   7.033 -0.4007  0.6581  0.0155
  855MOL0     C15305   2.327   7.730   6.964 -0.3063 -0.0409 -0.2274
  855MOL0     C15306   2.390   7.808   7.073  0.2338 -0.3249 -0.3884
  855MOL0     N15307   2.518   7.876   7.047  0.3212  0.5239  0.9564
  855MOL0     C15308   2.642   7.819   7.034 -0.4336 -0.1928  0.6466
  855MOL0     C15309   2.732   7.915   7.025 -0.0042  0.1882  0.3724
  855MOL0     C15310   2.882   7.911   7.023 -0.5161  0.7589 -0.5118
  855MOL0     C15311   2.932   7.957   7.161  0.3874  0.6330  0.5115
  855MOL0     C15312   2.864   7.875   7.280 -0.0147  0.1034 -0.4483
  855MOL0     C15313   2.949   7.904   7.407  0.2758 -0.2717 -0.6427
  855MOL0     O15314   3.048   7.801   7.398  1.3752 -0.6437  0.4926
  855MOL0     C15315   3.173   7.822   7.460  0.9614  0.2100  0.7005
  855MOL0     C15316   3.194   7.912   7.569  0.0876  0.0077 -0.2921
  855MOL0     C15317   3.317   7.897   7.639  0.3562 -0.3753 -0.0278
  855MOL0     C15318   3.421   7.807   7.591  0.0498 -0.6360  0.2403
  855MOL0     C15319   3.555   7.813   7.658  0.4229 -0.4876  0.4601
  855MOL0     O15320   3.624   7.696   7.660  0.1350  0.2659 -0.5314
  855MOL0     C15321   3.746   7.690   7.733  1.1372  0.3971 -0.4301
  855MOL0     C15322   3.873   7.706   7.675 -0.0523  0.5672 -0.3887
  855MOL0     C15323   3.989   7.727   7.743 -0.4424 -0.3085 -0.3584
  855MOL0     C15324   3.990   7.712   7.888  0.5145  0.1651  1.2456
  855MOL0     O15325   4.099   7.720   7.970  0.1675 -0.5963 -0.3228
  855MOL0     C15326   4.206   7.801   7.923  0.2208 -0.9637  0.0315
  855MOL0     C15327   4.278   7.838   8.051 -0.9703  0.2359 -0.3659
  855MOL0     C15328   4.381   7.961   8.050 -0.8348 -0.0767 -0.0773
  855MOL0     C15329   4.315   8.100   8.023 -0.0081 -1.2097 -0.0791
  855MOL0     C15330   4.401   8.225   8.047  0.3861 -0.5956 -0.2742
  855MOL0     C15331   4.493   8.213   8.163 -0.5468 -1.4997 -0.0461
  855MOL0     C15332   4.582   8.328   8.178 -0.6106 -0.4742 -0.6728
  855MOL0     C15333   4.685   8.298   8.292 -0.0141  0.3875 -0.5797
  855MOL0    Cl15334   4.808   8.432   8.308  0.3488 -0.2475  0.1444
  855MOL0     C15335   3.878   7.669   7.950  0.3607  0.1435 -0.4855
  855MOL0     C15336   3.758   7.665   7.875  0.0325 -0.4740  0.2228
  855MOL0     O15337   3.594   7.922   7.714  0.5445 -0.0527 -0.5569
  855MOL0     C15338   3.393   7.722   7.479  0.2654  0.4101 -0.9192
  855MOL0     C15339   3.265   7.723   7.417  0.3598  0.3986 -0.6202
  855MOL0     N15340   2.657   8.035   7.028 -0.1807  0.4709  0.7902
  855MOL0     N15341   2.534   8.009   7.037 -0.0486  0.0179 -0.5039
  855MOL0     C15342   1.583   7.362   6.821  0.1546  0.8428  0.2978
  855MOL0     C15343   1.457   7.394   6.871 -0.3768 -0.3004 -0.0754
  855MOL0     C15344   1.121   7.454   7.125 -0.4118 -0.4465  0.2596
  855MOL0     C15345   1.039   7.485   7.019 -0.6573 -1.6319  0.6720
  855MOL0     C15346   0.903   7.523   7.031  0.5087 -0.5353 -0.4778
  855MOL0     C15347   0.837   7.522   7.152 -0.6239 -0.5580 -0.4132
  855MOL0     O15348   0.703   7.553   7.177  0.2851  0.0073 -0.1575
  855MOL0     C15349   0.631   7.628   7.077 -0.0290  0.1124 -0.4459
  855MOL0     C15350   0.481   7.613   7.103  0.1561  0.5817  0.4566
  855MOL0     C15351   0.448   7.481   7.050 -0.6017  0.6626  0.5181
  855MOL0     C15352   0.299   7.450   7.073 -0.9322 -0.7856 -0.1467
  855MOL0     C15353   0.257   7.442   7.211  0.2652  0.3086  0.2519
  855MOL0     C15354   0.218   7.421   7.325  0.0398 -0.8644  0.1333
  855MOL0     C15355   0.922   7.486   7.262  0.3782  0.2934  0.5052
  855MOL0     C15356   1.056   7.452   7.254  0.0601 -1.3229 -0.4433
  855MOL0     C15357   1.142   7.434   7.384 -0.6479  0.3457 -0.1646
  855MOL0     H15358   1.488   7.700   6.999 -0.0330 -1.9505  3.1662
  855MOL0     H15359   1.717   7.678   6.902 -1.9707  2.0256  2.9804
  855MOL0     H15360   1.808   7.260   6.880  0.5678  1.1321  0.7002
  855MOL0     H15361   1.841   7.279   6.703 -2.0805  0.3747  0.2754
  855MOL0     H15362   2.057   7.213   6.845  0.4839 -0.0620 -1.2840
  855MOL0     H15363   2.014   7.345   6.957 -0.7167  0.6887 -0.0996
  855MOL0     H15364   2.025   7.476   6.721 -1.9281 -2.0134 -1.0633
  855MOL0     H15365   2.157   7.355   6.693 -0.7977 -1.8710  1.0279
  855MOL0     H15366   2.226   7.422   6.944 -2.5855  0.6709  1.5948
  855MOL0     H15367   2.283   7.522   6.804  0.2759 -2.3213 -0.5129
  855MOL0     H15368   2.071   7.673   6.854 -2.3658 -1.3161 -1.6173
  855MOL0     H15369   2.025   7.568   6.987 -1.2367  0.7142 -1.5490
  855MOL0     H15370   2.149   7.739   7.094  1.0539  1.2553  0.5489
  855MOL0     H15371   2.236   7.587   7.103  1.7108  2.2038  0.7651
  855MOL0     H15372   2.301   7.799   6.883  0.1735 -0.3997 -0.6930
  855MOL0     H15373   2.405   7.662   6.930  0.8108  1.0879  0.0247
  855MOL0     H15374   2.314   7.879   7.105  1.7875  0.2964  2.1589
  855MOL0     H15375   2.411   7.739   7.155  0.1740  1.0495  0.8154
  855MOL0     H15376   2.670   7.715   7.048 -0.1339 -0.1528  0.3568
  855MOL0     H15377   2.914   7.807   7.010 -0.3471  0.7922 -0.3789
  855MOL0     H15378   2.918   7.960   6.932 -1.4261 -0.0055 -1.3127
  855MOL0     H15379   3.040   7.944   7.175  0.3689 -1.0448 -0.6419
  855MOL0     H15380   2.910   8.063   7.175  0.5412  0.4813  2.0630
  855MOL0     H15381   2.843   7.770   7.258  3.1311 -0.7967  0.3221
  855MOL0     H15382   2.769   7.921   7.308 -2.0641 -4.0121  0.0267
  855MOL0     H15383   2.885   7.898   7.496  1.5759 -2.1364  0.2425
  855MOL0     H15384   2.997   8.001   7.398  1.3336 -0.6311  0.7020
  855MOL0     H15385   3.130   7.993   7.603  2.9972  1.6317  1.7564
  855MOL0     H15386   3.337   7.968   7.719  1.3190  1.5358 -1.8458
  855MOL0     H15387   3.877   7.704   7.566 -0.8999  1.6535 -0.4487
  855MOL0     H15388   4.085   7.744   7.695 -0.2444  1.3183  0.5139
  855MOL0     H15389   4.262   7.747   7.846 -0.6485 -0.9459 -0.6264
  855MOL0     H15390   4.171   7.896   7.881  1.2146  0.3982  2.1247
  855MOL0     H15391   4.205   7.864   8.129 -1.0413  2.3623 -1.0842
  855MOL0     H15392   4.325   7.745   8.085 -0.5063  0.5689 -0.0951
  855MOL0     H15393   4.435   7.959   8.145  0.6939  2.0142 -0.8426
  855MOL0     H15394   4.466   7.943   7.983 -1.5184 -0.6490 -0.8009
  855MOL0     H15395   4.238   8.116   8.098 -1.3131 -1.8992 -1.2266
  855MOL0     H15396   4.275   8.092   7.922 -1.8812  0.8587  0.4278
  855MOL0     H15397   4.327   8.303   8.070 -1.1955 -2.1619  0.2082
  855MOL0     H15398   4.448   8.251   7.952  0.6125  1.2766  0.3017
  855MOL0     H15399   4.431   8.199   8.252 -2.0500  1.2996 -0.5281
  855MOL0     H15400   4.559   8.129   8.141  0.1100 -0.7439 -1.0509
  855MOL0     H15401   4.523   8.417   8.199  0.3941  0.1887 -0.6151
  855MOL0     H15402   4.645   8.338   8.089  0.6040  1.1962  0.3218
  855MOL0     H15403   4.634   8.281   8.387  3.0701 -0.9843  0.9647
  855MOL0     H15404   4.738   8.205   8.268  0.5728  0.1127  1.5418
  855MOL0     H15405   3.880   7.646   8.056 -1.6903 -0.2111 -0.4768
  855MOL0     H15406   3.660   7.648   7.919  0.6841  2.8730  3.5809
  855MOL0     H15407   3.470   7.652   7.451 -0.9750 -1.0889 -0.7075
  855MOL0     H15408   3.249   7.648   7.341  2.4669  1.6619 -2.4123
  855MOL0     H15409   1.617   7.274   6.767 -2.1521 -1.5372  2.4122
  855MOL0     H15410   1.377   7.320   6.868 -0.8531  0.0648  1.8977
  855MOL0     H15411   1.064   7.498   6.914 -1.2733  1.8977  0.8348
  855MOL0     H15412   0.848   7.554   6.942  1.1959  2.8186  0.1546
  855MOL0     H15413   0.659   7.600   6.976 -0.4359 -4.4365  0.4681
  855MOL0     H15414   0.643   7.735   7.097 -0.2285  0.0273  0.1527
  855MOL0     H15415   0.421   7.686   7.048 -0.6623  0.1978  0.8166
  855MOL0     H15416   0.457   7.632   7.209  0.3756  4.9123 -0.1024
  855MOL0     H15417   0.506   7.401   7.097  0.9777  0.4746 -1.6507
  855MOL0     H15418   0.472   7.493   6.944  0.6873  0.5783  0.7808
  855MOL0     H15419   0.239   7.532   7.034 -1.5170 -1.8867 -1.6503
  855MOL0     H15420   0.278   7.359   7.016 -0.8440 -0.2067 -1.1123
  855MOL0     H15421   0.173   7.417   7.422  0.4199 -0.6178  0.3203
  855MOL0     H15422   0.885   7.501   7.363 -0.6774 -0.9763  0.3467
  855MOL0     H15423   1.180   7.332   7.385 -1.0471  0.1889 -0.8076
  855MOL0     H15424   1.216   7.515   7.392 -0.8590  0.3879  2.7081
  855MOL0     H15425   1.079   7.446   7.473  1.1939  0.2043  1.2318
  856MOL0     O15426   9.939   4.309   0.038  0.5132 -0.2808 -0.2911
  856MOL0     C15427   9.861   4.224   0.013  0.1554  0.2688  0.0331
  856MOL0     O15428   9.874   4.141  -0.098  0.1221 -0.0504  0.3801
  856MOL0     C15429   9.987   4.118  -0.172 -0.7221  0.0673  0.2120
  856MOL0     C15430   9.978   4.031  -0.283 -0.3717  0.2113  0.1777
  856MOL0     C15431  10.085   4.013  -0.383  0.2660 -0.3280 -0.1516
  856MOL0     C15432  10.197   4.095  -0.373 -0.7754  0.0313 -0.4249
  856MOL0     O15433  10.289   4.059  -0.467 -0.2236 -0.0055  0.4685
  856MOL0     C15434  10.422   4.090  -0.432 -0.4641  0.5153 -0.4066
  856MOL0     C15435  10.514   4.044  -0.556  0.5523  0.3378 -1.2630
  856MOL0     C15436  10.657   4.063  -0.514 -0.2637  0.2333  0.0112
  856MOL0     C15437  10.754   4.007  -0.620 -0.4734 -0.0129 -0.6872
  856MOL0     C15438  10.896   4.004  -0.564 -0.0466  0.5337 -0.2143
  856MOL0     C15439  11.002   3.990  -0.672 -0.2658 -0.0334 -0.2395
  856MOL0     C15440  11.146   4.003  -0.617 -0.5412  0.1392  0.0074
  856MOL0     C15441  11.246   3.989  -0.735 -0.3563  0.3464  0.1675
  856MOL0     N15442  11.386   3.963  -0.682  0.5266  0.2024  0.5734
  856MOL0     C15443  11.446   3.842  -0.672 -0.0868 -0.5912  0.8301
  856MOL0     C15444  11.553   3.869  -0.590  0.0556  0.1626  0.5467
  856MOL0     C15445  11.646   3.762  -0.545  0.2653 -0.3533  1.1383
  856MOL0     C15446  11.582   3.658  -0.453  0.1228 -0.2501  0.1151
  856MOL0     C15447  11.548   3.709  -0.304  0.1935  0.3494  0.1722
  856MOL0     C15448  11.508   3.583  -0.218 -0.4176 -0.2945  0.1546
  856MOL0     O15449  11.415   3.614  -0.113 -0.0982  0.5045 -0.2844
  856MOL0     C15450  11.464   3.662   0.001 -0.8171  0.0145 -0.4070
  856MOL0     C15451  11.374   3.721   0.090 -0.1656  0.5653 -0.3335
  856MOL0     C15452  11.417   3.798   0.199 -0.1692  0.3492  0.2583
  856MOL0     C15453  11.555   3.825   0.217 -0.2347 -0.2859  0.0961
  856MOL0     C15454  11.603   3.927   0.313 -0.1391  0.1589 -0.6437
  856MOL0     O15455  11.739   3.935   0.314  0.5463  0.1674 -0.5966
  856MOL0     C15456  11.788   4.054   0.358 -0.1943 -0.7861 -0.1579
  856MOL0     C15457  11.815   4.161   0.276 -0.3373 -0.1664  0.3150
  856MOL0     C15458  11.881   4.272   0.326  0.8143 -1.0084 -0.6069
  856MOL0     C15459  11.910   4.284   0.461 -0.0187  0.4357  0.2702
  856MOL0     O15460  11.950   4.413   0.497 -0.1891  0.3906  0.0612
  856MOL0     C15461  12.054   4.409   0.596  0.1319  0.4857  0.0472
  856MOL0     C15462  12.164   4.510   0.575 -0.0284  0.0382 -0.2522
  856MOL0     C15463  12.252   4.453   0.460 -0.3351  0.6614  0.4066
  856MOL0     C15464  12.398   4.500   0.460 -0.2135 -0.8123 -0.2081
  856MOL0     C15465  12.497   4.423   0.378  0.2749 -0.1061  0.1256
  856MOL0     C15466  12.638   4.491   0.399 -0.4549 -0.2176 -0.0224
  856MOL0     C15467  12.745   4.402   0.321  0.0793 -0.1980  0.5698
  856MOL0     C15468  12.886   4.455   0.334 -0.1821 -0.2756 -0.0170
  856MOL0    Cl15469  13.011   4.339   0.293  0.0212  0.0405 -0.6070
  856MOL0     C15470  11.874   4.178   0.542 -0.1733 -0.2936  0.2019
  856MOL0     C15471  11.822   4.065   0.485  0.3540  0.0639 -0.4619
  856MOL0     O15472  11.521   3.995   0.371 -0.9007  0.0225  0.2315
  856MOL0     C15473  11.646   3.764   0.135  0.2456  0.6881 -0.4675
  856MOL0     C15474  11.600   3.678   0.036  0.0296 -0.0636  0.6049
  856MOL0     N15475  11.557   4.002  -0.551  0.4213 -0.1118  0.5356
  856MOL0     N15476  11.455   4.057  -0.617 -0.2076 -0.7842  0.2073
  856MOL0     C15477  10.205   4.186  -0.265 -0.4959 -0.1439 -0.1603
  856MOL0     C15478  10.112   4.184  -0.163 -0.2853 -0.4187 -1.2356
  856MOL0     C15479   9.738   4.218   0.093  0.1965  0.0547 -0.1378
  856MOL0     C15480   9.621   4.198   0.026  0.8462  0.0915  1.2049
  856MOL0     C15481   9.502   4.172   0.095  0.9621 -1.0221 -0.3032
  856MOL0     C15482   9.496   4.202   0.237 -0.5659 -0.3142  0.7995
  856MOL0     O15483   9.386   4.177   0.317  0.4104 -0.3601 -0.9818
  856MOL0     C15484   9.255   4.180   0.266  0.0749 -0.3223  0.2587
  856MOL0     C15485   9.143   4.150   0.371 -0.4196  0.4145  0.6450
  856MOL0     C15486   9.006   4.127   0.305 -0.1057  0.4637 -0.3385
  856MOL0     C15487   8.888   4.158   0.401  0.0660  0.7524  0.1545
  856MOL0     C15488   8.761   4.096   0.369 -0.4498  0.4307  0.5970
  856MOL0     C15489   8.659   4.055   0.338  0.8508  0.5278  0.7102
  856MOL0     C15490   9.623   4.227   0.302 -0.0487  0.3503 -0.5398
  856MOL0     C15491   9.742   4.230   0.236  0.3764 -0.3069 -0.3979
  856MOL0     C15492   9.860   4.264   0.322 -0.2109  0.4676 -0.2161
  856MOL0     H15493   9.893   3.965  -0.299  0.9125 -2.3816  3.1464
  856MOL0     H15494  10.062   3.945  -0.464 -1.1289  1.5952 -1.4368
  856MOL0     H15495  10.427   4.199  -0.419 -0.2613  0.9893 -3.5517
  856MOL0     H15496  10.443   4.033  -0.342  1.7367  0.0951 -1.1188
  856MOL0     H15497  10.499   4.114  -0.639 -1.4643  2.4269  0.7180
  856MOL0     H15498  10.494   3.941  -0.586 -1.5975 -0.2165  1.6578
  856MOL0     H15499  10.661   4.017  -0.415  0.2601 -1.5412 -0.7809
  856MOL0     H15500  10.690   4.167  -0.503  0.4232 -0.1234  1.6008
  856MOL0     H15501  10.737   3.910  -0.668 -0.3744  1.2420 -3.4576
  856MOL0     H15502  10.749   4.080  -0.701  0.5803 -0.9953 -1.6839
  856MOL0     H15503  10.917   4.101  -0.517  2.2027 -0.5868  1.2475
  856MOL0     H15504  10.915   3.937  -0.480 -0.1966  1.3597  0.4983
  856MOL0     H15505  10.987   3.887  -0.706  0.2541 -1.2385  2.8263
  856MOL0     H15506  10.979   4.060  -0.753 -1.2931  0.2032  0.2407
  856MOL0     H15507  11.173   3.934  -0.537 -1.1020  1.2280  1.1716
  856MOL0     H15508  11.157   4.105  -0.578 -0.2671  0.3898 -0.7094
  856MOL0     H15509  11.221   3.900  -0.792 -0.1281  0.0014  0.5967
  856MOL0     H15510  11.258   4.086  -0.785  1.0085  0.1239  0.0102
  856MOL0     H15511  11.408   3.749  -0.714  0.9192 -0.1862 -1.0942
  856MOL0     H15512  11.687   3.717  -0.636 -5.1338  0.0718 -1.9350
  856MOL0     H15513  11.723   3.818  -0.491 -1.9406  2.6856  1.3785
  856MOL0     H15514  11.487   3.629  -0.499 -0.8063  2.0731  0.4482
  856MOL0     H15515  11.646   3.568  -0.450  2.0517  0.9081 -2.4867
  856MOL0     H15516  11.457   3.770  -0.303 -1.0753 -1.3295 -2.6014
  856MOL0     H15517  11.629   3.762  -0.253  0.7474  0.2820 -0.6237
  856MOL0     H15518  11.595   3.526  -0.186  0.3229  1.9551  2.4784
  856MOL0     H15519  11.449   3.524  -0.289  1.2132 -0.7764 -0.8400
  856MOL0     H15520  11.267   3.724   0.069 -0.1818  0.9812 -0.1919
  856MOL0     H15521  11.335   3.844   0.253  0.3496 -0.4451  1.7618
  856MOL0     H15522  11.783   4.155   0.172  0.4653  1.7612 -0.0736
  856MOL0     H15523  11.900   4.360   0.265 -3.0635 -0.0301 -0.6606
  856MOL0     H15524  12.001   4.440   0.687 -1.4258 -0.2172 -0.5974
  856MOL0     H15525  12.094   4.308   0.607 -0.9117  0.2545  2.2214
  856MOL0     H15526  12.123   4.608   0.548 -0.2719  0.0072  0.0072
  856MOL0     H15527  12.232   4.519   0.660 -0.2681 -1.2193  0.0846
  856MOL0     H15528  12.257   4.344   0.465 -2.2134  0.3888 -2.0514
  856MOL0     H15529  12.198   4.469   0.366  1.9405  0.9288 -0.9494
  856MOL0     H15530  12.430   4.494   0.565  1.0959 -0.8594 -0.5961
  856MOL0     H15531  12.394   4.603   0.425 -0.4832 -0.0192  1.9959
  856MOL0     H15532  12.473   4.423   0.272  1.9381 -1.6409 -0.3072
  856MOL0     H15533  12.502   4.319   0.412  0.1398 -0.2920 -0.4135
  856MOL0     H15534  12.643   4.596   0.369 -1.8896  0.7544  2.7530
  856MOL0     H15535  12.669   4.485   0.504 -1.6782  2.3475  0.5756
  856MOL0     H15536  12.717   4.393   0.216  0.4273 -1.2803  0.5573
  856MOL0     H15537  12.754   4.302   0.365 -0.6873 -0.6084 -0.1874
  856MOL0     H15538  12.904   4.552   0.287  1.4889  0.0365  1.2010
  856MOL0     H15539  12.899   4.478   0.440 -2.4409  3.0929 -0.2907
  856MOL0     H15540  11.906   4.176   0.646 -2.1176 -1.2771  0.8336
  856MOL0     H15541  11.818   3.975   0.544  0.9587 -2.1824 -3.6147
  856MOL0     H15542  11.754   3.775   0.140  0.2737  0.5398 -0.7667
  856MOL0     H15543  11.674   3.615  -0.012  0.5603  1.2276 -0.3083
  856MOL0     H15544  10.299   4.238  -0.256 -0.3112 -0.2249 -1.3589
  856MOL0     H15545  10.134   4.256  -0.085  1.4094 -1.5216 -0.6382
  856MOL0     H15546   9.609   4.205  -0.081  0.1868  1.3122  1.3508
  856MOL0     H15547   9.413   4.158   0.034  2.5636 -0.4285 -2.9410
  856MOL0     H15548   9.244   4.103   0.188  1.5054 -2.8015  2.3369
  856MOL0     H15549   9.230   4.281   0.235  2.2903  0.1360 -0.2059
  856MOL0     H15550   9.132   4.232   0.442 -2.3191  2.2395 -1.5588
  856MOL0     H15551   9.171   4.057   0.422  0.5719  0.5420  0.3469
  856MOL0     H15552   8.986   4.028   0.264  1.6352 -0.9077  1.8719
  856MOL0     H15553   9.001   4.187   0.214 -0.1314  0.5802 -0.2601
  856MOL0     H15554   8.905   4.109   0.497  1.3535 -0.6626 -0.7662
  856MOL0     H15555   8.893   4.264   0.431  2.6999 -0.2588  4.1096
  856MOL0     H15556   8.563   4.009   0.324  1.7609 -0.6437 -2.4508
  856MOL0     H15557   9.623   4.223   0.410 -0.3514 -0.8110 -0.5616
  856MOL0     H15558   9.934   4.189   0.294 -2.1962 -2.6388  2.1083
  856MOL0     H15559   9.897   4.366   0.306  2.2652 -0.1022  1.4973
  856MOL0     H15560   9.839   4.251   0.428  1.3481  0.2147  0.0845
  857MOL0     O15561  10.962   1.337   9.126  0.4093 -0.3957 -0.0990
  857MOL0     C15562  10.933   1.303   9.007 -0.0127 -0.4442 -0.3861
  857MOL0     O15563  11.026   1.284   8.913  0.4646 -0.5154  0.0766
  857MOL0     C15564  11.147   1.322   8.938  0.5941 -0.2821  0.2081
  857MOL0     C15565  11.186   1.462   8.941 -0.3136  1.1689  0.9668
  857MOL0     C15566  11.327   1.493   8.961 -0.2931 -0.0832 -0.1481
  857MOL0     C15567  11.417   1.392   8.983  0.0845  0.0726  0.9677
  857MOL0     O15568  11.550   1.414   8.992 -0.3757 -0.2841 -0.0197
  857MOL0     C15569  11.617   1.507   8.910  0.4920 -0.0879 -0.5124
  857MOL0     C15570  11.679   1.443   8.791 -0.7795 -0.5868  0.3086
  857MOL0     C15571  11.742   1.540   8.694  0.2354  0.8916 -0.1128
  857MOL0     C15572  11.815   1.467   8.584  0.1945  0.6397 -0.4434
  857MOL0     C15573  11.897   1.561   8.501 -0.4051 -0.1296  0.7773
  857MOL0     C15574  11.997   1.647   8.576  0.6581  0.7961  0.1824
  857MOL0     C15575  12.125   1.654   8.493 -0.3275 -0.8650 -0.2829
  857MOL0     C15576  12.235   1.749   8.551  0.3750  0.4863  0.8073
  857MOL0     N15577  12.351   1.745   8.463  0.1769  0.1530 -0.4600
  857MOL0     C15578  12.430   1.634   8.435  0.6229  0.3011 -0.7334
  857MOL0     C15579  12.530   1.676   8.354  0.5138 -0.3271  0.2821
  857MOL0     C15580  12.653   1.592   8.309  0.2359 -0.5211  0.1354
  857MOL0     C15581  12.767   1.693   8.280  0.5802 -0.5644  0.4938
  857MOL0     C15582  12.816   1.770   8.399  0.6074  0.3427  0.4559
  857MOL0     C15583  12.889   1.898   8.364  0.6137  0.4281  0.1086
  857MOL0     O15584  12.964   1.877   8.242  0.1290  0.3635  0.5368
  857MOL0     C15585  13.096   1.843   8.255  0.2719  0.6663  0.2442
  857MOL0     C15586  13.168   1.836   8.136  0.3610 -0.3931 -0.4613
  857MOL0     C15587  13.295   1.793   8.127 -0.1582  0.4717 -0.7398
  857MOL0     C15588  13.367   1.760   8.247 -0.6179  0.3466 -0.2085
  857MOL0     C15589  13.501   1.702   8.239  0.4411  0.6176  0.3468
  857MOL0     O15590  13.561   1.683   8.114 -0.0241 -0.4857 -0.0751
  857MOL0     C15591  13.685   1.627   8.119  0.2614  0.1443 -0.5067
  857MOL0     C15592  13.705   1.499   8.071  0.6351  0.2732 -1.2621
  857MOL0     C15593  13.831   1.439   8.074  0.0881 -0.1103  0.3258
  857MOL0     C15594  13.943   1.507   8.118 -0.1262 -0.0925  0.4674
  857MOL0     O15595  14.072   1.470   8.107 -0.6410 -0.5621 -0.8016
  857MOL0     C15596  14.105   1.354   8.044  0.1249 -0.1920 -0.2703
  857MOL0     C15597  14.255   1.325   8.053  0.9211 -0.3369 -0.1493
  857MOL0     C15598  14.294   1.270   8.188 -0.1723  0.7257  0.1037
  857MOL0     C15599  14.456   1.292   8.203 -0.3505 -0.4599  0.4224
  857MOL0     C15600  14.525   1.209   8.314 -0.2438 -0.2405 -0.0967
  857MOL0     C15601  14.532   1.053   8.298  0.0143 -0.4989  0.4808
  857MOL0     C15602  14.585   1.023   8.161 -0.2342 -0.4664 -0.1054
  857MOL0     C15603  14.632   0.877   8.163 -0.1419 -0.4381 -0.0730
  857MOL0    Cl15604  14.483   0.778   8.163  0.5970 -0.3174 -0.1394
  857MOL0     C15605  13.921   1.638   8.172 -0.1493  0.3030 -0.4498
  857MOL0     C15606  13.790   1.695   8.183  0.0495  0.3987  0.0510
  857MOL0     O15607  13.554   1.685   8.346 -0.4918  0.0091 -0.6204
  857MOL0     C15608  13.292   1.769   8.367 -0.3090 -0.6703 -0.4613
  857MOL0     C15609  13.163   1.807   8.370  0.1970  0.0136  0.5523
  857MOL0     N15610  12.498   1.808   8.324  0.2234  0.5885 -0.3558
  857MOL0     N15611  12.394   1.846   8.387 -0.0228 -0.8734 -0.1089
  857MOL0     C15612  11.370   1.264   8.984 -0.2900 -0.5530 -0.1696
  857MOL0     C15613  11.239   1.221   8.965 -0.1739 -0.0841  0.8471
  857MOL0     C15614  10.787   1.310   8.981  0.1886  1.0416  0.7594
  857MOL0     C15615  10.701   1.335   9.090 -0.3372  0.7327  0.2881
  857MOL0     C15616  10.566   1.345   9.071  0.0700  0.1686  0.2382
  857MOL0     C15617  10.510   1.331   8.947  0.6677  0.0980  0.6515
  857MOL0     O15618  10.374   1.349   8.929 -0.1905  0.0668 -0.8652
  857MOL0     C15619  10.321   1.363   8.803 -0.2907 -0.9314 -0.3014
  857MOL0     C15620  10.311   1.507   8.762 -0.1645 -0.1238  0.2380
  857MOL0     C15621  10.204   1.591   8.830  0.2427  0.3211  0.5633
  857MOL0     C15622  10.228   1.619   8.980  0.5470 -0.1231  0.2836
  857MOL0     C15623  10.120   1.702   9.025  0.3087  0.0756  0.0140
  857MOL0     C15624  10.027   1.763   9.062  0.0924  0.3673 -1.1170
  857MOL0     C15625  10.595   1.300   8.848  0.3184 -0.1565 -0.4324
  857MOL0     C15626  10.730   1.292   8.859  0.4291  0.1082 -0.0042
  857MOL0     C15627  10.798   1.266   8.734 -0.9968 -0.5828 -0.2396
  857MOL0     H15628  11.112   1.536   8.914  0.8804  1.3898 -2.1396
  857MOL0     H15629  11.353   1.599   8.962  0.9483 -0.3602 -1.0727
  857MOL0     H15630  11.549   1.588   8.882  0.1499  0.0872  0.7744
  857MOL0     H15631  11.690   1.564   8.967 -0.5413  0.4689  0.2902
  857MOL0     H15632  11.613   1.375   8.737 -2.1659  0.2386  0.9014
  857MOL0     H15633  11.765   1.395   8.838 -0.3887  0.4876  0.7203
  857MOL0     H15634  11.816   1.600   8.747  0.6291 -0.6293  1.1108
  857MOL0     H15635  11.662   1.596   8.644 -2.7598 -0.8449  2.3659
  857MOL0     H15636  11.889   1.398   8.626 -1.2358 -0.8090 -0.2140
  857MOL0     H15637  11.740   1.411   8.526 -0.2190  0.3658  0.3437
  857MOL0     H15638  11.946   1.496   8.429 -2.3542  0.6415 -1.3602
  857MOL0     H15639  11.822   1.627   8.456  0.4729  0.4385  0.1201
  857MOL0     H15640  11.953   1.745   8.597 -1.2120  0.2454 -0.9033
  857MOL0     H15641  12.023   1.605   8.673 -0.8215 -1.5753 -0.3721
  857MOL0     H15642  12.092   1.699   8.399 -2.9106 -0.0624  0.9095
  857MOL0     H15643  12.168   1.555   8.475 -1.7156 -1.4801 -0.4120
  857MOL0     H15644  12.200   1.852   8.564 -1.7149 -0.0939  0.1422
  857MOL0     H15645  12.269   1.718   8.651 -0.3728  2.4417  1.7358
  857MOL0     H15646  12.411   1.536   8.478 -0.8745 -0.6182 -3.2595
  857MOL0     H15647  12.685   1.516   8.382 -2.4378 -1.8681  0.0330
  857MOL0     H15648  12.628   1.540   8.217  0.3599  1.1511 -0.8691
  857MOL0     H15649  12.841   1.649   8.213  2.0677  1.7803  0.5014
  857MOL0     H15650  12.723   1.769   8.214 -0.9489 -1.2602  0.6539
  857MOL0     H15651  12.887   1.702   8.447  0.5577  0.6338  0.9480
  857MOL0     H15652  12.739   1.797   8.471  1.3185  3.1039  0.2899
  857MOL0     H15653  12.946   1.942   8.446  1.7522 -0.3267 -0.2540
  857MOL0     H15654  12.815   1.976   8.346  1.7068  1.2396 -0.9865
  857MOL0     H15655  13.112   1.856   8.044 -0.9501  0.4921  0.4917
  857MOL0     H15656  13.349   1.793   8.033  1.1102  1.7753 -0.0441
  857MOL0     H15657  13.616   1.455   8.026  0.9765 -1.8834  0.0818
  857MOL0     H15658  13.836   1.338   8.036  0.4738  0.0462 -0.0502
  857MOL0     H15659  14.050   1.268   8.080  1.8645 -2.3679 -2.4638
  857MOL0     H15660  14.075   1.367   7.940  1.3752 -1.0640 -0.7684
  857MOL0     H15661  14.287   1.256   7.975  2.1900 -2.0656  1.8001
  857MOL0     H15662  14.304   1.422   8.036 -0.5766  0.0576 -2.6447
  857MOL0     H15663  14.240   1.325   8.265 -0.2899  0.7119  0.0316
  857MOL0     H15664  14.267   1.164   8.195 -2.3444  1.2774  0.9048
  857MOL0     H15665  14.473   1.399   8.219  0.1340 -0.2973 -1.0911
  857MOL0     H15666  14.497   1.282   8.102  1.9609  3.8092  0.7050
  857MOL0     H15667  14.466   1.224   8.405  0.1815  0.1999  0.1077
  857MOL0     H15668  14.624   1.251   8.334 -0.3894  1.0469 -1.8179
  857MOL0     H15669  14.587   0.998   8.375  0.9319 -0.5403 -0.1749
  857MOL0     H15670  14.434   1.005   8.295  2.1587 -5.5355 -2.0786
  857MOL0     H15671  14.668   1.090   8.137 -0.7846  0.6202  0.8817
  857MOL0     H15672  14.513   1.039   8.080  2.1967  1.3936 -2.0520
  857MOL0     H15673  14.697   0.845   8.081  3.3119 -0.4192  2.4353
  857MOL0     H15674  14.702   0.858   8.245  1.0912 -1.2408 -1.2693
  857MOL0     H15675  14.001   1.689   8.225 -0.4121 -0.2418  0.4964
  857MOL0     H15676  13.775   1.794   8.225  0.2581  0.9496 -1.1278
  857MOL0     H15677  13.343   1.757   8.462 -0.4267  1.2886 -0.1083
  857MOL0     H15678  13.106   1.794   8.462 -0.0373 -2.5027  0.1355
  857MOL0     H15679  11.439   1.181   8.997 -0.9036 -1.1065 -0.3990
  857MOL0     H15680  11.199   1.121   8.975 -1.5267  0.7092  5.1029
  857MOL0     H15681  10.738   1.355   9.190  0.5096 -0.4640  0.2434
  857MOL0     H15682  10.490   1.356   9.149 -0.5940  0.4993 -0.4384
  857MOL0     H15683  10.220   1.325   8.818 -1.9159  2.4649 -1.4655
  857MOL0     H15684  10.376   1.305   8.728 -0.9044 -2.7200  0.5961
  857MOL0     H15685  10.294   1.494   8.654  0.2998 -2.5168  0.4115
  857MOL0     H15686  10.407   1.558   8.772 -0.0101 -0.7394  2.2468
  857MOL0     H15687  10.106   1.543   8.823 -2.0275  4.5462  0.1168
  857MOL0     H15688  10.184   1.682   8.773 -0.3220 -0.5815 -0.7438
  857MOL0     H15689  10.221   1.526   9.037 -2.3171 -0.9456 -1.2149
  857MOL0     H15690  10.329   1.657   8.998  1.1205 -1.4728  0.0195
  857MOL0     H15691   9.935   1.806   9.096 -0.2996  0.1018 -1.8245
  857MOL0     H15692  10.557   1.284   8.748 -0.4637  0.3559 -0.2274
  857MOL0     H15693  10.851   1.170   8.733 -0.2299 -0.2082  1.5102
  857MOL0     H15694  10.738   1.274   8.643 -1.4779 -0.9202  0.0429
  857MOL0     H15695  10.868   1.350   8.732 -1.6911  0.0250  0.8110
  858MOL0     O15696   2.995   4.994   3.577 -0.1223 -0.4258 -0.1309
  858MOL0     C15697   2.898   5.039   3.641 -0.0616  0.1555 -0.3409
  858MOL0     O15698   2.863   5.176   3.641 -0.5934 -0.4627 -0.0447
  858MOL0     C15699   2.958   5.261   3.602  0.3960  0.5587  0.0722
  858MOL0     C15700   2.929   5.344   3.493  0.9315 -0.2597  0.2473
  858MOL0     C15701   3.028   5.434   3.450 -0.8559 -0.3367 -0.4446
  858MOL0     C15702   3.162   5.442   3.502  0.1577  0.3209  0.3343
  858MOL0     O15703   3.251   5.532   3.448 -0.2904 -0.2959  0.1134
  858MOL0     C15704   3.391   5.493   3.440 -0.3113 -0.6756  0.3868
  858MOL0     C15705   3.432   5.498   3.297 -0.4411 -0.0050 -0.6640
  858MOL0     C15706   3.420   5.639   3.236 -0.1183 -0.3624 -0.1902
  858MOL0     C15707   3.449   5.618   3.087  0.1746 -0.1739 -0.3987
  858MOL0     C15708   3.425   5.745   3.008  0.4226 -0.3123 -0.3422
  858MOL0     C15709   3.430   5.727   2.866 -0.2919 -1.0674  0.0137
  858MOL0     C15710   3.579   5.698   2.816  1.1803 -0.6548 -0.1281
  858MOL0     C15711   3.673   5.810   2.842  0.6087  0.5938  0.2471
  858MOL0     N15712   3.799   5.799   2.765  0.8001 -0.1095  0.7812
  858MOL0     C15713   3.813   5.869   2.650 -0.4451 -0.2751 -1.1550
  858MOL0     C15714   3.945   5.848   2.627  0.0361  0.0218  0.7421
  858MOL0     C15715   4.029   5.903   2.510 -0.3893  0.5103 -0.4106
  858MOL0     C15716   4.172   5.938   2.567  0.9985  0.5868 -0.2046
  858MOL0     C15717   4.243   6.046   2.472 -0.2498 -0.2611 -0.4352
  858MOL0     C15718   4.344   6.127   2.545  0.2970 -0.1094  0.1214
  858MOL0     O15719   4.453   6.045   2.594  0.3583  0.1487  0.0043
  858MOL0     C15720   4.578   6.047   2.552 -0.0007 -0.2354  0.2216
  858MOL0     C15721   4.621   6.110   2.429  0.6662 -0.1648 -0.8562
  858MOL0     C15722   4.754   6.132   2.414 -0.0956 -0.1151 -0.6120
  858MOL0     C15723   4.856   6.103   2.507  0.1690 -0.4986 -1.5323
  858MOL0     C15724   4.997   6.146   2.503  0.3338  0.4712  0.1575
  858MOL0     O15725   5.080   6.138   2.609 -0.6435  0.4210 -0.1124
  858MOL0     C15726   5.205   6.183   2.601  0.7169  0.2152  0.4701
  858MOL0     C15727   5.298   6.101   2.651 -0.1673  0.5477  0.6649
  858MOL0     C15728   5.436   6.140   2.660 -0.2127  1.1124 -0.4046
  858MOL0     C15729   5.473   6.271   2.615 -0.5655  0.5714  0.6633
  858MOL0     O15730   5.601   6.323   2.618 -0.3431 -0.1261 -0.3537
  858MOL0     C15731   5.680   6.293   2.733  0.7696  0.3511 -0.5328
  858MOL0     C15732   5.827   6.326   2.711 -0.6357  1.1723 -0.1373
  858MOL0     C15733   5.931   6.269   2.817 -0.1797  0.5298 -0.3037
  858MOL0     C15734   5.985   6.129   2.787 -0.3194 -0.0588 -0.0962
  858MOL0     C15735   6.073   6.071   2.898  0.1066  0.2724  0.6205
  858MOL0     C15736   6.208   6.145   2.899  0.7735 -0.3197 -0.4801
  858MOL0     C15737   6.307   6.058   2.975 -0.2116 -1.1695 -0.6936
  858MOL0     C15738   6.273   6.028   3.115  0.2243 -1.2241  0.1419
  858MOL0    Cl15739   6.408   6.006   3.226 -0.2272  0.7424  0.2237
  858MOL0     C15740   5.375   6.357   2.560  0.1169 -0.0733 -0.0698
  858MOL0     C15741   5.245   6.313   2.549  1.1197  0.0918  0.1349
  858MOL0     O15742   5.034   6.191   2.394  0.2864 -0.1533 -0.6828
  858MOL0     C15743   4.809   6.043   2.621 -0.3580  0.6751 -0.3879
  858MOL0     C15744   4.676   6.008   2.642 -0.4568 -0.2408 -0.5868
  858MOL0     N15745   3.999   5.770   2.731  0.0256 -0.7380 -0.1316
  858MOL0     N15746   3.911   5.736   2.810 -0.1179  0.0164 -0.4573
  858MOL0     C15747   3.188   5.359   3.607 -0.2981  0.5885  0.7518
  858MOL0     C15748   3.085   5.273   3.662 -1.3510  0.5130  0.3783
  858MOL0     C15749   2.813   4.958   3.729  0.3130 -0.2925  0.3768
  858MOL0     C15750   2.698   5.023   3.794  0.2499  0.5915  1.4672
  858MOL0     C15751   2.619   4.956   3.880  0.2762  0.0969  0.2159
  858MOL0     C15752   2.645   4.822   3.915 -0.7025  0.6457  0.1308
  858MOL0     O15753   2.563   4.753   4.005  0.9668  0.1387 -0.7203
  858MOL0     C15754   2.424   4.793   4.002 -0.4602 -0.0240 -0.2550
  858MOL0     C15755   2.351   4.664   4.025  0.5467 -0.3578 -0.9189
  858MOL0     C15756   2.337   4.573   3.907  0.0809 -0.1128 -0.1607
  858MOL0     C15757   2.195   4.509   3.897  0.0056  0.3224  0.5048
  858MOL0     C15758   2.194   4.393   3.980 -0.1126  0.1207 -0.3477
  858MOL0     C15759   2.191   4.300   4.056 -0.1476  0.4490  0.0782
  858MOL0     C15760   2.761   4.765   3.869  0.2735 -0.4363 -0.3268
  858MOL0     C15761   2.842   4.827   3.775 -0.5974  0.6430  0.0075
  858MOL0     C15762   2.964   4.749   3.719  0.1662 -0.6083  0.2615
  858MOL0     H15763   2.831   5.339   3.445  0.2306  0.4694  1.5608
  858MOL0     H15764   3.026   5.512   3.375  2.8206  0.8458  0.4491
  858MOL0     H15765   3.455   5.563   3.495  0.0009 -0.8266  0.2190
  858MOL0     H15766   3.407   5.390   3.472  0.8516  0.0279  2.2691
  858MOL0     H15767   3.386   5.423   3.233 -1.8990  1.5060 -1.4474
  858MOL0     H15768   3.540   5.480   3.295 -0.5128 -0.3773 -2.2552
  858MOL0     H15769   3.491   5.713   3.274 -0.4743  1.3200 -2.5504
  858MOL0     H15770   3.317   5.665   3.261 -0.1175 -3.3241  3.9345
  858MOL0     H15771   3.552   5.583   3.082  1.2163  2.3339  1.2468
  858MOL0     H15772   3.380   5.540   3.053 -0.0707  0.6513 -1.8888
  858MOL0     H15773   3.330   5.791   3.035  0.7933  0.7830 -0.8265
  858MOL0     H15774   3.492   5.822   3.048  0.6957  0.7352 -2.6491
  858MOL0     H15775   3.365   5.647   2.829 -0.8144 -0.4082 -0.5392
  858MOL0     H15776   3.396   5.821   2.821  1.4982  1.4655  3.5209
  858MOL0     H15777   3.577   5.671   2.710 -0.3565 -0.1522 -0.2560
  858MOL0     H15778   3.626   5.619   2.876 -1.7727 -0.8625  2.1627
  858MOL0     H15779   3.614   5.898   2.816  1.3688  0.4141 -2.3211
  858MOL0     H15780   3.692   5.793   2.948 -0.0891 -0.7182  0.1881
  858MOL0     H15781   3.735   5.921   2.594 -0.7476 -0.9778 -1.3986
  858MOL0     H15782   4.033   5.837   2.424  1.7898 -1.1080  0.8336
  858MOL0     H15783   3.993   6.000   2.473 -0.0949  0.7567 -0.0569
  858MOL0     H15784   4.158   5.987   2.664 -1.3838  0.4367 -0.4129
  858MOL0     H15785   4.225   5.843   2.579  0.3283  0.1906 -0.3253
  858MOL0     H15786   4.165   6.115   2.437 -1.2564  0.1494  2.3921
  858MOL0     H15787   4.277   6.002   2.377 -1.2380 -1.6216 -0.1882
  858MOL0     H15788   4.300   6.181   2.629  1.1822  2.7497 -1.1084
  858MOL0     H15789   4.380   6.197   2.469 -1.2665 -0.2050 -0.7506
  858MOL0     H15790   4.544   6.131   2.355  2.1361  0.6222 -2.2026
  858MOL0     H15791   4.790   6.179   2.323 -1.5713  0.8061 -0.7442
  858MOL0     H15792   5.262   6.004   2.681 -2.1321  0.4087 -1.7604
  858MOL0     H15793   5.514   6.075   2.698  0.5556  2.3141  0.1502
  858MOL0     H15794   5.635   6.345   2.818  2.0569  1.0060 -0.2276
  858MOL0     H15795   5.675   6.184   2.746 -0.8738  0.4189 -0.3789
  858MOL0     H15796   5.855   6.282   2.615 -2.6222 -2.9497  0.9246
  858MOL0     H15797   5.852   6.432   2.716 -0.5153  1.2018 -1.3122
  858MOL0     H15798   6.018   6.334   2.833 -0.8649  1.4516 -0.2465
  858MOL0     H15799   5.873   6.267   2.910  2.0187 -1.6087  1.1338
  858MOL0     H15800   6.023   6.138   2.685  0.3772 -2.3560 -0.1004
  858MOL0     H15801   5.904   6.058   2.771  1.4046 -2.0840 -0.3959
  858MOL0     H15802   6.083   5.965   2.871 -0.8067  0.6968 -1.5883
  858MOL0     H15803   6.018   6.088   2.991  0.1955 -0.4695  0.8163
  858MOL0     H15804   6.246   6.158   2.797 -1.0627  1.0861 -1.0285
  858MOL0     H15805   6.204   6.247   2.937 -2.8097  0.8379 -3.3291
  858MOL0     H15806   6.405   6.104   2.985 -0.1347 -1.0841 -1.7145
  858MOL0     H15807   6.320   5.966   2.916  0.6123 -1.7546  0.3723
  858MOL0     H15808   6.216   6.110   3.160  0.1159 -0.7662 -0.7987
  858MOL0     H15809   6.201   5.946   3.118 -0.1858 -0.8418  1.4143
  858MOL0     H15810   5.400   6.454   2.517  2.8832 -0.7558 -0.1962
  858MOL0     H15811   5.170   6.387   2.521  1.5073  0.7366  0.7427
  858MOL0     H15812   4.887   6.012   2.690 -1.4832  1.3677  1.2655
  858MOL0     H15813   4.639   5.958   2.732 -0.1052 -0.5914 -0.6372
  858MOL0     H15814   3.289   5.357   3.646  0.6865 -0.8665 -1.6246
  858MOL0     H15815   3.112   5.231   3.758 -0.7631  1.2002  0.5242
  858MOL0     H15816   2.684   5.129   3.773  3.4483  1.1481  1.6117
  858MOL0     H15817   2.550   5.016   3.939  0.7464 -1.2292  2.1855
  858MOL0     H15818   2.395   4.830   3.903 -0.3917  1.8900  0.4029
  858MOL0     H15819   2.410   4.862   4.085  0.6804 -1.6293  1.3423
  858MOL0     H15820   2.252   4.684   4.067  0.9458  1.3911 -0.7600
  858MOL0     H15821   2.407   4.613   4.104  0.2428  1.1270  0.2972
  858MOL0     H15822   2.418   4.502   3.892  1.6867  1.9049 -1.7348
  858MOL0     H15823   2.348   4.627   3.812  0.8915 -0.9456 -0.5497
  858MOL0     H15824   2.118   4.582   3.923 -1.0597 -0.3954 -0.5328
  858MOL0     H15825   2.187   4.479   3.792 -1.0800 -2.9655  1.4196
  858MOL0     H15826   2.185   4.212   4.118 -2.7505  0.1062 -0.5580
  858MOL0     H15827   2.776   4.659   3.887 -1.4524 -0.7502 -0.5077
  858MOL0     H15828   2.960   4.755   3.610  0.5260  3.6236  0.2932
  858MOL0     H15829   3.061   4.793   3.747  0.1233 -1.0725  1.1487
  858MOL0     H15830   2.955   4.648   3.759 -2.2676 -0.2976  0.6218
  859MOL0     O15831   3.405   4.742  10.778 -0.0927 -0.5306  0.6827
  859MOL0     C15832   3.357   4.682  10.874  0.3059 -1.0860 -0.3032
  859MOL0     O15833   3.427   4.673  10.994  0.1035  0.5513 -0.4135
  859MOL0     C15834   3.552   4.716  11.009  0.5751 -0.0681 -0.3775
  859MOL0     C15835   3.644   4.675  10.918  0.2496 -0.6577 -0.3460
  859MOL0     C15836   3.773   4.726  10.919  0.1615 -0.1377 -0.1223
  859MOL0     C15837   3.808   4.827  11.009 -0.1674 -0.2083  0.4976
  859MOL0     O15838   3.934   4.879  10.999  0.4954 -0.1001 -0.4451
  859MOL0     C15839   3.967   4.997  11.075 -0.2286  0.0647 -0.0856
  859MOL0     C15840   4.068   5.077  11.002 -0.7433 -0.1530 -0.3019
  859MOL0     C15841   4.211   5.012  11.010 -0.9939 -0.1776 -0.6123
  859MOL0     C15842   4.331   5.104  10.986  0.3488 -0.7058 -0.2052
  859MOL0     C15843   4.456   5.030  10.939  0.3913  0.3906  0.0371
  859MOL0     C15844   4.583   5.124  10.931  0.1414 -0.3387 -0.0436
  859MOL0     C15845   4.711   5.071  10.876  0.7893  0.1108  0.6175
  859MOL0     C15846   4.795   4.980  10.978 -0.0168  0.0455  0.3304
  859MOL0     N15847   4.842   5.057  11.100 -1.0723  1.3538 -0.1753
  859MOL0     C15848   4.777   5.077  11.219 -0.5818  0.6079  0.5052
  859MOL0     C15849   4.866   5.137  11.304 -0.2071 -0.3258 -0.6639
  859MOL0     C15850   4.842   5.190  11.443 -0.0881 -0.4395 -0.2229
  859MOL0     C15851   4.959   5.156  11.541 -0.2767 -0.2192  0.7622
  859MOL0     C15852   5.074   5.263  11.533 -0.4310  0.6521 -0.1906
  859MOL0     C15853   5.207   5.197  11.544 -0.2379  0.3198 -0.0472
  859MOL0     O15854   5.233   5.096  11.450 -0.3185  0.4348  0.2738
  859MOL0     C15855   5.365   5.069  11.420  0.4546  0.2440 -0.5133
  859MOL0     C15856   5.445   4.998  11.510  0.6363 -0.0730 -0.6109
  859MOL0     C15857   5.573   4.964  11.476 -0.2091 -0.2971  0.4675
  859MOL0     C15858   5.620   4.988  11.340 -0.7249  0.3892 -0.2245
  859MOL0     C15859   5.763   4.951  11.311  1.1381 -0.4007  0.2035
  859MOL0     O15860   5.833   5.043  11.242 -0.3560 -0.0739 -0.5797
  859MOL0     C15861   5.951   5.005  11.188 -0.3109  0.2415 -0.5816
  859MOL0     C15862   5.974   4.984  11.057 -0.8554 -0.2406  0.6727
  859MOL0     C15863   6.103   4.963  11.010  0.4851  0.0471  0.1068
  859MOL0     C15864   6.211   4.950  11.090 -0.7699 -0.5529 -1.1116
  859MOL0     O15865   6.334   4.928  11.030 -0.3798  0.0946 -0.0485
  859MOL0     C15866   6.447   4.918  11.112  0.3309 -1.1271 -0.3804
  859MOL0     C15867   6.570   4.900  11.015  0.5218  0.4148 -0.4654
  859MOL0     C15868   6.542   4.793  10.906 -0.1119  0.8969  0.7741
  859MOL0     C15869   6.656   4.775  10.811 -0.5160  0.7596  0.1800
  859MOL0     C15870   6.634   4.667  10.697  0.8876  0.2211  0.2685
  859MOL0     C15871   6.690   4.719  10.573  0.4776  0.5420 -0.2260
  859MOL0     C15872   6.843   4.736  10.575 -0.2294 -1.5361 -0.5879
  859MOL0     C15873   6.895   4.832  10.464 -0.4680  0.2012 -0.0595
  859MOL0    Cl15874   7.074   4.843  10.457 -0.2662  0.4673  0.5196
  859MOL0     C15875   6.187   4.952  11.229  0.1500  0.0106 -0.0893
  859MOL0     C15876   6.064   4.990  11.275  0.2241  0.5827 -0.6629
  859MOL0     O15877   5.797   4.836  11.335  0.3740 -0.0298 -0.2620
  859MOL0     C15878   5.530   5.051  11.249  0.7404 -0.3893  0.7158
  859MOL0     C15879   5.402   5.099  11.296  0.3153  0.3238  0.3467
  859MOL0     N15880   4.983   5.150  11.233 -0.0699 -1.3811 -0.4817
  859MOL0     N15881   4.972   5.079  11.120  0.7019 -0.2388  0.6436
  859MOL0     C15882   3.713   4.869  11.106  0.5166  0.0296 -0.7973
  859MOL0     C15883   3.585   4.807  11.108  0.3431 -0.5203 -0.2932
  859MOL0     C15884   3.234   4.605  10.868 -0.4587 -0.0981 -0.7320
  859MOL0     C15885   3.163   4.599  10.992 -0.0359 -0.2404  0.2933
  859MOL0     C15886   3.049   4.515  10.990  0.8507 -0.2977 -0.2468
  859MOL0     C15887   3.009   4.439  10.879 -0.2426 -0.0764  0.2379
  859MOL0     O15888   2.899   4.359  10.876  0.1937  0.2060 -0.2052
  859MOL0     C15889   2.847   4.314  10.753 -0.2217 -0.6647  0.1485
  859MOL0     C15890   2.716   4.228  10.747  0.2393 -0.2713  0.0366
  859MOL0     C15891   2.719   4.086  10.815 -0.0798 -0.4818 -0.8797
  859MOL0     C15892   2.687   4.097  10.964 -0.7837 -0.7440 -0.3170
  859MOL0     C15893   2.547   4.141  10.979 -0.4959  0.4471 -0.1353
  859MOL0     C15894   2.432   4.172  10.993  0.6764  0.2919  0.1032
  859MOL0     C15895   3.082   4.460  10.760  0.3129 -0.1894  1.0622
  859MOL0     C15896   3.195   4.543  10.751 -0.4669  0.3629 -0.0576
  859MOL0     C15897   3.271   4.549  10.622  0.4361  0.2965 -0.4764
  859MOL0     H15898   3.618   4.598  10.845  1.8077 -2.8565  1.2900
  859MOL0     H15899   3.854   4.694  10.854  2.4430 -0.0433  2.4631
  859MOL0     H15900   3.877   5.058  11.091  0.1145  0.3810  0.6531
  859MOL0     H15901   4.010   4.946  11.162 -0.3536 -0.3105 -0.2404
  859MOL0     H15902   4.065   5.176  11.049 -1.4349 -1.9348  3.7403
  859MOL0     H15903   4.040   5.076  10.896 -2.4130 -1.9090  0.1039
  859MOL0     H15904   4.217   4.938  10.930 -0.3149 -2.4923  1.4582
  859MOL0     H15905   4.229   4.970  11.109  1.2199  2.4530  0.2312
  859MOL0     H15906   4.291   5.174  10.912 -3.3339  1.0541  3.0372
  859MOL0     H15907   4.361   5.161  11.075 -0.2423 -0.7827  0.0496
  859MOL0     H15908   4.479   4.945  11.003  0.3059 -0.1269 -0.6062
  859MOL0     H15909   4.436   4.983  10.842  1.7120 -0.7984  0.3203
  859MOL0     H15910   4.542   5.193  10.856 -0.7379 -0.1578  0.5807
  859MOL0     H15911   4.597   5.178  11.025 -1.8918 -1.7237  1.1658
  859MOL0     H15912   4.780   5.153  10.853  1.3383 -0.2997  0.7790
  859MOL0     H15913   4.690   5.021  10.781 -2.0844 -0.7718  1.6235
  859MOL0     H15914   4.737   4.890  11.001  0.3434  0.1870  1.9666
  859MOL0     H15915   4.885   4.955  10.921 -0.9376  0.1414 -1.2115
  859MOL0     H15916   4.675   5.050  11.244 -1.4482 -0.5364 -3.5386
  859MOL0     H15917   4.829   5.298  11.449  0.6818 -0.4098  2.1351
  859MOL0     H15918   4.742   5.150  11.468 -1.1068  1.2341 -1.4244
  859MOL0     H15919   4.914   5.168  11.640 -2.8266 -0.3474 -0.3175
  859MOL0     H15920   4.997   5.054  11.526  2.0900  0.9533 -2.2648
  859MOL0     H15921   5.064   5.320  11.626 -1.1391 -0.0767  0.1847
  859MOL0     H15922   5.064   5.328  11.445  0.4357 -0.5913 -1.2402
  859MOL0     H15923   5.215   5.149  11.642 -0.7253  2.1222  0.9322
  859MOL0     H15924   5.288   5.270  11.535  2.2737 -2.4458 -1.6513
  859MOL0     H15925   5.422   4.970  11.613  3.7235 -1.0453 -0.0973
  859MOL0     H15926   5.639   4.917  11.549 -3.2696 -1.9307  2.4164
  859MOL0     H15927   5.899   4.995  10.979  0.7046 -2.4452 -1.2691
  859MOL0     H15928   6.113   4.953  10.902 -0.1342  0.1244  0.0353
  859MOL0     H15929   6.461   5.010  11.170  2.8829 -0.6771 -1.5639
  859MOL0     H15930   6.436   4.835  11.182  2.2829  0.1470  1.5478
  859MOL0     H15931   6.582   4.996  10.965 -2.7276  2.0483  1.6040
  859MOL0     H15932   6.652   4.876  11.084  0.5872  1.2578 -0.2375
  859MOL0     H15933   6.522   4.691  10.941  0.0939  0.4446 -0.4080
  859MOL0     H15934   6.452   4.817  10.849 -0.9105  0.7644  1.9269
  859MOL0     H15935   6.745   4.745  10.867 -1.3136 -0.3473  0.8886
  859MOL0     H15936   6.676   4.870  10.759  3.7023 -0.1255 -0.2145
  859MOL0     H15937   6.525   4.671  10.685  0.9523  3.3374 -0.1443
  859MOL0     H15938   6.671   4.564  10.702  3.1802  0.8743 -1.5987
  859MOL0     H15939   6.666   4.650  10.491 -1.3749  1.2640 -0.3332
  859MOL0     H15940   6.635   4.810  10.547 -2.0702 -1.6278 -3.2390
  859MOL0     H15941   6.885   4.634  10.573 -0.5722 -1.7166  0.4880
  859MOL0     H15942   6.881   4.783  10.667  0.0356 -1.8146 -0.5497
  859MOL0     H15943   6.852   4.792  10.372  0.2369  0.9879 -0.7554
  859MOL0     H15944   6.865   4.937  10.477 -0.4329  0.2046 -0.0046
  859MOL0     H15945   6.265   4.936  11.303 -0.9705  0.3256  1.1833
  859MOL0     H15946   6.039   5.006  11.379 -0.1210  3.3354 -1.1035
  859MOL0     H15947   5.557   5.072  11.146  0.5343 -0.1800  0.7023
  859MOL0     H15948   5.340   5.162  11.232  0.2846 -0.9973 -0.9709
  859MOL0     H15949   3.728   4.945  11.182 -0.7663  0.1065 -0.5957
  859MOL0     H15950   3.512   4.851  11.176  0.6994  2.6157 -1.7425
  859MOL0     H15951   3.192   4.661  11.076 -1.8462  0.7697  0.2345
  859MOL0     H15952   2.984   4.506  11.076 -3.3167  0.3312 -3.0256
  859MOL0     H15953   2.920   4.247  10.707  0.8187 -0.1193  0.9836
  859MOL0     H15954   2.830   4.395  10.681  1.3112  1.0941  1.6740
  859MOL0     H15955   2.719   4.205  10.640  0.3857 -1.5676  0.3011
  859MOL0     H15956   2.626   4.286  10.768 -0.0601  0.1892 -2.2703
  859MOL0     H15957   2.820   4.049  10.795  0.6183  0.3270  0.9634
  859MOL0     H15958   2.651   4.013  10.770  0.6212 -0.6891 -1.6333
  859MOL0     H15959   2.712   3.998  11.003  2.4511 -0.0220 -0.2869
  859MOL0     H15960   2.761   4.158  11.017 -0.4351 -1.7281  0.3667
  859MOL0     H15961   2.330   4.203  11.005  0.7920  0.6500  0.1674
  859MOL0     H15962   3.052   4.414  10.666 -0.8605 -0.9069  1.7492
  859MOL0     H15963   3.255   4.654  10.596  0.5287  0.9591  1.9081
  859MOL0     H15964   3.375   4.529  10.649 -0.3214 -0.2120  2.3239
  859MOL0     H15965   3.230   4.485  10.543 -2.0037  0.0736  0.8588
  860MOL0     O15966   9.293   7.199  10.097 -0.3371  0.3681 -0.6707
  860MOL0     C15967   9.188   7.183  10.154  0.1068  0.4904 -0.2150
  860MOL0     O15968   9.170   7.138  10.287 -0.6066 -0.3061  0.1114
  860MOL0     C15969   9.282   7.168  10.365  0.9521  0.1002  0.2540
  860MOL0     C15970   9.372   7.073  10.386 -0.0547  0.4576 -0.3023
  860MOL0     C15971   9.480   7.104  10.461  0.5419  0.7292  0.2047
  860MOL0     C15972   9.488   7.216  10.536  0.1775 -0.7389 -0.1778
  860MOL0     O15973   9.594   7.218  10.624 -0.2289 -0.2545 -0.2378
  860MOL0     C15974   9.644   7.342  10.655  0.7527 -0.0283  0.0714
  860MOL0     C15975   9.786   7.315  10.707  0.3559 -1.0100  0.1420
  860MOL0     C15976   9.863   7.443  10.748 -0.3711 -0.4218 -0.9837
  860MOL0     C15977   9.981   7.414  10.850 -0.2339  0.4519  0.3269
  860MOL0     C15978  10.078   7.535  10.878  0.2256  0.1194  0.2938
  860MOL0     C15979  10.180   7.505  10.991 -0.3726  0.3868 -0.6437
  860MOL0     C15980  10.261   7.627  11.009 -0.1277 -0.5000 -0.7797
  860MOL0     C15981  10.369   7.660  10.909  0.1112 -0.4271  0.1766
  860MOL0     N15982  10.445   7.544  10.858 -0.9183 -0.1929 -0.3570
  860MOL0     C15983  10.480   7.516  10.729  0.6111  0.0071 -0.1242
  860MOL0     C15984  10.566   7.410  10.735  0.7548 -0.2914 -0.0242
  860MOL0     C15985  10.629   7.347  10.610  0.1086 -0.0050  0.8311
  860MOL0     C15986  10.781   7.353  10.603  0.5362 -0.2626 -0.4686
  860MOL0     C15987  10.838   7.269  10.500  0.1320  0.7105 -0.2233
  860MOL0     C15988  10.989   7.232  10.515 -0.7941  0.3337  0.3690
  860MOL0     O15989  11.061   7.355  10.508  0.7973  0.3243  0.0194
  860MOL0     C15990  11.198   7.348  10.517  0.0145 -0.1402 -0.4088
  860MOL0     C15991  11.269   7.228  10.517  0.0572  0.4597  0.1645
  860MOL0     C15992  11.402   7.224  10.521  0.3245  0.4015  1.0284
  860MOL0     C15993  11.478   7.338  10.550  0.1327  0.5634 -0.0020
  860MOL0     C15994  11.621   7.339  10.570  0.2080  0.1218  1.1942
  860MOL0     O15995  11.681   7.442  10.618  0.0050 -0.6636  0.1438
  860MOL0     C15996  11.812   7.429  10.653 -0.1903 -0.5347 -0.2460
  860MOL0     C15997  11.838   7.357  10.774 -0.0566  0.5372  0.1349
  860MOL0     C15998  11.971   7.354  10.826  0.5096 -0.2080 -0.4037
  860MOL0     C15999  12.074   7.422  10.758  0.1839 -0.4682 -0.7748
  860MOL0     O16000  12.204   7.433  10.808  0.1936  0.0348 -0.3980
  860MOL0     C16001  12.255   7.333  10.897 -0.0108  0.4202 -0.0593
  860MOL0     C16002  12.407   7.351  10.885  0.0015 -0.0892  0.7996
  860MOL0     C16003  12.469   7.436  10.986 -0.2203  0.0096 -0.6402
  860MOL0     C16004  12.620   7.446  10.988 -0.5403  0.3499 -0.3083
  860MOL0     C16005  12.666   7.552  11.089  0.4345 -0.0775  0.0622
  860MOL0     C16006  12.818   7.553  11.104  1.4811 -0.8260 -0.1905
  860MOL0     C16007  12.861   7.681  11.176  0.1180  0.4828  0.0753
  860MOL0     C16008  13.020   7.689  11.164 -0.3940 -0.4658  0.2696
  860MOL0    Cl16009  13.087   7.717  10.998  0.1251 -0.2482 -0.1532
  860MOL0     C16010  12.040   7.505  10.650  0.2269  0.0977  0.6123
  860MOL0     C16011  11.908   7.507  10.595  1.2824  0.6547 -0.0205
  860MOL0     O16012  11.673   7.226  10.551  0.5716 -0.3825  0.3286
  860MOL0     C16013  11.416   7.460  10.546 -0.3575 -0.4629 -0.1965
  860MOL0     C16014  11.270   7.465  10.538  0.2980  0.5410 -0.1912
  860MOL0     N16015  10.598   7.376  10.871  0.0464 -0.1161 -0.2870
  860MOL0     N16016  10.515   7.456  10.936 -0.0124  0.5782  0.5232
  860MOL0     C16017   9.393   7.317  10.521  1.0105 -0.7833  0.5056
  860MOL0     C16018   9.291   7.293  10.423 -0.8442 -1.1565 -0.0651
  860MOL0     C16019   9.063   7.197  10.068  0.2417  0.4650  0.1898
  860MOL0     C16020   9.077   7.234   9.931  0.4189  0.2493  0.7951
  860MOL0     C16021   8.967   7.256   9.842 -0.6191  0.1023 -0.3943
  860MOL0     C16022   8.836   7.244   9.897 -0.0603 -0.2494  0.3442
  860MOL0     O16023   8.740   7.277   9.810 -0.4089  0.3295  0.3289
  860MOL0     C16024   8.621   7.344   9.860  0.1038 -0.0396  0.4074
  860MOL0     C16025   8.645   7.489   9.905  1.0022 -0.5958  0.5374
  860MOL0     C16026   8.580   7.584   9.806  0.6267 -1.2810 -0.2800
  860MOL0     C16027   8.426   7.561   9.796  0.5299  0.7911 -0.0107
  860MOL0     C16028   8.349   7.586   9.920 -0.0076 -0.8782  0.3445
  860MOL0     C16029   8.280   7.607  10.019 -0.2981  0.1793 -0.6319
  860MOL0     C16030   8.822   7.215  10.033 -0.9852 -0.1625  0.3750
  860MOL0     C16031   8.928   7.201  10.117 -0.8661  0.3074  0.2597
  860MOL0     C16032   8.898   7.188  10.263  0.2722  0.2630 -0.3231
  860MOL0     H16033   9.362   6.982  10.329 -1.1574  0.3095  0.1053
  860MOL0     H16034   9.561   7.031  10.464  1.1280  1.3383 -0.3389
  860MOL0     H16035   9.643   7.405  10.566 -1.0377 -0.4781 -0.2431
  860MOL0     H16036   9.592   7.391  10.738  0.0781 -2.2316  1.0012
  860MOL0     H16037   9.845   7.260  10.633  1.7326 -2.8686  2.4414
  860MOL0     H16038   9.778   7.247  10.793 -0.4059 -1.8365 -0.5743
  860MOL0     H16039   9.792   7.503  10.805 -2.7239 -4.4776  0.7887
  860MOL0     H16040   9.900   7.490  10.656  1.7418  0.5714  0.3110
  860MOL0     H16041   9.927   7.372  10.935  0.2544 -0.7360  0.0712
  860MOL0     H16042  10.044   7.336  10.806 -0.0909  0.1075  1.1301
  860MOL0     H16043  10.128   7.557  10.783 -0.6957 -3.6123 -1.1998
  860MOL0     H16044  10.020   7.624  10.906 -2.1323 -1.2543  0.0579
  860MOL0     H16045  10.127   7.474  11.081  1.7348  0.8003  0.7974
  860MOL0     H16046  10.242   7.417  10.973  1.7606  1.4186  1.2219
  860MOL0     H16047  10.311   7.635  11.106 -2.3920  1.5550  0.3279
  860MOL0     H16048  10.185   7.706  11.014  1.6400  1.2039  0.8205
  860MOL0     H16049  10.323   7.708  10.822  1.3528  0.0194 -0.2591
  860MOL0     H16050  10.436   7.736  10.950 -0.9254  1.1599 -0.9369
  860MOL0     H16051  10.451   7.560  10.634 -1.2418 -0.7688  0.0381
  860MOL0     H16052  10.601   7.242  10.607  0.3789 -0.1237  1.8878
  860MOL0     H16053  10.597   7.394  10.517  3.1249 -2.6947 -1.7902
  860MOL0     H16054  10.818   7.456  10.595 -2.5068  1.2926  2.5964
  860MOL0     H16055  10.816   7.316  10.700  2.0439  2.4176  0.1180
  860MOL0     H16056  10.812   7.323  10.409 -0.5116 -1.3720 -1.3463
  860MOL0     H16057  10.788   7.172  10.495  2.7048 -0.8560  1.4019
  860MOL0     H16058  11.021   7.177  10.426  0.9826  0.8888  0.6302
  860MOL0     H16059  11.021   7.172  10.601 -0.1357 -1.8994 -1.3374
  860MOL0     H16060  11.217   7.136  10.493 -0.8778  0.5447  1.7120
  860MOL0     H16061  11.463   7.140  10.492 -1.5883 -0.7851  0.2286
  860MOL0     H16062  11.768   7.283  10.811 -0.6519  2.0397  2.2398
  860MOL0     H16063  11.996   7.279  10.899 -3.0298 -0.3188  0.8840
  860MOL0     H16064  12.228   7.347  11.002 -2.3312  0.3490 -0.5875
  860MOL0     H16065  12.236   7.234  10.855 -0.0985  0.3541  0.1337
  860MOL0     H16066  12.457   7.254  10.897  0.0411 -0.0203  1.1773
  860MOL0     H16067  12.435   7.384  10.784  0.5857 -1.7393  0.3844
  860MOL0     H16068  12.437   7.538  10.964  3.4356  1.2455 -0.8534
  860MOL0     H16069  12.441   7.396  11.084 -1.6094 -0.9173 -1.3760
  860MOL0     H16070  12.654   7.470  10.887 -0.4979  1.6400 -0.0017
  860MOL0     H16071  12.663   7.347  11.009 -0.3813  0.6941  1.1113
  860MOL0     H16072  12.620   7.531  11.186  0.0395  2.8704  0.6298
  860MOL0     H16073  12.634   7.652  11.056  0.3182  0.3446  1.4043
  860MOL0     H16074  12.842   7.469  11.170  3.1072  0.4700  0.9203
  860MOL0     H16075  12.878   7.538  11.014 -0.1046 -2.1649 -1.0862
  860MOL0     H16076  12.831   7.691  11.280 -3.2696  1.4944 -0.8783
  860MOL0     H16077  12.819   7.763  11.118  0.4508  0.5068 -0.1388
  860MOL0     H16078  13.062   7.772  11.222  1.4278 -0.9060 -0.3424
  860MOL0     H16079  13.065   7.594  11.194  0.9101 -0.7127 -2.2487
  860MOL0     H16080  12.119   7.564  10.604  0.4383 -1.3225 -0.9174
  860MOL0     H16081  11.883   7.554  10.500 -0.2111 -1.5791 -0.8091
  860MOL0     H16082  11.470   7.554  10.544 -1.2769  0.0686 -1.3852
  860MOL0     H16083  11.219   7.560  10.550  0.8340  0.6362  1.6663
  860MOL0     H16084   9.396   7.404  10.586 -1.0835 -0.0444 -0.3230
  860MOL0     H16085   9.230   7.380  10.405  0.5257 -0.3259 -0.8171
  860MOL0     H16086   9.180   7.247   9.902  0.5001  0.9832  1.3853
  860MOL0     H16087   8.969   7.266   9.734 -2.1724 -1.9736 -0.6668
  860MOL0     H16088   8.577   7.293   9.946  1.7588 -1.3791  0.5060
  860MOL0     H16089   8.545   7.332   9.782 -0.5705  3.5827  0.3387
  860MOL0     H16090   8.749   7.512   9.930  0.0257  2.6111  2.2466
  860MOL0     H16091   8.591   7.496  10.000  0.9608  0.5734  0.4473
  860MOL0     H16092   8.623   7.568   9.707  0.9418 -0.7115 -0.2365
  860MOL0     H16093   8.607   7.687   9.831  0.6877 -0.5213 -3.1813
  860MOL0     H16094   8.392   7.618   9.708  1.1718 -1.8894 -2.1273
  860MOL0     H16095   8.395   7.459   9.774  0.2367  0.7570  0.5437
  860MOL0     H16096   8.221   7.635  10.103 -1.5707 -1.1832 -1.0245
  860MOL0     H16097   8.723   7.215  10.079 -0.9648  1.0685  0.4478
  860MOL0     H16098   8.948   7.260  10.329  0.4182  1.9158 -2.1383
  860MOL0     H16099   8.791   7.207  10.278  0.1160  1.3132 -2.4703
  860MOL0     H16100   8.934   7.090  10.293 -1.8727 -1.2837 -2.3848
  861MOL0     O16101   8.517   6.185   1.823  0.3245  0.9818  0.3266
  861MOL0     C16102   8.481   6.280   1.880 -0.3796  0.4200  0.0135
  861MOL0     O16103   8.570   6.370   1.930 -0.0131  0.3555  0.3842
  861MOL0     C16104   8.698   6.333   1.926  0.9208  0.1427 -1.0290
  861MOL0     C16105   8.775   6.333   1.808  0.0227 -0.1539  0.0826
  861MOL0     C16106   8.915   6.332   1.809  0.6505  0.3453  0.0009
  861MOL0     C16107   8.982   6.305   1.928  0.0060 -0.1531  1.0148
  861MOL0     O16108   9.118   6.295   1.933 -0.1059  0.1047  0.7362
  861MOL0     C16109   9.191   6.281   1.803  0.5959  0.3699  0.3127
  861MOL0     C16110   9.332   6.232   1.841 -0.5964  0.3072 -0.5066
  861MOL0     C16111   9.420   6.341   1.916 -0.5066  0.2522  0.0174
  861MOL0     C16112   9.552   6.273   1.951 -0.1178  0.6400  0.0125
  861MOL0     C16113   9.664   6.383   1.953  0.9142  0.7788 -0.2898
  861MOL0     C16114   9.791   6.326   2.011  0.1430  0.5259 -0.1375
  861MOL0     C16115   9.909   6.431   2.015  0.6479 -0.2086 -0.0757
  861MOL0     C16116   9.865   6.565   2.075 -0.7762 -0.2365 -0.5074
  861MOL0     N16117   9.825   6.549   2.218 -0.1336 -0.2910  0.1836
  861MOL0     C16118   9.915   6.534   2.319  0.3430 -0.2312 -0.0717
  861MOL0     C16119   9.836   6.501   2.419 -1.1930  0.4809 -0.0837
  861MOL0     C16120   9.890   6.449   2.553  0.5252 -0.1060  0.9914
  861MOL0     C16121  10.048   6.429   2.564  0.7241  0.1159 -0.6318
  861MOL0     C16122  10.082   6.359   2.695 -0.0064  0.1848 -0.3479
  861MOL0     C16123  10.225   6.362   2.727  0.6306  0.5578 -0.4451
  861MOL0     O16124  10.276   6.477   2.792  0.5338 -0.3947  0.0473
  861MOL0     C16125  10.411   6.492   2.807  1.1173 -0.2845 -0.3152
  861MOL0     C16126  10.507   6.397   2.758  0.2042 -0.3835  0.5953
  861MOL0     C16127  10.643   6.421   2.778  0.7574 -0.1482 -0.5091
  861MOL0     C16128  10.693   6.533   2.841  0.1469 -0.7086  0.2541
  861MOL0     C16129  10.838   6.564   2.845 -0.7376 -0.2737 -0.0701
  861MOL0     O16130  10.876   6.698   2.845  0.3452 -0.2115  0.2775
  861MOL0     C16131  11.009   6.725   2.820 -0.2178 -0.9785 -0.2407
  861MOL0     C16132  11.111   6.702   2.914  0.2350  0.3606 -0.0015
  861MOL0     C16133  11.238   6.757   2.899 -0.2651  0.8591 -0.2363
  861MOL0     C16134  11.261   6.838   2.786 -0.2247 -0.1055  0.4026
  861MOL0     O16135  11.389   6.887   2.775 -0.1793  0.2381  0.8274
  861MOL0     C16136  11.441   6.895   2.638  0.1053  0.8105  0.4837
  861MOL0     C16137  11.587   6.938   2.636  0.0733 -0.2408  0.2325
  861MOL0     C16138  11.660   6.915   2.497  0.4598  0.8346 -0.6407
  861MOL0     C16139  11.792   6.978   2.485  0.2129  0.2112  0.1803
  861MOL0     C16140  11.886   6.922   2.377  0.3650  0.4023  0.2662
  861MOL0     C16141  12.027   6.976   2.376 -0.4943  0.2374 -0.4073
  861MOL0     C16142  12.030   7.120   2.337  0.2779 -0.4951 -0.5449
  861MOL0     C16143  12.178   7.159   2.319  0.0037  0.1606 -0.6706
  861MOL0    Cl16144  12.262   7.067   2.197 -0.0039  0.1810 -0.7042
  861MOL0     C16145  11.161   6.862   2.694 -0.1321  0.3702  0.8649
  861MOL0     C16146  11.033   6.803   2.710 -0.2440  0.1858 -0.0576
  861MOL0     O16147  10.921   6.478   2.846 -0.4376  0.2625 -0.5119
  861MOL0     C16148  10.595   6.619   2.900 -0.2787 -0.0206  1.2082
  861MOL0     C16149  10.457   6.600   2.884 -0.4261 -0.2115 -0.1647
  861MOL0     N16150   9.707   6.517   2.382 -0.0934 -0.0727 -0.7892
  861MOL0     N16151   9.699   6.540   2.256  0.0416 -0.4364  0.2369
  861MOL0     C16152   8.911   6.299   2.044 -0.3039 -0.1894 -0.4273
  861MOL0     C16153   8.766   6.313   2.046  0.3249  0.2416  0.5619
  861MOL0     C16154   8.334   6.311   1.909 -0.0403 -0.6782  0.6412
  861MOL0     C16155   8.304   6.435   1.974  0.0142 -0.5354  0.9777
  861MOL0     C16156   8.172   6.474   1.993  0.7521 -0.2726  0.3851
  861MOL0     C16157   8.068   6.381   1.970 -0.5168  1.2291 -0.2656
  861MOL0     O16158   7.941   6.399   2.007 -0.2438  0.2276  0.4352
  861MOL0     C16159   7.912   6.531   2.061  0.6101  1.0935 -0.1182
  861MOL0     C16160   7.765   6.552   2.080  0.4519 -0.0084 -0.2866
  861MOL0     C16161   7.725   6.683   2.142 -0.4675  0.0563  0.0691
  861MOL0     C16162   7.587   6.671   2.201  0.2046 -0.1163  0.1692
  861MOL0     C16163   7.556   6.802   2.262  0.5116 -0.0313  0.6145
  861MOL0     C16164   7.521   6.903   2.314  0.0819 -1.1950  0.0099
  861MOL0     C16165   8.097   6.259   1.908 -0.3507 -0.0401 -0.5288
  861MOL0     C16166   8.226   6.218   1.875 -0.6766 -1.6388 -0.9576
  861MOL0     C16167   8.264   6.078   1.839 -0.6250 -0.0946  0.6302
  861MOL0     H16168   8.724   6.337   1.712  1.7266 -0.3785 -0.8697
  861MOL0     H16169   8.971   6.341   1.717 -0.2513  0.7337 -0.5245
  861MOL0     H16170   9.147   6.204   1.738  1.1615 -1.1904  1.7055
  861MOL0     H16171   9.183   6.375   1.748  1.9343 -0.8273 -2.1068
  861MOL0     H16172   9.390   6.196   1.755 -0.5946 -0.4724 -0.1862
  861MOL0     H16173   9.325   6.151   1.914 -1.6281  1.8830  1.2422
  861MOL0     H16174   9.379   6.384   2.007  0.2502 -1.5226  1.2433
  861MOL0     H16175   9.435   6.423   1.845 -1.8947  0.6319  0.1327
  861MOL0     H16176   9.543   6.224   2.048  1.6502 -1.4480 -0.7720
  861MOL0     H16177   9.568   6.183   1.890 -1.1012 -2.0725  3.4464
  861MOL0     H16178   9.672   6.424   1.852  0.7482  2.4285  0.3466
  861MOL0     H16179   9.634   6.464   2.020  2.8819  1.0831  0.2792
  861MOL0     H16180   9.784   6.302   2.118  2.5490  3.2491  0.7520
  861MOL0     H16181   9.819   6.233   1.960  4.1078  1.8513 -0.6788
  861MOL0     H16182   9.942   6.454   1.913 -1.6561 -2.5213 -1.4393
  861MOL0     H16183   9.995   6.394   2.073  0.2374  0.5713  1.0810
  861MOL0     H16184   9.946   6.638   2.071 -2.7939  2.2619  0.7654
  861MOL0     H16185   9.781   6.603   2.016 -2.4479 -1.5577  0.8884
  861MOL0     H16186  10.023   6.523   2.312  0.3926  0.8978 -1.7257
  861MOL0     H16187   9.839   6.512   2.626 -3.6134  1.1845 -2.5980
  861MOL0     H16188   9.847   6.349   2.560  0.1392 -0.0755 -0.7297
  861MOL0     H16189  10.083   6.363   2.484 -0.3270  1.6022 -2.3912
  861MOL0     H16190  10.093   6.528   2.553  0.0134  0.3807 -1.2145
  861MOL0     H16191  10.048   6.256   2.681 -1.5918  0.7995 -1.3224
  861MOL0     H16192  10.026   6.407   2.776  1.9935  0.2736  1.0526
  861MOL0     H16193  10.278   6.332   2.636  1.3134 -2.4605  0.8389
  861MOL0     H16194  10.249   6.271   2.783 -0.5016  0.4454 -0.1219
  861MOL0     H16195  10.481   6.307   2.702 -1.2472 -1.4849  2.8698
  861MOL0     H16196  10.709   6.349   2.732 -0.8378 -2.6513  0.8720
  861MOL0     H16197  11.074   6.630   2.986 -1.8691 -1.6460 -2.8462
  861MOL0     H16198  11.322   6.744   2.966 -0.7901 -0.1771  0.2501
  861MOL0     H16199  11.429   6.802   2.582 -0.4811  2.2966 -2.0068
  861MOL0     H16200  11.382   6.972   2.589 -1.0369 -0.5643 -0.3839
  861MOL0     H16201  11.593   7.047   2.645 -1.5966  0.1418 -2.3705
  861MOL0     H16202  11.636   6.893   2.723 -0.8053  0.4386  1.0881
  861MOL0     H16203  11.671   6.808   2.477  1.8228  1.2577 -2.3423
  861MOL0     H16204  11.596   6.960   2.421 -2.0286 -0.4937  0.5260
  861MOL0     H16205  11.850   6.970   2.578  1.6809  0.4793 -0.6747
  861MOL0     H16206  11.767   7.083   2.467 -1.6243 -0.3831 -1.0171
  861MOL0     H16207  11.837   6.930   2.280 -1.4072  1.4146  1.1977
  861MOL0     H16208  11.896   6.814   2.395  0.7583  0.3862 -0.0287
  861MOL0     H16209  12.070   6.990   2.475 -1.5905  1.2294 -0.0374
  861MOL0     H16210  12.085   6.905   2.317  0.0809 -1.3635  1.9707
  861MOL0     H16211  11.982   7.185   2.411  1.1955  1.6759 -1.7580
  861MOL0     H16212  11.977   7.154   2.247  0.0699  0.1185 -0.1966
  861MOL0     H16213  12.198   7.266   2.301  0.8420 -0.2049 -2.1509
  861MOL0     H16214  12.236   7.138   2.409  0.6460 -0.3706 -1.1897
  861MOL0     H16215  11.170   6.927   2.608  0.8741 -1.2548 -0.3207
  861MOL0     H16216  10.952   6.820   2.640 -0.6204 -0.8497  0.1104
  861MOL0     H16217  10.637   6.711   2.940  2.8553 -0.3883 -0.8951
  861MOL0     H16218  10.379   6.669   2.913 -0.8963 -0.5909 -0.5066
  861MOL0     H16219   8.959   6.295   2.141 -0.3151 -1.6032 -0.4636
  861MOL0     H16220   8.706   6.300   2.135  0.6790  2.9636  1.2990
  861MOL0     H16221   8.380   6.510   1.997  0.8734 -1.4057  1.0497
  861MOL0     H16222   8.154   6.564   2.050 -2.3749  0.2999 -1.2643
  861MOL0     H16223   7.936   6.607   1.985 -1.1408  1.9053  0.1048
  861MOL0     H16224   7.963   6.548   2.156 -2.4785 -4.3027  3.0066
  861MOL0     H16225   7.720   6.468   2.134  0.7376 -0.5184 -0.8250
  861MOL0     H16226   7.715   6.551   1.982 -2.4065 -1.2013  1.0743
  861MOL0     H16227   7.726   6.763   2.068  4.2637  1.4954  1.3415
  861MOL0     H16228   7.804   6.703   2.216 -0.3663 -1.7349  0.4907
  861MOL0     H16229   7.514   6.652   2.122 -1.4103  2.6396  0.8560
  861MOL0     H16230   7.587   6.585   2.269 -0.1701  0.0976  0.4476
  861MOL0     H16231   7.509   6.996   2.366 -1.2683 -2.2615  1.7137
  861MOL0     H16232   8.016   6.188   1.896 -1.8685  1.3805  0.7640
  861MOL0     H16233   8.331   6.038   1.915  1.5018 -0.0799 -1.1357
  861MOL0     H16234   8.172   6.019   1.835 -2.3709  2.4931 -0.0644
  861MOL0     H16235   8.315   6.067   1.743  1.8777  1.4296  1.6960
  862MOL0     O16236   7.517   8.284   5.468  0.4102  0.0190 -0.9003
  862MOL0     C16237   7.475   8.316   5.361 -0.3804 -0.2702 -0.1581
  862MOL0     O16238   7.552   8.340   5.251 -0.4230 -0.1977 -0.8936
  862MOL0     C16239   7.688   8.352   5.254 -0.2714  0.0709 -0.3248
  862MOL0     C16240   7.750   8.407   5.129  0.5013 -0.2543  0.1874
  862MOL0     C16241   7.890   8.425   5.128 -0.5083 -0.1452  0.6336
  862MOL0     C16242   7.970   8.365   5.224 -0.8331 -0.4341  0.5718
  862MOL0     O16243   8.110   8.362   5.221 -0.2580  0.1996 -0.4076
  862MOL0     C16244   8.171   8.437   5.116 -0.9231 -0.2207 -0.4237
  862MOL0     C16245   8.326   8.413   5.130  0.0568 -0.6561 -0.7530
  862MOL0     C16246   8.376   8.470   5.265  0.0302 -0.5497  0.0739
  862MOL0     C16247   8.535   8.494   5.257  0.9364  0.0279  0.4666
  862MOL0     C16248   8.567   8.631   5.189  0.0776 -0.8194 -0.1473
  862MOL0     C16249   8.720   8.664   5.183 -0.1822 -0.4896  0.0694
  862MOL0     C16250   8.769   8.781   5.267 -0.2438 -0.0260 -0.1129
  862MOL0     C16251   8.742   8.780   5.412  0.5321 -0.7332  0.4181
  862MOL0     N16252   8.817   8.687   5.498  0.0023 -0.1569  0.5533
  862MOL0     C16253   8.848   8.558   5.474 -0.4539 -0.0194 -0.6528
  862MOL0     C16254   8.916   8.514   5.579 -0.2652  0.6841 -0.5525
  862MOL0     C16255   8.964   8.373   5.611  0.0696 -0.8051  0.1889
  862MOL0     C16256   9.111   8.340   5.598 -0.0288  0.4235 -0.2376
  862MOL0     C16257   9.187   8.413   5.700 -0.1098 -0.9089  0.9381
  862MOL0     C16258   9.337   8.387   5.686  0.3467  0.3203  0.3780
  862MOL0     O16259   9.359   8.273   5.778  0.4207  0.1249  0.1993
  862MOL0     C16260   9.488   8.249   5.828 -0.0542  0.1944 -0.2775
  862MOL0     C16261   9.495   8.132   5.897 -0.0329  0.4570 -0.4634
  862MOL0     C16262   9.614   8.101   5.966  0.3790 -0.6988  0.4592
  862MOL0     C16263   9.733   8.180   5.965  0.5663 -0.3248 -0.5960
  862MOL0     C16264   9.861   8.147   6.028 -1.1754  0.7768  0.2727
  862MOL0     O16265   9.954   8.251   6.036 -0.2142 -0.0005  0.4332
  862MOL0     C16266  10.085   8.214   6.036  0.3862 -0.5132  0.1879
  862MOL0     C16267  10.147   8.193   6.151 -0.5342  0.2102 -1.1519
  862MOL0     C16268  10.287   8.173   6.160  0.2654 -0.5917  0.3177
  862MOL0     C16269  10.363   8.171   6.042  0.1596  0.0918 -0.1551
  862MOL0     O16270  10.497   8.136   6.046  0.5185  0.5470 -0.1962
  862MOL0     C16271  10.559   8.095   5.925 -0.0417 -0.0288 -0.0428
  862MOL0     C16272  10.699   8.048   5.974  0.9846 -0.1092 -0.2093
  862MOL0     C16273  10.785   8.019   5.855  0.0126 -0.0588 -0.5626
  862MOL0     C16274  10.929   8.035   5.895  0.2920 -0.1535  0.1197
  862MOL0     C16275  11.026   7.991   5.783  0.2744  0.0339  0.0760
  862MOL0     C16276  11.161   8.060   5.812 -0.7083  0.8944  0.1663
  862MOL0     C16277  11.278   7.991   5.730 -0.3162 -0.8959 -0.1430
  862MOL0     C16278  11.413   8.048   5.753 -0.5362  0.0248 -0.4983
  862MOL0    Cl16279  11.538   7.953   5.672  0.0552  0.2026  0.2647
  862MOL0     C16280  10.296   8.195   5.922 -0.5933 -0.2855 -0.7107
  862MOL0     C16281  10.165   8.219   5.922  0.0089  0.6759  0.0261
  862MOL0     O16282   9.887   8.029   6.047  0.0442  0.4378  0.5832
  862MOL0     C16283   9.721   8.297   5.889  0.1392 -0.0202 -0.9963
  862MOL0     C16284   9.597   8.338   5.824 -1.2082  0.5769 -0.6675
  862MOL0     N16285   8.935   8.617   5.670 -0.6436  0.6293  0.0247
  862MOL0     N16286   8.891   8.723   5.608 -0.0731 -0.0198  0.3083
  862MOL0     C16287   7.917   8.303   5.329  0.1118  0.5701 -0.8514
  862MOL0     C16288   7.775   8.301   5.349  0.3538  0.2247  0.0141
  862MOL0     C16289   7.323   8.319   5.350  0.2852 -0.3517 -0.6114
  862MOL0     C16290   7.241   8.280   5.458 -0.0482 -1.0429  0.5697
  862MOL0     C16291   7.108   8.305   5.473  0.6381  0.2977 -0.5591
  862MOL0     C16292   7.035   8.341   5.362 -0.1594 -0.7785  0.2334
  862MOL0     O16293   6.905   8.358   5.385  0.1306 -0.2231  0.3190
  862MOL0     C16294   6.807   8.397   5.278 -0.0561  0.0299 -0.5520
  862MOL0     C16295   6.667   8.343   5.321 -0.2090 -0.3362  0.3554
  862MOL0     C16296   6.666   8.191   5.334  1.0800  0.0473  0.2450
  862MOL0     C16297   6.513   8.152   5.335  0.3115  1.0880 -0.1162
  862MOL0     C16298   6.497   8.006   5.335 -0.0929 -0.7022  0.3567
  862MOL0     C16299   6.461   7.896   5.341 -0.2637  0.8146  0.5356
  862MOL0     C16300   7.105   8.371   5.241  0.3100  1.0050 -0.1058
  862MOL0     C16301   7.249   8.358   5.239 -0.6952  0.2250  0.0283
  862MOL0     C16302   7.315   8.407   5.107  0.3804  0.0533 -0.0791
  862MOL0     H16303   7.686   8.447   5.051  2.2585  2.7667  0.1829
  862MOL0     H16304   7.941   8.473   5.045  1.3042 -1.3758  0.9739
  862MOL0     H16305   8.133   8.398   5.020  1.3289 -2.5542 -0.4922
  862MOL0     H16306   8.152   8.543   5.129 -0.8186 -0.2470 -0.0468
  862MOL0     H16307   8.364   8.478   5.050 -1.5803  2.4221  0.7825
  862MOL0     H16308   8.347   8.306   5.117 -3.6019 -1.7101  0.5680
  862MOL0     H16309   8.357   8.402   5.349  2.8710  1.5311  2.6318
  862MOL0     H16310   8.326   8.565   5.285  3.4807  1.0612  1.8970
  862MOL0     H16311   8.571   8.491   5.360  0.7070  1.0696  0.5831
  862MOL0     H16312   8.581   8.408   5.208 -2.0877 -0.2867 -2.1414
  862MOL0     H16313   8.532   8.621   5.086 -0.4632 -1.3479  0.0790
  862MOL0     H16314   8.509   8.709   5.239  1.3244 -1.4689  2.5227
  862MOL0     H16315   8.777   8.573   5.205  2.0183  1.0037  0.9694
  862MOL0     H16316   8.740   8.681   5.077  0.6809  1.4410  0.5072
  862MOL0     H16317   8.737   8.880   5.231 -0.8128  0.0570  0.6054
  862MOL0     H16318   8.878   8.775   5.252 -0.2979 -1.2135 -0.1031
  862MOL0     H16319   8.767   8.878   5.453 -1.0458 -0.5727  1.0881
  862MOL0     H16320   8.633   8.778   5.423  0.3512  0.3662 -0.8501
  862MOL0     H16321   8.809   8.498   5.392 -0.7311 -1.9864  0.8226
  862MOL0     H16322   8.926   8.340   5.708  4.1970  0.1521  2.3650
  862MOL0     H16323   8.908   8.317   5.536  0.6702 -0.3014 -0.6515
  862MOL0     H16324   9.118   8.236   5.631  0.8487  0.8465  0.9579
  862MOL0     H16325   9.145   8.360   5.496 -0.4967  1.8992 -0.1370
  862MOL0     H16326   9.147   8.414   5.801 -0.3327  2.9899  0.9344
  862MOL0     H16327   9.174   8.519   5.680 -3.1216 -1.5287 -1.1220
  862MOL0     H16328   9.401   8.473   5.705  2.6183 -1.1986 -0.0152
  862MOL0     H16329   9.365   8.352   5.586  1.7573 -0.8463  1.1529
  862MOL0     H16330   9.402   8.076   5.905 -0.4073  0.8932 -1.5513
  862MOL0     H16331   9.626   8.014   6.029  0.3898 -3.2835 -2.8627
  862MOL0     H16332  10.100   8.214   6.247  0.9901  0.4250 -0.4143
  862MOL0     H16333  10.340   8.148   6.251  0.9124  1.5180  0.5681
  862MOL0     H16334  10.507   8.011   5.880 -0.1321  1.6725 -3.3847
  862MOL0     H16335  10.561   8.173   5.849 -2.5062 -1.3497 -1.5787
  862MOL0     H16336  10.753   8.122   6.034  2.8794 -3.2554  2.2595
  862MOL0     H16337  10.678   7.959   6.034 -1.2156 -2.8571 -4.4838
  862MOL0     H16338  10.771   7.916   5.821  0.1642  0.2030 -1.4520
  862MOL0     H16339  10.761   8.087   5.773 -1.8528 -0.4835 -0.3912
  862MOL0     H16340  10.951   7.981   5.988 -0.0179  2.6320  1.9638
  862MOL0     H16341  10.948   8.139   5.923  0.5975 -0.1131 -0.2247
  862MOL0     H16342  10.986   8.017   5.685  0.6947 -0.3440 -0.1961
  862MOL0     H16343  11.037   7.883   5.780 -0.2195  0.0069 -1.5681
  862MOL0     H16344  11.143   8.163   5.779 -0.6972  1.1792  1.0352
  862MOL0     H16345  11.186   8.050   5.918  0.1896  0.0410 -0.1121
  862MOL0     H16346  11.259   8.000   5.622  0.2006  0.8532 -0.1134
  862MOL0     H16347  11.291   7.885   5.751  0.3706 -1.1617 -1.7653
  862MOL0     H16348  11.414   8.152   5.717 -1.8495  0.5938  0.9890
  862MOL0     H16349  11.431   8.060   5.860 -1.7811 -0.2553 -0.2409
  862MOL0     H16350  10.345   8.194   5.825  0.8072  4.8306 -0.3563
  862MOL0     H16351  10.118   8.232   5.825  0.6443  2.5322 -0.0721
  862MOL0     H16352   9.805   8.364   5.879 -1.2771  1.8385 -1.0433
  862MOL0     H16353   9.600   8.430   5.766  0.7580 -0.1668 -1.8552
  862MOL0     H16354   7.979   8.269   5.411 -1.3977 -0.6209 -0.1455
  862MOL0     H16355   7.743   8.254   5.441  0.5747  1.0943  0.5437
  862MOL0     H16356   7.288   8.248   5.551  3.5650 -0.5407 -0.9152
  862MOL0     H16357   7.047   8.275   5.557 -0.9521  1.8035 -1.1046
  862MOL0     H16358   6.829   8.359   5.178 -1.6800  2.1453 -1.7949
  862MOL0     H16359   6.818   8.506   5.269  0.5170  0.1502  1.2510
  862MOL0     H16360   6.593   8.377   5.247 -0.0099 -0.2249  0.2069
  862MOL0     H16361   6.627   8.385   5.414 -2.1484 -0.3905 -0.4051
  862MOL0     H16362   6.709   8.146   5.424  0.4340  0.3770  0.7290
  862MOL0     H16363   6.721   8.140   5.254  1.8514 -1.1480  1.4960
  862MOL0     H16364   6.465   8.199   5.422  2.4786  2.6618  0.3185
  862MOL0     H16365   6.472   8.187   5.240  1.2516 -2.7499 -2.1544
  862MOL0     H16366   6.426   7.796   5.354 -2.2344  1.6335  2.0684
  862MOL0     H16367   7.052   8.410   5.155  0.1429  1.6626  0.2883
  862MOL0     H16368   7.378   8.496   5.117 -0.6512  1.1773 -2.5339
  862MOL0     H16369   7.376   8.330   5.060  2.0321  0.5331  1.1966
  862MOL0     H16370   7.236   8.435   5.036  1.0289  1.2634 -0.3589
  863MOL0     O16371   4.727   1.661   1.306 -0.2190 -0.0187 -0.0565
  863MOL0     C16372   4.805   1.713   1.230  0.3760  0.2772  0.5939
  863MOL0     O16373   4.932   1.673   1.211  0.7108 -0.0130 -0.0269
  863MOL0     C16374   4.977   1.564   1.281 -0.9099 -0.2671 -0.2550
  863MOL0     C16375   5.057   1.478   1.215  0.9355 -0.2926  0.4813
  863MOL0     C16376   5.115   1.366   1.278 -0.5196  0.1529 -0.0989
  863MOL0     C16377   5.096   1.338   1.411 -0.1895  0.9042 -0.0034
  863MOL0     O16378   5.171   1.231   1.450 -0.2393 -0.0219 -0.9134
  863MOL0     C16379   5.217   1.234   1.584 -1.0967  0.6248 -0.0058
  863MOL0     C16380   5.331   1.131   1.608  0.5034 -0.6377 -0.1253
  863MOL0     C16381   5.440   1.116   1.500 -0.1709 -0.6939  0.2015
  863MOL0     C16382   5.554   1.020   1.548  1.1096  0.1968 -0.5021
  863MOL0     C16383   5.670   0.993   1.455 -0.1134 -0.4646  0.1856
  863MOL0     C16384   5.762   1.122   1.453 -0.5998  0.1074  0.2272
  863MOL0     C16385   5.797   1.200   1.591  0.3415  0.5225  0.9845
  863MOL0     C16386   5.837   1.343   1.568 -0.3539  0.2717 -0.2116
  863MOL0     N16387   5.946   1.360   1.481 -0.5510  0.2099  0.1270
  863MOL0     C16388   6.071   1.396   1.526  0.1806 -0.9917 -0.2599
  863MOL0     C16389   6.151   1.402   1.413 -0.3688 -1.0950 -0.4681
  863MOL0     C16390   6.291   1.453   1.409  0.3317  0.0701 -0.3122
  863MOL0     C16391   6.405   1.370   1.463  0.8091 -1.3558  0.3448
  863MOL0     C16392   6.414   1.224   1.409  0.1260 -0.2462 -0.0608
  863MOL0     C16393   6.548   1.166   1.436  0.5485  0.4823 -0.2984
  863MOL0     O16394   6.539   1.120   1.566 -0.2073  0.0202  0.1522
  863MOL0     C16395   6.642   1.059   1.624  0.2620  0.1591 -0.2206
  863MOL0     C16396   6.610   1.013   1.754  0.0503 -0.7552 -0.3351
  863MOL0     C16397   6.695   0.921   1.816  0.5415 -0.4456  0.0166
  863MOL0     C16398   6.818   0.897   1.757  0.0369  0.0544 -0.3401
  863MOL0     C16399   6.913   0.809   1.824  0.3554  0.3996 -0.1630
  863MOL0     O16400   6.886   0.782   1.962  0.4317 -0.5649 -0.4406
  863MOL0     C16401   6.964   0.696   2.026  0.3088 -0.3279 -0.7123
  863MOL0     C16402   7.098   0.716   2.034 -1.0060  0.3332 -0.4878
  863MOL0     C16403   7.180   0.622   2.096 -0.2860  0.5172 -0.0374
  863MOL0     C16404   7.138   0.494   2.140  0.3227  0.3470  0.2358
  863MOL0     O16405   7.212   0.393   2.196  0.3407 -0.4094 -0.5825
  863MOL0     C16406   7.349   0.410   2.230  1.1637 -0.3154  0.0292
  863MOL0     C16407   7.353   0.430   2.384 -0.2721  0.6035  0.1065
  863MOL0     C16408   7.500   0.477   2.434  0.3150  0.0789  0.3379
  863MOL0     C16409   7.521   0.451   2.577  0.0739 -0.0087  0.2272
  863MOL0     C16410   7.655   0.492   2.630  0.2717  0.1265  0.0163
  863MOL0     C16411   7.665   0.646   2.624 -0.8558 -0.3089 -0.2588
  863MOL0     C16412   7.783   0.694   2.701  0.7554  0.4026 -0.0679
  863MOL0     C16413   7.920   0.646   2.666  0.7295 -0.5996 -0.1049
  863MOL0    Cl16414   7.959   0.713   2.506 -0.3528  0.3179 -0.3216
  863MOL0     C16415   7.001   0.465   2.117  0.3263  1.0832  0.3883
  863MOL0     C16416   6.914   0.563   2.063  0.2659 -0.5597  0.9827
  863MOL0     O16417   7.014   0.772   1.763 -0.4966  0.7962 -0.0081
  863MOL0     C16418   6.856   0.945   1.630  0.0500  0.1952 -0.1759
  863MOL0     C16419   6.768   1.031   1.567  0.1403  0.0225  0.4158
  863MOL0     N16420   6.074   1.374   1.305  0.0202 -0.5153  0.5090
  863MOL0     N16421   5.948   1.349   1.348 -0.8289 -0.1833 -0.0255
  863MOL0     C16422   5.031   1.434   1.485  0.9345  0.4980  0.0232
  863MOL0     C16423   4.960   1.543   1.418  0.1102  0.4860 -0.1190
  863MOL0     C16424   4.749   1.829   1.142 -0.2073  0.8326  0.4951
  863MOL0     C16425   4.838   1.887   1.054 -0.4124  0.5645 -0.4997
  863MOL0     C16426   4.804   1.993   0.971  0.6714 -0.3152 -0.4993
  863MOL0     C16427   4.676   2.046   0.984  0.2021 -0.1031  0.3012
  863MOL0     O16428   4.636   2.166   0.921 -0.5021  0.4259  0.2178
  863MOL0     C16429   4.670   2.175   0.780 -1.3239  0.7291 -0.3195
  863MOL0     C16430   4.555   2.243   0.701 -0.5507 -0.2472 -0.2423
  863MOL0     C16431   4.478   2.133   0.635 -0.0100  0.0316 -0.2022
  863MOL0     C16432   4.335   2.180   0.593  0.2198  0.5623 -0.0614
  863MOL0     C16433   4.332   2.262   0.473  0.8614 -0.2353 -0.1105
  863MOL0     C16434   4.319   2.329   0.375  0.3077 -0.3440 -0.1629
  863MOL0     C16435   4.580   1.993   1.072  1.5438 -0.2948 -0.5126
  863MOL0     C16436   4.616   1.883   1.152  0.4604  0.0995 -0.4540
  863MOL0     C16437   4.509   1.841   1.261  0.0436 -0.0077  0.6274
  863MOL0     H16438   5.080   1.501   1.112  2.6918  0.5423  1.0193
  863MOL0     H16439   5.173   1.304   1.211 -2.1185 -1.4896 -0.0390
  863MOL0     H16440   5.268   1.329   1.605 -1.0956  1.0811 -1.9265
  863MOL0     H16441   5.144   1.217   1.664 -0.1673 -1.2656  0.4904
  863MOL0     H16442   5.273   1.040   1.624 -1.8328  0.9988  1.3232
  863MOL0     H16443   5.373   1.148   1.707 -1.1690 -3.6978  1.2464
  863MOL0     H16444   5.481   1.211   1.467  1.1541 -1.4215 -0.3232
  863MOL0     H16445   5.387   1.072   1.415  1.4269 -0.4667 -0.9550
  863MOL0     H16446   5.584   1.042   1.651 -0.0716 -3.3472  0.7789
  863MOL0     H16447   5.511   0.920   1.561 -0.2085  0.6205 -1.3822
  863MOL0     H16448   5.718   0.905   1.498 -1.2270 -0.8738  0.6217
  863MOL0     H16449   5.643   0.962   1.353 -2.0048 -0.9120  0.7893
  863MOL0     H16450   5.855   1.086   1.405 -0.1667  0.4926  0.7716
  863MOL0     H16451   5.702   1.188   1.390 -1.3649 -0.8818 -0.1030
  863MOL0     H16452   5.871   1.139   1.643  0.8655  0.2614 -0.0339
  863MOL0     H16453   5.706   1.209   1.652  0.3623 -0.4887  1.1709
  863MOL0     H16454   5.746   1.376   1.518 -0.5537 -2.3874 -1.7439
  863MOL0     H16455   5.847   1.406   1.658  1.7185  0.0088 -0.1891
  863MOL0     H16456   6.107   1.426   1.624  1.4121  0.4216 -1.0917
  863MOL0     H16457   6.312   1.474   1.303  1.6836 -1.8821 -0.4839
  863MOL0     H16458   6.290   1.552   1.457 -2.2487  0.2540 -0.5718
  863MOL0     H16459   6.495   1.428   1.443 -1.0884  2.1145  1.0544
  863MOL0     H16460   6.399   1.371   1.573  4.8967  0.1252  0.7270
  863MOL0     H16461   6.402   1.220   1.300  1.1906  1.5337 -0.2821
  863MOL0     H16462   6.343   1.153   1.452  2.0840 -2.8800 -0.9288
  863MOL0     H16463   6.631   1.237   1.425  0.3308  0.9019  0.6120
  863MOL0     H16464   6.572   1.088   1.364  1.2037  2.0412 -1.8616
  863MOL0     H16465   6.525   1.043   1.815 -0.3249 -0.3790 -1.0308
  863MOL0     H16466   6.668   0.881   1.913  1.7620  1.0209  1.0118
  863MOL0     H16467   7.145   0.808   2.000 -1.0232  0.0599 -1.2637
  863MOL0     H16468   7.287   0.635   2.103 -0.4146  3.0066 -1.5369
  863MOL0     H16469   7.409   0.330   2.187  0.1195 -1.8435  1.3271
  863MOL0     H16470   7.389   0.502   2.185 -0.1702 -0.5623 -1.7484
  863MOL0     H16471   7.280   0.503   2.420 -3.8583 -2.4972 -0.2493
  863MOL0     H16472   7.316   0.340   2.433 -2.7401  0.4038 -1.9421
  863MOL0     H16473   7.571   0.408   2.388  0.1936  1.2849 -1.8115
  863MOL0     H16474   7.512   0.581   2.404 -0.6227 -0.2094 -1.1594
  863MOL0     H16475   7.518   0.344   2.599 -0.4460 -0.3497 -1.3834
  863MOL0     H16476   7.442   0.502   2.634  2.7102  2.0107  2.3053
  863MOL0     H16477   7.729   0.438   2.571 -1.5014  0.5805 -2.7652
  863MOL0     H16478   7.674   0.455   2.731 -0.5240 -1.0813 -0.2674
  863MOL0     H16479   7.676   0.683   2.522 -0.9284 -0.4525 -0.3186
  863MOL0     H16480   7.574   0.693   2.663 -1.7876  1.1779 -3.7701
  863MOL0     H16481   7.777   0.680   2.809 -1.2362 -1.0394 -0.3009
  863MOL0     H16482   7.769   0.801   2.684 -0.8170  0.2914  0.3309
  863MOL0     H16483   7.988   0.689   2.741 -2.5388  1.5895  1.8389
  863MOL0     H16484   7.936   0.539   2.680 -1.0446 -0.6299  2.1484
  863MOL0     H16485   6.969   0.363   2.139  1.3525  0.8637  0.9392
  863MOL0     H16486   6.809   0.543   2.051 -0.4616  2.0396  2.2706
  863MOL0     H16487   6.952   0.937   1.579 -0.7585 -1.5185 -1.5639
  863MOL0     H16488   6.800   1.078   1.475  1.3059 -1.1379  0.2071
  863MOL0     H16489   5.020   1.441   1.593 -0.4392  0.8722 -0.1172
  863MOL0     H16490   4.898   1.613   1.474  0.5912  1.1760 -0.4357
  863MOL0     H16491   4.935   1.837   1.054 -1.2451 -1.2078  1.3444
  863MOL0     H16492   4.879   2.040   0.908  0.8625 -0.5562 -0.4577
  863MOL0     H16493   4.691   2.079   0.733  1.6727  0.6140  1.0344
  863MOL0     H16494   4.765   2.229   0.765 -0.8645  0.2903  0.8954
  863MOL0     H16495   4.598   2.304   0.621 -1.5437  0.8083  0.0090
  863MOL0     H16496   4.491   2.298   0.771  1.4028  1.9461 -0.0747
  863MOL0     H16497   4.468   2.057   0.713  3.3735  1.3938  1.7366
  863MOL0     H16498   4.529   2.086   0.551 -1.0865  0.5156 -1.1616
  863MOL0     H16499   4.269   2.096   0.566  0.9746  0.1704 -0.7460
  863MOL0     H16500   4.285   2.239   0.669 -3.1272  1.9770 -3.0596
  863MOL0     H16501   4.304   2.388   0.287 -1.8572 -0.8844 -0.2276
  863MOL0     H16502   4.481   2.037   1.070  0.5153 -2.4659 -1.1584
  863MOL0     H16503   4.548   1.874   1.358 -2.7180 -1.1304  2.2434
  863MOL0     H16504   4.413   1.891   1.250 -0.9839 -1.3776  2.6237
  863MOL0     H16505   4.486   1.734   1.257  1.5675 -0.3558  0.3732
  864MOL0     O16506   6.723   9.031   9.292  0.3154  0.1744  0.7966
  864MOL0     C16507   6.727   9.094   9.402  0.0493  0.5190 -0.7322
  864MOL0     O16508   6.841   9.151   9.447  1.3158 -0.6547 -0.0295
  864MOL0     C16509   6.943   9.172   9.364 -0.6599  0.3510  0.7004
  864MOL0     C16510   6.932   9.266   9.267 -0.4759  0.0830 -0.3714
  864MOL0     C16511   7.034   9.289   9.173 -0.0222  0.2594 -0.2815
  864MOL0     C16512   7.154   9.210   9.175  0.6575 -0.2913  0.6060
  864MOL0     O16513   7.244   9.231   9.074 -0.1729  0.2817  0.5712
  864MOL0     C16514   7.362   9.296   9.119 -0.4993 -0.2674  0.1571
  864MOL0     C16515   7.480   9.266   9.026 -0.2034  0.4297  0.6749
  864MOL0     C16516   7.537   9.123   9.043  0.9894 -0.0425 -1.1183
  864MOL0     C16517   7.440   9.011   8.986  0.1424 -0.6377 -0.0977
  864MOL0     C16518   7.489   8.867   8.990 -0.3181 -0.5678  0.0421
  864MOL0     C16519   7.445   8.805   9.116  0.5921 -0.4775  0.2613
  864MOL0     C16520   7.534   8.690   9.160  0.4290  0.1173 -0.0154
  864MOL0     C16521   7.525   8.654   9.310 -0.2265  0.8382  0.3388
  864MOL0     N16522   7.651   8.590   9.350 -0.3267 -0.2584  0.7615
  864MOL0     C16523   7.711   8.478   9.292 -0.4941  0.5744 -0.1025
  864MOL0     C16524   7.835   8.485   9.358  0.4134  0.4357  0.3159
  864MOL0     C16525   7.939   8.381   9.360 -0.1071 -0.8392  0.5369
  864MOL0     C16526   8.066   8.427   9.286 -0.5446  0.5099  0.2044
  864MOL0     C16527   8.056   8.375   9.141  0.5037  0.5199  0.6150
  864MOL0     C16528   8.165   8.444   9.056 -0.0979  0.0041 -0.3535
  864MOL0     O16529   8.297   8.417   9.112 -0.1223  0.3709  0.3498
  864MOL0     C16530   8.414   8.439   9.040 -1.2697  0.5978 -0.3760
  864MOL0     C16531   8.416   8.506   8.912 -0.2614  0.4781 -0.8060
  864MOL0     C16532   8.538   8.506   8.845  0.2040 -0.0146  0.3626
  864MOL0     C16533   8.652   8.450   8.897 -0.0509  0.1237  0.1162
  864MOL0     C16534   8.774   8.483   8.805 -0.3917  0.1882  0.0819
  864MOL0     O16535   8.878   8.398   8.821 -0.9404 -0.1003 -0.3424
  864MOL0     C16536   8.978   8.415   8.731 -0.1977 -0.3718  0.2559
  864MOL0     C16537   9.101   8.466   8.781  0.9754  0.0823  1.0419
  864MOL0     C16538   9.208   8.494   8.695  0.2205 -0.9422 -0.3782
  864MOL0     C16539   9.194   8.463   8.554 -0.2151 -0.2436  0.0823
  864MOL0     O16540   9.299   8.496   8.469 -0.9406 -0.4241  0.2605
  864MOL0     C16541   9.273   8.497   8.326 -0.5443  0.1322  0.2095
  864MOL0     C16542   9.402   8.543   8.263  0.9181 -1.6583 -0.1445
  864MOL0     C16543   9.511   8.441   8.288 -0.2062 -0.5573  0.3070
  864MOL0     C16544   9.643   8.494   8.232  0.1874  0.4608 -1.1130
  864MOL0     C16545   9.753   8.389   8.250 -0.4612 -0.6935 -0.4797
  864MOL0     C16546   9.890   8.446   8.211 -0.9432  0.7256 -0.4417
  864MOL0     C16547  10.000   8.331   8.252  0.6332 -0.6792  0.2271
  864MOL0     C16548  10.140   8.334   8.190  0.0019  0.3286 -0.0214
  864MOL0    Cl16549  10.238   8.464   8.257  0.0339  0.0440 -0.1686
  864MOL0     C16550   9.067   8.415   8.508 -0.8953  0.3892  0.3188
  864MOL0     C16551   8.959   8.385   8.595 -0.3788 -0.1777  0.9443
  864MOL0     O16552   8.782   8.596   8.766  0.1959 -0.3837  0.3852
  864MOL0     C16553   8.651   8.381   9.020 -0.7240  0.3682  0.4631
  864MOL0     C16554   8.531   8.373   9.090 -0.4284 -0.7923  0.1162
  864MOL0     N16555   7.847   8.596   9.436  1.0222  0.3081  0.0377
  864MOL0     N16556   7.735   8.658   9.429 -0.1460 -0.0084 -0.1447
  864MOL0     C16557   7.159   9.109   9.268  0.6387  0.5302 -0.3321
  864MOL0     C16558   7.055   9.081   9.360 -0.2504 -0.7890  0.4191
  864MOL0     C16559   6.614   9.078   9.497 -0.6258  0.0516 -0.8434
  864MOL0     C16560   6.489   9.071   9.435  0.6373  0.5492  0.0355
  864MOL0     C16561   6.373   9.068   9.516 -0.1570  0.2123 -0.3717
  864MOL0     C16562   6.379   9.061   9.656  0.0432 -1.2627 -0.6446
  864MOL0     O16563   6.269   9.068   9.746  0.2275  0.0829 -0.1451
  864MOL0     C16564   6.160   8.989   9.708 -0.0058  1.0575 -0.4334
  864MOL0     C16565   6.066   8.999   9.833  0.2327  0.1663  0.5842
  864MOL0     C16566   5.944   8.909   9.803 -0.3135  0.4743  0.8481
  864MOL0     C16567   5.833   8.932   9.897  1.0167 -0.0732 -0.1056
  864MOL0     C16568   5.860   8.907  10.041  0.5520  0.2397  0.0586
  864MOL0     C16569   5.880   8.910  10.162  0.4414  0.9404  0.0172
  864MOL0     C16570   6.506   9.055   9.712  0.3836  0.0523 -0.3208
  864MOL0     C16571   6.625   9.077   9.641  1.0593  0.6918  0.2524
  864MOL0     C16572   6.749   9.082   9.722  0.2200  0.1230 -0.1136
  864MOL0     H16573   6.840   9.323   9.268 -1.3481 -1.2871  0.1084
  864MOL0     H16574   7.030   9.367   9.097  0.0794  1.1135  0.5762
  864MOL0     H16575   7.340   9.401   9.136  1.0693 -0.3599  3.7474
  864MOL0     H16576   7.386   9.259   9.219  1.6436  0.0118 -0.2030
  864MOL0     H16577   7.572   9.320   9.051 -0.4249 -0.3227  3.3800
  864MOL0     H16578   7.459   9.282   8.920 -2.0125 -0.0039  0.9480
  864MOL0     H16579   7.551   9.109   9.151  2.4802 -1.0482 -1.4142
  864MOL0     H16580   7.636   9.108   9.000 -0.0970 -0.7073 -3.5220
  864MOL0     H16581   7.346   9.019   9.041  1.7716 -1.0430  2.9522
  864MOL0     H16582   7.418   9.038   8.883 -0.9423  0.1606  0.3221
  864MOL0     H16583   7.454   8.806   8.906  4.1838 -0.2020 -2.3964
  864MOL0     H16584   7.597   8.881   8.999 -0.5935  2.3035 -0.3458
  864MOL0     H16585   7.447   8.875   9.200 -2.2147 -2.1578  1.9132
  864MOL0     H16586   7.341   8.774   9.100  0.1703  0.6939  0.6432
  864MOL0     H16587   7.635   8.721   9.129  0.0463  1.9871  0.4998
  864MOL0     H16588   7.493   8.601   9.112 -1.3130  0.8044  0.1261
  864MOL0     H16589   7.512   8.745   9.369 -0.3265  0.6451  0.6182
  864MOL0     H16590   7.442   8.588   9.337  0.9857 -2.5083 -3.2422
  864MOL0     H16591   7.672   8.396   9.233  0.9688 -1.8170  2.0219
  864MOL0     H16592   7.969   8.376   9.465 -0.3629  2.3489  0.8828
  864MOL0     H16593   7.904   8.282   9.333 -1.0334  0.0212 -1.6923
  864MOL0     H16594   8.074   8.535   9.303 -1.4082  0.5928  0.1440
  864MOL0     H16595   8.154   8.387   9.336 -2.8807 -4.1168  1.1862
  864MOL0     H16596   7.958   8.385   9.093 -0.4276 -2.6071  1.6593
  864MOL0     H16597   8.073   8.267   9.141  0.0647  0.4245 -1.3576
  864MOL0     H16598   8.151   8.552   9.054 -2.9775 -0.2944 -1.8910
  864MOL0     H16599   8.158   8.411   8.952 -0.6757 -0.3539 -0.2084
  864MOL0     H16600   8.320   8.543   8.876 -0.9478 -0.0447  0.4030
  864MOL0     H16601   8.530   8.540   8.743 -1.7240 -1.5410 -0.0496
  864MOL0     H16602   9.114   8.484   8.887  1.5495  2.6358  0.6035
  864MOL0     H16603   9.290   8.544   8.745 -0.2288 -1.6119  1.0743
  864MOL0     H16604   9.247   8.399   8.285 -0.0784  0.5537 -1.1418
  864MOL0     H16605   9.189   8.566   8.314 -0.5256 -0.2380 -2.5230
  864MOL0     H16606   9.381   8.562   8.157 -0.8021 -1.2390  0.2396
  864MOL0     H16607   9.430   8.637   8.312 -1.9915 -1.6586  1.7635
  864MOL0     H16608   9.512   8.411   8.393  2.8092 -2.5657 -0.1742
  864MOL0     H16609   9.470   8.353   8.239 -0.0206 -0.3273 -0.2710
  864MOL0     H16610   9.673   8.588   8.278  0.9635 -0.0567 -0.5463
  864MOL0     H16611   9.637   8.507   8.123 -0.1982  2.2523 -0.9054
  864MOL0     H16612   9.729   8.304   8.186  1.7193  0.0658 -2.5095
  864MOL0     H16613   9.753   8.345   8.350  1.2721 -3.2067 -1.4832
  864MOL0     H16614   9.898   8.492   8.112 -1.7773 -0.7480 -1.2383
  864MOL0     H16615   9.910   8.528   8.280  0.8112  1.4289 -1.7134
  864MOL0     H16616   9.950   8.239   8.220 -2.2761  0.5043  1.1267
  864MOL0     H16617  10.011   8.333   8.361 -2.8476  1.6991  0.6813
  864MOL0     H16618  10.186   8.242   8.225 -1.0905 -0.2040  0.0494
  864MOL0     H16619  10.140   8.349   8.082 -2.2007  0.1309 -0.0862
  864MOL0     H16620   9.039   8.409   8.403 -2.2999  2.6615  0.4961
  864MOL0     H16621   8.871   8.347   8.545 -0.1948  1.4366 -0.6845
  864MOL0     H16622   8.743   8.335   9.053 -0.6274 -0.3343 -0.7163
  864MOL0     H16623   8.520   8.308   9.176 -0.4272 -0.6665  0.2136
  864MOL0     H16624   7.252   9.053   9.266  1.4053  1.5627  2.3680
  864MOL0     H16625   7.060   9.007   9.439 -1.0569 -1.1544  0.1368
  864MOL0     H16626   6.485   9.070   9.327  1.5839 -0.7581 -0.0023
  864MOL0     H16627   6.278   9.068   9.463  0.9525 -1.6999 -2.5273
  864MOL0     H16628   6.187   8.883   9.698 -1.1222  0.6686  0.4366
  864MOL0     H16629   6.110   9.029   9.619 -1.1499  0.4382 -0.1001
  864MOL0     H16630   6.029   9.102   9.840  3.8473  1.4807  5.0677
  864MOL0     H16631   6.115   8.969   9.925  1.1811  0.5750  0.2316
  864MOL0     H16632   5.980   8.806   9.806  1.7013  1.1186  0.6568
  864MOL0     H16633   5.904   8.927   9.702 -0.1164 -3.4990 -0.0880
  864MOL0     H16634   5.811   9.038   9.880 -1.1993 -0.7741 -2.1724
  864MOL0     H16635   5.756   8.861   9.866 -1.0584  0.3427  3.4956
  864MOL0     H16636   5.881   8.901  10.268 -2.1906  1.0819  0.1308
  864MOL0     H16637   6.515   9.032   9.818  2.1674  0.0298 -0.4415
  864MOL0     H16638   6.823   9.152   9.681  0.6867 -0.3254 -0.0437
  864MOL0     H16639   6.720   9.121   9.820  0.1426 -0.3388  0.0475
  864MOL0     H16640   6.794   8.983   9.726 -1.2114 -0.5202  1.3435
  865MOL0     O16641   8.503   9.097   7.389  0.8178 -0.2557  0.6012
  865MOL0     C16642   8.489   9.177   7.294  0.8833  0.0750  0.2209
  865MOL0     O16643   8.591   9.206   7.206  0.5304 -0.4008 -0.1186
  865MOL0     C16644   8.714   9.165   7.238 -0.4115 -0.0588  0.1151
  865MOL0     C16645   8.801   9.235   7.317  0.5097 -0.4199 -0.0425
  865MOL0     C16646   8.931   9.190   7.344 -0.3578 -0.7782  0.3847
  865MOL0     C16647   8.976   9.065   7.295  0.5468  0.1605 -0.6121
  865MOL0     O16648   9.100   9.013   7.323  0.1303  0.4554 -0.4490
  865MOL0     C16649   9.144   9.023   7.461  1.4705 -0.8530  0.3505
  865MOL0     C16650   9.286   9.076   7.463  0.8767  0.1219  0.5733
  865MOL0     C16651   9.377   8.980   7.387 -0.3498 -0.4839  0.4746
  865MOL0     C16652   9.517   9.031   7.383 -0.1271 -0.4894 -0.7450
  865MOL0     C16653   9.611   8.961   7.283 -0.3730  0.1278 -0.1108
  865MOL0     C16654   9.754   8.988   7.307 -0.3209  1.0064 -0.0615
  865MOL0     C16655   9.813   8.910   7.434 -0.3120  0.0631 -0.4943
  865MOL0     C16656   9.942   8.965   7.494 -0.5758 -0.0883 -0.2717
  865MOL0     N16657  10.048   8.943   7.403 -0.2001  0.1543  0.5287
  865MOL0     C16658  10.094   8.820   7.363  0.0301 -0.5377  0.4234
  865MOL0     C16659  10.205   8.843   7.294 -1.1857 -0.0098 -0.9810
  865MOL0     C16660  10.299   8.733   7.242  0.2804 -0.8369  0.1852
  865MOL0     C16661  10.432   8.724   7.322 -0.4839 -0.0882 -0.1854
  865MOL0     C16662  10.520   8.611   7.255 -0.0310  0.3887  0.6524
  865MOL0     C16663  10.662   8.585   7.312  0.6861 -0.6012  0.3596
  865MOL0     O16664  10.706   8.490   7.219 -0.2480  0.1092 -0.0369
  865MOL0     C16665  10.839   8.478   7.216 -0.6882 -0.2284 -0.2764
  865MOL0     C16666  10.934   8.520   7.316  0.4474 -0.1469 -0.3680
  865MOL0     C16667  11.067   8.476   7.314 -0.0161  0.2629  0.1333
  865MOL0     C16668  11.114   8.409   7.203  0.1594  0.2937 -0.1083
  865MOL0     C16669  11.253   8.374   7.202 -0.3414 -0.4330  0.9250
  865MOL0     O16670  11.294   8.264   7.124  0.3340  0.5816  0.5972
  865MOL0     C16671  11.432   8.242   7.134  0.8290  0.1918  0.1953
  865MOL0     C16672  11.488   8.196   7.259 -0.5615 -0.6402 -0.6429
  865MOL0     C16673  11.622   8.169   7.254  0.3840  1.0430  0.5237
  865MOL0     C16674  11.704   8.183   7.151 -0.6021 -0.5117  0.1909
  865MOL0     O16675  11.833   8.144   7.163 -0.1647  0.4927  0.4075
  865MOL0     C16676  11.930   8.243   7.137  0.5164  0.1365  0.2321
  865MOL0     C16677  12.061   8.183   7.092 -0.0880 -0.5351  0.2945
  865MOL0     C16678  12.106   8.063   7.177  0.3379 -0.9017 -0.0631
  865MOL0     C16679  12.245   7.999   7.144 -0.0597 -0.1792  0.5653
  865MOL0     C16680  12.276   7.887   7.245 -2.0595 -0.2345  0.1621
  865MOL0     C16681  12.415   7.805   7.225 -0.7461  0.5601  0.2791
  865MOL0     C16682  12.548   7.891   7.228  0.3392  0.5236  1.1357
  865MOL0     C16683  12.559   7.969   7.357 -0.6142  0.2657  0.5063
  865MOL0    Cl16684  12.729   8.042   7.382  0.0524 -0.2670 -0.3483
  865MOL0     C16685  11.653   8.225   7.031 -1.0876  0.4310  0.4485
  865MOL0     C16686  11.516   8.248   7.017 -0.5261  0.0581 -0.5670
  865MOL0     O16687  11.323   8.439   7.275 -0.3262 -0.7037 -0.0315
  865MOL0     C16688  11.029   8.364   7.111  0.3214 -0.5272  0.0602
  865MOL0     C16689  10.887   8.397   7.118 -1.9745 -0.1342  0.9926
  865MOL0     N16690  10.220   8.981   7.283 -0.1140  0.2081  0.6828
  865MOL0     N16691  10.129   9.042   7.354 -0.3439  0.0413 -0.0774
  865MOL0     C16692   8.888   8.992   7.216 -0.1846 -0.0354 -0.1149
  865MOL0     C16693   8.758   9.042   7.195  0.8206  0.4295  0.4981
  865MOL0     C16694   8.352   9.224   7.263 -0.0636  0.4926  0.7212
  865MOL0     C16695   8.342   9.329   7.169  0.0016 -0.1617 -0.5079
  865MOL0     C16696   8.225   9.370   7.102 -0.3021  0.3166 -0.3104
  865MOL0     C16697   8.107   9.307   7.141 -0.5471 -0.4151 -0.8060
  865MOL0     O16698   7.990   9.325   7.077  0.4402  0.1534 -0.3258
  865MOL0     C16699   7.873   9.335   7.158  0.2276 -0.3200  0.3762
  865MOL0     C16700   7.757   9.394   7.078 -0.1610 -0.6969  0.8958
  865MOL0     C16701   7.626   9.385   7.150  0.7478 -0.9959 -0.1406
  865MOL0     C16702   7.519   9.451   7.052  0.2528  0.2073  0.3332
  865MOL0     C16703   7.386   9.417   7.104  0.0818  0.6400 -0.5272
  865MOL0     C16704   7.273   9.391   7.144 -0.3693 -0.2826  0.6676
  865MOL0     C16705   8.111   9.207   7.242 -0.0567 -0.5895 -0.5103
  865MOL0     C16706   8.231   9.168   7.312  0.0688  0.7664 -0.3405
  865MOL0     C16707   8.221   9.063   7.421 -0.2051  0.0805  0.0847
  865MOL0     H16708   8.765   9.328   7.358 -2.1570 -0.5140 -1.9097
  865MOL0     H16709   8.992   9.250   7.411  1.3894 -1.0475 -0.8821
  865MOL0     H16710   9.073   9.086   7.515 -2.1653 -1.9460 -2.6758
  865MOL0     H16711   9.128   8.922   7.500  1.4007 -1.4503 -1.1229
  865MOL0     H16712   9.324   9.079   7.565  0.4033 -0.5350  0.7767
  865MOL0     H16713   9.300   9.180   7.431  0.2120  0.0419 -0.0135
  865MOL0     H16714   9.337   8.970   7.286 -1.1662 -4.1094  1.0382
  865MOL0     H16715   9.365   8.883   7.435  0.5782 -0.4181  0.8653
  865MOL0     H16716   9.522   9.138   7.361 -1.0820 -0.7099 -2.1943
  865MOL0     H16717   9.551   9.018   7.486  0.8045 -3.0415 -1.2978
  865MOL0     H16718   9.597   8.853   7.294 -0.1348 -0.1270 -1.9192
  865MOL0     H16719   9.589   8.983   7.178  3.8937  1.4697 -0.9071
  865MOL0     H16720   9.816   8.952   7.224 -0.2600 -3.0420  1.5107
  865MOL0     H16721   9.757   9.097   7.316 -3.3682  1.3552 -1.8942
  865MOL0     H16722   9.837   8.807   7.408 -1.0616 -0.6418  1.4452
  865MOL0     H16723   9.738   8.927   7.512 -0.5326  2.5458 -1.1419
  865MOL0     H16724   9.932   9.072   7.514  1.1660  0.2998 -1.2900
  865MOL0     H16725   9.963   8.906   7.584  0.7006 -2.0641 -1.7506
  865MOL0     H16726  10.052   8.727   7.398 -0.2488 -0.0054  1.5375
  865MOL0     H16727  10.257   8.633   7.253  2.0349 -1.7690 -1.0689
  865MOL0     H16728  10.314   8.748   7.135  0.9044  0.3928  0.4209
  865MOL0     H16729  10.488   8.817   7.314  0.2200 -0.4884 -0.0114
  865MOL0     H16730  10.417   8.702   7.428 -0.0222  2.1723  0.4137
  865MOL0     H16731  10.538   8.636   7.150 -1.8089 -1.4766 -0.1503
  865MOL0     H16732  10.462   8.519   7.258 -1.0351  1.0229  1.9836
  865MOL0     H16733  10.658   8.546   7.414  1.7410 -3.7654 -0.6839
  865MOL0     H16734  10.719   8.678   7.307 -0.4226  0.1436  1.1141
  865MOL0     H16735  10.894   8.581   7.397  0.0470 -2.0181  0.9095
  865MOL0     H16736  11.136   8.506   7.393  0.7632 -1.4100  0.1164
  865MOL0     H16737  11.421   8.191   7.344 -2.1685  0.3237 -1.7734
  865MOL0     H16738  11.679   8.135   7.339  1.6051 -0.0391 -0.6677
  865MOL0     H16739  11.896   8.314   7.061 -0.8423 -2.3880 -1.6400
  865MOL0     H16740  11.941   8.287   7.237  1.1857 -0.2936  0.3507
  865MOL0     H16741  12.035   8.143   6.993  0.2598 -2.8206  1.0695
  865MOL0     H16742  12.134   8.264   7.086 -0.4687 -0.1757  0.5232
  865MOL0     H16743  12.121   8.099   7.279  1.2140 -0.2069 -0.4248
  865MOL0     H16744  12.030   7.985   7.169  2.7355 -3.2899 -1.2148
  865MOL0     H16745  12.326   8.072   7.149  1.6995 -2.1473  2.4439
  865MOL0     H16746  12.232   7.949   7.048 -2.7559  0.0512  0.7428
  865MOL0     H16747  12.194   7.815   7.254 -1.3364 -0.9091  2.1244
  865MOL0     H16748  12.290   7.938   7.341  1.4431 -0.3763 -0.1340
  865MOL0     H16749  12.410   7.733   7.307  0.6177  0.0730 -0.0468
  865MOL0     H16750  12.403   7.747   7.133 -1.3799  0.4532  0.4215
  865MOL0     H16751  12.540   7.967   7.150 -2.7612  0.0597  0.8764
  865MOL0     H16752  12.628   7.818   7.214 -0.3138  0.2752 -2.0127
  865MOL0     H16753  12.488   8.051   7.370 -2.6400 -1.2465 -0.4298
  865MOL0     H16754  12.547   7.897   7.439  1.2268 -0.6938 -0.0016
  865MOL0     H16755  11.721   8.222   6.947  1.0223 -1.0612  2.0791
  865MOL0     H16756  11.465   8.285   6.929 -1.1843 -0.3728 -0.3746
  865MOL0     H16757  11.057   8.297   7.029  3.6981 -0.2955  0.8521
  865MOL0     H16758  10.817   8.354   7.047 -0.7530  3.4670 -2.7361
  865MOL0     H16759   8.929   8.906   7.163  1.0599 -0.6181  1.7117
  865MOL0     H16760   8.696   8.983   7.128 -1.2163  2.6268  0.3115
  865MOL0     H16761   8.433   9.382   7.140 -0.0135  0.9031  1.2810
  865MOL0     H16762   8.223   9.445   7.024  0.2498 -1.9021 -2.5971
  865MOL0     H16763   7.882   9.395   7.249 -3.0357  0.5793  0.2358
  865MOL0     H16764   7.842   9.233   7.183 -2.5787  0.5445  0.7124
  865MOL0     H16765   7.756   9.326   6.993  2.7601  2.1475 -1.6526
  865MOL0     H16766   7.780   9.493   7.038 -0.5102 -0.4625  1.2669
  865MOL0     H16767   7.627   9.450   7.238  0.5976 -1.0177 -0.1211
  865MOL0     H16768   7.599   9.281   7.174  0.5193 -1.2265 -1.3289
  865MOL0     H16769   7.520   9.560   7.067  1.6447  0.0997  1.1619
  865MOL0     H16770   7.533   9.420   6.949 -2.3134  0.5184 -0.1808
  865MOL0     H16771   7.176   9.367   7.181 -0.5535 -3.7327 -1.6572
  865MOL0     H16772   8.022   9.162   7.285  0.5301  0.3191  1.8050
  865MOL0     H16773   8.283   9.087   7.509 -1.4274 -0.6420  1.1754
  865MOL0     H16774   8.116   9.061   7.453  0.1052 -1.5229  1.1334
  865MOL0     H16775   8.254   8.967   7.381  1.1308  1.2746 -1.8744
  866MOL0     O16776   8.028   0.694   6.511 -0.0952  0.5916 -0.0886
  866MOL0     C16777   8.004   0.649   6.624 -0.0505 -0.0438  0.9981
  866MOL0     O16778   8.087   0.657   6.733 -0.5280  0.1246  0.1116
  866MOL0     C16779   8.214   0.694   6.706  0.1313 -0.8857 -0.8103
  866MOL0     C16780   8.308   0.596   6.720 -0.1053  0.4610 -0.3618
  866MOL0     C16781   8.446   0.625   6.705 -0.4588  0.2039 -0.6018
  866MOL0     C16782   8.494   0.751   6.671 -0.8017  0.2424 -0.2491
  866MOL0     O16783   8.631   0.753   6.642 -0.2195  0.1815 -0.5767
  866MOL0     C16784   8.680   0.886   6.633  0.2707  0.8053 -0.0883
  866MOL0     C16785   8.828   0.874   6.682  0.3526 -0.7461  0.4269
  866MOL0     C16786   8.882   1.017   6.684 -0.0963  0.1931 -0.0819
  866MOL0     C16787   9.037   1.028   6.657 -0.2021 -0.0768  0.0516
  866MOL0     C16788   9.093   1.165   6.625  0.4622  0.2959 -0.0082
  866MOL0     C16789   9.240   1.169   6.576 -0.5306 -0.2104  0.8973
  866MOL0     C16790   9.333   1.102   6.676 -0.0747  1.1202  0.1317
  866MOL0     C16791   9.483   1.148   6.659  1.1575 -0.4324 -0.4168
  866MOL0     N16792   9.575   1.069   6.737  0.8070 -0.0433  0.2998
  866MOL0     C16793   9.666   0.981   6.695 -0.1015 -0.2390 -0.2797
  866MOL0     C16794   9.743   0.954   6.804 -0.1254 -0.1724  0.4472
  866MOL0     C16795   9.860   0.856   6.808 -0.1165 -0.1386  0.0404
  866MOL0     C16796   9.869   0.776   6.943 -0.0610 -0.0857  0.2262
  866MOL0     C16797   9.772   0.664   6.953  0.3984  0.0825  0.1702
  866MOL0     C16798   9.620   0.698   6.951  0.0817  0.0316 -0.2590
  866MOL0     O16799   9.541   0.603   7.017 -0.0809  0.1057 -0.2921
  866MOL0     C16800   9.417   0.561   6.962  0.3690  0.3085 -1.3692
  866MOL0     C16801   9.339   0.644   6.875 -0.1466  1.4119  0.7063
  866MOL0     C16802   9.224   0.596   6.813 -0.0058 -0.4139 -0.4450
  866MOL0     C16803   9.183   0.469   6.840  0.0703  0.1864 -0.6442
  866MOL0     C16804   9.062   0.414   6.783 -0.6476  0.1947 -0.1978
  866MOL0     O16805   9.001   0.325   6.866  0.2800 -0.2362 -0.3781
  866MOL0     C16806   8.888   0.270   6.811  0.2489 -0.4458  0.5579
  866MOL0     C16807   8.770   0.306   6.869  0.0124  0.0921  0.1256
  866MOL0     C16808   8.653   0.245   6.830  0.0712 -1.0379  0.5996
  866MOL0     C16809   8.655   0.138   6.737 -0.3237  0.7059  0.0012
  866MOL0     O16810   8.554   0.054   6.703 -0.5057  0.1656  0.1737
  866MOL0     C16811   8.441   0.048   6.792  0.1731 -0.2267  0.0885
  866MOL0     C16812   8.336  -0.044   6.731 -0.2273 -0.1814  0.8422
  866MOL0     C16813   8.226  -0.100   6.816  0.0002  0.4095 -0.3995
  866MOL0     C16814   8.213  -0.026   6.944  0.0689 -1.4641  0.2637
  866MOL0     C16815   8.082  -0.062   7.021  0.2610 -0.0573 -0.5055
  866MOL0     C16816   7.946  -0.024   6.956  0.5980 -0.0868 -0.4861
  866MOL0     C16817   7.831  -0.052   7.062  0.0220  0.0323  0.5497
  866MOL0     C16818   7.830  -0.193   7.108 -0.3155 -0.2283  1.1548
  866MOL0    Cl16819   7.817  -0.315   6.975  0.1611  0.1584 -0.3867
  866MOL0     C16820   8.774   0.101   6.675 -0.6851  0.1053 -0.4538
  866MOL0     C16821   8.891   0.162   6.720 -1.3823  0.4169  0.2860
  866MOL0     O16822   9.016   0.460   6.678  0.4264 -0.3476  0.3740
  866MOL0     C16823   9.253   0.390   6.935 -0.5190 -0.0207 -0.4419
  866MOL0     C16824   9.372   0.433   6.990 -0.4684  0.8132  0.4029
  866MOL0     N16825   9.696   1.022   6.914  0.1388 -0.2326  0.5247
  866MOL0     N16826   9.602   1.096   6.869 -0.3276  0.5449 -0.5263
  866MOL0     C16827   8.397   0.855   6.659 -0.7182  0.1747  0.1058
  866MOL0     C16828   8.261   0.824   6.684 -0.6097  0.3107  0.2244
  866MOL0     C16829   7.881   0.566   6.656 -0.1431 -0.4082  0.1692
  866MOL0     C16830   7.898   0.441   6.719  0.0204 -0.4353 -0.6900
  866MOL0     C16831   7.788   0.360   6.751  0.0462 -0.4482 -0.7175
  866MOL0     C16832   7.661   0.400   6.709 -0.5653 -0.2349 -0.4304
  866MOL0     O16833   7.552   0.317   6.719 -0.6986 -0.0673  0.1071
  866MOL0     C16834   7.555   0.193   6.790 -0.7728 -0.3438 -0.0992
  866MOL0     C16835   7.558   0.204   6.943  0.0151  0.1250  0.1200
  866MOL0     C16836   7.416   0.188   7.012  0.0478 -0.2185 -0.3923
  866MOL0     C16837   7.405   0.228   7.162  0.0027  0.1244  0.4491
  866MOL0     C16838   7.474   0.127   7.247  0.6253 -0.1392  0.0225
  866MOL0     C16839   7.512   0.034   7.317 -0.1728  0.4729 -0.7167
  866MOL0     C16840   7.639   0.528   6.646  0.4091 -0.1713  0.6581
  866MOL0     C16841   7.754   0.610   6.617 -0.3263 -0.5284 -0.1144
  866MOL0     C16842   7.726   0.739   6.546  0.6766  0.2028  1.3031
  866MOL0     H16843   8.283   0.492   6.736  0.5222  0.2921 -0.4516
  866MOL0     H16844   8.508   0.536   6.707 -0.7917 -0.0267  1.5189
  866MOL0     H16845   8.668   0.929   6.533 -2.3034 -2.6183 -1.4705
  866MOL0     H16846   8.628   0.959   6.697  0.2656  1.7222 -1.1083
  866MOL0     H16847   8.881   0.808   6.613  0.0435 -0.9717  0.4036
  866MOL0     H16848   8.840   0.824   6.779 -0.1201 -0.2645  0.7358
  866MOL0     H16849   8.869   1.069   6.780 -0.2934 -0.0013 -0.0041
  866MOL0     H16850   8.851   1.073   6.596  2.5771  0.8254 -0.7329
  866MOL0     H16851   9.083   0.979   6.744  1.7470 -0.5107 -1.1646
  866MOL0     H16852   9.059   0.963   6.572 -0.5333  1.1803 -1.0297
  866MOL0     H16853   9.023   1.209   6.553 -0.0626  0.4354  0.5828
  866MOL0     H16854   9.078   1.225   6.716  0.4290  0.7675 -0.3193
  866MOL0     H16855   9.245   1.118   6.479 -1.2417  2.1927 -0.5009
  866MOL0     H16856   9.266   1.275   6.565  0.6385 -0.5708 -0.0594
  866MOL0     H16857   9.334   0.995   6.653 -1.9460  0.8464  1.1610
  866MOL0     H16858   9.296   1.132   6.775 -2.0706 -0.5753 -0.0331
  866MOL0     H16859   9.505   1.134   6.552 -2.7949 -2.5942 -1.1767
  866MOL0     H16860   9.496   1.251   6.694  0.8574  0.7455 -3.4603
  866MOL0     H16861   9.675   0.941   6.594  4.8666 -1.7026  0.4559
  866MOL0     H16862   9.856   0.785   6.725  2.2502  1.4099 -1.5019
  866MOL0     H16863   9.956   0.908   6.798  0.2860 -0.3335  2.2610
  866MOL0     H16864   9.971   0.738   6.953 -1.1129 -2.9229  1.3285
  866MOL0     H16865   9.864   0.848   7.024  1.4759  1.9251 -1.3660
  866MOL0     H16866   9.798   0.614   7.047  0.0181  0.7979  0.6646
  866MOL0     H16867   9.783   0.586   6.877 -0.2549  0.7648 -0.6437
  866MOL0     H16868   9.580   0.708   6.850 -0.9845 -0.2656  0.1176
  866MOL0     H16869   9.616   0.796   7.000  3.3225 -0.7899  2.0142
  866MOL0     H16870   9.390   0.737   6.852 -1.4531  1.8182 -0.7392
  866MOL0     H16871   9.175   0.655   6.736  2.5440  2.8293  0.2089
  866MOL0     H16872   8.768   0.386   6.943 -1.3319 -1.8240  2.3236
  866MOL0     H16873   8.558   0.264   6.879  0.2481 -0.4977  0.7310
  866MOL0     H16874   8.486   0.012   6.885 -1.8379 -2.5459  0.2585
  866MOL0     H16875   8.393   0.145   6.779 -1.6666 -1.4358 -3.2603
  866MOL0     H16876   8.299   0.011   6.644 -0.1958 -0.5784  0.5760
  866MOL0     H16877   8.380  -0.133   6.684 -2.7098 -0.5276 -1.0650
  866MOL0     H16878   8.130  -0.111   6.765 -0.3750  1.1944  0.1134
  866MOL0     H16879   8.253  -0.200   6.854  0.8980  1.4888  1.9878
  866MOL0     H16880   8.207   0.082   6.926 -1.3318 -1.4357  0.7086
  866MOL0     H16881   8.300  -0.043   7.007  1.1754 -0.9044 -1.0743
  866MOL0     H16882   8.083  -0.012   7.118 -0.2007  3.9276 -2.3561
  866MOL0     H16883   8.089  -0.170   7.041  1.9756  0.4705  2.1353
  866MOL0     H16884   7.940   0.084   6.942 -1.6136  0.0513  0.9589
  866MOL0     H16885   7.925  -0.088   6.870  0.5283  0.5809 -0.9683
  866MOL0     H16886   7.733  -0.033   7.019 -1.2359 -1.7054  2.4198
  866MOL0     H16887   7.855   0.016   7.144  0.0463  2.7128 -1.5811
  866MOL0     H16888   7.917  -0.221   7.168 -0.8485  0.8368  2.4610
  866MOL0     H16889   7.740  -0.197   7.170  0.9609 -0.1837  3.0930
  866MOL0     H16890   8.786   0.008   6.621 -0.1266 -1.2339  1.8401
  866MOL0     H16891   8.980   0.130   6.667 -2.5874  0.3605 -1.8147
  866MOL0     H16892   9.214   0.293   6.963 -2.8919  1.2219  0.8865
  866MOL0     H16893   9.436   0.367   7.049  0.4663 -0.7214 -2.1795
  866MOL0     H16894   8.418   0.955   6.622 -0.1651  0.9241  2.2953
  866MOL0     H16895   8.183   0.898   6.668 -0.9109 -0.5593 -3.0303
  866MOL0     H16896   7.995   0.401   6.748 -0.4184 -0.8826  0.2098
  866MOL0     H16897   7.812   0.273   6.811  0.1797 -1.0105 -1.5815
  866MOL0     H16898   7.648   0.145   6.758  0.3865  1.0997  0.9673
  866MOL0     H16899   7.473   0.137   6.745 -2.0166  1.8854 -0.7578
  866MOL0     H16900   7.594   0.306   6.964  4.5372 -1.4015  0.8582
  866MOL0     H16901   7.623   0.126   6.984 -1.5245 -1.9315 -1.1559
  866MOL0     H16902   7.388   0.083   7.008 -1.9624  0.3024 -1.1741
  866MOL0     H16903   7.339   0.241   6.954 -1.0793 -0.2114  1.0405
  866MOL0     H16904   7.455   0.324   7.175 -0.8022  0.4362  1.2538
  866MOL0     H16905   7.301   0.239   7.194 -0.5202 -1.0741 -0.7375
  866MOL0     H16906   7.556  -0.041   7.380 -1.7117 -0.9274 -1.2364
  866MOL0     H16907   7.539   0.560   6.618  0.0122 -0.0702  2.1423
  866MOL0     H16908   7.769   0.824   6.601  2.8881 -1.5231  2.3779
  866MOL0     H16909   7.779   0.745   6.451 -1.4908 -0.8926 -0.0422
  866MOL0     H16910   7.620   0.756   6.524  1.0003  0.5101 -0.1281
  867MOL0     O16911   6.693   3.942   3.946 -0.9652 -0.6995 -0.5518
  867MOL0     C16912   6.610   3.900   3.867 -0.6500  0.7661 -0.8803
  867MOL0     O16913   6.645   3.840   3.752 -0.4000  0.1970  0.4375
  867MOL0     C16914   6.766   3.853   3.698 -0.4697 -0.3737 -0.2786
  867MOL0     C16915   6.765   3.888   3.565 -0.0628 -0.1043 -0.0280
  867MOL0     C16916   6.883   3.909   3.500  0.1222  0.9169 -0.2687
  867MOL0     C16917   7.008   3.883   3.558  0.9209  0.7105 -0.3197
  867MOL0     O16918   7.113   3.921   3.475  0.0128 -0.5599 -0.0382
  867MOL0     C16919   7.251   3.916   3.528  0.4467  0.0214  0.2418
  867MOL0     C16920   7.360   3.920   3.425 -1.1494 -0.5552 -0.2602
  867MOL0     C16921   7.491   3.884   3.490 -0.2269  0.6439  0.0725
  867MOL0     C16922   7.579   3.788   3.402  0.0025 -0.1395 -0.2565
  867MOL0     C16923   7.713   3.748   3.471  0.2794 -0.5942  0.1444
  867MOL0     C16924   7.824   3.850   3.446 -0.2635  0.1409 -0.0802
  867MOL0     C16925   7.954   3.802   3.507  1.1756 -0.1833  0.3194
  867MOL0     C16926   8.004   3.681   3.421 -0.6141 -0.3009 -0.2246
  867MOL0     N16927   8.150   3.643   3.449  0.1261  0.9696 -0.5524
  867MOL0     C16928   8.235   3.577   3.360 -0.1672 -0.1200  0.2292
  867MOL0     C16929   8.355   3.561   3.423  0.5892 -0.5006  0.1699
  867MOL0     C16930   8.480   3.509   3.355  0.2859  1.1780 -0.4136
  867MOL0     C16931   8.596   3.607   3.386 -0.1054  0.3877  0.5319
  867MOL0     C16932   8.731   3.540   3.371  0.4896 -0.4615  0.5991
  867MOL0     C16933   8.823   3.615   3.467  0.9278  0.8100 -1.0571
  867MOL0     O16934   8.954   3.573   3.442  0.1115 -0.4327  0.6652
  867MOL0     C16935   9.052   3.607   3.537  0.4965  0.2031  0.1436
  867MOL0     C16936   9.168   3.536   3.532  0.4757 -0.3564  0.7976
  867MOL0     C16937   9.270   3.566   3.619 -1.2109  0.1759  0.7673
  867MOL0     C16938   9.271   3.676   3.705  0.5933 -0.6147  0.4253
  867MOL0     C16939   9.394   3.702   3.790  0.3956  0.3587  0.0482
  867MOL0     O16940   9.376   3.798   3.881  0.3691  0.0914  0.4766
  867MOL0     C16941   9.467   3.807   3.985  0.6511 -0.1641  0.6848
  867MOL0     C16942   9.595   3.845   3.964 -0.1986 -0.3191 -0.4003
  867MOL0     C16943   9.688   3.838   4.063 -0.1587  0.4788 -0.3676
  867MOL0     C16944   9.649   3.794   4.190 -1.0869 -0.5482 -0.1252
  867MOL0     O16945   9.734   3.785   4.300  0.5928  0.3950  0.0843
  867MOL0     C16946   9.862   3.842   4.291 -0.1636  0.4306  0.1540
  867MOL0     C16947   9.965   3.759   4.218 -0.2830 -0.3673 -0.1341
  867MOL0     C16948  10.029   3.651   4.306 -0.1673  0.0114 -0.3680
  867MOL0     C16949  10.145   3.579   4.232 -0.1472 -0.5272  0.2797
  867MOL0     C16950  10.234   3.503   4.333  1.0224 -1.0860  0.1250
  867MOL0     C16951  10.360   3.453   4.267 -0.3547 -0.0506 -0.0337
  867MOL0     C16952  10.463   3.390   4.372 -0.0264  1.2354  0.5264
  867MOL0     C16953  10.511   3.256   4.305  1.1107  0.4222 -0.3549
  867MOL0    Cl16954  10.653   3.193   4.380  0.1817 -0.4754 -0.6102
  867MOL0     C16955   9.523   3.753   4.214  0.0024 -0.3487  0.2188
  867MOL0     C16956   9.432   3.762   4.108 -1.0226  0.3163 -0.0853
  867MOL0     O16957   9.499   3.643   3.767 -0.5367  0.6994 -0.0048
  867MOL0     C16958   9.148   3.746   3.713 -0.1654  0.2399  0.5977
  867MOL0     C16959   9.038   3.712   3.635 -0.9857 -0.3098 -0.7925
  867MOL0     N16960   8.339   3.606   3.553  0.8138  1.0922  0.1917
  867MOL0     N16961   8.219   3.646   3.568 -0.3987 -0.4433 -0.2294
  867MOL0     C16962   7.007   3.848   3.696  0.2114  0.0576 -0.8399
  867MOL0     C16963   6.887   3.824   3.762 -0.7392  0.9401 -0.0715
  867MOL0     C16964   6.469   3.875   3.910 -0.3705  0.1294 -0.8568
  867MOL0     C16965   6.384   3.813   3.816 -0.4598 -0.6425  0.2902
  867MOL0     C16966   6.253   3.784   3.851 -0.1982 -0.6581  0.3098
  867MOL0     C16967   6.194   3.815   3.964  0.9854  0.7736  0.0336
  867MOL0     O16968   6.059   3.791   3.981  0.0807  0.1390  0.1932
  867MOL0     C16969   6.014   3.779   4.120  0.0248 -0.4901  1.0609
  867MOL0     C16970   6.097   3.677   4.199 -0.7764  0.0441  0.1896
  867MOL0     C16971   6.014   3.616   4.323 -0.5646  0.0311  0.3735
  867MOL0     C16972   5.949   3.712   4.427 -0.0232 -0.0077  0.0392
  867MOL0     C16973   6.057   3.733   4.527 -0.0375  0.0515 -1.3597
  867MOL0     C16974   6.141   3.749   4.620 -0.3237  0.3633  0.2672
  867MOL0     C16975   6.278   3.885   4.057  0.1792 -0.1857  1.0494
  867MOL0     C16976   6.412   3.922   4.031  0.0996 -0.3718 -0.0567
  867MOL0     C16977   6.484   4.009   4.133 -1.0265 -0.8594 -0.3279
  867MOL0     H16978   6.667   3.901   3.519 -0.0680  1.8356  0.4246
  867MOL0     H16979   6.879   3.925   3.393  1.7488 -3.4068 -1.1915
  867MOL0     H16980   7.264   4.003   3.594  0.3719  1.6932 -1.8304
  867MOL0     H16981   7.260   3.819   3.577  0.8801 -0.1336 -0.1409
  867MOL0     H16982   7.364   4.016   3.373  0.3728  0.6751  1.9528
  867MOL0     H16983   7.343   3.848   3.345  0.0004 -1.3934  0.2269
  867MOL0     H16984   7.474   3.841   3.588 -3.8696  2.4534  0.3914
  867MOL0     H16985   7.555   3.973   3.503  1.8376 -0.9020  1.0112
  867MOL0     H16986   7.524   3.697   3.375 -3.2614  1.0032  1.8987
  867MOL0     H16987   7.605   3.841   3.310  2.5117 -0.9024 -0.0564
  867MOL0     H16988   7.700   3.729   3.578  2.3668 -3.8327 -0.0507
  867MOL0     H16989   7.750   3.654   3.429  2.5577 -0.1084  0.9611
  867MOL0     H16990   7.844   3.850   3.339  3.8316 -1.6717  0.5120
  867MOL0     H16991   7.801   3.951   3.483  0.9243  0.5376 -0.3785
  867MOL0     H16992   7.936   3.772   3.610  1.1622 -0.2722  0.2910
  867MOL0     H16993   8.029   3.882   3.503  0.9960  0.1082  1.9433
  867MOL0     H16994   7.947   3.592   3.450  0.4667  0.2709  4.5556
  867MOL0     H16995   7.997   3.710   3.316 -0.9589  0.8393  0.0973
  867MOL0     H16996   8.217   3.553   3.256  2.1436 -0.5990 -0.1144
  867MOL0     H16997   8.486   3.409   3.399 -4.1107 -0.0290 -2.0396
  867MOL0     H16998   8.477   3.488   3.248 -0.4069 -3.1626  0.2624
  867MOL0     H16999   8.592   3.688   3.313  4.7339 -0.1578 -0.6737
  867MOL0     H17000   8.582   3.648   3.487  0.0913  0.9754  0.3275
  867MOL0     H17001   8.767   3.538   3.268 -1.3633 -5.9018 -0.2887
  867MOL0     H17002   8.725   3.438   3.412  3.0395 -1.1803 -0.6152
  867MOL0     H17003   8.801   3.583   3.569  2.7479  1.0228 -0.5690
  867MOL0     H17004   8.815   3.724   3.455 -0.8524  0.7952 -0.3957
  867MOL0     H17005   9.185   3.467   3.450 -1.0841 -0.3115  0.4028
  867MOL0     H17006   9.368   3.521   3.615 -1.5312 -0.5019  0.2444
  867MOL0     H17007   9.631   3.870   3.865  0.9653 -0.9414 -0.1583
  867MOL0     H17008   9.790   3.874   4.051 -0.5267  1.9007  0.5235
  867MOL0     H17009   9.861   3.938   4.240  1.3863  0.6079  0.4030
  867MOL0     H17010   9.886   3.866   4.395 -0.0038  2.2664 -0.2748
  867MOL0     H17011   9.922   3.724   4.124  0.1618  0.5435 -0.6915
  867MOL0     H17012  10.051   3.822   4.194 -0.7081  0.5391  0.6300
  867MOL0     H17013  10.065   3.694   4.400 -1.3393 -1.2562  0.7012
  867MOL0     H17014   9.950   3.581   4.334  0.3121 -0.4689 -0.2123
  867MOL0     H17015  10.211   3.638   4.169 -0.3259 -2.4962 -1.9066
  867MOL0     H17016  10.101   3.505   4.165  2.1500  0.8406 -2.9875
  867MOL0     H17017  10.172   3.423   4.374 -0.8166  0.7237  1.0705
  867MOL0     H17018  10.262   3.571   4.414 -1.0707 -1.4134  1.1870
  867MOL0     H17019  10.327   3.380   4.193 -1.3839 -0.3061  0.6548
  867MOL0     H17020  10.422   3.520   4.207  2.1748 -1.5054  0.8175
  867MOL0     H17021  10.414   3.370   4.468  0.1923 -0.0950  0.3701
  867MOL0     H17022  10.542   3.463   4.392  0.5070  1.0515 -0.8438
  867MOL0     H17023  10.441   3.172   4.305  2.2598 -0.6023 -2.0566
  867MOL0     H17024  10.533   3.279   4.200  0.2495  1.0942 -0.3979
  867MOL0     H17025   9.492   3.714   4.310  0.3391  0.2157  0.5626
  867MOL0     H17026   9.332   3.721   4.119 -1.0553 -0.0435 -1.5091
  867MOL0     H17027   9.137   3.832   3.778 -1.0175  1.1846 -0.7272
  867MOL0     H17028   8.953   3.779   3.639 -2.3330 -1.9565 -0.3156
  867MOL0     H17029   7.105   3.840   3.742 -0.3502  2.9621  1.1119
  867MOL0     H17030   6.878   3.781   3.861  0.6826 -1.4747 -0.8948
  867MOL0     H17031   6.421   3.782   3.719  0.2015 -0.5502  0.5119
  867MOL0     H17032   6.200   3.733   3.771 -0.1960  0.2718 -0.2940
  867MOL0     H17033   5.914   3.734   4.115  0.3471 -1.0925 -0.8437
  867MOL0     H17034   6.008   3.876   4.170  0.1420  2.0117 -3.3316
  867MOL0     H17035   6.185   3.729   4.237 -0.7503 -0.0023  0.1922
  867MOL0     H17036   6.118   3.594   4.132 -0.8174  0.2386 -0.0657
  867MOL0     H17037   6.064   3.532   4.372 -1.0354 -0.1325  0.5773
  867MOL0     H17038   5.928   3.573   4.271 -0.2790 -0.2064  0.0960
  867MOL0     H17039   5.907   3.800   4.377  1.2063 -0.3063 -1.6149
  867MOL0     H17040   5.869   3.665   4.486 -0.5664 -0.7141 -1.2206
  867MOL0     H17041   6.227   3.760   4.684  0.0338  0.7790 -0.2767
  867MOL0     H17042   6.227   3.930   4.142 -2.8888  1.3368 -1.3657
  867MOL0     H17043   6.419   4.074   4.192  1.0154  2.1111 -1.0785
  867MOL0     H17044   6.552   3.954   4.198  0.1674  3.3180  2.4057
  867MOL0     H17045   6.551   4.086   4.092 -1.7666  1.6408  2.8086
  868MOL0     O17046   6.663   7.692   3.611  0.2489 -0.5476 -0.0390
  868MOL0     C17047   6.672   7.681   3.731 -0.3209  1.0523  1.0827
  868MOL0     O17048   6.783   7.679   3.800  0.0564 -0.2195 -0.4582
  868MOL0     C17049   6.904   7.692   3.731 -0.2274  1.0239 -0.3709
  868MOL0     C17050   6.981   7.580   3.697 -0.6988  0.5446  0.2313
  868MOL0     C17051   7.107   7.595   3.637 -0.0551  0.2677 -0.4873
  868MOL0     C17052   7.158   7.727   3.606 -0.4148  0.9038 -0.4446
  868MOL0     O17053   7.272   7.744   3.535 -0.7346 -0.6406  0.0931
  868MOL0     C17054   7.344   7.630   3.475  0.1749  0.1690 -0.6578
  868MOL0     C17055   7.471   7.685   3.418 -1.0114 -0.4028 -0.6260
  868MOL0     C17056   7.574   7.737   3.532 -0.0706  0.1634 -0.2173
  868MOL0     C17057   7.712   7.726   3.493  0.3890  0.2834 -0.1530
  868MOL0     C17058   7.795   7.832   3.555 -0.5677  0.1862  0.1888
  868MOL0     C17059   7.941   7.804   3.548  0.1670  0.0635 -0.6272
  868MOL0     C17060   7.981   7.703   3.663  0.4480 -1.1719 -0.9417
  868MOL0     C17061   8.104   7.629   3.611 -0.0866 -0.2420 -0.5913
  868MOL0     N17062   8.215   7.709   3.578 -0.2501  0.0221  0.3672
  868MOL0     C17063   8.288   7.804   3.655 -0.7323  0.2115  0.0189
  868MOL0     C17064   8.378   7.849   3.563  0.2348 -0.1225 -0.1304
  868MOL0     C17065   8.493   7.940   3.598 -0.2729 -1.5191 -0.8247
  868MOL0     C17066   8.628   7.881   3.568  1.0703  1.0752 -0.4330
  868MOL0     C17067   8.731   7.977   3.622 -0.2333  0.4942 -0.0246
  868MOL0     C17068   8.881   7.927   3.604  0.7671 -0.3854  0.4419
  868MOL0     O17069   8.955   8.033   3.661 -0.3419 -0.0495 -0.3852
  868MOL0     C17070   9.088   8.025   3.630 -0.2971  0.1069 -0.0025
  868MOL0     C17071   9.190   8.021   3.729 -0.6266 -0.2323  0.4841
  868MOL0     C17072   9.332   8.010   3.703  1.1508  0.1366 -0.7634
  868MOL0     C17073   9.372   8.018   3.570 -0.1480 -0.5338 -0.3891
  868MOL0     C17074   9.519   8.023   3.548  0.2559 -0.4016 -0.4742
  868MOL0     O17075   9.609   8.000   3.652  0.1106  0.2385 -0.0272
  868MOL0     C17076   9.746   8.004   3.621 -0.5325  0.7633  1.1617
  868MOL0     C17077   9.846   8.079   3.690 -0.2330 -0.2962  0.7181
  868MOL0     C17078   9.987   8.066   3.668  0.1282  0.2280 -0.3155
  868MOL0     C17079  10.032   7.965   3.576 -0.4214 -0.2695 -0.5903
  868MOL0     O17080  10.165   7.940   3.551  0.0520 -0.1057  0.0441
  868MOL0     C17081  10.247   8.049   3.542 -0.5019 -0.3143  0.2372
  868MOL0     C17082  10.368   8.021   3.462  0.4442  0.5336  0.0576
  868MOL0     C17083  10.486   8.120   3.490 -0.4100 -0.0816 -0.3571
  868MOL0     C17084  10.613   8.081   3.406 -0.3982  0.6819  0.2016
  868MOL0     C17085  10.723   8.169   3.465  0.2645  0.3239  0.0001
  868MOL0     C17086  10.861   8.153   3.382  0.4009  0.4195 -0.1223
  868MOL0     C17087  10.979   8.226   3.442 -0.0757 -0.3954  0.4352
  868MOL0     C17088  11.102   8.211   3.346 -0.3605 -0.1997 -0.7708
  868MOL0    Cl17089  11.161   8.036   3.338 -0.0444 -0.2216 -0.0569
  868MOL0     C17090   9.939   7.893   3.509  0.9016 -0.5741  0.0394
  868MOL0     C17091   9.799   7.906   3.535 -0.4883 -0.0641  0.0049
  868MOL0     O17092   9.551   8.059   3.434  0.5006 -0.4513 -0.3752
  868MOL0     C17093   9.276   8.034   3.466 -0.1403  0.0591  0.0897
  868MOL0     C17094   9.139   8.041   3.496  0.5329  0.9024 -0.8408
  868MOL0     N17095   8.366   7.782   3.446 -0.4736 -0.1316 -0.2741
  868MOL0     N17096   8.273   7.700   3.453  0.2530  0.4504  0.1577
  868MOL0     C17097   7.080   7.837   3.636  0.5742  0.1125  0.1043
  868MOL0     C17098   6.950   7.814   3.704 -0.2458  0.1033  0.7793
  868MOL0     C17099   6.548   7.658   3.809  0.2179 -0.9212  0.7824
  868MOL0     C17100   6.449   7.568   3.760  0.2515 -0.6979  0.0354
  868MOL0     C17101   6.335   7.555   3.837  0.1707 -0.0476 -0.2433
  868MOL0     C17102   6.309   7.623   3.953 -0.4271  0.0075 -0.5556
  868MOL0     O17103   6.195   7.619   4.032  0.2439 -0.4634 -0.2180
  868MOL0     C17104   6.071   7.569   3.977  0.2142  0.3976 -1.1966
  868MOL0     C17105   6.049   7.444   4.073 -0.1656  0.0646 -0.1777
  868MOL0     C17106   5.917   7.377   4.032 -0.7244 -0.0169 -0.2074
  868MOL0     C17107   5.937   7.222   4.007 -0.1687  0.5958 -0.3869
  868MOL0     C17108   5.920   7.162   4.141  0.9371 -0.4110  0.1579
  868MOL0     C17109   5.896   7.133   4.258  0.4936  0.5203  0.2560
  868MOL0     C17110   6.402   7.707   3.996 -0.9695 -0.7902  0.0894
  868MOL0     C17111   6.526   7.733   3.929  0.3676 -0.2251  0.5924
  868MOL0     C17112   6.610   7.847   3.982 -0.0732  0.1056  0.2950
  868MOL0     H17113   6.935   7.483   3.711  0.0103  0.0693 -0.6437
  868MOL0     H17114   7.161   7.502   3.619  3.6989  2.1376  0.0916
  868MOL0     H17115   7.375   7.559   3.553  2.5379  1.2475 -0.5207
  868MOL0     H17116   7.286   7.585   3.393  1.2592  0.0325 -1.3697
  868MOL0     H17117   7.462   7.772   3.352 -0.6453  1.3799  1.5269
  868MOL0     H17118   7.522   7.604   3.366 -1.2016 -0.0566 -1.3733
  868MOL0     H17119   7.553   7.683   3.624  0.2365  2.5300  1.3248
  868MOL0     H17120   7.558   7.844   3.552 -0.4749  0.6377 -2.7021
  868MOL0     H17121   7.751   7.627   3.518  1.6056  0.5617 -0.8770
  868MOL0     H17122   7.725   7.732   3.384 -0.9962  0.1435 -0.3372
  868MOL0     H17123   7.780   7.925   3.499  0.8474 -0.0210 -0.5757
  868MOL0     H17124   7.772   7.851   3.660 -1.0725  0.9621 -0.0528
  868MOL0     H17125   7.973   7.773   3.448 -0.7107 -1.1747 -0.5428
  868MOL0     H17126   7.986   7.902   3.566 -0.9472  0.4032  0.4282
  868MOL0     H17127   7.905   7.625   3.672  2.8935 -3.6383 -0.3655
  868MOL0     H17128   7.986   7.760   3.756 -0.0045 -0.4537 -1.3476
  868MOL0     H17129   8.143   7.555   3.682 -0.3539 -0.9003 -1.1276
  868MOL0     H17130   8.077   7.570   3.523 -0.1973 -1.3446  0.1612
  868MOL0     H17131   8.279   7.821   3.762 -0.5249  1.1591 -0.1078
  868MOL0     H17132   8.487   8.033   3.540 -2.3746 -0.3758  1.0438
  868MOL0     H17133   8.471   7.972   3.701 -3.2842  0.0905 -1.8440
  868MOL0     H17134   8.634   7.788   3.625 -1.0263  1.3928  0.4066
  868MOL0     H17135   8.648   7.852   3.464  4.3947  1.3865  0.0215
  868MOL0     H17136   8.721   8.001   3.729 -2.1915  4.8579 -0.9735
  868MOL0     H17137   8.718   8.071   3.568 -0.0011  0.5413  0.0006
  868MOL0     H17138   8.907   7.892   3.504 -0.7432 -0.9682  0.2341
  868MOL0     H17139   8.902   7.840   3.667  0.3434 -0.3045  0.6963
  868MOL0     H17140   9.148   8.015   3.828 -1.9489 -1.2945 -0.1159
  868MOL0     H17141   9.405   8.004   3.784  1.4620 -1.1420 -1.1153
  868MOL0     H17142   9.811   8.153   3.760 -0.5242 -0.7661  1.0728
  868MOL0     H17143  10.062   8.120   3.726  1.1351 -1.8999  0.4796
  868MOL0     H17144  10.194   8.133   3.496 -1.5512 -1.5266 -0.8663
  868MOL0     H17145  10.286   8.083   3.638  1.9108 -2.3377  0.0700
  868MOL0     H17146  10.393   7.917   3.484  0.9182  0.6068 -0.1303
  868MOL0     H17147  10.337   8.018   3.357 -0.4918  0.0219  0.3333
  868MOL0     H17148  10.451   8.221   3.466  1.9880  0.5456 -1.5583
  868MOL0     H17149  10.517   8.131   3.594  1.9056 -0.5808 -0.9355
  868MOL0     H17150  10.593   8.094   3.299 -1.0651 -0.1246  0.2197
  868MOL0     H17151  10.638   7.976   3.419 -1.4772  0.7825  4.7339
  868MOL0     H17152  10.745   8.136   3.567  1.6051  1.9104  0.2750
  868MOL0     H17153  10.693   8.274   3.471  1.0120  0.5322  0.2796
  868MOL0     H17154  10.889   8.049   3.365 -0.9642  0.5883 -4.6282
  868MOL0     H17155  10.844   8.196   3.283 -2.3550  0.7221  0.3925
  868MOL0     H17156  11.011   8.179   3.535 -0.3167 -0.3366  0.5486
  868MOL0     H17157  10.954   8.332   3.455  2.7360  0.5712 -1.1370
  868MOL0     H17158  11.075   8.254   3.249  1.6771  4.7982  0.5583
  868MOL0     H17159  11.178   8.279   3.384 -2.5971  2.2810 -0.4464
  868MOL0     H17160   9.957   7.829   3.424 -0.2471  0.6155 -1.1587
  868MOL0     H17161   9.735   7.840   3.478  0.6306  0.6208 -2.1288
  868MOL0     H17162   9.307   8.058   3.365 -1.5419 -2.6401 -1.1034
  868MOL0     H17163   9.068   8.061   3.416 -3.5142 -2.0181  1.5842
  868MOL0     H17164   7.113   7.936   3.606 -1.4189  0.4392 -1.2214
  868MOL0     H17165   6.891   7.902   3.730 -1.8272 -0.4234 -0.7990
  868MOL0     H17166   6.472   7.500   3.678 -0.4641 -0.4526 -0.3852
  868MOL0     H17167   6.266   7.476   3.807 -0.1318 -0.2835  1.0492
  868MOL0     H17168   6.080   7.539   3.872  0.7600  1.6815 -1.5354
  868MOL0     H17169   5.989   7.639   3.992  0.0609 -0.4324  3.7737
  868MOL0     H17170   6.059   7.465   4.180  0.9334  0.8601 -0.4206
  868MOL0     H17171   6.134   7.381   4.042 -0.0492 -0.7504  1.6534
  868MOL0     H17172   5.887   7.413   3.933 -0.6883 -4.9118 -2.3136
  868MOL0     H17173   5.846   7.393   4.114  0.2508 -3.4440  1.5317
  868MOL0     H17174   5.873   7.170   3.935 -0.6593 -0.1085  0.5458
  868MOL0     H17175   6.041   7.206   3.976 -0.4637  0.5060 -1.3694
  868MOL0     H17176   5.883   7.116   4.363 -0.0305  1.2519  0.3210
  868MOL0     H17177   6.390   7.758   4.091  1.5006  0.0226  0.0300
  868MOL0     H17178   6.697   7.878   3.924  0.4486  1.1038  1.5460
  868MOL0     H17179   6.545   7.934   3.990 -1.6081 -0.8812 -0.8548
  868MOL0     H17180   6.641   7.838   4.087  0.1402  3.3629  0.5921
  869MOL0     O17181   1.584   9.775   2.990 -0.4078 -0.4933  0.1056
  869MOL0     C17182   1.596   9.870   2.920  0.1584 -0.8988  0.6007
  869MOL0     O17183   1.665   9.990   2.938 -0.3973  0.0981  0.8879
  869MOL0     C17184   1.760  10.001   3.030 -0.0168  0.1545 -0.2827
  869MOL0     C17185   1.894   9.990   3.000 -0.2350 -0.4391 -0.2110
  869MOL0     C17186   2.001  10.016   3.096  0.0316 -0.6562  0.7816
  869MOL0     C17187   1.964  10.026   3.227  0.2731  1.2002  0.2607
  869MOL0     O17188   2.070  10.048   3.314  0.1296  0.5191  0.1548
  869MOL0     C17189   2.033  10.096   3.443 -0.4881 -0.6767  0.4981
  869MOL0     C17190   2.160  10.155   3.514  0.2021 -0.2858 -0.3392
  869MOL0     C17191   2.262  10.052   3.555 -0.1165  0.1269  0.1566
  869MOL0     C17192   2.402  10.105   3.581 -0.2891  0.4241 -0.2059
  869MOL0     C17193   2.499   9.989   3.609  0.0684 -0.1297 -0.3231
  869MOL0     C17194   2.643  10.036   3.624 -0.3656  0.0579 -0.7569
  869MOL0     C17195   2.736   9.921   3.662 -0.2922 -0.0161  0.7369
  869MOL0     C17196   2.882   9.956   3.611  0.0415  0.1652  0.1763
  869MOL0     N17197   2.914  10.098   3.640  0.3978 -0.4723  0.1867
  869MOL0     C17198   2.944  10.190   3.544 -0.0273  0.1783 -0.0059
  869MOL0     C17199   2.969  10.306   3.605 -0.5998  0.4059 -0.2239
  869MOL0     C17200   3.017  10.434   3.528  0.6414  0.5365  0.5389
  869MOL0     C17201   3.096  10.525   3.615 -0.7242 -0.4907 -0.6115
  869MOL0     C17202   3.147  10.652   3.536 -0.2442 -0.4584  0.9821
  869MOL0     C17203   3.273  10.695   3.601 -0.3352  0.4114  0.5088
  869MOL0     O17204   3.380  10.599   3.563  0.1839  0.5235 -0.2572
  869MOL0     C17205   3.472  10.587   3.659 -0.1832 -0.1959  0.1195
  869MOL0     C17206   3.510  10.681   3.757  0.0907  0.0583 -0.1617
  869MOL0     C17207   3.618  10.653   3.845  0.7845  0.2703 -0.1974
  869MOL0     C17208   3.696  10.541   3.835  0.2121  0.7600 -0.3792
  869MOL0     C17209   3.809  10.516   3.917  0.2833  1.1187  0.3959
  869MOL0     O17210   3.902  10.420   3.873 -0.2620  0.3528 -0.0958
  869MOL0     C17211   4.013  10.382   3.949  0.1737  0.4240  1.0294
  869MOL0     C17212   4.069  10.269   3.890 -0.3609 -0.1887  0.7243
  869MOL0     C17213   4.167  10.204   3.965 -0.5754 -0.1631  0.0425
  869MOL0     C17214   4.218  10.260   4.084  0.8934 -0.4555  0.7442
  869MOL0     O17215   4.322  10.199   4.139  0.3239 -0.3366 -0.1113
  869MOL0     C17216   4.287  10.150   4.275 -0.0401  0.4157  0.0627
  869MOL0     C17217   4.406  10.087   4.339  0.4825 -0.2569  0.4969
  869MOL0     C17218   4.448   9.973   4.251 -0.6621 -0.1176  0.2046
  869MOL0     C17219   4.578   9.905   4.310 -0.3735  0.2606  0.1317
  869MOL0     C17220   4.601   9.764   4.239 -0.4427  0.5655 -0.2596
  869MOL0     C17221   4.606   9.771   4.086  0.0790 -0.3988  0.5868
  869MOL0     C17222   4.653   9.645   4.027  0.3202  0.4991  0.2639
  869MOL0     C17223   4.651   9.648   3.875  0.1964  0.6684 -0.1633
  869MOL0    Cl17224   4.770   9.752   3.797 -0.1148 -0.4093 -0.1342
  869MOL0     C17225   4.160  10.382   4.129  0.0361 -0.4998  0.7150
  869MOL0     C17226   4.057  10.447   4.063 -0.7748  0.1448  0.6465
  869MOL0     O17227   3.809  10.568   4.023  0.4983  0.5751  0.0519
  869MOL0     C17228   3.664  10.449   3.733 -0.8827  0.4516  0.4060
  869MOL0     C17229   3.552  10.478   3.655  0.6495  0.2476  0.1233
  869MOL0     N17230   2.958  10.278   3.744  0.1265 -0.0112  0.4606
  869MOL0     N17231   2.928  10.157   3.763 -1.2834 -0.1622  0.7873
  869MOL0     C17232   1.824  10.012   3.265  0.4088  0.1945  0.3614
  869MOL0     C17233   1.724  10.001   3.164 -0.0322  0.2901 -1.2556
  869MOL0     C17234   1.510   9.861   2.801  0.2343  0.3913  0.6707
  869MOL0     C17235   1.567   9.844   2.674  0.3920  0.3720 -0.6539
  869MOL0     C17236   1.484   9.825   2.565 -0.2062  0.1206  0.2000
  869MOL0     C17237   1.346   9.821   2.576 -0.6897 -0.2330 -0.4332
  869MOL0     O17238   1.260   9.816   2.472  0.1540  0.8408 -0.0438
  869MOL0     C17239   1.259   9.679   2.418  1.1242  0.0981 -0.6795
  869MOL0     C17240   1.108   9.644   2.403 -0.2950  0.6315 -0.2405
  869MOL0     C17241   1.084   9.500   2.344  0.6038  0.7271  0.2777
  869MOL0     C17242   0.945   9.483   2.276 -0.8171 -0.9064 -0.6792
  869MOL0     C17243   0.897   9.344   2.282 -0.5565 -0.8586  0.1815
  869MOL0     C17244   0.855   9.226   2.273 -0.4693 -1.2494  0.7073
  869MOL0     C17245   1.293   9.852   2.699  0.6933 -0.4445 -0.4487
  869MOL0     C17246   1.369   9.864   2.817  0.1526  0.4699  0.0691
  869MOL0     C17247   1.316   9.883   2.954  0.7087 -0.2184  0.3026
  869MOL0     H17248   1.920   9.984   2.894 -1.8845  0.6751 -0.7189
  869MOL0     H17249   2.103  10.018   3.060 -0.2016  2.1186  0.0049
  869MOL0     H17250   1.955  10.172   3.449  0.0771 -0.2104  2.5244
  869MOL0     H17251   1.995  10.009   3.496 -0.1578 -1.3599 -0.3555
  869MOL0     H17252   2.131  10.209   3.605  0.6714  1.1244 -0.9997
  869MOL0     H17253   2.216  10.218   3.443  0.9029  0.1067  0.5339
  869MOL0     H17254   2.270   9.978   3.475 -0.1445 -1.1396  1.2990
  869MOL0     H17255   2.231   9.991   3.640 -0.9630 -2.9734 -2.2010
  869MOL0     H17256   2.442  10.156   3.493  1.9135  0.2983  0.6615
  869MOL0     H17257   2.400  10.178   3.663 -1.3025  0.2488 -0.0622
  869MOL0     H17258   2.468   9.934   3.698  0.9610 -0.9712 -0.5145
  869MOL0     H17259   2.493   9.916   3.527 -1.0349 -0.6703  0.2250
  869MOL0     H17260   2.681  10.072   3.529  2.2544 -1.5903 -0.4232
  869MOL0     H17261   2.658  10.119   3.694  1.7081  1.8102 -3.1331
  869MOL0     H17262   2.698   9.826   3.624  0.3915  0.1452 -0.3880
  869MOL0     H17263   2.753   9.912   3.769  1.8118  2.4446  0.7067
  869MOL0     H17264   2.951   9.894   3.670  0.1897  0.6835  0.5572
  869MOL0     H17265   2.902   9.933   3.506  2.6594 -1.8174  1.0123
  869MOL0     H17266   2.936  10.185   3.436 -4.1610  1.0257  0.0858
  869MOL0     H17267   3.074  10.399   3.443 -0.7590 -4.0508  1.2346
  869MOL0     H17268   2.928  10.487   3.492  0.8995  1.3023  0.9800
  869MOL0     H17269   3.048  10.551   3.709  0.3284  1.1064 -0.4867
  869MOL0     H17270   3.187  10.472   3.646  0.2168 -0.8688 -3.6604
  869MOL0     H17271   3.073  10.730   3.555 -3.0474 -2.1558 -1.8031
  869MOL0     H17272   3.164  10.633   3.429 -1.5048 -0.3678  0.7419
  869MOL0     H17273   3.262  10.711   3.708 -1.1085  1.8904  0.2386
  869MOL0     H17274   3.301  10.797   3.574 -2.8281  0.6839 -1.3893
  869MOL0     H17275   3.463  10.779   3.768  1.2336  0.4856  1.1008
  869MOL0     H17276   3.643  10.726   3.922  0.9876 -0.5038  0.4923
  869MOL0     H17277   4.022  10.218   3.807  0.0075 -0.4142  0.6582
  869MOL0     H17278   4.224  10.120   3.928 -1.4446 -0.9150  0.3546
  869MOL0     H17279   4.249  10.228   4.342 -2.1231 -1.3336  1.0007
  869MOL0     H17280   4.206  10.078   4.265 -0.0155  0.6708 -2.6663
  869MOL0     H17281   4.480  10.168   4.352 -1.1246  2.0109 -3.0986
  869MOL0     H17282   4.369  10.049   4.435 -1.1269  2.9027  1.2814
  869MOL0     H17283   4.362   9.906   4.244  0.0477 -1.1049  0.7604
  869MOL0     H17284   4.467  10.010   4.150  1.9275  0.9077  0.9864
  869MOL0     H17285   4.565   9.892   4.418  0.9563  2.6574  0.6515
  869MOL0     H17286   4.666   9.970   4.301 -1.6356  2.7304  3.4770
  869MOL0     H17287   4.528   9.686   4.263  1.2916 -0.6578  1.3585
  869MOL0     H17288   4.698   9.732   4.279 -1.5531 -1.7063  0.7826
  869MOL0     H17289   4.505   9.798   4.053 -0.6336 -4.2209 -0.9910
  869MOL0     H17290   4.670   9.855   4.058  0.9193 -0.2770  2.7019
  869MOL0     H17291   4.592   9.560   4.057  1.1970  0.4691  2.1867
  869MOL0     H17292   4.755   9.630   4.064  0.0416  3.3375  2.6123
  869MOL0     H17293   4.676   9.545   3.846  1.9706  0.5203  1.6419
  869MOL0     H17294   4.550   9.663   3.837  0.3791 -1.0317 -1.4312
  869MOL0     H17295   4.211  10.424   4.216 -0.6494 -0.5831  1.1638
  869MOL0     H17296   4.017  10.544   4.092 -1.1004  0.7911 -1.7498
  869MOL0     H17297   3.722  10.360   3.710 -1.1776  0.7492 -1.6680
  869MOL0     H17298   3.522  10.406   3.579 -2.7765  1.6841 -0.0972
  869MOL0     H17299   1.791  10.007   3.368 -3.1897 -1.1963 -0.7174
  869MOL0     H17300   1.620   9.999   3.197 -0.7352 -0.3366 -3.3205
  869MOL0     H17301   1.675   9.851   2.673  0.3642  1.4265  0.6544
  869MOL0     H17302   1.527   9.810   2.466 -0.6946  0.5372 -0.0839
  869MOL0     H17303   1.304   9.612   2.491 -0.8843 -0.3133  0.2391
  869MOL0     H17304   1.309   9.681   2.320 -0.4563 -0.7818 -1.5526
  869MOL0     H17305   1.059   9.715   2.335  1.2387  1.3873 -0.5965
  869MOL0     H17306   1.068   9.644   2.505 -2.0398 -1.4085 -0.8457
  869MOL0     H17307   1.095   9.429   2.426  0.4299  0.5403  0.1372
  869MOL0     H17308   1.162   9.463   2.277  1.7233  2.7578  0.3602
  869MOL0     H17309   0.859   9.534   2.321 -2.5777 -2.8510 -1.6927
  869MOL0     H17310   0.962   9.513   2.173 -0.3681 -0.2243 -0.4114
  869MOL0     H17311   0.826   9.124   2.260 -1.7854 -0.7147 -0.8914
  869MOL0     H17312   1.185   9.862   2.709  0.5094 -3.2228  1.7999
  869MOL0     H17313   1.208   9.899   2.962  0.5107 -1.4192  0.1546
  869MOL0     H17314   1.336   9.793   3.013  2.0352  2.0868  3.6727
  869MOL0     H17315   1.364   9.972   2.996 -1.1534  0.6335  0.7568
  870MOL0     O17316   7.896   0.776   9.711  0.2103  0.6112  0.4346
  870MOL0     C17317   7.893   0.802   9.592 -0.0302 -0.3337  0.5868
  870MOL0     O17318   7.987   0.880   9.530 -0.4187  0.3314  0.3206
  870MOL0     C17319   8.064   0.966   9.607  0.6642  0.5159 -0.4881
  870MOL0     C17320   8.060   1.101   9.586 -0.7774  0.3326 -0.4494
  870MOL0     C17321   8.146   1.190   9.660  0.1844  0.2012 -0.2532
  870MOL0     C17322   8.245   1.136   9.751  0.6218  0.7228 -0.2600
  870MOL0     O17323   8.328   1.217   9.827 -0.1585  0.0686  0.2871
  870MOL0     C17324   8.272   1.312   9.909 -0.7119 -0.6992 -0.4642
  870MOL0     C17325   8.177   1.268  10.010  1.0816 -0.3598 -0.9987
  870MOL0     C17326   8.229   1.140  10.089 -0.1676 -0.4863 -0.3192
  870MOL0     C17327   8.157   1.115  10.225  0.4892  0.8160 -0.2101
  870MOL0     C17328   8.223   0.996  10.291 -0.0048  0.5125  0.6009
  870MOL0     C17329   8.159   0.988  10.431 -0.5051  0.1110  0.7042
  870MOL0     C17330   8.235   0.879  10.510  0.3016  0.0180 -0.0905
  870MOL0     C17331   8.160   0.862  10.643  0.0749 -0.3465 -0.0873
  870MOL0     N17332   8.233   0.749  10.708  0.1439 -0.7032 -0.3040
  870MOL0     C17333   8.213   0.622  10.684 -0.4466 -0.2608 -0.3214
  870MOL0     C17334   8.300   0.555  10.765  0.0082  0.3123 -1.0616
  870MOL0     C17335   8.315   0.403  10.798 -1.1001 -0.4739 -0.5300
  870MOL0     C17336   8.188   0.324  10.796  0.2403  0.5744  0.2906
  870MOL0     C17337   8.203   0.171  10.844 -0.4852  0.2732 -0.3675
  870MOL0     C17338   8.303   0.094  10.761 -0.9031  0.6548 -0.5719
  870MOL0     O17339   8.436   0.125  10.818 -0.6606  0.2357 -0.1570
  870MOL0     C17340   8.540   0.040  10.763 -0.1624 -0.2115 -0.2353
  870MOL0     C17341   8.523  -0.063  10.671 -0.0782  0.2701  0.3430
  870MOL0     C17342   8.636  -0.126  10.614  0.3446 -0.1601  0.9115
  870MOL0     C17343   8.768  -0.084  10.648 -0.3163 -0.5887 -0.1632
  870MOL0     C17344   8.898  -0.130  10.578  0.3139 -0.2699  0.0606
  870MOL0     O17345   9.013  -0.074  10.626  0.4922 -0.4332 -0.4474
  870MOL0     C17346   9.138  -0.097  10.560 -0.7143 -0.0808  0.0737
  870MOL0     C17347   9.169  -0.062  10.430 -0.4153  0.2973  0.2828
  870MOL0     C17348   9.310  -0.063  10.382  0.5354 -0.7746 -1.5004
  870MOL0     C17349   9.409  -0.098  10.472 -0.8312  0.3895 -0.3515
  870MOL0     O17350   9.538  -0.104  10.431 -0.2368  0.1399 -0.0836
  870MOL0     C17351   9.628  -0.020  10.505 -0.3085  0.3990 -0.2158
  870MOL0     C17352   9.749   0.006  10.422 -0.4248  0.1899  0.3427
  870MOL0     C17353   9.842   0.067  10.526 -0.0685  0.2333 -0.1948
  870MOL0     C17354   9.979   0.092  10.468  0.0591 -1.0364 -0.6330
  870MOL0     C17355  10.095   0.108  10.568  0.0185  1.0139 -0.6540
  870MOL0     C17356  10.228   0.122  10.497  0.4083 -0.3417 -0.2280
  870MOL0     C17357  10.331   0.177  10.598  0.1961  0.1294  0.8181
  870MOL0     C17358  10.463   0.210  10.527 -0.2270  0.3086  0.7896
  870MOL0    Cl17359  10.574   0.260  10.655 -0.1043  0.2517 -0.0309
  870MOL0     C17360   9.380  -0.128  10.605 -0.7169 -0.5900 -0.1391
  870MOL0     C17361   9.251  -0.123  10.649 -1.1891 -0.4728 -0.6344
  870MOL0     O17362   8.894  -0.203  10.478 -0.3972 -0.0214 -0.2361
  870MOL0     C17363   8.780   0.011  10.763 -0.6218 -0.0337 -0.6763
  870MOL0     C17364   8.666   0.072  10.807  0.9328 -0.0270 -0.7354
  870MOL0     N17365   8.379   0.651  10.828 -0.1618  0.7680  0.2173
  870MOL0     N17366   8.336   0.766  10.795 -0.0416  0.7850 -0.2983
  870MOL0     C17367   8.255   0.999   9.762 -0.4638  0.2673 -0.6541
  870MOL0     C17368   8.157   0.915   9.700  1.0547  0.2925 -0.7279
  870MOL0     C17369   7.807   0.719   9.498  0.2599 -0.1628 -0.3923
  870MOL0     C17370   7.865   0.702   9.365  0.7207 -0.1843 -0.0359
  870MOL0     C17371   7.799   0.627   9.267  0.4637  0.1448 -0.4147
  870MOL0     C17372   7.675   0.574   9.289  0.1224  0.7904  0.0566
  870MOL0     O17373   7.597   0.497   9.211  0.3687  0.7560  0.1536
  870MOL0     C17374   7.649   0.443   9.085 -0.5230  0.4275 -0.0190
  870MOL0     C17375   7.528   0.363   9.029 -0.7026  0.7008 -0.5755
  870MOL0     C17376   7.495   0.242   9.112 -0.2216  1.1021  0.8797
  870MOL0     C17377   7.379   0.167   9.038  0.5680 -0.2243 -0.6531
  870MOL0     C17378   7.374   0.031   9.091  0.2474  0.2360  0.4940
  870MOL0     C17379   7.382  -0.086   9.132 -0.2589  0.0158 -0.2406
  870MOL0     C17380   7.614   0.593   9.417 -1.3538 -0.2525 -0.2116
  870MOL0     C17381   7.682   0.663   9.522  0.0938  0.8104 -0.9149
  870MOL0     C17382   7.611   0.698   9.648 -0.7651 -0.0670  0.0164
  870MOL0     H17383   7.982   1.135   9.519 -2.3333 -1.1895  0.4823
  870MOL0     H17384   8.118   1.293   9.641 -3.6261 -0.4072  1.2107
  870MOL0     H17385   8.357   1.359   9.960 -2.3432 -0.0962  1.9114
  870MOL0     H17386   8.227   1.389   9.846  0.5362  0.6102  0.1947
  870MOL0     H17387   8.080   1.234   9.973  0.4593 -1.8583  1.7507
  870MOL0     H17388   8.155   1.354  10.074 -0.3794 -1.3201 -0.1443
  870MOL0     H17389   8.331   1.160  10.123 -0.3253 -1.9568  1.1599
  870MOL0     H17390   8.224   1.046  10.033  0.0290 -0.4084 -0.4651
  870MOL0     H17391   8.172   1.207  10.283  2.4420 -0.9123  2.2061
  870MOL0     H17392   8.051   1.096  10.205  0.4133  1.1751 -0.1678
  870MOL0     H17393   8.195   0.908  10.232 -0.2739 -0.3376  1.9591
  870MOL0     H17394   8.331   1.015  10.294  0.0019  0.4047  1.0799
  870MOL0     H17395   8.158   1.082  10.485  0.4966  1.4102 -1.3811
  870MOL0     H17396   8.057   0.950  10.420  0.5327 -3.0731  1.0118
  870MOL0     H17397   8.337   0.916  10.526 -0.2441  2.0722 -1.0662
  870MOL0     H17398   8.224   0.779  10.467 -2.0003 -0.5421  1.5990
  870MOL0     H17399   8.157   0.957  10.698 -0.4946  0.8012 -1.9936
  870MOL0     H17400   8.057   0.828  10.625 -2.5231  3.7447  4.6323
  870MOL0     H17401   8.130   0.585  10.625 -1.3097  1.6874 -0.4301
  870MOL0     H17402   8.397   0.369  10.734  0.2132  0.4672  0.5855
  870MOL0     H17403   8.352   0.406  10.901 -2.4520  1.4750 -0.0435
  870MOL0     H17404   8.122   0.368  10.872  1.7217  0.0153  1.9670
  870MOL0     H17405   8.141   0.324  10.697 -1.3821 -3.4722  0.8674
  870MOL0     H17406   8.112   0.116  10.822  1.3946 -2.1950 -2.6729
  870MOL0     H17407   8.227   0.176  10.951  3.2903  0.3694 -1.0713
  870MOL0     H17408   8.293   0.118  10.655 -0.8541 -0.0515 -0.7423
  870MOL0     H17409   8.286  -0.012  10.784  2.2488 -0.3546 -2.3075
  870MOL0     H17410   8.426  -0.086  10.630 -0.5279  4.3078 -1.2982
  870MOL0     H17411   8.618  -0.196  10.533 -0.7115 -0.9222  1.7799
  870MOL0     H17412   9.091  -0.035  10.360 -0.5385 -1.5945 -0.3695
  870MOL0     H17413   9.331  -0.013  10.288 -0.1885  1.5580 -0.4770
  870MOL0     H17414   9.581   0.076  10.527 -1.1210  1.2276 -4.6149
  870MOL0     H17415   9.655  -0.076  10.595 -0.0085 -1.0119 -1.1478
  870MOL0     H17416   9.796  -0.084  10.381  1.8545  0.7752  1.5158
  870MOL0     H17417   9.728   0.079  10.343  0.8015 -0.6394 -0.8038
  870MOL0     H17418   9.795   0.159  10.562 -2.5145 -0.5315 -1.2281
  870MOL0     H17419   9.854  -0.011  10.602 -0.2230 -2.4659 -2.7473
  870MOL0     H17420   9.979   0.181  10.405  2.3202  0.9106  1.8997
  870MOL0     H17421  10.003   0.003  10.408  2.4679 -1.1732  0.4139
  870MOL0     H17422  10.108   0.022  10.634 -0.2752  2.0292  0.7920
  870MOL0     H17423  10.078   0.189  10.640 -3.7891 -1.3696  1.4687
  870MOL0     H17424  10.248   0.023  10.455  1.0881 -0.1750 -0.3039
  870MOL0     H17425  10.215   0.186  10.409  0.7433 -1.4683 -1.1224
  870MOL0     H17426  10.343   0.107  10.681  0.4662 -0.6700  0.1277
  870MOL0     H17427  10.293   0.274  10.631 -1.7818 -0.5425  0.6141
  870MOL0     H17428  10.505   0.120  10.481 -2.2574  0.7149 -2.1451
  870MOL0     H17429  10.455   0.302  10.469  0.8772  2.0960  3.3068
  870MOL0     H17430   9.458  -0.147  10.678 -1.0879  1.1757  0.7847
  870MOL0     H17431   9.228  -0.152  10.751  0.3511  2.4004  0.6440
  870MOL0     H17432   8.877   0.043  10.800 -2.7105  3.1626  2.6730
  870MOL0     H17433   8.672   0.147  10.885  0.9143 -1.3373  0.5805
  870MOL0     H17434   8.334   0.953   9.820  1.2456 -0.5204 -3.4093
  870MOL0     H17435   8.151   0.808   9.718  1.9897  0.4691  0.7187
  870MOL0     H17436   7.966   0.736   9.341  0.6336  0.5175  0.5676
  870MOL0     H17437   7.839   0.611   9.167 -2.2283 -0.4073 -1.4848
  870MOL0     H17438   7.733   0.374   9.103 -0.0113  0.7069 -1.2109
  870MOL0     H17439   7.678   0.510   9.003  1.3282 -2.8809 -2.3287
  870MOL0     H17440   7.552   0.334   8.927 -3.3609  1.3028 -1.4567
  870MOL0     H17441   7.441   0.430   9.028 -0.3656  1.1488 -1.8638
  870MOL0     H17442   7.459   0.261   9.214  1.7989  1.2985  1.5981
  870MOL0     H17443   7.587   0.183   9.110 -1.4425 -0.9302  1.1554
  870MOL0     H17444   7.278   0.208   9.044 -0.7430 -3.0990 -1.2230
  870MOL0     H17445   7.390   0.164   8.929 -1.8888 -0.4939 -0.9486
  870MOL0     H17446   7.394  -0.186   9.169 -3.8210 -0.8083 -0.9738
  870MOL0     H17447   7.519   0.546   9.438 -2.0389  1.7557  1.4392
  870MOL0     H17448   7.672   0.669   9.735 -1.0135  1.7190  0.8298
  870MOL0     H17449   7.592   0.804   9.663 -2.6667 -0.4223  0.4248
  870MOL0     H17450   7.513   0.649   9.653 -1.2333  0.8594  0.1243
  871MOL0     O17451  10.309   1.066   3.030  0.7108  0.9683 -0.5608
  871MOL0     C17452  10.396   1.007   3.103  0.4287  0.0122 -0.1566
  871MOL0     O17453  10.530   1.015   3.085  0.0159  0.7796 -0.7111
  871MOL0     C17454  10.574   1.100   2.989 -0.4806  0.6918  0.3309
  871MOL0     C17455  10.665   1.198   3.022  0.8970 -0.5974  0.2373
  871MOL0     C17456  10.722   1.284   2.929 -0.1541  0.4018  0.0238
  871MOL0     C17457  10.690   1.262   2.792  0.1171 -0.2151 -0.3610
  871MOL0     O17458  10.754   1.347   2.706 -0.0594 -0.1393  0.3857
  871MOL0     C17459  10.774   1.291   2.572  0.4267 -1.0437  0.2741
  871MOL0     C17460  10.865   1.384   2.497 -0.1836  0.4928  0.6348
  871MOL0     C17461  10.996   1.431   2.573 -0.1245 -0.0441 -0.3903
  871MOL0     C17462  11.097   1.504   2.496  0.1438 -0.1777 -0.3703
  871MOL0     C17463  11.043   1.643   2.448 -1.0786 -0.0503 -0.4954
  871MOL0     C17464  11.136   1.702   2.350 -0.0421 -0.4550  0.2280
  871MOL0     C17465  11.117   1.847   2.323 -0.5105 -0.9345 -0.0958
  871MOL0     C17466  11.168   1.907   2.187  1.1818 -0.1665 -0.1041
  871MOL0     N17467  11.305   1.944   2.180 -0.1813 -0.2905  0.0781
  871MOL0     C17468  11.410   1.857   2.154  0.6176 -0.1208  0.4120
  871MOL0     C17469  11.516   1.939   2.143  0.4918  0.7805  0.0679
  871MOL0     C17470  11.659   1.895   2.114 -0.1034 -0.9728 -0.0708
  871MOL0     C17471  11.699   1.982   1.989 -0.0326 -0.3676  0.4459
  871MOL0     C17472  11.827   1.918   1.929 -0.0741  0.1210 -0.2164
  871MOL0     C17473  11.896   1.995   1.818  0.1308 -0.0669  0.0986
  871MOL0     O17474  11.985   1.896   1.755 -0.0356 -0.0471 -0.0917
  871MOL0     C17475  12.117   1.939   1.748 -1.1030 -0.0621  0.3989
  871MOL0     C17476  12.205   1.910   1.850  0.9272 -0.6342  0.7557
  871MOL0     C17477  12.342   1.939   1.829 -0.4135  0.2263  0.5485
  871MOL0     C17478  12.388   2.009   1.720 -0.5207  0.6944  0.1864
  871MOL0     C17479  12.529   2.042   1.701  0.3946 -0.1869  0.2394
  871MOL0     O17480  12.564   2.064   1.569  0.5019 -0.6047 -0.6872
  871MOL0     C17481  12.698   2.051   1.545  0.4851 -0.3058 -0.3325
  871MOL0     C17482  12.734   1.952   1.465  0.3942  0.7373 -0.7169
  871MOL0     C17483  12.868   1.920   1.442  0.7664 -0.3856  0.8398
  871MOL0     C17484  12.971   1.988   1.512 -0.6815  0.1935  0.5385
  871MOL0     O17485  13.099   1.942   1.497  0.5359 -0.7423 -0.3158
  871MOL0     C17486  13.202   1.990   1.580 -0.1102 -0.2976  0.1370
  871MOL0     C17487  13.300   1.874   1.596 -0.0775 -0.4075 -0.7781
  871MOL0     C17488  13.385   1.898   1.713 -0.3577  0.1481 -0.5239
  871MOL0     C17489  13.506   1.807   1.717 -0.0136  0.3238  0.0174
  871MOL0     C17490  13.611   1.852   1.814 -0.0390  0.4935 -0.1792
  871MOL0     C17491  13.712   1.738   1.843 -0.4842 -0.7272 -0.6050
  871MOL0     C17492  13.819   1.779   1.937 -0.1232  0.8327  0.0181
  871MOL0     C17493  13.915   1.668   1.983  0.2562  0.2247 -0.5107
  871MOL0    Cl17494  13.841   1.566   2.115  0.1890 -0.0728 -0.5501
  871MOL0     C17495  12.937   2.098   1.594  0.1359 -0.2295 -0.3095
  871MOL0     C17496  12.803   2.129   1.605 -0.2418 -0.9427 -0.0834
  871MOL0     O17497  12.604   2.040   1.799 -0.8704 -0.0821  0.5273
  871MOL0     C17498  12.299   2.035   1.611 -0.2685 -0.3177 -0.8387
  871MOL0     C17499  12.170   1.991   1.627 -0.5804  0.7465  0.1078
  871MOL0     N17500  11.474   2.064   2.186 -0.7336  0.1698 -0.0510
  871MOL0     N17501  11.352   2.069   2.216 -0.3065  0.0014  1.0776
  871MOL0     C17502  10.602   1.163   2.759  0.6103 -0.2141  0.5996
  871MOL0     C17503  10.539   1.081   2.853 -1.3478 -0.1363 -0.1516
  871MOL0     C17504  10.338   0.958   3.232  0.3321 -0.0524  0.1872
  871MOL0     C17505  10.429   0.924   3.329  0.2246  0.2217  1.0351
  871MOL0     C17506  10.398   0.890   3.457 -0.5627  1.0084 -0.2626
  871MOL0     C17507  10.266   0.886   3.504 -0.4851 -0.6410 -0.2465
  871MOL0     O17508  10.245   0.857   3.638  0.5809  0.3544 -0.2926
  871MOL0     C17509  10.161   0.738   3.661  0.0415 -0.7380  0.5063
  871MOL0     C17510  10.165   0.709   3.811  0.9263  0.1235 -0.1999
  871MOL0     C17511  10.112   0.568   3.838 -0.3066 -0.2384 -0.8288
  871MOL0     C17512  10.160   0.513   3.966  0.6336 -0.0255  0.3326
  871MOL0     C17513  10.078   0.553   4.076  0.0993  0.9156 -0.6340
  871MOL0     C17514  10.004   0.579   4.171  0.3583  0.4215 -0.8360
  871MOL0     C17515  10.165   0.916   3.402 -0.8593 -1.4913 -0.1578
  871MOL0     C17516  10.200   0.945   3.271  0.6519 -0.0351  0.8030
  871MOL0     C17517  10.080   0.954   3.175  0.6841 -0.6879 -0.3035
  871MOL0     H17518  10.689   1.205   3.128 -1.8915  1.1676  0.8578
  871MOL0     H17519  10.778   1.370   2.962  0.3273  0.4228 -0.8138
  871MOL0     H17520  10.811   1.188   2.571  0.2754 -1.1341  1.5055
  871MOL0     H17521  10.678   1.297   2.522  0.3677 -1.8108  0.2851
  871MOL0     H17522  10.814   1.477   2.471  2.5800  1.6197 -1.2350
  871MOL0     H17523  10.894   1.354   2.396  0.6021  2.4437  0.2327
  871MOL0     H17524  11.062   1.352   2.609  3.1769  2.7507  0.2391
  871MOL0     H17525  10.971   1.498   2.656  1.4277  0.3123 -0.1868
  871MOL0     H17526  11.194   1.522   2.545 -0.4256  2.5095 -0.0436
  871MOL0     H17527  11.123   1.446   2.407  1.8561  1.4550 -1.0237
  871MOL0     H17528  10.940   1.643   2.410 -0.7777  1.0339 -1.3614
  871MOL0     H17529  11.035   1.706   2.538  2.0200 -1.7194  1.1102
  871MOL0     H17530  11.238   1.675   2.380  0.3761  0.3814 -0.4121
  871MOL0     H17531  11.111   1.651   2.257 -0.2629 -1.5462  0.8662
  871MOL0     H17532  11.166   1.904   2.402  1.2296 -4.3209  1.4522
  871MOL0     H17533  11.008   1.860   2.326 -0.2650  1.5657 -0.1194
  871MOL0     H17534  11.148   1.837   2.105  0.7697  0.5506 -0.6224
  871MOL0     H17535  11.100   1.988   2.160 -0.5436 -1.6562 -0.4127
  871MOL0     H17536  11.416   1.752   2.126  0.0585  0.1031 -0.6034
  871MOL0     H17537  11.714   1.921   2.205  1.2454  1.0004 -1.3856
  871MOL0     H17538  11.659   1.789   2.089  0.0097 -0.7070 -1.2687
  871MOL0     H17539  11.617   1.988   1.917  1.0249  1.6383 -0.6906
  871MOL0     H17540  11.723   2.081   2.030  1.7852 -1.6183  2.6879
  871MOL0     H17541  11.801   1.819   1.890  4.3985 -1.6166  0.6763
  871MOL0     H17542  11.898   1.905   2.011 -0.6686  0.5795  0.3876
  871MOL0     H17543  11.953   2.082   1.853  0.6523 -0.6039  0.5952
  871MOL0     H17544  11.823   2.026   1.742 -0.2590 -3.5770 -1.0987
  871MOL0     H17545  12.171   1.887   1.950 -0.2320 -1.6885  0.1402
  871MOL0     H17546  12.409   1.907   1.908  2.7228  0.6143 -1.7821
  871MOL0     H17547  12.668   1.876   1.424  0.3965  0.3789 -0.0623
  871MOL0     H17548  12.897   1.844   1.371  2.1091  2.0027 -1.3441
  871MOL0     H17549  13.251   2.076   1.534  2.6756 -0.8477  1.8229
  871MOL0     H17550  13.163   2.014   1.679 -0.6583 -2.8700  0.6240
  871MOL0     H17551  13.255   1.775   1.605  2.6784 -1.8389 -1.7732
  871MOL0     H17552  13.369   1.867   1.512  1.1121 -2.2950  0.2867
  871MOL0     H17553  13.422   2.001   1.712  0.6337  0.0395  3.7211
  871MOL0     H17554  13.324   1.887   1.803 -2.3176  2.4187 -1.4869
  871MOL0     H17555  13.556   1.802   1.620  0.2284  0.7295  0.1188
  871MOL0     H17556  13.471   1.706   1.740 -1.2829  1.1169  1.8065
  871MOL0     H17557  13.568   1.868   1.913 -3.2132 -0.0339 -1.3739
  871MOL0     H17558  13.661   1.940   1.772 -2.3350  2.2443  0.5462
  871MOL0     H17559  13.655   1.663   1.898  0.3493  0.1403  1.5414
  871MOL0     H17560  13.747   1.701   1.746  0.0835 -0.4281 -0.5177
  871MOL0     H17561  13.763   1.819   2.022 -0.2114  0.6772  0.0331
  871MOL0     H17562  13.876   1.862   1.894 -0.5275  1.4320  0.6216
  871MOL0     H17563  13.948   1.609   1.896 -2.4336 -1.0539 -0.7614
  871MOL0     H17564  13.999   1.711   2.037 -1.1942  2.8537 -0.2171
  871MOL0     H17565  13.010   2.158   1.648 -1.6763  2.3850 -0.5749
  871MOL0     H17566  12.773   2.215   1.664  1.6229 -0.3161  0.0387
  871MOL0     H17567  12.336   2.077   1.518  0.0594 -0.6216 -0.8488
  871MOL0     H17568  12.103   1.987   1.542 -0.4312 -0.0918  0.0207
  871MOL0     H17569  10.586   1.161   2.652  1.8889  1.3612  0.3372
  871MOL0     H17570  10.467   1.006   2.820 -2.3448 -0.1117  1.8420
  871MOL0     H17571  10.534   0.934   3.303 -0.5827  1.5528 -2.2373
  871MOL0     H17572  10.478   0.871   3.529  0.6603 -1.9972 -2.2041
  871MOL0     H17573  10.189   0.648   3.605 -0.7412 -0.8648  0.3030
  871MOL0     H17574  10.057   0.747   3.629 -0.4567 -1.7488  1.7818
  871MOL0     H17575  10.102   0.778   3.868  0.2090 -0.5658 -0.1274
  871MOL0     H17576  10.265   0.706   3.853  0.5194 -0.4861  0.7544
  871MOL0     H17577  10.143   0.504   3.754  0.6310  2.4163 -2.6337
  871MOL0     H17578  10.005   0.586   3.831 -0.3457  0.6785  1.2990
  871MOL0     H17579  10.143   0.405   3.959  2.7729 -0.2767 -2.7850
  871MOL0     H17580  10.267   0.533   3.973  1.1182 -1.3191 -2.1412
  871MOL0     H17581   9.942   0.588   4.258 -0.3886  0.7210 -1.3897
  871MOL0     H17582  10.058   0.917   3.416 -0.9324 -0.6211 -0.6634
  871MOL0     H17583  10.063   0.859   3.123 -0.2218 -0.4313 -0.4969
  871MOL0     H17584   9.991   0.980   3.233  0.7665 -3.3501  1.1624
  871MOL0     H17585  10.091   1.042   3.112  0.5114  1.4486  2.4445
  872MOL0     O17586   8.636   1.911   7.740  0.3117  0.5633  0.6279
  872MOL0     C17587   8.522   1.943   7.777 -0.7795 -1.0954  0.4649
  872MOL0     O17588   8.491   2.030   7.886 -1.1269 -0.3360 -0.1989
  872MOL0     C17589   8.583   2.027   7.989 -0.5557 -0.2948 -0.3970
  872MOL0     C17590   8.604   2.149   8.051  0.4765  0.7634  0.3792
  872MOL0     C17591   8.689   2.158   8.161  0.5657  0.0339  0.0144
  872MOL0     C17592   8.768   2.045   8.194 -0.2044 -0.7605 -0.0289
  872MOL0     O17593   8.874   2.062   8.285  0.8521 -0.2068  0.8121
  872MOL0     C17594   8.948   1.948   8.319 -0.4640  0.9698  0.1592
  872MOL0     C17595   9.065   2.014   8.391 -0.0480  0.4995  0.2047
  872MOL0     C17596   9.146   2.110   8.297 -0.0369  0.8869 -0.0354
  872MOL0     C17597   9.258   2.184   8.375 -0.2576  0.9097 -0.1196
  872MOL0     C17598   9.338   2.263   8.265  0.1393  0.8048 -0.3618
  872MOL0     C17599   9.269   2.390   8.222 -0.7184 -0.4748 -0.1585
  872MOL0     C17600   9.344   2.448   8.109  0.8023  0.2456  0.7493
  872MOL0     C17601   9.442   2.550   8.160 -0.1218  1.1283 -0.0102
  872MOL0     N17602   9.520   2.610   8.051  0.5874  0.4019 -0.4355
  872MOL0     C17603   9.546   2.569   7.926  0.8047 -0.0161  0.2982
  872MOL0     C17604   9.584   2.672   7.852  0.0696 -0.3886 -0.7788
  872MOL0     C17605   9.642   2.675   7.713  0.1316  0.4978 -0.5272
  872MOL0     C17606   9.764   2.586   7.688  0.1181  0.8848  0.7334
  872MOL0     C17607   9.886   2.617   7.772  0.3234  1.0556  0.5671
  872MOL0     C17608  10.013   2.531   7.743  0.1241 -0.4871 -1.0219
  872MOL0     O17609  10.104   2.544   7.858  0.5926  0.0239  0.1810
  872MOL0     C17610  10.237   2.516   7.829  0.6654 -0.5801 -0.2932
  872MOL0     C17611  10.295   2.483   7.708 -0.6316 -0.1059 -1.0380
  872MOL0     C17612  10.434   2.473   7.690  0.4308  0.6768  0.2469
  872MOL0     C17613  10.516   2.478   7.810 -0.7257 -0.4543 -0.3152
  872MOL0     C17614  10.662   2.466   7.805  0.7817 -0.1549 -0.2741
  872MOL0     O17615  10.734   2.464   7.923 -0.3151 -0.5539  0.0485
  872MOL0     C17616  10.871   2.477   7.933  0.4390 -0.1884 -0.9966
  872MOL0     C17617  10.956   2.533   7.828  0.0183  1.0994  0.0491
  872MOL0     C17618  11.091   2.562   7.848  0.7777  0.5833  0.9766
  872MOL0     C17619  11.143   2.544   7.979 -0.5264 -0.1066  0.6420
  872MOL0     O17620  11.269   2.592   8.006  0.4404  0.3002 -0.4769
  872MOL0     C17621  11.367   2.545   7.918  0.1808 -0.9212  0.8905
  872MOL0     C17622  11.503   2.552   7.988  0.3065  1.3485  0.0754
  872MOL0     C17623  11.567   2.693   7.967  0.4194  0.0016  0.5405
  872MOL0     C17624  11.696   2.687   8.047  0.2701  0.0604  0.2496
  872MOL0     C17625  11.782   2.819   8.029 -0.0911 -0.7272  0.2062
  872MOL0     C17626  11.857   2.839   7.896  0.2630  0.2780  0.1225
  872MOL0     C17627  11.907   2.700   7.837 -0.4387  0.3496  0.1586
  872MOL0     C17628  12.012   2.728   7.731  0.1809 -0.1019 -0.0102
  872MOL0    Cl17629  12.156   2.797   7.807  0.1273 -0.1952 -0.2857
  872MOL0     C17630  11.067   2.487   8.076  0.1143 -0.4260  0.2165
  872MOL0     C17631  10.940   2.449   8.055  0.1712  0.2383  0.5741
  872MOL0     O17632  10.710   2.453   7.695  0.2346  0.4188  0.4388
  872MOL0     C17633  10.455   2.509   7.936  0.2894  0.5389  0.6733
  872MOL0     C17634  10.310   2.517   7.944  0.6146 -0.2118  0.0717
  872MOL0     N17635   9.558   2.788   7.927  0.6988 -0.0449 -0.0801
  872MOL0     N17636   9.531   2.748   8.053 -0.0873  0.3440  0.2585
  872MOL0     C17637   8.742   1.922   8.136 -0.3773 -1.2513  0.3699
  872MOL0     C17638   8.649   1.914   8.036 -0.5818 -0.0243  0.2751
  872MOL0     C17639   8.408   1.922   7.688 -0.3875 -0.6832 -0.0660
  872MOL0     C17640   8.327   2.028   7.654 -0.0146 -0.8162 -1.0520
  872MOL0     C17641   8.224   2.021   7.564 -0.1421  0.1565 -0.8980
  872MOL0     C17642   8.188   1.895   7.516  0.4510 -1.1180 -0.2815
  872MOL0     O17643   8.089   1.876   7.414 -0.3557 -0.0370 -0.1542
  872MOL0     C17644   8.053   1.996   7.345 -0.3733  0.0943  0.2054
  872MOL0     C17645   7.928   2.050   7.403  0.1922  0.7384 -0.0962
  872MOL0     C17646   7.799   1.970   7.371  0.0481 -0.2090  0.0607
  872MOL0     C17647   7.781   1.830   7.440 -0.0579 -0.4598 -0.0377
  872MOL0     C17648   7.646   1.771   7.418  0.4790  0.0326  0.2543
  872MOL0     C17649   7.535   1.738   7.386 -0.2211 -0.6236  0.3584
  872MOL0     C17650   8.265   1.787   7.552  0.4840  0.3130  0.0382
  872MOL0     C17651   8.376   1.793   7.634 -0.3551 -0.1992 -0.1524
  872MOL0     C17652   8.459   1.671   7.662  0.3716  0.0819  0.6103
  872MOL0     H17653   8.550   2.239   8.022 -1.3919 -0.2102  0.7129
  872MOL0     H17654   8.711   2.258   8.198 -1.0948  0.1106  0.9194
  872MOL0     H17655   8.890   1.879   8.381  1.3387 -0.2881  0.5105
  872MOL0     H17656   8.993   1.903   8.230  2.5437 -0.0772  2.0738
  872MOL0     H17657   9.132   1.932   8.417 -0.7292  0.0595  0.5972
  872MOL0     H17658   9.020   2.061   8.479 -0.9203 -1.9061  1.1257
  872MOL0     H17659   9.083   2.181   8.242 -0.7468 -0.8825 -1.6359
  872MOL0     H17660   9.195   2.050   8.221  1.8127 -0.9564  2.4658
  872MOL0     H17661   9.210   2.242   8.454 -3.7456 -2.0189  0.1637
  872MOL0     H17662   9.321   2.112   8.427 -1.1762  0.6969  0.7260
  872MOL0     H17663   9.432   2.292   8.312 -0.6199  0.1775  1.6476
  872MOL0     H17664   9.358   2.198   8.180  0.8748  1.3948 -0.6567
  872MOL0     H17665   9.166   2.377   8.186 -0.2495  1.5709 -2.5820
  872MOL0     H17666   9.264   2.457   8.308  3.4401 -1.5214  1.1498
  872MOL0     H17667   9.287   2.502   8.032  0.4751 -1.2227 -0.0910
  872MOL0     H17668   9.401   2.370   8.057 -0.4582 -1.3630  1.6929
  872MOL0     H17669   9.385   2.632   8.206  1.0493  1.1989  1.3972
  872MOL0     H17670   9.492   2.505   8.246 -3.5838 -0.6928  1.2378
  872MOL0     H17671   9.538   2.464   7.902 -1.6923  0.1424  0.1548
  872MOL0     H17672   9.557   2.641   7.654  0.0765  1.5830 -1.1012
  872MOL0     H17673   9.670   2.779   7.693  1.4369  0.7031  1.8870
  872MOL0     H17674   9.735   2.481   7.704 -1.5946  1.1863 -0.1443
  872MOL0     H17675   9.785   2.579   7.581 -1.4697  3.1704  0.2125
  872MOL0     H17676   9.856   2.585   7.873 -2.0514 -2.8556 -1.1643
  872MOL0     H17677   9.911   2.724   7.774  0.4827  1.0189  0.5704
  872MOL0     H17678  10.064   2.571   7.655  1.9138  1.9117  0.9204
  872MOL0     H17679   9.979   2.429   7.723 -1.2168 -0.0736 -0.9549
  872MOL0     H17680  10.238   2.471   7.616  0.8867 -1.7401 -1.8375
  872MOL0     H17681  10.476   2.439   7.596  1.8393 -1.3559  1.5320
  872MOL0     H17682  10.918   2.555   7.729  1.8135 -1.5304 -1.3440
  872MOL0     H17683  11.145   2.607   7.765  1.0698  0.4765  1.1086
  872MOL0     H17684  11.343   2.442   7.892  2.6907 -1.6672  1.2790
  872MOL0     H17685  11.367   2.606   7.827 -1.5215 -1.9263  0.1586
  872MOL0     H17686  11.502   2.534   8.096  0.2479  3.2223  0.4203
  872MOL0     H17687  11.571   2.478   7.945 -1.9010 -0.4082 -0.5852
  872MOL0     H17688  11.593   2.708   7.862  1.0853 -0.6560  0.5964
  872MOL0     H17689  11.498   2.773   7.996 -2.4445 -1.6901 -1.1893
  872MOL0     H17690  11.747   2.593   8.022 -0.6877  0.1778 -2.5598
  872MOL0     H17691  11.671   2.663   8.150 -0.8621 -3.6789 -0.7599
  872MOL0     H17692  11.862   2.822   8.104 -0.2216  0.9930  0.3195
  872MOL0     H17693  11.714   2.904   8.031  2.2139  1.4678 -3.5747
  872MOL0     H17694  11.793   2.884   7.820  1.7287  1.3450 -0.5365
  872MOL0     H17695  11.940   2.910   7.909 -0.1788  0.4146  2.6661
  872MOL0     H17696  11.835   2.629   7.794  1.7146 -2.1264  0.4269
  872MOL0     H17697  11.963   2.649   7.915 -0.0735  1.9341  0.9850
  872MOL0     H17698  12.039   2.635   7.680  0.3909 -0.1880  0.2538
  872MOL0     H17699  11.968   2.800   7.661 -1.2680  0.5188  1.4944
  872MOL0     H17700  11.113   2.461   8.170  1.5994 -0.7762 -0.5766
  872MOL0     H17701  10.876   2.392   8.122  0.0913 -1.3696 -0.7923
  872MOL0     H17702  10.518   2.533   8.021  2.2683 -1.0504 -0.2520
  872MOL0     H17703  10.260   2.537   8.038  0.4592 -0.4533  0.0419
  872MOL0     H17704   8.804   1.840   8.172  2.0292  0.0388 -0.5678
  872MOL0     H17705   8.626   1.817   7.993 -0.4637  0.8207 -1.8269
  872MOL0     H17706   8.342   2.125   7.701  0.8109 -0.1259 -2.6720
  872MOL0     H17707   8.177   2.117   7.545  0.5729  1.0194  1.3619
  872MOL0     H17708   8.038   1.984   7.238  2.5271  3.0661 -0.7260
  872MOL0     H17709   8.129   2.075   7.350 -0.6482  0.6223 -2.3727
  872MOL0     H17710   7.912   2.155   7.374 -1.7375  0.3655 -0.5660
  872MOL0     H17711   7.948   2.050   7.511  1.0433 -0.0692 -0.2470
  872MOL0     H17712   7.814   1.957   7.264  1.1347  1.2016 -0.0052
  872MOL0     H17713   7.711   2.035   7.380 -0.9281 -1.1345 -2.1257
  872MOL0     H17714   7.854   1.754   7.410  0.0307 -1.1454  1.7893
  872MOL0     H17715   7.788   1.847   7.548  0.2011  4.3509 -0.6296
  872MOL0     H17716   7.433   1.717   7.360 -0.3173  1.5570 -1.3537
  872MOL0     H17717   8.245   1.692   7.504  2.6133  0.2767 -0.8716
  872MOL0     H17718   8.514   1.680   7.756  1.0544  2.6671  0.0397
  872MOL0     H17719   8.381   1.594   7.650 -0.9974  1.7082 -1.7423
  872MOL0     H17720   8.524   1.657   7.576 -0.3054 -0.1072  0.1176
  873MOL0     O17721   4.966   7.689   1.576  0.0720  0.8906  0.7971
  873MOL0     C17722   4.902   7.786   1.611  0.2283 -0.7980 -0.0617
  873MOL0     O17723   4.929   7.916   1.573 -0.0642 -0.3272 -0.4774
  873MOL0     C17724   5.039   7.918   1.497 -0.1667 -0.1893 -0.1357
  873MOL0     C17725   5.022   7.948   1.363 -0.3114  0.3879 -0.0102
  873MOL0     C17726   5.135   7.951   1.275  0.0751 -0.8432 -0.1224
  873MOL0     C17727   5.267   7.954   1.334 -0.8511 -0.9203  0.6853
  873MOL0     O17728   5.383   7.969   1.255  0.2027  0.3740 -0.0793
  873MOL0     C17729   5.404   8.104   1.222 -0.4113  0.2869  0.3357
  873MOL0     C17730   5.557   8.132   1.200  0.7180 -0.7268  1.0306
  873MOL0     C17731   5.653   8.103   1.321  0.4943  0.4751  0.0622
  873MOL0     C17732   5.798   8.125   1.285 -1.1844  0.1083 -0.6553
  873MOL0     C17733   5.838   8.267   1.255  0.4540  0.3034  0.2969
  873MOL0     C17734   5.964   8.284   1.171  0.3046  0.1937  0.0676
  873MOL0     C17735   6.084   8.217   1.218 -0.1219 -0.3842 -0.9959
  873MOL0     C17736   6.222   8.254   1.150  0.2325 -0.7882  0.0113
  873MOL0     N17737   6.310   8.136   1.149 -0.5117 -0.4799 -0.1821
  873MOL0     C17738   6.417   8.116   1.235  0.7613  0.5393  0.4267
  873MOL0     C17739   6.450   7.983   1.214 -0.5585 -0.4263 -0.3884
  873MOL0     C17740   6.544   7.886   1.288 -0.7283  0.8402  0.7573
  873MOL0     C17741   6.583   7.933   1.429 -0.4270  0.9197  1.0851
  873MOL0     C17742   6.713   8.011   1.443 -0.1761 -0.2746  0.3573
  873MOL0     C17743   6.838   7.936   1.389 -0.4044 -0.3660  0.3907
  873MOL0     O17744   6.831   7.799   1.402  0.4992 -0.7745  0.3689
  873MOL0     C17745   6.948   7.717   1.394  0.3849 -0.3766 -0.0724
  873MOL0     C17746   6.921   7.579   1.428 -1.2482 -0.6863 -0.2417
  873MOL0     C17747   7.035   7.496   1.429  0.2305  0.4858  0.0221
  873MOL0     C17748   7.167   7.534   1.399  0.0434 -0.7838  0.7251
  873MOL0     C17749   7.281   7.448   1.417  0.3462  1.1442  0.3706
  873MOL0     O17750   7.242   7.319   1.437  0.3445  0.3078  0.4926
  873MOL0     C17751   7.338   7.227   1.465  0.0247  0.8447  0.3241
  873MOL0     C17752   7.465   7.218   1.404 -0.4528  0.6958 -0.7040
  873MOL0     C17753   7.551   7.114   1.435  0.2970 -0.5020  0.0838
  873MOL0     C17754   7.524   7.010   1.516  0.2284 -0.1497 -0.3549
  873MOL0     O17755   7.620   6.909   1.533 -0.1681  0.0468  0.6053
  873MOL0     C17756   7.617   6.809   1.634  1.0968 -0.4080 -0.2089
  873MOL0     C17757   7.737   6.719   1.614  0.4210 -0.3144 -0.3026
  873MOL0     C17758   7.868   6.804   1.619 -0.8308 -0.2928 -0.3288
  873MOL0     C17759   7.993   6.710   1.617  0.3842 -0.0316 -0.9590
  873MOL0     C17760   8.127   6.779   1.625 -0.6061 -0.6594 -0.0020
  873MOL0     C17761   8.230   6.680   1.576 -0.4046 -0.8233  0.1663
  873MOL0     C17762   8.375   6.728   1.600  1.3384 -0.5392 -0.5103
  873MOL0     C17763   8.469   6.614   1.563  0.4063  0.3236 -0.3362
  873MOL0    Cl17764   8.601   6.604   1.691 -0.1536 -0.1323  0.0156
  873MOL0     C17765   7.397   7.016   1.577  0.8004 -0.4150 -0.6478
  873MOL0     C17766   7.305   7.123   1.554  0.0603 -1.1260  0.6393
  873MOL0     O17767   7.390   7.496   1.425 -0.0591 -0.1672 -0.0392
  873MOL0     C17768   7.184   7.665   1.365  0.5407  1.0419 -0.0879
  873MOL0     C17769   7.075   7.758   1.369 -0.0190  0.0813  0.1999
  873MOL0     N17770   6.366   7.933   1.111  0.7225  0.3538 -0.2854
  873MOL0     N17771   6.288   8.028   1.074 -0.8337  0.3368 -0.1170
  873MOL0     C17772   5.287   7.928   1.465  0.0449 -0.4248 -0.2217
  873MOL0     C17773   5.170   7.911   1.547 -0.6710  0.5670  0.3798
  873MOL0     C17774   4.761   7.765   1.672 -0.0245 -0.4856  0.7613
  873MOL0     C17775   4.747   7.643   1.744  0.7677  0.0495 -0.1245
  873MOL0     C17776   4.621   7.602   1.779  0.2640 -0.5940  0.9071
  873MOL0     C17777   4.516   7.690   1.764  0.6809  0.4925 -0.1069
  873MOL0     O17778   4.396   7.641   1.818 -0.1739  0.4024 -0.4372
  873MOL0     C17779   4.275   7.725   1.833 -0.5510 -0.3410  0.4394
  873MOL0     C17780   4.179   7.669   1.939  0.4719  0.6286  0.7847
  873MOL0     C17781   4.250   7.631   2.070 -0.4945 -0.9643  0.1889
  873MOL0     C17782   4.149   7.574   2.171 -0.6623  0.0830  0.2478
  873MOL0     C17783   4.110   7.443   2.128 -0.1719 -0.0977  0.3796
  873MOL0     C17784   4.104   7.330   2.088  0.2531  0.1369  0.3479
  873MOL0     C17785   4.529   7.804   1.695  1.3124  0.0768  0.0926
  873MOL0     C17786   4.647   7.842   1.633 -0.1478  0.3468 -0.2009
  873MOL0     C17787   4.640   7.968   1.557  0.0074 -0.4097 -0.4780
  873MOL0     H17788   4.921   7.958   1.326 -0.1922  0.0903 -0.4369
  873MOL0     H17789   5.138   7.967   1.168 -0.7999  1.6454  0.1658
  873MOL0     H17790   5.346   8.128   1.132  1.8658  3.1207 -0.5286
  873MOL0     H17791   5.376   8.177   1.300 -1.7030 -1.0298  1.1501
  873MOL0     H17792   5.573   8.234   1.162 -0.8903 -1.0313 -0.6345
  873MOL0     H17793   5.579   8.069   1.114 -0.2091 -0.1145  0.3145
  873MOL0     H17794   5.649   8.002   1.362 -1.0866  0.3567 -0.3543
  873MOL0     H17795   5.623   8.173   1.399 -2.4748  0.0996 -0.6506
  873MOL0     H17796   5.870   8.076   1.350  0.8073 -1.3573 -3.7346
  873MOL0     H17797   5.797   8.060   1.197 -0.2298  2.2075 -2.2993
  873MOL0     H17798   5.762   8.312   1.190  2.4480 -0.5495 -2.8097
  873MOL0     H17799   5.848   8.312   1.355 -1.5935  1.8710 -0.1235
  873MOL0     H17800   5.942   8.247   1.071  0.4609 -1.5980  0.6549
  873MOL0     H17801   5.981   8.392   1.174 -0.2674  0.2835  0.2935
  873MOL0     H17802   6.067   8.112   1.191 -2.1533  0.2746 -2.5235
  873MOL0     H17803   6.084   8.224   1.327 -2.0210 -0.6065 -0.9454
  873MOL0     H17804   6.191   8.279   1.048 -2.1332  1.3150  1.1434
  873MOL0     H17805   6.267   8.342   1.198 -1.1859 -0.9714  1.7635
  873MOL0     H17806   6.465   8.171   1.316  1.7609 -0.0582  0.2639
  873MOL0     H17807   6.489   7.793   1.306  0.8567 -0.6786 -1.5678
  873MOL0     H17808   6.631   7.857   1.229  0.9516 -1.7895  4.1876
  873MOL0     H17809   6.504   7.987   1.482  0.0875  0.5083  2.2979
  873MOL0     H17810   6.585   7.844   1.491 -0.8489 -0.2071 -0.4652
  873MOL0     H17811   6.727   8.020   1.551 -1.8680 -0.0519  0.5787
  873MOL0     H17812   6.705   8.115   1.410  0.7444 -0.4031 -0.3082
  873MOL0     H17813   6.933   7.978   1.424  0.0670 -0.4474 -0.7385
  873MOL0     H17814   6.853   7.944   1.281  2.0499 -1.4010  0.6008
  873MOL0     H17815   6.826   7.535   1.454 -0.2146 -2.7425  0.2657
  873MOL0     H17816   7.008   7.394   1.454 -2.8474  0.8142 -1.4973
  873MOL0     H17817   7.486   7.293   1.329 -1.5607  1.6594 -0.0819
  873MOL0     H17818   7.647   7.114   1.384  0.4319  1.8374  0.2209
  873MOL0     H17819   7.626   6.847   1.736  2.0440  0.8699 -0.7298
  873MOL0     H17820   7.529   6.744   1.636  0.7423 -0.0889  4.1680
  873MOL0     H17821   7.742   6.642   1.691 -3.4848  0.3283  0.7758
  873MOL0     H17822   7.727   6.664   1.520  2.7924 -1.4877  0.0645
  873MOL0     H17823   7.875   6.879   1.540  0.8344 -0.5050 -0.4308
  873MOL0     H17824   7.864   6.855   1.716  0.5448 -1.8551  0.6079
  873MOL0     H17825   7.984   6.654   1.524 -1.7664 -1.6675  0.1203
  873MOL0     H17826   7.996   6.644   1.705  1.0497 -1.2481 -1.8584
  873MOL0     H17827   8.147   6.808   1.728  2.1108  2.1100 -1.1829
  873MOL0     H17828   8.132   6.874   1.571 -1.1365 -0.7238 -0.1798
  873MOL0     H17829   8.233   6.581   1.624  2.9732 -0.8976  0.0644
  873MOL0     H17830   8.225   6.680   1.467  2.4566  0.7506 -0.0758
  873MOL0     H17831   8.392   6.746   1.706 -0.1300  0.5828 -0.4371
  873MOL0     H17832   8.403   6.816   1.542 -2.2136 -0.1963 -1.9636
  873MOL0     H17833   8.416   6.520   1.548 -1.8072  1.7147 -2.0277
  873MOL0     H17834   8.511   6.629   1.463 -0.2158 -2.5170 -1.1014
  873MOL0     H17835   7.376   6.934   1.645 -0.7521  0.1027 -0.4745
  873MOL0     H17836   7.207   7.127   1.599 -0.5582 -1.5953 -0.6023
  873MOL0     H17837   7.280   7.703   1.332 -0.1605  2.0961 -0.9843
  873MOL0     H17838   7.095   7.861   1.339 -0.1220  0.4733  1.4040
  873MOL0     H17839   5.386   7.918   1.508 -0.3153  0.4985  0.8796
  873MOL0     H17840   5.189   7.884   1.650 -2.5043 -2.5606  0.0041
  873MOL0     H17841   4.837   7.583   1.743  2.1453  2.0063 -1.1127
  873MOL0     H17842   4.604   7.503   1.821 -5.5154 -0.6468 -0.7440
  873MOL0     H17843   4.223   7.745   1.739  1.9534  0.8140 -0.7976
  873MOL0     H17844   4.313   7.822   1.865 -0.4116 -0.5615  0.9543
  873MOL0     H17845   4.126   7.587   1.889 -0.8266  1.7511  0.2312
  873MOL0     H17846   4.110   7.750   1.965 -2.6190 -2.2357  2.1385
  873MOL0     H17847   4.285   7.725   2.114 -3.6510  0.1127  0.6205
  873MOL0     H17848   4.335   7.567   2.045  0.6628  0.3972  0.4740
  873MOL0     H17849   4.199   7.549   2.266 -1.1949 -0.9309  0.2742
  873MOL0     H17850   4.066   7.643   2.187  0.5939  1.2129  2.3084
  873MOL0     H17851   4.108   7.230   2.050  1.3609 -0.0614  0.9571
  873MOL0     H17852   4.440   7.863   1.682  0.0349 -1.8881 -0.5571
  873MOL0     H17853   4.634   8.055   1.623  0.1193  1.5998 -2.9811
  873MOL0     H17854   4.726   7.987   1.492  1.7642  2.8239  2.4830
  873MOL0     H17855   4.548   7.961   1.498 -2.0726  1.4293  2.2691
  874MOL0     O17856   5.396   8.619   6.166 -0.5931  0.3604  0.1431
  874MOL0     C17857   5.347   8.589   6.273  0.2819 -0.3898 -0.7397
  874MOL0     O17858   5.418   8.578   6.390  0.4905  0.0969  0.5109
  874MOL0     C17859   5.547   8.590   6.392 -0.6054 -0.0202  0.2964
  874MOL0     C17860   5.631   8.474   6.414  0.8593  1.4546  0.3542
  874MOL0     C17861   5.773   8.484   6.389 -0.2178 -0.7796 -0.8283
  874MOL0     C17862   5.830   8.611   6.383  0.3097 -0.9477 -0.2273
  874MOL0     O17863   5.967   8.614   6.372  1.0693  0.2495  0.2669
  874MOL0     C17864   6.023   8.559   6.252 -0.9108  0.7594 -0.2409
  874MOL0     C17865   6.176   8.561   6.244 -0.3772  0.0405 -0.1678
  874MOL0     C17866   6.232   8.706   6.249  0.0845  0.1214  0.2169
  874MOL0     C17867   6.173   8.819   6.173  0.7095 -0.7661  0.1550
  874MOL0     C17868   6.166   8.808   6.014 -0.2134 -0.0861 -0.0953
  874MOL0     C17869   6.083   8.923   5.944 -0.0035 -0.4657  0.2699
  874MOL0     C17870   6.090   8.917   5.795  0.3667  0.4593  0.0316
  874MOL0     C17871   6.227   8.937   5.738 -0.4276 -0.1947  0.2086
  874MOL0     N17872   6.230   8.975   5.591  0.3627 -0.0151  0.4614
  874MOL0     C17873   6.316   8.938   5.497 -0.1960  0.7316  0.6301
  874MOL0     C17874   6.304   9.027   5.393  0.3733  1.3527  0.0545
  874MOL0     C17875   6.399   9.022   5.282 -0.2449 -0.5941  0.9113
  874MOL0     C17876   6.532   9.081   5.319 -0.5379 -0.1933 -0.3214
  874MOL0     C17877   6.518   9.229   5.362  1.2738  0.5648 -0.1002
  874MOL0     C17878   6.639   9.318   5.334 -0.4011 -0.2538  0.9144
  874MOL0     O17879   6.752   9.278   5.413  0.0286 -0.3251  0.0330
  874MOL0     C17880   6.769   9.309   5.547  0.1784 -0.7041  0.6399
  874MOL0     C17881   6.690   9.401   5.612  0.3136 -0.5131 -0.5936
  874MOL0     C17882   6.714   9.440   5.742  0.3838 -0.1149 -0.0351
  874MOL0     C17883   6.824   9.383   5.812 -0.5858 -0.3341 -0.2789
  874MOL0     C17884   6.840   9.394   5.968  0.2024  0.9763  0.5374
  874MOL0     O17885   6.969   9.399   6.021 -0.3661 -0.4660  0.2761
  874MOL0     C17886   6.981   9.378   6.150 -0.2883 -0.0183 -0.7867
  874MOL0     C17887   6.926   9.278   6.231 -0.1590 -0.3047  0.0549
  874MOL0     C17888   6.947   9.273   6.371 -0.5904 -0.4358  1.1017
  874MOL0     C17889   7.026   9.375   6.426 -0.5097  0.5848 -0.1546
  874MOL0     O17890   7.031   9.383   6.567  0.5273  0.3620  0.1803
  874MOL0     C17891   7.105   9.273   6.633 -0.3250  0.6806  0.1654
  874MOL0     C17892   7.253   9.301   6.652  0.4499 -0.5048  0.3043
  874MOL0     C17893   7.332   9.259   6.530 -0.1287 -0.4101  0.0439
  874MOL0     C17894   7.477   9.323   6.544  0.0836  0.7811 -1.5951
  874MOL0     C17895   7.562   9.314   6.417  0.6579  0.2356 -0.5090
  874MOL0     C17896   7.674   9.415   6.430 -0.2501  0.2893  0.5537
  874MOL0     C17897   7.767   9.412   6.312  0.0559 -1.0167  0.8895
  874MOL0     C17898   7.882   9.514   6.314 -0.9739  0.4930  0.2836
  874MOL0    Cl17899   7.971   9.491   6.461  0.1019 -0.4934 -0.0142
  874MOL0     C17900   7.091   9.478   6.349  0.0114  0.3099  0.3814
  874MOL0     C17901   7.071   9.469   6.209 -0.2136  1.0395  0.1555
  874MOL0     O17902   6.735   9.396   6.032 -0.0923  0.2179  0.0518
  874MOL0     C17903   6.910   9.297   5.739 -0.7210  0.0948 -0.5075
  874MOL0     C17904   6.883   9.261   5.608 -0.0716  0.4481 -0.2306
  874MOL0     N17905   6.203   9.115   5.428  0.0628 -0.7364  0.3563
  874MOL0     N17906   6.157   9.087   5.545  0.4640  0.2984 -0.6859
  874MOL0     C17907   5.748   8.722   6.381 -0.5591  0.0367  0.2672
  874MOL0     C17908   5.609   8.709   6.378  0.6078 -0.0071  0.1639
  874MOL0     C17909   5.206   8.536   6.273 -1.1949 -0.3201  0.4875
  874MOL0     C17910   5.134   8.550   6.150  0.6571  0.5023  0.2412
  874MOL0     C17911   4.998   8.516   6.135  0.2214  0.1969  0.5765
  874MOL0     C17912   4.933   8.462   6.243  0.1162 -0.9959 -0.4672
  874MOL0     O17913   4.798   8.447   6.228  0.1868  0.4789  0.5339
  874MOL0     C17914   4.719   8.382   6.330  0.7033 -0.3311 -0.7099
  874MOL0     C17915   4.572   8.376   6.289 -0.4417  0.6838 -0.2586
  874MOL0     C17916   4.512   8.520   6.287 -0.5675  0.3107  0.7724
  874MOL0     C17917   4.363   8.510   6.274  0.5320  0.0997 -0.6312
  874MOL0     C17918   4.315   8.652   6.262 -0.8528  0.5068  0.1696
  874MOL0     C17919   4.300   8.771   6.237  0.3436  0.5055 -0.2167
  874MOL0     C17920   5.001   8.434   6.358  0.0007 -0.1965 -0.2831
  874MOL0     C17921   5.133   8.476   6.380 -1.3522 -0.0267 -0.7353
  874MOL0     C17922   5.185   8.476   6.519  0.0918  0.1226  0.1337
  874MOL0     H17923   5.581   8.379   6.430  1.7263  0.5212 -1.9774
  874MOL0     H17924   5.844   8.402   6.385  0.8012  0.1044 -1.2984
  874MOL0     H17925   5.992   8.457   6.228  0.1073  0.0874  1.1959
  874MOL0     H17926   5.992   8.617   6.164  0.6580  2.2372  0.1235
  874MOL0     H17927   6.198   8.513   6.148 -0.2890 -0.2103 -0.0244
  874MOL0     H17928   6.217   8.502   6.327 -4.8687  1.1311  3.2617
  874MOL0     H17929   6.339   8.704   6.225  1.2215  1.2660  4.3012
  874MOL0     H17930   6.223   8.739   6.353 -1.8476 -1.2680  0.5408
  874MOL0     H17931   6.075   8.837   6.219  0.5617 -0.2473 -0.3543
  874MOL0     H17932   6.231   8.909   6.195  1.2456 -0.3676 -2.5328
  874MOL0     H17933   6.269   8.800   5.980  0.2676  1.2200  0.9730
  874MOL0     H17934   6.114   8.720   5.974 -3.2421  0.9249  1.2736
  874MOL0     H17935   5.978   8.920   5.975 -0.0134  2.2543  0.8094
  874MOL0     H17936   6.126   9.017   5.982  1.4099 -1.2655  0.7086
  874MOL0     H17937   6.023   8.992   5.752 -0.4082 -0.1571  0.1345
  874MOL0     H17938   6.052   8.818   5.765 -1.9584  1.8293 -1.8969
  874MOL0     H17939   6.288   9.014   5.786 -0.0573  0.2083 -0.8689
  874MOL0     H17940   6.276   8.840   5.752  1.3840  0.3962 -1.5274
  874MOL0     H17941   6.397   8.866   5.505  1.6903  2.7899  1.0892
  874MOL0     H17942   6.406   8.921   5.242 -1.1716 -0.9097  1.4999
  874MOL0     H17943   6.353   9.079   5.200 -1.9947 -1.4102  1.2631
  874MOL0     H17944   6.577   9.019   5.397  1.0209  1.6739  0.3744
  874MOL0     H17945   6.592   9.083   5.227  2.3312 -0.3420  1.4239
  874MOL0     H17946   6.494   9.231   5.469 -1.2841 -0.1691 -0.6059
  874MOL0     H17947   6.431   9.278   5.318 -1.6818 -1.7534  2.6830
  874MOL0     H17948   6.615   9.422   5.360 -2.9740 -0.7790  0.8811
  874MOL0     H17949   6.653   9.320   5.225  0.7035  0.7471  1.0425
  874MOL0     H17950   6.609   9.451   5.561  1.1616  2.0718  0.4212
  874MOL0     H17951   6.641   9.502   5.793 -0.2856  0.8434 -2.0516
  874MOL0     H17952   6.872   9.200   6.179 -1.5924  0.0596  0.9610
  874MOL0     H17953   6.901   9.193   6.429  1.1026 -0.3121  2.6670
  874MOL0     H17954   7.064   9.263   6.734 -1.2076  3.0224  0.1106
  874MOL0     H17955   7.097   9.174   6.589  0.2101 -0.0146  1.5787
  874MOL0     H17956   7.271   9.406   6.677  2.8529 -1.7210  4.9067
  874MOL0     H17957   7.280   9.242   6.740  0.4895 -1.1303 -0.1221
  874MOL0     H17958   7.339   9.150   6.524 -3.3735 -0.7708  0.6634
  874MOL0     H17959   7.290   9.299   6.437  0.7949  0.9935  0.1962
  874MOL0     H17960   7.532   9.277   6.627 -3.1493  0.9420  0.8341
  874MOL0     H17961   7.454   9.426   6.573 -2.5486  0.7567 -3.2372
  874MOL0     H17962   7.499   9.340   6.331 -1.5906 -1.0372  0.6725
  874MOL0     H17963   7.610   9.217   6.398  0.6348  0.3665 -1.2846
  874MOL0     H17964   7.637   9.518   6.432  0.0163  0.4009 -0.0778
  874MOL0     H17965   7.724   9.403   6.526 -0.4020  0.8429  0.7091
  874MOL0     H17966   7.717   9.438   6.218  0.4295 -1.0121  0.6902
  874MOL0     H17967   7.813   9.314   6.299  0.1851 -0.8053 -0.4171
  874MOL0     H17968   7.950   9.510   6.229  1.8377 -0.7721  2.4481
  874MOL0     H17969   7.847   9.617   6.322 -1.6015  0.4436 -1.3169
  874MOL0     H17970   7.148   9.559   6.392 -1.1716  1.3904 -0.0133
  874MOL0     H17971   7.110   9.550   6.148  0.3375  3.0353  2.9630
  874MOL0     H17972   6.993   9.259   5.798 -0.8784  2.2400  1.2066
  874MOL0     H17973   6.942   9.189   5.553  1.0841  1.7411 -0.7327
  874MOL0     H17974   5.802   8.816   6.382 -0.4442 -0.0289  1.2123
  874MOL0     H17975   5.550   8.796   6.351 -0.9838 -1.4014 -1.0568
  874MOL0     H17976   5.180   8.588   6.060 -0.4616  0.6089 -0.3025
  874MOL0     H17977   4.951   8.514   6.037  0.6029 -2.9410  0.3394
  874MOL0     H17978   4.734   8.444   6.419 -0.2558 -0.9107 -0.1233
  874MOL0     H17979   4.755   8.280   6.351 -1.4656 -1.2388 -1.1378
  874MOL0     H17980   4.515   8.327   6.368 -2.6902  1.5619 -1.2688
  874MOL0     H17981   4.564   8.318   6.196 -0.3753  0.0341  0.1322
  874MOL0     H17982   4.549   8.574   6.198 -0.2314 -1.9310 -0.5207
  874MOL0     H17983   4.530   8.571   6.382  0.3386  1.3807  0.0527
  874MOL0     H17984   4.319   8.460   6.188  0.6422  2.6096 -2.2712
  874MOL0     H17985   4.316   8.479   6.367  0.2353  3.7418  0.6025
  874MOL0     H17986   4.294   8.873   6.205 -0.4817  0.1684 -1.1891
  874MOL0     H17987   4.947   8.385   6.439  0.0161 -1.1633 -0.8491
  874MOL0     H17988   5.230   8.570   6.552  1.2263 -0.1234 -0.6650
  874MOL0     H17989   5.102   8.441   6.581 -1.3464 -1.0729 -2.3276
  874MOL0     H17990   5.260   8.398   6.534  1.4043  1.6655  2.1570
  875MOL0     O17991   9.031   4.589   4.841 -0.4976 -0.1579 -0.0933
  875MOL0     C17992   9.072   4.588   4.726  0.3723  0.0301 -0.0714
  875MOL0     O17993   9.053   4.689   4.640 -0.1987  0.1656 -1.0147
  875MOL0     C17994   8.968   4.788   4.687 -0.3635  0.4664  0.2571
  875MOL0     C17995   9.024   4.914   4.711  0.3829 -0.2334 -0.3944
  875MOL0     C17996   8.947   5.017   4.767 -0.9910 -0.0009  0.2469
  875MOL0     C17997   8.811   5.002   4.794  0.3483 -0.4563  0.0201
  875MOL0     O17998   8.737   5.105   4.854 -0.1939  0.0760 -0.2599
  875MOL0     C17999   8.597   5.111   4.812  0.8437 -0.3894 -0.4986
  875MOL0     C18000   8.544   5.257   4.800 -0.1174  0.1390 -0.2888
  875MOL0     C18001   8.389   5.278   4.812 -0.1225 -0.5031 -0.7526
  875MOL0     C18002   8.347   5.422   4.794 -0.0663  0.5416 -0.4041
  875MOL0     C18003   8.208   5.453   4.852 -0.4727 -0.2161  0.1393
  875MOL0     C18004   8.172   5.602   4.850  1.3553  0.0076 -0.3496
  875MOL0     C18005   8.038   5.633   4.925 -1.1617  0.1528  0.7729
  875MOL0     C18006   8.051   5.619   5.080 -0.6707 -0.4843 -0.3545
  875MOL0     N18007   8.152   5.712   5.147 -0.6186 -0.2135 -0.0687
  875MOL0     C18008   8.279   5.695   5.197  1.1250 -0.1662  0.4477
  875MOL0     C18009   8.309   5.812   5.264  0.0672  0.4295 -0.3782
  875MOL0     C18010   8.426   5.859   5.332 -0.2541 -0.1906  1.1690
  875MOL0     C18011   8.439   5.771   5.454  0.1816 -0.6671  0.1852
  875MOL0     C18012   8.580   5.798   5.515  0.4475  0.8003 -0.9536
  875MOL0     C18013   8.585   5.937   5.575 -0.4168 -0.0162  0.5113
  875MOL0     O18014   8.718   5.960   5.638  0.0976  0.4548  0.8055
  875MOL0     C18015   8.825   6.006   5.567  0.0583  0.6095  0.3979
  875MOL0     C18016   8.935   6.013   5.644  0.4234  0.1110  0.5205
  875MOL0     C18017   9.053   6.060   5.589  0.5129 -0.0053  0.0524
  875MOL0     C18018   9.066   6.099   5.454 -0.2446  0.4112 -0.1299
  875MOL0     C18019   9.192   6.135   5.405 -0.5668  0.2170 -0.0313
  875MOL0     O18020   9.201   6.161   5.272 -0.5725 -0.1838  0.3394
  875MOL0     C18021   9.331   6.201   5.235 -0.1464  0.4045 -0.3258
  875MOL0     C18022   9.361   6.339   5.226  0.0322  0.2809 -0.3881
  875MOL0     C18023   9.494   6.383   5.193  0.2664 -0.2076 -0.9774
  875MOL0     C18024   9.590   6.289   5.169  0.2430  0.8248  0.0191
  875MOL0     O18025   9.721   6.333   5.157 -0.4546  0.2587  1.1118
  875MOL0     C18026   9.794   6.314   5.280 -0.7566 -1.5062  0.3829
  875MOL0     C18027   9.919   6.403   5.276  0.9295  0.4323 -0.3994
  875MOL0     C18028  10.023   6.362   5.177 -0.5739 -0.0411  0.3039
  875MOL0     C18029  10.151   6.447   5.187  0.7743 -0.4132 -0.1162
  875MOL0     C18030  10.269   6.396   5.104 -0.1192  1.2575 -0.1799
  875MOL0     C18031  10.330   6.264   5.157 -0.4562  0.2519  0.7793
  875MOL0     C18032  10.485   6.229   5.107 -0.4109 -0.4301  0.0522
  875MOL0     C18033  10.583   6.322   5.180  0.1418 -0.0586  0.0002
  875MOL0    Cl18034  10.561   6.356   5.354 -0.5641 -0.4772  0.2059
  875MOL0     C18035   9.561   6.154   5.165 -0.3844 -0.2758 -0.3757
  875MOL0     C18036   9.430   6.108   5.200 -0.2019  0.6406 -0.3853
  875MOL0     O18037   9.288   6.135   5.482  0.8236  0.0090  0.1600
  875MOL0     C18038   8.946   6.097   5.377 -0.2888 -0.3667 -0.0562
  875MOL0     C18039   8.826   6.050   5.436  0.2857  0.1101 -0.3808
  875MOL0     N18040   8.200   5.896   5.251 -0.0288  0.2137  0.2518
  875MOL0     N18041   8.118   5.839   5.180 -0.6414 -0.2209 -0.1602
  875MOL0     C18042   8.755   4.874   4.767 -0.0512 -0.8221 -0.8449
  875MOL0     C18043   8.830   4.776   4.703 -0.0682  0.1460  0.8791
  875MOL0     C18044   9.147   4.468   4.679  0.3413 -0.1501  0.5662
  875MOL0     C18045   9.178   4.463   4.544 -0.8500  0.7281  0.6949
  875MOL0     C18046   9.263   4.364   4.490  0.5760  0.2054  0.1966
  875MOL0     C18047   9.302   4.253   4.569  0.1248  0.3519 -0.0593
  875MOL0     O18048   9.372   4.143   4.511  0.1324 -0.9294  0.0991
  875MOL0     C18049   9.374   4.015   4.557  1.0292 -0.1198  0.5081
  875MOL0     C18050   9.228   3.964   4.526 -0.3428 -0.9518 -0.1640
  875MOL0     C18051   9.215   3.913   4.386 -0.9158  0.1359  0.7470
  875MOL0     C18052   9.066   3.891   4.365  0.5479  0.1291 -0.2463
  875MOL0     C18053   9.038   3.843   4.224 -0.7136  0.0456  0.8407
  875MOL0     C18054   9.017   3.821   4.105 -0.2242 -0.6761  0.0774
  875MOL0     C18055   9.268   4.256   4.708  0.3782  0.7206  0.1307
  875MOL0     C18056   9.188   4.360   4.759 -0.7809  0.7593 -0.9119
  875MOL0     C18057   9.150   4.335   4.908  0.1507  0.1571  0.4533
  875MOL0     H18058   9.129   4.921   4.685  1.3778 -4.0414  1.8130
  875MOL0     H18059   8.994   5.114   4.782 -2.0586  0.6407 -0.4142
  875MOL0     H18060   8.579   5.055   4.720 -1.5337  0.2216 -0.4752
  875MOL0     H18061   8.535   5.062   4.888 -0.3567 -1.1215 -1.9108
  875MOL0     H18062   8.577   5.308   4.709 -0.0169  0.7572  0.0830
  875MOL0     H18063   8.596   5.312   4.879  0.3926 -2.3343  1.2064
  875MOL0     H18064   8.362   5.237   4.910 -0.8542  0.5472 -0.4960
  875MOL0     H18065   8.332   5.216   4.742 -2.7380 -2.1454  2.5304
  875MOL0     H18066   8.428   5.486   4.831 -1.1784  1.3162  0.7311
  875MOL0     H18067   8.345   5.449   4.687  1.2687 -1.1190 -0.8845
  875MOL0     H18068   8.133   5.394   4.799 -1.3481 -3.0067  4.0578
  875MOL0     H18069   8.203   5.414   4.953 -1.8057  2.1915  1.0978
  875MOL0     H18070   8.257   5.645   4.903  1.2176  0.7993 -0.7590
  875MOL0     H18071   8.171   5.631   4.745  3.0341 -0.1952 -0.4362
  875MOL0     H18072   7.956   5.571   4.888  0.5332 -2.0819  0.5643
  875MOL0     H18073   8.009   5.735   4.902 -0.1957 -0.1909 -2.3777
  875MOL0     H18074   7.952   5.628   5.127 -0.6903 -3.9582  0.5220
  875MOL0     H18075   8.076   5.515   5.103  2.0035 -1.0366 -4.6419
  875MOL0     H18076   8.337   5.604   5.187 -0.5546 -1.0632 -2.1731
  875MOL0     H18077   8.512   5.857   5.264 -1.2540  0.3286 -0.1605
  875MOL0     H18078   8.418   5.964   5.361  2.4869  0.5794 -0.4276
  875MOL0     H18079   8.361   5.797   5.526  0.6111  0.3370  0.3070
  875MOL0     H18080   8.428   5.668   5.420 -0.6264 -0.6366  0.3468
  875MOL0     H18081   8.657   5.788   5.438  0.2958  0.4314 -1.0565
  875MOL0     H18082   8.599   5.728   5.596 -1.4753 -0.8247 -1.8017
  875MOL0     H18083   8.519   5.932   5.662 -1.4031  3.3188  0.0965
  875MOL0     H18084   8.538   6.006   5.504  1.5208  0.7295 -0.1150
  875MOL0     H18085   8.931   5.987   5.750 -1.6521 -1.9334  0.0257
  875MOL0     H18086   9.132   6.071   5.662  1.5151  2.7304 -1.3114
  875MOL0     H18087   9.284   6.410   5.252  0.0574  0.6118 -1.1637
  875MOL0     H18088   9.504   6.490   5.180  1.3890  0.0520  1.4073
  875MOL0     H18089   9.733   6.347   5.364  0.7825 -0.4048  1.1233
  875MOL0     H18090   9.830   6.212   5.294  0.9330 -0.8666  1.0658
  875MOL0     H18091   9.893   6.506   5.247  0.5211  0.1922 -0.9001
  875MOL0     H18092   9.961   6.407   5.377  1.2935 -1.6458 -0.4333
  875MOL0     H18093  10.050   6.257   5.190  2.4220  0.9876  4.9205
  875MOL0     H18094   9.988   6.378   5.075 -2.2646  1.1354  1.0137
  875MOL0     H18095  10.185   6.449   5.291 -0.7145 -0.4559  0.3933
  875MOL0     H18096  10.136   6.549   5.152  0.3417 -0.1248  0.8748
  875MOL0     H18097  10.339   6.475   5.076  2.0145 -0.6138 -0.3968
  875MOL0     H18098  10.234   6.367   5.004 -0.4521 -1.0336  0.5260
  875MOL0     H18099  10.336   6.268   5.266  6.5768  0.2991  0.8046
  875MOL0     H18100  10.276   6.174   5.125 -0.0439  0.6037 -1.0256
  875MOL0     H18101  10.515   6.217   5.003  1.5841 -2.1229  0.7503
  875MOL0     H18102  10.502   6.126   5.142 -1.6638 -1.1820 -1.4217
  875MOL0     H18103  10.679   6.269   5.171  0.1693 -0.6988  3.0363
  875MOL0     H18104  10.600   6.419   5.133  2.0007 -0.4558 -0.2605
  875MOL0     H18105   9.643   6.086   5.147  0.6710  0.0996  2.4010
  875MOL0     H18106   9.415   6.001   5.215 -1.3743  1.0018  1.2037
  875MOL0     H18107   8.945   6.134   5.275 -0.0702  0.3478  0.1971
  875MOL0     H18108   8.737   6.066   5.377 -0.5358  1.5018  1.1391
  875MOL0     H18109   8.651   4.858   4.795 -0.2144 -0.1742 -1.0680
  875MOL0     H18110   8.784   4.681   4.675 -2.0746  1.4068 -0.3601
  875MOL0     H18111   9.147   4.543   4.477 -0.2734 -0.4884 -1.1143
  875MOL0     H18112   9.278   4.373   4.383 -0.8274 -3.5485 -0.4795
  875MOL0     H18113   9.399   4.004   4.662  1.0732 -4.6963  0.2267
  875MOL0     H18114   9.447   3.962   4.495  1.0789 -0.2762  0.7038
  875MOL0     H18115   9.163   4.049   4.548  0.3510 -0.4120 -0.1738
  875MOL0     H18116   9.206   3.882   4.596 -0.9681  0.0870  0.8929
  875MOL0     H18117   9.285   3.828   4.380  0.4493  1.3430 -3.2859
  875MOL0     H18118   9.243   3.993   4.318 -1.4508 -2.5573 -2.9663
  875MOL0     H18119   9.025   3.811   4.427 -0.2340  2.2607  2.1442
  875MOL0     H18120   9.011   3.984   4.381  1.6625  1.0790 -1.5792
  875MOL0     H18121   9.000   3.787   4.005 -2.8672  0.1224  0.1573
  875MOL0     H18122   9.307   4.175   4.769  0.2563 -0.6526 -1.5135
  875MOL0     H18123   9.047   4.366   4.930  0.6375  1.8773  0.4664
  875MOL0     H18124   9.149   4.230   4.936 -2.6259 -0.4147 -1.4038
  875MOL0     H18125   9.222   4.394   4.966  1.3550  1.4560 -2.1736
  876MOL0     O18126   6.270   9.804   1.029  0.3910 -0.0582 -0.1777
  876MOL0     C18127   6.248   9.689   1.071  0.2013  0.6875 -0.4584
  876MOL0     O18128   6.332   9.588   1.044 -0.1352  0.8137  0.0353
  876MOL0     C18129   6.424   9.598   0.939 -0.4439 -0.0570 -0.5979
  876MOL0     C18130   6.546   9.541   0.978 -0.4303 -0.1360 -0.0945
  876MOL0     C18131   6.656   9.555   0.889  0.5576  0.7690 -0.6494
  876MOL0     C18132   6.654   9.628   0.776 -0.0230  0.8278 -0.0749
  876MOL0     O18133   6.769   9.633   0.698  0.1912 -0.7211 -0.1960
  876MOL0     C18134   6.800   9.762   0.645  0.1191  0.5890 -0.6516
  876MOL0     C18135   6.946   9.769   0.600  0.0058  0.6233  0.3679
  876MOL0     C18136   7.056   9.761   0.714 -0.4193  0.1539 -0.0436
  876MOL0     C18137   7.196   9.778   0.643 -0.1788 -0.3776 -0.0432
  876MOL0     C18138   7.322   9.761   0.726  0.6977 -0.1220 -0.3124
  876MOL0     C18139   7.440   9.735   0.627 -0.9328  0.6312 -0.3883
  876MOL0     C18140   7.497   9.849   0.534 -0.9170  0.1735  0.0994
  876MOL0     C18141   7.624   9.916   0.592  0.8584 -0.3045 -0.4032
  876MOL0     N18142   7.747   9.829   0.573  0.4246  0.3163  0.2246
  876MOL0     C18143   7.801   9.792   0.452 -0.1143 -0.6686 -0.6422
  876MOL0     C18144   7.918   9.735   0.485 -0.2454  0.4700  0.1964
  876MOL0     C18145   8.012   9.671   0.383 -0.4099  0.4560 -0.3586
  876MOL0     C18146   7.961   9.531   0.354  0.4678 -0.0340 -0.3933
  876MOL0     C18147   8.049   9.452   0.253 -0.2784  0.3497 -0.0224
  876MOL0     C18148   8.193   9.441   0.286  0.3528  0.6961 -0.3423
  876MOL0     O18149   8.197   9.397   0.428  0.7278  0.3846 -0.5041
  876MOL0     C18150   8.319   9.389   0.490  0.0104 -0.0538 -0.2093
  876MOL0     C18151   8.447   9.393   0.417 -0.4638  1.1171 -0.7406
  876MOL0     C18152   8.576   9.395   0.483 -0.3431  0.2753 -0.3117
  876MOL0     C18153   8.575   9.378   0.631  0.0391 -0.1966  0.4624
  876MOL0     C18154   8.712   9.362   0.703  0.2470  0.6448  0.1746
  876MOL0     O18155   8.702   9.347   0.838 -0.5650 -0.0483 -0.0203
  876MOL0     C18156   8.819   9.303   0.906 -0.0559 -0.4112  1.2810
  876MOL0     C18157   8.907   9.395   0.965 -0.1621  0.6340 -0.6042
  876MOL0     C18158   9.022   9.354   1.030 -0.8056  0.4926  0.3022
  876MOL0     C18159   9.047   9.216   1.045 -0.3647  0.1415 -0.5792
  876MOL0     O18160   9.165   9.190   1.112 -0.1973 -0.7596 -0.3244
  876MOL0     C18161   9.188   9.063   1.157 -0.9629  0.6991  0.4620
  876MOL0     C18162   9.325   9.047   1.231  0.2082  0.4813  0.1516
  876MOL0     C18163   9.458   9.059   1.144 -0.4719  0.1457 -0.1712
  876MOL0     C18164   9.576   9.034   1.241 -0.1216 -0.2952 -0.4360
  876MOL0     C18165   9.703   9.097   1.170 -0.4791  0.5937  0.0198
  876MOL0     C18166   9.833   9.093   1.256  0.1002  0.0181 -0.4443
  876MOL0     C18167   9.862   8.956   1.318 -0.1332 -0.3467  0.3157
  876MOL0     C18168   9.878   8.838   1.228  0.5341  0.5448  1.0822
  876MOL0    Cl18169   9.969   8.713   1.321 -0.0502 -0.0258  0.5011
  876MOL0     C18170   8.962   9.121   0.984 -0.6479 -0.2732 -0.1590
  876MOL0     C18171   8.848   9.164   0.913 -0.5891  0.8004 -1.1868
  876MOL0     O18172   8.813   9.374   0.638 -0.5438 -0.7917  0.8873
  876MOL0     C18173   8.452   9.369   0.690  0.7786  0.0415 -0.2321
  876MOL0     C18174   8.328   9.363   0.622  0.0207  0.2495 -0.5816
  876MOL0     N18175   7.937   9.742   0.622  0.2425 -1.0704 -0.1052
  876MOL0     N18176   7.828   9.791   0.675 -0.0080 -0.2369 -0.4245
  876MOL0     C18177   6.532   9.687   0.733  0.0676  0.6534 -0.1710
  876MOL0     C18178   6.422   9.678   0.823 -0.0356  0.3408  0.6893
  876MOL0     C18179   6.144   9.667   1.171 -1.0648 -0.6542 -0.1257
  876MOL0     C18180   6.103   9.536   1.186  0.2704 -0.5934 -0.8502
  876MOL0     C18181   5.990   9.517   1.265  0.1809  0.4043 -0.3868
  876MOL0     C18182   5.919   9.618   1.317  0.6048 -0.2384 -0.2656
  876MOL0     O18183   5.805   9.588   1.394 -0.2434 -0.9438 -0.2771
  876MOL0     C18184   5.694   9.532   1.320 -1.2712 -0.1083  0.7280
  876MOL0     C18185   5.565   9.550   1.399  0.5972  0.1246  0.3291
  876MOL0     C18186   5.436   9.499   1.343  0.3983 -0.8240 -0.0148
  876MOL0     C18187   5.328   9.475   1.445  0.8752 -0.3571 -0.5590
  876MOL0     C18188   5.295   9.593   1.525 -0.7475 -0.0486  0.3274
  876MOL0     C18189   5.266   9.682   1.598 -0.0219 -0.0283  0.3308
  876MOL0     C18190   5.961   9.753   1.311 -0.1565  1.5019 -0.2477
  876MOL0     C18191   6.075   9.781   1.236  1.0499 -0.2196 -0.0868
  876MOL0     C18192   6.110   9.926   1.223  0.6352  0.0553  0.3817
  876MOL0     H18193   6.547   9.497   1.077 -1.5855 -0.8910 -0.3997
  876MOL0     H18194   6.752   9.516   0.921 -0.1184 -1.0670 -0.7865
  876MOL0     H18195   6.741   9.768   0.554 -2.2088 -0.3943  0.7167
  876MOL0     H18196   6.781   9.841   0.718 -0.8197 -2.3593  2.5854
  876MOL0     H18197   6.958   9.865   0.548  0.0238  0.4248  0.0018
  876MOL0     H18198   6.960   9.685   0.531  0.3178  0.4459  0.6462
  876MOL0     H18199   7.059   9.665   0.766  1.0975  0.6167  0.7768
  876MOL0     H18200   7.054   9.847   0.781  1.9858  2.0318 -2.1531
  876MOL0     H18201   7.198   9.693   0.574 -0.1281 -1.9421  1.7757
  876MOL0     H18202   7.196   9.867   0.579  2.5397 -0.8021 -0.7163
  876MOL0     H18203   7.346   9.854   0.778  3.3895 -0.9577  0.0480
  876MOL0     H18204   7.326   9.678   0.797  0.6591 -1.2597 -1.6073
  876MOL0     H18205   7.527   9.708   0.688 -0.2530  4.3441  0.4870
  876MOL0     H18206   7.418   9.646   0.568 -1.3992  1.3879 -1.3586
  876MOL0     H18207   7.416   9.920   0.514 -1.2782 -0.3892 -0.4276
  876MOL0     H18208   7.521   9.812   0.434 -1.9738  1.7720 -0.7870
  876MOL0     H18209   7.647  10.013   0.548 -3.0235  0.9532 -0.0387
  876MOL0     H18210   7.594   9.937   0.696  1.8252  0.8658 -0.3412
  876MOL0     H18211   7.758   9.807   0.354 -0.7827 -0.6510 -0.3509
  876MOL0     H18212   8.009   9.731   0.292 -3.1326 -1.5324 -1.7016
  876MOL0     H18213   8.114   9.664   0.423 -0.0658 -1.4399 -1.4674
  876MOL0     H18214   7.948   9.480   0.449  0.6358 -0.9097 -0.8321
  876MOL0     H18215   7.860   9.544   0.315  0.6158 -1.0834 -1.1873
  876MOL0     H18216   8.044   9.495   0.153 -0.4052  0.4528  0.0280
  876MOL0     H18217   8.009   9.351   0.240 -2.9190  1.3455 -0.1655
  876MOL0     H18218   8.238   9.538   0.266 -0.5699  0.7048 -2.6829
  876MOL0     H18219   8.247   9.371   0.221  0.7280  1.1558 -0.5324
  876MOL0     H18220   8.457   9.411   0.310  3.0563 -0.2523 -0.7759
  876MOL0     H18221   8.666   9.404   0.424  0.0095 -0.3094  0.1220
  876MOL0     H18222   8.885   9.500   0.949 -1.5833  0.3867 -0.4015
  876MOL0     H18223   9.087   9.431   1.070 -1.4899  1.0606  0.3223
  876MOL0     H18224   9.103   9.020   1.211  0.0700 -2.0143  0.1376
  876MOL0     H18225   9.201   8.999   1.069 -0.6371  1.9388 -0.4040
  876MOL0     H18226   9.323   9.116   1.316 -2.3571 -0.9751  1.3685
  876MOL0     H18227   9.326   8.948   1.276 -2.1242  0.5070  0.3771
  876MOL0     H18228   9.453   8.987   1.062 -0.8181  1.0845 -0.9853
  876MOL0     H18229   9.471   9.155   1.094 -0.2102 -0.5703 -1.5477
  876MOL0     H18230   9.598   8.929   1.256  1.5203  0.0269 -0.4246
  876MOL0     H18231   9.559   9.078   1.340  2.5427 -0.0855  0.0175
  876MOL0     H18232   9.678   9.202   1.150  1.9702  1.4151  0.9314
  876MOL0     H18233   9.737   9.050   1.077  0.6434  0.2471  0.5900
  876MOL0     H18234   9.921   9.122   1.199  1.1177 -0.1160  1.0215
  876MOL0     H18235   9.818   9.167   1.336 -0.0585 -1.5893  1.0645
  876MOL0     H18236   9.792   8.926   1.396  1.5659 -1.3624  1.5392
  876MOL0     H18237   9.960   8.959   1.368  1.0566 -1.1092 -1.8105
  876MOL0     H18238   9.779   8.806   1.194  1.5516  0.2346 -1.8615
  876MOL0     H18239   9.942   8.855   1.141 -0.1349 -1.8299  0.0387
  876MOL0     H18240   9.009   9.023   0.986  1.0885  0.5280  0.9577
  876MOL0     H18241   8.778   9.092   0.871  3.0205 -2.4361 -2.3231
  876MOL0     H18242   8.444   9.365   0.798  0.8086 -0.6038 -0.2481
  876MOL0     H18243   8.237   9.363   0.680 -0.8248 -1.5920 -1.8332
  876MOL0     H18244   6.530   9.732   0.635  0.5407 -0.6710 -0.8193
  876MOL0     H18245   6.343   9.744   0.790  1.6698  1.7007 -0.8755
  876MOL0     H18246   6.157   9.456   1.138  2.9850 -0.2015  1.2798
  876MOL0     H18247   5.960   9.417   1.294  0.6640  1.5682  5.5122
  876MOL0     H18248   5.709   9.425   1.305  0.6939  0.3249 -0.8413
  876MOL0     H18249   5.678   9.584   1.225  1.6803  0.9306  0.6980
  876MOL0     H18250   5.564   9.658   1.415 -1.0328  0.8187 -3.3204
  876MOL0     H18251   5.576   9.491   1.490 -2.0499 -2.4308 -0.8686
  876MOL0     H18252   5.450   9.407   1.285 -2.0810 -0.9006 -0.6442
  876MOL0     H18253   5.407   9.573   1.268  1.6308  0.3814  0.6437
  876MOL0     H18254   5.236   9.445   1.395  0.0103 -0.8385  1.2428
  876MOL0     H18255   5.352   9.386   1.504  0.1320 -2.0287 -2.6351
  876MOL0     H18256   5.255   9.754   1.677  4.1119 -0.6771  1.7148
  876MOL0     H18257   5.905   9.832   1.358 -1.1529  1.7832 -1.8201
  876MOL0     H18258   6.055   9.992   1.291 -0.5357  1.6702 -2.0026
  876MOL0     H18259   6.215   9.955   1.233  0.1248  2.0434  0.4578
  876MOL0     H18260   6.078   9.964   1.125  0.1393  2.8197  1.5054
  877MOL0     O18261   1.719  10.596   4.995  0.2437 -0.1422  0.2468
  877MOL0     C18262   1.679  10.493   4.942 -0.3229  0.6132 -0.1007
  877MOL0     O18263   1.761  10.408   4.870  0.2557 -0.4274  0.1561
  877MOL0     C18264   1.897  10.424   4.875 -0.5389  0.3195  0.6709
  877MOL0     C18265   1.950  10.530   4.808 -0.0511 -0.8193  0.8684
  877MOL0     C18266   2.088  10.557   4.822 -0.0800  0.6238  0.4879
  877MOL0     C18267   2.166  10.485   4.910  0.4954 -0.2359  0.5740
  877MOL0     O18268   2.292  10.521   4.925  0.2006 -0.4821  0.4452
  877MOL0     C18269   2.386  10.451   5.010 -0.5212 -0.2164  0.3199
  877MOL0     C18270   2.523  10.462   4.952 -0.1863  0.0231 -0.2252
  877MOL0     C18271   2.628  10.397   5.042  0.3489 -1.0218 -0.4635
  877MOL0     C18272   2.772  10.463   5.036 -0.3599  0.2919  0.1438
  877MOL0     C18273   2.875  10.404   5.130  0.2253  0.2526  0.3273
  877MOL0     C18274   2.997  10.497   5.119  0.9705 -1.2339  0.6469
  877MOL0     C18275   3.117  10.426   5.185 -0.3640  0.2892 -0.0507
  877MOL0     C18276   3.240  10.512   5.211 -0.1656  0.0030 -0.0520
  877MOL0     N18277   3.286  10.601   5.098 -0.7441 -0.3791  0.0465
  877MOL0     C18278   3.322  10.739   5.106 -0.0710  0.4117  0.4520
  877MOL0     C18279   3.368  10.765   4.980 -0.8596 -0.3609 -0.6656
  877MOL0     C18280   3.412  10.898   4.936  0.2849 -0.3741  0.1974
  877MOL0     C18281   3.564  10.901   4.951 -0.0002 -1.0404 -0.0738
  877MOL0     C18282   3.609  11.047   4.958 -0.0696  0.6147  0.0678
  877MOL0     C18283   3.760  11.060   4.948 -0.0487 -0.4231 -0.6140
  877MOL0     O18284   3.804  11.061   4.814  0.7950 -0.0956  0.2881
  877MOL0     C18285   3.933  11.052   4.781  0.5513  0.2992  0.2757
  877MOL0     C18286   3.953  11.034   4.643  0.0052 -0.8057 -0.4194
  877MOL0     C18287   4.085  11.016   4.606 -0.0084  0.0025  0.4855
  877MOL0     C18288   4.194  11.013   4.694 -0.7430 -0.0592  0.4485
  877MOL0     C18289   4.326  10.956   4.662  0.4469  0.9492 -0.5342
  877MOL0     O18290   4.429  10.985   4.744 -0.0026  0.4042  0.6697
  877MOL0     C18291   4.547  10.910   4.739  0.0225 -0.9071  0.0985
  877MOL0     C18292   4.673  10.971   4.735  0.3367  0.1942  0.2525
  877MOL0     C18293   4.785  10.885   4.736 -0.1803 -0.1445  0.3656
  877MOL0     C18294   4.777  10.744   4.749 -0.3323 -0.7437  0.0259
  877MOL0     O18295   4.899  10.677   4.746 -0.4246 -0.2178  0.6064
  877MOL0     C18296   4.902  10.534   4.767 -0.4199 -0.3170 -0.6588
  877MOL0     C18297   5.026  10.479   4.833  0.5554  0.3297 -0.3559
  877MOL0     C18298   5.146  10.498   4.737 -1.0491  0.0141 -0.9937
  877MOL0     C18299   5.269  10.455   4.826 -0.6642 -0.3472  0.4376
  877MOL0     C18300   5.405  10.489   4.757 -0.3254 -0.2212 -0.6546
  877MOL0     C18301   5.529  10.452   4.857 -0.1632 -0.1997  0.0538
  877MOL0     C18302   5.661  10.493   4.792  0.5873 -0.0896  0.9198
  877MOL0     C18303   5.726  10.383   4.709  0.2014  0.2044 -1.7839
  877MOL0    Cl18304   5.624  10.315   4.577 -0.1178  0.5050 -0.5633
  877MOL0     C18305   4.649  10.689   4.753  1.0375 -0.4601 -0.4890
  877MOL0     C18306   4.538  10.771   4.743 -0.2625  0.3014 -0.4637
  877MOL0     O18307   4.333  10.902   4.554 -0.2091  0.3575  0.5217
  877MOL0     C18308   4.168  11.032   4.831  0.8080  0.3133 -1.0949
  877MOL0     C18309   4.038  11.050   4.873 -0.0272  0.1284 -0.1343
  877MOL0     N18310   3.355  10.655   4.897  0.3291  0.1993  0.2303
  877MOL0     N18311   3.321  10.557   4.972  0.8631 -0.6319 -0.8136
  877MOL0     C18312   2.099  10.375   4.974 -0.0143 -0.7034 -0.6891
  877MOL0     C18313   1.971  10.345   4.957  0.7349 -0.8661 -0.4219
  877MOL0     C18314   1.534  10.465   4.943 -0.3890 -0.1063  0.2286
  877MOL0     C18315   1.476  10.400   4.834 -0.6096 -0.5229  0.5516
  877MOL0     C18316   1.342  10.369   4.838  0.7728 -0.0380  0.1976
  877MOL0     C18317   1.251  10.401   4.941  0.1803 -0.4170  0.3892
  877MOL0     O18318   1.125  10.348   4.923 -0.4024  0.1723 -0.4973
  877MOL0     C18319   1.043  10.337   5.042 -0.0101  0.7653  0.2112
  877MOL0     C18320   0.929  10.231   5.023  0.2987 -0.0908  0.9629
  877MOL0     C18321   0.888  10.198   5.164  1.2606  0.1866  0.5518
  877MOL0     C18322   0.807  10.070   5.153 -0.3519  0.2377 -0.3816
  877MOL0     C18323   0.879   9.953   5.173  0.5791 -0.1672  1.2557
  877MOL0     C18324   0.950   9.853   5.185  0.0181 -1.1295  0.0113
  877MOL0     C18325   1.306  10.461   5.049 -0.6280 -0.7639  0.0497
  877MOL0     C18326   1.447  10.492   5.055 -0.6694  0.0015  0.0676
  877MOL0     C18327   1.500  10.571   5.171  0.0869  0.1477  0.5531
  877MOL0     H18328   1.891  10.592   4.742  2.1836  0.6987  0.1557
  877MOL0     H18329   2.134  10.645   4.777 -1.6911  1.0845 -0.3377
  877MOL0     H18330   2.376  10.502   5.106 -2.2812  1.7927 -0.8434
  877MOL0     H18331   2.365  10.345   5.023  0.7664 -0.9180 -2.5085
  877MOL0     H18332   2.554  10.566   4.939  3.8838 -0.8307  1.2987
  877MOL0     H18333   2.531  10.418   4.852  0.5527 -0.5245  0.0644
  877MOL0     H18334   2.636  10.289   5.029  0.1606 -1.1598  0.4976
  877MOL0     H18335   2.591  10.415   5.144  0.3213  0.1005 -0.6567
  877MOL0     H18336   2.806  10.439   4.935 -1.2500 -1.6150  0.2458
  877MOL0     H18337   2.760  10.570   5.054  0.8093  0.5052 -0.2756
  877MOL0     H18338   2.832  10.402   5.230 -1.0589 -3.0071 -0.1764
  877MOL0     H18339   2.904  10.303   5.101 -0.8949 -0.0775  0.3311
  877MOL0     H18340   3.011  10.527   5.014 -2.1305  3.1854  1.2329
  877MOL0     H18341   2.979  10.592   5.169 -0.7050 -0.9838 -0.3479
  877MOL0     H18342   3.153  10.340   5.127  0.4624 -0.3926  1.4178
  877MOL0     H18343   3.076  10.392   5.280  0.1803 -0.7893 -0.1815
  877MOL0     H18344   3.216  10.575   5.297 -0.2957  0.3466 -0.3377
  877MOL0     H18345   3.315  10.439   5.241 -0.2240  0.5147  1.4138
  877MOL0     H18346   3.319  10.805   5.192  1.6508  1.6676 -0.3902
  877MOL0     H18347   3.376  10.912   4.833 -1.4452 -1.9383  0.5237
  877MOL0     H18348   3.365  10.972   5.001 -1.4632 -2.7543  1.8100
  877MOL0     H18349   3.581  10.844   5.042 -2.5215  0.4410  1.4518
  877MOL0     H18350   3.614  10.859   4.863  0.1277  1.5343 -1.3513
  877MOL0     H18351   3.580  11.088   5.055 -0.3170  0.9630 -0.1534
  877MOL0     H18352   3.562  11.103   4.877 -1.5882 -1.1508 -0.3520
  877MOL0     H18353   3.801  10.978   5.007 -3.1380  0.0900  2.5669
  877MOL0     H18354   3.790  11.157   4.988  4.4435 -1.5052 -0.8731
  877MOL0     H18355   3.863  11.022   4.584 -0.2852 -0.1678 -0.1154
  877MOL0     H18356   4.100  10.990   4.502 -1.4030  1.0672 -0.0171
  877MOL0     H18357   4.694  11.078   4.740  1.5480 -0.0035 -0.3003
  877MOL0     H18358   4.881  10.935   4.733  0.3806 -1.1784 -2.6888
  877MOL0     H18359   4.817  10.520   4.834  1.1399  0.8783  1.7114
  877MOL0     H18360   4.885  10.483   4.671  0.7007  1.6913 -2.0001
  877MOL0     H18361   5.037  10.526   4.932  1.2286  0.4066 -0.4617
  877MOL0     H18362   5.013  10.372   4.848  3.8937 -0.4260 -1.8015
  877MOL0     H18363   5.127  10.438   4.647 -1.0186  1.3614 -1.9350
  877MOL0     H18364   5.158  10.604   4.714 -2.1383  0.5338  0.6630
  877MOL0     H18365   5.276  10.347   4.845  1.0750  0.1028  2.7824
  877MOL0     H18366   5.278  10.496   4.927 -0.2921 -0.4612  0.4517
  877MOL0     H18367   5.414  10.598   4.750 -1.1299 -0.1163 -0.1074
  877MOL0     H18368   5.399  10.441   4.658  0.6105 -0.9391 -0.3840
  877MOL0     H18369   5.532  10.507   4.952 -0.2085  0.0182 -0.0712
  877MOL0     H18370   5.524  10.348   4.892 -1.9583  0.5192  2.1702
  877MOL0     H18371   5.726  10.525   4.874 -0.4746  0.2318  1.6632
  877MOL0     H18372   5.644  10.582   4.731 -1.7124 -0.2192  1.2702
  877MOL0     H18373   5.826  10.412   4.675  1.2943  2.2427  2.4556
  877MOL0     H18374   5.734  10.297   4.777  1.3187  0.5667 -1.4224
  877MOL0     H18375   4.634  10.582   4.758 -0.0199 -0.5765 -3.8783
  877MOL0     H18376   4.443  10.721   4.730 -0.1855 -0.0630  0.3439
  877MOL0     H18377   4.237  11.007   4.910 -1.4709 -0.4947  0.7644
  877MOL0     H18378   4.017  11.051   4.980  1.1408 -3.2965  0.2766
  877MOL0     H18379   2.146  10.339   5.065 -0.5427  1.1496  0.3612
  877MOL0     H18380   1.938  10.259   5.014  0.7598 -2.1259 -2.2132
  877MOL0     H18381   1.543  10.364   4.756 -1.4856 -1.6107  0.2827
  877MOL0     H18382   1.306  10.307   4.756  0.4300 -2.6814  2.2086
  877MOL0     H18383   0.998  10.436   5.050  1.4604  1.9325 -3.7378
  877MOL0     H18384   1.102  10.302   5.127  1.2825 -0.7329 -1.2242
  877MOL0     H18385   0.964  10.144   4.966  0.9262  1.8620 -1.8759
  877MOL0     H18386   0.848  10.274   4.963  0.4279  2.4596  2.4750
  877MOL0     H18387   0.815  10.272   5.197 -0.0621 -1.3885  1.2970
  877MOL0     H18388   0.976  10.190   5.229  3.3500  1.6375 -1.8802
  877MOL0     H18389   0.738  10.068   5.237  2.3337  0.1581  1.9624
  877MOL0     H18390   0.750  10.051   5.061  2.1569 -0.7700 -1.8277
  877MOL0     H18391   0.994   9.757   5.199 -1.7291 -1.6601  2.6738
  877MOL0     H18392   1.230  10.492   5.121 -0.4043 -0.1501  0.0302
  877MOL0     H18393   1.597  10.534   5.205 -1.0218 -2.5840  1.0285
  877MOL0     H18394   1.511  10.676   5.143 -1.6005  0.1272 -0.3069
  877MOL0     H18395   1.436  10.559   5.259 -1.4190 -0.4439 -0.5820
  878MOL0     O18396   4.563   3.318   6.815 -0.3555 -0.7595  0.2932
  878MOL0     C18397   4.495   3.306   6.715 -0.0070 -0.1654 -0.5190
  878MOL0     O18398   4.532   3.342   6.590  0.9367  0.1581 -0.2076
  878MOL0     C18399   4.661   3.313   6.559  0.1211 -0.7271 -0.0222
  878MOL0     C18400   4.699   3.204   6.480  0.0819 -0.0390  0.2606
  878MOL0     C18401   4.825   3.197   6.427 -0.1970 -0.6844 -0.3454
  878MOL0     C18402   4.924   3.292   6.472 -0.2213  0.1692 -0.5911
  878MOL0     O18403   5.062   3.292   6.454  0.0189  0.3672 -0.0256
  878MOL0     C18404   5.127   3.195   6.365 -0.8137  0.6013 -0.2786
  878MOL0     C18405   5.269   3.161   6.419  0.4041  1.3822  0.4400
  878MOL0     C18406   5.341   3.062   6.329 -0.4310  0.5835  0.2945
  878MOL0     C18407   5.269   2.923   6.313 -0.5388  0.3566  0.5606
  878MOL0     C18408   5.364   2.825   6.243 -0.4811  0.0768 -0.7575
  878MOL0     C18409   5.310   2.682   6.235  0.5258  0.3171  0.1141
  878MOL0     C18410   5.401   2.580   6.154  0.3775 -0.5628  0.6805
  878MOL0     C18411   5.546   2.559   6.213  0.1390  0.8102  0.6466
  878MOL0     N18412   5.622   2.477   6.117  1.0106  0.6333 -0.9958
  878MOL0     C18413   5.606   2.342   6.100  0.2992 -0.7102 -0.2577
  878MOL0     C18414   5.689   2.298   6.005 -0.6622 -1.9176  0.3167
  878MOL0     C18415   5.703   2.167   5.941  0.2138 -0.1036  0.8923
  878MOL0     C18416   5.719   2.043   6.032 -0.5932 -0.5632 -0.0575
  878MOL0     C18417   5.830   2.060   6.129  0.6729 -0.3115  0.2967
  878MOL0     C18418   5.967   2.106   6.074  0.7585  0.0043 -0.0704
  878MOL0     O18419   6.047   2.130   6.189  0.2809  0.0800 -0.0495
  878MOL0     C18420   6.182   2.110   6.165 -0.4974 -0.0308  0.1688
  878MOL0     C18421   6.266   2.100   6.285  0.2418  0.9570  0.8117
  878MOL0     C18422   6.401   2.088   6.281 -0.1249 -0.4029  0.0957
  878MOL0     C18423   6.472   2.091   6.156  0.3886 -0.1919 -0.0153
  878MOL0     C18424   6.614   2.081   6.161  0.4354 -0.4848 -0.6471
  878MOL0     O18425   6.678   2.046   6.050 -0.3151 -0.8338  0.0041
  878MOL0     C18426   6.816   2.037   6.063 -0.4576  0.5298 -0.7638
  878MOL0     C18427   6.876   1.910   6.052  0.4384  0.4377  0.3846
  878MOL0     C18428   7.012   1.889   6.067  0.2545 -0.6048 -0.1930
  878MOL0     C18429   7.093   2.003   6.105 -0.2019  0.2008 -0.2028
  878MOL0     O18430   7.226   1.963   6.128 -0.0737 -0.3069  0.1379
  878MOL0     C18431   7.307   2.053   6.201 -0.4657  0.2574 -0.1099
  878MOL0     C18432   7.435   1.991   6.260 -0.0001 -0.1456  0.5426
  878MOL0     C18433   7.524   1.918   6.162  0.0313 -0.2899  0.3001
  878MOL0     C18434   7.662   1.891   6.221 -0.1632 -0.7397  0.6034
  878MOL0     C18435   7.741   1.796   6.129 -0.3780 -0.4886  0.4176
  878MOL0     C18436   7.874   1.758   6.202 -0.3219 -0.1670  0.1110
  878MOL0     C18437   7.932   1.626   6.156  0.4216  0.7241  0.2317
  878MOL0     C18438   8.067   1.597   6.231  0.1804 -0.1906  0.6405
  878MOL0    Cl18439   8.125   1.429   6.199  0.1071  0.0981 -0.3844
  878MOL0     C18440   7.036   2.134   6.110  0.5400 -0.0288  0.8403
  878MOL0     C18441   6.899   2.148   6.077 -0.0744 -0.4432 -0.4144
  878MOL0     O18442   6.671   2.112   6.267  0.0450  0.2108 -1.2014
  878MOL0     C18443   6.396   2.097   6.043  0.9323 -0.1770  0.0817
  878MOL0     C18444   6.253   2.105   6.045 -0.5971  0.0019  0.2330
  878MOL0     N18445   5.764   2.415   5.960  0.5137 -0.3368 -1.1723
  878MOL0     N18446   5.722   2.516   6.032  0.3796  0.4379 -0.3950
  878MOL0     C18447   4.881   3.402   6.548 -0.9743  0.1042 -0.3023
  878MOL0     C18448   4.752   3.415   6.591  0.3239  0.9249 -0.7088
  878MOL0     C18449   4.351   3.261   6.734  0.1470  0.1591 -1.5866
  878MOL0     C18450   4.268   3.239   6.624  0.6847 -0.0686  0.4731
  878MOL0     C18451   4.127   3.211   6.635 -0.1767  0.4670 -0.1544
  878MOL0     C18452   4.069   3.205   6.762  0.2024 -0.3708  0.5056
  878MOL0     O18453   3.932   3.175   6.770  0.5583  0.5079  0.4572
  878MOL0     C18454   3.857   3.160   6.898 -1.0731 -0.4844 -0.1252
  878MOL0     C18455   3.729   3.091   6.863 -0.4060  0.6631 -0.2120
  878MOL0     C18456   3.651   3.085   6.993 -0.0822 -0.8781 -0.7327
  878MOL0     C18457   3.514   3.021   6.958 -1.1126  0.1677 -0.2765
  878MOL0     C18458   3.419   3.024   7.074 -0.3573 -0.2783  0.6650
  878MOL0     C18459   3.323   3.014   7.156 -0.4650  0.6585  0.3205
  878MOL0     C18460   4.149   3.217   6.876 -0.6931 -0.6936 -0.5689
  878MOL0     C18461   4.287   3.255   6.864  0.1707  0.3676 -0.9206
  878MOL0     C18462   4.354   3.267   6.993  0.4269  0.3559  0.0090
  878MOL0     H18463   4.624   3.129   6.456 -0.1305 -0.6291  2.5179
  878MOL0     H18464   4.854   3.111   6.367 -0.6269 -1.0051 -0.1027
  878MOL0     H18465   5.071   3.101   6.354 -1.4028  0.3514  3.3183
  878MOL0     H18466   5.141   3.250   6.272 -0.8779  0.7620 -0.1935
  878MOL0     H18467   5.264   3.126   6.522 -1.0962  1.3520  0.3869
  878MOL0     H18468   5.330   3.251   6.421  2.0555  0.3609 -0.9321
  878MOL0     H18469   5.435   3.051   6.385  0.1067  0.1437 -0.6605
  878MOL0     H18470   5.355   3.105   6.229 -0.0463 -1.5985 -0.6497
  878MOL0     H18471   5.222   2.880   6.402 -0.2523 -1.5188 -0.1462
  878MOL0     H18472   5.190   2.938   6.238  1.3069  0.0008 -1.5366
  878MOL0     H18473   5.398   2.855   6.143  1.9270  2.9163  0.7628
  878MOL0     H18474   5.458   2.825   6.300 -0.5654  0.1388 -0.6191
  878MOL0     H18475   5.295   2.637   6.334 -1.7691 -0.4053 -0.4999
  878MOL0     H18476   5.208   2.687   6.196  0.1886  0.0490  0.9384
  878MOL0     H18477   5.406   2.609   6.049 -2.8830  0.0550  0.5988
  878MOL0     H18478   5.342   2.488   6.155  2.2743 -1.8341  0.8682
  878MOL0     H18479   5.606   2.649   6.220 -0.3520  1.0402  2.4075
  878MOL0     H18480   5.543   2.512   6.312 -1.4266  2.3270  1.3851
  878MOL0     H18481   5.526   2.287   6.149 -3.5893  1.2101 -3.8092
  878MOL0     H18482   5.623   2.152   5.868  0.4419  0.7231  0.4571
  878MOL0     H18483   5.790   2.179   5.875 -0.5422 -0.4732 -0.1887
  878MOL0     H18484   5.626   2.040   6.089 -0.3649  0.5888  0.4005
  878MOL0     H18485   5.729   1.953   5.970  0.4063 -0.5464  0.0663
  878MOL0     H18486   5.844   1.964   6.180  3.3812  0.5651  1.3864
  878MOL0     H18487   5.793   2.120   6.213 -0.5444 -2.5221  1.4274
  878MOL0     H18488   5.969   2.198   6.015 -1.4537  0.2639  0.1812
  878MOL0     H18489   6.007   2.022   6.015 -1.7648 -2.4849  1.5068
  878MOL0     H18490   6.222   2.108   6.384  1.6585 -1.5560  1.7401
  878MOL0     H18491   6.444   2.097   6.380 -2.7858  2.4504  1.1618
  878MOL0     H18492   6.807   1.833   6.016  3.2682 -1.3570 -1.5917
  878MOL0     H18493   7.052   1.790   6.051  1.3286 -0.4420  1.2396
  878MOL0     H18494   7.336   2.132   6.131 -1.6869 -0.2577 -1.2582
  878MOL0     H18495   7.247   2.097   6.281  0.1094  0.9526 -0.0574
  878MOL0     H18496   7.486   2.078   6.302 -0.5522 -0.0557  1.0295
  878MOL0     H18497   7.407   1.918   6.336 -3.2456 -1.2171 -1.4534
  878MOL0     H18498   7.475   1.821   6.148 -1.4061  0.0313  2.6162
  878MOL0     H18499   7.543   1.979   6.073 -0.1430 -0.4467  0.1531
  878MOL0     H18500   7.641   1.845   6.318 -1.7328  1.7241  1.5450
  878MOL0     H18501   7.707   1.990   6.236  2.3243 -1.2229 -2.4837
  878MOL0     H18502   7.756   1.831   6.026 -1.2259 -1.0933  0.0730
  878MOL0     H18503   7.680   1.706   6.119  0.5130 -1.0790  0.1823
  878MOL0     H18504   7.943   1.841   6.182 -0.6440 -0.5853 -3.2917
  878MOL0     H18505   7.852   1.747   6.309 -1.7483 -1.0668 -0.2650
  878MOL0     H18506   7.950   1.619   6.049  1.0892 -2.3936  0.4476
  878MOL0     H18507   7.855   1.552   6.181 -0.7705  2.4741  2.1079
  878MOL0     H18508   8.145   1.670   6.206 -0.8277  0.4609 -0.7515
  878MOL0     H18509   8.033   1.599   6.335 -0.9760 -0.0820  0.2798
  878MOL0     H18510   7.105   2.218   6.115 -1.4931  1.6362  3.3432
  878MOL0     H18511   6.858   2.249   6.082  2.5582  0.6767 -0.1933
  878MOL0     H18512   6.450   2.094   5.949  0.7887 -0.3751  0.0053
  878MOL0     H18513   6.200   2.115   5.951  0.2461  2.8520 -0.0547
  878MOL0     H18514   4.963   3.473   6.558  1.6290 -2.7132  0.0591
  878MOL0     H18515   4.700   3.499   6.636 -0.4001  0.6691 -1.0506
  878MOL0     H18516   4.312   3.256   6.526  0.5656  3.5409  0.9058
  878MOL0     H18517   4.058   3.222   6.552 -1.9715  0.5377  1.2646
  878MOL0     H18518   3.841   3.248   6.961  0.8852  1.0824 -1.6830
  878MOL0     H18519   3.919   3.093   6.959  0.5859  0.1851 -1.0118
  878MOL0     H18520   3.736   2.989   6.825  0.2675 -0.1673  2.0131
  878MOL0     H18521   3.675   3.153   6.791 -1.3003  0.0990 -0.0442
  878MOL0     H18522   3.639   3.183   7.040  0.4465 -1.1716  0.0341
  878MOL0     H18523   3.716   3.024   7.056  1.2470 -0.2237 -1.4175
  878MOL0     H18524   3.472   3.077   6.874 -1.0048  0.1592 -0.3362
  878MOL0     H18525   3.533   2.925   6.910 -2.6216  0.6873 -2.0258
  878MOL0     H18526   3.244   3.022   7.228 -0.0631 -1.9985  1.1525
  878MOL0     H18527   4.101   3.201   6.972  1.8906 -3.8588  0.3727
  878MOL0     H18528   4.393   3.369   7.004  1.0978  0.0844  0.2082
  878MOL0     H18529   4.285   3.251   7.076 -0.2369 -0.1582 -0.6258
  878MOL0     H18530   4.437   3.196   6.998  1.3279  1.3349 -0.6031
  879MOL0     O18531   9.343   3.137   0.550  0.5645 -0.1923 -0.0377
  879MOL0     C18532   9.361   3.163   0.427 -0.3879  0.2122  0.5166
  879MOL0     O18533   9.473   3.133   0.359 -0.0006 -0.7964 -0.7262
  879MOL0     C18534   9.583   3.087   0.424  0.4107  0.7157  0.2359
  879MOL0     C18535   9.579   2.967   0.499  0.2354 -0.6035  0.1051
  879MOL0     C18536   9.691   2.926   0.573 -0.6719 -0.0688 -0.6304
  879MOL0     C18537   9.816   2.989   0.552 -0.1550 -0.6272 -0.2544
  879MOL0     O18538   9.928   2.937   0.617 -0.2989 -0.5728 -0.0650
  879MOL0     C18539  10.062   2.986   0.591 -0.1094 -0.3931 -0.5393
  879MOL0     C18540  10.177   2.917   0.665  0.4244  0.6161 -0.1284
  879MOL0     C18541  10.313   2.975   0.654  0.8841  0.0742  0.1602
  879MOL0     C18542  10.417   2.852   0.647  0.9199  0.0369  0.2824
  879MOL0     C18543  10.563   2.885   0.626  0.1136  0.4480  0.3573
  879MOL0     C18544  10.633   2.739   0.607  0.7196 -0.5772 -0.2856
  879MOL0     C18545  10.776   2.769   0.568 -0.1699 -0.3055  0.1968
  879MOL0     C18546  10.864   2.638   0.548  0.4710  0.3421  0.3378
  879MOL0     N18547  11.002   2.678   0.517 -0.2836  0.0971 -0.3931
  879MOL0     C18548  11.115   2.595   0.512 -0.4635 -0.0375  0.6633
  879MOL0     C18549  11.217   2.673   0.488 -0.7201 -0.1316  0.2211
  879MOL0     C18550  11.360   2.645   0.527  0.5983 -0.5907 -0.2305
  879MOL0     C18551  11.447   2.617   0.404 -0.7951 -0.0457  0.7911
  879MOL0     C18552  11.510   2.742   0.351  0.1103 -0.2688  0.5568
  879MOL0     C18553  11.577   2.719   0.212 -0.3137 -0.7338 -0.1489
  879MOL0     O18554  11.648   2.842   0.187 -0.0333  0.2727 -0.1987
  879MOL0     C18555  11.759   2.883   0.265  0.3709 -0.5211 -0.0219
  879MOL0     C18556  11.818   2.810   0.363 -1.1144  0.1061 -1.5969
  879MOL0     C18557  11.946   2.850   0.410  0.1857  0.9690 -0.2630
  879MOL0     C18558  12.001   2.972   0.367 -0.2022  0.7697  0.1606
  879MOL0     C18559  12.138   2.996   0.417  1.2294  0.0907 -0.4440
  879MOL0     O18560  12.204   2.897   0.483 -1.1042  0.7028  0.0959
  879MOL0     C18561  12.316   2.933   0.548 -1.0185  0.5503 -0.3294
  879MOL0     C18562  12.300   2.969   0.682 -0.2626  0.2243 -0.2286
  879MOL0     C18563  12.408   3.027   0.751  0.0870  0.0545  0.7341
  879MOL0     C18564  12.530   3.029   0.697 -0.2132  0.9454  0.6978
  879MOL0     O18565  12.632   3.066   0.771  0.4016 -0.0987 -0.0799
  879MOL0     C18566  12.683   3.196   0.728  0.4527 -0.7897  0.2772
  879MOL0     C18567  12.758   3.265   0.850 -0.0798  0.4330 -0.1813
  879MOL0     C18568  12.872   3.182   0.906 -0.6434 -0.3507 -1.1616
  879MOL0     C18569  12.998   3.243   0.838 -0.0122 -0.9087 -0.9533
  879MOL0     C18570  13.129   3.189   0.900  0.0779 -0.2760  0.4982
  879MOL0     C18571  13.244   3.273   0.838  1.0990 -0.5295  0.1118
  879MOL0     C18572  13.383   3.232   0.893  0.9468  0.0792 -0.8261
  879MOL0     C18573  13.476   3.350   0.863 -0.0502 -0.3581 -0.6421
  879MOL0    Cl18574  13.637   3.315   0.904 -0.5823 -0.0967 -0.3054
  879MOL0     C18575  12.553   2.994   0.560 -1.0731 -0.6247 -0.2725
  879MOL0     C18576  12.442   2.937   0.487 -0.2201  0.7397 -0.1608
  879MOL0     O18577  12.184   3.103   0.387 -0.1875 -0.3496  0.6600
  879MOL0     C18578  11.934   3.052   0.277  0.1455 -0.1402  0.6545
  879MOL0     C18579  11.810   3.005   0.225  0.3421  0.2463 -0.8917
  879MOL0     N18580  11.172   2.800   0.468  0.5628 -1.0649  0.2402
  879MOL0     N18581  11.037   2.800   0.480 -0.1761  0.1596 -0.8960
  879MOL0     C18582   9.823   3.091   0.461  0.4990 -0.4927 -0.2553
  879MOL0     C18583   9.705   3.139   0.392 -0.7503  0.3111 -0.8975
  879MOL0     C18584   9.259   3.218   0.337  0.2044 -1.0723  0.0046
  879MOL0     C18585   9.265   3.193   0.196 -0.7371 -0.0609  0.2438
  879MOL0     C18586   9.167   3.242   0.110 -0.5510  0.5529  0.5333
  879MOL0     C18587   9.064   3.314   0.155 -0.5847 -0.5815 -0.5248
  879MOL0     O18588   8.968   3.360   0.064  0.2893  1.4809  0.4044
  879MOL0     C18589   8.928   3.494   0.077  0.7156 -0.6341 -0.5724
  879MOL0     C18590   9.005   3.595  -0.000  0.5558 -0.2774  0.4080
  879MOL0     C18591   9.160   3.613   0.027  1.0110 -0.0111 -0.3664
  879MOL0     C18592   9.220   3.731  -0.048  0.3893 -0.0133  0.7993
  879MOL0     C18593   9.140   3.853  -0.034  0.0165  0.0450  0.5656
  879MOL0     C18594   9.081   3.955  -0.008  0.7796  0.6312 -0.2714
  879MOL0     C18595   9.059   3.334   0.293  0.4869 -0.5344 -0.9215
  879MOL0     C18596   9.146   3.287   0.389 -0.2647 -0.3201 -0.7688
  879MOL0     C18597   9.110   3.316   0.534  0.4368  0.1874  0.1703
  879MOL0     H18598   9.481   2.925   0.520 -0.4032  0.7626 -0.0650
  879MOL0     H18599   9.690   2.850   0.650 -0.7674  1.2201  0.6896
  879MOL0     H18600  10.087   2.981   0.485 -0.5007 -1.0789 -0.6070
  879MOL0     H18601  10.065   3.093   0.612 -1.1837 -0.5499  0.5625
  879MOL0     H18602  10.166   2.812   0.635  0.1205  0.4782  0.4564
  879MOL0     H18603  10.156   2.909   0.772  1.0490 -3.9241 -0.1522
  879MOL0     H18604  10.324   3.045   0.738  1.5352  0.2899 -0.1030
  879MOL0     H18605  10.319   3.041   0.567 -1.3727  3.0890  2.0448
  879MOL0     H18606  10.397   2.809   0.746  1.3015  0.7869  0.6978
  879MOL0     H18607  10.386   2.785   0.567  1.2238  1.0036 -0.6769
  879MOL0     H18608  10.585   2.958   0.548  0.6429 -0.8640 -0.7738
  879MOL0     H18609  10.602   2.934   0.716  0.0950 -0.0903  0.6685
  879MOL0     H18610  10.625   2.682   0.700 -1.3346 -2.1272 -1.3254
  879MOL0     H18611  10.576   2.681   0.534 -2.7557 -0.1946  1.8826
  879MOL0     H18612  10.828   2.834   0.638  3.0631  1.1167 -3.1490
  879MOL0     H18613  10.777   2.817   0.469 -1.1725 -2.1145 -0.7497
  879MOL0     H18614  10.875   2.580   0.640 -0.4467  4.3454  3.3022
  879MOL0     H18615  10.817   2.577   0.471  2.9081  0.7850 -1.6342
  879MOL0     H18616  11.127   2.500   0.564 -0.8132  1.5564  3.8938
  879MOL0     H18617  11.395   2.728   0.589  0.1646  1.4027 -2.5395
  879MOL0     H18618  11.376   2.561   0.596  0.8586  0.6724  1.2813
  879MOL0     H18619  11.525   2.545   0.431 -2.2996 -1.1068  2.5030
  879MOL0     H18620  11.388   2.566   0.327 -2.8246  0.5124  1.9232
  879MOL0     H18621  11.576   2.782   0.428  0.7683 -1.3422  0.5749
  879MOL0     H18622  11.429   2.814   0.335 -0.1902 -1.0824 -1.9879
  879MOL0     H18623  11.496   2.692   0.143 -2.1587  1.5511  0.9792
  879MOL0     H18624  11.645   2.633   0.214 -1.6195 -1.9387 -2.7865
  879MOL0     H18625  11.777   2.713   0.391  0.8721  0.0714  1.6136
  879MOL0     H18626  11.996   2.783   0.479 -1.0263 -0.1480 -0.4299
  879MOL0     H18627  12.206   2.956   0.735 -0.0914  0.3287  0.1026
  879MOL0     H18628  12.385   3.054   0.854  0.0655  1.6805  0.3270
  879MOL0     H18629  12.757   3.185   0.648  1.2473  2.1481  0.4839
  879MOL0     H18630  12.596   3.254   0.697 -0.7543 -3.8356 -2.5874
  879MOL0     H18631  12.781   3.369   0.826  1.6021 -0.2274 -1.5847
  879MOL0     H18632  12.684   3.270   0.931  0.8187 -1.1579  0.7728
  879MOL0     H18633  12.871   3.179   1.015 -2.1885 -2.0236 -1.1728
  879MOL0     H18634  12.854   3.076   0.886  0.6889 -0.6344 -0.9192
  879MOL0     H18635  12.981   3.351   0.835 -0.6123 -0.9622  0.2365
  879MOL0     H18636  12.993   3.214   0.732  4.2371 -1.3794 -1.2143
  879MOL0     H18637  13.138   3.084   0.869  2.4688  0.3054 -1.0728
  879MOL0     H18638  13.125   3.207   1.008 -4.0376  1.9114  0.1876
  879MOL0     H18639  13.238   3.280   0.729 -3.6843 -0.0466  0.1989
  879MOL0     H18640  13.217   3.373   0.871  1.4209 -0.9156  1.6594
  879MOL0     H18641  13.417   3.147   0.834 -3.2647 -2.6806  0.3356
  879MOL0     H18642  13.377   3.202   0.998 -0.5636 -0.0494 -0.9321
  879MOL0     H18643  13.478   3.381   0.758 -0.8698 -1.0368 -0.8755
  879MOL0     H18644  13.443   3.432   0.927  3.2749  2.2715 -1.9629
  879MOL0     H18645  12.656   2.997   0.525 -1.0030 -0.0011 -0.0362
  879MOL0     H18646  12.449   2.917   0.381  0.3814  0.5369 -0.0859
  879MOL0     H18647  11.980   3.136   0.225 -1.6056  1.5417  1.6719
  879MOL0     H18648  11.753   3.059   0.150 -2.3963 -0.2254  0.7113
  879MOL0     H18649   9.914   3.141   0.429 -0.8222 -0.1905 -3.9962
  879MOL0     H18650   9.714   3.221   0.322  0.2071  0.6453 -0.3914
  879MOL0     H18651   9.352   3.146   0.151 -0.1405  0.3670  0.9379
  879MOL0     H18652   9.170   3.231   0.002 -0.5735  2.3750  0.3062
  879MOL0     H18653   8.938   3.526   0.181  2.2310  1.9816 -1.4474
  879MOL0     H18654   8.824   3.502   0.043  0.0612 -0.6132  1.3546
  879MOL0     H18655   8.954   3.691   0.013  2.5121  0.4529  3.8759
  879MOL0     H18656   8.989   3.568  -0.105 -0.4236 -1.6886  0.8886
  879MOL0     H18657   9.200   3.516  -0.003 -2.5066 -1.1525 -1.9404
  879MOL0     H18658   9.178   3.626   0.134 -2.8581 -1.6047  0.6436
  879MOL0     H18659   9.324   3.745  -0.018  0.3943 -1.7965  1.7847
  879MOL0     H18660   9.225   3.718  -0.156 -0.4824  4.9104 -0.0441
  879MOL0     H18661   9.024   4.041   0.018  1.3122  0.4366  1.7580
  879MOL0     H18662   8.985   3.401   0.336  3.1562  1.7307  0.5052
  879MOL0     H18663   9.053   3.233   0.575  0.6138 -0.5443 -1.0197
  879MOL0     H18664   9.198   3.326   0.598  1.2088 -2.7042 -0.2956
  879MOL0     H18665   9.065   3.411   0.564  2.5205  1.0081  0.8905
  880MOL0     O18666  10.419   9.520   9.245 -0.5907  0.1469 -0.6725
  880MOL0     C18667  10.390   9.641   9.230 -0.1653  0.6080  0.0252
  880MOL0     O18668  10.483   9.747   9.217 -0.0965  0.0849 -0.7410
  880MOL0     C18669  10.612   9.734   9.191 -0.3013 -0.2733 -0.5511
  880MOL0     C18670  10.685   9.629   9.138 -0.4524  0.3875 -0.4575
  880MOL0     C18671  10.820   9.636   9.111 -0.6112 -0.2170  0.0262
  880MOL0     C18672  10.892   9.752   9.136 -0.6473  0.4008 -0.4531
  880MOL0     O18673  11.025   9.746   9.110 -0.0300  0.2032  0.0763
  880MOL0     C18674  11.112   9.861   9.125  0.0193  0.0143  0.3873
  880MOL0     C18675  11.242   9.826   9.045 -0.1954  0.9901 -0.2922
  880MOL0     C18676  11.313   9.697   9.099 -0.0877 -0.1316 -0.4802
  880MOL0     C18677  11.447   9.686   9.036  0.2289  0.5180 -0.3723
  880MOL0     C18678  11.540   9.575   9.080 -0.1697 -0.2565 -0.6824
  880MOL0     C18679  11.639   9.537   8.968  0.5353 -0.4420 -1.0197
  880MOL0     C18680  11.729   9.412   8.998  0.0480  0.2922  1.5167
  880MOL0     C18681  11.824   9.469   9.105  1.0250  0.3462 -0.0028
  880MOL0     N18682  11.955   9.396   9.098 -0.2623  0.2047 -0.1043
  880MOL0     C18683  11.968   9.258   9.099  0.0082  0.2770 -0.3206
  880MOL0     C18684  12.111   9.248   9.111  0.3448  0.2600  0.7211
  880MOL0     C18685  12.191   9.126   9.101  0.5796  0.2039  0.0003
  880MOL0     C18686  12.257   9.075   9.236 -0.1635  0.0811  0.5262
  880MOL0     C18687  12.402   9.040   9.201  0.2205 -0.2479 -0.8688
  880MOL0     C18688  12.487   9.163   9.236 -0.3675  0.4404 -0.9899
  880MOL0     O18689  12.624   9.129   9.203  0.4047  0.5266 -0.3143
  880MOL0     C18690  12.725   9.190   9.265  0.5512  0.0821 -0.0526
  880MOL0     C18691  12.851   9.135   9.238  0.3316 -0.3062 -1.2486
  880MOL0     C18692  12.968   9.179   9.305 -1.0036 -0.2082 -0.2029
  880MOL0     C18693  12.950   9.294   9.382  0.1165  0.8492 -0.3107
  880MOL0     C18694  13.072   9.349   9.446 -0.4446  0.3355 -0.1713
  880MOL0     O18695  13.070   9.481   9.484  0.4891 -0.1186  0.3862
  880MOL0     C18696  13.174   9.515   9.567  0.8405 -0.0768 -0.1694
  880MOL0     C18697  13.170   9.470   9.702  0.0734 -0.1464  0.5594
  880MOL0     C18698  13.268   9.508   9.791  0.5900 -0.4520  0.2172
  880MOL0     C18699  13.372   9.590   9.760  0.0119 -0.6385 -0.4632
  880MOL0     O18700  13.464   9.655   9.844 -0.0498  0.4170 -0.0647
  880MOL0     C18701  13.531   9.576   9.948 -0.2252 -0.2813 -0.4228
  880MOL0     C18702  13.610   9.452   9.904 -0.4504 -0.4159 -0.0375
  880MOL0     C18703  13.747   9.497   9.852  0.3133 -0.5279 -0.3094
  880MOL0     C18704  13.837   9.529   9.972 -0.5255 -0.0058  0.1179
  880MOL0     C18705  13.978   9.562   9.925  0.1642 -0.6185 -0.2220
  880MOL0     C18706  14.068   9.591  10.039  0.3770  0.0647  1.2197
  880MOL0     C18707  14.216   9.606   9.998 -0.9480 -0.2289  0.2642
  880MOL0     C18708  14.255   9.748   9.942 -0.0522  0.8998 -0.4236
  880MOL0    Cl18709  14.429   9.755   9.925 -0.0613  0.3691  0.2798
  880MOL0     C18710  13.377   9.611   9.614  0.5732  0.1319 -0.1227
  880MOL0     C18711  13.279   9.581   9.522  0.0064 -0.2518  0.3561
  880MOL0     O18712  13.176   9.284   9.439  0.1125  0.3524  0.1751
  880MOL0     C18713  12.831   9.358   9.389  0.0119 -0.2317 -0.1270
  880MOL0     C18714  12.719   9.305   9.341 -0.2798 -0.0820 -0.1622
  880MOL0     N18715  12.164   9.377   9.116 -0.0441  0.2351 -0.2607
  880MOL0     N18716  12.075   9.465   9.099  0.3517  0.1325  0.2455
  880MOL0     C18717  10.824   9.855   9.197  0.2226  0.2199  0.0648
  880MOL0     C18718  10.686   9.854   9.227 -0.3091  0.1994  0.3161
  880MOL0     C18719  10.247   9.683   9.242  0.2700 -0.3875  0.4400
  880MOL0     C18720  10.214   9.820   9.238  1.1204  0.3531  0.7797
  880MOL0     C18721  10.079   9.865   9.252  0.4295 -0.0104  0.0317
  880MOL0     C18722   9.975   9.774   9.269  0.4142 -0.6010 -0.2123
  880MOL0     O18723   9.847   9.809   9.298  0.3842 -0.9131 -0.5018
  880MOL0     C18724   9.735   9.719   9.290  0.1319  0.4129  0.2146
  880MOL0     C18725   9.708   9.648   9.420  0.0684 -0.0405 -0.1916
  880MOL0     C18726   9.723   9.751   9.535  0.2033 -0.0267 -0.3201
  880MOL0     C18727   9.675   9.686   9.666 -0.3165 -0.0901  0.0346
  880MOL0     C18728   9.528   9.661   9.661  0.0065 -0.2387 -0.0867
  880MOL0     C18729   9.412   9.623   9.670 -0.7363 -0.5681  0.8361
  880MOL0     C18730  10.007   9.639   9.266 -0.6749 -0.0471 -0.1256
  880MOL0     C18731  10.138   9.594   9.254  0.4085 -0.5520 -0.2769
  880MOL0     C18732  10.157   9.440   9.266  0.6478 -0.7858  0.0941
  880MOL0     H18733  10.643   9.530   9.123  1.3697 -0.2761 -1.5435
  880MOL0     H18734  10.880   9.555   9.071 -0.3664  1.2614 -2.8888
  880MOL0     H18735  11.065   9.951   9.084  1.7022 -0.3663 -2.6747
  880MOL0     H18736  11.127   9.875   9.233 -2.0307 -0.9390  0.8476
  880MOL0     H18737  11.316   9.907   9.049  0.3205  0.5992 -1.4715
  880MOL0     H18738  11.225   9.821   8.937 -0.6323 -3.5590 -0.1865
  880MOL0     H18739  11.248   9.613   9.074 -3.4975  2.8914 -2.8548
  880MOL0     H18740  11.322   9.696   9.208  2.0380 -0.4984 -0.6163
  880MOL0     H18741  11.436   9.669   8.928  1.4642 -0.8992 -0.3022
  880MOL0     H18742  11.497   9.783   9.039  1.3397 -0.0493  2.6717
  880MOL0     H18743  11.603   9.601   9.165  1.4656  2.7371 -2.6608
  880MOL0     H18744  11.474   9.490   9.103 -0.3790 -0.0969 -0.6915
  880MOL0     H18745  11.581   9.522   8.877  1.7680 -1.0830 -1.7384
  880MOL0     H18746  11.699   9.623   8.936 -0.0459  0.5089  0.3515
  880MOL0     H18747  11.778   9.385   8.904 -3.5357  0.8466 -0.6988
  880MOL0     H18748  11.676   9.328   9.044 -0.7224 -0.4188 -0.5480
  880MOL0     H18749  11.844   9.577   9.096  2.6933  0.0301 -0.4602
  880MOL0     H18750  11.783   9.457   9.206 -2.4697  5.2593 -0.4668
  880MOL0     H18751  11.893   9.179   9.091  0.1089 -0.0008  1.1445
  880MOL0     H18752  12.133   9.038   9.073  1.5076 -0.5402  0.3387
  880MOL0     H18753  12.269   9.139   9.025  2.0890 -1.0537  1.2371
  880MOL0     H18754  12.250   9.149   9.316  1.5340  1.5984 -0.6402
  880MOL0     H18755  12.205   8.984   9.269 -0.0303 -0.4464 -0.6415
  880MOL0     H18756  12.412   9.015   9.095  0.2683  0.7241 -1.1113
  880MOL0     H18757  12.441   8.956   9.259  0.0104 -0.1660 -0.6086
  880MOL0     H18758  12.472   9.204   9.337  0.7454  0.0530 -0.6557
  880MOL0     H18759  12.466   9.249   9.172  0.4358  3.3264  2.3562
  880MOL0     H18760  12.852   9.059   9.160 -1.2079  1.8911 -3.5818
  880MOL0     H18761  13.063   9.129   9.293  0.1438  1.7549  0.3166
  880MOL0     H18762  13.089   9.411   9.744 -0.4161  0.0294 -0.1166
  880MOL0     H18763  13.238   9.480   9.892  0.2056 -1.8697 -0.2695
  880MOL0     H18764  13.588   9.652  10.002  0.6058 -1.5802  0.5675
  880MOL0     H18765  13.458   9.529  10.014  0.5597 -2.8473 -1.2567
  880MOL0     H18766  13.621   9.391   9.994 -2.3953  0.5874  0.9355
  880MOL0     H18767  13.555   9.404   9.822  3.0632 -1.3795 -2.0377
  880MOL0     H18768  13.795   9.419   9.792  2.7876  1.1792 -0.7339
  880MOL0     H18769  13.734   9.584   9.787  1.2274  0.6893  1.0543
  880MOL0     H18770  13.840   9.432  10.022 -0.8665  0.3848  0.9342
  880MOL0     H18771  13.799   9.604  10.043  0.4841 -0.3562  1.0574
  880MOL0     H18772  13.977   9.643   9.850  1.8157  0.0248  0.4133
  880MOL0     H18773  14.013   9.465   9.889  2.1014 -0.7483  1.8338
  880MOL0     H18774  14.036   9.678  10.097  1.7921  0.7430  1.0315
  880MOL0     H18775  14.068   9.507  10.109 -2.3597 -0.4420  0.7428
  880MOL0     H18776  14.240   9.534   9.919 -0.3603  0.0314  0.2024
  880MOL0     H18777  14.272   9.591  10.092  0.4512  3.7388  0.2423
  880MOL0     H18778  14.215   9.773   9.843  1.9553  0.6139 -1.3781
  880MOL0     H18779  14.218   9.818  10.016 -2.4384  0.8226 -1.4692
  880MOL0     H18780  13.470   9.650   9.573  0.0743  1.2480 -0.2183
  880MOL0     H18781  13.296   9.585   9.415 -1.4792 -0.3170  0.1009
  880MOL0     H18782  12.833   9.448   9.450  0.6915  0.9871 -1.8434
  880MOL0     H18783  12.626   9.359   9.358  0.9473  2.2372 -0.4083
  880MOL0     H18784  10.878   9.940   9.237  1.8166 -1.3688  1.5055
  880MOL0     H18785  10.636   9.943   9.264 -1.1507  0.0022 -0.2984
  880MOL0     H18786  10.299   9.886   9.225  0.0390  1.6948  0.2845
  880MOL0     H18787  10.054   9.971   9.245 -0.9058 -0.3250 -0.0763
  880MOL0     H18788   9.744   9.654   9.202 -1.2494 -1.8392  1.6372
  880MOL0     H18789   9.652   9.791   9.287  1.5329  2.1667  1.5517
  880MOL0     H18790   9.764   9.555   9.429 -1.2320 -0.8866 -0.5596
  880MOL0     H18791   9.604   9.615   9.428 -0.2360  0.8292 -0.4114
  880MOL0     H18792   9.674   9.846   9.510 -1.1719 -0.3617  0.9235
  880MOL0     H18793   9.830   9.771   9.542  0.1429 -0.3656  2.6539
  880MOL0     H18794   9.727   9.591   9.673  0.9648  0.5568 -0.4446
  880MOL0     H18795   9.686   9.752   9.753 -0.3528 -0.5452  0.3833
  880MOL0     H18796   9.307   9.616   9.689 -0.8535  1.0316  0.9362
  880MOL0     H18797   9.931   9.562   9.270 -0.8689  0.1539  0.2402
  880MOL0     H18798  10.210   9.411   9.357 -0.6334  0.9570  1.4651
  880MOL0     H18799  10.061   9.389   9.265 -0.6602  1.4426  2.0482
  880MOL0     H18800  10.216   9.405   9.181  0.8355  1.1852 -0.6585
  881MOL0     O18801   3.881   6.750   7.461 -0.3635  0.5118 -0.5262
  881MOL0     C18802   3.787   6.750   7.544  0.0720 -0.1097  0.4879
  881MOL0     O18803   3.804   6.746   7.678  0.0507  0.6740 -0.4016
  881MOL0     C18804   3.927   6.721   7.717  0.3778  0.4461  0.2107
  881MOL0     C18805   3.997   6.824   7.774 -0.5160  0.0275 -0.3476
  881MOL0     C18806   4.123   6.797   7.833 -0.2335  0.4515 -0.4307
  881MOL0     C18807   4.187   6.667   7.827  0.1752  0.1396  0.7472
  881MOL0     O18808   4.316   6.656   7.874 -0.2439  0.1812  0.2028
  881MOL0     C18809   4.383   6.529   7.861  0.2610 -0.4054  0.5044
  881MOL0     C18810   4.516   6.538   7.946  0.7114 -0.3115 -0.4569
  881MOL0     C18811   4.618   6.639   7.885  0.5080 -0.1722  0.0958
  881MOL0     C18812   4.739   6.652   7.973 -0.5748  0.0017 -0.4260
  881MOL0     C18813   4.837   6.753   7.910  1.2135  0.3070 -0.3794
  881MOL0     C18814   4.902   6.687   7.792 -0.4716 -0.7308  0.0394
  881MOL0     C18815   5.032   6.759   7.742  0.1036 -0.1359  0.1895
  881MOL0     C18816   5.003   6.900   7.681 -0.2754 -0.2237 -0.6225
  881MOL0     N18817   5.129   6.953   7.639 -0.6406 -0.6011  0.2139
  881MOL0     C18818   5.216   7.004   7.737  0.3520 -0.0064  0.5497
  881MOL0     C18819   5.332   7.020   7.667  0.0132  1.0459  0.5889
  881MOL0     C18820   5.458   7.066   7.725 -0.6421  0.6692 -0.4611
  881MOL0     C18821   5.473   7.217   7.750  0.4940  0.9005  0.9414
  881MOL0     C18822   5.607   7.244   7.820  0.5096  0.2113  0.4209
  881MOL0     C18823   5.741   7.206   7.760  0.1696 -0.5345 -0.9837
  881MOL0     O18824   5.764   7.252   7.626  0.8920  0.2220 -0.6301
  881MOL0     C18825   5.889   7.281   7.590 -0.5022  1.2831  0.1334
  881MOL0     C18826   5.960   7.367   7.668  0.1640 -0.5924 -0.4245
  881MOL0     C18827   6.098   7.393   7.642  0.1040  0.2377 -0.9016
  881MOL0     C18828   6.157   7.342   7.529  0.0071 -0.3333  0.2185
  881MOL0     C18829   6.310   7.363   7.498  0.7651  0.6842  0.4336
  881MOL0     O18830   6.363   7.337   7.373  0.1422 -0.3653  0.6930
  881MOL0     C18831   6.507   7.335   7.357 -0.1984  0.3053  0.3668
  881MOL0     C18832   6.582   7.450   7.394 -1.1504 -0.9690  0.8027
  881MOL0     C18833   6.720   7.457   7.362  0.2158 -0.4491 -0.5125
  881MOL0     C18834   6.781   7.344   7.303  0.1866 -0.4083 -0.1467
  881MOL0     O18835   6.915   7.327   7.281 -0.6343 -0.0239 -0.5539
  881MOL0     C18836   6.997   7.442   7.299 -0.0696 -0.4781 -0.6593
  881MOL0     C18837   7.144   7.411   7.257 -0.2214 -0.2396  0.4011
  881MOL0     C18838   7.158   7.359   7.112  0.0812 -0.0577  0.6490
  881MOL0     C18839   7.287   7.425   7.049  0.4692  0.0929 -1.1327
  881MOL0     C18840   7.306   7.375   6.901  0.8080 -0.4161  0.9567
  881MOL0     C18841   7.446   7.404   6.841 -0.0666  0.4878 -0.2016
  881MOL0     C18842   7.442   7.357   6.701 -0.2839  0.1544  0.7154
  881MOL0     C18843   7.581   7.379   6.638 -0.6171  0.0689 -0.8578
  881MOL0    Cl18844   7.608   7.304   6.478 -0.3489  0.2389 -0.0740
  881MOL0     C18845   6.705   7.235   7.263  0.7403 -0.0068  0.6808
  881MOL0     C18846   6.570   7.230   7.293  0.7877  0.2834 -0.0310
  881MOL0     O18847   6.364   7.423   7.584 -0.1125 -0.0249  0.1393
  881MOL0     C18848   6.069   7.270   7.441  0.1633  0.1634  0.0505
  881MOL0     C18849   5.941   7.240   7.467 -0.6370  0.1112  0.3172
  881MOL0     N18850   5.312   6.987   7.529  0.8820 -0.4891 -0.0350
  881MOL0     N18851   5.193   6.931   7.520  0.1836 -0.5694 -0.1405
  881MOL0     C18852   4.106   6.564   7.779 -0.6004  0.1801 -0.5245
  881MOL0     C18853   3.978   6.592   7.722  0.0022  0.0676 -1.0251
  881MOL0     C18854   3.638   6.758   7.506  0.1880 -0.7528  0.2740
  881MOL0     C18855   3.540   6.775   7.600  0.3602 -0.0254 -0.3683
  881MOL0     C18856   3.407   6.760   7.567  0.3442  0.4710  0.3681
  881MOL0     C18857   3.364   6.738   7.436  0.1425 -0.9305 -0.2274
  881MOL0     O18858   3.239   6.719   7.388  0.0569 -0.6008  0.4007
  881MOL0     C18859   3.135   6.707   7.486  0.5039 -0.3587 -0.4608
  881MOL0     C18860   3.004   6.674   7.411 -0.9153  0.4744 -0.0246
  881MOL0     C18861   2.932   6.787   7.333 -0.1551  0.4894 -0.4544
  881MOL0     C18862   2.854   6.859   7.443  0.2331  0.2947  0.9619
  881MOL0     C18863   2.788   6.974   7.376 -0.5941  1.0544  0.2870
  881MOL0     C18864   2.742   7.077   7.330  0.7753  0.0216  0.1244
  881MOL0     C18865   3.457   6.732   7.336 -0.4982 -0.3764 -0.1584
  881MOL0     C18866   3.597   6.747   7.372 -0.5486 -0.8562 -0.1872
  881MOL0     C18867   3.688   6.767   7.258 -0.0986  0.2854  0.5801
  881MOL0     H18868   3.958   6.925   7.768  1.2187  0.6781 -1.2649
  881MOL0     H18869   4.174   6.870   7.895 -0.9210  1.1349 -0.6666
  881MOL0     H18870   4.315   6.450   7.893 -2.0068  1.2296 -0.0089
  881MOL0     H18871   4.415   6.517   7.757  2.6183 -0.3252  1.1632
  881MOL0     H18872   4.558   6.437   7.944 -2.7195 -1.9337  1.0685
  881MOL0     H18873   4.495   6.559   8.051  2.8823 -0.6068  0.0999
  881MOL0     H18874   4.567   6.736   7.887 -1.2350 -1.0510  1.5288
  881MOL0     H18875   4.642   6.609   7.782  1.7762  0.3287  0.2310
  881MOL0     H18876   4.715   6.691   8.072  2.5330  1.4849 -0.1474
  881MOL0     H18877   4.790   6.555   7.981  0.9161  0.7663 -0.4027
  881MOL0     H18878   4.774   6.836   7.877 -1.8382 -2.5875 -2.4818
  881MOL0     H18879   4.911   6.781   7.986  1.5074 -0.3301 -0.4290
  881MOL0     H18880   4.928   6.583   7.812  0.8441 -0.5297 -0.4976
  881MOL0     H18881   4.839   6.682   7.703  2.0601 -0.0148 -1.8990
  881MOL0     H18882   5.093   6.699   7.675  3.0181  1.7601  0.9634
  881MOL0     H18883   5.095   6.780   7.829 -0.4505  2.1527  0.1273
  881MOL0     H18884   4.935   6.890   7.596  0.0510  1.5128 -1.1409
  881MOL0     H18885   4.950   6.966   7.750 -1.0588  0.4701 -1.8477
  881MOL0     H18886   5.198   7.027   7.841  0.5170  1.4171  0.2885
  881MOL0     H18887   5.486   7.012   7.815 -0.0911  0.1504 -0.9329
  881MOL0     H18888   5.525   7.037   7.643 -0.7459  1.2817 -0.7716
  881MOL0     H18889   5.482   7.268   7.653  2.1017 -0.7867  0.1498
  881MOL0     H18890   5.383   7.264   7.791 -0.4901  1.2471 -1.4410
  881MOL0     H18891   5.594   7.197   7.918  0.2263 -1.0513 -0.2057
  881MOL0     H18892   5.605   7.349   7.850 -4.0285  0.3076  0.5372
  881MOL0     H18893   5.760   7.098   7.755  2.2241 -0.1625 -2.7652
  881MOL0     H18894   5.815   7.236   7.836  0.6947  0.7164 -1.9606
  881MOL0     H18895   5.911   7.411   7.755  1.1556 -0.6385  0.1702
  881MOL0     H18896   6.149   7.465   7.706 -0.9075 -0.0377  0.2502
  881MOL0     H18897   6.543   7.537   7.445  0.5553  0.2510  0.1423
  881MOL0     H18898   6.778   7.544   7.390  2.1266 -1.7024 -0.3900
  881MOL0     H18899   6.954   7.530   7.251 -1.6237 -0.5912  0.4451
  881MOL0     H18900   6.994   7.469   7.405 -1.0453  1.9960 -1.2599
  881MOL0     H18901   7.202   7.502   7.273  0.6179 -0.1341 -2.6433
  881MOL0     H18902   7.177   7.331   7.323 -1.7051 -0.0013  1.4708
  881MOL0     H18903   7.168   7.250   7.107 -0.2710 -0.0242 -2.4221
  881MOL0     H18904   7.068   7.387   7.057 -0.3840 -3.1333 -0.3236
  881MOL0     H18905   7.371   7.384   7.106 -0.1271  0.0114 -0.2923
  881MOL0     H18906   7.287   7.534   7.058  1.8570  0.1226 -1.2390
  881MOL0     H18907   7.226   7.404   6.832  2.8135 -0.6849 -1.6159
  881MOL0     H18908   7.296   7.266   6.908  3.9300 -0.7804  1.2222
  881MOL0     H18909   7.463   7.512   6.836  0.1907  0.3763 -2.4745
  881MOL0     H18910   7.517   7.350   6.905 -0.7255  0.7228  0.7475
  881MOL0     H18911   7.362   7.407   6.646 -0.2131 -0.7612 -0.2545
  881MOL0     H18912   7.418   7.250   6.699 -2.1884  0.5103  1.5254
  881MOL0     H18913   7.610   7.484   6.628  0.0656  0.0432  0.6081
  881MOL0     H18914   7.650   7.324   6.703  0.1370  2.1035  0.1541
  881MOL0     H18915   6.757   7.154   7.214  0.4262 -0.6804  1.4327
  881MOL0     H18916   6.528   7.134   7.267  2.6023 -1.5523  3.2571
  881MOL0     H18917   6.111   7.236   7.347  0.9300 -0.2464  0.5346
  881MOL0     H18918   5.876   7.183   7.401 -1.7611 -0.5044  1.8892
  881MOL0     H18919   4.136   6.461   7.793  2.6246  1.1324  0.3595
  881MOL0     H18920   3.911   6.514   7.687 -1.5971  0.1662  1.5918
  881MOL0     H18921   3.558   6.807   7.703  1.5532  1.4865 -1.0137
  881MOL0     H18922   3.338   6.752   7.651  0.7804 -0.0991  0.6736
  881MOL0     H18923   3.133   6.793   7.554  1.6518 -1.3507  0.9068
  881MOL0     H18924   3.163   6.626   7.555  2.0869  1.2553  0.8964
  881MOL0     H18925   2.943   6.623   7.486  1.4112 -1.3552  0.7461
  881MOL0     H18926   3.038   6.600   7.338  2.2376  2.0507 -0.3113
  881MOL0     H18927   2.871   6.747   7.251 -0.4075 -0.9330  0.3963
  881MOL0     H18928   3.004   6.860   7.295 -0.7952  1.1987 -0.3222
  881MOL0     H18929   2.776   6.790   7.478 -0.4364  0.5352  0.0132
  881MOL0     H18930   2.915   6.898   7.525  1.7365 -0.4393  0.2266
  881MOL0     H18931   2.688   7.152   7.275  0.4572 -0.0854  0.2941
  881MOL0     H18932   3.435   6.711   7.232  1.6591 -1.1719 -0.5018
  881MOL0     H18933   3.716   6.872   7.266  3.6481 -0.5095  0.1323
  881MOL0     H18934   3.775   6.701   7.249  0.5688  1.0825  1.0542
  881MOL0     H18935   3.629   6.745   7.168  1.4100  1.2285 -0.7081
  882MOL0     O18936   5.052   3.091   3.156 -0.3345 -0.3341 -0.4278
  882MOL0     C18937   4.951   3.156   3.156 -0.1076 -0.3447 -0.2778
  882MOL0     O18938   4.938   3.281   3.101 -0.2442 -0.6768 -0.0190
  882MOL0     C18939   5.045   3.334   3.047  0.5709  0.0400 -0.1184
  882MOL0     C18940   5.129   3.401   3.135 -0.4525  0.5993  0.7298
  882MOL0     C18941   5.248   3.463   3.078 -0.7499 -0.5651  0.1692
  882MOL0     C18942   5.282   3.453   2.937  0.0483  0.3598 -0.3055
  882MOL0     O18943   5.413   3.482   2.889 -0.9206  0.4743 -0.1213
  882MOL0     C18944   5.496   3.568   2.961  0.4224 -0.3647  0.1934
  882MOL0     C18945   5.576   3.491   3.068  0.8866  0.4485  0.0300
  882MOL0     C18946   5.612   3.588   3.185 -0.5592 -0.3430 -0.1747
  882MOL0     C18947   5.708   3.518   3.274 -0.8508  0.4692  0.7703
  882MOL0     C18948   5.763   3.618   3.379  0.1877 -0.3451  0.3044
  882MOL0     C18949   5.867   3.541   3.461 -0.1616 -0.1648  0.5810
  882MOL0     C18950   5.909   3.618   3.586  0.2336  0.7317 -0.4848
  882MOL0     C18951   5.993   3.743   3.559 -0.0215 -0.5902  0.3227
  882MOL0     N18952   6.113   3.715   3.481 -0.0610 -0.2478  0.3122
  882MOL0     C18953   6.129   3.763   3.351 -0.3144 -0.2623  0.3358
  882MOL0     C18954   6.252   3.728   3.317 -0.2219 -0.3661 -0.6798
  882MOL0     C18955   6.317   3.772   3.186 -0.6536 -0.1032 -0.4708
  882MOL0     C18956   6.365   3.918   3.192  0.7845 -0.4931  0.5388
  882MOL0     C18957   6.468   3.932   3.295 -0.4518  0.2743  0.0065
  882MOL0     C18958   6.535   4.074   3.286 -0.0688  0.1569 -0.7900
  882MOL0     O18959   6.604   4.092   3.166 -0.2541  0.4989  0.2098
  882MOL0     C18960   6.743   4.091   3.162  0.8211 -0.4354 -0.1336
  882MOL0     C18961   6.810   4.016   3.062 -0.3371 -0.0499  0.1446
  882MOL0     C18962   6.947   4.027   3.051  0.7703  0.0276 -0.1808
  882MOL0     C18963   7.022   4.113   3.135 -1.2214  0.2251 -0.0150
  882MOL0     C18964   7.166   4.132   3.114  0.4613  0.1816 -0.5787
  882MOL0     O18965   7.226   4.042   3.022  0.6148 -0.6161  0.5040
  882MOL0     C18966   7.361   4.060   3.010 -0.2947  1.0880  0.0620
  882MOL0     C18967   7.430   4.170   2.956 -0.0181 -0.7029  0.3059
  882MOL0     C18968   7.571   4.176   2.942  0.0146  0.2428 -0.3349
  882MOL0     C18969   7.652   4.076   3.007  0.3658  0.7655 -0.2614
  882MOL0     O18970   7.787   4.068   3.025  0.0850  0.2773  0.1098
  882MOL0     C18971   7.860   4.189   2.992  0.3469  0.1444 -0.8936
  882MOL0     C18972   7.868   4.218   2.847 -0.4543 -0.1518 -0.1082
  882MOL0     C18973   7.982   4.146   2.776 -0.3674 -0.6690  0.1876
  882MOL0     C18974   8.026   4.228   2.659  0.1031 -0.0524  0.4816
  882MOL0     C18975   8.136   4.160   2.590 -0.5385  0.2926  0.7401
  882MOL0     C18976   8.163   4.234   2.455  0.2782  0.8226 -0.6407
  882MOL0     C18977   8.322   4.250   2.434  0.1769  0.1561 -1.4863
  882MOL0     C18978   8.395   4.113   2.429  0.7704 -0.4087  0.0625
  882MOL0    Cl18979   8.341   4.029   2.283 -0.3957 -0.1554 -0.4355
  882MOL0     C18980   7.583   3.970   3.055  0.6290 -0.0971 -0.9913
  882MOL0     C18981   7.443   3.954   3.053  0.8639 -0.7065  0.3396
  882MOL0     O18982   7.224   4.219   3.179  0.4096 -0.2830  0.7705
  882MOL0     C18983   6.958   4.170   3.243 -0.4388 -0.0480 -0.0709
  882MOL0     C18984   6.818   4.161   3.254 -0.2908 -0.2730 -0.3514
  882MOL0     N18985   6.318   3.659   3.422  0.4666  0.1688  1.0855
  882MOL0     N18986   6.233   3.662   3.518 -0.5866  0.3307  0.1948
  882MOL0     C18987   5.181   3.397   2.861  0.0743  1.0167  0.2777
  882MOL0     C18988   5.069   3.332   2.913 -1.1268 -0.6094 -1.0616
  882MOL0     C18989   4.834   3.093   3.232  0.3166 -0.7096 -0.0549
  882MOL0     C18990   4.863   2.992   3.326 -0.0287 -0.0577 -0.0262
  882MOL0     C18991   4.758   2.934   3.403 -0.0240 -0.3961  0.0780
  882MOL0     C18992   4.628   2.985   3.389 -0.0092  1.1995 -0.3975
  882MOL0     O18993   4.514   2.932   3.459 -0.5840 -0.8453  0.5243
  882MOL0     C18994   4.533   2.838   3.571  0.1031 -0.4672  0.5988
  882MOL0     C18995   4.399   2.785   3.623 -1.3688 -0.3300  0.3202
  882MOL0     C18996   4.335   2.898   3.708 -0.2175 -0.2578 -0.3790
  882MOL0     C18997   4.204   2.854   3.787 -0.2297 -0.8038  0.5645
  882MOL0     C18998   4.140   2.737   3.721  0.2031 -0.8835 -0.0270
  882MOL0     C18999   4.082   2.651   3.655  0.6522  0.9328 -0.8098
  882MOL0     C19000   4.600   3.086   3.299 -0.9382 -0.6361  0.1699
  882MOL0     C19001   4.694   3.132   3.210  0.4790 -0.2332 -0.4964
  882MOL0     C19002   4.642   3.219   3.089 -1.0676  0.4740 -0.8283
  882MOL0     H19003   5.095   3.399   3.238  0.1206  0.4682  0.9174
  882MOL0     H19004   5.313   3.519   3.144  2.1259 -0.9152 -2.1293
  882MOL0     H19005   5.560   3.613   2.886 -1.7991 -0.5273 -1.9330
  882MOL0     H19006   5.437   3.642   3.017 -2.0625 -2.0875  0.0375
  882MOL0     H19007   5.663   3.439   3.027  0.2740 -3.6533  3.2694
  882MOL0     H19008   5.520   3.409   3.114  3.7013 -1.1357  0.8584
  882MOL0     H19009   5.523   3.609   3.245 -0.2482  3.0071 -0.6844
  882MOL0     H19010   5.646   3.685   3.147  2.7576 -1.0405  0.7070
  882MOL0     H19011   5.655   3.432   3.314 -1.5406  0.1029 -0.8243
  882MOL0     H19012   5.789   3.482   3.211 -2.0758 -0.0718 -0.5719
  882MOL0     H19013   5.814   3.705   3.336  0.7252 -0.2043  1.1958
  882MOL0     H19014   5.679   3.645   3.442 -0.2062 -2.4408  0.7605
  882MOL0     H19015   5.822   3.442   3.478  0.1819 -0.6011 -0.9088
  882MOL0     H19016   5.953   3.517   3.397  1.7241  0.1245  2.8692
  882MOL0     H19017   5.967   3.558   3.656  2.1581 -0.2736 -2.7957
  882MOL0     H19018   5.815   3.642   3.637  0.5422  0.7683  0.0711
  882MOL0     H19019   5.930   3.812   3.502 -1.6857 -2.2288  0.0860
  882MOL0     H19020   6.025   3.790   3.652  1.3068  5.0810 -2.5867
  882MOL0     H19021   6.050   3.809   3.293 -0.6420  0.0350  1.0116
  882MOL0     H19022   6.398   3.707   3.151 -0.4891 -0.1761  0.0435
  882MOL0     H19023   6.244   3.757   3.105 -0.7794  1.1019 -0.5927
  882MOL0     H19024   6.400   3.936   3.090 -1.0667 -0.9830 -0.2192
  882MOL0     H19025   6.279   3.977   3.224 -0.2673 -0.7250 -1.6960
  882MOL0     H19026   6.549   3.858   3.291 -1.2366 -0.5566 -2.5115
  882MOL0     H19027   6.416   3.937   3.391 -2.9675  1.9643 -1.3259
  882MOL0     H19028   6.598   4.096   3.372 -0.5832 -1.2440 -0.0266
  882MOL0     H19029   6.454   4.147   3.291 -0.0048  0.1423  1.9860
  882MOL0     H19030   6.750   3.958   2.993  1.1058 -1.3115 -0.0923
  882MOL0     H19031   6.996   3.997   2.959  1.1886  1.0566 -0.3049
  882MOL0     H19032   7.378   4.256   2.915  1.9492  0.3305 -0.1345
  882MOL0     H19033   7.618   4.261   2.894  0.3838  1.0162  1.2921
  882MOL0     H19034   7.813   4.264   3.056  1.7676 -3.0146  4.5112
  882MOL0     H19035   7.963   4.181   3.028  0.0748 -0.7536 -0.2858
  882MOL0     H19036   7.773   4.201   2.795 -0.5682  0.1785 -0.0130
  882MOL0     H19037   7.867   4.327   2.832 -2.3945 -0.1412 -0.2260
  882MOL0     H19038   8.063   4.121   2.845  0.5744  2.3636  0.3623
  882MOL0     H19039   7.950   4.047   2.744 -0.9367 -0.9603  1.5994
  882MOL0     H19040   8.057   4.324   2.701 -0.6032 -0.1732  1.2974
  882MOL0     H19041   7.948   4.258   2.589 -0.6692 -1.1078  0.8701
  882MOL0     H19042   8.114   4.054   2.575  0.7453 -0.0082  0.8221
  882MOL0     H19043   8.218   4.149   2.662  0.1773 -1.0053 -0.2146
  882MOL0     H19044   8.124   4.183   2.367  1.4724 -2.9130  0.8010
  882MOL0     H19045   8.113   4.331   2.461 -2.1501 -0.4487  0.9700
  882MOL0     H19046   8.360   4.310   2.517 -0.7269 -0.3515 -0.6815
  882MOL0     H19047   8.347   4.305   2.343  3.5909 -1.3020 -1.5746
  882MOL0     H19048   8.503   4.123   2.441  0.9607 -2.2840  0.1928
  882MOL0     H19049   8.370   4.059   2.521  3.4688 -1.1719  0.4433
  882MOL0     H19050   7.646   3.891   3.093 -0.1086 -1.0420 -1.6816
  882MOL0     H19051   7.407   3.858   3.089  0.2528 -0.7075 -0.2599
  882MOL0     H19052   7.011   4.232   3.314  0.6116 -1.3145  0.2907
  882MOL0     H19053   6.772   4.217   3.335 -0.1156 -1.7811  0.8335
  882MOL0     H19054   5.211   3.392   2.756  0.4860  0.8811  0.3980
  882MOL0     H19055   4.985   3.292   2.858 -1.9027 -1.2222  0.4949
  882MOL0     H19056   4.962   2.953   3.345 -0.6065 -1.1495  0.8986
  882MOL0     H19057   4.790   2.863   3.479 -0.5506 -0.6507  0.0688
  882MOL0     H19058   4.593   2.885   3.650  1.3195 -1.2050  0.1354
  882MOL0     H19059   4.595   2.755   3.535  1.3702 -0.1321  1.9168
  882MOL0     H19060   4.419   2.696   3.684 -2.0071  0.4315  1.6991
  882MOL0     H19061   4.342   2.760   3.533  0.5255 -1.1400 -0.7189
  882MOL0     H19062   4.311   2.992   3.658 -0.0658 -0.9404 -1.7718
  882MOL0     H19063   4.410   2.930   3.781  0.3777  1.3351 -1.6413
  882MOL0     H19064   4.236   2.819   3.885 -2.2440  0.5595  1.7739
  882MOL0     H19065   4.132   2.934   3.807  0.7292  0.6310 -1.3381
  882MOL0     H19066   4.033   2.571   3.603  2.0278 -1.1965  0.9955
  882MOL0     H19067   4.496   3.119   3.298 -0.8010 -0.1695 -1.1662
  882MOL0     H19068   4.648   3.325   3.114 -1.5121  0.0221  1.4495
  882MOL0     H19069   4.708   3.202   3.004  1.3813 -2.3444  1.4155
  882MOL0     H19070   4.540   3.188   3.065 -1.0560  0.6114 -1.0624
  883MOL0     O19071   7.284   9.779   9.515 -0.0088  0.7048 -0.4859
  883MOL0     C19072   7.206   9.692   9.467  0.5862  0.7119  0.1417
  883MOL0     O19073   7.245   9.588   9.386 -1.4972 -0.3076  0.6094
  883MOL0     C19074   7.379   9.595   9.348 -1.0015  1.0212  0.0636
  883MOL0     C19075   7.418   9.692   9.249  0.6275  0.1118 -0.1716
  883MOL0     C19076   7.551   9.687   9.204 -0.5392  0.2923  0.1997
  883MOL0     C19077   7.647   9.580   9.244 -1.0014  0.1523  0.1628
  883MOL0     O19078   7.777   9.574   9.190 -0.1331 -1.2843 -0.3165
  883MOL0     C19079   7.794   9.588   9.048 -0.5209 -0.6585  0.4547
  883MOL0     C19080   7.932   9.563   9.002 -0.0433 -0.3180 -0.0808
  883MOL0     C19081   8.040   9.663   9.039 -0.1417  0.4568 -0.8025
  883MOL0     C19082   8.181   9.597   9.040 -0.3062  0.4218 -0.0384
  883MOL0     C19083   8.276   9.720   9.050  0.7905 -0.1279 -0.0104
  883MOL0     C19084   8.422   9.681   9.054 -0.1748 -0.6819 -0.0915
  883MOL0     C19085   8.479   9.627   8.922  0.1979  0.0602 -0.1049
  883MOL0     C19086   8.614   9.568   8.941  0.2834  0.0298  0.3360
  883MOL0     N19087   8.712   9.676   8.947  0.3518  0.4269  0.0940
  883MOL0     C19088   8.774   9.720   9.070 -0.1097  0.5304  0.3608
  883MOL0     C19089   8.864   9.820   9.024 -0.1073 -0.2542 -0.6747
  883MOL0     C19090   8.946   9.918   9.108  0.3590 -0.2108 -0.4451
  883MOL0     C19091   9.060   9.978   9.025  0.0873 -0.0657 -0.6476
  883MOL0     C19092   9.135  10.081   9.104  0.4709 -0.5841 -0.1188
  883MOL0     C19093   9.274  10.111   9.052  0.0268  0.6566  0.6320
  883MOL0     O19094   9.363   9.992   9.080  0.6249 -0.3819  0.4782
  883MOL0     C19095   9.493  10.001   9.022  0.1697  0.8012 -0.6704
  883MOL0     C19096   9.567   9.882   9.020  0.3902  0.4706 -0.0356
  883MOL0     C19097   9.702   9.878   8.988 -0.5438  0.4962 -0.9438
  883MOL0     C19098   9.764   9.993   8.931 -0.4469 -0.7500 -0.8089
  883MOL0     C19099   9.898   9.994   8.870  0.3697 -0.1322  0.5362
  883MOL0     O19100   9.962   9.876   8.862 -0.8566  0.6073 -0.2374
  883MOL0     C19101  10.077   9.883   8.800  0.5302 -0.3472 -0.7866
  883MOL0     C19102  10.188   9.953   8.854 -0.9222  1.0767 -0.5681
  883MOL0     C19103  10.311   9.946   8.790  0.0245  0.0620 -0.5122
  883MOL0     C19104  10.322   9.880   8.667  0.0456  0.3457 -0.1674
  883MOL0     O19105  10.443   9.883   8.599 -0.6736  0.4399 -0.3481
  883MOL0     C19106  10.441   9.956   8.477  0.1570 -0.1761 -0.1995
  883MOL0     C19107  10.460   9.870   8.351  0.7310  0.0225  0.2712
  883MOL0     C19108  10.584   9.779   8.371  0.4248  0.3316  0.6993
  883MOL0     C19109  10.612   9.680   8.254  1.0833 -0.6278  0.9520
  883MOL0     C19110  10.700   9.564   8.291 -0.1071  0.2696  0.2220
  883MOL0     C19111  10.743   9.470   8.165  0.1559  0.0299 -0.2234
  883MOL0     C19112  10.860   9.528   8.092  0.1998 -0.0814  0.1332
  883MOL0     C19113  10.997   9.504   8.165 -0.6386  0.2991  0.4443
  883MOL0    Cl19114  11.132   9.594   8.083  0.0759 -0.1731  0.0733
  883MOL0     C19115  10.214   9.815   8.609 -1.1337  0.1304 -0.7906
  883MOL0     C19116  10.095   9.814   8.682  0.2080 -0.0500 -0.1062
  883MOL0     O19117   9.937  10.100   8.817 -0.1924  0.1609  0.5097
  883MOL0     C19118   9.688  10.118   8.925 -0.0578  0.2141 -0.2137
  883MOL0     C19119   9.557  10.117   8.981 -1.1470 -0.1259  0.1684
  883MOL0     N19120   8.856   9.832   8.889 -1.1276  0.3082  0.5357
  883MOL0     N19121   8.776   9.742   8.844 -0.0550 -0.2483 -0.4401
  883MOL0     C19122   7.596   9.488   9.342  0.9805  0.2088 -0.3658
  883MOL0     C19123   7.466   9.501   9.398 -0.1483  0.1080  0.0693
  883MOL0     C19124   7.056   9.704   9.488 -1.0121 -0.6458 -0.4747
  883MOL0     C19125   6.983   9.634   9.392  0.4788 -0.4841 -0.1426
  883MOL0     C19126   6.839   9.639   9.394 -0.1084  0.4951 -1.1417
  883MOL0     C19127   6.776   9.714   9.491 -0.3619 -0.6219  0.0730
  883MOL0     O19128   6.637   9.728   9.504 -0.1802  0.6813  0.8809
  883MOL0     C19129   6.548   9.651   9.429 -0.2041 -0.5859  0.1871
  883MOL0     C19130   6.524   9.523   9.504 -0.2511 -0.5627 -0.3668
  883MOL0     C19131   6.456   9.557   9.637 -0.8172  0.5980 -0.4768
  883MOL0     C19132   6.429   9.423   9.715 -1.0576 -0.0067 -0.5804
  883MOL0     C19133   6.316   9.439   9.814 -0.3010 -0.0973  0.7826
  883MOL0     C19134   6.222   9.448   9.887 -0.2717  0.1931  0.1069
  883MOL0     C19135   6.852   9.778   9.586 -0.8006  0.5003  0.2157
  883MOL0     C19136   6.992   9.780   9.587 -0.6578 -0.0377  0.5590
  883MOL0     C19137   7.063   9.856   9.695 -0.8022  1.0839  0.3743
  883MOL0     H19138   7.334   9.754   9.219  0.1978 -1.0041 -1.4083
  883MOL0     H19139   7.577   9.754   9.122  1.6521 -1.0386 -0.2613
  883MOL0     H19140   7.723   9.523   8.996  1.3134 -0.1378 -2.9399
  883MOL0     H19141   7.772   9.690   9.015 -3.2294 -0.8777  1.2985
  883MOL0     H19142   7.935   9.562   8.893 -1.4193 -0.9158 -0.1302
  883MOL0     H19143   7.959   9.466   9.046 -1.4406  1.6739  6.0269
  883MOL0     H19144   8.025   9.719   9.131  0.4185  0.0879 -0.4813
  883MOL0     H19145   8.043   9.733   8.955 -0.2207  1.4263 -0.0122
  883MOL0     H19146   8.194   9.527   9.123 -1.4097 -0.2506 -0.4037
  883MOL0     H19147   8.202   9.541   8.948 -0.2040 -0.8331  0.7328
  883MOL0     H19148   8.258   9.787   8.965 -0.2650 -0.1260  0.2065
  883MOL0     H19149   8.254   9.788   9.133 -0.3239 -1.7143  1.0527
  883MOL0     H19150   8.478   9.770   9.085 -0.3227 -1.3443  2.2068
  883MOL0     H19151   8.432   9.612   9.138  0.3711  1.5838  1.8168
  883MOL0     H19152   8.481   9.710   8.850  0.0429 -0.8489 -1.1793
  883MOL0     H19153   8.413   9.549   8.883  3.0320 -1.1991 -2.7966
  883MOL0     H19154   8.626   9.515   9.036  1.3765  3.7052  2.4523
  883MOL0     H19155   8.652   9.508   8.858  0.5032 -1.9347  1.7723
  883MOL0     H19156   8.747   9.682   9.168 -1.2545 -1.6653 -0.7343
  883MOL0     H19157   8.875   9.987   9.154  1.0142  0.1421  0.0469
  883MOL0     H19158   8.977   9.868   9.200  1.5409  0.6409 -0.3594
  883MOL0     H19159   9.123   9.891   9.004 -0.5542 -0.8987  0.7578
  883MOL0     H19160   9.028  10.025   8.931  0.3418  0.6684 -0.3693
  883MOL0     H19161   9.140  10.059   9.211 -0.0110  0.6357  0.1678
  883MOL0     H19162   9.080  10.174   9.092 -1.0254 -1.2377  1.3161
  883MOL0     H19163   9.331  10.199   9.082  1.3990  0.7407 -1.9562
  883MOL0     H19164   9.265  10.134   8.945  0.3432 -2.0295 -0.0587
  883MOL0     H19165   9.519   9.790   9.051 -2.2990  1.9141  0.3651
  883MOL0     H19166   9.758   9.786   8.978  1.4973  1.5324  0.1740
  883MOL0     H19167  10.179  10.009   8.947  1.3168  0.6440 -0.0355
  883MOL0     H19168  10.394   9.990   8.844 -0.4735 -0.2926  0.5829
  883MOL0     H19169  10.358  10.026   8.467  1.2968  1.7001  2.4331
  883MOL0     H19170  10.528  10.022   8.473  0.4641 -0.2381  3.2343
  883MOL0     H19171  10.374   9.807   8.325  0.7922 -1.3224  2.9094
  883MOL0     H19172  10.487   9.936   8.269  0.7887  0.8066  0.9065
  883MOL0     H19173  10.679   9.832   8.384  0.6799 -0.0499  0.3952
  883MOL0     H19174  10.566   9.712   8.455 -0.0236 -0.6823 -0.1911
  883MOL0     H19175  10.652   9.741   8.173 -3.4245  0.0523 -1.0719
  883MOL0     H19176  10.516   9.646   8.214  0.7625  0.2625  0.9515
  883MOL0     H19177  10.643   9.496   8.356  1.8119 -2.0128 -0.3192
  883MOL0     H19178  10.784   9.595   8.352  0.0004  1.6799 -0.6059
  883MOL0     H19179  10.774   9.366   8.184  0.7403  0.0648 -0.9120
  883MOL0     H19180  10.651   9.461   8.107 -0.2954  1.1345  0.3003
  883MOL0     H19181  10.849   9.636   8.081 -1.4476 -0.0982  1.2425
  883MOL0     H19182  10.864   9.475   7.997  0.2465  1.0246 -0.4904
  883MOL0     H19183  10.985   9.533   8.270 -1.8410  3.3177 -0.3970
  883MOL0     H19184  11.016   9.397   8.152  0.8622  0.8404 -2.4994
  883MOL0     H19185  10.236   9.763   8.516  1.3397  0.0624 -0.2260
  883MOL0     H19186  10.010   9.763   8.638 -0.2374 -0.2480  0.9442
  883MOL0     H19187   9.723  10.204   8.869  0.8169 -1.2494 -2.0160
  883MOL0     H19188   9.505  10.211   8.966  1.3908  1.6319  1.6258
  883MOL0     H19189   7.658   9.405   9.374  0.6506 -0.2520 -0.9130
  883MOL0     H19190   7.428   9.417   9.456 -0.5568  0.6988  0.6722
  883MOL0     H19191   7.032   9.579   9.312 -1.4036 -3.5765  0.6702
  883MOL0     H19192   6.799   9.574   9.317 -1.1250 -0.3881  0.1008
  883MOL0     H19193   6.575   9.630   9.325 -0.3169  0.3302 -0.0375
  883MOL0     H19194   6.458   9.714   9.429  0.3325  0.3633 -3.3615
  883MOL0     H19195   6.616   9.467   9.526  0.0651  0.0718 -0.0618
  883MOL0     H19196   6.466   9.452   9.445  0.0612  0.8691 -2.5359
  883MOL0     H19197   6.360   9.607   9.618 -1.4804 -1.0244 -1.6066
  883MOL0     H19198   6.513   9.625   9.701  1.3228 -0.3688 -1.2733
  883MOL0     H19199   6.434   9.344   9.640 -0.8857 -0.9209  0.3794
  883MOL0     H19200   6.513   9.412   9.783 -2.1001  2.4464  1.2634
  883MOL0     H19201   6.132   9.459   9.945 -2.1771 -0.7259 -2.5075
  883MOL0     H19202   6.800   9.837   9.661  0.7322  0.9639  0.9577
  883MOL0     H19203   7.145   9.913   9.650  0.1930 -1.4630 -1.3526
  883MOL0     H19204   6.994   9.927   9.741 -1.8854 -0.9392  2.0646
  883MOL0     H19205   7.100   9.785   9.770  0.3324  0.5952 -0.6161
  884MOL0     O19206   3.400   8.276   9.462  0.0914 -0.0767  0.3028
  884MOL0     C19207   3.317   8.197   9.408  0.1790 -0.4540  0.9122
  884MOL0     O19208   3.315   8.065   9.409 -0.5712  0.3974 -0.3460
  884MOL0     C19209   3.418   7.999   9.484 -0.0061 -0.0160  0.5452
  884MOL0     C19210   3.380   7.946   9.607  0.6108  0.9191 -0.4190
  884MOL0     C19211   3.477   7.880   9.694  0.9558  0.5276 -0.3048
  884MOL0     C19212   3.604   7.859   9.644 -0.0071 -0.0317 -0.7510
  884MOL0     O19213   3.707   7.793   9.709 -0.0880  0.1167 -0.4983
  884MOL0     C19214   3.679   7.721   9.834  0.3553 -0.6681 -0.3979
  884MOL0     C19215   3.800   7.647   9.870 -0.0224  0.3480 -0.4257
  884MOL0     C19216   3.775   7.550   9.987  0.5917 -0.0784 -0.3198
  884MOL0     C19217   3.888   7.451  10.008 -0.3800 -0.0922 -0.0473
  884MOL0     C19218   4.001   7.523  10.083  0.0078  0.5461 -0.0313
  884MOL0     C19219   4.009   7.482  10.230  0.9090 -0.2310 -0.6235
  884MOL0     C19220   4.099   7.563  10.327  0.1606  0.2365  0.9083
  884MOL0     C19221   4.242   7.564  10.275 -1.0610 -0.1713 -0.2350
  884MOL0     N19222   4.352   7.597  10.387  0.1326 -1.1724 -0.6709
  884MOL0     C19223   4.375   7.524  10.500  0.3917  1.2373 -0.5707
  884MOL0     C19224   4.496   7.574  10.537 -0.4334  0.6095 -0.5155
  884MOL0     C19225   4.578   7.534  10.658 -0.0605  0.2509 -0.8591
  884MOL0     C19226   4.507   7.551  10.804  0.7370 -0.0718 -0.5503
  884MOL0     C19227   4.484   7.698  10.835  0.2440  0.1237 -0.3925
  884MOL0     C19228   4.614   7.780  10.836  0.3735  0.3333  0.7053
  884MOL0     O19229   4.728   7.722  10.914 -0.0767  0.2254 -0.0568
  884MOL0     C19230   4.851   7.771  10.883 -0.1444 -0.2998 -0.5145
  884MOL0     C19231   4.963   7.694  10.908  0.5386 -0.9825  0.0745
  884MOL0     C19232   5.099   7.732  10.887  0.0819 -0.6114 -0.6676
  884MOL0     C19233   5.120   7.867  10.849 -0.8044 -0.5098 -0.9903
  884MOL0     C19234   5.260   7.912  10.822  0.2625 -0.4920  0.8852
  884MOL0     O19235   5.345   7.811  10.785 -0.1412 -0.1393 -0.6707
  884MOL0     C19236   5.479   7.837  10.778  0.2014  0.7151 -0.5944
  884MOL0     C19237   5.555   7.818  10.663 -0.3209 -0.2358  0.8162
  884MOL0     C19238   5.693   7.848  10.663  0.3199 -0.1100  0.4324
  884MOL0     C19239   5.751   7.888  10.781  0.0730 -0.0211 -0.1338
  884MOL0     O19240   5.881   7.933  10.761 -0.2397  0.0951  0.1161
  884MOL0     C19241   5.975   7.931  10.868 -0.1057 -0.4195  0.2232
  884MOL0     C19242   6.116   7.959  10.829 -0.6093  0.3637 -0.1883
  884MOL0     C19243   6.136   8.035  10.696  0.6534  0.0820  0.3209
  884MOL0     C19244   6.275   8.100  10.665  0.3568  0.8312 -0.5281
  884MOL0     C19245   6.392   8.000  10.655  0.3013 -0.4463  0.6395
  884MOL0     C19246   6.523   8.062  10.596 -0.1052 -0.2322 -0.0756
  884MOL0     C19247   6.633   7.958  10.587  0.5602 -0.6087  1.4803
  884MOL0     C19248   6.753   8.015  10.503 -0.1381  0.5682  0.8923
  884MOL0    Cl19249   6.719   8.022  10.321 -0.4911  0.1224 -0.3193
  884MOL0     C19250   5.681   7.900  10.897  0.1015  0.1697 -0.0567
  884MOL0     C19251   5.545   7.873  10.897 -0.0156  0.3126 -0.4777
  884MOL0     O19252   5.282   8.032  10.814 -0.0711 -0.4323 -0.5268
  884MOL0     C19253   5.014   7.946  10.824 -1.2137  0.0963  0.0173
  884MOL0     C19254   4.877   7.900  10.830  0.0258 -0.2248  0.2530
  884MOL0     N19255   4.545   7.675  10.447  1.3143 -0.1345 -0.0919
  884MOL0     N19256   4.450   7.686  10.355  0.3992 -0.0775  0.4806
  884MOL0     C19257   3.634   7.915   9.520  0.2086  0.0663  0.4553
  884MOL0     C19258   3.546   7.985   9.438 -0.0493  0.2497 -0.4548
  884MOL0     C19259   3.224   8.247   9.304 -0.4966 -1.3555  0.1543
  884MOL0     C19260   3.151   8.154   9.227  0.2261  0.2183  0.5726
  884MOL0     C19261   3.071   8.193   9.119 -1.0767 -0.3970  0.2947
  884MOL0     C19262   3.044   8.328   9.096  0.0233  0.2510 -0.1479
  884MOL0     O19263   2.973   8.377   8.987  0.4334 -0.3495 -0.4364
  884MOL0     C19264   2.833   8.355   9.001 -0.3835 -0.0050 -0.7641
  884MOL0     C19265   2.751   8.470   8.935  0.5635 -0.0454 -0.4642
  884MOL0     C19266   2.612   8.430   8.878 -0.5425  0.5214 -0.2171
  884MOL0     C19267   2.562   8.526   8.764  0.0490 -0.4304  0.1044
  884MOL0     C19268   2.421   8.487   8.747 -0.5502  0.3120  0.6221
  884MOL0     C19269   2.307   8.449   8.736  0.3453  0.8673 -0.1568
  884MOL0     C19270   3.113   8.422   9.166  0.0995  0.0830  0.3024
  884MOL0     C19271   3.197   8.387   9.270 -0.5393  0.7319 -0.0819
  884MOL0     C19272   3.286   8.498   9.327  0.4142 -0.2332 -0.0815
  884MOL0     H19273   3.273   7.946   9.627  0.5936 -2.1863 -0.0961
  884MOL0     H19274   3.459   7.825   9.785  0.0325 -0.1143 -0.8610
  884MOL0     H19275   3.646   7.785   9.916  0.7217  1.9640 -2.1800
  884MOL0     H19276   3.601   7.645   9.822 -0.0400 -0.3248 -0.0579
  884MOL0     H19277   3.884   7.713   9.894  0.8705 -1.3380  1.4252
  884MOL0     H19278   3.833   7.587   9.785 -1.1058 -0.2672 -0.4320
  884MOL0     H19279   3.687   7.490   9.960 -0.3948  1.2159 -0.0560
  884MOL0     H19280   3.757   7.605  10.080  1.6337  0.4731 -0.4386
  884MOL0     H19281   3.857   7.357  10.054 -1.7949 -0.5488 -1.7939
  884MOL0     H19282   3.917   7.414   9.909 -3.0029 -2.0506 -0.1951
  884MOL0     H19283   4.099   7.500  10.041  0.3193 -0.2874  1.1106
  884MOL0     H19284   3.972   7.629  10.079 -5.4876 -0.6689  0.2077
  884MOL0     H19285   3.908   7.480  10.273  0.1712  0.4978 -2.2622
  884MOL0     H19286   4.032   7.375  10.238  0.6872 -0.1771  1.4428
  884MOL0     H19287   4.103   7.516  10.426 -1.3042 -1.7729  0.0601
  884MOL0     H19288   4.064   7.666  10.342 -0.1267  0.1694  0.6911
  884MOL0     H19289   4.264   7.463  10.239 -1.1587  0.3155 -1.7228
  884MOL0     H19290   4.247   7.632  10.190  2.4259  2.1968  1.5998
  884MOL0     H19291   4.322   7.441  10.544  1.2645  0.3134 -1.2183
  884MOL0     H19292   4.605   7.429  10.644 -1.2906 -0.0645 -1.0606
  884MOL0     H19293   4.670   7.592  10.657 -0.6161  1.1598 -0.9062
  884MOL0     H19294   4.412   7.498  10.812 -0.7116  2.4395 -0.0167
  884MOL0     H19295   4.567   7.498  10.879 -2.9030  0.3095  2.9307
  884MOL0     H19296   4.440   7.709  10.934 -1.4318 -2.6575 -0.7141
  884MOL0     H19297   4.408   7.728  10.762 -1.5627  0.3859  1.5300
  884MOL0     H19298   4.588   7.876  10.883 -1.0841  1.1203 -1.5183
  884MOL0     H19299   4.632   7.799  10.729 -1.5784 -2.5729 -0.2515
  884MOL0     H19300   4.951   7.595  10.949 -0.0607 -0.5891  0.8845
  884MOL0     H19301   5.182   7.668  10.913  1.6711  0.7599 -2.1553
  884MOL0     H19302   5.507   7.779  10.574 -1.9280 -1.8612  2.3170
  884MOL0     H19303   5.752   7.827  10.574  0.6636  0.4785  0.5143
  884MOL0     H19304   5.954   8.016  10.933  1.1873  1.6715 -1.9640
  884MOL0     H19305   5.964   7.838  10.925  0.0619  1.1538  3.0397
  884MOL0     H19306   6.163   8.017  10.908 -2.3486  0.8282  0.5459
  884MOL0     H19307   6.171   7.864  10.827 -1.2989 -0.0712  0.8063
  884MOL0     H19308   6.108   7.971  10.612  4.7354  0.7246 -1.7480
  884MOL0     H19309   6.071   8.123  10.697  0.0068 -0.3891  0.7887
  884MOL0     H19310   6.294   8.172  10.745 -0.5997  1.5371 -0.9134
  884MOL0     H19311   6.265   8.152  10.569  3.1078  2.1635 -0.1899
  884MOL0     H19312   6.362   7.909  10.602  2.1424 -0.6918 -0.0812
  884MOL0     H19313   6.408   7.960  10.755  0.0107  1.6086  1.5605
  884MOL0     H19314   6.498   8.105  10.498 -0.4356 -1.1441 -0.4018
  884MOL0     H19315   6.562   8.144  10.658 -1.0231  0.5570 -0.5061
  884MOL0     H19316   6.601   7.869  10.531 -1.9370  2.0312 -1.7296
  884MOL0     H19317   6.668   7.930  10.686  0.1191 -0.6579  1.6253
  884MOL0     H19318   6.786   8.108  10.551 -1.2721  0.6111  1.6257
  884MOL0     H19319   6.840   7.949  10.512  0.0825  0.3905 -1.8172
  884MOL0     H19320   5.733   7.936  10.985  0.3400 -0.1035 -0.0831
  884MOL0     H19321   5.482   7.881  10.985  1.3562  1.6811  0.4279
  884MOL0     H19322   5.035   8.048  10.795  1.4600 -0.1416  0.8615
  884MOL0     H19323   4.794   7.963  10.800 -0.1826 -1.0042 -0.8970
  884MOL0     H19324   3.734   7.909   9.480 -0.4540  3.5293 -2.2425
  884MOL0     H19325   3.587   8.034   9.350  1.0775 -1.9779 -1.2454
  884MOL0     H19326   3.156   8.045   9.230 -0.8429  0.0440 -2.0996
  884MOL0     H19327   3.022   8.121   9.054 -0.7304  1.5253 -2.2353
  884MOL0     H19328   2.797   8.351   9.104 -0.9653  2.2362 -0.8268
  884MOL0     H19329   2.801   8.256   8.967  0.7746 -1.9079  3.2178
  884MOL0     H19330   2.807   8.493   8.844 -1.4734  0.9510 -1.5248
  884MOL0     H19331   2.744   8.567   8.985 -0.7026 -0.2366 -0.2288
  884MOL0     H19332   2.542   8.435   8.962 -0.9505 -0.3268 -0.4884
  884MOL0     H19333   2.621   8.328   8.838 -2.9849  0.2398 -0.2466
  884MOL0     H19334   2.559   8.630   8.795 -0.2501 -0.3231 -0.2728
  884MOL0     H19335   2.622   8.497   8.677 -4.2031 -0.9169 -3.0078
  884MOL0     H19336   2.206   8.414   8.738  0.9700 -1.1134 -0.6295
  884MOL0     H19337   3.094   8.527   9.147 -0.0993 -0.2112 -1.3076
  884MOL0     H19338   3.243   8.597   9.306  0.9773 -0.2144 -1.2582
  884MOL0     H19339   3.288   8.501   9.436 -0.4671 -2.5015  0.0539
  884MOL0     H19340   3.389   8.509   9.290 -0.0407 -0.6287 -1.5483
  885MOL0     O19341   1.152  10.448   6.826 -0.3517 -0.1162 -0.2260
  885MOL0     C19342   1.114  10.388   6.927 -0.4571  0.3520 -0.2546
  885MOL0     O19343   1.203  10.316   7.001 -0.2951  0.5111  0.3438
  885MOL0     C19344   1.338  10.291   6.953 -0.2053  0.3044 -0.7456
  885MOL0     C19345   1.430  10.301   7.055 -0.3748  0.4198  0.4094
  885MOL0     C19346   1.563  10.251   7.046  0.3089  0.0166 -0.3551
  885MOL0     C19347   1.604  10.193   6.922  0.4575  0.2697  0.0258
  885MOL0     O19348   1.725  10.147   6.893  0.2357 -0.2590  0.1901
  885MOL0     C19349   1.840  10.204   6.961  0.2380  0.4529  0.1288
  885MOL0     C19350   1.856  10.353   6.927  0.4147  0.2644 -0.1597
  885MOL0     C19351   1.890  10.369   6.776 -0.3601 -0.0788  1.1500
  885MOL0     C19352   1.935  10.517   6.745  0.4298 -0.9643 -0.4381
  885MOL0     C19353   1.835  10.633   6.754  0.0837  0.3464  0.3124
  885MOL0     C19354   1.716  10.622   6.662  0.6763  0.2705  0.2673
  885MOL0     C19355   1.609  10.716   6.707  0.1124  0.2557  0.3215
  885MOL0     C19356   1.478  10.660   6.679  0.0168  0.2129 -0.2530
  885MOL0     N19357   1.440  10.654   6.538 -0.7585  0.4205  0.0061
  885MOL0     C19358   1.397  10.756   6.469  0.8192 -0.0814 -1.4527
  885MOL0     C19359   1.356  10.703   6.349  0.0833 -0.5644 -0.2613
  885MOL0     C19360   1.318  10.798   6.236 -0.3781  0.4071  0.4172
  885MOL0     C19361   1.423  10.879   6.178  0.1877 -0.7839  1.1712
  885MOL0     C19362   1.376  10.981   6.074 -0.9729 -0.1184  0.5773
  885MOL0     C19363   1.479  11.089   6.036 -0.5511  0.6708 -0.1647
  885MOL0     O19364   1.588  11.007   5.986 -0.0028 -0.3012 -0.0248
  885MOL0     C19365   1.661  11.077   5.892 -0.2305  0.6539 -0.0695
  885MOL0     C19366   1.727  11.199   5.909 -0.1351 -0.0730 -0.0381
  885MOL0     C19367   1.822  11.239   5.818  0.7568  0.5398 -0.5776
  885MOL0     C19368   1.859  11.158   5.710  0.1028 -0.0207 -0.9100
  885MOL0     C19369   1.973  11.188   5.621 -1.1037 -0.6479 -0.6946
  885MOL0     O19370   2.001  11.105   5.517 -0.8346  0.7533  0.6785
  885MOL0     C19371   2.115  11.125   5.439  0.5438  0.3320  0.2428
  885MOL0     C19372   2.242  11.118   5.491  0.0245 -0.0289  0.2761
  885MOL0     C19373   2.348  11.149   5.402  0.2967  0.0695  0.0078
  885MOL0     C19374   2.332  11.171   5.267  0.5458 -0.0263 -0.2436
  885MOL0     O19375   2.430  11.209   5.185 -0.4851  0.3685  0.5615
  885MOL0     C19376   2.423  11.189   5.043 -0.1014  0.1903 -1.0051
  885MOL0     C19377   2.535  11.252   4.968 -0.2818 -0.6967 -0.3408
  885MOL0     C19378   2.667  11.191   4.996 -0.8700 -0.5529 -0.0423
  885MOL0     C19379   2.759  11.206   4.871 -0.0275 -1.0230 -0.2343
  885MOL0     C19380   2.900  11.143   4.889  0.1397  0.0429 -0.3743
  885MOL0     C19381   2.889  10.994   4.880  0.2541 -0.1721 -0.0010
  885MOL0     C19382   3.025  10.921   4.861 -0.2822  0.6051  0.8592
  885MOL0     C19383   3.014  10.776   4.872  0.2720 -0.8257  0.6591
  885MOL0    Cl19384   2.905  10.706   4.745  0.2646 -0.2295 -0.2601
  885MOL0     C19385   2.200  11.149   5.210  0.7252  0.0585 -0.2651
  885MOL0     C19386   2.093  11.129   5.302  0.2590  0.8183  0.5876
  885MOL0     O19387   2.040  11.291   5.643 -0.3064  0.2642  0.4602
  885MOL0     C19388   1.788  11.041   5.689 -0.5266  1.0594  0.6408
  885MOL0     C19389   1.684  11.000   5.777  0.4647  0.4691 -0.4266
  885MOL0     N19390   1.375  10.568   6.359 -0.1515  0.3539 -0.7037
  885MOL0     N19391   1.422  10.538   6.473 -0.1674 -1.0355  0.1458
  885MOL0     C19392   1.510  10.195   6.819 -0.2106 -0.0082  0.4997
  885MOL0     C19393   1.382  10.246   6.829 -0.8885  0.1170  0.6338
  885MOL0     C19394   0.972  10.392   6.961 -0.1929  0.8294  0.1658
  885MOL0     C19395   0.875  10.451   6.872 -0.1506 -0.3992  0.3516
  885MOL0     C19396   0.739  10.441   6.891 -0.1078 -0.4493  0.1849
  885MOL0     C19397   0.689  10.382   6.999 -0.6711 -0.2529 -0.7449
  885MOL0     O19398   0.550  10.394   7.027 -0.2445 -0.2283 -0.1385
  885MOL0     C19399   0.497  10.293   7.117 -0.3818  0.4711 -0.3831
  885MOL0     C19400   0.344  10.295   7.125 -0.2434  0.3638 -0.1087
  885MOL0     C19401   0.293  10.200   7.240 -0.5693 -0.0924 -0.8712
  885MOL0     C19402   0.146  10.224   7.253 -0.1620 -0.4087  0.3049
  885MOL0     C19403   0.114  10.175   7.385  0.3252 -1.3794 -0.4953
  885MOL0     C19404   0.082  10.117   7.481 -0.2551  0.1416 -0.4476
  885MOL0     C19405   0.772  10.323   7.089 -0.7973 -0.2806 -0.0530
  885MOL0     C19406   0.910  10.312   7.075  0.0356 -0.9096 -0.0663
  885MOL0     C19407   0.988  10.232   7.180 -0.0251  0.5911  0.1496
  885MOL0     H19408   1.387  10.340   7.146  1.7989  2.8368  0.5120
  885MOL0     H19409   1.620  10.266   7.137 -0.5627 -0.8929  0.3603
  885MOL0     H19410   1.832  10.182   7.068 -0.1525 -2.1958 -0.3734
  885MOL0     H19411   1.931  10.150   6.933 -2.3077 -3.2154 -1.8853
  885MOL0     H19412   1.929  10.405   6.991  0.8861  2.3008 -2.2266
  885MOL0     H19413   1.761  10.402   6.949  1.3223  1.7614  0.6425
  885MOL0     H19414   1.807  10.338   6.713  1.9141  0.3316 -2.3239
  885MOL0     H19415   1.970  10.305   6.738  0.0170  0.5211  0.9268
  885MOL0     H19416   2.023  10.536   6.806 -0.1526  0.3729  0.0436
  885MOL0     H19417   1.974  10.510   6.643  0.2374  0.1876 -0.6113
  885MOL0     H19418   1.810  10.615   6.859  0.0909  2.9923  0.8416
  885MOL0     H19419   1.879  10.733   6.761 -0.6871  0.7438 -0.3500
  885MOL0     H19420   1.746  10.650   6.560  0.7560  0.4303  0.3359
  885MOL0     H19421   1.693  10.515   6.657  2.3592 -0.2807  2.7010
  885MOL0     H19422   1.620  10.802   6.642 -0.0588  0.9157  1.1502
  885MOL0     H19423   1.612  10.736   6.815  0.4807 -1.2251  0.6174
  885MOL0     H19424   1.469  10.558   6.717 -1.1516  1.1502  2.1608
  885MOL0     H19425   1.406  10.725   6.729  0.7540  0.0149  1.0943
  885MOL0     H19426   1.397  10.863   6.486  3.2517 -0.1438 -0.6174
  885MOL0     H19427   1.271  10.738   6.156 -1.8828  2.9961 -0.7789
  885MOL0     H19428   1.232  10.861   6.258 -0.2324  0.7063  0.1380
  885MOL0     H19429   1.468  10.931   6.264  0.8434  0.4439  0.1096
  885MOL0     H19430   1.508  10.821   6.142  0.6825  0.7214 -0.1951
  885MOL0     H19431   1.286  11.028   6.114 -0.8504 -0.4025  1.1886
  885MOL0     H19432   1.340  10.925   5.987 -0.3661 -0.6867  0.6847
  885MOL0     H19433   1.501  11.167   6.109 -1.4457  0.9648 -0.1894
  885MOL0     H19434   1.430  11.141   5.953 -4.2815  0.9712  1.9933
  885MOL0     H19435   1.713  11.249   6.004  0.0364 -0.9405  0.4551
  885MOL0     H19436   1.864  11.337   5.834  1.5220  0.3891 -1.5730
  885MOL0     H19437   2.250  11.109   5.599 -0.1639 -2.0847  0.1526
  885MOL0     H19438   2.446  11.154   5.447 -0.5812 -1.6764  2.3163
  885MOL0     H19439   2.428  11.081   5.026  1.0278  0.6100 -3.8938
  885MOL0     H19440   2.329  11.225   4.998 -0.7557 -0.0317  0.1326
  885MOL0     H19441   2.515  11.245   4.861  1.8872 -4.1311 -0.6760
  885MOL0     H19442   2.528  11.358   4.994 -0.8271 -0.7804 -0.1308
  885MOL0     H19443   2.707  11.244   5.083 -0.5482  0.4299 -0.7742
  885MOL0     H19444   2.646  11.086   5.019 -0.9301 -0.3146  1.0682
  885MOL0     H19445   2.785  11.312   4.861  2.5199 -1.3615  1.8250
  885MOL0     H19446   2.709  11.176   4.779  3.2224  1.0432 -2.9078
  885MOL0     H19447   2.934  11.174   4.988 -2.5238  2.5639 -0.1141
  885MOL0     H19448   2.964  11.190   4.814  0.1788 -0.2487 -0.5245
  885MOL0     H19449   2.840  10.953   4.970  0.1828  1.2509  0.6321
  885MOL0     H19450   2.831  10.966   4.791 -0.3127  2.5644 -0.5770
  885MOL0     H19451   3.105  10.953   4.929 -0.2111  1.2815  0.4685
  885MOL0     H19452   3.073  10.928   4.762  0.1228 -2.1549  0.7685
  885MOL0     H19453   3.113  10.730   4.877  0.7433  0.2273  1.2651
  885MOL0     H19454   2.958  10.751   4.963 -2.6556  0.7300 -0.5684
  885MOL0     H19455   2.171  11.166   5.107  1.3040  2.4673 -0.0752
  885MOL0     H19456   1.985  11.123   5.287  0.2474 -3.9103  0.9722
  885MOL0     H19457   1.816  10.983   5.602  0.1519  2.2314  0.0425
  885MOL0     H19458   1.637  10.903   5.763  2.2444 -0.5559  0.3511
  885MOL0     H19459   1.551  10.159   6.725 -0.6990 -2.9195  1.2857
  885MOL0     H19460   1.309  10.241   6.749  0.8476 -1.1065 -0.9338
  885MOL0     H19461   0.911  10.500   6.782 -1.8331  0.5033  0.1225
  885MOL0     H19462   0.674  10.498   6.827  0.2673 -1.8211 -1.4970
  885MOL0     H19463   0.542  10.302   7.216 -0.5028  1.8722 -0.4366
  885MOL0     H19464   0.520  10.191   7.087 -0.9854 -0.4668  2.0960
  885MOL0     H19465   0.306  10.258   7.029  0.7436 -2.2668  0.4355
  885MOL0     H19466   0.302  10.394   7.146 -0.5852 -0.3363  3.0173
  885MOL0     H19467   0.361  10.212   7.325 -1.0039  4.1867 -0.9076
  885MOL0     H19468   0.308  10.101   7.197 -2.3013  0.9719 -4.3619
  885MOL0     H19469   0.114  10.328   7.240 -0.0333 -0.4955 -0.8532
  885MOL0     H19470   0.086  10.170   7.179 -0.1800 -1.3499  0.9996
  885MOL0     H19471   0.044  10.060   7.564  0.2909  1.9339  1.0889
  885MOL0     H19472   0.736  10.279   7.181  0.2845  1.0419  1.0563
  885MOL0     H19473   1.024  10.305   7.253 -1.0476  1.2824 -0.0119
  885MOL0     H19474   0.923  10.164   7.235  1.0757 -0.4444  0.2365
  885MOL0     H19475   1.067  10.166   7.141 -1.6222 -0.7761 -0.9060
  886MOL0     O19476   4.796   7.815   3.554 -0.1621  0.0880  0.3026
  886MOL0     C19477   4.696   7.851   3.614  0.3879  0.4196 -0.8562
  886MOL0     O19478   4.702   7.953   3.709  0.4884  0.1260 -0.0753
  886MOL0     C19479   4.825   7.998   3.734 -0.5369 -0.7171 -0.0087
  886MOL0     C19480   4.875   8.000   3.865  0.8843 -0.4703  0.9724
  886MOL0     C19481   4.993   8.057   3.894 -0.1703  0.6057 -0.7003
  886MOL0     C19482   5.077   8.104   3.800 -0.1273 -0.4841 -0.5549
  886MOL0     O19483   5.199   8.151   3.836 -0.6114 -0.4484 -0.0015
  886MOL0     C19484   5.289   8.191   3.726  0.2003 -0.5970 -0.3004
  886MOL0     C19485   5.427   8.227   3.786 -0.2953 -0.2369  0.1818
  886MOL0     C19486   5.531   8.115   3.762 -0.1266 -0.4928  0.1092
  886MOL0     C19487   5.526   8.005   3.871 -0.9340 -0.1563  0.6216
  886MOL0     C19488   5.601   7.879   3.814  0.8089 -0.5618 -0.1177
  886MOL0     C19489   5.749   7.907   3.794 -0.1925  0.6568 -0.0508
  886MOL0     C19490   5.838   7.781   3.799  0.6987 -0.2301 -0.2695
  886MOL0     C19491   5.793   7.682   3.688 -0.8188 -0.2017 -0.3139
  886MOL0     N19492   5.894   7.578   3.679  0.1341  0.9614 -0.8654
  886MOL0     C19493   5.863   7.445   3.669 -0.0728  0.3955 -0.0014
  886MOL0     C19494   5.975   7.387   3.623  0.1256  0.6096  0.4652
  886MOL0     C19495   5.988   7.243   3.616  0.2163 -0.0451  0.9192
  886MOL0     C19496   6.132   7.191   3.642 -0.1738  0.5933 -0.7869
  886MOL0     C19497   6.129   7.035   3.657  0.2351  0.3832 -0.4415
  886MOL0     C19498   6.265   6.982   3.702  0.3584 -0.4162  0.1930
  886MOL0     O19499   6.311   7.038   3.826 -0.7076 -0.2504 -0.1482
  886MOL0     C19500   6.263   6.994   3.949 -0.6745  0.1813  0.1969
  886MOL0     C19501   6.338   7.039   4.057 -0.7941  0.8356 -1.0511
  886MOL0     C19502   6.302   6.996   4.187 -0.2107 -0.5427 -0.3005
  886MOL0     C19503   6.198   6.903   4.215  0.5409 -0.3878 -0.2053
  886MOL0     C19504   6.167   6.868   4.356  0.0393  0.2246  0.1832
  886MOL0     O19505   6.066   6.790   4.376 -0.3400 -0.8587  0.0729
  886MOL0     C19506   6.016   6.768   4.504 -0.3872  0.1504 -0.3842
  886MOL0     C19507   5.953   6.867   4.578 -0.0111 -0.3097 -0.3478
  886MOL0     C19508   5.906   6.838   4.710 -0.5612 -0.8082  0.1916
  886MOL0     C19509   5.923   6.713   4.768  1.4107 -0.6718  0.4167
  886MOL0     O19510   5.866   6.674   4.889  0.3109  0.0865 -0.8283
  886MOL0     C19511   5.793   6.771   4.971  0.1469  0.2327  0.2199
  886MOL0     C19512   5.657   6.806   4.924 -0.0439 -0.0626  0.2283
  886MOL0     C19513   5.569   6.680   4.933  0.2480  0.6070 -0.7537
  886MOL0     C19514   5.424   6.708   4.988  0.2191 -0.3149  0.6950
  886MOL0     C19515   5.421   6.750   5.136 -0.1572 -0.1743 -0.6874
  886MOL0     C19516   5.281   6.779   5.184 -0.1248  0.2557 -0.0882
  886MOL0     C19517   5.224   6.909   5.126  1.2186  0.3095  0.7191
  886MOL0     C19518   5.302   7.031   5.156  0.1437  0.3869  0.7789
  886MOL0    Cl19519   5.244   7.173   5.057 -0.0597  0.1265 -0.0837
  886MOL0     C19520   5.985   6.611   4.697  0.1044  0.7491  0.1382
  886MOL0     C19521   6.035   6.643   4.569 -0.2980  0.0404  0.1561
  886MOL0     O19522   6.233   6.924   4.443 -0.0182  0.0166  0.5012
  886MOL0     C19523   6.132   6.861   4.095 -0.3333  1.1135  0.3860
  886MOL0     C19524   6.166   6.898   3.961 -0.1740 -0.1583 -0.6095
  886MOL0     N19525   6.065   7.481   3.589 -0.2592 -0.2801  0.2932
  886MOL0     N19526   6.019   7.599   3.618 -0.0246  0.2873  0.2702
  886MOL0     C19527   5.024   8.117   3.664 -0.5098 -0.2723 -0.8616
  886MOL0     C19528   4.898   8.063   3.634 -0.2577  0.0511  0.3108
  886MOL0     C19529   4.561   7.799   3.578 -0.2569  0.4918 -1.0371
  886MOL0     C19530   4.449   7.883   3.607  0.5753  0.2414 -0.4840
  886MOL0     C19531   4.317   7.824   3.579 -0.1182  0.7625 -0.3225
  886MOL0     C19532   4.299   7.699   3.515  1.0694 -0.4110  0.5074
  886MOL0     O19533   4.173   7.640   3.491 -0.0344  0.2351 -0.4524
  886MOL0     C19534   4.048   7.716   3.519 -0.2182 -0.3649  0.6026
  886MOL0     C19535   3.933   7.691   3.426  0.1628 -0.2084 -0.1372
  886MOL0     C19536   3.924   7.790   3.300  0.1861 -0.1188 -0.6861
  886MOL0     C19537   3.790   7.781   3.223 -0.9666  0.1116 -0.8044
  886MOL0     C19538   3.687   7.826   3.313  0.0955 -0.2867 -0.2181
  886MOL0     C19539   3.587   7.871   3.368  0.0430 -0.3607 -0.1383
  886MOL0     C19540   4.406   7.629   3.485 -0.1091  0.3885  0.4846
  886MOL0     C19541   4.536   7.673   3.517 -0.3772 -0.1172  0.0101
  886MOL0     C19542   4.649   7.573   3.490 -0.8762 -0.7189 -0.2812
  886MOL0     H19543   4.807   7.967   3.944 -1.3720  0.4685 -0.4832
  886MOL0     H19544   5.036   8.054   3.994  0.8219 -0.4649 -1.1340
  886MOL0     H19545   5.283   8.120   3.643 -1.9334  1.5301 -2.0899
  886MOL0     H19546   5.245   8.284   3.688  0.2007 -1.0374 -1.4191
  886MOL0     H19547   5.417   8.258   3.891  1.5177  1.1483 -0.0179
  886MOL0     H19548   5.449   8.311   3.720  1.0785 -2.2689 -2.1036
  886MOL0     H19549   5.636   8.148   3.766 -0.1041 -0.6254  0.6610
  886MOL0     H19550   5.517   8.071   3.663  0.8209 -1.4047  0.3718
  886MOL0     H19551   5.582   8.030   3.962  1.4600  0.8543 -1.0282
  886MOL0     H19552   5.423   7.969   3.883 -0.1370 -3.1235 -0.6091
  886MOL0     H19553   5.588   7.798   3.887  1.4479 -0.4325  0.1396
  886MOL0     H19554   5.551   7.868   3.717 -2.0644  2.0404  0.8830
  886MOL0     H19555   5.763   7.967   3.704  0.2199 -0.8507 -1.0358
  886MOL0     H19556   5.785   7.977   3.870 -0.2448  0.9315 -0.2775
  886MOL0     H19557   5.829   7.731   3.896 -2.1808 -1.2935 -0.9931
  886MOL0     H19558   5.944   7.806   3.786  0.7209 -0.9655 -1.7246
  886MOL0     H19559   5.697   7.637   3.715 -0.5155 -1.0783 -0.6523
  886MOL0     H19560   5.793   7.719   3.585  1.9879 -0.0712 -0.3518
  886MOL0     H19561   5.771   7.396   3.700  1.9317 -1.3749  3.8916
  886MOL0     H19562   5.909   7.189   3.669 -0.4379  0.4293  0.4415
  886MOL0     H19563   5.985   7.216   3.510  1.2777 -0.8007  1.0639
  886MOL0     H19564   6.203   7.216   3.563  1.5674 -1.0737  0.1387
  886MOL0     H19565   6.166   7.232   3.738  0.7686 -0.9717 -0.4092
  886MOL0     H19566   6.102   6.986   3.563  1.0492 -0.5952 -0.1948
  886MOL0     H19567   6.052   7.003   3.728 -0.8227 -1.3682 -2.3031
  886MOL0     H19568   6.339   7.006   3.625 -0.4323 -0.9164 -0.7395
  886MOL0     H19569   6.261   6.873   3.705 -0.6573 -0.3872  3.7241
  886MOL0     H19570   6.425   7.099   4.029 -0.5116  0.6020 -0.6811
  886MOL0     H19571   6.366   7.034   4.266  0.8788  0.6356 -1.7071
  886MOL0     H19572   5.929   6.963   4.534  0.7500  0.9634  1.8655
  886MOL0     H19573   5.858   6.918   4.765  3.1927  2.0788 -0.2716
  886MOL0     H19574   5.795   6.729   5.072 -1.6772  0.2874  0.3092
  886MOL0     H19575   5.856   6.860   4.979  2.1420 -1.1373  0.7882
  886MOL0     H19576   5.603   6.892   4.963 -0.6282 -0.6505  0.7431
  886MOL0     H19577   5.664   6.838   4.820  2.9250 -0.0383  0.3511
  886MOL0     H19578   5.563   6.642   4.831 -0.1635 -0.3434 -0.3925
  886MOL0     H19579   5.620   6.600   4.988 -1.0226  0.0538 -0.3459
  886MOL0     H19580   5.362   6.618   4.977 -0.3439  0.1319  0.1790
  886MOL0     H19581   5.388   6.786   4.921 -0.2128 -0.4912  0.7217
  886MOL0     H19582   5.488   6.832   5.163  2.5603 -2.2166 -0.8116
  886MOL0     H19583   5.468   6.666   5.189  1.6552  2.1609  1.6828
  886MOL0     H19584   5.222   6.698   5.141  2.7208 -1.7661 -0.4883
  886MOL0     H19585   5.278   6.786   5.293  1.6458  0.3978 -0.0123
  886MOL0     H19586   5.126   6.906   5.173 -0.2717  2.5394 -1.9181
  886MOL0     H19587   5.220   6.894   5.017  2.5540 -2.5622  0.9599
  886MOL0     H19588   5.297   7.059   5.262 -0.7259  4.1539 -0.1048
  886MOL0     H19589   5.407   7.011   5.136 -0.4135 -2.8593  0.5376
  886MOL0     H19590   5.999   6.518   4.750  1.7986  1.7875  1.6183
  886MOL0     H19591   6.075   6.566   4.505 -1.7124 -0.0302 -0.6812
  886MOL0     H19592   6.051   6.790   4.108  1.0720 -0.9351 -1.3930
  886MOL0     H19593   6.110   6.862   3.875 -1.3200  3.0050 -1.3411
  886MOL0     H19594   5.079   8.155   3.578  0.5765 -2.7691 -1.3277
  886MOL0     H19595   4.847   8.069   3.539  0.2132  1.5531  0.1324
  886MOL0     H19596   4.446   7.979   3.658 -1.2953  1.7071 -3.1317
  886MOL0     H19597   4.234   7.880   3.621  0.2093 -0.7511  2.6008
  886MOL0     H19598   4.052   7.825   3.513 -0.0439 -0.4005 -0.0037
  886MOL0     H19599   4.026   7.701   3.625  0.2058  3.3599  1.3823
  886MOL0     H19600   3.845   7.704   3.490  1.1401  0.7552  1.0346
  886MOL0     H19601   3.933   7.586   3.395 -1.1534  0.0205 -1.0154
  886MOL0     H19602   4.013   7.766   3.242 -1.0449 -2.3528 -1.7519
  886MOL0     H19603   3.937   7.893   3.335  1.7947 -0.4889 -0.1326
  886MOL0     H19604   3.799   7.838   3.130 -1.5686  0.7048 -0.5040
  886MOL0     H19605   3.765   7.678   3.195 -2.5440  0.3044 -0.2166
  886MOL0     H19606   3.499   7.907   3.418 -0.3175  0.2884 -1.2160
  886MOL0     H19607   4.399   7.533   3.435  0.1986  1.9850 -2.8902
  886MOL0     H19608   4.606   7.481   3.449 -3.0512 -0.2417  0.7695
  886MOL0     H19609   4.714   7.618   3.415  0.5970 -3.3627 -0.7259
  886MOL0     H19610   4.700   7.536   3.579 -0.7461 -2.1391 -0.9082
  887MOL0     O19611  11.116   8.448   0.475  0.0811  0.1157 -0.2788
  887MOL0     C19612  11.148   8.382   0.570  0.0523  0.1078 -0.3943
  887MOL0     O19613  11.275   8.371   0.622  0.1606  0.6514  0.5211
  887MOL0     C19614  11.361   8.466   0.592 -1.0462 -0.1790 -0.5399
  887MOL0     C19615  11.493   8.422   0.587 -0.0820  0.7550 -0.1177
  887MOL0     C19616  11.603   8.507   0.565 -0.1205  0.4878 -0.1714
  887MOL0     C19617  11.585   8.640   0.519  0.0231 -0.3199 -0.4365
  887MOL0     O19618  11.680   8.735   0.486  0.2910  0.8073  0.0836
  887MOL0     C19619  11.812   8.693   0.506 -0.0138 -0.5362  0.3722
  887MOL0     C19620  11.900   8.807   0.466 -0.4621  0.4929 -0.3837
  887MOL0     C19621  12.037   8.810   0.533 -0.2180 -0.3175 -0.9178
  887MOL0     C19622  12.116   8.940   0.512  0.0891  0.4875 -0.1356
  887MOL0     C19623  12.252   8.937   0.585  0.1915  0.0543 -0.5267
  887MOL0     C19624  12.316   9.077   0.619 -0.3732 -0.0273  0.1506
  887MOL0     C19625  12.458   9.053   0.672  0.8244 -0.3736  0.4715
  887MOL0     C19626  12.498   9.182   0.733  0.6773 -0.2600 -0.0613
  887MOL0     N19627  12.643   9.198   0.720 -0.1135  0.5497 -0.2231
  887MOL0     C19628  12.708   9.218   0.604  0.1430 -0.4769  0.3001
  887MOL0     C19629  12.842   9.181   0.622 -0.9216  0.1576  0.3258
  887MOL0     C19630  12.943   9.203   0.513  0.9463  0.0264  0.4952
  887MOL0     C19631  13.056   9.290   0.559 -0.3080 -0.0355  0.2567
  887MOL0     C19632  13.185   9.287   0.473 -0.5550 -0.0167  0.4593
  887MOL0     C19633  13.289   9.391   0.534  0.3887 -0.1291  0.4826
  887MOL0     O19634  13.411   9.384   0.467 -0.3640 -0.4354  0.0388
  887MOL0     C19635  13.502   9.489   0.484  0.2644 -0.2696  0.2424
  887MOL0     C19636  13.511   9.572   0.599  0.1947  0.0067 -0.2887
  887MOL0     C19637  13.589   9.690   0.612  0.0405  0.5203  0.3698
  887MOL0     C19638  13.685   9.712   0.520 -0.1081  0.9656 -0.5539
  887MOL0     C19639  13.785   9.822   0.536 -1.0410  0.8027 -0.1119
  887MOL0     O19640  13.898   9.822   0.462 -0.1956  0.1144  0.2206
  887MOL0     C19641  13.989   9.924   0.478 -0.7547  0.1246  0.6194
  887MOL0     C19642  13.989  10.046   0.548  0.7486  0.2696 -0.0425
  887MOL0     C19643  14.092  10.137   0.542 -0.2097 -0.0563  0.5621
  887MOL0     C19644  14.202  10.117   0.457 -0.2167  0.3646 -0.3252
  887MOL0     O19645  14.303  10.203   0.461  0.2967  0.8372  0.1857
  887MOL0     C19646  14.387  10.171   0.567  0.0162  0.1706  0.1352
  887MOL0     C19647  14.484  10.294   0.585  0.0169 -0.2342 -0.4540
  887MOL0     C19648  14.621  10.249   0.631  0.2364  0.7932  0.3805
  887MOL0     C19649  14.721  10.361   0.650 -0.1770  0.3227 -0.3177
  887MOL0     C19650  14.864  10.300   0.647 -0.1877 -0.0188  1.1452
  887MOL0     C19651  14.971  10.406   0.690 -0.7200  0.1386 -0.0977
  887MOL0     C19652  15.115  10.350   0.679  0.5835  0.2589 -1.2205
  887MOL0     C19653  15.167  10.319   0.823 -0.5884 -0.5126  0.4402
  887MOL0    Cl19654  15.219  10.485   0.888 -0.1579 -0.0268  0.1125
  887MOL0     C19655  14.205   9.990   0.384  0.0003 -0.1510 -0.8975
  887MOL0     C19656  14.102   9.900   0.396 -0.6097  0.1750 -0.6467
  887MOL0     O19657  13.760   9.900   0.629 -0.3148 -0.2767  0.0622
  887MOL0     C19658  13.687   9.623   0.406 -0.5738  0.0536 -0.6828
  887MOL0     C19659  13.588   9.522   0.381 -0.2208  0.0618 -0.0434
  887MOL0     N19660  12.845   9.123   0.743 -0.3204 -0.0332  0.0925
  887MOL0     N19661  12.732   9.134   0.804 -0.5256  0.2812 -0.4994
  887MOL0     C19662  11.455   8.693   0.521  0.3650  0.4998  0.4150
  887MOL0     C19663  11.340   8.608   0.554  0.1430  0.2663 -0.5762
  887MOL0     C19664  11.048   8.280   0.615 -0.3208  0.2752 -0.3491
  887MOL0     C19665  11.094   8.161   0.668  0.0047 -0.6839  0.3455
  887MOL0     C19666  11.012   8.067   0.718  0.2197  0.3516  0.2129
  887MOL0     C19667  10.873   8.072   0.714  0.5492  0.4222 -0.3330
  887MOL0     O19668  10.798   7.963   0.765 -0.5918 -0.1301 -0.3442
  887MOL0     C19669  10.653   7.973   0.775 -0.3976  0.5666 -0.1632
  887MOL0     C19670  10.569   7.845   0.798 -0.4760 -0.1831  0.2171
  887MOL0     C19671  10.576   7.754   0.687 -0.6847 -0.0064  0.1312
  887MOL0     C19672  10.520   7.615   0.728  1.1473 -0.2077 -0.0691
  887MOL0     C19673  10.525   7.500   0.636  0.0087  0.8548  0.3850
  887MOL0     C19674  10.515   7.400   0.560  0.2096 -0.2103 -0.3130
  887MOL0     C19675  10.815   8.191   0.659 -0.7224 -0.1453  0.6430
  887MOL0     C19676  10.904   8.297   0.619 -0.2137 -0.1585  0.2022
  887MOL0     C19677  10.831   8.421   0.581  0.0690 -0.2975  0.5581
  887MOL0     H19678  11.506   8.316   0.605 -0.2235  1.0363  1.8719
  887MOL0     H19679  11.698   8.457   0.583 -0.0773  0.9430  0.9527
  887MOL0     H19680  11.836   8.664   0.608  0.1578  1.7515  1.0306
  887MOL0     H19681  11.842   8.611   0.440 -0.8935  0.3362 -1.1725
  887MOL0     H19682  11.853   8.900   0.499  0.3884  1.1222 -0.8877
  887MOL0     H19683  11.910   8.809   0.357  2.1238 -0.1969 -0.2337
  887MOL0     H19684  12.100   8.726   0.501  0.3341 -0.1559 -0.2679
  887MOL0     H19685  12.014   8.809   0.640 -3.0835  4.9226 -1.1692
  887MOL0     H19686  12.144   8.941   0.406 -3.0566  0.3468 -1.0601
  887MOL0     H19687  12.063   9.032   0.539  1.1159  0.5292  1.9653
  887MOL0     H19688  12.219   8.895   0.681 -2.6049 -2.0435 -2.2730
  887MOL0     H19689  12.325   8.871   0.537  0.5848  0.2875 -0.2577
  887MOL0     H19690  12.328   9.137   0.529  2.6808  0.9262  1.0611
  887MOL0     H19691  12.251   9.125   0.693 -0.1611 -0.2670  0.4953
  887MOL0     H19692  12.514   9.012   0.588  0.2566  1.2574 -0.7769
  887MOL0     H19693  12.465   8.981   0.754  0.5951 -0.3414  0.5204
  887MOL0     H19694  12.445   9.266   0.688  0.1563 -0.3666  0.3492
  887MOL0     H19695  12.472   9.187   0.839  0.7757  0.5870 -0.0639
  887MOL0     H19696  12.663   9.250   0.511  0.9160  1.9768  0.6824
  887MOL0     H19697  12.974   9.104   0.480 -0.9190  0.1742 -2.0278
  887MOL0     H19698  12.903   9.246   0.420  1.7223 -1.1498 -0.4106
  887MOL0     H19699  13.027   9.395   0.569 -1.7977 -0.5457  1.6697
  887MOL0     H19700  13.084   9.257   0.659 -1.1083  3.4293  1.7667
  887MOL0     H19701  13.180   9.300   0.365  3.4695  2.8145  0.3980
  887MOL0     H19702  13.241   9.193   0.478 -0.3174  0.0990  0.0615
  887MOL0     H19703  13.317   9.358   0.635  1.1004  0.9014  0.6460
  887MOL0     H19704  13.255   9.495   0.530  1.6929  0.3226  0.6880
  887MOL0     H19705  13.439   9.540   0.673  1.1553  1.1341  1.2003
  887MOL0     H19706  13.581   9.757   0.697 -1.6987 -2.0476  2.4036
  887MOL0     H19707  13.917  10.067   0.627  2.0774 -2.3671  2.0387
  887MOL0     H19708  14.077  10.230   0.596 -0.7071  1.6547 -2.3501
  887MOL0     H19709  14.333  10.159   0.661  0.8537  2.3821  0.9620
  887MOL0     H19710  14.442  10.079   0.545  0.3632  0.2939  0.4870
  887MOL0     H19711  14.502  10.342   0.489 -0.2819 -0.1789 -0.4836
  887MOL0     H19712  14.432  10.366   0.650 -0.7996  1.2222 -2.5941
  887MOL0     H19713  14.609  10.212   0.733  0.4626  1.0177  0.4878
  887MOL0     H19714  14.670  10.180   0.560 -2.8634  1.2693 -2.4643
  887MOL0     H19715  14.696  10.409   0.745  1.3040 -1.0836  0.8398
  887MOL0     H19716  14.701  10.430   0.568 -1.1023 -1.0283 -1.2555
  887MOL0     H19717  14.872  10.274   0.541 -1.2926 -0.8684  1.2520
  887MOL0     H19718  14.874  10.215   0.715 -1.7551  1.0622  2.8109
  887MOL0     H19719  14.967  10.497   0.631 -1.5353  0.6914  0.7722
  887MOL0     H19720  14.950  10.444   0.791  1.5866 -0.6931  0.7571
  887MOL0     H19721  15.185  10.422   0.636 -1.0589  2.8799  0.2427
  887MOL0     H19722  15.114  10.253   0.628  0.0787  0.5119 -1.7117
  887MOL0     H19723  15.088  10.276   0.886  0.0573 -2.0027  0.2754
  887MOL0     H19724  15.256  10.257   0.827  1.0787  1.7943  1.2218
  887MOL0     H19725  14.277   9.963   0.307 -1.0338 -3.0026 -0.9896
  887MOL0     H19726  14.105   9.808   0.339 -1.4706  1.4051 -2.7872
  887MOL0     H19727  13.764   9.636   0.330 -0.7827  0.8866 -0.7624
  887MOL0     H19728  13.572   9.458   0.295 -0.3729 -0.9412  0.7148
  887MOL0     H19729  11.445   8.799   0.501 -0.5116  0.4812  0.6961
  887MOL0     H19730  11.241   8.651   0.559 -0.4158 -1.0815  1.1386
  887MOL0     H19731  11.202   8.166   0.677  0.0066  4.3893  0.5747
  887MOL0     H19732  11.059   7.986   0.773  0.9960 -0.2511 -1.2920
  887MOL0     H19733  10.614   8.016   0.683 -2.2876  3.1545  1.6884
  887MOL0     H19734  10.621   8.047   0.849 -1.4854  0.3784 -0.4315
  887MOL0     H19735  10.466   7.864   0.831 -0.4553 -2.4981  1.9011
  887MOL0     H19736  10.611   7.796   0.887 -2.9137  0.0523  1.6012
  887MOL0     H19737  10.679   7.745   0.651 -1.3226  0.2386 -1.8858
  887MOL0     H19738  10.521   7.808   0.609  3.0301  2.6678 -0.8985
  887MOL0     H19739  10.566   7.581   0.821 -0.2498  3.7645  2.3263
  887MOL0     H19740  10.412   7.629   0.743  1.1536  0.0565 -0.2742
  887MOL0     H19741  10.487   7.312   0.506  1.2058 -0.1504 -0.9442
  887MOL0     H19742  10.709   8.212   0.647 -0.6972 -0.5709 -0.5107
  887MOL0     H19743  10.775   8.424   0.487 -0.1151 -0.6717  0.6528
  887MOL0     H19744  10.759   8.432   0.662  2.0655  2.2075  2.1487
  887MOL0     H19745  10.900   8.506   0.590 -1.2599  0.6527  2.3378
  888MOL0     O19746   3.130   7.443   6.833  0.1167 -0.4182  0.0111
  888MOL0     C19747   3.047   7.475   6.921  1.2367  0.0325 -0.4138
  888MOL0     O19748   3.075   7.541   7.035  0.0090 -0.2674 -0.1793
  888MOL0     C19749   3.208   7.575   7.060 -0.0869 -0.2303 -0.5454
  888MOL0     C19750   3.240   7.709   7.047 -1.0854  0.3278  0.1348
  888MOL0     C19751   3.372   7.740   7.087 -1.0312  0.0713 -0.6989
  888MOL0     C19752   3.466   7.647   7.144  1.0378 -0.1260  0.2395
  888MOL0     O19753   3.601   7.667   7.165 -1.0368  0.5539  0.1097
  888MOL0     C19754   3.628   7.808   7.146  0.2238  0.5704  0.4561
  888MOL0     C19755   3.769   7.839   7.185  0.1843 -0.7340 -0.0031
  888MOL0     C19756   3.796   7.997   7.172  0.0152  0.3112  0.2231
  888MOL0     C19757   3.939   8.040   7.221  0.3161  0.0876  0.1243
  888MOL0     C19758   3.974   8.006   7.368  0.3459  0.3906 -1.3071
  888MOL0     C19759   4.121   8.069   7.400  0.6133 -0.1343 -0.0486
  888MOL0     C19760   4.152   8.021   7.543 -0.0940 -0.2355  0.0290
  888MOL0     C19761   4.296   8.046   7.591 -0.3292 -0.2165  0.3253
  888MOL0     N19762   4.327   8.184   7.615 -0.0670  0.2073 -0.2711
  888MOL0     C19763   4.239   8.277   7.653  0.1378 -0.0411 -0.6751
  888MOL0     C19764   4.315   8.384   7.683 -0.1560  0.7642 -0.2455
  888MOL0     C19765   4.270   8.521   7.730 -0.1037  0.5841  0.0247
  888MOL0     C19766   4.197   8.531   7.871  0.1334 -0.1466  0.2674
  888MOL0     C19767   4.183   8.674   7.924  0.4486  0.5061 -0.0773
  888MOL0     C19768   4.316   8.749   7.940 -0.1323  0.4969 -0.2657
  888MOL0     O19769   4.376   8.706   8.059  0.1248  0.5573 -0.3169
  888MOL0     C19770   4.500   8.757   8.086 -0.1311  1.0579  0.0521
  888MOL0     C19771   4.559   8.857   8.012  0.2813 -0.6614 -0.5893
  888MOL0     C19772   4.687   8.887   8.046 -0.7038  0.4802 -0.8221
  888MOL0     C19773   4.748   8.836   8.163  0.5710  0.4421  0.1702
  888MOL0     C19774   4.883   8.869   8.199 -0.0136  0.3051  0.1467
  888MOL0     O19775   4.931   8.806   8.312 -0.2422  0.2866  0.8478
  888MOL0     C19776   5.064   8.829   8.334 -0.5112  0.5613 -0.5111
  888MOL0     C19777   5.098   8.953   8.385 -0.6057 -0.1372 -0.3655
  888MOL0     C19778   5.234   8.995   8.402 -0.5226  0.0967 -0.7448
  888MOL0     C19779   5.341   8.902   8.377  0.3859 -0.3095 -0.9589
  888MOL0     O19780   5.468   8.944   8.408 -0.0875  1.0462  0.5973
  888MOL0     C19781   5.578   8.868   8.343  0.6658 -0.4390  0.5132
  888MOL0     C19782   5.602   8.922   8.201 -0.1582  0.6010 -0.0755
  888MOL0     C19783   5.732   8.884   8.133  0.0720  0.3093  0.0249
  888MOL0     C19784   5.735   8.916   7.989  0.5717 -0.4534  0.1029
  888MOL0     C19785   5.860   8.853   7.921 -0.8105  0.9860  0.1701
  888MOL0     C19786   5.866   8.903   7.775  0.2571  0.2715 -0.5819
  888MOL0     C19787   5.777   8.828   7.683  0.0646 -0.4953 -0.2774
  888MOL0     C19788   5.798   8.867   7.536  0.1336 -0.4177 -0.2863
  888MOL0    Cl19789   5.964   8.834   7.469  0.1243  0.3809 -0.2246
  888MOL0     C19790   5.300   8.777   8.315  0.0735 -0.0551 -0.6926
  888MOL0     C19791   5.171   8.738   8.300  0.5938 -0.6077 -0.2627
  888MOL0     O19792   4.944   8.940   8.125  0.1219  0.1958  0.7475
  888MOL0     C19793   4.674   8.742   8.240  0.2491  0.8613  0.0435
  888MOL0     C19794   4.550   8.698   8.197 -0.7877 -0.4467 -0.6390
  888MOL0     N19795   4.448   8.349   7.675  0.1375  0.3180  0.5796
  888MOL0     N19796   4.455   8.224   7.631 -0.0290 -0.3978 -0.3407
  888MOL0     C19797   3.424   7.511   7.144  0.0235  0.4149  0.2378
  888MOL0     C19798   3.290   7.477   7.112  0.4903 -0.1034 -1.0330
  888MOL0     C19799   2.902   7.424   6.914 -0.3914  0.5059  0.0995
  888MOL0     C19800   2.827   7.432   7.032 -0.2116  0.0074 -0.0561
  888MOL0     C19801   2.695   7.398   7.036 -0.2964  0.2208  0.3462
  888MOL0     C19802   2.629   7.334   6.933 -0.0932  0.3417 -0.8195
  888MOL0     O19803   2.503   7.295   6.961 -0.0998  0.4746  0.4353
  888MOL0     C19804   2.449   7.189   6.872 -0.1080  0.1346 -0.0115
  888MOL0     C19805   2.505   7.058   6.922  0.1554 -0.2022 -0.2379
  888MOL0     C19806   2.526   6.953   6.809 -0.2327  0.2472  0.1062
  888MOL0     C19807   2.400   6.912   6.728 -0.0826  0.0874 -0.1061
  888MOL0     C19808   2.309   6.815   6.805 -0.6504 -0.1931  0.4644
  888MOL0     C19809   2.230   6.742   6.852  0.0306  0.0157 -0.3021
  888MOL0     C19810   2.702   7.300   6.819  1.1572 -1.2358  0.0229
  888MOL0     C19811   2.839   7.350   6.805  0.4974 -0.3875 -0.3744
  888MOL0     C19812   2.903   7.335   6.671 -0.2450 -0.8934  0.6669
  888MOL0     H19813   3.178   7.793   7.017  0.2775  2.7296  3.3541
  888MOL0     H19814   3.403   7.842   7.068  2.4581 -0.9256 -1.0853
  888MOL0     H19815   3.606   7.841   7.044  3.5038  0.7401 -0.3114
  888MOL0     H19816   3.557   7.856   7.213  1.0919 -0.4757  2.2049
  888MOL0     H19817   3.843   7.781   7.130 -2.0218 -3.5118 -0.2378
  888MOL0     H19818   3.778   7.810   7.290 -0.6783 -2.8767 -0.4643
  888MOL0     H19819   3.718   8.039   7.237 -1.6731  0.2285 -1.6812
  888MOL0     H19820   3.789   8.025   7.067 -1.0701 -0.9905 -0.0809
  888MOL0     H19821   4.020   7.988   7.168 -1.0838  1.5936 -3.8947
  888MOL0     H19822   3.965   8.146   7.212  0.9006 -0.1384 -1.0536
  888MOL0     H19823   3.905   8.059   7.434  2.1136  5.1250 -2.8043
  888MOL0     H19824   3.975   7.898   7.382 -1.4019  0.5065  0.0548
  888MOL0     H19825   4.184   8.018   7.326 -0.5846 -1.9504  0.1019
  888MOL0     H19826   4.121   8.178   7.397 -0.2998 -0.1233  0.2212
  888MOL0     H19827   4.133   7.913   7.544 -2.0104  0.0669  0.5426
  888MOL0     H19828   4.073   8.073   7.599  0.3076 -0.0476  0.4269
  888MOL0     H19829   4.320   7.998   7.687 -0.1992 -0.1826  0.3114
  888MOL0     H19830   4.364   7.994   7.523  0.0659 -0.1121  0.6282
  888MOL0     H19831   4.131   8.277   7.657  0.1398  0.3583  2.7725
  888MOL0     H19832   4.352   8.594   7.723  0.0938  0.2823 -1.0574
  888MOL0     H19833   4.196   8.548   7.654  1.5332 -0.9001 -2.2169
  888MOL0     H19834   4.105   8.473   7.862 -0.8395  1.6279 -2.5125
  888MOL0     H19835   4.255   8.483   7.950 -0.5829  0.1003  0.9647
  888MOL0     H19836   4.122   8.682   8.015 -1.7790 -2.4060 -1.1682
  888MOL0     H19837   4.124   8.719   7.844  1.9460  2.4165 -0.1806
  888MOL0     H19838   4.286   8.853   7.951 -0.7650  0.1605  1.5751
  888MOL0     H19839   4.389   8.744   7.858  2.4499 -1.1558  1.9523
  888MOL0     H19840   4.519   8.900   7.920 -0.8191 -1.4940 -0.5306
  888MOL0     H19841   4.745   8.957   7.987  2.7535 -1.5323 -0.0763
  888MOL0     H19842   5.023   9.027   8.409  0.3196  0.8877 -0.5866
  888MOL0     H19843   5.257   9.091   8.447  1.3512 -1.4473  1.8789
  888MOL0     H19844   5.663   8.892   8.408  0.9376  1.3422 -0.4303
  888MOL0     H19845   5.559   8.761   8.343 -0.1387 -0.3282 -1.1956
  888MOL0     H19846   5.523   8.876   8.142 -2.5707  1.9397  1.9327
  888MOL0     H19847   5.584   9.030   8.200 -0.2899  0.5941 -1.9464
  888MOL0     H19848   5.820   8.936   8.173  0.8014  0.6663 -1.8959
  888MOL0     H19849   5.750   8.777   8.148 -2.2566  0.0738  1.5880
  888MOL0     H19850   5.732   9.025   7.983 -2.8960 -0.4809 -1.1461
  888MOL0     H19851   5.648   8.880   7.933  3.5252 -2.2700 -3.7741
  888MOL0     H19852   5.854   8.744   7.928  2.9901  0.7125  0.9481
  888MOL0     H19853   5.945   8.887   7.980  0.5692 -0.0027 -1.1582
  888MOL0     H19854   5.836   9.007   7.761  0.4878  1.1887  4.1318
  888MOL0     H19855   5.970   8.897   7.743 -0.0713  0.5431 -1.7447
  888MOL0     H19856   5.670   8.829   7.702 -0.3476 -0.8552 -2.3734
  888MOL0     H19857   5.802   8.722   7.699 -1.1056 -0.7998 -0.3895
  888MOL0     H19858   5.729   8.802   7.483 -3.2511  2.9623 -0.4058
  888MOL0     H19859   5.759   8.969   7.524 -1.2971 -0.6542  1.8305
  888MOL0     H19860   5.363   8.697   8.277 -1.0007 -1.4604  0.3833
  888MOL0     H19861   5.150   8.638   8.264 -0.6596 -2.0827  3.9307
  888MOL0     H19862   4.712   8.691   8.328 -1.2815 -0.2689  0.0918
  888MOL0     H19863   4.494   8.629   8.259 -0.1097  0.6103  1.2677
  888MOL0     H19864   3.483   7.432   7.190 -1.2765 -2.2569 -2.3554
  888MOL0     H19865   3.250   7.380   7.140  2.3176 -1.1121 -1.7463
  888MOL0     H19866   2.863   7.500   7.108  0.8607 -1.2933  0.6507
  888MOL0     H19867   2.634   7.419   7.123  2.6327 -0.4814  2.7640
  888MOL0     H19868   2.482   7.211   6.770  0.8477 -0.5847  0.1233
  888MOL0     H19869   2.341   7.175   6.882  0.0901 -1.9751 -0.3268
  888MOL0     H19870   2.439   7.026   7.003 -1.1234  3.6021  0.4046
  888MOL0     H19871   2.600   7.082   6.971 -0.6442 -0.0912  1.2997
  888MOL0     H19872   2.568   6.862   6.854 -2.7460 -1.0128  0.0977
  888MOL0     H19873   2.606   6.993   6.747 -0.4463 -0.8982 -0.9549
  888MOL0     H19874   2.343   7.003   6.704  2.5803  2.0860  0.6653
  888MOL0     H19875   2.433   6.861   6.637  2.4605 -1.5740  1.6207
  888MOL0     H19876   2.158   6.686   6.910 -0.1662  1.0181  0.4531
  888MOL0     H19877   2.659   7.247   6.735  1.7163 -0.8453 -0.5230
  888MOL0     H19878   2.847   7.266   6.608  1.2627 -1.0649 -0.5318
  888MOL0     H19879   2.913   7.433   6.624  1.4805 -1.1113  0.5034
  888MOL0     H19880   3.003   7.290   6.673 -1.3289 -3.5637 -0.2352
  889MOL0     O19881   6.777   4.030   7.100  0.3276 -0.0679 -1.0631
  889MOL0     C19882   6.761   3.908   7.110  0.5778 -0.4094  0.6408
  889MOL0     O19883   6.854   3.816   7.084 -0.0017 -0.4290 -0.0770
  889MOL0     C19884   6.982   3.856   7.085 -1.2404  0.1348 -0.1515
  889MOL0     C19885   7.074   3.804   6.988 -0.4010  0.0064  0.2188
  889MOL0     C19886   7.212   3.812   7.001  0.3655  0.2222 -0.2299
  889MOL0     C19887   7.264   3.870   7.114 -0.3274  0.1094  0.9616
  889MOL0     O19888   7.399   3.856   7.140 -0.3727 -0.4757  0.0089
  889MOL0     C19889   7.484   3.765   7.071  0.4834  0.3226 -0.0089
  889MOL0     C19890   7.620   3.714   7.141  0.3473 -0.3026  0.8551
  889MOL0     C19891   7.615   3.716   7.292  0.1358 -0.1935  1.0166
  889MOL0     C19892   7.738   3.658   7.358 -0.7844 -0.9978  0.8688
  889MOL0     C19893   7.735   3.674   7.505  0.3390  0.3029  0.7278
  889MOL0     C19894   7.825   3.566   7.576  0.2045  0.5412  0.0395
  889MOL0     C19895   7.795   3.566   7.730  0.1676 -0.0279  0.6745
  889MOL0     C19896   7.852   3.437   7.787  0.4283 -0.3988 -0.7498
  889MOL0     N19897   7.874   3.439   7.933 -0.2675  1.1967  0.5522
  889MOL0     C19898   7.769   3.429   8.023  0.2063  0.8168  0.6493
  889MOL0     C19899   7.832   3.443   8.142 -0.8794 -0.5545 -0.2287
  889MOL0     C19900   7.768   3.434   8.276 -0.3215 -0.1747 -0.2540
  889MOL0     C19901   7.757   3.570   8.339 -0.4102  0.2866 -0.9602
  889MOL0     C19902   7.696   3.565   8.479  0.0033  0.8340  0.3301
  889MOL0     C19903   7.677   3.689   8.554 -0.7725  0.1359 -0.1101
  889MOL0     O19904   7.597   3.787   8.485 -0.1975  0.6296  0.0167
  889MOL0     C19905   7.460   3.782   8.478  0.2225 -0.0732  0.9169
  889MOL0     C19906   7.380   3.804   8.590 -0.1000 -0.1161  0.0910
  889MOL0     C19907   7.247   3.797   8.591 -0.3681 -0.8691  0.2890
  889MOL0     C19908   7.175   3.796   8.469  0.7770  0.2895  0.2489
  889MOL0     C19909   7.029   3.815   8.474  0.1974 -0.1863  0.3430
  889MOL0     O19910   6.961   3.777   8.581  0.1306 -0.0051 -0.9457
  889MOL0     C19911   6.823   3.771   8.585 -0.7208 -0.6265  0.4365
  889MOL0     C19912   6.754   3.859   8.675  0.0166 -0.1520 -0.0996
  889MOL0     C19913   6.617   3.865   8.690  0.6351  0.3610 -0.2692
  889MOL0     C19914   6.538   3.760   8.635 -0.3180 -0.1070  0.0081
  889MOL0     O19915   6.402   3.739   8.651  0.0379 -0.5084 -0.4282
  889MOL0     C19916   6.335   3.802   8.761  0.8786 -0.0991  0.2827
  889MOL0     C19917   6.189   3.768   8.750 -0.5117  0.2645 -0.1415
  889MOL0     C19918   6.114   3.887   8.819 -0.3364 -0.0279  1.0831
  889MOL0     C19919   5.959   3.878   8.787 -0.0403  0.6920  0.8232
  889MOL0     C19920   5.894   3.757   8.856 -0.2351 -0.3480  0.0993
  889MOL0     C19921   5.744   3.746   8.814 -0.4102  1.0138  1.7747
  889MOL0     C19922   5.677   3.615   8.870  0.4411  0.5727  0.4416
  889MOL0     C19923   5.534   3.610   8.807  0.3808 -0.2014 -0.5654
  889MOL0    Cl19924   5.417   3.732   8.855 -0.2292  0.0192 -0.1859
  889MOL0     C19925   6.602   3.678   8.538 -0.3106  0.2738 -0.1376
  889MOL0     C19926   6.742   3.683   8.516 -0.3788  0.4272 -0.3134
  889MOL0     O19927   6.973   3.856   8.375 -0.0869  0.0353 -0.2554
  889MOL0     C19928   7.253   3.795   8.346 -0.4495 -0.4292 -0.5405
  889MOL0     C19929   7.396   3.780   8.351  0.3758  0.2578 -0.1144
  889MOL0     N19930   7.968   3.444   8.117 -0.3845  0.2278 -0.0812
  889MOL0     N19931   7.995   3.433   7.996 -0.4451 -0.5305 -0.2730
  889MOL0     C19932   7.180   3.914   7.223  0.1926 -0.6501  0.2248
  889MOL0     C19933   7.040   3.908   7.203  0.9132  0.9295 -0.0685
  889MOL0     C19934   6.633   3.860   7.167 -1.2448  0.2584  0.1439
  889MOL0     C19935   6.577   3.757   7.089 -0.2805  0.2140 -0.9450
  889MOL0     C19936   6.446   3.714   7.121 -0.1276  1.0043 -0.9246
  889MOL0     C19937   6.375   3.777   7.233  0.0428  0.5298 -0.3581
  889MOL0     O19938   6.249   3.749   7.268 -0.2986 -0.4170 -1.2204
  889MOL0     C19939   6.176   3.631   7.226  0.3324 -0.3593  0.2300
  889MOL0     C19940   6.080   3.667   7.104  0.4706 -0.2333  0.4832
  889MOL0     C19941   6.086   3.571   6.988  0.5534 -1.0337  0.2681
  889MOL0     C19942   6.027   3.648   6.872 -0.1514  0.4247 -0.0294
  889MOL0     C19943   5.880   3.682   6.896  0.1197 -0.1073 -0.7067
  889MOL0     C19944   5.760   3.692   6.902  0.4818  0.4808 -0.4567
  889MOL0     C19945   6.442   3.869   7.313  0.3789  0.1906  0.2205
  889MOL0     C19946   6.565   3.913   7.281  0.6021  0.5142 -0.0597
  889MOL0     C19947   6.629   4.024   7.362  0.3455 -0.2810 -0.2631
  889MOL0     H19948   7.036   3.752   6.901  2.2965 -2.7815  0.5540
  889MOL0     H19949   7.270   3.762   6.924 -1.5807 -1.2975 -0.7830
  889MOL0     H19950   7.429   3.673   7.046  2.2472 -1.2295  1.5192
  889MOL0     H19951   7.500   3.809   6.972  1.3050  2.5802  1.0575
  889MOL0     H19952   7.701   3.780   7.109 -0.5918  0.2497 -0.4671
  889MOL0     H19953   7.643   3.616   7.100  1.0348  0.3483 -0.3862
  889MOL0     H19954   7.526   3.659   7.323  0.3857 -0.1743  1.7907
  889MOL0     H19955   7.591   3.817   7.326 -2.6481 -0.4101  0.0171
  889MOL0     H19956   7.741   3.550   7.339 -0.2801 -1.1389  1.7029
  889MOL0     H19957   7.821   3.700   7.300 -3.3217  0.2643 -2.2041
  889MOL0     H19958   7.769   3.777   7.517 -1.6642  1.4574 -2.2696
  889MOL0     H19959   7.632   3.654   7.536 -0.0717 -0.9696 -1.2478
  889MOL0     H19960   7.794   3.469   7.534 -0.3353  0.0913  1.4272
  889MOL0     H19961   7.932   3.585   7.565  0.0495  1.7560  0.4936
  889MOL0     H19962   7.687   3.582   7.743  0.2222  0.5837  0.4394
  889MOL0     H19963   7.847   3.657   7.759 -0.7689  2.0467 -3.3571
  889MOL0     H19964   7.783   3.356   7.762 -2.4293  1.6732 -0.1087
  889MOL0     H19965   7.948   3.417   7.740  0.4716 -1.1031 -0.3763
  889MOL0     H19966   7.661   3.424   8.010  0.2166  0.4538  0.7109
  889MOL0     H19967   7.670   3.386   8.272 -0.0996 -0.5759 -1.1727
  889MOL0     H19968   7.825   3.371   8.345 -0.6590  0.2722  0.4479
  889MOL0     H19969   7.856   3.616   8.342 -0.5010  0.4746 -0.8390
  889MOL0     H19970   7.683   3.630   8.286 -0.5211  1.5390  0.5524
  889MOL0     H19971   7.770   3.504   8.530 -0.0991  0.5284  0.1174
  889MOL0     H19972   7.598   3.520   8.464 -2.3449  5.4055  0.0499
  889MOL0     H19973   7.774   3.738   8.569 -2.1495  2.6722  1.1204
  889MOL0     H19974   7.642   3.661   8.653 -3.0518  0.2952 -0.8208
  889MOL0     H19975   7.417   3.811   8.691 -0.2437 -1.4216  0.2565
  889MOL0     H19976   7.188   3.814   8.681 -1.6804  0.6294 -0.7766
  889MOL0     H19977   6.819   3.928   8.728  1.0103 -0.6023 -0.7046
  889MOL0     H19978   6.571   3.937   8.758  3.1371  0.8457  1.0407
  889MOL0     H19979   6.386   3.778   8.855  3.8918  2.3115 -0.5635
  889MOL0     H19980   6.345   3.908   8.738  0.3360  0.0593  0.7598
  889MOL0     H19981   6.156   3.760   8.646 -1.3020  0.6092  0.0716
  889MOL0     H19982   6.171   3.672   8.799  1.5249 -0.3518 -0.5367
  889MOL0     H19983   6.122   3.894   8.928 -1.8415  2.6733  1.1196
  889MOL0     H19984   6.144   3.985   8.780 -0.6315 -0.6795 -0.9444
  889MOL0     H19985   5.949   3.886   8.678  4.0381 -1.7872  0.0491
  889MOL0     H19986   5.916   3.973   8.821 -0.7485  0.3812  0.8323
  889MOL0     H19987   5.907   3.775   8.963 -0.0231  2.8930 -0.3723
  889MOL0     H19988   5.938   3.656   8.853 -0.1674 -0.4502  2.3964
  889MOL0     H19989   5.688   3.836   8.839 -0.2108  2.0716 -1.1504
  889MOL0     H19990   5.734   3.735   8.705  0.2848  0.9877  1.7079
  889MOL0     H19991   5.674   3.614   8.980  0.5105 -0.0528  0.4436
  889MOL0     H19992   5.738   3.530   8.839  2.3096  2.4950 -1.5418
  889MOL0     H19993   5.547   3.613   8.698  2.1573  0.6930 -0.3718
  889MOL0     H19994   5.489   3.518   8.845  0.4709  0.9498  2.5961
  889MOL0     H19995   6.538   3.608   8.485  2.1873 -0.1552 -2.8000
  889MOL0     H19996   6.783   3.619   8.438  1.4040  1.6144 -0.4091
  889MOL0     H19997   7.193   3.809   8.256 -0.9041 -1.2880 -0.3803
  889MOL0     H19998   7.464   3.765   8.268 -0.0441  3.1195 -1.0690
  889MOL0     H19999   7.229   3.956   7.310  2.1351 -1.6531 -0.3266
  889MOL0     H20000   6.962   3.929   7.275 -0.0418  1.7034 -1.2828
  889MOL0     H20001   6.628   3.709   7.006 -3.2215 -2.9045 -1.1998
  889MOL0     H20002   6.397   3.630   7.073 -0.5094  1.1425 -0.7750
  889MOL0     H20003   6.118   3.593   7.310 -2.9567 -2.1776 -2.6109
  889MOL0     H20004   6.241   3.549   7.193  0.6069 -0.1665  0.2800
  889MOL0     H20005   6.112   3.766   7.069  0.7781 -0.2655  0.6682
  889MOL0     H20006   5.979   3.679   7.145 -0.3614  0.9582 -1.7846
  889MOL0     H20007   6.029   3.482   7.015  1.3852 -2.0854 -1.2812
  889MOL0     H20008   6.187   3.534   6.972  0.2507 -1.5317 -0.6147
  889MOL0     H20009   6.074   3.742   6.844 -0.1499 -0.1072 -1.9615
  889MOL0     H20010   6.016   3.585   6.784 -0.4945 -0.0064  0.3165
  889MOL0     H20011   5.653   3.697   6.899  0.5010  2.0429  0.2107
  889MOL0     H20012   6.390   3.899   7.403  0.3859 -0.0526  0.3057
  889MOL0     H20013   6.738   4.032   7.357  0.3340  0.9250  0.9335
  889MOL0     H20014   6.587   4.112   7.312 -1.6306 -1.1557 -0.2268
  889MOL0     H20015   6.590   4.005   7.462  0.0564 -3.0424 -0.8111
  890MOL0     O20016   9.237  10.130   4.847 -0.2114  0.1973  0.0062
  890MOL0     C20017   9.160  10.037   4.845  0.1810 -0.1956 -0.1485
  890MOL0     O20018   9.184   9.915   4.903 -0.1995 -0.0731 -0.1991
  890MOL0     C20019   9.311   9.886   4.946 -0.3584  1.4105 -0.0565
  890MOL0     C20020   9.323   9.746   4.931 -0.7139 -0.4526  0.6150
  890MOL0     C20021   9.439   9.678   4.968 -0.3054 -0.9521 -0.1767
  890MOL0     C20022   9.548   9.748   5.021 -0.3920  0.9351  0.3208
  890MOL0     O20023   9.669   9.695   5.066  0.1844 -0.4091  0.2971
  890MOL0     C20024   9.703   9.570   4.999 -0.5587  0.0545  0.1546
  890MOL0     C20025   9.837   9.514   5.045 -0.0485 -0.2194 -0.0676
  890MOL0     C20026   9.857   9.381   4.980  0.3475  0.4120 -0.6055
  890MOL0     C20027   9.933   9.401   4.846 -0.1016 -0.3317 -0.3961
  890MOL0     C20028   9.965   9.268   4.783 -0.4943  0.4443 -0.4466
  890MOL0     C20029  10.074   9.272   4.674  0.1772  0.0027  0.2635
  890MOL0     C20030  10.114   9.122   4.646 -0.0109 -0.2365 -0.5508
  890MOL0     C20031  10.209   9.117   4.518  0.6010 -0.0623  0.1566
  890MOL0     N20032  10.326   9.211   4.530  0.0698  0.0553  0.2822
  890MOL0     C20033  10.333   9.338   4.493 -0.5938 -0.4211  0.1304
  890MOL0     C20034  10.462   9.367   4.488 -0.1214  0.7775  0.0740
  890MOL0     C20035  10.515   9.504   4.454  0.3061  0.0607  1.1932
  890MOL0     C20036  10.515   9.520   4.298 -0.4538 -0.2995 -0.7162
  890MOL0     C20037  10.626   9.444   4.230  0.1927  0.7212 -0.2340
  890MOL0     C20038  10.610   9.434   4.076 -0.0749 -0.2838  0.7679
  890MOL0     O20039  10.677   9.537   4.014 -0.7192 -0.0172  0.2168
  890MOL0     C20040  10.703   9.532   3.872  0.3504 -1.8746  0.1258
  890MOL0     C20041  10.715   9.420   3.790 -0.3300  0.0461  0.4111
  890MOL0     C20042  10.734   9.430   3.653 -0.2980 -0.6917  0.0706
  890MOL0     C20043  10.746   9.564   3.585 -0.2681 -0.5779  0.1726
  890MOL0     C20044  10.756   9.577   3.437  0.9353  0.3719  0.5659
  890MOL0     O20045  10.754   9.466   3.353  0.8522  0.5109  0.6058
  890MOL0     C20046  10.761   9.493   3.219  0.7450 -0.3495 -0.6029
  890MOL0     C20047  10.880   9.533   3.163  0.8328  0.4803 -0.3296
  890MOL0     C20048  10.903   9.535   3.022 -0.0854  0.3924 -0.3384
  890MOL0     C20049  10.801   9.496   2.940  0.2777 -0.1611  0.2887
  890MOL0     O20050  10.841   9.507   2.805  0.3186  0.0541 -0.9038
  890MOL0     C20051  10.791   9.403   2.719  0.1295 -0.4481  1.0984
  890MOL0     C20052  10.851   9.396   2.583 -0.4259  0.7499 -0.1573
  890MOL0     C20053  10.989   9.332   2.596 -0.9362  0.5981 -0.0779
  890MOL0     C20054  11.099   9.418   2.537  0.1141 -1.2756 -0.3344
  890MOL0     C20055  11.240   9.391   2.605  0.0244 -0.2977 -0.4183
  890MOL0     C20056  11.355   9.473   2.552  0.3063  0.3631  0.6947
  890MOL0     C20057  11.397   9.584   2.644 -0.0356 -0.2224 -0.5186
  890MOL0     C20058  11.506   9.676   2.590  0.5623  0.8839 -0.1476
  890MOL0    Cl20059  11.658   9.588   2.569  0.3998 -0.4694 -0.0277
  890MOL0     C20060  10.679   9.455   2.990  0.3751  0.2265  0.5402
  890MOL0     C20061  10.653   9.460   3.131 -0.3054  0.0791  0.4299
  890MOL0     O20062  10.785   9.695   3.400 -0.7791  0.9907  0.1607
  890MOL0     C20063  10.732   9.679   3.671  0.8142  1.1239 -0.2840
  890MOL0     C20064  10.711   9.661   3.805  0.0418  0.6096 -1.1987
  890MOL0     N20065  10.539   9.256   4.521 -0.2574 -1.5986  0.4746
  890MOL0     N20066  10.454   9.166   4.549  0.5439 -0.2324 -0.4753
  890MOL0     C20067   9.540   9.887   5.039 -0.0685  0.0932 -0.5275
  890MOL0     C20068   9.427   9.953   4.991 -0.0066 -0.4265  0.4587
  890MOL0     C20069   9.020  10.061   4.788 -0.2491  0.2985  0.4957
  890MOL0     C20070   8.937   9.950   4.790  0.0888 -0.1050  0.0061
  890MOL0     C20071   8.808   9.955   4.736 -0.4479 -0.5393 -0.2277
  890MOL0     C20072   8.753  10.076   4.690 -0.4885 -0.3881  0.1968
  890MOL0     O20073   8.634  10.083   4.630  0.7378 -0.1250 -0.2518
  890MOL0     C20074   8.568  10.220   4.617 -0.2431  0.7004 -0.4747
  890MOL0     C20075   8.420  10.214   4.595  0.6805  0.6700 -0.0577
  890MOL0     C20076   8.379  10.155   4.465 -0.2370  0.4232 -0.6153
  890MOL0     C20077   8.230  10.114   4.475 -0.6038  0.7127 -0.0855
  890MOL0     C20078   8.138  10.228   4.502 -0.1808  0.2258  0.5054
  890MOL0     C20079   8.070  10.328   4.527  0.0553  0.0836 -1.3467
  890MOL0     C20080   8.837  10.189   4.694 -0.6254 -0.7964 -0.7493
  890MOL0     C20081   8.967  10.187   4.745 -0.0858  0.8746  0.1355
  890MOL0     C20082   9.049  10.307   4.721  0.0520 -0.0281  0.1910
  890MOL0     H20083   9.241   9.686   4.895  0.3171 -0.3329 -2.1081
  890MOL0     H20084   9.442   9.571   4.952  1.3750 -0.4344 -5.0881
  890MOL0     H20085   9.629   9.493   5.024 -0.0090 -1.9089 -3.5167
  890MOL0     H20086   9.706   9.585   4.890 -1.1254  0.2950  0.1709
  890MOL0     H20087   9.838   9.505   5.154 -0.0712 -2.1087 -0.1845
  890MOL0     H20088   9.916   9.583   5.013  0.2227 -0.4689  0.0614
  890MOL0     H20089   9.765   9.323   4.962  0.2828 -0.2426  1.6195
  890MOL0     H20090   9.923   9.316   5.038  1.5004  2.7189  0.7960
  890MOL0     H20091   9.877   9.462   4.774 -2.9149 -0.5854  1.4322
  890MOL0     H20092  10.031   9.442   4.872 -0.3003  0.8512 -1.4025
  890MOL0     H20093   9.991   9.191   4.856  2.1293  0.3998 -1.2938
  890MOL0     H20094   9.869   9.230   4.749 -0.6617 -2.0623  2.4039
  890MOL0     H20095  10.032   9.316   4.583  2.4977  1.8062 -0.0146
  890MOL0     H20096  10.157   9.337   4.703  0.5482 -0.5816  0.5302
  890MOL0     H20097  10.025   9.059   4.636  0.2036 -0.7109  0.4269
  890MOL0     H20098  10.171   9.092   4.734 -0.8703  0.2533  0.1916
  890MOL0     H20099  10.243   9.013   4.515  1.6378  0.1917  1.7460
  890MOL0     H20100  10.158   9.139   4.424 -1.9636 -1.5651  1.1066
  890MOL0     H20101  10.253   9.410   4.479 -0.8190 -0.5199  0.8393
  890MOL0     H20102  10.440   9.567   4.503 -0.7287 -1.5632  1.8227
  890MOL0     H20103  10.612   9.526   4.500  0.1212  3.3386  0.1971
  890MOL0     H20104  10.417   9.486   4.264 -1.2248  0.9031  0.2621
  890MOL0     H20105  10.525   9.628   4.286  2.6543 -0.5004 -0.8297
  890MOL0     H20106  10.629   9.342   4.269 -2.3063  2.0761  4.2149
  890MOL0     H20107  10.715   9.502   4.256 -0.0458  1.0184 -0.0702
  890MOL0     H20108  10.503   9.437   4.055 -0.2538 -2.1989  1.1947
  890MOL0     H20109  10.654   9.340   4.043 -0.4746 -1.2899  2.9377
  890MOL0     H20110  10.720   9.326   3.843 -0.5308  0.5980  1.4448
  890MOL0     H20111  10.772   9.351   3.589 -0.9740 -0.4412 -0.6451
  890MOL0     H20112  10.964   9.561   3.226 -0.4585  1.6555  0.9406
  890MOL0     H20113  11.004   9.564   2.996 -0.1822 -1.6073 -3.4933
  890MOL0     H20114  10.806   9.303   2.762 -0.6839 -0.5207  1.2438
  890MOL0     H20115  10.685   9.425   2.701  0.8541  1.7337 -0.9610
  890MOL0     H20116  10.800   9.324   2.518  2.8363 -0.0400 -2.0759
  890MOL0     H20117  10.860   9.490   2.527  0.0410  0.9982  0.3222
  890MOL0     H20118  11.025   9.315   2.698  3.0196  0.0027 -1.3896
  890MOL0     H20119  10.989   9.238   2.538  0.4953  0.4940  0.0339
  890MOL0     H20120  11.074   9.523   2.553 -2.9203 -1.5110 -2.5319
  890MOL0     H20121  11.098   9.402   2.428  2.1339  0.8676 -0.7418
  890MOL0     H20122  11.266   9.285   2.591 -1.1261 -0.7711  0.7696
  890MOL0     H20123  11.218   9.411   2.711  0.6384 -2.4228  0.1698
  890MOL0     H20124  11.441   9.406   2.540  0.7835  1.1967 -0.8797
  890MOL0     H20125  11.333   9.511   2.452  2.3147 -1.2220 -0.4412
  890MOL0     H20126  11.430   9.547   2.742 -1.0141 -3.3482 -1.2396
  890MOL0     H20127  11.313   9.648   2.671  2.1115  2.7748 -0.3926
  890MOL0     H20128  11.475   9.731   2.501 -3.9631  1.5145  1.5544
  890MOL0     H20129  11.535   9.756   2.658  0.5846  2.2515 -1.7163
  890MOL0     H20130  10.595   9.421   2.930  0.6936 -0.3728  0.4318
  890MOL0     H20131  10.562   9.424   3.177 -1.0104  1.6374  0.3184
  890MOL0     H20132  10.732   9.782   3.637 -2.3474  1.4633  0.4789
  890MOL0     H20133  10.702   9.753   3.863 -0.6131  1.1287 -2.1069
  890MOL0     H20134   9.626   9.946   5.069  0.0018  0.0559 -0.6530
  890MOL0     H20135   9.411  10.057   5.016  0.3585 -0.2404 -0.0712
  890MOL0     H20136   8.972   9.853   4.826  0.7347 -0.3112 -1.1320
  890MOL0     H20137   8.750   9.866   4.717  0.3483 -1.1724  0.2551
  890MOL0     H20138   8.602  10.271   4.526 -1.0509  0.3779 -0.9709
  890MOL0     H20139   8.579  10.287   4.703  1.6313 -0.0733 -0.0662
  890MOL0     H20140   8.367  10.310   4.597 -1.6938 -0.5426 -0.3319
  890MOL0     H20141   8.371  10.162   4.677 -1.1704  2.2770 -0.0703
  890MOL0     H20142   8.434  10.063   4.445  1.3535  1.2817 -0.3125
  890MOL0     H20143   8.400  10.235   4.394 -1.4049  2.6477  1.4162
  890MOL0     H20144   8.194  10.066   4.383  2.5704 -1.2738 -0.4633
  890MOL0     H20145   8.210  10.040   4.554 -1.1287 -0.4869 -1.2957
  890MOL0     H20146   8.005  10.408   4.557 -2.5424 -2.0295 -0.9229
  890MOL0     H20147   8.821  10.280   4.638  3.4665  0.6595  0.0614
  890MOL0     H20148   9.113  10.283   4.636  0.0806 -0.8587  0.4394
  890MOL0     H20149   8.986  10.392   4.692 -2.5014 -1.9204 -0.2077
  890MOL0     H20150   9.103  10.344   4.808  0.2104  2.2870 -0.8048
  891MOL0     O20151   8.190   1.261   0.988 -0.8481 -0.8418 -0.4437
  891MOL0     C20152   8.116   1.357   1.007 -0.0844  0.2113  0.3735
  891MOL0     O20153   8.149   1.486   0.979 -0.0719  1.0953 -0.0536
  891MOL0     C20154   8.277   1.505   0.925 -0.1731  0.3478  0.0339
  891MOL0     C20155   8.378   1.543   1.005 -0.3955 -0.8171 -0.4494
  891MOL0     C20156   8.503   1.586   0.959  0.4383  0.0513 -0.7291
  891MOL0     C20157   8.516   1.615   0.821 -0.3150  0.5144  0.5537
  891MOL0     O20158   8.623   1.690   0.767 -0.1050  0.3076 -0.2932
  891MOL0     C20159   8.636   1.817   0.809  0.1477 -0.0512 -0.3512
  891MOL0     C20160   8.778   1.865   0.786 -0.3805  0.0763 -0.4333
  891MOL0     C20161   8.886   1.809   0.874 -1.0587  0.1893 -0.6143
  891MOL0     C20162   9.032   1.844   0.829 -0.3269 -0.1422 -0.4110
  891MOL0     C20163   9.133   1.839   0.937 -0.2120  0.4880 -0.3208
  891MOL0     C20164   9.149   1.702   1.015  1.0204 -0.2591  0.2712
  891MOL0     C20165   9.192   1.583   0.923 -0.2277 -0.7313  0.0623
  891MOL0     C20166   9.164   1.458   0.999 -0.4402 -0.3539  0.6706
  891MOL0     N20167   9.039   1.393   0.951 -0.1740  0.0898 -0.0575
  891MOL0     C20168   8.924   1.382   1.026 -0.2807 -0.6553 -0.1523
  891MOL0     C20169   8.855   1.285   0.961 -0.7608 -0.5283 -0.0437
  891MOL0     C20170   8.723   1.242   1.010  0.1703  1.0604 -1.4515
  891MOL0     C20171   8.695   1.085   1.008  0.0166  0.4485  0.0665
  891MOL0     C20172   8.560   1.054   1.067 -0.9263  0.3027 -0.2466
  891MOL0     C20173   8.512   0.915   1.024  0.0807 -0.7056 -0.2067
  891MOL0     O20174   8.613   0.824   1.072 -0.0959 -0.2747 -0.0537
  891MOL0     C20175   8.566   0.695   1.108  0.4059 -0.1636 -0.4653
  891MOL0     C20176   8.565   0.654   1.242  0.8210 -0.0465  0.3957
  891MOL0     C20177   8.516   0.527   1.286  1.1668  0.4279 -0.2855
  891MOL0     C20178   8.453   0.444   1.189  0.2344 -0.5144  0.4331
  891MOL0     C20179   8.404   0.316   1.227  1.1703  0.2755 -0.7136
  891MOL0     O20180   8.336   0.253   1.126 -0.3979  0.7007  0.5221
  891MOL0     C20181   8.269   0.140   1.154  0.2222  0.2001 -0.0641
  891MOL0     C20182   8.141   0.145   1.216  0.4005  0.6275  0.1344
  891MOL0     C20183   8.076   0.016   1.243  0.6178  0.2260 -0.1550
  891MOL0     C20184   8.127  -0.105   1.206 -0.7852 -0.1295 -0.0908
  891MOL0     O20185   8.049  -0.215   1.239  0.4772  0.0655  0.0168
  891MOL0     C20186   8.104  -0.349   1.225 -0.2976 -0.4586  0.4480
  891MOL0     C20187   8.017  -0.452   1.295 -0.1948 -0.3961 -0.4651
  891MOL0     C20188   8.009  -0.446   1.450  0.7376  0.2789 -0.3913
  891MOL0     C20189   7.901  -0.536   1.522  0.2453 -0.4504  0.2157
  891MOL0     C20190   7.767  -0.451   1.534 -0.6905 -0.5340 -0.8203
  891MOL0     C20191   7.647  -0.538   1.564 -0.4527 -0.7548 -0.0613
  891MOL0     C20192   7.677  -0.621   1.683 -0.0425 -0.3378 -0.4845
  891MOL0     C20193   7.567  -0.718   1.734 -0.6341 -0.6080  0.0465
  891MOL0    Cl20194   7.512  -0.810   1.597  0.5762  0.2414  0.0199
  891MOL0     C20195   8.254  -0.100   1.139 -0.5918 -0.0140  0.0511
  891MOL0     C20196   8.321   0.019   1.111  0.8158  0.2651  0.7928
  891MOL0     O20197   8.399   0.279   1.347 -0.3090  0.1716 -0.7528
  891MOL0     C20198   8.444   0.489   1.058 -0.3057  0.4747  0.2171
  891MOL0     C20199   8.511   0.616   1.018 -0.8529  0.8038 -0.0907
  891MOL0     N20200   8.933   1.239   0.855  0.2975 -0.3698  0.0822
  891MOL0     N20201   9.042   1.313   0.844  0.1565 -0.5886  0.6784
  891MOL0     C20202   8.412   1.573   0.738  0.4486 -0.7283  0.3319
  891MOL0     C20203   8.293   1.520   0.790  0.1868  0.6313  0.2371
  891MOL0     C20204   7.982   1.334   1.071  0.0299  0.1194  0.2612
  891MOL0     C20205   7.891   1.446   1.084 -0.0520 -0.7581 -0.2766
  891MOL0     C20206   7.772   1.441   1.147  0.5858 -0.0020 -0.2691
  891MOL0     C20207   7.716   1.313   1.183 -0.1019 -0.0276 -0.5740
  891MOL0     O20208   7.594   1.285   1.239 -0.1644 -0.4449 -0.0927
  891MOL0     C20209   7.503   1.399   1.238 -0.1734 -0.4578  0.0938
  891MOL0     C20210   7.369   1.365   1.296  0.2233  0.1905 -0.2527
  891MOL0     C20211   7.286   1.278   1.209 -0.1688 -0.0357  0.3201
  891MOL0     C20212   7.151   1.253   1.276 -0.3948 -0.1189  0.0866
  891MOL0     C20213   7.118   1.114   1.237  0.3863  0.5762  0.3309
  891MOL0     C20214   7.083   0.994   1.227  0.5762 -0.6137  0.0096
  891MOL0     C20215   7.811   1.211   1.189 -0.2705  0.3233 -0.2643
  891MOL0     C20216   7.935   1.218   1.126 -0.0266 -0.3762 -0.0168
  891MOL0     C20217   8.019   1.093   1.118  0.3328 -0.3632 -0.4150
  891MOL0     H20218   8.356   1.532   1.111 -3.3419  0.4509 -0.8431
  891MOL0     H20219   8.579   1.621   1.028 -0.5383 -0.0731  0.4418
  891MOL0     H20220   8.561   1.880   0.759 -0.8110 -0.9414 -0.0686
  891MOL0     H20221   8.612   1.820   0.916 -0.6459  5.6636 -0.3617
  891MOL0     H20222   8.770   1.972   0.807 -2.6237 -0.4074  1.5892
  891MOL0     H20223   8.794   1.852   0.678 -1.5079  1.7774 -0.8430
  891MOL0     H20224   8.878   1.701   0.863 -0.5991  0.1956 -1.0414
  891MOL0     H20225   8.879   1.849   0.976 -1.7923 -0.2677 -0.4799
  891MOL0     H20226   9.047   1.768   0.752  0.9315 -0.2818 -0.0494
  891MOL0     H20227   9.033   1.941   0.780  1.5988  0.6355  1.0564
  891MOL0     H20228   9.232   1.845   0.891 -0.8233  1.6739 -1.5415
  891MOL0     H20229   9.118   1.923   1.005  0.4676 -0.1099  0.6053
  891MOL0     H20230   9.228   1.710   1.091  0.7842  0.1902  0.4764
  891MOL0     H20231   9.051   1.685   1.061  2.0923 -1.4242  2.3104
  891MOL0     H20232   9.298   1.596   0.902 -0.7331  1.6438 -1.3765
  891MOL0     H20233   9.141   1.587   0.827  0.1525  1.5766 -0.1145
  891MOL0     H20234   9.249   1.393   0.981  0.9336  0.7694  2.7167
  891MOL0     H20235   9.161   1.470   1.108 -0.0171  0.8058  0.5664
  891MOL0     H20236   8.901   1.432   1.120  2.9936 -1.8044  1.4240
  891MOL0     H20237   8.707   1.280   1.111  0.4069 -2.0176 -0.1456
  891MOL0     H20238   8.658   1.290   0.935 -0.1601 -1.6969 -3.0874
  891MOL0     H20239   8.695   1.052   0.904 -1.3307  0.9944 -0.1224
  891MOL0     H20240   8.771   1.030   1.064 -2.5803 -1.1706  2.2712
  891MOL0     H20241   8.488   1.127   1.031  0.2189  1.6617  0.1229
  891MOL0     H20242   8.562   1.069   1.176 -0.7158  1.5982 -0.4133
  891MOL0     H20243   8.511   0.905   0.915  1.5852  3.7345 -0.8390
  891MOL0     H20244   8.413   0.887   1.061  0.6685 -0.7354  1.4400
  891MOL0     H20245   8.612   0.721   1.313 -1.9711  0.6681  1.6803
  891MOL0     H20246   8.526   0.496   1.390 -0.3086 -3.1118 -1.0529
  891MOL0     H20247   8.093   0.239   1.244  0.2337  0.2165  1.2618
  891MOL0     H20248   7.981   0.020   1.295  0.7095 -0.4472  0.0711
  891MOL0     H20249   8.099  -0.375   1.119  1.8856 -1.2017  0.4661
  891MOL0     H20250   8.208  -0.349   1.259  0.2987  0.7129 -1.2010
  891MOL0     H20251   7.918  -0.447   1.250  0.0866 -1.3312 -1.2205
  891MOL0     H20252   8.065  -0.549   1.276  1.4364 -0.4730  3.3259
  891MOL0     H20253   8.111  -0.471   1.480  1.1088  2.2053  0.0566
  891MOL0     H20254   7.995  -0.342   1.482  0.6897  0.8435 -2.1431
  891MOL0     H20255   7.940  -0.574   1.616  0.2018 -0.2859  0.3009
  891MOL0     H20256   7.881  -0.622   1.457 -0.7974  1.1350 -1.7043
  891MOL0     H20257   7.756  -0.393   1.441  0.8874  1.3975  0.1295
  891MOL0     H20258   7.789  -0.384   1.617  1.5281 -0.9626 -0.9971
  891MOL0     H20259   7.562  -0.474   1.589 -1.9211 -2.8130  0.4735
  891MOL0     H20260   7.623  -0.588   1.470 -1.1030  2.4503 -1.7370
  891MOL0     H20261   7.701  -0.553   1.765  2.4867 -0.0696 -1.3372
  891MOL0     H20262   7.765  -0.686   1.678  1.2988  1.4972 -1.7279
  891MOL0     H20263   7.603  -0.784   1.812 -0.3098 -2.4388 -1.5782
  891MOL0     H20264   7.492  -0.647   1.771  2.0003  3.9695 -2.3487
  891MOL0     H20265   8.302  -0.192   1.108 -1.3706 -0.7917  1.0835
  891MOL0     H20266   8.402   0.025   1.040 -0.0645 -0.6308 -0.3173
  891MOL0     H20267   8.393   0.432   0.982 -2.6141  1.6628  0.7815
  891MOL0     H20268   8.493   0.646   0.916  1.3589  3.1473  0.1215
  891MOL0     H20269   8.419   1.598   0.633  0.3322  0.8345  0.6662
  891MOL0     H20270   8.211   1.493   0.724  1.0073  0.9987 -0.9765
  891MOL0     H20271   7.909   1.550   1.058 -2.2538 -0.0881  0.6017
  891MOL0     H20272   7.716   1.534   1.138 -2.5024 -1.8132 -1.0962
  891MOL0     H20273   7.476   1.427   1.135 -2.6061 -1.2253  0.4389
  891MOL0     H20274   7.551   1.483   1.289  0.6239  0.2037 -1.6719
  891MOL0     H20275   7.312   1.458   1.308 -2.2787 -1.4592  1.7278
  891MOL0     H20276   7.384   1.320   1.395 -1.0022  0.8840  0.2801
  891MOL0     H20277   7.343   1.186   1.190  0.4660  0.2770  0.6502
  891MOL0     H20278   7.264   1.324   1.113  2.4678 -0.1359 -0.4284
  891MOL0     H20279   7.175   1.262   1.383  0.3166  4.5218 -0.2586
  891MOL0     H20280   7.072   1.326   1.258 -0.7306 -0.6268 -0.5299
  891MOL0     H20281   7.051   0.895   1.203 -2.4579  0.1572  0.3941
  891MOL0     H20282   7.771   1.122   1.237 -2.8662  2.5579  2.0255
  891MOL0     H20283   8.001   1.040   1.024 -0.8606 -2.9507  1.1658
  891MOL0     H20284   8.124   1.102   1.147  0.7079 -3.9775 -0.2472
  891MOL0     H20285   7.982   1.033   1.201 -0.7623  1.8110  0.7472
  892MOL0     O20286   7.927   0.017  11.046  0.1335  0.4835 -0.5716
  892MOL0     C20287   7.852  -0.071  11.075  0.5737  0.3476 -0.2740
  892MOL0     O20288   7.870  -0.200  11.056  0.3640 -0.4032  0.6189
  892MOL0     C20289   7.980  -0.233  10.978 -1.2063  0.3097 -0.0621
  892MOL0     C20290   7.971  -0.232  10.838 -0.6643 -0.3268 -0.2808
  892MOL0     C20291   8.083  -0.249  10.757 -0.8614  0.1021 -0.4447
  892MOL0     C20292   8.208  -0.287  10.818  0.6052 -0.1847 -0.8914
  892MOL0     O20293   8.311  -0.318  10.727  0.0659 -0.1961 -0.2503
  892MOL0     C20294   8.436  -0.359  10.775  0.4224 -0.1906 -0.1517
  892MOL0     C20295   8.510  -0.435  10.662  0.5823 -0.5303 -0.8986
  892MOL0     C20296   8.652  -0.473  10.705 -0.7400  0.4914 -0.4604
  892MOL0     C20297   8.721  -0.528  10.579 -0.8972  0.0246 -0.2192
  892MOL0     C20298   8.869  -0.565  10.603 -0.0386  0.6158  0.0997
  892MOL0     C20299   8.935  -0.645  10.488 -0.4769 -0.5297 -0.4752
  892MOL0     C20300   8.941  -0.553  10.362 -0.4400 -0.0684 -0.1884
  892MOL0     C20301   9.062  -0.451  10.374  0.3715 -0.7348 -1.3651
  892MOL0     N20302   9.196  -0.505  10.368 -0.3448 -0.4560  0.3200
  892MOL0     C20303   9.300  -0.488  10.465 -0.1841  1.0871 -0.0355
  892MOL0     C20304   9.392  -0.583  10.433 -0.6019 -0.2149 -0.8956
  892MOL0     C20305   9.505  -0.628  10.518  0.0660  0.9268 -0.6877
  892MOL0     C20306   9.634  -0.545  10.496  0.1097  0.9229 -0.0601
  892MOL0     C20307   9.627  -0.411  10.571 -0.0809  0.0647  0.6206
  892MOL0     C20308   9.774  -0.349  10.587 -0.4159  0.4134 -0.5836
  892MOL0     O20309   9.829  -0.342  10.461  0.0257 -0.9862 -0.1132
  892MOL0     C20310   9.961  -0.329  10.447 -0.4114 -0.0167  0.1932
  892MOL0     C20311  10.052  -0.324  10.554  0.2967  0.3059 -0.5427
  892MOL0     C20312  10.187  -0.310  10.531  0.2329  0.5996 -0.6134
  892MOL0     C20313  10.246  -0.297  10.403 -0.0560 -0.1608  0.3999
  892MOL0     C20314  10.387  -0.275  10.378 -0.3011 -1.2201 -0.4679
  892MOL0     O20315  10.449  -0.342  10.277  0.3893  0.0285 -0.4672
  892MOL0     C20316  10.588  -0.338  10.287 -0.4545 -0.2035 -0.5300
  892MOL0     C20317  10.648  -0.389  10.399  0.1318 -0.0824  0.6996
  892MOL0     C20318  10.787  -0.388  10.412  0.1617  0.1593  0.0984
  892MOL0     C20319  10.865  -0.321  10.316 -0.2466  0.3756  0.1545
  892MOL0     O20320  11.001  -0.312  10.331  0.6632  0.4111 -0.5557
  892MOL0     C20321  11.053  -0.190  10.390  1.1790  0.1667  0.0375
  892MOL0     C20322  11.203  -0.198  10.403  0.3546 -0.2921 -0.4655
  892MOL0     C20323  11.275  -0.198  10.268 -0.1633  0.4511 -0.9456
  892MOL0     C20324  11.427  -0.188  10.288  0.5133 -0.4372  0.0420
  892MOL0     C20325  11.486  -0.239  10.158  0.5484  0.0624 -0.5045
  892MOL0     C20326  11.633  -0.281  10.165 -0.7780  0.9817  0.0864
  892MOL0     C20327  11.731  -0.167  10.146  0.2895  0.5058  0.2043
  892MOL0     C20328  11.880  -0.226  10.124 -0.3805  0.1898 -0.6663
  892MOL0    Cl20329  11.969  -0.079  10.062 -0.1851 -0.4329  0.5979
  892MOL0     C20330  10.809  -0.265  10.204  1.0133  0.6361 -0.3645
  892MOL0     C20331  10.667  -0.272  10.189  0.4180  0.3741 -0.1461
  892MOL0     O20332  10.440  -0.189  10.457 -0.2257  0.1124  0.4327
  892MOL0     C20333  10.149  -0.304  10.296 -0.7004 -0.3626  0.2623
  892MOL0     C20334  10.010  -0.327  10.321 -0.3473 -1.0477 -0.2618
  892MOL0     N20335   9.353  -0.648  10.320  0.7089 -0.0406  0.0841
  892MOL0     N20336   9.237  -0.604  10.278 -0.0509  0.5807 -0.5491
  892MOL0     C20337   8.215  -0.284  10.956  0.0660 -0.4004  0.1370
  892MOL0     C20338   8.100  -0.257  11.039 -0.3304 -0.2526  0.7357
  892MOL0     C20339   7.720  -0.031  11.134  0.7382 -0.1183 -0.6320
  892MOL0     C20340   7.607  -0.129  11.128  0.4345  0.1395 -0.5958
  892MOL0     C20341   7.486  -0.098  11.186  0.0701  0.4764 -0.1297
  892MOL0     C20342   7.457   0.030  11.236  0.2683  0.3101 -0.4870
  892MOL0     O20343   7.326   0.058  11.279  0.7809 -0.5950  0.3042
  892MOL0     C20344   7.282  -0.011  11.396  0.7372  0.1744  0.5549
  892MOL0     C20345   7.313   0.081  11.511 -1.1451 -0.3148  0.0920
  892MOL0     C20346   7.218   0.203  11.493  0.2440 -0.4816  0.0153
  892MOL0     C20347   7.186   0.267  11.626 -0.1597 -0.5273  0.6085
  892MOL0     C20348   7.052   0.332  11.615 -0.0945  0.4214  0.4160
  892MOL0     C20349   6.939   0.382  11.604 -0.2834 -0.3630  0.4323
  892MOL0     C20350   7.558   0.119  11.246  0.7173 -0.1934 -0.8200
  892MOL0     C20351   7.683   0.096  11.197 -0.2240  0.8000 -0.2492
  892MOL0     C20352   7.791   0.211  11.199  0.4409 -0.1865  1.0017
  892MOL0     H20353   7.874  -0.206  10.797 -1.3625 -3.3650 -0.8066
  892MOL0     H20354   8.082  -0.255  10.648  1.5625 -1.1301 -0.4562
  892MOL0     H20355   8.483  -0.266  10.809 -2.5732  3.0993 -4.0589
  892MOL0     H20356   8.435  -0.432  10.857 -0.9755  0.8335  0.7977
  892MOL0     H20357   8.509  -0.368  10.576 -1.0901  0.6040 -0.0646
  892MOL0     H20358   8.451  -0.521  10.631  1.5186 -1.0833 -1.2037
  892MOL0     H20359   8.650  -0.555  10.778 -0.9691  0.2812 -0.7053
  892MOL0     H20360   8.713  -0.386  10.730  0.9189 -1.5319  3.5130
  892MOL0     H20361   8.669  -0.616  10.541  2.9631 -2.2459 -0.8064
  892MOL0     H20362   8.724  -0.445  10.508 -1.1012 -0.8131 -1.2255
  892MOL0     H20363   8.927  -0.477  10.633 -2.7757  2.3234  0.6424
  892MOL0     H20364   8.862  -0.640  10.683 -0.9653 -4.3636 -4.1443
  892MOL0     H20365   9.039  -0.665  10.516 -0.8540 -1.2508  0.4640
  892MOL0     H20366   8.873  -0.732  10.463 -1.6710 -0.1273  0.9071
  892MOL0     H20367   8.849  -0.496  10.347 -1.6942 -2.0807 -0.5377
  892MOL0     H20368   8.970  -0.617  10.278 -1.4532  1.3162 -1.6560
  892MOL0     H20369   9.044  -0.380  10.293 -0.1277  0.3460 -0.3274
  892MOL0     H20370   9.060  -0.397  10.469  0.4346  0.6246 -2.1198
  892MOL0     H20371   9.305  -0.423  10.552  4.7589  0.6207  0.3120
  892MOL0     H20372   9.478  -0.636  10.624 -0.9643  1.0446 -0.9326
  892MOL0     H20373   9.535  -0.729  10.489 -0.2004  0.6100  0.1090
  892MOL0     H20374   9.719  -0.608  10.528 -0.7989 -0.2724  0.0767
  892MOL0     H20375   9.640  -0.528  10.389 -0.2950  0.1431 -0.2130
  892MOL0     H20376   9.575  -0.434  10.665 -4.4175  1.3969 -1.2318
  892MOL0     H20377   9.558  -0.349  10.514 -2.0717 -2.5511  0.0282
  892MOL0     H20378   9.824  -0.419  10.655  1.6022  1.9054 -0.4615
  892MOL0     H20379   9.785  -0.256  10.643  2.8396 -1.1694  1.7364
  892MOL0     H20380  10.013  -0.322  10.656  0.1061  0.5887 -0.6212
  892MOL0     H20381  10.256  -0.314  10.615 -0.1288 -1.3167 -0.3548
  892MOL0     H20382  10.590  -0.444  10.473 -0.0882 -2.2719 -1.0064
  892MOL0     H20383  10.836  -0.437  10.496  0.4144 -1.2143 -0.8264
  892MOL0     H20384  11.027  -0.099  10.335  0.8665 -0.4267 -0.8049
  892MOL0     H20385  11.008  -0.185  10.489  2.2575 -0.0033  0.5528
  892MOL0     H20386  11.229  -0.109  10.461 -2.2092 -0.9306  1.8843
  892MOL0     H20387  11.229  -0.289  10.456  1.6986 -2.4136 -4.3485
  892MOL0     H20388  11.233  -0.283  10.214 -1.9434  0.4700  0.2886
  892MOL0     H20389  11.245  -0.109  10.212  0.6925  0.8706 -0.7541
  892MOL0     H20390  11.458  -0.245  10.376  2.6929  0.7222  0.1010
  892MOL0     H20391  11.457  -0.086  10.318  0.8968 -1.0199  1.7784
  892MOL0     H20392  11.473  -0.170  10.074 -1.6362  0.3595  0.0159
  892MOL0     H20393  11.430  -0.330  10.138  1.1864  0.1199 -2.8011
  892MOL0     H20394  11.643  -0.333  10.261 -2.9205 -1.1787 -0.7390
  892MOL0     H20395  11.645  -0.349  10.080 -1.0263  0.2878  0.5894
  892MOL0     H20396  11.723  -0.105  10.235 -0.5674  0.6919  0.0154
  892MOL0     H20397  11.694  -0.101  10.067  0.0003 -0.4170 -0.4637
  892MOL0     H20398  11.929  -0.253  10.218 -2.5570  0.2218  0.5655
  892MOL0     H20399  11.889  -0.309  10.054 -2.4023 -2.6469  2.1165
  892MOL0     H20400  10.864  -0.228  10.118 -0.8731  4.5105 -0.1620
  892MOL0     H20401  10.612  -0.218  10.113  0.5124  0.5988 -0.0541
  892MOL0     H20402  10.187  -0.313  10.194  0.3592  1.1923  0.4901
  892MOL0     H20403   9.943  -0.349  10.238 -0.5633 -3.6705  0.5240
  892MOL0     H20404   8.308  -0.294  11.011  1.1450  1.7128 -1.1526
  892MOL0     H20405   8.112  -0.245  11.146  0.7603  1.4528  0.4719
  892MOL0     H20406   7.616  -0.225  11.078 -2.1868  0.2523 -1.4242
  892MOL0     H20407   7.406  -0.169  11.169 -0.7914  1.8477 -2.3639
  892MOL0     H20408   7.325  -0.112  11.400 -2.0295 -1.1596 -0.7516
  892MOL0     H20409   7.174  -0.028  11.395  0.7693 -0.1070  1.2344
  892MOL0     H20410   7.418   0.112  11.509 -1.9224  2.5317 -0.0924
  892MOL0     H20411   7.290   0.027  11.603 -1.0640  2.2660  1.7295
  892MOL0     H20412   7.121   0.169  11.455  1.3943 -2.1589 -1.6058
  892MOL0     H20413   7.254   0.272  11.416  1.7429 -3.6987 -2.4373
  892MOL0     H20414   7.172   0.196  11.708 -1.2999  0.1032  0.9905
  892MOL0     H20415   7.270   0.329  11.656 -0.3691  0.5663 -0.9450
  892MOL0     H20416   6.844   0.424  11.577 -0.7049 -1.1075  0.7542
  892MOL0     H20417   7.551   0.219  11.288  4.3775 -0.4304  0.6723
  892MOL0     H20418   7.807   0.255  11.100  1.9744 -0.3162  1.1684
  892MOL0     H20419   7.743   0.285  11.264 -0.6380 -1.3435  1.5647
  892MOL0     H20420   7.890   0.186  11.238  1.3824 -0.6535 -1.5096
  893MOL0     O20421   4.694   5.353   4.664 -0.1314 -0.5047  0.2486
  893MOL0     C20422   4.599   5.354   4.746  0.0521 -0.0452  0.5776
  893MOL0     O20423   4.621   5.349   4.877  0.1681 -0.0114 -1.2891
  893MOL0     C20424   4.738   5.312   4.927 -0.0311  0.6402  0.2302
  893MOL0     C20425   4.857   5.389   4.904 -0.2241 -0.3320  0.5176
  893MOL0     C20426   4.984   5.341   4.943 -1.0823  0.0436 -0.4061
  893MOL0     C20427   4.988   5.213   5.007  0.2061 -0.8024 -0.1401
  893MOL0     O20428   5.118   5.177   5.042 -0.2335  0.7807 -0.6486
  893MOL0     C20429   5.146   5.044   5.084 -0.1444 -0.1777  0.7413
  893MOL0     C20430   5.301   5.020   5.098 -0.0283  0.0294 -0.7638
  893MOL0     C20431   5.373   5.061   4.969  0.7141 -0.2767  0.0296
  893MOL0     C20432   5.509   4.989   4.946 -0.9123 -0.0288 -0.1460
  893MOL0     C20433   5.554   5.025   4.802  0.2076  0.0068 -0.4834
  893MOL0     C20434   5.694   4.986   4.763  0.0321 -1.2179 -0.2378
  893MOL0     C20435   5.706   4.833   4.750  1.2190  0.0994  0.1119
  893MOL0     C20436   5.835   4.799   4.680  0.9339  0.4282  0.1607
  893MOL0     N20437   5.953   4.837   4.754 -0.1547  0.8349  0.1037
  893MOL0     C20438   6.030   4.945   4.731  0.0053 -0.4303  0.0069
  893MOL0     C20439   6.143   4.934   4.814  0.0713  0.2306  0.4509
  893MOL0     C20440   6.260   5.031   4.814 -0.3365 -0.9553  0.4350
  893MOL0     C20441   6.390   4.962   4.777  0.1131  0.2980  0.2827
  893MOL0     C20442   6.499   5.069   4.745  0.4577 -0.1917  0.2065
  893MOL0     C20443   6.628   4.993   4.709 -0.1373  0.0334 -0.6307
  893MOL0     O20444   6.702   5.081   4.622 -0.0673  0.1350  0.6133
  893MOL0     C20445   6.844   5.053   4.596  0.5119 -0.8793 -1.1541
  893MOL0     C20446   6.906   4.942   4.645 -0.6347 -0.0380 -0.3785
  893MOL0     C20447   7.045   4.920   4.612 -0.3834 -0.4055  0.2993
  893MOL0     C20448   7.110   5.001   4.516 -0.4675 -0.9256  0.0477
  893MOL0     C20449   7.252   4.982   4.479 -0.3918  0.9652  0.3237
  893MOL0     O20450   7.315   5.085   4.409  0.6750  0.6546 -0.2273
  893MOL0     C20451   7.449   5.070   4.371  0.1180 -0.1800 -0.6391
  893MOL0     C20452   7.504   4.954   4.310  0.1987  0.7858 -0.1512
  893MOL0     C20453   7.643   4.938   4.301  0.3317  1.5267 -0.6007
  893MOL0     C20454   7.729   5.041   4.337 -0.2559  0.2535  0.7392
  893MOL0     O20455   7.861   5.048   4.323  0.4881  0.1177 -0.1897
  893MOL0     C20456   7.942   4.930   4.291 -0.1882  0.2774 -0.5343
  893MOL0     C20457   8.085   4.976   4.251 -0.4056 -0.0583 -0.3454
  893MOL0     C20458   8.099   4.968   4.106  0.0963 -0.0652 -0.3422
  893MOL0     C20459   8.229   5.035   4.054 -0.8255  0.6338  0.2587
  893MOL0     C20460   8.231   4.998   3.903  0.3203 -0.9894  0.0148
  893MOL0     C20461   8.336   5.074   3.829 -0.0342  0.8702 -0.1874
  893MOL0     C20462   8.363   5.033   3.680 -0.5896 -0.2096 -0.8457
  893MOL0     C20463   8.225   5.010   3.614 -0.2325  0.1422 -0.0628
  893MOL0    Cl20464   8.258   4.980   3.434  0.0680 -0.2505 -0.2127
  893MOL0     C20465   7.673   5.161   4.384 -0.2379  0.5702 -1.2486
  893MOL0     C20466   7.533   5.174   4.412 -0.0341 -0.4330  0.2009
  893MOL0     O20467   7.299   4.869   4.497 -0.7531 -0.1611  0.1183
  893MOL0     C20468   7.043   5.115   4.470  0.4883  0.0173  0.2180
  893MOL0     C20469   6.910   5.144   4.516  0.0545 -0.1965  0.5515
  893MOL0     N20470   6.123   4.822   4.894  0.7605 -0.1892  0.6536
  893MOL0     N20471   6.007   4.775   4.859  0.3359  0.6361  0.0698
  893MOL0     C20472   4.871   5.143   5.036 -0.1362  0.6440  0.4062
  893MOL0     C20473   4.747   5.186   4.994 -0.3205  0.6878  0.8225
  893MOL0     C20474   4.461   5.386   4.694 -1.4751  0.5522 -0.4147
  893MOL0     C20475   4.354   5.351   4.787 -0.4478  0.5488 -0.0739
  893MOL0     C20476   4.219   5.359   4.743  0.3141  0.2612 -0.9824
  893MOL0     C20477   4.194   5.396   4.609  0.0450  0.3697 -0.5010
  893MOL0     O20478   4.067   5.395   4.546 -0.2203 -0.0721 -0.5444
  893MOL0     C20479   3.948   5.383   4.623 -0.5613 -0.2719  0.4203
  893MOL0     C20480   3.830   5.373   4.533 -0.2194 -0.3570 -0.4593
  893MOL0     C20481   3.784   5.510   4.471 -0.3188  0.4238  0.1753
  893MOL0     C20482   3.644   5.491   4.389 -0.5257 -0.1082 -0.0531
  893MOL0     C20483   3.614   5.615   4.321  0.5926  0.2051  0.4004
  893MOL0     C20484   3.571   5.720   4.263 -0.4677  0.8357 -0.1215
  893MOL0     C20485   4.291   5.431   4.515 -0.4794  0.0568 -0.7602
  893MOL0     C20486   4.426   5.426   4.560 -0.7612 -0.0001  0.2100
  893MOL0     C20487   4.522   5.482   4.456 -0.0905 -0.4280  0.4949
  893MOL0     H20488   4.854   5.487   4.857  2.1809 -1.5159 -2.4153
  893MOL0     H20489   5.070   5.406   4.938 -0.9366 -0.2167 -1.9516
  893MOL0     H20490   5.090   5.041   5.177 -3.6834  0.9886 -1.1711
  893MOL0     H20491   5.090   4.971   5.026 -0.3810 -1.5673  2.6265
  893MOL0     H20492   5.307   4.914   5.126  0.2859 -0.0086 -0.9736
  893MOL0     H20493   5.335   5.078   5.184  1.0959  3.1456 -3.1227
  893MOL0     H20494   5.385   5.169   4.961 -3.9991  0.4388 -0.2733
  893MOL0     H20495   5.307   5.030   4.888  0.9280 -1.1032  0.1589
  893MOL0     H20496   5.581   5.010   5.026  0.2632  1.3782 -1.4972
  893MOL0     H20497   5.499   4.881   4.953 -2.3634  0.1463  0.8830
  893MOL0     H20498   5.481   4.992   4.727  1.0644 -1.4473 -0.7192
  893MOL0     H20499   5.553   5.134   4.802  2.7970  0.1079  1.2174
  893MOL0     H20500   5.721   5.036   4.670  1.1172  0.9165  1.1248
  893MOL0     H20501   5.756   5.018   4.848 -0.0092 -0.6363 -0.4246
  893MOL0     H20502   5.624   4.800   4.686 -0.4186  3.6956  0.0967
  893MOL0     H20503   5.701   4.791   4.850 -1.7182 -0.2463 -0.1098
  893MOL0     H20504   5.842   4.690   4.673 -0.3130  0.2891  0.8067
  893MOL0     H20505   5.847   4.848   4.583  0.9914  2.0597  0.9546
  893MOL0     H20506   6.023   5.024   4.657 -2.6122  2.6100  3.1183
  893MOL0     H20507   6.235   5.121   4.757  0.1070 -0.4186  1.0694
  893MOL0     H20508   6.271   5.069   4.916  0.3157 -0.6742  0.2661
  893MOL0     H20509   6.423   4.903   4.863 -1.1880 -0.9646 -0.0518
  893MOL0     H20510   6.374   4.888   4.698  2.8654 -1.2300  1.0363
  893MOL0     H20511   6.514   5.138   4.828 -1.6562 -0.1416  0.6020
  893MOL0     H20512   6.469   5.129   4.659  0.4588 -1.7244 -0.9051
  893MOL0     H20513   6.607   4.907   4.646  1.4068 -0.0051 -1.1400
  893MOL0     H20514   6.695   4.954   4.787  0.6427  0.6400 -0.9749
  893MOL0     H20515   6.861   4.873   4.716  0.6104  1.4843  2.0162
  893MOL0     H20516   7.110   4.847   4.659  0.2202  0.4721  0.8680
  893MOL0     H20517   7.437   4.869   4.303  0.6231  0.2317  1.9361
  893MOL0     H20518   7.687   4.849   4.256  2.2275  1.1253  1.8189
  893MOL0     H20519   7.953   4.864   4.378 -0.1016  1.0748  0.0636
  893MOL0     H20520   7.895   4.865   4.216 -1.4779  2.7639 -2.0176
  893MOL0     H20521   8.097   5.076   4.293 -1.0972  0.0722 -0.4461
  893MOL0     H20522   8.159   4.910   4.298 -2.0786 -2.2921 -0.6562
  893MOL0     H20523   8.098   4.864   4.072  2.6972  0.2210 -1.5084
  893MOL0     H20524   8.018   5.018   4.053  1.1536  3.8497  1.3850
  893MOL0     H20525   8.307   4.982   4.110 -1.0166 -0.5193 -0.5327
  893MOL0     H20526   8.235   5.144   4.060 -1.5481  0.8131 -1.5475
  893MOL0     H20527   8.137   5.030   3.856  0.4039  0.7482  0.9665
  893MOL0     H20528   8.230   4.889   3.889  1.7338 -1.0122  0.0261
  893MOL0     H20529   8.298   5.176   3.836  1.9273  1.7090 -1.0253
  893MOL0     H20530   8.430   5.069   3.886  0.1030  0.6943 -0.4247
  893MOL0     H20531   8.414   4.936   3.685 -1.3465 -0.5285  2.0825
  893MOL0     H20532   8.431   5.112   3.645  0.6890  1.2639  4.1787
  893MOL0     H20533   8.174   4.923   3.657  1.1377 -0.7751 -0.2149
  893MOL0     H20534   8.170   5.104   3.624  3.1311  2.2492  0.0818
  893MOL0     H20535   7.731   5.253   4.387  1.7082 -0.5664 -1.9724
  893MOL0     H20536   7.508   5.276   4.443 -0.5469 -0.9006  1.4008
  893MOL0     H20537   7.094   5.171   4.392  1.2612  1.1715  1.5026
  893MOL0     H20538   6.840   5.224   4.495 -0.5744  0.1768  3.6373
  893MOL0     H20539   4.876   5.051   5.094 -1.4377 -0.4755 -1.1323
  893MOL0     H20540   4.665   5.115   4.996  0.8074 -0.7020  3.7223
  893MOL0     H20541   4.378   5.335   4.892  0.5275  1.9701 -0.0527
  893MOL0     H20542   4.136   5.332   4.807 -1.0666  0.9000 -2.4309
  893MOL0     H20543   3.947   5.461   4.700  2.2810  0.1860  0.1140
  893MOL0     H20544   3.954   5.287   4.676 -2.1472 -1.4388 -1.3700
  893MOL0     H20545   3.747   5.325   4.585  1.8927 -1.6578  1.9233
  893MOL0     H20546   3.845   5.312   4.443 -3.5302 -1.4117 -0.4416
  893MOL0     H20547   3.862   5.531   4.397  0.5690 -1.3543  0.5284
  893MOL0     H20548   3.792   5.581   4.554 -1.5451  0.4743  0.2670
  893MOL0     H20549   3.655   5.423   4.304  3.0315  0.6989 -0.4162
  893MOL0     H20550   3.560   5.448   4.443 -2.4018  3.2677 -0.0421
  893MOL0     H20551   3.549   5.818   4.226 -1.8751  1.0251  1.1173
  893MOL0     H20552   4.256   5.464   4.417  0.1501  0.1493 -0.9557
  893MOL0     H20553   4.491   5.585   4.437  2.5245  0.3748  0.2283
  893MOL0     H20554   4.628   5.483   4.483  0.3392  1.0625 -1.0465
  893MOL0     H20555   4.511   5.422   4.365 -0.0612 -0.1806  0.3261
  894MOL0     O20556  10.878   9.073   3.309  0.0161  0.0643 -0.0573
  894MOL0     C20557  10.822   9.043   3.196 -0.6405  0.4531  0.0919
  894MOL0     O20558  10.872   9.062   3.073  0.5104 -0.2619 -0.4703
  894MOL0     C20559  11.011   9.095   3.050 -0.6844 -0.7827 -0.5749
  894MOL0     C20560  11.068   9.043   2.928  0.4567  0.1895  0.0471
  894MOL0     C20561  11.207   9.073   2.902 -0.0165 -0.6565  0.4090
  894MOL0     C20562  11.282   9.158   2.986 -0.5873  0.0743 -0.3837
  894MOL0     O20563  11.405   9.211   2.963 -0.0105 -0.4445 -0.2542
  894MOL0     C20564  11.468   9.201   2.832  0.5417 -0.5070  0.8932
  894MOL0     C20565  11.613   9.262   2.847  0.8895  0.5333  0.7402
  894MOL0     C20566  11.705   9.184   2.942 -0.0668  0.5788 -0.0326
  894MOL0     C20567  11.826   9.271   2.996  0.1028  0.2181  0.4380
  894MOL0     C20568  11.945   9.197   3.034  0.2610  0.2644  0.4136
  894MOL0     C20569  12.036   9.293   3.106 -0.0604  1.1371  0.0962
  894MOL0     C20570  12.160   9.211   3.149 -0.1734  0.4045 -0.3277
  894MOL0     C20571  12.257   9.316   3.202  0.1627  0.3959  0.7371
  894MOL0     N20572  12.367   9.244   3.258 -1.1847  0.5030  0.4140
  894MOL0     C20573  12.478   9.186   3.195  0.2675 -0.0041 -0.1582
  894MOL0     C20574  12.565   9.144   3.292 -0.4443 -0.0606  0.5658
  894MOL0     C20575  12.709   9.100   3.277  0.3096  0.9127 -0.4017
  894MOL0     C20576  12.805   9.216   3.234  0.4014 -0.0356 -0.2616
  894MOL0     C20577  12.945   9.152   3.210  0.0664  0.6716  0.3930
  894MOL0     C20578  13.043   9.256   3.154  0.0498 -0.0645 -0.3359
  894MOL0     O20579  13.127   9.312   3.265  0.5431 -1.2437  0.0696
  894MOL0     C20580  13.260   9.304   3.267  0.4717  0.7437  0.0212
  894MOL0     C20581  13.340   9.243   3.169 -0.2220 -0.0303 -0.6745
  894MOL0     C20582  13.476   9.219   3.207 -0.2824 -0.1669 -0.0417
  894MOL0     C20583  13.533   9.265   3.328 -0.3278  1.2019 -0.7096
  894MOL0     C20584  13.677   9.230   3.364  0.7820  0.0249  0.1271
  894MOL0     O20585  13.748   9.137   3.283 -0.5457 -0.6231 -0.0692
  894MOL0     C20586  13.862   9.088   3.344  0.0251 -1.0784 -1.1157
  894MOL0     C20587  13.848   9.031   3.478  0.9482  0.8655  0.3100
  894MOL0     C20588  13.967   8.999   3.541  0.1690  0.7992 -0.0261
  894MOL0     C20589  14.091   9.023   3.485 -0.5207  1.4144 -0.2749
  894MOL0     O20590  14.211   9.007   3.537  0.1875 -0.0029  0.5866
  894MOL0     C20591  14.225   8.971   3.678 -0.0772 -0.6754  0.4612
  894MOL0     C20592  14.372   8.985   3.704 -0.2007  0.0545 -0.5862
  894MOL0     C20593  14.472   8.893   3.634 -0.3399 -0.5981  0.4525
  894MOL0     C20594  14.621   8.937   3.687 -0.1874 -1.1244 -0.0582
  894MOL0     C20595  14.727   8.858   3.609 -0.5181 -0.1629 -0.5371
  894MOL0     C20596  14.861   8.932   3.613 -0.3222  0.5333  0.1316
  894MOL0     C20597  14.978   8.853   3.546 -0.2088 -1.2547  0.3009
  894MOL0     C20598  15.106   8.941   3.556  1.1430 -0.0127  0.0077
  894MOL0    Cl20599  15.197   8.925   3.706 -0.3293  0.1771 -0.1735
  894MOL0     C20600  14.095   9.076   3.351 -0.3948  0.3355 -0.4101
  894MOL0     C20601  13.983   9.111   3.275  0.2558  0.2271 -1.3771
  894MOL0     O20602  13.720   9.299   3.457  0.6740  0.2326 -0.3774
  894MOL0     C20603  13.446   9.328   3.422 -0.3978 -0.0935  0.3401
  894MOL0     C20604  13.312   9.349   3.388 -0.1920  0.1946 -0.4789
  894MOL0     N20605  12.496   9.160   3.407 -0.2848  0.0025 -0.4010
  894MOL0     N20606  12.387   9.227   3.395  0.1726  0.0259 -0.6701
  894MOL0     C20607  11.222   9.209   3.102 -0.9073 -0.3154  0.1056
  894MOL0     C20608  11.091   9.183   3.126  0.6880 -0.2463  0.0101
  894MOL0     C20609  10.685   8.982   3.208 -1.0481 -0.6410 -0.7049
  894MOL0     C20610  10.672   8.898   3.313  0.2663 -0.1241 -0.2465
  894MOL0     C20611  10.554   8.838   3.338  0.1487  0.2449  0.8078
  894MOL0     C20612  10.448   8.853   3.247  0.6143 -0.4747 -0.6082
  894MOL0     O20613  10.335   8.783   3.272 -0.0831 -0.0215  1.0121
  894MOL0     C20614  10.213   8.855   3.251 -0.9178  0.2891  0.7199
  894MOL0     C20615  10.117   8.830   3.362 -0.2548 -0.4153  0.6218
  894MOL0     C20616  10.189   8.833   3.496 -0.0940 -0.5592 -0.1943
  894MOL0     C20617  10.101   8.867   3.613  0.4383 -0.0276 -0.3527
  894MOL0     C20618  10.169   8.875   3.734 -0.5140  0.2683 -0.3520
  894MOL0     C20619  10.228   8.886   3.839  0.4396  0.2945  0.5635
  894MOL0     C20620  10.469   8.937   3.136  0.5473  0.4345  0.2887
  894MOL0     C20621  10.586   9.004   3.115 -0.5937 -0.2917 -0.3408
  894MOL0     C20622  10.594   9.109   3.005 -0.2131 -0.6733  0.1862
  894MOL0     H20623  11.010   8.980   2.861 -0.3393  0.1854  0.7284
  894MOL0     H20624  11.252   9.026   2.815  2.1212  0.9645  0.5613
  894MOL0     H20625  11.464   9.097   2.797 -0.7404 -0.0807 -0.3079
  894MOL0     H20626  11.411   9.265   2.765 -0.4585 -0.2863  1.9256
  894MOL0     H20627  11.597   9.367   2.876  1.8200  1.2192 -1.1041
  894MOL0     H20628  11.651   9.263   2.745 -0.5824 -2.3570  0.0606
  894MOL0     H20629  11.748   9.095   2.895 -0.1666 -0.5013  1.8072
  894MOL0     H20630  11.651   9.148   3.030  0.0024  1.3079  0.3146
  894MOL0     H20631  11.853   9.337   2.912 -1.0524 -0.0474 -0.1639
  894MOL0     H20632  11.810   9.343   3.076 -0.5968  1.7376 -1.0012
  894MOL0     H20633  11.917   9.116   3.101  0.9928  0.4805  0.9944
  894MOL0     H20634  11.993   9.155   2.945 -0.5943  0.6972 -0.2743
  894MOL0     H20635  12.069   9.369   3.035 -0.6977  0.4746 -0.9197
  894MOL0     H20636  11.983   9.331   3.194  1.2091  0.7118  1.0820
  894MOL0     H20637  12.205   9.150   3.069  0.3034  1.3983 -0.8312
  894MOL0     H20638  12.126   9.146   3.230 -0.8228  0.2886 -0.6848
  894MOL0     H20639  12.294   9.375   3.117 -1.6900 -1.9599 -1.8829
  894MOL0     H20640  12.215   9.384   3.277 -0.6562  1.0529 -0.2862
  894MOL0     H20641  12.500   9.209   3.092 -0.7697  0.8182 -0.2184
  894MOL0     H20642  12.745   9.060   3.373 -1.2434  0.0019 -0.1560
  894MOL0     H20643  12.712   9.026   3.197 -0.4099 -3.1260  2.9359
  894MOL0     H20644  12.768   9.275   3.150 -0.9480 -0.6153 -0.0979
  894MOL0     H20645  12.815   9.290   3.313 -1.8269  0.5100 -0.4394
  894MOL0     H20646  12.927   9.071   3.139 -1.0301  2.5684 -1.6223
  894MOL0     H20647  12.980   9.111   3.305 -1.5197  0.0946  0.7601
  894MOL0     H20648  12.986   9.333   3.102  2.7050  1.5420 -1.0518
  894MOL0     H20649  13.102   9.216   3.071  0.2931  1.7485 -1.0951
  894MOL0     H20650  13.308   9.214   3.069  2.1315 -0.4600 -1.3767
  894MOL0     H20651  13.545   9.181   3.133 -0.1063 -0.6509  0.3664
  894MOL0     H20652  13.748   9.011   3.514 -1.0000  1.6337 -4.0669
  894MOL0     H20653  13.954   8.962   3.643  0.3073  0.5990 -0.0790
  894MOL0     H20654  14.168   9.035   3.746 -2.9641 -1.2226 -1.2807
  894MOL0     H20655  14.198   8.868   3.701  3.2980 -1.1118  3.2910
  894MOL0     H20656  14.410   9.086   3.690  1.4139  0.3334  4.0711
  894MOL0     H20657  14.389   8.970   3.811  4.1660 -1.4428 -1.3069
  894MOL0     H20658  14.460   8.787   3.660  0.8439 -0.5227  1.4214
  894MOL0     H20659  14.463   8.902   3.526  1.6135  1.4548  0.3984
  894MOL0     H20660  14.629   8.916   3.794 -0.5558 -2.5314 -0.2811
  894MOL0     H20661  14.639   9.043   3.666 -1.7385 -0.8021  0.1137
  894MOL0     H20662  14.699   8.847   3.504  0.4827 -0.5208 -0.7734
  894MOL0     H20663  14.739   8.758   3.652 -0.6999  0.2859  0.5792
  894MOL0     H20664  14.851   9.030   3.566  0.1183  0.1613 -0.7512
  894MOL0     H20665  14.885   8.942   3.720  0.6180  1.4909 -0.1517
  894MOL0     H20666  14.957   8.841   3.439  1.5897 -0.9371 -0.1115
  894MOL0     H20667  14.990   8.751   3.583 -0.1501 -1.2145  0.3923
  894MOL0     H20668  15.172   8.936   3.469  0.5792 -0.3191 -0.4103
  894MOL0     H20669  15.066   9.043   3.561 -1.6747 -0.9539 -1.2466
  894MOL0     H20670  14.192   9.082   3.302  0.8785 -2.9009  1.3588
  894MOL0     H20671  13.979   9.148   3.173 -2.8087 -0.3021 -1.5673
  894MOL0     H20672  13.492   9.357   3.516 -1.4401 -1.6932  1.3976
  894MOL0     H20673  13.240   9.392   3.458  2.9877  0.2411  3.0717
  894MOL0     H20674  11.272   9.279   3.168 -3.1634  0.6599  0.8808
  894MOL0     H20675  11.061   9.223   3.223  1.2311 -1.6661  0.7884
  894MOL0     H20676  10.755   8.891   3.382  0.3376  2.5914  0.0771
  894MOL0     H20677  10.541   8.774   3.425 -1.5942 -0.4155  0.1113
  894MOL0     H20678  10.178   8.814   3.155  0.4161  0.6405  0.0581
  894MOL0     H20679  10.234   8.960   3.230  4.3206 -0.7861 -1.1205
  894MOL0     H20680  10.065   8.734   3.348 -0.7854  0.0181 -0.4907
  894MOL0     H20681  10.041   8.908   3.360 -0.5976 -0.7546  0.2272
  894MOL0     H20682  10.265   8.911   3.490  0.9728 -1.4026  1.5140
  894MOL0     H20683  10.241   8.742   3.525  1.7480  1.4486  3.6630
  894MOL0     H20684  10.045   8.961   3.602  0.9843  0.6978  2.3752
  894MOL0     H20685  10.037   8.780   3.635  1.2784 -0.3002  1.1132
  894MOL0     H20686  10.289   8.893   3.926  2.3621 -1.5134 -0.5331
  894MOL0     H20687  10.390   8.938   3.062 -0.4825 -2.3526  1.2163
  894MOL0     H20688  10.627   9.203   3.050 -3.2801 -0.6362  2.6637
  894MOL0     H20689  10.652   9.096   2.913 -1.5557  2.4086 -1.2354
  894MOL0     H20690  10.490   9.129   2.978 -0.1154 -1.3091 -0.7255
  895MOL0     O20691   7.661   9.465   2.297  0.2790  0.0763  0.3845
  895MOL0     C20692   7.607   9.510   2.196  0.7302 -0.2866 -0.1678
  895MOL0     O20693   7.671   9.580   2.101  0.4204 -0.2584  0.3541
  895MOL0     C20694   7.804   9.588   2.086 -0.5323  0.1920 -0.1526
  895MOL0     C20695   7.843   9.661   1.981  0.1072 -0.2438 -0.6888
  895MOL0     C20696   7.983   9.677   1.943  0.6288  0.0902 -0.0233
  895MOL0     C20697   8.083   9.614   2.015  0.0734  0.4250  0.0357
  895MOL0     O20698   8.216   9.612   1.977 -0.0540 -0.3577  0.3997
  895MOL0     C20699   8.262   9.604   1.842  0.6256 -0.0805  0.3175
  895MOL0     C20700   8.420   9.628   1.836  0.4318  0.1663 -0.2741
  895MOL0     C20701   8.499   9.537   1.929 -0.7681 -0.3523 -0.4228
  895MOL0     C20702   8.642   9.524   1.886 -0.0243 -0.4333  0.4739
  895MOL0     C20703   8.726   9.658   1.866 -0.0464  0.3185  0.6480
  895MOL0     C20704   8.867   9.643   1.829 -0.4297  0.3280 -0.3067
  895MOL0     C20705   8.938   9.778   1.833 -0.1405  0.1528  0.0301
  895MOL0     C20706   9.082   9.772   1.779  0.8615 -0.2472  0.2362
  895MOL0     N20707   9.117   9.891   1.696  0.3886  0.0740 -0.0188
  895MOL0     C20708   9.096   9.891   1.562  0.0168  0.2445 -0.2035
  895MOL0     C20709   9.132  10.007   1.514  0.3605  0.3783 -0.5636
  895MOL0     C20710   9.114  10.051   1.372 -1.1379 -1.2742 -0.0419
  895MOL0     C20711   9.077  10.209   1.370  0.7594 -0.2272  0.1735
  895MOL0     C20712   9.074  10.275   1.237  0.3288 -0.1701  0.7634
  895MOL0     C20713   9.214  10.328   1.214 -0.0886  0.7726  0.2003
  895MOL0     O20714   9.308  10.228   1.179 -0.4282  0.1182 -0.1885
  895MOL0     C20715   9.433  10.271   1.155  0.1989  0.4302  0.7391
  895MOL0     C20716   9.522  10.172   1.126 -1.3264  0.1498 -0.5728
  895MOL0     C20717   9.663  10.201   1.118 -0.1577 -0.1537  0.1816
  895MOL0     C20718   9.718  10.324   1.124  0.2287  0.3682 -0.1471
  895MOL0     C20719   9.864  10.343   1.123  0.0511  0.0570 -0.2445
  895MOL0     O20720   9.936  10.228   1.150  0.7956 -0.0467  0.0006
  895MOL0     C20721  10.072  10.215   1.184 -0.3757  0.2416  0.9091
  895MOL0     C20722  10.123  10.085   1.166 -0.1926  0.4340  0.5416
  895MOL0     C20723  10.252  10.063   1.191 -0.1394 -0.4860  0.7207
  895MOL0     C20724  10.343  10.164   1.225  0.3486 -0.3412 -0.8412
  895MOL0     O20725  10.479  10.141   1.236  0.0106  0.0771  0.0558
  895MOL0     C20726  10.548  10.079   1.131  0.1756  0.4050 -0.5551
  895MOL0     C20727  10.586  10.187   1.027 -0.4902  0.2881  0.1252
  895MOL0     C20728  10.659  10.305   1.085 -0.6666 -0.1240 -0.7000
  895MOL0     C20729  10.799  10.269   1.147 -0.2209 -0.7553  0.9667
  895MOL0     C20730  10.876  10.399   1.179 -0.0375  0.6142  0.5857
  895MOL0     C20731  11.008  10.363   1.255 -0.1460  0.1754 -0.2379
  895MOL0     C20732  11.106  10.474   1.290  0.4301  0.0686 -0.0192
  895MOL0     C20733  11.046  10.577   1.385  0.0702 -0.0154  0.3444
  895MOL0    Cl20734  11.070  10.531   1.554  0.5636  0.4508 -0.2188
  895MOL0     C20735  10.289  10.292   1.245 -0.3830  0.2881 -0.3836
  895MOL0     C20736  10.160  10.320   1.220 -0.3178 -0.7332 -0.2642
  895MOL0     O20737   9.915  10.457   1.130  1.1512 -0.4361  0.3035
  895MOL0     C20738   9.630  10.433   1.153  0.5269 -0.3117  0.1771
  895MOL0     C20739   9.492  10.402   1.169  0.6027 -0.6720  0.2739
  895MOL0     N20740   9.180  10.079   1.626  1.1456 -0.2103 -0.2180
  895MOL0     N20741   9.175  10.007   1.735  0.0058 -0.7772 -0.0596
  895MOL0     C20742   8.039   9.543   2.130  0.6609  0.3113 -0.1553
  895MOL0     C20743   7.907   9.531   2.168 -0.4791 -0.3397 -0.6214
  895MOL0     C20744   7.462   9.524   2.206 -0.5992 -0.0682 -0.8409
  895MOL0     C20745   7.393   9.446   2.112 -0.4371 -0.5151 -0.4245
  895MOL0     C20746   7.254   9.434   2.115  0.1652  1.4137 -0.4274
  895MOL0     C20747   7.180   9.505   2.211 -0.1218  0.2611  1.3675
  895MOL0     O20748   7.045   9.502   2.214 -0.0158 -0.3222 -0.4495
  895MOL0     C20749   6.970   9.401   2.141  0.1496  1.0520  0.4177
  895MOL0     C20750   6.965   9.274   2.226  0.2524  0.3943  0.3332
  895MOL0     C20751   6.924   9.284   2.375  0.0785 -0.3102 -0.0099
  895MOL0     C20752   6.974   9.162   2.459 -0.0921 -0.7849 -0.8510
  895MOL0     C20753   7.126   9.169   2.481  0.4947 -0.4237 -0.5390
  895MOL0     C20754   7.245   9.179   2.493  0.2525  0.0400  0.8778
  895MOL0     C20755   7.246   9.583   2.299 -0.3344  0.3999 -0.0844
  895MOL0     C20756   7.381   9.595   2.309 -0.3660 -0.1139  0.8247
  895MOL0     C20757   7.447   9.697   2.406 -0.6263  0.2617 -0.4157
  895MOL0     H20758   7.769   9.705   1.915 -0.9310 -0.2994  0.3945
  895MOL0     H20759   8.024   9.745   1.870  1.4907 -0.2511  0.1368
  895MOL0     H20760   8.240   9.503   1.807  0.1008 -0.0025  0.4157
  895MOL0     H20761   8.207   9.669   1.775  1.0268 -3.3759 -3.6071
  895MOL0     H20762   8.447   9.732   1.857  0.9126  0.4505 -2.1422
  895MOL0     H20763   8.446   9.609   1.732  2.3671  0.4760  0.1166
  895MOL0     H20764   8.460   9.435   1.922 -1.1139 -0.1325 -2.2125
  895MOL0     H20765   8.493   9.563   2.035  0.9245  1.8998 -0.8096
  895MOL0     H20766   8.690   9.471   1.969 -1.7252 -1.6378  0.7277
  895MOL0     H20767   8.642   9.469   1.792 -0.9676  0.8511 -0.3055
  895MOL0     H20768   8.679   9.722   1.791 -2.2840  0.9992  2.5530
  895MOL0     H20769   8.722   9.710   1.961 -3.5974  0.5027  0.5004
  895MOL0     H20770   8.911   9.574   1.902  0.7130  0.1159 -1.1680
  895MOL0     H20771   8.882   9.596   1.732  1.7841 -0.7953  0.4972
  895MOL0     H20772   8.943   9.817   1.935  0.8574 -0.3346  0.1761
  895MOL0     H20773   8.883   9.845   1.766  1.6643  0.0534 -1.6440
  895MOL0     H20774   9.150   9.754   1.863  1.9029  0.1519 -0.5030
  895MOL0     H20775   9.089   9.687   1.710  1.4462 -1.3075  1.5742
  895MOL0     H20776   9.044   9.814   1.506  0.1634  1.1888 -1.7221
  895MOL0     H20777   9.210  10.047   1.320 -1.1588  0.4028 -0.2794
  895MOL0     H20778   9.034   9.998   1.319 -0.2676 -3.1485  0.4401
  895MOL0     H20779   8.982  10.220   1.423  0.8257 -0.4415  0.3379
  895MOL0     H20780   9.143  10.265   1.436 -0.1932 -0.2496  1.1781
  895MOL0     H20781   9.001  10.356   1.242 -1.0494 -1.4392  1.7692
  895MOL0     H20782   9.030  10.203   1.168 -3.0754  0.9875  1.5350
  895MOL0     H20783   9.247  10.378   1.306 -1.6592 -0.6757  1.6317
  895MOL0     H20784   9.194  10.413   1.148 -1.4227  3.7996  4.1001
  895MOL0     H20785   9.490  10.068   1.122  1.3731 -0.7873 -0.4177
  895MOL0     H20786   9.725  10.112   1.105  0.3191  0.3221 -0.9687
  895MOL0     H20787  10.051  10.004   1.152  1.4809 -1.4460  2.2185
  895MOL0     H20788  10.280   9.958   1.187 -0.9515 -0.8622  3.1765
  895MOL0     H20789  10.643  10.036   1.163  0.7496  1.6228 -0.5792
  895MOL0     H20790  10.489  10.003   1.078 -0.7958  0.6509  0.1444
  895MOL0     H20791  10.650  10.146   0.948 -2.8242  0.6680 -2.1131
  895MOL0     H20792  10.496  10.230   0.980 -0.9440  0.9144  1.5232
  895MOL0     H20793  10.664  10.374   1.000 -2.0415  4.3162  2.4722
  895MOL0     H20794  10.602  10.365   1.157  1.4615  1.1445  0.0263
  895MOL0     H20795  10.865  10.218   1.075  1.1597  1.6836  0.4132
  895MOL0     H20796  10.780  10.206   1.234  1.5984  0.2413  2.1527
  895MOL0     H20797  10.813  10.476   1.225  1.9727  2.5823  0.2505
  895MOL0     H20798  10.914  10.450   1.090  1.6244  0.9025  1.4078
  895MOL0     H20799  10.980  10.326   1.354 -2.0530 -0.6355 -1.0230
  895MOL0     H20800  11.056  10.287   1.192 -0.8197 -1.3305  1.0185
  895MOL0     H20801  11.137  10.524   1.198 -0.7776  0.5324 -0.1830
  895MOL0     H20802  11.196  10.427   1.330  0.5787 -0.4089 -0.8756
  895MOL0     H20803  11.111  10.663   1.364 -1.1541  1.0002  0.5928
  895MOL0     H20804  10.944  10.613   1.368  0.6105  0.9284 -1.1073
  895MOL0     H20805  10.363  10.366   1.274 -1.7074  0.8964  1.6769
  895MOL0     H20806  10.132  10.423   1.241  4.4573  0.5276  1.1333
  895MOL0     H20807   9.667  10.535   1.166  1.2274 -0.6217  0.6299
  895MOL0     H20808   9.416  10.477   1.187 -0.1898 -1.3302 -0.2881
  895MOL0     H20809   8.125   9.504   2.182  0.1163 -1.3972 -0.4833
  895MOL0     H20810   7.894   9.491   2.268  1.9038  2.1027  0.7971
  895MOL0     H20811   7.459   9.402   2.037  1.7380  1.4741  0.1982
  895MOL0     H20812   7.211   9.352   2.058 -0.3934 -0.6417  2.7118
  895MOL0     H20813   7.001   9.395   2.037 -3.4941  1.1709 -0.8220
  895MOL0     H20814   6.864   9.429   2.131  0.4676  1.9883 -0.4431
  895MOL0     H20815   7.064   9.228   2.219  2.0154  3.7814  0.8572
  895MOL0     H20816   6.894   9.205   2.178 -1.0972  0.4411  2.1645
  895MOL0     H20817   6.817   9.301   2.383 -0.2163 -1.4908 -1.0777
  895MOL0     H20818   6.972   9.374   2.414  0.1027  0.2225 -1.2260
  895MOL0     H20819   6.938   9.166   2.562 -0.0277 -0.6888 -0.8321
  895MOL0     H20820   6.951   9.065   2.413  1.3194 -1.4029 -0.3411
  895MOL0     H20821   7.351   9.198   2.488  0.1794  0.1314 -1.2494
  895MOL0     H20822   7.191   9.639   2.374  1.3163  0.7791  0.8934
  895MOL0     H20823   7.378   9.741   2.478 -1.2939  0.2154 -1.0172
  895MOL0     H20824   7.520   9.646   2.469  1.2669  2.3318 -0.8402
  895MOL0     H20825   7.496   9.783   2.359 -0.3640  0.9809  1.1331
  896MOL0     O20826   0.620   6.122  10.958  0.6853 -0.2548 -0.6489
  896MOL0     C20827   0.587   6.190  11.056  0.7885  0.2568 -0.0561
  896MOL0     O20828   0.663   6.271  11.138 -0.2521  0.1329  0.8688
  896MOL0     C20829   0.802   6.269  11.110 -0.3677  0.0098 -0.8062
  896MOL0     C20830   0.885   6.211  11.209  0.6120  0.9151  0.2839
  896MOL0     C20831   1.025   6.201  11.190 -0.2810 -0.3620  0.7187
  896MOL0     C20832   1.084   6.258  11.072  0.6864  0.6492 -0.4344
  896MOL0     O20833   1.208   6.255  11.028  0.0588  0.1208  0.1607
  896MOL0     C20834   1.307   6.172  11.101 -0.9589 -0.3160  0.8372
  896MOL0     C20835   1.434   6.170  11.015  0.2246  0.0466  0.4071
  896MOL0     C20836   1.540   6.073  11.066 -0.2117  0.5905 -0.5182
  896MOL0     C20837   1.661   6.085  10.987  0.0390 -0.3361  0.2719
  896MOL0     C20838   1.761   5.982  11.038 -0.9487  0.4679 -0.8072
  896MOL0     C20839   1.902   6.008  10.975 -0.3169  0.5641  0.8278
  896MOL0     C20840   2.012   5.908  11.009  0.0431  0.2277 -0.6394
  896MOL0     C20841   2.139   5.967  10.938  0.7972  0.3489 -0.3263
  896MOL0     N20842   2.260   5.897  10.986  0.2109  0.7322 -0.3817
  896MOL0     C20843   2.323   5.904  11.105 -0.4886 -0.1619 -0.2536
  896MOL0     C20844   2.434   5.831  11.098  0.1018 -0.2907 -0.4770
  896MOL0     C20845   2.524   5.802  11.211 -0.3212 -0.5438 -0.0312
  896MOL0     C20846   2.639   5.904  11.226 -0.1150 -0.2677  0.1063
  896MOL0     C20847   2.734   5.939  11.111 -0.3473  0.9825 -0.2646
  896MOL0     C20848   2.873   5.998  11.170  0.6308 -0.4938 -0.1904
  896MOL0     O20849   2.973   5.899  11.184  0.1773 -0.7291  0.2722
  896MOL0     C20850   3.091   5.932  11.249  0.8997  0.4048  0.2834
  896MOL0     C20851   3.149   6.057  11.250 -0.4478  0.3753  1.1051
  896MOL0     C20852   3.255   6.085  11.330 -0.0726 -0.0818 -0.0946
  896MOL0     C20853   3.333   5.984  11.388  0.0431 -0.2339 -0.5127
  896MOL0     C20854   3.457   6.001  11.467 -0.5379  0.2321 -1.4675
  896MOL0     O20855   3.471   6.123  11.525 -0.1027  0.0914 -0.3481
  896MOL0     C20856   3.606   6.155  11.556 -0.4158 -0.6007 -0.4962
  896MOL0     C20857   3.652   6.168  11.689 -0.6755  0.1308  0.7442
  896MOL0     C20858   3.778   6.218  11.720  0.4384 -0.3355  0.0377
  896MOL0     C20859   3.866   6.251  11.615 -0.9914 -0.5575 -0.3031
  896MOL0     O20860   4.004   6.281  11.629  0.2652 -0.6086  0.3533
  896MOL0     C20861   4.062   6.303  11.761 -0.1057  0.8384  0.4412
  896MOL0     C20862   4.201   6.373  11.748 -0.3048 -0.3052 -0.3535
  896MOL0     C20863   4.252   6.402  11.888  0.4108  0.8028 -0.6256
  896MOL0     C20864   4.388   6.474  11.867 -0.0103  0.5576  0.1191
  896MOL0     C20865   4.430   6.550  11.993 -0.2529  0.2792 -0.8666
  896MOL0     C20866   4.541   6.660  11.971 -0.8276  0.4914 -0.3160
  896MOL0     C20867   4.673   6.591  11.950 -0.1583  0.1611  0.1219
  896MOL0     C20868   4.795   6.686  11.953  0.1471  0.1662 -1.1132
  896MOL0    Cl20869   4.816   6.706  12.127 -0.4268  0.0442 -0.1853
  896MOL0     C20870   3.823   6.240  11.481  0.5594 -0.7434 -1.1160
  896MOL0     C20871   3.694   6.197  11.457 -0.7747  0.0645  0.4285
  896MOL0     O20872   3.548   5.919  11.456  0.9171  0.1297  0.1438
  896MOL0     C20873   3.283   5.854  11.375 -0.2179 -1.1109 -0.3645
  896MOL0     C20874   3.161   5.823  11.311 -0.1777 -0.8053  0.6650
  896MOL0     N20875   2.435   5.773  10.976 -0.3797 -0.5434  0.0778
  896MOL0     N20876   2.329   5.804  10.909 -0.7567  0.5756 -0.4528
  896MOL0     C20877   0.999   6.323  10.982  0.0089  0.4439  0.4454
  896MOL0     C20878   0.867   6.324  11.002  0.2591 -0.0753 -0.5303
  896MOL0     C20879   0.441   6.183  11.096  0.8301  0.0005 -0.1896
  896MOL0     C20880   0.403   6.291  11.186  0.1547  0.4253 -0.2164
  896MOL0     C20881   0.269   6.305  11.233  0.2094 -0.0410  0.6963
  896MOL0     C20882   0.166   6.222  11.187 -0.3197 -0.1994 -0.1855
  896MOL0     O20883   0.037   6.257  11.226  0.1799  0.0156 -0.0183
  896MOL0     C20884  -0.059   6.152  11.229 -0.7123 -0.2247 -0.1960
  896MOL0     C20885  -0.175   6.181  11.318  0.3571 -0.5246 -0.3140
  896MOL0     C20886  -0.269   6.057  11.326 -0.1789  0.8531 -0.0903
  896MOL0     C20887  -0.410   6.102  11.341  0.3200 -0.0677  0.2507
  896MOL0     C20888  -0.423   6.175  11.462  1.1150  0.1956 -1.6040
  896MOL0     C20889  -0.432   6.240  11.569 -0.2601  0.2277 -1.0450
  896MOL0     C20890   0.204   6.113  11.104  0.7105 -0.1976  0.0918
  896MOL0     C20891   0.333   6.095  11.053 -0.6039 -0.3888  0.3510
  896MOL0     C20892   0.347   5.974  10.962 -0.3818  1.0899 -0.8298
  896MOL0     H20893   0.838   6.166  11.296  0.5937 -0.1686 -0.2638
  896MOL0     H20894   1.084   6.147  11.264 -0.3724 -2.0846 -0.4107
  896MOL0     H20895   1.326   6.217  11.199 -2.5501  1.8003  0.2644
  896MOL0     H20896   1.261   6.073  11.099 -2.5106  0.3882 -0.6886
  896MOL0     H20897   1.470   6.273  11.001 -3.1311  1.0201 -2.7509
  896MOL0     H20898   1.405   6.131  10.917 -1.0864  1.1966  0.3056
  896MOL0     H20899   1.511   5.969  11.049 -0.3160  1.1296 -4.6871
  896MOL0     H20900   1.568   6.096  11.169 -2.5439  0.8574  0.1239
  896MOL0     H20901   1.648   6.075  10.879  1.1871  1.0005 -0.0161
  896MOL0     H20902   1.700   6.186  10.999 -2.0345  0.5244  0.2270
  896MOL0     H20903   1.767   5.980  11.147 -2.9501  1.0238 -0.6494
  896MOL0     H20904   1.721   5.882  11.018  0.3536 -0.6532  1.7239
  896MOL0     H20905   1.883   5.993  10.868  1.7043 -1.5478  0.6854
  896MOL0     H20906   1.929   6.113  10.987  0.4876  0.6812 -1.4850
  896MOL0     H20907   1.990   5.805  10.977 -0.6783  0.4375 -0.8441
  896MOL0     H20908   2.026   5.900  11.117 -2.7633 -2.7541 -0.3334
  896MOL0     H20909   2.131   5.957  10.830  0.7920 -1.4243 -0.1895
  896MOL0     H20910   2.138   6.071  10.974 -3.4070 -0.1018  1.5577
  896MOL0     H20911   2.284   5.959  11.190 -1.3763 -2.0903  0.6507
  896MOL0     H20912   2.474   5.795  11.308 -1.5559  3.5960 -0.1533
  896MOL0     H20913   2.575   5.706  11.195  0.2992  0.0959 -2.3466
  896MOL0     H20914   2.583   5.995  11.250  1.7892  0.9210  0.2676
  896MOL0     H20915   2.690   5.863  11.313  1.0847 -3.1641 -1.8154
  896MOL0     H20916   2.689   6.015  11.046  0.6021  0.9647 -0.9706
  896MOL0     H20917   2.758   5.856  11.044  0.6188  0.8148  0.2778
  896MOL0     H20918   2.854   6.046  11.267  1.5358  0.8846 -0.6699
  896MOL0     H20919   2.904   6.076  11.100 -1.3889  2.0977  1.5826
  896MOL0     H20920   3.102   6.141  11.199  5.2415  3.3590 -0.0497
  896MOL0     H20921   3.286   6.189  11.334  0.3701 -0.2567  1.8198
  896MOL0     H20922   3.579   6.144  11.767  0.1711 -0.3399  1.4043
  896MOL0     H20923   3.807   6.236  11.823  1.0175  0.2007 -0.2080
  896MOL0     H20924   3.988   6.361  11.817 -1.0575 -1.7749  2.0605
  896MOL0     H20925   4.072   6.207  11.811  0.2400 -0.3013 -1.7141
  896MOL0     H20926   4.278   6.308  11.706  1.7383  1.9723 -0.3391
  896MOL0     H20927   4.198   6.463  11.685  2.2150  0.1265  0.0553
  896MOL0     H20928   4.172   6.455  11.941  0.1229 -0.4916  0.2814
  896MOL0     H20929   4.261   6.310  11.947 -0.2968  2.7802  2.8624
  896MOL0     H20930   4.378   6.540  11.780  0.2180 -0.7940 -0.9760
  896MOL0     H20931   4.456   6.393  11.839 -1.9655 -0.9507 -0.4776
  896MOL0     H20932   4.473   6.482  12.067 -0.1806  0.2489 -0.9370
  896MOL0     H20933   4.342   6.591  12.044 -0.0488 -2.6386  2.1481
  896MOL0     H20934   4.511   6.709  11.878 -0.7966  0.1636 -0.4991
  896MOL0     H20935   4.541   6.728  12.057  1.3628  0.4423 -0.2169
  896MOL0     H20936   4.678   6.526  11.861  0.6953 -1.7153  1.4742
  896MOL0     H20937   4.695   6.514  12.025  1.0780 -0.3530 -0.7256
  896MOL0     H20938   4.878   6.624  11.917 -1.1021 -3.7751  1.9614
  896MOL0     H20939   4.778   6.777  11.894 -1.6817  2.9206  3.1300
  896MOL0     H20940   3.890   6.260  11.399  0.5126 -0.8112 -1.1711
  896MOL0     H20941   3.674   6.179  11.352  1.9029 -1.8381  0.1420
  896MOL0     H20942   3.346   5.779  11.422  0.7059  0.7417  1.4824
  896MOL0     H20943   3.125   5.722  11.294 -3.7902  0.3262  0.7220
  896MOL0     H20944   1.048   6.374  10.899 -1.4088 -0.0698 -0.7416
  896MOL0     H20945   0.800   6.363  10.926 -3.1601 -3.4776  0.3621
  896MOL0     H20946   0.469   6.366  11.229 -1.8089  1.9851  0.2891
  896MOL0     H20947   0.226   6.383  11.294 -0.1979 -0.8762  1.4987
  896MOL0     H20948  -0.017   6.059  11.269 -2.1958 -0.4898  0.7939
  896MOL0     H20949  -0.104   6.133  11.131  1.0067 -0.1667 -1.0371
  896MOL0     H20950  -0.218   6.266  11.264  3.0682  0.2759 -1.3783
  896MOL0     H20951  -0.145   6.220  11.416 -0.2367  1.4402 -0.8597
  896MOL0     H20952  -0.248   5.985  11.406  0.5794 -0.4078 -1.3652
  896MOL0     H20953  -0.275   6.001  11.232 -2.4075  1.8572 -0.6062
  896MOL0     H20954  -0.430   6.171  11.258 -3.1218 -0.3918  0.6886
  896MOL0     H20955  -0.477   6.016  11.334  0.4528 -0.3214  1.7571
  896MOL0     H20956  -0.431   6.294  11.662  0.6364  3.3704 -2.7507
  896MOL0     H20957   0.123   6.042  11.089  1.4846 -1.8283  2.9281
  896MOL0     H20958   0.436   5.912  10.976 -2.0995 -1.5573 -0.8919
  896MOL0     H20959   0.267   5.901  10.975  0.9163 -0.3373 -0.4511
  896MOL0     H20960   0.348   6.000  10.856 -2.1741 -0.3392 -1.2482
  897MOL0     O20961   8.745  10.151   4.129 -0.6364  0.4886  0.2463
  897MOL0     C20962   8.655  10.083   4.172 -0.7103  0.1955  0.2097
  897MOL0     O20963   8.671   9.981   4.262  0.2196 -0.6295 -0.4581
  897MOL0     C20964   8.794   9.930   4.268 -0.8006  0.3393  0.8396
  897MOL0     C20965   8.875   9.947   4.376  0.1968 -0.2419  0.4229
  897MOL0     C20966   8.999   9.896   4.383 -0.8546  0.1436  0.4053
  897MOL0     C20967   9.050   9.817   4.275 -0.3236 -1.2074  0.5008
  897MOL0     O20968   9.183   9.782   4.281  0.4330 -0.5752  0.2484
  897MOL0     C20969   9.220   9.679   4.180  0.6008  0.1282  0.3828
  897MOL0     C20970   9.378   9.660   4.178 -0.2077 -0.2502 -0.2202
  897MOL0     C20971   9.451   9.799   4.148  0.0691 -0.0800 -0.2017
  897MOL0     C20972   9.401   9.863   4.013 -0.2957 -0.3010 -0.3253
  897MOL0     C20973   9.406   9.794   3.879  0.0130 -0.2775  0.0628
  897MOL0     C20974   9.539   9.809   3.810 -0.3360  0.4373 -0.0922
  897MOL0     C20975   9.579   9.949   3.779 -0.3742  0.7184 -0.0904
  897MOL0     C20976   9.722   9.958   3.717  0.3274  0.5439  0.0442
  897MOL0     N20977   9.815   9.981   3.832 -0.0202 -0.1462 -0.1807
  897MOL0     C20978   9.866  10.100   3.884 -0.0136  0.5156  0.9721
  897MOL0     C20979   9.943  10.057   3.987  0.0559 -0.8766  0.3909
  897MOL0     C20980  10.016  10.158   4.077 -0.4640 -0.0404  0.0823
  897MOL0     C20981   9.926  10.261   4.156  0.4014  0.2651  0.3803
  897MOL0     C20982   9.835  10.187   4.258  0.1415  0.3123  0.4970
  897MOL0     C20983   9.911  10.098   4.358 -0.5021 -0.3103 -0.0227
  897MOL0     O20984  10.017  10.169   4.435  0.0914 -0.8226  0.1686
  897MOL0     C20985  10.137  10.116   4.435 -0.0553  0.1883 -0.2893
  897MOL0     C20986  10.254  10.190   4.402 -0.3434  0.6236 -0.0346
  897MOL0     C20987  10.379  10.132   4.400  0.6164  0.4043 -0.1400
  897MOL0     C20988  10.395   9.996   4.423 -1.2559  0.8148 -0.9660
  897MOL0     C20989  10.523   9.924   4.411 -0.5149  0.5264 -0.4499
  897MOL0     O20990  10.609   9.988   4.315 -0.5884 -0.6125 -0.1169
  897MOL0     C20991  10.737   9.931   4.300 -0.6634 -0.2829  0.0065
  897MOL0     C20992  10.834   9.952   4.398  0.9132 -0.3330  0.7406
  897MOL0     C20993  10.963   9.895   4.371 -0.2624  0.2769 -0.8853
  897MOL0     C20994  10.991   9.818   4.255 -0.4090 -0.3981 -0.2651
  897MOL0     O20995  11.120   9.772   4.238 -0.0789  0.3623 -0.3555
  897MOL0     C20996  11.136   9.650   4.161 -0.7040  0.2656  0.3014
  897MOL0     C20997  11.093   9.531   4.243 -0.1766  0.5143 -0.4828
  897MOL0     C20998  11.127   9.403   4.161  0.7150  0.3977  0.2475
  897MOL0     C20999  11.273   9.354   4.158 -0.2365  0.8296  0.1108
  897MOL0     C21000  11.288   9.227   4.078 -0.1626  0.4532  0.6806
  897MOL0     C21001  11.431   9.193   4.043  0.2912  1.2340 -0.3455
  897MOL0     C21002  11.451   9.059   3.976 -0.2693  0.6808  0.3435
  897MOL0     C21003  11.415   9.050   3.827 -0.2300  0.4525  1.2466
  897MOL0    Cl21004  11.408   8.881   3.778  0.3081 -0.1052 -0.0925
  897MOL0     C21005  10.888   9.798   4.156  0.0303 -1.2068  0.3576
  897MOL0     C21006  10.766   9.865   4.182 -1.1263  0.1851  0.6083
  897MOL0     O21007  10.550   9.825   4.473  0.2801 -0.0572 -0.2609
  897MOL0     C21008  10.279   9.920   4.464 -0.0508 -0.3197  1.0878
  897MOL0     C21009  10.150   9.978   4.463  0.0594 -0.6883 -0.0850
  897MOL0     N21010   9.947   9.921   3.995  0.5754  0.0272 -0.4715
  897MOL0     N21011   9.858   9.883   3.905 -0.1534  0.1213  0.9128
  897MOL0     C21012   8.958   9.777   4.174  0.2979 -0.1063  0.1964
  897MOL0     C21013   8.825   9.825   4.180  0.2105  0.0111 -0.0470
  897MOL0     C21014   8.525  10.123   4.120  0.6529  0.5095 -1.1620
  897MOL0     C21015   8.428  10.023   4.104 -0.1613  0.4149  1.0396
  897MOL0     C21016   8.297  10.053   4.078  0.4044  0.1783 -0.4498
  897MOL0     C21017   8.260  10.186   4.049 -0.1994  0.2093  0.1199
  897MOL0     O21018   8.133  10.213   4.012 -0.1575  0.0601 -0.0917
  897MOL0     C21019   8.055  10.285   4.112 -0.2308 -0.0569  0.0820
  897MOL0     C21020   7.907  10.250   4.113  0.6951  0.7810 -0.3536
  897MOL0     C21021   7.821  10.290   4.238 -0.3745  0.3404 -0.2867
  897MOL0     C21022   7.818  10.439   4.283 -0.8628  0.1129 -0.2867
  897MOL0     C21023   7.750  10.527   4.191 -0.6293  1.5003  0.0925
  897MOL0     C21024   7.684  10.601   4.119 -0.1678  0.3312 -0.3432
  897MOL0     C21025   8.360  10.279   4.053 -0.3717 -0.4624  0.2813
  897MOL0     C21026   8.489  10.260   4.098  0.7313  0.5931  0.2564
  897MOL0     C21027   8.582  10.375   4.102  0.7537  1.3928 -0.9764
  897MOL0     H21028   8.840  10.011   4.457  1.5310 -3.2574  3.6758
  897MOL0     H21029   9.063   9.926   4.465 -2.2098 -1.0410  1.9529
  897MOL0     H21030   9.169   9.589   4.214  2.3631 -0.9999  0.1304
  897MOL0     H21031   9.181   9.701   4.080 -0.0611 -0.5857  0.4816
  897MOL0     H21032   9.410   9.587   4.103 -1.0955 -3.2034  2.1022
  897MOL0     H21033   9.393   9.621   4.278 -0.1222 -0.5481 -0.3501
  897MOL0     H21034   9.558   9.782   4.160 -0.3218 -0.3467  4.6021
  897MOL0     H21035   9.430   9.867   4.231 -0.1551  1.1278 -1.2197
  897MOL0     H21036   9.295   9.889   4.027  0.4764  2.6880  0.7671
  897MOL0     H21037   9.445   9.963   4.009 -2.4312  0.7950  1.5840
  897MOL0     H21038   9.380   9.688   3.885  0.6145 -0.4751 -0.7568
  897MOL0     H21039   9.325   9.839   3.820  0.4022 -1.9654 -1.8666
  897MOL0     H21040   9.615   9.770   3.878  0.4355 -2.3189 -2.3201
  897MOL0     H21041   9.536   9.752   3.717  1.6443  0.7413 -0.3783
  897MOL0     H21042   9.573  10.019   3.863 -1.2970  0.4117  0.1111
  897MOL0     H21043   9.506   9.989   3.709 -0.6889 -0.9967 -0.7870
  897MOL0     H21044   9.752   9.865   3.668  0.2172 -0.3650  1.6692
  897MOL0     H21045   9.709  10.039   3.644 -1.4108  0.4139  0.1664
  897MOL0     H21046   9.846  10.197   3.840 -1.8709 -1.2277 -2.4493
  897MOL0     H21047  10.070  10.099   4.151 -2.7258 -1.7633  0.4592
  897MOL0     H21048  10.091  10.206   4.013  1.5013 -2.9251  0.0314
  897MOL0     H21049   9.988  10.326   4.219 -0.8971  2.0656 -0.0979
  897MOL0     H21050   9.871  10.330   4.090  1.6651 -0.3177 -1.3723
  897MOL0     H21051   9.756  10.135   4.203  1.2619 -1.3794  0.4072
  897MOL0     H21052   9.773  10.255   4.317 -1.2811 -0.0484 -0.5324
  897MOL0     H21053   9.958  10.012   4.309 -0.2312 -0.8968  1.2272
  897MOL0     H21054   9.843  10.055   4.432  0.6420 -1.0623  0.6229
  897MOL0     H21055  10.236  10.288   4.358 -0.7735  1.1284  1.2105
  897MOL0     H21056  10.474  10.178   4.375  1.8311 -1.1333  1.3099
  897MOL0     H21057  10.825  10.015   4.486  0.4268 -0.9625  1.1490
  897MOL0     H21058  11.045   9.910   4.442  1.6755 -2.9127 -2.2349
  897MOL0     H21059  11.092   9.647   4.061 -0.5937 -0.5489  0.2728
  897MOL0     H21060  11.243   9.630   4.147 -0.9302  0.0687 -1.4570
  897MOL0     H21061  11.142   9.532   4.341 -0.6557  0.0818 -0.2264
  897MOL0     H21062  10.991   9.533   4.284  0.7325  0.3417  1.9292
  897MOL0     H21063  11.077   9.318   4.209  1.1260  0.0059 -0.0033
  897MOL0     H21064  11.077   9.415   4.065 -2.4444 -0.9571  1.5961
  897MOL0     H21065  11.315   9.348   4.259 -0.6213 -1.0255  0.1813
  897MOL0     H21066  11.335   9.430   4.108 -0.0851  2.3018  2.3648
  897MOL0     H21067  11.218   9.218   3.995  0.8380 -0.6506 -0.0645
  897MOL0     H21068  11.255   9.151   4.149  1.2219  1.7512  2.8394
  897MOL0     H21069  11.468   9.270   3.975 -0.5709 -0.6114 -3.1068
  897MOL0     H21070  11.493   9.197   4.132  0.5015 -2.1204 -0.1909
  897MOL0     H21071  11.394   8.990   4.039 -1.4241  1.0129 -0.3168
  897MOL0     H21072  11.555   9.027   3.988  0.4720  2.0441 -1.7770
  897MOL0     H21073  11.325   9.111   3.818 -0.0685  0.4355 -0.8967
  897MOL0     H21074  11.493   9.092   3.762  1.3469 -3.1443  0.5426
  897MOL0     H21075  10.900   9.734   4.070 -0.7514 -1.4658  0.4367
  897MOL0     H21076  10.685   9.846   4.112  0.2517 -3.5518 -0.2355
  897MOL0     H21077  10.291   9.818   4.498  4.9113  0.8825  3.9510
  897MOL0     H21078  10.061   9.919   4.484 -0.4439  0.3367  0.7464
  897MOL0     H21079   8.979   9.707   4.094 -1.3361 -0.6682  0.2222
  897MOL0     H21080   8.765   9.803   4.092  0.3245  1.1848 -0.4514
  897MOL0     H21081   8.460   9.920   4.121  0.7597  0.6429  0.7590
  897MOL0     H21082   8.225   9.972   4.076 -0.2234  0.7488 -1.5507
  897MOL0     H21083   8.063  10.393   4.097 -2.7793  0.1060 -0.5533
  897MOL0     H21084   8.101  10.254   4.206 -0.2034  0.3819  0.2120
  897MOL0     H21085   7.909  10.141   4.101  3.6823  0.9024 -1.7608
  897MOL0     H21086   7.863  10.298   4.026 -1.5171  1.0140  0.8132
  897MOL0     H21087   7.872  10.240   4.321  0.1490  0.3510 -0.5965
  897MOL0     H21088   7.717  10.257   4.231 -0.4136  0.5170 -0.5429
  897MOL0     H21089   7.784  10.448   4.386 -0.1369  0.8981 -0.1056
  897MOL0     H21090   7.920  10.478   4.294 -0.3137 -1.7476  1.7344
  897MOL0     H21091   7.635  10.663   4.046  2.9533  2.4981 -0.8108
  897MOL0     H21092   8.339  10.382   4.027  1.1346  0.2516  1.7219
  897MOL0     H21093   8.624  10.373   4.203  0.3757  1.3083 -0.8201
  897MOL0     H21094   8.656  10.369   4.021 -1.3294  2.4873 -3.0918
  897MOL0     H21095   8.525  10.467   4.088 -1.2853  0.4658  0.5785
  898MOL0     O21096   4.999   3.792   2.563 -0.2077  0.7179 -0.4483
  898MOL0     C21097   4.979   3.891   2.633  0.3388  0.6192  0.2793
  898MOL0     O21098   5.026   4.018   2.611  0.1750  0.5082  0.4930
  898MOL0     C21099   5.104   4.048   2.505  0.3318 -0.2001  0.6866
  898MOL0     C21100   5.047   4.076   2.387  0.2854 -0.3171 -0.6667
  898MOL0     C21101   5.128   4.104   2.275 -0.1882 -0.1544 -0.0330
  898MOL0     C21102   5.268   4.125   2.288 -0.0669  0.9669 -0.7869
  898MOL0     O21103   5.344   4.175   2.191  0.3624  0.9076  0.2174
  898MOL0     C21104   5.275   4.214   2.069  0.1589  0.0965  0.0024
  898MOL0     C21105   5.358   4.297   1.967  0.8899  0.8054 -0.5162
  898MOL0     C21106   5.462   4.223   1.901 -1.6638  0.3221 -0.6495
  898MOL0     C21107   5.601   4.288   1.911  0.3815 -0.0737  0.3432
  898MOL0     C21108   5.720   4.204   1.880 -0.1493  0.3796  0.3189
  898MOL0     C21109   5.727   4.166   1.729  0.1377 -0.7679 -0.0658
  898MOL0     C21110   5.723   4.291   1.638  0.4438 -0.7468  0.1824
  898MOL0     C21111   5.772   4.269   1.489 -0.3029 -0.4897 -0.0101
  898MOL0     N21112   5.918   4.251   1.479 -0.4717 -0.1646  0.3015
  898MOL0     C21113   5.981   4.128   1.475  0.6910 -0.1754  0.2372
  898MOL0     C21114   6.110   4.144   1.498 -0.1741  0.0368 -0.1832
  898MOL0     C21115   6.219   4.046   1.521 -0.5723 -0.0404 -0.5803
  898MOL0     C21116   6.342   4.063   1.423  0.8411  0.3640 -0.1903
  898MOL0     C21117   6.440   3.948   1.455 -1.1762  0.2940  0.2124
  898MOL0     C21118   6.573   3.944   1.388 -0.0380 -0.3006 -0.2023
  898MOL0     O21119   6.645   3.832   1.429 -0.1407 -0.4783  1.0354
  898MOL0     C21120   6.774   3.828   1.402  0.0626  0.1974  0.1909
  898MOL0     C21121   6.848   3.914   1.321 -0.1522 -0.1179  0.4586
  898MOL0     C21122   6.987   3.899   1.292 -0.2021 -0.3576  0.5372
  898MOL0     C21123   7.055   3.792   1.357 -0.0161 -0.7155  0.1168
  898MOL0     C21124   7.187   3.756   1.321  0.4740 -0.5985  0.1180
  898MOL0     O21125   7.264   3.863   1.318  0.2311  0.2278  0.2419
  898MOL0     C21126   7.398   3.837   1.309 -0.8075  0.0130 -0.3323
  898MOL0     C21127   7.473   3.887   1.415 -0.4631 -0.6246  0.4254
  898MOL0     C21128   7.608   3.847   1.426 -0.3743  0.0678 -0.5520
  898MOL0     C21129   7.670   3.765   1.325 -0.2150 -0.5085 -0.6845
  898MOL0     O21130   7.805   3.743   1.348  0.1582 -0.0719 -0.3319
  898MOL0     C21131   7.861   3.629   1.279  0.1345  0.7738  0.0409
  898MOL0     C21132   8.011   3.650   1.263  1.0174  0.4623 -1.1256
  898MOL0     C21133   8.076   3.541   1.176 -0.8722  0.0356  0.6237
  898MOL0     C21134   8.056   3.582   1.029  0.4947 -0.0262 -0.0532
  898MOL0     C21135   8.144   3.500   0.933 -0.3220 -0.0324  0.6869
  898MOL0     C21136   8.125   3.559   0.790  0.1204  0.4695 -0.2451
  898MOL0     C21137   8.216   3.499   0.681 -0.5022 -0.3445 -1.0897
  898MOL0     C21138   8.367   3.525   0.716 -0.7708 -1.4235 -0.1268
  898MOL0    Cl21139   8.388   3.698   0.705 -0.2755  0.0937  0.0133
  898MOL0     C21140   7.589   3.723   1.215 -1.0479  0.4280 -0.4917
  898MOL0     C21141   7.459   3.765   1.208  0.2091 -0.2304 -0.2600
  898MOL0     O21142   7.219   3.641   1.317  1.3452  0.5750  0.3820
  898MOL0     C21143   6.983   3.712   1.449 -0.9161  0.3204 -0.1083
  898MOL0     C21144   6.844   3.728   1.467 -0.4776  0.1368  0.4084
  898MOL0     N21145   6.119   4.287   1.523 -0.5672  0.5510  0.0796
  898MOL0     N21146   6.008   4.344   1.520  0.1975  0.2013 -0.2334
  898MOL0     C21147   5.319   4.095   2.413  0.1500  0.2733  0.7366
  898MOL0     C21148   5.239   4.055   2.518  0.5019 -0.4512 -0.1952
  898MOL0     C21149   4.882   3.864   2.747  0.0056 -0.0006 -1.0033
  898MOL0     C21150   4.867   3.733   2.796 -0.5399 -0.0700 -0.0647
  898MOL0     C21151   4.795   3.705   2.909  0.1970  0.7828  0.0313
  898MOL0     C21152   4.727   3.802   2.979 -0.4141 -0.5332 -0.0544
  898MOL0     O21153   4.648   3.769   3.085 -0.1724 -0.4459  0.3839
  898MOL0     C21154   4.616   3.867   3.185  0.1416 -0.8616 -0.0208
  898MOL0     C21155   4.522   3.806   3.304 -0.2385 -0.1265 -0.2926
  898MOL0     C21156   4.606   3.703   3.390 -0.5418  0.0297  0.2579
  898MOL0     C21157   4.615   3.563   3.335  0.0893  0.3865  0.1288
  898MOL0     C21158   4.745   3.501   3.374  0.2514 -0.2260 -0.2746
  898MOL0     C21159   4.859   3.478   3.418 -0.6231 -0.6140  0.1610
  898MOL0     C21160   4.730   3.932   2.927 -0.1715  0.0022  0.0347
  898MOL0     C21161   4.796   3.964   2.814 -0.4597 -0.7899  0.2574
  898MOL0     C21162   4.776   4.105   2.763 -0.0015  1.4840  0.1060
  898MOL0     H21163   4.941   4.053   2.380  0.4819 -1.9989  1.0537
  898MOL0     H21164   5.081   4.127   2.180 -0.0180 -0.0704 -0.0990
  898MOL0     H21165   5.244   4.120   2.023 -0.2148  1.1207 -1.9379
  898MOL0     H21166   5.185   4.272   2.090 -0.6170 -1.4602  1.0913
  898MOL0     H21167   5.405   4.385   2.011  2.7746 -2.0328  3.8051
  898MOL0     H21168   5.287   4.324   1.888  1.8286 -0.3091 -1.7791
  898MOL0     H21169   5.442   4.209   1.795 -2.8906 -0.1611 -0.3656
  898MOL0     H21170   5.471   4.121   1.939  0.7337 -0.1378 -2.2180
  898MOL0     H21171   5.599   4.386   1.862 -2.4397  0.8283  1.9698
  898MOL0     H21172   5.615   4.313   2.017  0.3743  0.5486  0.1974
  898MOL0     H21173   5.809   4.259   1.912  0.3642  0.6915 -1.5616
  898MOL0     H21174   5.713   4.109   1.935  0.4951  0.6191  0.8319
  898MOL0     H21175   5.820   4.109   1.720  0.0295 -1.1288  0.9294
  898MOL0     H21176   5.646   4.098   1.702  0.8938 -1.1037 -1.5842
  898MOL0     H21177   5.774   4.378   1.680 -0.5007  0.9338 -1.9522
  898MOL0     H21178   5.616   4.308   1.625  0.1421 -1.3749  1.5768
  898MOL0     H21179   5.722   4.184   1.441  0.1908  1.1703 -3.8030
  898MOL0     H21180   5.750   4.360   1.432  3.7222 -2.0053 -4.6526
  898MOL0     H21181   5.930   4.032   1.478 -0.2946  0.2275 -1.6319
  898MOL0     H21182   6.247   4.056   1.627 -0.5720 -1.4406 -0.4270
  898MOL0     H21183   6.173   3.947   1.520 -5.0785  1.8149 -0.0220
  898MOL0     H21184   6.306   4.059   1.320 -1.5160  0.6742  0.5668
  898MOL0     H21185   6.396   4.158   1.430 -0.4449  1.0912  0.1198
  898MOL0     H21186   6.394   3.859   1.411  0.0050  0.2607 -1.0268
  898MOL0     H21187   6.455   3.933   1.562 -1.0337  0.6727  0.2460
  898MOL0     H21188   6.625   4.034   1.422  1.9286 -0.1457 -3.2177
  898MOL0     H21189   6.568   3.944   1.278  2.4922 -0.7505 -0.3744
  898MOL0     H21190   6.803   4.007   1.288  1.6631  0.6544  0.0561
  898MOL0     H21191   7.036   3.961   1.218  2.5259 -1.2001  1.5332
  898MOL0     H21192   7.434   3.951   1.494  0.6510  1.6597 -0.7547
  898MOL0     H21193   7.660   3.874   1.517  2.2469 -1.0364 -1.6163
  898MOL0     H21194   7.850   3.531   1.326  1.6471  0.1196 -0.8824
  898MOL0     H21195   7.827   3.630   1.175  1.3537 -0.1810 -0.4000
  898MOL0     H21196   8.032   3.748   1.219  2.1170  1.0505  0.6187
  898MOL0     H21197   8.059   3.656   1.361 -1.0449  2.0785 -0.1663
  898MOL0     H21198   8.184   3.535   1.189 -0.8838  2.7919  3.1115
  898MOL0     H21199   8.036   3.442   1.200  0.0840 -0.8784 -1.3369
  898MOL0     H21200   8.073   3.688   1.013  0.5767 -0.3747 -2.6870
  898MOL0     H21201   7.954   3.558   0.996  1.1873 -4.2333  0.3194
  898MOL0     H21202   8.108   3.397   0.931 -2.0762  0.5322  1.3894
  898MOL0     H21203   8.250   3.505   0.959 -0.5326  0.1132  1.5275
  898MOL0     H21204   8.022   3.550   0.755 -0.3375  0.3997  1.0627
  898MOL0     H21205   8.138   3.667   0.794  1.5825  0.2815  1.3181
  898MOL0     H21206   8.189   3.529   0.580 -0.1718  2.1403 -0.5178
  898MOL0     H21207   8.202   3.391   0.682  0.7505 -0.5209 -1.3724
  898MOL0     H21208   8.399   3.492   0.815 -0.3212  1.6221  0.8371
  898MOL0     H21209   8.431   3.482   0.638 -0.5032  0.9078 -1.2732
  898MOL0     H21210   7.632   3.671   1.130  0.8173  2.4732 -0.8907
  898MOL0     H21211   7.401   3.733   1.123  0.8223  0.1969 -0.8508
  898MOL0     H21212   7.031   3.619   1.479 -3.8786 -1.2955  0.0524
  898MOL0     H21213   6.793   3.665   1.539 -1.0854  0.1220 -0.0276
  898MOL0     H21214   5.427   4.096   2.425  0.2858 -2.7721  0.4857
  898MOL0     H21215   5.275   4.033   2.619  0.9711 -0.9563 -0.4643
  898MOL0     H21216   4.923   3.651   2.753 -0.9992  0.6059 -2.0916
  898MOL0     H21217   4.794   3.608   2.957  0.5330  0.3851 -0.7555
  898MOL0     H21218   4.566   3.957   3.146  0.4070 -0.7947 -0.2110
  898MOL0     H21219   4.708   3.892   3.238  0.6682 -1.8148 -0.4651
  898MOL0     H21220   4.431   3.756   3.268  0.7211 -2.4401  0.3781
  898MOL0     H21221   4.493   3.886   3.373  2.4809 -1.0605  2.1045
  898MOL0     H21222   4.580   3.711   3.496 -0.0506 -1.8343  0.5561
  898MOL0     H21223   4.711   3.733   3.379 -0.8578  1.0900 -0.0022
  898MOL0     H21224   4.536   3.500   3.377  1.4815 -0.6922  1.2327
  898MOL0     H21225   4.603   3.563   3.226  0.3367 -0.2209  0.1030
  898MOL0     H21226   4.956   3.457   3.457 -1.1568 -2.3518  0.6372
  898MOL0     H21227   4.667   4.005   2.978  1.1758 -0.2964  2.2588
  898MOL0     H21228   4.787   4.111   2.655  2.2371 -0.6419  0.1361
  898MOL0     H21229   4.677   4.143   2.792 -2.1926 -1.6352 -2.5097
  898MOL0     H21230   4.850   4.165   2.816  0.3470  0.8761  0.3257
  899MOL0     O21231   1.158   0.979   6.019 -0.7576 -0.0312 -0.1893
  899MOL0     C21232   1.203   0.869   6.054 -0.6631 -0.3767  0.3272
  899MOL0     O21233   1.338   0.844   6.059 -0.1718 -0.0906 -0.2825
  899MOL0     C21234   1.430   0.936   6.029  0.2136 -0.4704  0.3221
  899MOL0     C21235   1.546   0.964   6.109  0.2307 -0.4621 -0.3136
  899MOL0     C21236   1.645   1.063   6.083 -0.1370  0.1504 -0.0125
  899MOL0     C21237   1.638   1.121   5.957  0.2282  0.2447  0.3965
  899MOL0     O21238   1.742   1.200   5.924  0.0201 -0.3765 -0.1003
  899MOL0     C21239   1.809   1.175   5.800  0.5055  1.2543  0.4522
  899MOL0     C21240   1.937   1.266   5.783  0.7400 -0.5411  0.3770
  899MOL0     C21241   2.037   1.259   5.887 -0.0700  0.2284 -0.4840
  899MOL0     C21242   2.127   1.131   5.888 -0.0622 -0.4813  0.4234
  899MOL0     C21243   2.206   1.118   6.016  0.6700  0.3494  0.1742
  899MOL0     C21244   2.349   1.068   5.993 -0.3288  1.1878  0.4148
  899MOL0     C21245   2.357   0.913   5.965 -0.2484 -0.4222 -0.5451
  899MOL0     C21246   2.397   0.885   5.815  0.0923  0.8262  0.1859
  899MOL0     N21247   2.521   0.947   5.767  0.2836 -0.3324  0.0748
  899MOL0     C21248   2.646   0.894   5.782  0.2341  0.0456  0.4830
  899MOL0     C21249   2.740   0.974   5.733  0.2071 -0.0157  0.2360
  899MOL0     C21250   2.889   0.959   5.719 -0.7777 -0.0758 -0.4466
  899MOL0     C21251   2.951   0.989   5.580 -0.3498  0.4360 -0.3517
  899MOL0     C21252   2.978   1.137   5.546 -0.3001  0.3702 -0.5449
  899MOL0     C21253   3.081   1.213   5.638 -0.0386  0.3622 -0.0688
  899MOL0     O21254   3.202   1.138   5.629 -0.0504 -0.2599  0.4264
  899MOL0     C21255   3.321   1.193   5.672  0.5349 -0.2817 -0.1239
  899MOL0     C21256   3.333   1.307   5.755  0.7847  0.1181 -0.1063
  899MOL0     C21257   3.445   1.335   5.828  0.1411  0.6850 -0.0785
  899MOL0     C21258   3.566   1.264   5.800  1.0969 -0.0712 -0.4531
  899MOL0     C21259   3.692   1.278   5.882  0.4998  0.2216  0.2538
  899MOL0     O21260   3.798   1.198   5.849 -0.1687  0.3541 -0.4684
  899MOL0     C21261   3.931   1.223   5.880  1.7474  0.2283 -1.0245
  899MOL0     C21262   4.015   1.132   5.824 -0.9326  0.4837  0.5850
  899MOL0     C21263   4.155   1.133   5.847 -0.3259 -0.3343 -0.4670
  899MOL0     C21264   4.204   1.231   5.926 -0.2223 -0.1401  1.0721
  899MOL0     O21265   4.338   1.229   5.952 -0.9569  0.2583  0.7352
  899MOL0     C21266   4.399   1.343   6.012  0.1821 -0.5879  0.3948
  899MOL0     C21267   4.550   1.336   5.984 -0.1243  0.4695  0.4041
  899MOL0     C21268   4.621   1.438   6.080 -0.4027 -0.0801  0.2779
  899MOL0     C21269   4.771   1.455   6.036 -0.1569 -0.5418 -0.2272
  899MOL0     C21270   4.842   1.552   6.126 -0.1525 -0.4807  0.2903
  899MOL0     C21271   4.991   1.554   6.099  1.0520  0.4954  0.5258
  899MOL0     C21272   5.050   1.618   6.218  0.2049 -0.1614 -0.6574
  899MOL0     C21273   5.208   1.642   6.186  0.2161  0.7155  0.2909
  899MOL0    Cl21274   5.282   1.481   6.172 -0.1778 -0.6521  0.0315
  899MOL0     C21275   4.125   1.323   5.988  0.7233 -0.2796 -0.1411
  899MOL0     C21276   3.980   1.324   5.966  0.2584  0.9998  0.1297
  899MOL0     O21277   3.687   1.368   5.968  0.0666  0.0095  0.0583
  899MOL0     C21278   3.559   1.159   5.706 -0.0251 -1.0833 -0.1611
  899MOL0     C21279   3.447   1.127   5.640 -0.2466  0.4730 -0.0361
  899MOL0     N21280   2.670   1.078   5.666 -0.3392 -0.5162 -1.0686
  899MOL0     N21281   2.541   1.060   5.696  0.1143 -0.5806  0.6729
  899MOL0     C21282   1.529   1.094   5.873  0.3044 -0.4800  0.3421
  899MOL0     C21283   1.423   1.004   5.909  0.1330 -0.1391  0.2777
  899MOL0     C21284   1.119   0.750   6.089  0.5961 -0.7854  0.9021
  899MOL0     C21285   1.175   0.622   6.065 -0.8306  0.0614  0.1761
  899MOL0     C21286   1.102   0.505   6.077  0.4859 -0.1429 -0.0226
  899MOL0     C21287   0.967   0.509   6.103 -0.4279 -0.6924 -0.3302
  899MOL0     O21288   0.911   0.388   6.126 -0.7849  0.9526 -0.0830
  899MOL0     C21289   0.779   0.382   6.184 -0.6267 -0.1739  0.3136
  899MOL0     C21290   0.659   0.387   6.092  0.0410  0.3604  0.2120
  899MOL0     C21291   0.657   0.274   5.985 -0.0341  1.1454  0.3159
  899MOL0     C21292   0.642   0.132   6.048  0.0408  0.0843 -0.1336
  899MOL0     C21293   0.501   0.093   6.064  0.1019  0.3863 -0.2920
  899MOL0     C21294   0.387   0.062   6.092  0.1619  0.0201 -0.0923
  899MOL0     C21295   0.907   0.629   6.114  0.4758 -0.3248 -0.2441
  899MOL0     C21296   0.979   0.752   6.108  1.1735  0.2778  0.1105
  899MOL0     C21297   0.902   0.878   6.124 -0.4824  1.0313 -0.4460
  899MOL0     H21298   1.546   0.905   6.200  1.2001 -0.2521 -0.1598
  899MOL0     H21299   1.733   1.091   6.140  1.9269 -0.6484 -2.6113
  899MOL0     H21300   1.826   1.069   5.781 -3.0473  0.8547 -1.3990
  899MOL0     H21301   1.736   1.209   5.725 -0.3488 -0.6265  0.3850
  899MOL0     H21302   1.909   1.371   5.771  0.2594 -0.7028  0.0807
  899MOL0     H21303   1.992   1.242   5.692  0.0416  0.4819 -0.3265
  899MOL0     H21304   1.984   1.254   5.983  0.9010 -1.4658  0.0088
  899MOL0     H21305   2.105   1.345   5.884  1.6200 -0.8509  2.1456
  899MOL0     H21306   2.078   1.036   5.863 -1.6600  0.9269 -2.1616
  899MOL0     H21307   2.196   1.141   5.803  1.4973 -1.4819  1.4981
  899MOL0     H21308   2.208   1.219   6.058 -1.8116  0.2013  0.7784
  899MOL0     H21309   2.156   1.056   6.091 -0.0882  0.0715 -0.5383
  899MOL0     H21310   2.398   1.122   5.911 -0.6225  2.7699  1.2299
  899MOL0     H21311   2.408   1.082   6.084  1.8705 -0.0092 -0.7523
  899MOL0     H21312   2.265   0.858   5.987 -0.2037 -0.9685 -1.6187
  899MOL0     H21313   2.440   0.868   6.021 -0.3337 -0.7345 -0.6680
  899MOL0     H21314   2.421   0.779   5.820  1.7593  1.1638 -0.0157
  899MOL0     H21315   2.309   0.896   5.750 -1.8756 -3.3420  1.7682
  899MOL0     H21316   2.667   0.794   5.818 -3.5430 -0.6308  1.2901
  899MOL0     H21317   2.942   1.025   5.788 -1.0350 -1.7489  1.4175
  899MOL0     H21318   2.915   0.856   5.743 -2.5743 -0.6551 -0.7733
  899MOL0     H21319   3.044   0.931   5.582  0.5906  1.8746 -0.8909
  899MOL0     H21320   2.899   0.941   5.497  0.1564  1.2461 -1.1524
  899MOL0     H21321   2.880   1.185   5.552 -1.2767 -1.5351 -0.5564
  899MOL0     H21322   3.011   1.163   5.445  2.6455  0.5693  0.3701
  899MOL0     H21323   3.046   1.206   5.741  2.9889  0.5382  1.0825
  899MOL0     H21324   3.087   1.319   5.609 -0.6389  0.4675  0.1695
  899MOL0     H21325   3.247   1.371   5.773  0.8672 -0.0406  0.9245
  899MOL0     H21326   3.444   1.423   5.892 -2.6814  0.8574 -0.2378
  899MOL0     H21327   3.974   1.052   5.763  0.5064  1.2359 -1.5022
  899MOL0     H21328   4.214   1.053   5.802 -0.1897  0.5645 -1.9676
  899MOL0     H21329   4.367   1.438   5.967 -1.4148 -1.6850 -0.9093
  899MOL0     H21330   4.380   1.346   6.120  1.0130 -0.4447  0.5449
  899MOL0     H21331   4.595   1.237   5.997  1.1485  1.0890  0.8320
  899MOL0     H21332   4.567   1.366   5.881  0.2855  0.9405  0.6030
  899MOL0     H21333   4.565   1.531   6.068  0.6768  0.3764 -1.6929
  899MOL0     H21334   4.622   1.402   6.183  1.4320 -0.4568  0.1696
  899MOL0     H21335   4.784   1.504   5.940 -1.3135 -1.1257 -0.6957
  899MOL0     H21336   4.822   1.358   6.038 -0.1753 -0.5912  2.4607
  899MOL0     H21337   4.830   1.520   6.230  0.6640  1.6610  1.1078
  899MOL0     H21338   4.799   1.652   6.117  0.5328 -0.2694 -0.8788
  899MOL0     H21339   5.030   1.452   6.095  2.5683  1.0756 -1.7505
  899MOL0     H21340   5.008   1.609   6.005 -1.8728  0.8264  0.0983
  899MOL0     H21341   5.039   1.556   6.307  1.4738 -0.3547 -0.6068
  899MOL0     H21342   4.998   1.713   6.234 -1.5779 -0.8000 -2.2449
  899MOL0     H21343   5.226   1.703   6.097 -0.1001  0.8065  0.2902
  899MOL0     H21344   5.246   1.699   6.272  1.3738  0.7732 -0.2359
  899MOL0     H21345   4.166   1.400   6.052 -0.7580  0.0220  0.4859
  899MOL0     H21346   3.919   1.401   6.011 -0.4547  1.6642 -1.8911
  899MOL0     H21347   3.649   1.106   5.676  0.4590 -1.5125  1.9361
  899MOL0     H21348   3.441   1.038   5.578  1.4158 -1.3202  2.1865
  899MOL0     H21349   1.526   1.146   5.778  1.4283  3.8125  2.4299
  899MOL0     H21350   1.343   0.988   5.837  1.6361  0.0806 -1.5117
  899MOL0     H21351   1.281   0.615   6.042 -0.9768 -1.2937 -0.1793
  899MOL0     H21352   1.155   0.411   6.068  0.0701 -0.3475 -0.3565
  899MOL0     H21353   0.768   0.467   6.252 -1.2261 -0.1482  0.1923
  899MOL0     H21354   0.767   0.289   6.241 -0.8468  0.4540  1.2984
  899MOL0     H21355   0.644   0.490   6.059  1.9404  1.4254  2.4266
  899MOL0     H21356   0.567   0.377   6.150 -1.6313 -0.9057 -2.4347
  899MOL0     H21357   0.747   0.268   5.922  0.2188 -3.1082  0.8017
  899MOL0     H21358   0.574   0.296   5.918 -0.7297 -1.9225  0.0122
  899MOL0     H21359   0.678   0.057   5.977 -4.9459  0.6055 -3.7226
  899MOL0     H21360   0.707   0.120   6.136  2.5417  0.6739 -1.7740
  899MOL0     H21361   0.285   0.036   6.109 -0.0284 -0.6435 -1.9933
  899MOL0     H21362   0.805   0.649   6.142  0.8220 -1.1135  1.7535
  899MOL0     H21363   0.879   0.899   6.019 -1.7999 -1.5960 -0.7726
  899MOL0     H21364   0.811   0.873   6.184  1.9559  2.9748  3.9105
  899MOL0     H21365   0.964   0.959   6.165  1.0272  1.0273 -2.5297
  900MOL0     O21366   0.201  10.796   1.772 -0.5758 -0.1651  0.4966
  900MOL0     C21367   0.229  10.764   1.884  1.1343  0.0424 -0.4367
  900MOL0     O21368   0.354  10.760   1.945  0.7641  0.3102  0.1725
  900MOL0     C21369   0.473  10.781   1.884  0.0820  0.3699  0.4487
  900MOL0     C21370   0.489  10.861   1.769  0.3296  0.3946  0.3082
  900MOL0     C21371   0.613  10.870   1.711  0.2952 -0.2158 -1.1142
  900MOL0     C21372   0.721  10.802   1.761  0.7646 -0.3289 -0.0324
  900MOL0     O21373   0.840  10.834   1.709  0.4706 -0.4901 -0.2945
  900MOL0     C21374   0.935  10.886   1.798  0.0423 -0.4348 -0.4197
  900MOL0     C21375   1.062  10.914   1.716  0.0212 -0.1522  0.2390
  900MOL0     C21376   1.187  10.954   1.800 -0.0001  0.4768 -0.4203
  900MOL0     C21377   1.319  10.951   1.716 -0.4111 -0.7369 -0.4094
  900MOL0     C21378   1.456  10.987   1.792  0.0091 -0.5019 -0.8549
  900MOL0     C21379   1.574  10.921   1.733  0.6701 -0.2559  0.2134
  900MOL0     C21380   1.598  10.928   1.580 -0.8635 -0.6071  0.3161
  900MOL0     C21381   1.630  11.074   1.536 -0.1471 -0.0568  0.2500
  900MOL0     N21382   1.754  11.119   1.585  0.2734  0.1075  0.0480
  900MOL0     C21383   1.866  11.113   1.505 -0.0085 -0.7509 -0.3570
  900MOL0     C21384   1.948  11.205   1.560  0.3161  0.1442  0.3419
  900MOL0     C21385   2.086  11.226   1.502  0.0455 -0.1334  0.0898
  900MOL0     C21386   2.080  11.359   1.422 -0.8254 -0.4083  0.5409
  900MOL0     C21387   2.213  11.372   1.349 -0.1856 -0.5307  0.4010
  900MOL0     C21388   2.232  11.515   1.298 -0.5115 -0.3372 -0.2362
  900MOL0     O21389   2.231  11.600   1.418  0.1679  0.3106  0.0126
  900MOL0     C21390   2.349  11.624   1.494  0.8692  0.1570 -0.0351
  900MOL0     C21391   2.479  11.601   1.447  0.3563  0.1211 -0.2225
  900MOL0     C21392   2.585  11.632   1.529 -0.3167 -0.2763  0.1541
  900MOL0     C21393   2.558  11.681   1.658 -0.3675 -0.0604  0.4955
  900MOL0     C21394   2.668  11.698   1.751 -0.3512  0.3393 -0.8358
  900MOL0     O21395   2.789  11.720   1.693 -0.4921 -0.3782 -0.1168
  900MOL0     C21396   2.899  11.713   1.777  1.0394  0.6154  0.2699
  900MOL0     C21397   2.983  11.822   1.790  0.5255  0.0453 -0.3787
  900MOL0     C21398   3.093  11.805   1.873 -0.5931  0.1031  0.0471
  900MOL0     C21399   3.129  11.678   1.929  0.5486  0.0227 -0.2581
  900MOL0     O21400   3.251  11.668   1.999 -0.3272 -0.2680  0.1879
  900MOL0     C21401   3.279  11.552   2.075  0.0387  0.0814 -0.0956
  900MOL0     C21402   3.398  11.582   2.162 -0.6734 -0.9717 -0.2123
  900MOL0     C21403   3.397  11.492   2.284 -0.3235  0.4084 -0.8326
  900MOL0     C21404   3.518  11.512   2.371  0.3359  0.8392 -0.6919
  900MOL0     C21405   3.509  11.415   2.493  0.0351  0.1978 -0.2493
  900MOL0     C21406   3.639  11.416   2.574 -0.2067  0.1951  0.1827
  900MOL0     C21407   3.661  11.282   2.649  0.5603  0.2133  0.1733
  900MOL0     C21408   3.775  11.307   2.750 -0.1775 -0.4565 -0.7033
  900MOL0    Cl21409   3.807  11.159   2.851  0.0475  0.3707 -0.0632
  900MOL0     C21410   3.052  11.567   1.898  0.1934  0.7830  0.7765
  900MOL0     C21411   2.941  11.588   1.823  0.5518 -0.0444 -0.0698
  900MOL0     O21412   2.650  11.680   1.869  0.1330 -0.3022 -0.6207
  900MOL0     C21413   2.428  11.719   1.700  0.6079 -0.0388  0.2055
  900MOL0     C21414   2.325  11.689   1.617  0.1704 -0.0400  0.5030
  900MOL0     N21415   1.898  11.254   1.677 -0.4093  0.5808 -0.2223
  900MOL0     N21416   1.781  11.203   1.691  0.6796  0.5462 -0.3874
  900MOL0     C21417   0.702  10.726   1.878 -0.6026  0.3877 -0.2889
  900MOL0     C21418   0.579  10.716   1.947  0.2446  0.6529 -0.0271
  900MOL0     C21419   0.114  10.758   1.983  0.4916  0.7269 -0.9192
  900MOL0     C21420   0.139  10.773   2.118  0.7113  0.0919  0.3138
  900MOL0     C21421   0.047  10.808   2.213 -0.1371  0.9746 -0.1899
  900MOL0     C21422  -0.084  10.809   2.174  0.0123 -0.0772  0.0211
  900MOL0     O21423  -0.189  10.838   2.262 -0.4062  0.5059 -0.4934
  900MOL0     C21424  -0.234  10.731   2.357  1.0967 -0.1657  0.0900
  900MOL0     C21425  -0.268  10.792   2.498 -0.1700 -0.5023 -0.9583
  900MOL0     C21426  -0.137  10.825   2.568  0.2985 -0.6579  0.6271
  900MOL0     C21427  -0.158  10.881   2.706  0.0859  0.2371 -0.0411
  900MOL0     C21428  -0.030  10.932   2.764 -1.0829  0.2066 -0.0332
  900MOL0     C21429   0.069  10.984   2.804 -0.2808 -0.2942  0.0745
  900MOL0     C21430  -0.114  10.791   2.040  0.2187 -0.0147 -0.8237
  900MOL0     C21431  -0.021  10.760   1.946  0.8567  0.2943  0.4094
  900MOL0     C21432  -0.077  10.724   1.809  0.0809 -0.0617  0.5823
  900MOL0     H21433   0.413  10.924   1.724 -0.8298 -1.8923 -1.1014
  900MOL0     H21434   0.632  10.943   1.633  1.5136 -0.4344 -1.0344
  900MOL0     H21435   0.898  10.973   1.854  3.6757  0.5179  0.7484
  900MOL0     H21436   0.950  10.812   1.878 -3.0420 -2.0866 -1.1935
  900MOL0     H21437   1.034  10.993   1.647  1.5428  0.3362  0.1367
  900MOL0     H21438   1.087  10.829   1.651  1.7509  0.9102 -0.5616
  900MOL0     H21439   1.197  10.889   1.887  0.4891  1.2181  0.0912
  900MOL0     H21440   1.167  11.056   1.834 -2.3856 -0.6491  1.9198
  900MOL0     H21441   1.338  10.855   1.668  1.6731  0.1548 -1.4919
  900MOL0     H21442   1.307  11.023   1.634  0.3414 -1.7498 -1.4400
  900MOL0     H21443   1.475  11.094   1.788  1.5836 -0.6951  0.2504
  900MOL0     H21444   1.455  10.951   1.896 -2.0384  0.8937 -0.3156
  900MOL0     H21445   1.656  10.972   1.785 -0.0903  0.3736  0.8331
  900MOL0     H21446   1.564  10.817   1.764 -2.3783 -0.3363 -0.7582
  900MOL0     H21447   1.510  10.903   1.520 -0.8498  2.9225 -1.4155
  900MOL0     H21448   1.672  10.854   1.547 -1.0743 -0.8804  0.4476
  900MOL0     H21449   1.624  11.087   1.428 -0.2334  4.1451  0.6101
  900MOL0     H21450   1.557  11.139   1.585 -0.5557 -1.2136  1.2219
  900MOL0     H21451   1.890  11.066   1.410  2.8323 -2.1277  0.9081
  900MOL0     H21452   2.158  11.231   1.585 -0.2078 -3.1655  0.5927
  900MOL0     H21453   2.103  11.140   1.437 -1.9501 -0.1277 -0.4948
  900MOL0     H21454   1.995  11.352   1.353 -0.8572  1.5722  0.3440
  900MOL0     H21455   2.058  11.440   1.492  1.2685  0.8556 -0.1844
  900MOL0     H21456   2.212  11.316   1.255 -0.9832  1.5898 -0.9112
  900MOL0     H21457   2.296  11.342   1.414  2.1710 -0.1359 -2.2404
  900MOL0     H21458   2.158  11.541   1.222  1.1059 -2.8737 -2.8745
  900MOL0     H21459   2.323  11.531   1.240 -1.2199 -0.7582 -1.4863
  900MOL0     H21460   2.496  11.541   1.358 -0.8194  2.3395 -2.0625
  900MOL0     H21461   2.684  11.600   1.498 -0.8825  0.1422 -2.2914
  900MOL0     H21462   2.959  11.922   1.756  0.1453 -0.2621 -1.0300
  900MOL0     H21463   3.149  11.892   1.909 -0.9620  0.1005  0.6389
  900MOL0     H21464   3.196  11.529   2.143 -1.7641  3.1116 -1.0626
  900MOL0     H21465   3.323  11.467   2.023  1.2621  0.7940 -0.2632
  900MOL0     H21466   3.494  11.569   2.113 -0.1597  1.4999  0.0000
  900MOL0     H21467   3.400  11.686   2.196 -0.5209 -1.8954  2.8863
  900MOL0     H21468   3.304  11.510   2.339  0.0595  0.7792 -0.3030
  900MOL0     H21469   3.392  11.389   2.248  0.1823  0.8673 -2.2968
  900MOL0     H21470   3.523  11.617   2.401  1.4990  1.1677 -1.9285
  900MOL0     H21471   3.607  11.486   2.312 -0.6120 -2.5187 -0.8006
  900MOL0     H21472   3.475  11.317   2.456 -0.0242  0.8874 -2.0716
  900MOL0     H21473   3.437  11.460   2.562 -0.0169 -0.0004 -0.1711
  900MOL0     H21474   3.718  11.420   2.499 -0.4263 -1.5993 -0.1905
  900MOL0     H21475   3.640  11.505   2.637 -0.2135  1.3209 -1.3640
  900MOL0     H21476   3.688  11.193   2.591 -0.7098 -1.2561  1.7220
  900MOL0     H21477   3.571  11.257   2.706  0.2585  0.6963 -0.0885
  900MOL0     H21478   3.868  11.351   2.712  1.2987  0.5320  3.5332
  900MOL0     H21479   3.740  11.384   2.818  0.7309  0.6336 -1.4406
  900MOL0     H21480   3.086  11.470   1.933  0.4493  1.0720  1.3418
  900MOL0     H21481   2.873  11.506   1.803 -1.4153  1.6991 -0.9398
  900MOL0     H21482   2.407  11.765   1.795  1.7560  0.1171  0.4014
  900MOL0     H21483   2.224  11.704   1.654  0.4516 -0.4552  1.4462
  900MOL0     H21484   0.788  10.682   1.928 -2.1856 -1.7332  0.7683
  900MOL0     H21485   0.558  10.657   2.036 -0.2910  2.0577  0.8167
  900MOL0     H21486   0.239  10.784   2.158  1.4149 -2.1646 -0.6747
  900MOL0     H21487   0.084  10.823   2.314  2.7336 -0.5108 -0.9160
  900MOL0     H21488  -0.168  10.645   2.371  2.3197  0.9385  1.4209
  900MOL0     H21489  -0.327  10.684   2.323 -0.0779  0.9171  1.6062
  900MOL0     H21490  -0.314  10.710   2.555  1.2996 -0.8823 -0.2753
  900MOL0     H21491  -0.345  10.870   2.501 -1.3429 -1.6187 -1.0328
  900MOL0     H21492  -0.090  10.895   2.499 -1.9129 -1.1899 -1.5590
  900MOL0     H21493  -0.077  10.735   2.583 -1.4920 -2.0787 -0.2834
  900MOL0     H21494  -0.231  10.963   2.703 -0.1927 -0.0434 -1.5259
  900MOL0     H21495  -0.204  10.800   2.763 -2.7601  0.4685 -1.7958
  900MOL0     H21496   0.149  11.050   2.829  0.1220 -1.5516  2.2813
  900MOL0     H21497  -0.216  10.795   2.003 -0.5151  0.1966  1.0992
  900MOL0     H21498  -0.066  10.819   1.755 -3.1543 -0.6858 -1.4659
  900MOL0     H21499  -0.025  10.638   1.764 -0.8041 -0.9392  1.2059
  900MOL0     H21500  -0.184  10.703   1.803 -0.0357  0.5081  0.6655
  901MOL0     O21501   4.797   6.079  10.446 -0.4122 -0.3227 -0.3203
  901MOL0     C21502   4.748   6.081  10.332 -0.5219  0.4743 -0.8286
  901MOL0     O21503   4.785   6.175  10.240 -0.4205  0.5866 -0.1038
  901MOL0     C21504   4.881   6.264  10.266 -0.1836 -0.5797  0.1760
  901MOL0     C21505   5.004   6.222  10.311 -0.0849 -0.2087 -0.8973
  901MOL0     C21506   5.114   6.307  10.344 -0.3561  0.1437  0.2245
  901MOL0     C21507   5.092   6.443  10.318 -0.1733  0.3388  0.5049
  901MOL0     O21508   5.189   6.539  10.342 -0.1851 -0.6102 -0.1179
  901MOL0     C21509   5.324   6.491  10.363  0.1232  0.0488  0.1610
  901MOL0     C21510   5.420   6.606  10.372 -0.1087 -0.5395  0.2559
  901MOL0     C21511   5.401   6.686  10.504 -0.4620 -0.7213  1.0919
  901MOL0     C21512   5.499   6.802  10.524  0.3289  0.4024 -0.4153
  901MOL0     C21513   5.501   6.899  10.407 -0.7524 -0.0709  0.1954
  901MOL0     C21514   5.609   7.010  10.430  0.0208  0.0928  0.4983
  901MOL0     C21515   5.648   7.091  10.301 -0.3877  0.8249  0.3337
  901MOL0     C21516   5.754   7.196  10.328  0.4959  0.5167 -0.8627
  901MOL0     N21517   5.801   7.281  10.211  0.1682 -0.7835 -0.0975
  901MOL0     C21518   5.778   7.410  10.198  0.2475 -0.0361  0.5126
  901MOL0     C21519   5.843   7.445  10.084  0.5571  0.4362  0.3807
  901MOL0     C21520   5.856   7.586  10.038 -0.4885  0.0297  0.2220
  901MOL0     C21521   5.999   7.634  10.068 -0.1705  0.3545  0.5522
  901MOL0     C21522   6.025   7.769   9.983 -0.1579 -0.7565 -0.1817
  901MOL0     C21523   6.161   7.823  10.005 -0.3457  0.7449 -0.4205
  901MOL0     O21524   6.246   7.730   9.937 -0.5780  0.2301 -0.6581
  901MOL0     C21525   6.381   7.744   9.938 -0.0313 -1.0362 -0.4217
  901MOL0     C21526   6.449   7.849  10.002  0.4757  0.5072 -0.7365
  901MOL0     C21527   6.582   7.869   9.978  0.0899  0.4774 -0.4152
  901MOL0     C21528   6.658   7.771   9.909 -0.4921 -0.2154  0.1651
  901MOL0     C21529   6.804   7.785   9.894  0.3881  0.5227  0.3399
  901MOL0     O21530   6.869   7.680   9.838 -0.4050  0.2168  0.4475
  901MOL0     C21531   7.003   7.670   9.835 -1.0017  0.0410  0.4805
  901MOL0     C21532   7.048   7.572   9.747 -0.7869  0.4441  1.0465
  901MOL0     C21533   7.184   7.532   9.742  0.7437  0.1749  0.3156
  901MOL0     C21534   7.276   7.594   9.815 -0.4788  0.7306 -0.0148
  901MOL0     O21535   7.403   7.532   9.813  0.0528 -0.2939 -0.3023
  901MOL0     C21536   7.510   7.587   9.884  0.7060 -0.3616  0.0908
  901MOL0     C21537   7.564   7.719   9.824  0.2409  1.0011  0.1079
  901MOL0     C21538   7.620   7.692   9.683 -0.3940  0.8152  0.0696
  901MOL0     C21539   7.746   7.599   9.690  0.7782 -0.2239 -0.3181
  901MOL0     C21540   7.868   7.642   9.773 -0.5725 -0.2500 -0.2259
  901MOL0     C21541   7.921   7.785   9.745  0.1713 -0.9869 -0.0908
  901MOL0     C21542   8.034   7.819   9.831 -0.2490 -0.1429 -1.1260
  901MOL0     C21543   7.994   7.853   9.976  0.5222  0.0037 -0.5906
  901MOL0    Cl21544   8.116   7.952  10.059 -0.0725 -0.4652  0.0144
  901MOL0     C21545   7.232   7.708   9.882  0.6638 -0.0725  0.0012
  901MOL0     C21546   7.099   7.744   9.906 -0.6674  0.6273  0.2512
  901MOL0     O21547   6.855   7.890   9.931  0.2566 -0.4185  0.0613
  901MOL0     C21548   6.592   7.673   9.845 -0.4094  0.3697  0.6872
  901MOL0     C21549   6.454   7.659   9.857  0.3145 -0.0994 -0.3294
  901MOL0     N21550   5.904   7.334  10.035  0.0147  0.2284 -0.3565
  901MOL0     N21551   5.879   7.237  10.109  0.2511 -0.1308  0.8347
  901MOL0     C21552   4.960   6.489  10.272 -0.7589 -0.4833 -0.0127
  901MOL0     C21553   4.853   6.405  10.238  0.0216  0.2795 -0.2528
  901MOL0     C21554   4.635   5.987  10.294 -0.3025  0.1676 -0.0845
  901MOL0     C21555   4.613   5.969  10.155 -1.0710 -0.1786 -1.1068
  901MOL0     C21556   4.509   5.892  10.112  0.6959 -0.6025 -0.1778
  901MOL0     C21557   4.422   5.826  10.201  0.1506 -0.3625  0.5837
  901MOL0     O21558   4.322   5.742  10.161  0.5493  0.8668 -0.3675
  901MOL0     C21559   4.288   5.725  10.021 -0.2248 -0.0206  0.4192
  901MOL0     C21560   4.390   5.627   9.956 -0.6383 -0.2063  0.5050
  901MOL0     C21561   4.383   5.611   9.798 -1.0461  0.5282 -0.1883
  901MOL0     C21562   4.440   5.472   9.751  0.4218  0.3505  0.1280
  901MOL0     C21563   4.576   5.441   9.790  0.1027 -0.0257  0.8213
  901MOL0     C21564   4.689   5.411   9.834  0.3258 -0.3219  0.6344
  901MOL0     C21565   4.444   5.845  10.333  0.4193  0.2090 -0.1354
  901MOL0     C21566   4.557   5.912  10.383  0.1446 -0.0211  0.5815
  901MOL0     C21567   4.581   5.911  10.530 -0.7024  0.5095 -0.7885
  901MOL0     H21568   5.011   6.119  10.343  0.4883  0.6070  1.8576
  901MOL0     H21569   5.204   6.263  10.387 -0.1152  1.8224  1.5964
  901MOL0     H21570   5.330   6.427  10.451 -0.8766 -1.6206 -0.9115
  901MOL0     H21571   5.353   6.419  10.285 -1.6824  1.5755 -2.0658
  901MOL0     H21572   5.415   6.657  10.276  0.1729 -1.8063 -0.4584
  901MOL0     H21573   5.524   6.571  10.371 -0.3266 -1.2220 -0.8005
  901MOL0     H21574   5.407   6.611  10.583  0.1862 -3.7022 -1.5725
  901MOL0     H21575   5.298   6.723  10.504  0.3690  1.9776 -1.2789
  901MOL0     H21576   5.461   6.855  10.612  2.9972  2.2639 -0.2890
  901MOL0     H21577   5.600   6.764  10.541  0.3695  0.8649  0.3986
  901MOL0     H21578   5.534   6.846  10.317 -0.2844  1.9110 -0.8588
  901MOL0     H21579   5.404   6.945  10.382 -0.9530 -1.2087 -1.2516
  901MOL0     H21580   5.565   7.085  10.497 -0.0754  1.3321 -0.9053
  901MOL0     H21581   5.702   6.971  10.473  1.4253  1.8584 -0.7797
  901MOL0     H21582   5.555   7.133  10.263  0.6554  1.4896 -1.6271
  901MOL0     H21583   5.694   7.019  10.233 -0.0442  0.4918  0.9059
  901MOL0     H21584   5.709   7.268  10.398  0.6090  0.3325 -0.6025
  901MOL0     H21585   5.843   7.154  10.375 -0.4144  0.4672  0.8768
  901MOL0     H21586   5.733   7.475  10.272  1.5451  0.2545  1.0677
  901MOL0     H21587   5.846   7.584   9.929 -2.3295  1.9288  0.2752
  901MOL0     H21588   5.790   7.658  10.088 -0.7569  0.0717 -0.1846
  901MOL0     H21589   5.993   7.658  10.175 -0.8937 -0.5157  0.7186
  901MOL0     H21590   6.083   7.565  10.052  2.3446  3.5558 -1.3415
  901MOL0     H21591   5.944   7.841  10.002  0.9727  0.3194  0.7643
  901MOL0     H21592   6.011   7.750   9.876  0.5412  0.1014 -0.4452
  901MOL0     H21593   6.190   7.832  10.110 -0.5364 -0.4491 -0.2531
  901MOL0     H21594   6.177   7.921   9.958  4.2471  0.1082 -0.6061
  901MOL0     H21595   6.410   7.917  10.078  1.1179 -1.5475  1.5393
  901MOL0     H21596   6.622   7.956  10.028 -2.9280  1.9347 -0.2927
  901MOL0     H21597   6.979   7.522   9.679  0.4583 -1.9186  1.4464
  901MOL0     H21598   7.197   7.447   9.676 -0.7473 -0.1096  0.3522
  901MOL0     H21599   7.470   7.592   9.986 -0.5761  0.1818 -0.4178
  901MOL0     H21600   7.598   7.522   9.879  1.5855  0.8823 -1.2476
  901MOL0     H21601   7.488   7.797   9.821  1.9259  2.6641 -1.6740
  901MOL0     H21602   7.641   7.765   9.886  1.1234  1.3697 -1.2252
  901MOL0     H21603   7.539   7.644   9.626 -1.1947  0.7950  1.1807
  901MOL0     H21604   7.634   7.788   9.632  1.2150  0.1219 -0.8447
  901MOL0     H21605   7.779   7.581   9.588  0.2646  1.5375 -0.8362
  901MOL0     H21606   7.716   7.501   9.729 -2.6891  1.0645  0.6033
  901MOL0     H21607   7.954   7.575   9.762 -0.6444 -0.5799  1.0052
  901MOL0     H21608   7.848   7.636   9.881  3.5134 -2.2430  0.6200
  901MOL0     H21609   7.953   7.795   9.641 -2.8584  0.7999 -0.9856
  901MOL0     H21610   7.841   7.859   9.747 -0.7546 -1.9534  1.8554
  901MOL0     H21611   8.087   7.910   9.801  0.8950  0.8337  3.0906
  901MOL0     H21612   8.108   7.738   9.829 -0.8424 -0.6900 -2.6890
  901MOL0     H21613   7.901   7.909   9.987 -0.1491 -0.0462 -4.5015
  901MOL0     H21614   8.001   7.767  10.043 -0.7392 -0.2795 -0.7946
  901MOL0     H21615   7.307   7.755   9.945  1.6418 -0.4799 -0.8363
  901MOL0     H21616   7.067   7.825   9.971 -2.9000 -1.4416  1.8731
  901MOL0     H21617   6.642   7.602   9.780 -0.0778  0.1148  1.2183
  901MOL0     H21618   6.402   7.579   9.806  0.2836  0.0501 -0.5345
  901MOL0     H21619   4.956   6.596  10.256 -0.4345 -0.8486 -3.4927
  901MOL0     H21620   4.759   6.439  10.197 -0.5472 -1.3081 -0.3648
  901MOL0     H21621   4.675   6.018  10.080  1.0566  0.1287  0.7584
  901MOL0     H21622   4.492   5.875  10.007  1.3845  1.3661 -0.6536
  901MOL0     H21623   4.288   5.820   9.967  0.8218 -1.3550 -2.0882
  901MOL0     H21624   4.193   5.670  10.015  0.2532 -0.9358  0.9948
  901MOL0     H21625   4.365   5.525   9.986  0.4455 -1.1176 -1.4841
  901MOL0     H21626   4.495   5.650   9.977 -0.3989  0.8453 -1.5898
  901MOL0     H21627   4.436   5.687   9.740  0.3042  0.3558  0.7693
  901MOL0     H21628   4.277   5.614   9.771 -1.2942  0.7688  0.7931
  901MOL0     H21629   4.374   5.397   9.795 -0.3409  2.0063  1.9430
  901MOL0     H21630   4.432   5.461   9.642  0.3768 -0.7492  0.2362
  901MOL0     H21631   4.786   5.381   9.869  0.1002 -0.6073  1.0249
  901MOL0     H21632   4.386   5.798  10.411  1.3128  0.3548  0.6431
  901MOL0     H21633   4.660   5.837  10.542 -1.3947  0.0333  1.0693
  901MOL0     H21634   4.616   5.999  10.585  1.2896 -1.5891  1.5320
  901MOL0     H21635   4.482   5.906  10.575 -1.5665 -0.3277 -2.6463
  902MOL0     O21636   2.953   5.444  10.564  0.4489 -0.0212 -0.0701
  902MOL0     C21637   2.866   5.520  10.605  0.7613 -0.0493 -0.1650
  902MOL0     O21638   2.880   5.653  10.621  0.5914  0.7029 -0.6526
  902MOL0     C21639   3.000   5.710  10.596  0.1045 -0.3871 -0.6421
  902MOL0     C21640   3.120   5.657  10.636 -0.2033  0.5723  0.5030
  902MOL0     C21641   3.244   5.726  10.634  0.3308  0.5753 -0.2462
  902MOL0     C21642   3.245   5.853  10.572  0.2304  0.2179 -0.4058
  902MOL0     O21643   3.363   5.918  10.566 -0.1229  0.0117  0.5669
  902MOL0     C21644   3.484   5.859  10.609  1.0392  0.6336  0.0024
  902MOL0     C21645   3.601   5.960  10.596 -0.4974 -0.0010 -0.0617
  902MOL0     C21646   3.738   5.909  10.641 -0.7217  0.2035  0.1598
  902MOL0     C21647   3.841   6.027  10.643 -0.4320 -0.0671  0.1984
  902MOL0     C21648   3.981   5.965  10.673  0.1742 -0.5159 -0.3897
  902MOL0     C21649   4.087   6.073  10.648 -0.2605  0.1254 -0.2139
  902MOL0     C21650   4.232   6.015  10.663 -0.3512 -0.3055 -1.1938
  902MOL0     C21651   4.266   6.013  10.820  0.0526  0.6167  0.5175
  902MOL0     N21652   4.398   6.069  10.851  0.4243  0.3003 -0.3053
  902MOL0     C21653   4.512   6.002  10.874 -0.2794 -0.9417 -0.1280
  902MOL0     C21654   4.617   6.085  10.899  0.9393 -0.2604  0.8138
  902MOL0     C21655   4.764   6.066  10.913 -0.6044  0.1937  0.5294
  902MOL0     C21656   4.830   6.013  10.790 -0.0497  0.4642 -0.5339
  902MOL0     C21657   4.985   6.010  10.794 -0.0078  0.1087  0.1184
  902MOL0     C21658   5.033   5.966  10.660  0.1986 -0.6452  0.8626
  902MOL0     O21659   5.165   5.914  10.666 -0.0650 -0.1320  0.2063
  902MOL0     C21660   5.281   5.997  10.665  0.0880  0.1908  0.8793
  902MOL0     C21661   5.298   6.127  10.702  1.3118  0.1042  0.3796
  902MOL0     C21662   5.421   6.193  10.691  0.4323 -0.3277  0.6553
  902MOL0     C21663   5.535   6.116  10.656 -0.3940 -0.4884  0.0170
  902MOL0     C21664   5.667   6.184  10.657 -0.7208  0.3039  0.7287
  902MOL0     O21665   5.665   6.321  10.682  0.4247 -1.0180  0.4091
  902MOL0     C21666   5.782   6.390  10.674  1.1803  0.7372  0.4777
  902MOL0     C21667   5.878   6.386  10.779 -0.0187  0.6465 -0.0185
  902MOL0     C21668   5.997   6.456  10.768  0.9283 -0.0535 -0.2986
  902MOL0     C21669   6.025   6.528  10.654 -0.2527  0.6915  0.4553
  902MOL0     O21670   6.145   6.588  10.643 -0.2637  0.0775 -0.2627
  902MOL0     C21671   6.221   6.591  10.524 -0.1389 -0.9209  0.1511
  902MOL0     C21672   6.372   6.615  10.548  0.3733 -0.6477  0.1883
  902MOL0     C21673   6.391   6.759  10.597  0.7400 -0.3163  0.3276
  902MOL0     C21674   6.538   6.790  10.633 -0.6012 -0.5314 -0.0023
  902MOL0     C21675   6.556   6.943  10.620  0.1001  0.1258 -0.3785
  902MOL0     C21676   6.707   6.979  10.620  0.6060  0.8470  0.1046
  902MOL0     C21677   6.742   7.123  10.595  0.1299  0.9306 -0.0307
  902MOL0     C21678   6.738   7.189  10.459 -0.2674  0.3362  0.2830
  902MOL0    Cl21679   6.834   7.105  10.339  0.2070  0.3270  0.7517
  902MOL0     C21680   5.925   6.537  10.552 -0.2492 -0.0772 -0.5196
  902MOL0     C21681   5.801   6.459  10.558 -0.8538  0.4979 -0.1076
  902MOL0     O21682   5.768   6.116  10.634  0.5106 -0.2296  0.2608
  902MOL0     C21683   5.518   5.984  10.621 -0.4083  0.0383  0.5079
  902MOL0     C21684   5.391   5.923  10.632  0.1231 -0.4017 -0.1275
  902MOL0     N21685   4.565   6.209  10.895  0.2882  0.5345  0.2007
  902MOL0     N21686   4.437   6.199  10.866 -0.3369 -0.3135  0.3659
  902MOL0     C21687   3.130   5.911  10.517 -0.2675  0.3371  0.8127
  902MOL0     C21688   3.008   5.834  10.530 -0.5731  1.0725  0.4435
  902MOL0     C21689   2.734   5.473  10.648 -0.3038 -0.1543  0.5959
  902MOL0     C21690   2.638   5.561  10.704 -0.0271  0.7096 -0.3808
  902MOL0     C21691   2.508   5.522  10.734  0.3641  0.4088  0.1357
  902MOL0     C21692   2.475   5.395  10.718  0.9923  0.9035  0.1353
  902MOL0     O21693   2.346   5.336  10.734 -0.3950 -0.1708  0.6470
  902MOL0     C21694   2.244   5.411  10.792 -0.3764  0.7005  0.3362
  902MOL0     C21695   2.174   5.501  10.698  0.3263 -0.7350  0.5973
  902MOL0     C21696   2.066   5.577  10.774  0.4547 -0.3601 -0.2211
  902MOL0     C21697   2.005   5.666  10.675 -0.0991  0.0799  0.1252
  902MOL0     C21698   1.872   5.700  10.719 -1.0988 -0.9259 -0.6810
  902MOL0     C21699   1.762   5.746  10.745 -0.7102  0.1633 -0.5794
  902MOL0     C21700   2.563   5.297  10.670 -0.5644  0.0770  0.4241
  902MOL0     C21701   2.692   5.331  10.627 -0.4127 -0.0012 -0.0479
  902MOL0     C21702   2.771   5.214  10.576  0.1578  0.1299  0.3969
  902MOL0     H21703   3.138   5.561  10.682 -0.5259  0.6765  0.8542
  902MOL0     H21704   3.331   5.679  10.679 -1.1276 -0.8151  1.2419
  902MOL0     H21705   3.487   5.829  10.714  1.5775  0.3733 -0.0848
  902MOL0     H21706   3.504   5.777  10.539 -0.4106  0.9819 -0.8805
  902MOL0     H21707   3.583   6.045  10.663  0.5768  0.2936 -0.1265
  902MOL0     H21708   3.609   5.998  10.494 -0.7645  0.6513  0.1541
  902MOL0     H21709   3.764   5.831  10.569  0.5159  0.9938 -0.2764
  902MOL0     H21710   3.741   5.865  10.742 -0.8642 -2.6435 -0.9847
  902MOL0     H21711   3.839   6.078  10.546  1.0559 -0.2404  0.0611
  902MOL0     H21712   3.821   6.104  10.718  1.8550  1.4858 -0.6715
  902MOL0     H21713   3.989   5.947  10.780 -0.4278 -1.3072 -0.4629
  902MOL0     H21714   3.987   5.872  10.615 -2.8003 -1.4443  0.6210
  902MOL0     H21715   4.082   6.102  10.543 -2.0171 -0.0622 -0.1999
  902MOL0     H21716   4.075   6.157  10.716 -2.1828 -1.3789  1.4264
  902MOL0     H21717   4.299   6.069  10.596 -1.8010  3.4778  0.1242
  902MOL0     H21718   4.234   5.911  10.628  0.3863 -0.0579 -1.8958
  902MOL0     H21719   4.193   6.079  10.868 -0.9618 -0.3234  0.3058
  902MOL0     H21720   4.239   5.914  10.858 -0.5230  1.1900  1.6452
  902MOL0     H21721   4.526   5.895  10.863  1.3829 -1.0744  2.5778
  902MOL0     H21722   4.817   6.154  10.949  0.3901  0.9792 -2.5627
  902MOL0     H21723   4.776   5.990  10.991  0.7702  0.4335  0.5650
  902MOL0     H21724   4.794   5.911  10.777 -0.3730  0.3320  1.1519
  902MOL0     H21725   4.808   6.079  10.706 -0.5720  1.1927  0.1623
  902MOL0     H21726   5.032   5.940  10.863  2.3858 -2.1155 -3.4325
  902MOL0     H21727   5.016   6.111  10.822 -1.9330  0.0730  2.7212
  902MOL0     H21728   5.025   6.045  10.586  0.6734 -0.5019  0.9560
  902MOL0     H21729   4.973   5.886  10.616  0.4778 -1.8752  2.5920
  902MOL0     H21730   5.215   6.192  10.727  2.7705  1.7478  1.2088
  902MOL0     H21731   5.420   6.300  10.707 -1.1882 -0.2704  0.2830
  902MOL0     H21732   5.850   6.335  10.871  4.3458  1.6517  2.1450
  902MOL0     H21733   6.077   6.463  10.842  0.6284  0.3021 -0.0054
  902MOL0     H21734   6.213   6.495  10.473 -0.4236 -0.5777 -0.4563
  902MOL0     H21735   6.188   6.671  10.457 -3.7688 -0.5852  2.0415
  902MOL0     H21736   6.413   6.547  10.622 -1.2373 -1.4197  0.4292
  902MOL0     H21737   6.421   6.613  10.450 -0.9769  0.9166 -0.5829
  902MOL0     H21738   6.356   6.831  10.522  0.1617  0.4635  1.3164
  902MOL0     H21739   6.333   6.788  10.684  0.9939  0.4629  0.2490
  902MOL0     H21740   6.609   6.738  10.568 -0.7487  0.2121 -0.7715
  902MOL0     H21741   6.570   6.760  10.733  1.0573  1.0579 -0.0176
  902MOL0     H21742   6.488   6.984  10.695  1.4200  1.5775  0.0766
  902MOL0     H21743   6.513   6.976  10.525  0.0164  0.1949 -0.3167
  902MOL0     H21744   6.758   6.940  10.709  1.4451  0.3052 -0.6075
  902MOL0     H21745   6.759   6.927  10.539  0.4493 -1.0607  1.1681
  902MOL0     H21746   6.843   7.131  10.635 -0.0769 -1.1614  1.0229
  902MOL0     H21747   6.671   7.178  10.658  1.0245 -0.4309  2.3031
  902MOL0     H21748   6.633   7.196  10.431 -1.2877 -2.4667  2.9365
  902MOL0     H21749   6.782   7.289  10.462  0.9548 -0.1745  0.3217
  902MOL0     H21750   5.952   6.593  10.463  2.8269  1.1505  1.0430
  902MOL0     H21751   5.740   6.460  10.468  1.0285  0.5973 -1.4416
  902MOL0     H21752   5.602   5.917  10.607 -1.6818 -1.1441 -2.2565
  902MOL0     H21753   5.384   5.815  10.627  2.6168 -0.7394  1.5992
  902MOL0     H21754   3.126   6.007  10.466 -2.2920 -1.0490 -1.9211
  902MOL0     H21755   2.916   5.874  10.488 -1.7080  2.1041  3.6182
  902MOL0     H21756   2.658   5.665  10.727  0.2024  0.8430 -1.1561
  902MOL0     H21757   2.449   5.605  10.771 -1.9903 -0.1702 -2.0129
  902MOL0     H21758   2.274   5.480  10.872 -3.1667  3.3467 -0.6904
  902MOL0     H21759   2.176   5.339  10.839  0.8328 -1.7612 -1.4955
  902MOL0     H21760   2.130   5.439  10.618 -2.8691  1.4896  0.4287
  902MOL0     H21761   2.248   5.566  10.651  0.4450 -0.7833  0.7166
  902MOL0     H21762   2.095   5.636  10.862  2.4072 -0.5797 -0.6628
  902MOL0     H21763   1.986   5.508  10.802 -0.3522  0.0493 -1.4547
  902MOL0     H21764   2.066   5.756  10.663  0.5516 -0.5341 -1.5829
  902MOL0     H21765   1.998   5.617  10.577 -4.8020  0.7224 -0.0701
  902MOL0     H21766   1.665   5.787  10.764 -1.6172 -2.2444  0.3630
  902MOL0     H21767   2.526   5.197  10.651 -0.7475  0.0325  0.9934
  902MOL0     H21768   2.782   5.231  10.468 -1.4245  1.1410  0.3686
  902MOL0     H21769   2.866   5.215  10.631 -0.3552  0.2742  1.2841
  902MOL0     H21770   2.719   5.119  10.587 -1.6771  1.2009  1.2920
  903MOL0     O21771   6.671  10.691   7.360 -0.8868  0.5745 -0.6572
  903MOL0     C21772   6.635  10.803   7.317  0.4381  0.2361 -0.5473
  903MOL0     O21773   6.703  10.883   7.236 -0.5542  0.1755 -0.0867
  903MOL0     C21774   6.789  10.828   7.143  0.0227 -0.0497 -1.1657
  903MOL0     C21775   6.874  10.915   7.081 -0.2249  0.3636  0.1609
  903MOL0     C21776   6.972  10.881   6.987  0.3648 -0.0358 -0.8452
  903MOL0     C21777   6.999  10.745   6.971  0.1335 -0.7731 -0.0157
  903MOL0     O21778   7.106  10.712   6.888 -0.0122 -0.5769 -0.2077
  903MOL0     C21779   7.124  10.575   6.854 -0.3658 -0.2910  0.1711
  903MOL0     C21780   7.251  10.563   6.766  1.0185 -1.3025 -0.2316
  903MOL0     C21781   7.382  10.591   6.843 -0.7800 -0.0078 -0.1415
  903MOL0     C21782   7.498  10.587   6.746 -0.0125 -1.4290  0.0678
  903MOL0     C21783   7.634  10.603   6.823  0.5212  0.4210  0.3019
  903MOL0     C21784   7.758  10.573   6.739 -0.1805 -0.8471 -0.4456
  903MOL0     C21785   7.881  10.576   6.831  0.1550 -0.0675 -0.2550
  903MOL0     C21786   8.000  10.509   6.771  0.1664  0.4247 -0.4903
  903MOL0     N21787   8.123  10.539   6.838  0.7816 -0.7421 -0.2224
  903MOL0     C21788   8.205  10.469   6.921  0.7114 -0.5770 -0.1620
  903MOL0     C21789   8.308  10.549   6.953  0.1234 -0.3540  0.0882
  903MOL0     C21790   8.420  10.498   7.040 -0.4530 -0.4176  0.1406
  903MOL0     C21791   8.505  10.622   7.091 -0.5700  0.1394  0.5016
  903MOL0     C21792   8.636  10.579   7.161  0.0333  0.3739 -0.5520
  903MOL0     C21793   8.746  10.584   7.056 -0.0683 -0.5632 -0.0662
  903MOL0     O21794   8.868  10.556   7.121  0.3128  0.5735 -0.2311
  903MOL0     C21795   8.994  10.607   7.094 -0.5760 -1.1116 -0.3414
  903MOL0     C21796   9.094  10.598   7.191  0.0652 -0.4883  0.1458
  903MOL0     C21797   9.231  10.644   7.167  0.2599  0.5591 -0.3380
  903MOL0     C21798   9.263  10.704   7.044  0.0898 -0.3659  0.3778
  903MOL0     C21799   9.396  10.759   7.004  0.3030 -0.3783  0.9339
  903MOL0     O21800   9.495  10.715   7.086  0.2879  0.2173  0.5723
  903MOL0     C21801   9.627  10.766   7.075  0.6182  0.3307  0.6684
  903MOL0     C21802   9.670  10.893   7.086 -0.0877  0.2343  0.2447
  903MOL0     C21803   9.806  10.926   7.081  0.5783  0.4591  0.1383
  903MOL0     C21804   9.904  10.836   7.064 -0.8851  0.5448  0.2330
  903MOL0     O21805  10.029  10.885   7.046  0.1850  0.3730 -0.3421
  903MOL0     C21806  10.124  10.779   7.029 -0.3343 -0.2260  0.4011
  903MOL0     C21807  10.257  10.849   7.000 -0.5899 -0.2099 -0.4689
  903MOL0     C21808  10.388  10.775   7.041 -0.0606 -0.3011  0.2923
  903MOL0     C21809  10.412  10.783   7.194  0.5192 -0.3807  0.3141
  903MOL0     C21810  10.531  10.700   7.236 -0.7700  0.3707  0.1880
  903MOL0     C21811  10.655  10.683   7.146  0.3472 -0.8939 -0.1877
  903MOL0     C21812  10.780  10.640   7.220  0.2131  0.2301  0.2897
  903MOL0     C21813  10.904  10.645   7.134  0.8173 -0.7551  0.1225
  903MOL0    Cl21814  10.886  10.537   6.993 -0.5747 -0.1995  0.1104
  903MOL0     C21815   9.861  10.699   7.071  0.5999 -0.2742  0.2759
  903MOL0     C21816   9.726  10.670   7.065 -0.0096  0.0831  0.7868
  903MOL0     O21817   9.404  10.858   6.924 -0.1571  0.6193  0.0925
  903MOL0     C21818   9.158  10.720   6.953  0.4366 -0.3755 -0.0687
  903MOL0     C21819   9.030  10.671   6.973 -0.2058  0.2543  0.3413
  903MOL0     N21820   8.284  10.673   6.887 -0.3260  0.1486 -0.2736
  903MOL0     N21821   8.184  10.666   6.823  0.3670 -0.1881  0.2070
  903MOL0     C21822   6.911  10.651   7.029 -0.1732 -0.3505 -0.2188
  903MOL0     C21823   6.810  10.691   7.112 -0.2695  0.5664  0.5422
  903MOL0     C21824   6.511  10.847   7.372  0.3806 -0.7393  0.6912
  903MOL0     C21825   6.413  10.755   7.399  0.5858 -0.0676  0.6278
  903MOL0     C21826   6.305  10.786   7.481 -0.4660  0.8682  0.9378
  903MOL0     C21827   6.276  10.919   7.514  0.3507  0.1257  0.3210
  903MOL0     O21828   6.162  10.935   7.589  0.4839  0.1511 -0.0077
  903MOL0     C21829   6.113  11.066   7.607 -0.4773  0.5548  0.5236
  903MOL0     C21830   5.966  11.059   7.647 -0.5301  0.0438  0.4191
  903MOL0     C21831   5.885  10.985   7.539  0.2654  0.5094  0.3185
  903MOL0     C21832   5.748  11.052   7.523 -0.4781 -0.1744  0.8831
  903MOL0     C21833   5.672  10.963   7.434  0.5034 -0.5246  0.1514
  903MOL0     C21834   5.608  10.913   7.341 -0.3582  0.4915  0.1394
  903MOL0     C21835   6.372  11.015   7.486 -0.0742  0.1110  0.0054
  903MOL0     C21836   6.487  10.986   7.413  0.0436  0.1513 -0.3476
  903MOL0     C21837   6.589  11.099   7.389  0.3623  0.2190  0.6770
  903MOL0     H21838   6.859  11.019   7.110  1.7129  0.8576 -0.4494
  903MOL0     H21839   7.029  10.955   6.932 -0.4424  0.1270 -1.4910
  903MOL0     H21840   7.144  10.518   6.946  0.8591 -1.6273 -0.8736
  903MOL0     H21841   7.035  10.545   6.799 -0.4659  0.6514 -0.2019
  903MOL0     H21842   7.240  10.620   6.673  1.0928 -1.7678 -0.5294
  903MOL0     H21843   7.249  10.461   6.727 -0.7872 -1.3935  0.0080
  903MOL0     H21844   7.410  10.530   6.929 -1.3524  1.3499  1.0403
  903MOL0     H21845   7.375  10.692   6.883 -3.5265 -0.0781 -0.2667
  903MOL0     H21846   7.500  10.491   6.693 -0.9376 -0.6315 -1.4733
  903MOL0     H21847   7.487  10.676   6.683  1.4621 -1.1231  0.2045
  903MOL0     H21848   7.645  10.701   6.868 -0.4957 -0.5034  2.7353
  903MOL0     H21849   7.641  10.529   6.904 -1.2586  0.9049  0.9522
  903MOL0     H21850   7.733  10.481   6.685 -2.3514 -0.6230  0.0843
  903MOL0     H21851   7.770  10.657   6.670 -2.2461  0.7010  0.9487
  903MOL0     H21852   7.863  10.537   6.932  0.0671 -2.3577 -1.1016
  903MOL0     H21853   7.918  10.679   6.840  2.6466 -0.8040 -1.1266
  903MOL0     H21854   7.990  10.401   6.762 -0.9276  0.5777 -1.3832
  903MOL0     H21855   8.014  10.551   6.671  2.0035  0.9456 -0.0452
  903MOL0     H21856   8.183  10.366   6.948 -3.0130  0.4747  1.4502
  903MOL0     H21857   8.381  10.439   7.123 -0.1013  0.2089  0.7660
  903MOL0     H21858   8.485  10.448   6.967 -1.0577  0.4626 -1.0376
  903MOL0     H21859   8.532  10.684   7.005  0.6751 -0.5509  0.3630
  903MOL0     H21860   8.448  10.688   7.157  0.5881  1.0085  0.6718
  903MOL0     H21861   8.626  10.479   7.205  0.6362  1.4244  2.1479
  903MOL0     H21862   8.667  10.648   7.239  2.3844 -1.9104  0.6972
  903MOL0     H21863   8.751  10.685   7.015  3.1260 -0.1225  1.1733
  903MOL0     H21864   8.724  10.508   6.980 -1.9238  0.4858 -0.6480
  903MOL0     H21865   9.072  10.550   7.286  0.0535 -0.5799  0.0974
  903MOL0     H21866   9.311  10.629   7.239 -0.0884  0.1397 -0.0345
  903MOL0     H21867   9.586  10.961   7.093  0.3036  0.7483  0.0174
  903MOL0     H21868   9.825  11.033   7.090 -0.9397  0.8509 -0.7971
  903MOL0     H21869  10.131  10.720   7.121  0.9392 -0.5278  0.1226
  903MOL0     H21870  10.091  10.713   6.947  2.9655  0.2987 -1.5435
  903MOL0     H21871  10.260  10.885   6.896 -0.8351  1.4316  0.0652
  903MOL0     H21872  10.259  10.935   7.068  0.9377  0.1639 -0.9347
  903MOL0     H21873  10.396  10.674   7.001 -0.2912 -1.2878  2.5848
  903MOL0     H21874  10.457  10.849   6.999 -1.8946  1.2744 -0.0527
  903MOL0     H21875  10.324  10.744   7.245 -0.6872 -0.0869 -1.4572
  903MOL0     H21876  10.411  10.887   7.230 -2.3704 -0.0456 -0.4939
  903MOL0     H21877  10.492  10.599   7.251  3.0718 -1.1777  1.0437
  903MOL0     H21878  10.565  10.751   7.326  4.1187 -1.5822 -0.2287
  903MOL0     H21879  10.621  10.613   7.070 -0.4585 -1.4575  0.6650
  903MOL0     H21880  10.670  10.779   7.096 -4.1624  0.7197  1.0525
  903MOL0     H21881  10.767  10.536   7.249  0.8833 -0.8622 -2.9281
  903MOL0     H21882  10.788  10.700   7.311 -2.0624 -0.7044  1.1880
  903MOL0     H21883  10.924  10.749   7.106  0.7600 -0.8466 -0.2756
  903MOL0     H21884  10.991  10.618   7.193  2.8264  2.9086 -0.8531
  903MOL0     H21885   9.929  10.615   7.078  0.4285 -0.3375  1.5003
  903MOL0     H21886   9.691  10.567   7.061  0.6996 -0.1372  0.1313
  903MOL0     H21887   9.175  10.756   6.852 -1.8275 -0.1915 -0.4471
  903MOL0     H21888   8.956  10.671   6.894 -0.7721  2.1906  0.8296
  903MOL0     H21889   6.918  10.546   7.002 -2.0921  0.2785 -3.6684
  903MOL0     H21890   6.742  10.616   7.152  0.9910  0.0567  1.7909
  903MOL0     H21891   6.415  10.654   7.361  2.0154 -0.2015  1.0251
  903MOL0     H21892   6.226  10.716   7.506  0.7949 -1.1847 -0.5777
  903MOL0     H21893   6.121  11.117   7.510 -0.1066 -3.7034 -1.9191
  903MOL0     H21894   6.175  11.119   7.680 -0.1268  2.2393 -0.9292
  903MOL0     H21895   5.915  11.151   7.676 -3.4551 -0.3155 -2.8718
  903MOL0     H21896   5.972  11.000   7.739  1.2787  2.5296  2.0205
  903MOL0     H21897   5.883  10.880   7.570  0.7705 -0.9831 -4.0506
  903MOL0     H21898   5.927  10.993   7.438 -3.5230  1.5407 -1.3291
  903MOL0     H21899   5.696  11.078   7.616 -1.0753 -0.4488  0.6292
  903MOL0     H21900   5.749  11.145   7.466 -2.8063 -1.7806 -2.0217
  903MOL0     H21901   5.536  10.876   7.271 -0.9068  0.5709  0.6605
  903MOL0     H21902   6.367  11.117   7.522 -1.1550 -0.2119  0.8254
  903MOL0     H21903   6.603  11.112   7.281  0.5838 -0.1795  0.6564
  903MOL0     H21904   6.553  11.188   7.442  0.8128 -0.3231  1.9487
  903MOL0     H21905   6.682  11.074   7.440  1.7483 -0.2728 -1.9251
  904MOL0     O21906   0.180   8.828  11.011 -0.4098 -0.3483 -0.7599
  904MOL0     C21907   0.090   8.764  11.058 -0.4093 -0.9301 -0.7226
  904MOL0     O21908   0.014   8.807  11.159  0.5888 -0.1751 -0.0945
  904MOL0     C21909   0.032   8.926  11.219  0.0242 -0.0004  0.4380
  904MOL0     C21910   0.151   8.995  11.243 -0.0425 -0.9615 -0.9688
  904MOL0     C21911   0.155   9.126  11.292 -1.0055 -0.2155 -0.2893
  904MOL0     C21912   0.043   9.188  11.334  0.4969 -0.0313  0.1928
  904MOL0     O21913   0.036   9.316  11.390  0.5531  0.4652  0.2724
  904MOL0     C21914   0.162   9.381  11.409  0.2657  0.4415  0.4828
  904MOL0     C21915   0.133   9.500  11.504  0.2250  0.0789  0.1843
  904MOL0     C21916   0.255   9.597  11.528 -0.9658  0.4527  0.5805
  904MOL0     C21917   0.196   9.741  11.560  0.8801 -0.2942 -0.4641
  904MOL0     C21918   0.304   9.840  11.608 -0.1862  0.6049  0.3672
  904MOL0     C21919   0.238   9.978  11.638 -0.8924 -0.2596  0.4132
  904MOL0     C21920   0.349  10.080  11.680 -0.8889 -0.1062  0.2054
  904MOL0     C21921   0.296  10.225  11.681 -0.4822  0.0079  0.3052
  904MOL0     N21922   0.412  10.302  11.729 -0.6034  0.0291  0.2781
  904MOL0     C21923   0.451  10.303  11.863  0.8635 -0.7820 -0.1271
  904MOL0     C21924   0.559  10.391  11.860 -0.8556  0.7110  0.6838
  904MOL0     C21925   0.647  10.446  11.970  0.2625  0.7140 -0.9513
  904MOL0     C21926   0.592  10.579  12.033 -0.7225  0.1249 -0.8331
  904MOL0     C21927   0.637  10.702  11.955 -0.2738 -0.4114 -0.4433
  904MOL0     C21928   0.647  10.836  12.051 -0.1793  0.0167 -0.2564
  904MOL0     O21929   0.720  10.824  12.177 -0.2839 -0.4996  0.6546
  904MOL0     C21930   0.854  10.794  12.180 -0.1188  1.0831 -1.4600
  904MOL0     C21931   0.935  10.785  12.061  0.0980 -0.6206 -0.2395
  904MOL0     C21932   1.074  10.778  12.058  0.2795 -0.0168 -0.6206
  904MOL0     C21933   1.142  10.772  12.180  0.1372 -0.6895 -0.1235
  904MOL0     C21934   1.288  10.777  12.189  0.1939  0.7378  1.0741
  904MOL0     O21935   1.342  10.722  12.296 -0.3760  0.4933  0.1741
  904MOL0     C21936   1.477  10.734  12.324  1.0190 -0.3570 -0.5448
  904MOL0     C21937   1.584  10.733  12.225 -0.3186 -0.4856 -0.3576
  904MOL0     C21938   1.715  10.769  12.261 -0.3643 -0.1254  0.1684
  904MOL0     C21939   1.745  10.815  12.385  0.6693 -0.7917  1.1197
  904MOL0     O21940   1.868  10.843  12.425  0.6622 -0.2048 -0.3107
  904MOL0     C21941   1.963  10.744  12.394 -0.0375  0.4440 -0.1780
  904MOL0     C21942   2.074  10.752  12.489  0.4933 -0.0999 -0.9178
  904MOL0     C21943   2.131  10.893  12.506 -0.1981 -0.1898 -0.5033
  904MOL0     C21944   2.240  10.895  12.619 -0.4820 -0.4965  0.7910
  904MOL0     C21945   2.344  11.001  12.593  0.3819  0.1622 -0.3187
  904MOL0     C21946   2.448  10.992  12.705  0.1011 -0.8657 -0.3661
  904MOL0     C21947   2.544  11.118  12.701  0.0711 -0.4450  0.2934
  904MOL0     C21948   2.545  11.177  12.840  0.4412 -0.7220  0.7127
  904MOL0    Cl21949   2.648  11.311  12.852 -0.1005  0.1661 -0.5577
  904MOL0     C21950   1.641  10.813  12.483 -0.1978  1.6174  0.0991
  904MOL0     C21951   1.513  10.770  12.451  0.4557 -0.4491  0.3585
  904MOL0     O21952   1.350  10.820  12.093 -0.5644 -0.3056 -0.3941
  904MOL0     C21953   1.069  10.770  12.307 -0.2951 -0.3261  0.0039
  904MOL0     C21954   0.928  10.780  12.297  1.1066  0.4151 -0.1121
  904MOL0     N21955   0.580  10.427  11.733 -0.2916 -0.2661  0.6379
  904MOL0     N21956   0.499  10.376  11.650 -0.2109  0.7890 -0.0843
  904MOL0     C21957  -0.081   9.123  11.321  0.0729 -0.9839  0.0470
  904MOL0     C21958  -0.085   9.001  11.259  0.0204  0.5849 -0.6479
  904MOL0     C21959   0.036   8.648  10.985  0.1632  0.1565 -0.2222
  904MOL0     C21960  -0.091   8.598  11.024 -0.5581  0.1403  0.4930
  904MOL0     C21961  -0.142   8.484  10.968  0.0399  0.0416  0.4330
  904MOL0     C21962  -0.059   8.411  10.873  0.0384  0.5389  1.1728
  904MOL0     O21963  -0.119   8.293  10.835  0.5292  0.4831  0.3713
  904MOL0     C21964  -0.072   8.209  10.734  0.5894 -0.2841 -0.3397
  904MOL0     C21965  -0.101   8.064  10.761  0.3379 -0.3467 -0.5293
  904MOL0     C21966  -0.012   7.969  10.670  0.1360 -0.3373 -0.2672
  904MOL0     C21967   0.122   7.954  10.744 -0.5492 -0.3062 -0.4594
  904MOL0     C21968   0.209   7.891  10.648  0.5174 -0.3497  0.2846
  904MOL0     C21969   0.276   7.846  10.564  0.4159 -0.0200 -0.6798
  904MOL0     C21970   0.059   8.466  10.824 -0.8772  0.9252  0.2528
  904MOL0     C21971   0.113   8.584  10.875  0.7536  0.0988 -0.1750
  904MOL0     C21972   0.250   8.626  10.828 -0.0102 -0.2576  0.5482
  904MOL0     H21973   0.241   8.945  11.209  1.6138  2.3495 -1.8136
  904MOL0     H21974   0.250   9.178  11.296  0.1571 -2.2411 -0.3258
  904MOL0     H21975   0.232   9.312  11.457  0.5530  0.2437 -0.1994
  904MOL0     H21976   0.210   9.413  11.316  0.9863  1.7024  1.2576
  904MOL0     H21977   0.097   9.459  11.599 -3.3103  0.5988 -0.7874
  904MOL0     H21978   0.048   9.561  11.475 -0.7238 -1.1609  0.2765
  904MOL0     H21979   0.319   9.603  11.440  1.1227  0.6618  2.0394
  904MOL0     H21980   0.313   9.548  11.607  1.3198 -3.1279 -2.9792
  904MOL0     H21981   0.145   9.772  11.468  1.2662 -0.5056 -0.7576
  904MOL0     H21982   0.122   9.734  11.640 -0.1076  0.0788 -1.3215
  904MOL0     H21983   0.364   9.784  11.681  0.2569 -1.2497 -1.3133
  904MOL0     H21984   0.362   9.852  11.516 -0.4770 -0.4232  0.0347
  904MOL0     H21985   0.172  10.019  11.561 -2.0104 -0.9316  0.9770
  904MOL0     H21986   0.181   9.959  11.730 -1.1697 -2.7595 -0.2061
  904MOL0     H21987   0.425  10.080  11.601 -0.1990 -0.6257  0.8476
  904MOL0     H21988   0.402  10.050  11.771  1.4092 -1.7479 -1.5249
  904MOL0     H21989   0.279  10.242  11.574  2.0534  0.7999 -0.0249
  904MOL0     H21990   0.207  10.250  11.739  0.6522 -0.4771  2.3437
  904MOL0     H21991   0.409  10.259  11.953 -2.2561  0.5323 -0.8231
  904MOL0     H21992   0.640  10.370  12.049  4.1477  0.6605 -0.4850
  904MOL0     H21993   0.751  10.453  11.939  0.0108  0.4565 -1.8788
  904MOL0     H21994   0.484  10.586  12.047 -0.5326  1.7536  0.0781
  904MOL0     H21995   0.634  10.584  12.134 -0.9735  1.2283 -0.7673
  904MOL0     H21996   0.563  10.714  11.876  0.4188 -1.5334 -1.2895
  904MOL0     H21997   0.731  10.691  11.900 -0.4438 -2.5077 -0.3779
  904MOL0     H21998   0.545  10.873  12.062 -0.5528 -0.3790 -2.0515
  904MOL0     H21999   0.694  10.914  11.990 -0.2765  0.4458  0.2125
  904MOL0     H22000   0.886  10.796  11.964 -2.9615  3.9138  1.4991
  904MOL0     H22001   1.118  10.783  11.959 -2.7877  1.9221 -2.0218
  904MOL0     H22002   1.563  10.730  12.118 -1.4111  1.4401 -0.2503
  904MOL0     H22003   1.782  10.792  12.179  0.0631  0.2234  0.6035
  904MOL0     H22004   1.920  10.645  12.409 -4.1049  2.0687  0.2371
  904MOL0     H22005   1.998  10.752  12.291 -0.7590 -2.1832 -0.6861
  904MOL0     H22006   2.037  10.722  12.588  2.9829  0.9878  0.4367
  904MOL0     H22007   2.153  10.679  12.469  2.6696  1.5258  1.1998
  904MOL0     H22008   2.193  10.914  12.417  3.5096  0.3237  1.9615
  904MOL0     H22009   2.049  10.960  12.533 -1.6137 -2.1914  0.4187
  904MOL0     H22010   2.293  10.800  12.610  0.2934 -0.2827  2.6385
  904MOL0     H22011   2.200  10.900  12.721  1.0525 -3.2182  1.6195
  904MOL0     H22012   2.293  11.098  12.588  0.9949  0.5492  0.8143
  904MOL0     H22013   2.386  10.976  12.495 -1.2901 -0.5280 -0.8932
  904MOL0     H22014   2.393  10.974  12.798  1.3500 -0.5576  0.4525
  904MOL0     H22015   2.507  10.900  12.702  0.7562 -0.4284 -1.2223
  904MOL0     H22016   2.503  11.185  12.626  0.5859  0.6144  0.9416
  904MOL0     H22017   2.644  11.084  12.674  0.4052 -1.5141  2.6009
  904MOL0     H22018   2.444  11.205  12.872  1.4972  1.8416  2.1010
  904MOL0     H22019   2.591  11.108  12.911  0.9445  0.5212  1.6281
  904MOL0     H22020   1.657  10.846  12.585 -2.3160 -1.2934  1.5449
  904MOL0     H22021   1.445  10.776  12.535  1.3378  1.1933  1.0041
  904MOL0     H22022   1.116  10.763  12.404 -1.8611 -1.2266  0.7341
  904MOL0     H22023   0.881  10.777  12.395  0.9275 -1.4782 -0.2122
  904MOL0     H22024  -0.166   9.184  11.348  0.4136  0.3600 -1.7556
  904MOL0     H22025  -0.182   8.954  11.246  0.8061 -1.9035  1.3647
  904MOL0     H22026  -0.147   8.649  11.102 -0.1945  2.7868 -0.8695
  904MOL0     H22027  -0.242   8.449  10.989  0.0747 -1.3545 -1.5277
  904MOL0     H22028   0.033   8.227  10.709  0.0073  2.0214 -1.3419
  904MOL0     H22029  -0.129   8.221  10.642  0.7710 -1.0458 -0.5587
  904MOL0     H22030  -0.204   8.034  10.738 -0.2004 -2.0070  3.2390
  904MOL0     H22031  -0.081   8.042  10.866  2.1666  1.7103 -0.3881
  904MOL0     H22032  -0.011   8.004  10.567  0.4226  1.7759  0.3989
  904MOL0     H22033  -0.067   7.876  10.656 -1.9301  0.8656 -0.4837
  904MOL0     H22034   0.163   8.053  10.768 -1.9776 -0.0391  1.1707
  904MOL0     H22035   0.121   7.907  10.843 -2.0036  0.4118 -0.0992
  904MOL0     H22036   0.332   7.800  10.485 -1.0088 -1.3213 -0.9690
  904MOL0     H22037   0.116   8.405  10.755  0.4574  0.2100  1.9084
  904MOL0     H22038   0.327   8.633  10.904  0.0376  1.6508  0.3607
  904MOL0     H22039   0.281   8.556  10.750  0.5269  1.8565 -1.2210
  904MOL0     H22040   0.249   8.727  10.786  3.9402 -1.1204 -2.2836
  905MOL0     O22041   4.902  11.282   6.221 -0.2165 -0.0927  0.4291
  905MOL0     C22042   4.850  11.360   6.136  0.0394 -0.4566 -0.7116
  905MOL0     O22043   4.901  11.483   6.111 -0.1634 -0.4189  0.3784
  905MOL0     C22044   5.029  11.518   6.160 -0.6726 -0.9520 -0.1122
  905MOL0     C22045   5.109  11.583   6.069 -0.9670  0.4423 -0.1909
  905MOL0     C22046   5.232  11.620   6.119  0.0432  0.0712 -0.7809
  905MOL0     C22047   5.278  11.599   6.252  0.4064  0.3869 -0.3683
  905MOL0     O22048   5.395  11.650   6.305 -0.2080 -0.2105  0.6209
  905MOL0     C22049   5.511  11.608   6.221 -0.5044 -0.2330 -0.0983
  905MOL0     C22050   5.632  11.609   6.316 -0.1115  0.7405  0.8022
  905MOL0     C22051   5.762  11.683   6.269  0.1475  0.5654  0.4049
  905MOL0     C22052   5.878  11.634   6.356 -0.0758  0.0508 -0.2107
  905MOL0     C22053   6.004  11.716   6.333 -0.1749  0.7372  0.0509
  905MOL0     C22054   6.106  11.684   6.439 -0.3867 -0.0188 -0.2609
  905MOL0     C22055   6.249  11.729   6.424 -1.2878 -1.2705  0.2253
  905MOL0     C22056   6.311  11.655   6.305 -0.4041 -0.4914 -0.0748
  905MOL0     N22057   6.448  11.656   6.303 -0.2151 -0.6894 -0.4310
  905MOL0     C22058   6.528  11.764   6.287 -0.1633 -0.9122  0.2162
  905MOL0     C22059   6.637  11.729   6.244 -0.4138  0.1242 -0.0837
  905MOL0     C22060   6.735  11.833   6.199 -0.2484 -0.3556 -0.0990
  905MOL0     C22061   6.837  11.837   6.310  0.8827  0.3039  1.2176
  905MOL0     C22062   6.946  11.954   6.297 -0.4001 -0.3375 -0.1423
  905MOL0     C22063   7.043  11.943   6.418 -0.3012  1.1698 -0.1929
  905MOL0     O22064   7.139  11.837   6.410  0.1380  0.1357  0.3872
  905MOL0     C22065   7.246  11.848   6.327 -0.8666  0.3987  0.1525
  905MOL0     C22066   7.260  11.774   6.208  0.3748  0.0575 -0.4472
  905MOL0     C22067   7.382  11.768   6.135 -0.1289  0.1923  0.4073
  905MOL0     C22068   7.495  11.842   6.184 -0.5508 -0.1517 -0.6078
  905MOL0     C22069   7.622  11.861   6.104 -0.8248 -0.3500  0.4088
  905MOL0     O22070   7.650  11.762   6.019 -0.3957  0.1919 -0.0543
  905MOL0     C22071   7.760  11.754   5.932 -0.3847  0.1948  0.0665
  905MOL0     C22072   7.897  11.786   5.967 -0.3662  0.9131  0.7265
  905MOL0     C22073   7.998  11.777   5.863  0.0510 -0.1522  0.2987
  905MOL0     C22074   7.964  11.734   5.735  0.5147 -0.2068  0.7325
  905MOL0     O22075   8.058  11.717   5.631 -0.1302  0.4615 -0.3635
  905MOL0     C22076   8.126  11.844   5.595  0.6960  0.2051  0.1962
  905MOL0     C22077   8.263  11.798   5.540 -0.3565 -0.0608 -0.4987
  905MOL0     C22078   8.257  11.717   5.409 -0.4167  0.3072 -1.0123
  905MOL0     C22079   8.388  11.704   5.344 -0.9621 -0.8311  0.0021
  905MOL0     C22080   8.387  11.592   5.246 -0.0227  0.3664 -0.3341
  905MOL0     C22081   8.520  11.580   5.181  0.1702  0.0704 -0.0579
  905MOL0     C22082   8.534  11.429   5.147  0.0541  0.0109 -0.2763
  905MOL0     C22083   8.578  11.344   5.270 -0.5197 -0.6368  0.3179
  905MOL0    Cl22084   8.724  11.250   5.244 -0.2575  0.0270 -0.1563
  905MOL0     C22085   7.832  11.705   5.700 -0.3433 -0.0958 -0.2439
  905MOL0     C22086   7.732  11.718   5.796 -0.0345  0.5066 -0.0740
  905MOL0     O22087   7.695  11.953   6.122 -0.0758 -0.2687 -1.2171
  905MOL0     C22088   7.485  11.905   6.310  0.7084 -0.3827  0.3753
  905MOL0     C22089   7.363  11.913   6.371 -0.0477  1.0255  0.0445
  905MOL0     N22090   6.647  11.590   6.236  1.0391 -0.2330 -0.6236
  905MOL0     N22091   6.529  11.550   6.270 -0.0495 -0.3525 -0.4707
  905MOL0     C22092   5.185  11.542   6.336  0.0794  0.5278 -0.4282
  905MOL0     C22093   5.057  11.510   6.296 -0.3619  1.0527 -0.2680
  905MOL0     C22094   4.736  11.309   6.056 -0.0278 -1.0647 -0.0698
  905MOL0     C22095   4.716  11.374   5.930 -0.0443 -0.3046 -0.2097
  905MOL0     C22096   4.607  11.324   5.848 -1.0015 -0.3001  0.0764
  905MOL0     C22097   4.509  11.232   5.892 -0.2142  0.0621 -0.9737
  905MOL0     O22098   4.403  11.187   5.824 -0.3025  0.3468 -0.8791
  905MOL0     C22099   4.375  11.237   5.703  0.0099  0.2518  0.1173
  905MOL0     C22100   4.223  11.216   5.664  0.7391  0.6607 -0.2962
  905MOL0     C22101   4.191  11.067   5.642 -0.3756 -0.1489  1.1722
  905MOL0     C22102   4.046  11.048   5.594 -0.1643  0.4330 -0.0948
  905MOL0     C22103   4.022  10.903   5.584  0.4712 -1.4046  0.0207
  905MOL0     C22104   3.992  10.785   5.571 -0.0485 -0.6804  0.6301
  905MOL0     C22105   4.533  11.173   6.018  0.4545 -0.0969  0.0434
  905MOL0     C22106   4.645  11.201   6.095 -0.7677 -0.0566 -0.0566
  905MOL0     C22107   4.661  11.118   6.217 -0.6803 -0.3342  0.3595
  905MOL0     H22108   5.067  11.611   5.973  1.2978 -0.5524 -1.5716
  905MOL0     H22109   5.281  11.687   6.049 -0.5389  2.1988  0.7298
  905MOL0     H22110   5.503  11.514   6.166  1.8420  0.1106 -1.1736
  905MOL0     H22111   5.528  11.692   6.153 -1.8393  0.5607  0.5096
  905MOL0     H22112   5.660  11.503   6.326 -0.3940  0.7043  1.2179
  905MOL0     H22113   5.589  11.638   6.412 -1.9994 -1.2962  0.6471
  905MOL0     H22114   5.760  11.793   6.267  2.5200  0.6396 -0.1568
  905MOL0     H22115   5.781  11.655   6.165  2.2291 -0.1199  0.9253
  905MOL0     H22116   5.851  11.632   6.462 -2.0844 -2.1975 -0.6749
  905MOL0     H22117   5.906  11.531   6.333  1.2085 -0.7147  3.9051
  905MOL0     H22118   6.033  11.705   6.228  0.8861  0.3259  0.3873
  905MOL0     H22119   5.979  11.822   6.348  1.5893  0.7404  4.5157
  905MOL0     H22120   6.072  11.705   6.541 -1.1071  3.2413 -1.0914
  905MOL0     H22121   6.109  11.574   6.435 -1.8720 -0.1297  0.8578
  905MOL0     H22122   6.304  11.703   6.515 -2.9161 -1.0843  1.2910
  905MOL0     H22123   6.244  11.838   6.412 -1.0545 -1.3601 -0.8894
  905MOL0     H22124   6.285  11.549   6.315 -0.4372 -0.3666  1.2998
  905MOL0     H22125   6.280  11.687   6.205 -1.2292 -2.4442 -0.5001
  905MOL0     H22126   6.507  11.867   6.310  2.6586 -0.4924  1.1956
  905MOL0     H22127   6.792  11.802   6.112 -1.9441 -1.8786 -0.7447
  905MOL0     H22128   6.694  11.934   6.188  1.0914  0.2271  0.0548
  905MOL0     H22129   6.781  11.848   6.403  0.8567  0.4844  1.1826
  905MOL0     H22130   6.882  11.738   6.321  0.2251  0.1574  3.0360
  905MOL0     H22131   6.898  12.052   6.302  1.6068  0.6710  0.5595
  905MOL0     H22132   7.015  11.928   6.216  0.6415 -1.9593  1.1809
  905MOL0     H22133   6.988  11.913   6.507 -0.7630  1.6886 -0.3058
  905MOL0     H22134   7.082  12.044   6.430 -1.8890  1.7806 -0.0531
  905MOL0     H22135   7.168  11.719   6.193 -1.2730  1.6123  2.9052
  905MOL0     H22136   7.383  11.718   6.039  1.2911 -2.7339  1.8019
  905MOL0     H22137   7.925  11.813   6.068 -1.2767 -0.4499  1.3698
  905MOL0     H22138   8.102  11.804   5.879 -0.5564  1.8345  1.2222
  905MOL0     H22139   8.063  11.902   5.528 -0.6796  0.4373  1.6308
  905MOL0     H22140   8.147  11.903   5.685 -0.4050 -0.5044  0.9365
  905MOL0     H22141   8.323  11.888   5.524  0.8716 -0.4780  1.4589
  905MOL0     H22142   8.321  11.743   5.614  0.1787  0.4354 -0.5474
  905MOL0     H22143   8.199  11.626   5.426  0.9603 -0.1534  1.9471
  905MOL0     H22144   8.190  11.775   5.345 -2.2028 -2.2819 -1.6163
  905MOL0     H22145   8.470  11.690   5.416  0.9700  1.7471 -1.4881
  905MOL0     H22146   8.415  11.800   5.299  2.3867 -1.9378 -0.6542
  905MOL0     H22147   8.318  11.619   5.165 -2.5983 -0.7088  1.3528
  905MOL0     H22148   8.352  11.502   5.298  0.1817  0.9622  0.8570
  905MOL0     H22149   8.519  11.639   5.089  0.1970  0.1157 -0.0293
  905MOL0     H22150   8.606  11.616   5.238  0.7156 -0.5503 -0.4688
  905MOL0     H22151   8.610  11.420   5.069  0.3283  0.2863 -0.0417
  905MOL0     H22152   8.440  11.384   5.115  0.2065 -1.5786  1.3686
  905MOL0     H22153   8.603  11.404   5.359  0.4988  2.7051 -2.0238
  905MOL0     H22154   8.486  11.291   5.299 -1.5940  0.6655 -0.5655
  905MOL0     H22155   7.814  11.678   5.596 -2.1625 -3.4454  0.8082
  905MOL0     H22156   7.628  11.723   5.766 -0.1682  1.0155  0.4575
  905MOL0     H22157   7.573  11.953   6.352 -0.1020 -0.5562  2.4196
  905MOL0     H22158   7.356  11.970   6.464 -1.0066  2.2353 -0.7409
  905MOL0     H22159   5.217  11.541   6.440 -1.0146  1.9506 -0.0354
  905MOL0     H22160   4.984  11.465   6.363 -0.2290  2.4459  0.8586
  905MOL0     H22161   4.778  11.459   5.902  0.4694 -0.3407  0.7879
  905MOL0     H22162   4.601  11.366   5.748 -0.4306  0.3824  0.3193
  905MOL0     H22163   4.447  11.198   5.631 -1.0410 -0.0630 -0.7872
  905MOL0     H22164   4.387  11.346   5.702 -0.7224  0.3493  0.9367
  905MOL0     H22165   4.198  11.277   5.577  0.4882  0.4135 -0.3973
  905MOL0     H22166   4.160  11.258   5.743  1.8045  2.4176 -0.3060
  905MOL0     H22167   4.207  11.012   5.735  4.1469  0.0152  0.7190
  905MOL0     H22168   4.270  11.033   5.573 -0.6948  2.4533 -0.6298
  905MOL0     H22169   3.978  11.090   5.668 -0.3744  0.8301 -0.5137
  905MOL0     H22170   4.029  11.087   5.494 -0.0187  2.6292  0.6862
  905MOL0     H22171   3.958  10.685   5.555  0.1186 -0.5090 -0.8881
  905MOL0     H22172   4.456  11.101   6.044  0.8721 -0.9794 -1.0707
  905MOL0     H22173   4.561  11.083   6.241 -1.0263  1.5173  1.8792
  905MOL0     H22174   4.730  11.034   6.208 -0.3607 -0.4566  3.1650
  905MOL0     H22175   4.696  11.183   6.298  0.9180  0.4870 -0.9105
  906MOL0     O22176  10.238   4.526   9.403  0.1971 -0.3210  0.0344
  906MOL0     C22177  10.187   4.583   9.504 -0.0535 -0.0661  0.0048
  906MOL0     O22178  10.253   4.647   9.606  0.1903 -0.4439  0.7431
  906MOL0     C22179  10.382   4.618   9.611 -0.6075  0.0012  0.0553
  906MOL0     C22180  10.477   4.663   9.525  0.6308 -1.4818 -0.1481
  906MOL0     C22181  10.614   4.644   9.544 -0.1717  0.1478 -0.3570
  906MOL0     C22182  10.658   4.563   9.644 -0.6155  0.4993 -0.2386
  906MOL0     O22183  10.791   4.530   9.653 -0.4148  0.3738  0.2962
  906MOL0     C22184  10.858   4.446   9.759  0.4602  0.3784 -0.3069
  906MOL0     C22185  10.985   4.392   9.691 -0.9424 -0.1274 -0.6700
  906MOL0     C22186  10.945   4.264   9.610  0.3515  0.1182 -0.1312
  906MOL0     C22187  11.074   4.184   9.584 -0.2601 -1.2238 -0.2184
  906MOL0     C22188  11.054   4.073   9.483  0.2032  0.5709 -0.0303
  906MOL0     C22189  11.169   3.970   9.473  0.7409  0.6119 -0.0624
  906MOL0     C22190  11.314   4.025   9.475  0.1779  0.0329  0.4787
  906MOL0     C22191  11.345   4.085   9.341 -0.0575 -0.0950  0.2029
  906MOL0     N22192  11.481   4.125   9.321  0.5177 -0.1781 -1.1455
  906MOL0     C22193  11.542   4.238   9.382 -0.2961  0.5192  0.3585
  906MOL0     C22194  11.657   4.258   9.309 -0.1283  0.7147 -0.1593
  906MOL0     C22195  11.755   4.380   9.312  0.2834 -0.6476  0.0026
  906MOL0     C22196  11.868   4.345   9.414 -0.5056  0.0886 -0.4573
  906MOL0     C22197  11.985   4.256   9.361  0.6005 -0.6616  0.0693
  906MOL0     C22198  12.073   4.209   9.477  0.6944  0.3178  0.4407
  906MOL0     O22199  12.201   4.174   9.434 -0.2146 -0.1050  0.0821
  906MOL0     C22200  12.280   4.064   9.493 -0.0372  0.1953 -0.0487
  906MOL0     C22201  12.270   4.019   9.625 -0.5490 -1.0295  0.6900
  906MOL0     C22202  12.354   3.911   9.670  0.5381 -0.4306 -0.6812
  906MOL0     C22203  12.457   3.859   9.591  0.3418  0.7608  0.2861
  906MOL0     C22204  12.565   3.776   9.639  0.6897 -0.0158  0.5918
  906MOL0     O22205  12.654   3.727   9.549  0.3222 -0.2464  0.2401
  906MOL0     C22206  12.779   3.689   9.594 -0.1737  0.7547 -0.3868
  906MOL0     C22207  12.845   3.612   9.501 -0.1976 -0.6951  0.1595
  906MOL0     C22208  12.977   3.576   9.512 -0.4941 -0.6907 -0.4540
  906MOL0     C22209  13.053   3.635   9.612 -0.0504  0.3061  0.1023
  906MOL0     O22210  13.188   3.604   9.617 -0.1682  0.2719 -0.2044
  906MOL0     C22211  13.283   3.707   9.663  0.8008 -0.3979  0.1496
  906MOL0     C22212  13.298   3.814   9.549  0.4379  0.2620 -0.0222
  906MOL0     C22213  13.207   3.931   9.578  0.1917  0.5162  0.5648
  906MOL0     C22214  13.237   4.054   9.493  0.5970 -0.1556  0.3846
  906MOL0     C22215  13.147   4.172   9.522 -0.2071  0.2889 -0.0436
  906MOL0     C22216  13.174   4.280   9.424 -0.7366 -0.6107  0.5494
  906MOL0     C22217  13.059   4.383   9.427 -0.3940  0.0224  0.6468
  906MOL0     C22218  13.089   4.491   9.322  0.2090 -0.1545 -0.0737
  906MOL0    Cl22219  13.243   4.570   9.344  0.1479 -0.1994  0.0099
  906MOL0     C22220  12.991   3.710   9.709  0.1393 -0.0178 -0.5377
  906MOL0     C22221  12.851   3.741   9.699 -1.1757  0.6928 -0.6772
  906MOL0     O22222  12.567   3.753   9.759  0.2300  0.4957 -0.6567
  906MOL0     C22223  12.459   3.896   9.456  0.4034  0.2954  0.8874
  906MOL0     C22224  12.375   4.004   9.415 -0.5984 -0.6988  0.5210
  906MOL0     N22225  11.670   4.149   9.228 -0.2509  0.2784 -0.2354
  906MOL0     N22226  11.562   4.074   9.226 -0.7617 -0.0788  0.6352
  906MOL0     C22227  10.564   4.504   9.726 -0.1917  0.4443  0.2651
  906MOL0     C22228  10.427   4.533   9.710  0.2147 -1.2413  0.1767
  906MOL0     C22229  10.037   4.604   9.510  0.1228 -0.2740  0.2973
  906MOL0     C22230   9.979   4.734   9.536 -0.2956 -0.4499  0.3715
  906MOL0     C22231   9.842   4.758   9.527 -0.3007  0.9092  0.0922
  906MOL0     C22232   9.759   4.649   9.505 -0.1128 -0.6743 -0.3131
  906MOL0     O22233   9.625   4.674   9.527 -0.1488 -0.2900  0.0102
  906MOL0     C22234   9.533   4.561   9.500  0.9125 -0.6143  0.3183
  906MOL0     C22235   9.384   4.584   9.531 -0.0967  1.2397  0.9079
  906MOL0     C22236   9.345   4.628   9.673  0.3037  0.5339 -0.5138
  906MOL0     C22237   9.190   4.635   9.687  0.3657  0.1036 -0.2971
  906MOL0     C22238   9.129   4.508   9.692 -0.0865  0.4780 -0.3467
  906MOL0     C22239   9.073   4.405   9.725  0.0143 -0.2687  0.0244
  906MOL0     C22240   9.810   4.526   9.466  0.1417  0.5148  0.1854
  906MOL0     C22241   9.944   4.500   9.470  0.3327  0.3576  0.2730
  906MOL0     C22242   9.992   4.360   9.435  0.6814  0.0401  0.5424
  906MOL0     H22243  10.433   4.729   9.451  2.3515  0.2410  0.2812
  906MOL0     H22244  10.676   4.698   9.473  0.1257 -0.3892 -0.5080
  906MOL0     H22245  10.868   4.513   9.845 -1.8065 -0.2301  0.5127
  906MOL0     H22246  10.800   4.361   9.799  0.9643 -0.3879 -1.1665
  906MOL0     H22247  11.055   4.368   9.771  0.2250  0.6422 -1.4340
  906MOL0     H22248  11.024   4.469   9.624 -0.2827  0.7238  0.6658
  906MOL0     H22249  10.897   4.296   9.517  0.3308 -2.4179 -1.0846
  906MOL0     H22250  10.871   4.204   9.664 -0.4243  2.4717  1.5571
  906MOL0     H22251  11.150   4.249   9.539 -1.2674 -1.5541 -2.5363
  906MOL0     H22252  11.115   4.136   9.673  1.1149 -0.4763 -0.4154
  906MOL0     H22253  10.964   4.018   9.512  0.7053 -0.4851 -0.4397
  906MOL0     H22254  11.044   4.117   9.383  0.8393  0.1983 -0.2627
  906MOL0     H22255  11.157   3.902   9.558  2.1811 -1.1288 -1.1794
  906MOL0     H22256  11.157   3.913   9.380  2.3340  2.1807 -1.3031
  906MOL0     H22257  11.389   3.945   9.480  0.7544  0.6047  1.4147
  906MOL0     H22258  11.329   4.092   9.560 -1.2733  1.0582 -0.0450
  906MOL0     H22259  11.336   4.011   9.262  0.3194 -0.1685  0.2232
  906MOL0     H22260  11.278   4.170   9.326 -2.1496 -1.5189  1.0197
  906MOL0     H22261  11.483   4.303   9.446 -2.3848 -2.0349  1.2151
  906MOL0     H22262  11.806   4.397   9.217  2.4915 -0.6748  1.1218
  906MOL0     H22263  11.704   4.462   9.363  0.3286 -2.1660  2.6754
  906MOL0     H22264  11.916   4.439   9.444 -0.8254  0.3907 -0.8804
  906MOL0     H22265  11.823   4.316   9.510  2.0044 -2.0397  0.2094
  906MOL0     H22266  12.040   4.323   9.294  3.0596  0.8174  3.2441
  906MOL0     H22267  11.943   4.171   9.306 -3.4670  0.0026  1.7838
  906MOL0     H22268  12.031   4.119   9.523  1.5920 -0.4801 -0.2452
  906MOL0     H22269  12.092   4.282   9.556  1.6011 -0.3140  0.8199
  906MOL0     H22270  12.208   4.067   9.700 -0.1178 -1.2758  1.2083
  906MOL0     H22271  12.353   3.895   9.777 -0.8402  0.0610 -0.5994
  906MOL0     H22272  12.787   3.579   9.415  0.9151  0.0176 -0.8834
  906MOL0     H22273  13.013   3.511   9.432 -0.9581 -0.4171 -0.8908
  906MOL0     H22274  13.254   3.742   9.763  1.8642 -3.5581  1.7023
  906MOL0     H22275  13.383   3.666   9.677  1.2196  0.9688  1.4806
  906MOL0     H22276  13.400   3.853   9.541 -0.9566  3.9349 -1.7308
  906MOL0     H22277  13.273   3.773   9.451 -0.9585  0.1507  0.3576
  906MOL0     H22278  13.105   3.902   9.553 -0.3521  0.9514  2.1465
  906MOL0     H22279  13.214   3.959   9.684  3.7212  2.5482 -0.0505
  906MOL0     H22280  13.223   4.020   9.390  0.5208  0.1762  0.2861
  906MOL0     H22281  13.343   4.080   9.490  0.3774  0.9205  1.3917
  906MOL0     H22282  13.185   4.228   9.608 -1.1268  0.1616  0.4569
  906MOL0     H22283  13.045   4.137   9.537  0.6403 -1.8652  1.1349
  906MOL0     H22284  13.270   4.328   9.444 -1.1437  0.2359  0.5146
  906MOL0     H22285  13.185   4.237   9.324  0.6413 -1.2112  0.9397
  906MOL0     H22286  13.060   4.429   9.526 -0.1711 -0.9738  1.1185
  906MOL0     H22287  12.971   4.323   9.402 -0.2359 -1.2463  2.8636
  906MOL0     H22288  13.087   4.442   9.224  0.6663  1.2995 -0.8377
  906MOL0     H22289  13.011   4.565   9.304 -1.2318 -1.5885  0.0192
  906MOL0     H22290  13.036   3.752   9.798  0.4359  1.9380 -1.5565
  906MOL0     H22291  12.806   3.800   9.778  0.1495 -0.5847  1.1125
  906MOL0     H22292  12.536   3.855   9.391  0.1391  0.6426  0.3470
  906MOL0     H22293  12.378   4.037   9.312  3.0596 -1.3092  0.2840
  906MOL0     H22294  10.586   4.430   9.802 -1.0145 -0.8994 -0.7598
  906MOL0     H22295  10.364   4.486   9.785  0.4246  0.3333  1.3977
  906MOL0     H22296  10.042   4.816   9.567 -1.0305 -0.5149  2.1770
  906MOL0     H22297   9.800   4.857   9.533  0.8255  1.3407  1.3736
  906MOL0     H22298   9.558   4.478   9.568  0.7351  0.5519  1.8722
  906MOL0     H22299   9.535   4.539   9.393  0.1546  0.7151  0.0055
  906MOL0     H22300   9.325   4.502   9.489 -1.7887  1.9226  1.8471
  906MOL0     H22301   9.349   4.668   9.470  1.3582  1.1934 -0.0352
  906MOL0     H22302   9.387   4.726   9.697 -1.4253  0.9826  0.8989
  906MOL0     H22303   9.396   4.567   9.748  0.7507 -0.3500 -1.5002
  906MOL0     H22304   9.166   4.699   9.773  0.2030  0.8059 -0.8570
  906MOL0     H22305   9.151   4.695   9.605 -1.2027  0.6446  0.7952
  906MOL0     H22306   9.012   4.318   9.727 -1.0097  0.4456  1.2268
  906MOL0     H22307   9.744   4.446   9.437  0.8517 -0.2294  0.5898
  906MOL0     H22308   9.912   4.289   9.456 -0.1634  1.2956  1.7933
  906MOL0     H22309  10.010   4.354   9.328  1.1901  1.4948  0.5182
  906MOL0     H22310  10.075   4.320   9.495  0.3662 -0.5000  0.6222
  907MOL0     O22311  10.133   5.522   7.660 -0.1065 -0.6604  0.3347
  907MOL0     C22312  10.153   5.608   7.581 -0.0422 -0.0307  1.0484
  907MOL0     O22313  10.276   5.663   7.558  0.3687  0.6397  0.2246
  907MOL0     C22314  10.382   5.666   7.650 -0.9331  0.1108  0.5262
  907MOL0     C22315  10.506   5.721   7.614 -0.1903  0.1484  0.7028
  907MOL0     C22316  10.614   5.735   7.697  0.1281  0.2553  0.3739
  907MOL0     C22317  10.605   5.687   7.829  0.2021  0.3855  0.1319
  907MOL0     O22318  10.711   5.680   7.916  0.1241  0.2792 -0.1061
  907MOL0     C22319  10.827   5.760   7.904 -0.2243 -0.0051  1.0022
  907MOL0     C22320  10.921   5.707   8.013 -0.1502  0.8855  0.2067
  907MOL0     C22321  11.064   5.751   8.001 -0.9689  0.6748  0.1787
  907MOL0     C22322  11.139   5.661   7.906  0.1408 -0.0398  0.5420
  907MOL0     C22323  11.287   5.702   7.889  0.0456 -0.4776  0.6676
  907MOL0     C22324  11.334   5.650   7.754  0.4564  0.3068  0.3849
  907MOL0     C22325  11.489   5.637   7.749  0.3087 -0.0483 -0.2525
  907MOL0     C22326  11.541   5.592   7.619  0.7183 -0.9687 -0.0144
  907MOL0     N22327  11.682   5.611   7.594 -0.6293 -0.2086  0.4794
  907MOL0     C22328  11.762   5.533   7.519  0.3360  0.2259  1.1434
  907MOL0     C22329  11.892   5.570   7.539 -0.1841  0.6742  0.2158
  907MOL0     C22330  12.006   5.520   7.451  0.3391 -0.7187  0.0037
  907MOL0     C22331  12.082   5.417   7.532  0.1667  0.0047  0.4377
  907MOL0     C22332  12.158   5.477   7.640  0.4120 -0.0044 -0.7408
  907MOL0     C22333  12.259   5.382   7.702 -0.0346 -0.1086  0.4824
  907MOL0     O22334  12.332   5.463   7.794 -0.2062 -0.1020 -0.6947
  907MOL0     C22335  12.422   5.395   7.870  0.7874 -0.3330  0.6794
  907MOL0     C22336  12.513   5.477   7.934 -0.2155 -0.1912  0.4196
  907MOL0     C22337  12.618   5.421   8.011 -0.3658 -0.8943  0.0461
  907MOL0     C22338  12.628   5.283   8.028 -0.7623  0.0626 -0.8661
  907MOL0     C22339  12.738   5.218   8.104 -0.7217 -0.0129 -1.3225
  907MOL0     O22340  12.785   5.297   8.204 -0.1423 -0.3242 -0.6950
  907MOL0     C22341  12.900   5.269   8.274  0.3378  0.7069 -0.8038
  907MOL0     C22342  13.004   5.192   8.235  0.0862  0.8782 -1.3327
  907MOL0     C22343  13.124   5.171   8.306 -1.1355 -0.1547 -1.4438
  907MOL0     C22344  13.137   5.219   8.430 -0.6014 -0.4531 -0.2430
  907MOL0     O22345  13.245   5.209   8.513 -0.5523  0.1124  0.0009
  907MOL0     C22346  13.344   5.108   8.487 -0.3747 -0.2929 -0.5850
  907MOL0     C22347  13.484   5.149   8.534  0.5470 -0.2615  0.1759
  907MOL0     C22348  13.578   5.182   8.414  0.4710  0.0671  1.1386
  907MOL0     C22349  13.526   5.279   8.307 -0.5399  0.6719 -0.3014
  907MOL0     C22350  13.630   5.357   8.228 -0.9717  0.3457 -0.9694
  907MOL0     C22351  13.695   5.460   8.325  0.0045 -0.1748 -0.4472
  907MOL0     C22352  13.610   5.587   8.327 -0.3419  0.1730  0.3485
  907MOL0     C22353  13.645   5.673   8.452 -0.2040 -0.4484 -0.3837
  907MOL0    Cl22354  13.571   5.835   8.435 -0.3044  0.6024  0.1840
  907MOL0     C22355  13.034   5.303   8.475  0.4004 -0.8790 -0.1854
  907MOL0     C22356  12.916   5.328   8.399 -0.5265  0.7235  0.1490
  907MOL0     O22357  12.778   5.105   8.078  0.9350 -0.3908  0.0142
  907MOL0     C22358  12.533   5.198   7.970 -0.6671 -0.2088 -0.6913
  907MOL0     C22359  12.425   5.255   7.896  0.0168 -0.4050  0.0223
  907MOL0     N22360  11.887   5.671   7.628  0.3113 -0.0915 -0.8677
  907MOL0     N22361  11.766   5.692   7.664  0.0459 -0.4940 -0.2750
  907MOL0     C22362  10.484   5.644   7.875  0.3720  0.2527 -0.4737
  907MOL0     C22363  10.373   5.640   7.785  0.3457  0.2064  0.1521
  907MOL0     C22364  10.050   5.669   7.489  0.3749  0.9639 -0.0620
  907MOL0     C22365  10.073   5.776   7.399 -0.0261 -0.4117 -0.2287
  907MOL0     C22366   9.972   5.850   7.330  0.0136  0.7458 -0.6622
  907MOL0     C22367   9.847   5.792   7.330  0.0081 -0.1497 -0.0293
  907MOL0     O22368   9.746   5.839   7.254  0.5917  0.3173  0.7378
  907MOL0     C22369   9.769   5.936   7.149 -0.5674 -0.3669  0.0959
  907MOL0     C22370   9.652   5.953   7.057 -0.2300  1.0527 -0.5817
  907MOL0     C22371   9.597   5.820   6.984  0.5822 -0.5287 -0.8301
  907MOL0     C22372   9.459   5.848   6.911 -0.0157 -0.4802 -0.5085
  907MOL0     C22373   9.459   5.961   6.822 -0.7155 -0.5517 -0.1384
  907MOL0     C22374   9.466   6.062   6.751  0.2849  0.0477  0.3364
  907MOL0     C22375   9.824   5.677   7.404  0.6990  0.3840  0.1245
  907MOL0     C22376   9.920   5.604   7.474 -0.5417  0.7125  0.7303
  907MOL0     C22377   9.884   5.468   7.523  0.4113  0.3825  0.3426
  907MOL0     H22378  10.529   5.736   7.509  1.6395 -2.1553  0.6725
  907MOL0     H22379  10.709   5.770   7.658  0.0680 -0.6969 -0.6750
  907MOL0     H22380  10.881   5.756   7.809 -1.4969 -0.8165  0.2913
  907MOL0     H22381  10.801   5.860   7.942  2.2604  0.0428  2.8212
  907MOL0     H22382  10.924   5.598   8.010  2.5310  0.9043 -1.4435
  907MOL0     H22383  10.877   5.743   8.107 -1.3356  0.1473 -0.0468
  907MOL0     H22384  11.108   5.740   8.101 -0.4477  1.3011  0.0274
  907MOL0     H22385  11.075   5.857   7.975 -1.3358  0.5620 -0.4506
  907MOL0     H22386  11.135   5.560   7.948 -0.1953  1.1984  3.7271
  907MOL0     H22387  11.084   5.658   7.811  0.4589 -2.2499  0.3699
  907MOL0     H22388  11.292   5.812   7.894 -1.2051 -0.3422 -0.4769
  907MOL0     H22389  11.350   5.656   7.965  2.3941 -2.0390 -2.0367
  907MOL0     H22390  11.290   5.551   7.739  0.0435  0.4608  0.5606
  907MOL0     H22391  11.307   5.718   7.673  1.9660 -0.6437 -0.9512
  907MOL0     H22392  11.526   5.567   7.823 -1.1102 -1.3602 -0.7310
  907MOL0     H22393  11.519   5.735   7.788 -1.0906 -0.1811  1.2415
  907MOL0     H22394  11.514   5.488   7.598 -0.4413 -1.0395  1.6182
  907MOL0     H22395  11.490   5.648   7.541  0.4130 -3.7217 -1.9327
  907MOL0     H22396  11.730   5.452   7.454  0.2215  0.3874  0.9968
  907MOL0     H22397  11.972   5.468   7.360 -2.0987 -1.8027  1.4310
  907MOL0     H22398  12.067   5.604   7.416 -0.5649  0.5857  1.4725
  907MOL0     H22399  12.011   5.349   7.580  3.0161 -2.5534  1.3717
  907MOL0     H22400  12.151   5.353   7.475 -0.5736 -0.2210 -0.2274
  907MOL0     H22401  12.095   5.522   7.718  0.7834  3.3121 -2.1670
  907MOL0     H22402  12.215   5.564   7.605  2.5499 -0.3142  1.6379
  907MOL0     H22403  12.326   5.337   7.629 -0.7517  1.8757 -1.5038
  907MOL0     H22404  12.200   5.300   7.744 -1.6471 -0.9110 -2.9958
  907MOL0     H22405  12.518   5.585   7.924  0.7139 -0.0340  2.1387
  907MOL0     H22406  12.683   5.497   8.054 -0.6301 -0.6054 -0.0634
  907MOL0     H22407  13.002   5.155   8.133  1.0449 -1.6453 -0.5169
  907MOL0     H22408  13.197   5.116   8.247 -1.8196 -0.0831 -2.3693
  907MOL0     H22409  13.319   5.014   8.537 -0.5469 -0.1761 -0.4497
  907MOL0     H22410  13.360   5.080   8.383 -0.1487  0.9134 -0.8869
  907MOL0     H22411  13.468   5.235   8.599 -1.6849  0.3203 -1.0212
  907MOL0     H22412  13.528   5.068   8.593 -0.5117 -2.0942 -1.4100
  907MOL0     H22413  13.676   5.217   8.446  0.3659  1.6170 -0.1295
  907MOL0     H22414  13.593   5.090   8.357  0.0129  0.6798  0.0036
  907MOL0     H22415  13.457   5.348   8.356  1.3289  2.6461 -0.2841
  907MOL0     H22416  13.471   5.226   8.228  0.8417 -0.2805 -0.6691
  907MOL0     H22417  13.578   5.395   8.140 -1.0783  0.5924 -0.8013
  907MOL0     H22418  13.711   5.289   8.200  0.6773  0.7398  2.3206
  907MOL0     H22419  13.711   5.412   8.423  0.0462  2.0611  0.6966
  907MOL0     H22420  13.793   5.490   8.287 -0.7381  1.0139 -1.4760
  907MOL0     H22421  13.503   5.568   8.332 -0.3870 -0.4240 -1.8216
  907MOL0     H22422  13.631   5.630   8.228  0.3162 -3.1245 -1.0860
  907MOL0     H22423  13.608   5.638   8.548 -2.3131  3.2128  0.3100
  907MOL0     H22424  13.751   5.701   8.457 -0.8837  2.0848  2.1819
  907MOL0     H22425  13.036   5.351   8.573 -0.4904  1.2890 -1.1676
  907MOL0     H22426  12.835   5.380   8.449 -0.9443  3.6179 -3.1727
  907MOL0     H22427  12.545   5.090   7.974  0.1533 -0.0823  0.8599
  907MOL0     H22428  12.355   5.186   7.849  2.6763 -3.5954  0.4031
  907MOL0     H22429  10.471   5.625   7.981 -1.3019  1.2149 -0.4775
  907MOL0     H22430  10.278   5.605   7.826 -0.4517  0.7934 -1.1525
  907MOL0     H22431  10.175   5.811   7.388 -1.1484  3.2092 -0.5256
  907MOL0     H22432   9.998   5.943   7.280  1.5126 -0.1043 -1.5328
  907MOL0     H22433   9.860   5.914   7.092  0.7490 -0.6115  2.2124
  907MOL0     H22434   9.788   6.034   7.195  1.2235  0.5831 -2.3921
  907MOL0     H22435   9.673   6.033   6.986  2.2248  0.0923 -1.0448
  907MOL0     H22436   9.572   5.992   7.121  0.0174  0.8374 -0.1287
  907MOL0     H22437   9.593   5.747   7.066  2.1240 -0.9431 -1.0846
  907MOL0     H22438   9.671   5.784   6.912  0.7907  0.0941 -0.9393
  907MOL0     H22439   9.421   5.768   6.847  1.1295 -1.6312  0.2075
  907MOL0     H22440   9.383   5.871   6.986  0.2433  2.9020 -1.1275
  907MOL0     H22441   9.479   6.151   6.694 -1.2316 -0.3300 -0.6445
  907MOL0     H22442   9.728   5.630   7.393  1.6596 -1.1957 -2.2692
  907MOL0     H22443   9.852   5.466   7.628 -1.0069  0.1544 -0.0728
  907MOL0     H22444   9.800   5.426   7.467  1.1430 -0.7106  0.0188
  907MOL0     H22445   9.973   5.408   7.503  1.6581  1.6517  1.8140
  908MOL0     O22446  10.264   7.588   5.900 -0.5686  0.5391  0.6590
  908MOL0     C22447  10.212   7.525   5.806  0.4794 -1.1646 -0.3204
  908MOL0     O22448  10.276   7.431   5.726  0.5605 -0.8448  0.0327
  908MOL0     C22449  10.412   7.423   5.732  0.2672 -0.0639  0.1163
  908MOL0     C22450  10.471   7.301   5.720  0.2207 -0.5760  0.1480
  908MOL0     C22451  10.603   7.275   5.745  0.2424 -0.3932 -0.8433
  908MOL0     C22452  10.690   7.379   5.773 -0.3227 -0.8131  0.6611
  908MOL0     O22453  10.826   7.356   5.791  0.9481  0.1002  0.8524
  908MOL0     C22454  10.892   7.242   5.742 -1.0610  0.3211  0.2672
  908MOL0     C22455  11.046   7.234   5.770 -0.3001  0.1857 -0.0031
  908MOL0     C22456  11.136   7.344   5.714 -0.4425 -0.3977 -0.0743
  908MOL0     C22457  11.118   7.366   5.561  0.4907  0.1920 -0.4140
  908MOL0     C22458  11.238   7.438   5.492 -0.2034 -0.1754 -0.7013
  908MOL0     C22459  11.263   7.576   5.553  0.3217 -1.0077  0.0961
  908MOL0     C22460  11.375   7.656   5.487 -0.1245  0.1537  0.1909
  908MOL0     C22461  11.361   7.677   5.334  1.1729 -0.4246 -0.3194
  908MOL0     N22462  11.496   7.696   5.287  0.4631  0.0979  1.0431
  908MOL0     C22463  11.579   7.799   5.324  0.0640  0.2668 -0.3424
  908MOL0     C22464  11.701   7.748   5.302  0.2880  0.3363  0.0117
  908MOL0     C22465  11.834   7.809   5.325 -0.0361 -0.6076  0.6694
  908MOL0     C22466  11.865   7.807   5.469 -0.2379  0.3639  0.2369
  908MOL0     C22467  11.866   7.665   5.528 -0.6081  0.6248  0.7643
  908MOL0     C22468  11.978   7.569   5.471  0.3095  0.2054 -0.0830
  908MOL0     O22469  12.102   7.629   5.457  0.3068  0.4860 -0.1695
  908MOL0     C22470  12.214   7.559   5.423 -0.1761 -0.6442  0.0195
  908MOL0     C22471  12.229   7.417   5.400  0.0534 -0.5210  0.2245
  908MOL0     C22472  12.347   7.352   5.372  0.8354 -0.1285 -0.5353
  908MOL0     C22473  12.463   7.427   5.352  0.2402  0.5421 -0.6526
  908MOL0     C22474  12.585   7.363   5.306 -0.0040 -0.3465  1.0825
  908MOL0     O22475  12.693   7.440   5.294 -0.1862  0.3932 -0.4116
  908MOL0     C22476  12.810   7.365   5.278 -0.1568 -0.8353  1.1325
  908MOL0     C22477  12.866   7.296   5.387  0.7896 -0.7444  0.4347
  908MOL0     C22478  12.983   7.228   5.367  1.0165 -0.5576  0.0299
  908MOL0     C22479  13.056   7.234   5.243 -0.5221 -0.3643 -0.8434
  908MOL0     O22480  13.179   7.175   5.237 -0.5852  0.0521 -0.0509
  908MOL0     C22481  13.275   7.197   5.342 -0.0656 -0.0076 -0.0208
  908MOL0     C22482  13.410   7.159   5.299  0.6572  0.3179  0.0732
  908MOL0     C22483  13.524   7.179   5.403 -0.3584 -0.0507  0.4901
  908MOL0     C22484  13.672   7.148   5.358  0.2674 -0.2413  0.0582
  908MOL0     C22485  13.769   7.208   5.467 -1.0155 -0.2106 -0.5514
  908MOL0     C22486  13.918   7.194   5.422 -0.7856  0.1751 -0.5845
  908MOL0     C22487  13.997   7.251   5.534 -0.5461  0.3390 -0.1672
  908MOL0     C22488  14.147   7.246   5.527  0.1557  0.7781 -0.2696
  908MOL0    Cl22489  14.178   7.079   5.590 -0.0797  0.1586 -0.2201
  908MOL0     C22490  13.004   7.305   5.133 -0.3723  0.1513 -0.2854
  908MOL0     C22491  12.875   7.364   5.153 -0.6245 -0.3263  0.5107
  908MOL0     O22492  12.586   7.243   5.294  0.7932  0.1938  0.7786
  908MOL0     C22493  12.457   7.563   5.381  0.3897  0.3846  0.2605
  908MOL0     C22494  12.327   7.628   5.405  0.7608  0.3475  0.1665
  908MOL0     N22495  11.692   7.626   5.240  0.7220 -0.2909  0.3738
  908MOL0     N22496  11.568   7.592   5.234 -0.2569 -0.4027  0.0212
  908MOL0     C22497  10.639   7.510   5.767 -0.3912  0.4255  0.0281
  908MOL0     C22498  10.499   7.535   5.755  0.0963 -0.4988  0.1868
  908MOL0     C22499  10.072   7.548   5.766 -0.3193 -0.5069 -0.1875
  908MOL0     C22500  10.029   7.498   5.646 -0.4378  0.4176  0.2258
  908MOL0     C22501   9.903   7.509   5.593 -0.0900  0.3374  0.0291
  908MOL0     C22502   9.810   7.573   5.671 -0.3086 -0.6154 -0.1459
  908MOL0     O22503   9.690   7.586   5.622 -0.3480 -0.1198 -0.2018
  908MOL0     C22504   9.568   7.622   5.705 -0.4296 -0.6538  0.4319
  908MOL0     C22505   9.455   7.644   5.607  0.4578 -0.2980  0.1964
  908MOL0     C22506   9.323   7.707   5.663 -1.6691 -0.1343 -0.0798
  908MOL0     C22507   9.267   7.643   5.785  0.5370 -0.3936 -0.2669
  908MOL0     C22508   9.265   7.496   5.775  0.3160  0.1323 -0.6076
  908MOL0     C22509   9.286   7.376   5.773 -0.6377  0.1258 -0.6243
  908MOL0     C22510   9.842   7.620   5.798 -0.8957  0.7609 -0.3301
  908MOL0     C22511   9.968   7.610   5.848 -1.0450  0.6626  0.0617
  908MOL0     C22512   9.999   7.677   5.981 -0.0521 -0.3493  0.1475
  908MOL0     H22513  10.406   7.218   5.696 -2.2892  1.2732  0.1774
  908MOL0     H22514  10.633   7.171   5.753  1.1821 -0.0006  2.3029
  908MOL0     H22515  10.858   7.152   5.795  0.4472 -0.5908 -0.2323
  908MOL0     H22516  10.881   7.229   5.634  2.1496  1.3373 -0.3128
  908MOL0     H22517  11.084   7.138   5.732  2.4028  1.3266 -0.4163
  908MOL0     H22518  11.071   7.237   5.876  0.9273 -1.5166 -0.2036
  908MOL0     H22519  11.241   7.328   5.739  0.4404  1.7696 -1.9659
  908MOL0     H22520  11.112   7.440   5.760 -1.8587 -0.4573 -0.6451
  908MOL0     H22521  11.110   7.268   5.513 -0.3934 -0.0519  0.2105
  908MOL0     H22522  11.024   7.418   5.538  0.6552 -0.2245 -2.1644
  908MOL0     H22523  11.328   7.376   5.485  0.4112  0.5827  0.1262
  908MOL0     H22524  11.202   7.452   5.390 -1.8603 -1.6063 -0.3654
  908MOL0     H22525  11.171   7.636   5.551 -0.0016 -1.5161 -0.9252
  908MOL0     H22526  11.289   7.568   5.659 -0.4399  2.2995  0.6519
  908MOL0     H22527  11.469   7.602   5.503  0.2056  0.8316  0.5910
  908MOL0     H22528  11.375   7.749   5.545  0.8450 -0.3753  1.0831
  908MOL0     H22529  11.318   7.591   5.282  0.3048 -1.0742  1.3937
  908MOL0     H22530  11.303   7.766   5.312  0.8478 -0.8152 -1.1006
  908MOL0     H22531  11.558   7.896   5.369  0.8724  0.2914  0.0046
  908MOL0     H22532  11.920   7.770   5.271  0.4255  2.1466 -0.7736
  908MOL0     H22533  11.827   7.908   5.279  0.0665 -0.6070  0.6563
  908MOL0     H22534  11.956   7.858   5.500  0.1678 -1.0697  1.4365
  908MOL0     H22535  11.797   7.876   5.520 -1.3595 -0.2955 -0.3097
  908MOL0     H22536  11.765   7.626   5.512 -0.7772  1.0824  0.7064
  908MOL0     H22537  11.890   7.681   5.634 -1.6239  1.7765  0.8350
  908MOL0     H22538  11.949   7.504   5.387 -0.2891 -0.6637  0.7669
  908MOL0     H22539  11.994   7.491   5.547 -1.6736 -0.6148 -0.4176
  908MOL0     H22540  12.145   7.348   5.405 -1.0791  0.7530 -0.5105
  908MOL0     H22541  12.346   7.245   5.352  4.1567 -0.3443 -0.0853
  908MOL0     H22542  12.829   7.278   5.488 -0.7346 -0.8758 -0.1163
  908MOL0     H22543  13.023   7.177   5.454  0.0284  0.2052  0.9637
  908MOL0     H22544  13.276   7.303   5.370  1.6429 -0.7726  3.2677
  908MOL0     H22545  13.254   7.138   5.431 -2.6173  2.1583  0.9814
  908MOL0     H22546  13.413   7.051   5.282  1.5701 -0.0373  2.1888
  908MOL0     H22547  13.440   7.207   5.205 -1.7227  1.0368 -0.3820
  908MOL0     H22548  13.519   7.287   5.421  0.7435 -0.0153  0.6554
  908MOL0     H22549  13.496   7.135   5.499 -0.1141  0.8043  0.9656
  908MOL0     H22550  13.680   7.197   5.260 -0.1739 -1.0350 -0.3874
  908MOL0     H22551  13.689   7.041   5.345  0.1474 -0.2706  0.1457
  908MOL0     H22552  13.753   7.171   5.569  2.3772  1.3537  0.6999
  908MOL0     H22553  13.729   7.310   5.470 -3.7396 -1.1955 -0.5196
  908MOL0     H22554  13.946   7.091   5.400 -1.4845  0.0528 -0.9370
  908MOL0     H22555  13.944   7.254   5.334  0.5651  0.4464 -0.0309
  908MOL0     H22556  13.964   7.205   5.627 -1.4947 -1.8132 -1.4941
  908MOL0     H22557  13.964   7.355   5.535 -0.4277  0.4166 -1.6465
  908MOL0     H22558  14.179   7.248   5.422  1.1415 -1.3639 -0.0727
  908MOL0     H22559  14.185   7.328   5.588  1.0996  0.2437 -0.1169
  908MOL0     H22560  13.066   7.302   5.043  2.5799 -0.7609  1.6376
  908MOL0     H22561  12.828   7.420   5.073 -4.2628 -2.4633  0.9278
  908MOL0     H22562  12.537   7.636   5.375  0.1314  0.6827  0.3937
  908MOL0     H22563  12.326   7.733   5.433 -0.5030 -0.0670  1.8420
  908MOL0     H22564  10.706   7.595   5.770 -1.1162  0.9682  1.7399
  908MOL0     H22565  10.459   7.636   5.750  0.2744 -0.4490 -4.9054
  908MOL0     H22566  10.092   7.439   5.581 -1.2555 -0.8215  0.5223
  908MOL0     H22567   9.885   7.465   5.496  1.7770 -0.8691  0.1772
  908MOL0     H22568   9.582   7.713   5.763 -0.6765 -0.0764 -0.3990
  908MOL0     H22569   9.536   7.533   5.760 -2.7278 -0.0090  0.2446
  908MOL0     H22570   9.428   7.549   5.561 -0.8714  0.3252 -0.3647
  908MOL0     H22571   9.481   7.701   5.518 -0.2830 -0.6464 -0.2457
  908MOL0     H22572   9.247   7.711   5.584 -1.4018 -0.5033 -0.3598
  908MOL0     H22573   9.333   7.812   5.692 -1.7702  0.3990 -1.8423
  908MOL0     H22574   9.309   7.680   5.878  0.0013 -0.3373 -0.0393
  908MOL0     H22575   9.164   7.679   5.795  1.1845  1.5801 -0.4068
  908MOL0     H22576   9.292   7.269   5.781  2.3482  0.2378 -0.3277
  908MOL0     H22577   9.769   7.683   5.849 -2.5643  0.8597 -2.7034
  908MOL0     H22578   9.908   7.727   6.016  0.4211 -0.6978  1.9832
  908MOL0     H22579  10.042   7.613   6.058 -1.9783 -0.8370  0.8799
  908MOL0     H22580  10.073   7.755   5.962 -1.0649  0.7264  0.5125
  909MOL0     O22581   8.401   8.402   4.160  0.0424  0.5440  0.3516
  909MOL0     C22582   8.370   8.385   4.043  0.3907  0.2073  0.9123
  909MOL0     O22583   8.455   8.372   3.946 -0.3670 -0.1458  0.1957
  909MOL0     C22584   8.586   8.352   3.973 -0.2046  0.7475  0.4444
  909MOL0     C22585   8.657   8.460   4.021 -0.0759 -0.5542 -0.0412
  909MOL0     C22586   8.798   8.448   4.025  0.0917  0.1922 -0.6627
  909MOL0     C22587   8.864   8.333   3.985  0.7107 -0.3003 -0.4330
  909MOL0     O22588   8.998   8.325   4.033  0.1096 -0.2896  0.3317
  909MOL0     C22589   9.041   8.183   4.063 -0.3336  0.0340 -0.6452
  909MOL0     C22590   9.171   8.187   4.131 -0.4267  0.1744 -0.5352
  909MOL0     C22591   9.285   8.215   4.021  0.7129 -0.3222  0.0112
  909MOL0     C22592   9.418   8.229   4.089 -0.2572 -0.5148 -0.8332
  909MOL0     C22593   9.468   8.093   4.158  0.1369 -0.3853  0.2868
  909MOL0     C22594   9.574   8.014   4.069 -0.0047 -0.2623  0.0046
  909MOL0     C22595   9.727   8.051   4.089  0.4486 -0.2369 -0.1943
  909MOL0     C22596   9.811   7.933   4.047 -1.0343  0.3827 -0.5980
  909MOL0     N22597   9.953   7.964   4.079  0.8561  0.0637 -0.0425
  909MOL0     C22598  10.026   8.076   4.046  0.8004  1.2737  0.1651
  909MOL0     C22599  10.139   8.051   4.104 -0.1677 -0.0570  0.4966
  909MOL0     C22600  10.264   8.146   4.098 -0.1482 -0.0609 -0.3382
  909MOL0     C22601  10.355   8.160   3.969  0.0441 -0.9655 -0.3992
  909MOL0     C22602  10.423   8.030   3.927  0.3453  0.6287  0.0561
  909MOL0     C22603  10.505   7.956   4.032 -0.0202 -0.1734  1.1198
  909MOL0     O22604  10.600   8.034   4.112 -0.8900 -0.6512 -0.4069
  909MOL0     C22605  10.723   8.068   4.054  1.0240 -0.0078 -0.3058
  909MOL0     C22606  10.739   8.141   3.933 -0.1670  0.6108 -0.1148
  909MOL0     C22607  10.862   8.161   3.881  0.1630  0.7284  0.0612
  909MOL0     C22608  10.976   8.109   3.944 -0.4508 -0.0923  1.0402
  909MOL0     C22609  11.105   8.122   3.877 -0.1380  0.0607  0.9333
  909MOL0     O22610  11.122   8.220   3.778  0.0848 -0.1041 -0.2359
  909MOL0     C22611  11.245   8.227   3.712  0.3673 -0.5724 -0.0732
  909MOL0     C22612  11.282   8.128   3.624  0.7256 -0.2619 -0.3728
  909MOL0     C22613  11.388   8.147   3.549 -0.0178 -0.0796  0.3853
  909MOL0     C22614  11.464   8.261   3.550  0.7550  0.0328 -0.1774
  909MOL0     O22615  11.576   8.278   3.471 -0.2011 -0.1365 -0.6123
  909MOL0     C22616  11.558   8.260   3.332  0.4194  0.2779 -0.1827
  909MOL0     C22617  11.677   8.173   3.285  0.3944  0.2373 -0.1543
  909MOL0     C22618  11.722   8.196   3.138  0.0811 -1.1533  0.4218
  909MOL0     C22619  11.872   8.207   3.126 -1.1621  0.3818  0.2012
  909MOL0     C22620  11.916   8.241   2.989 -0.4745  0.3132  0.8244
  909MOL0     C22621  12.068   8.234   2.958  0.4673 -0.5004  0.2274
  909MOL0     C22622  12.154   8.341   3.026  0.0215 -0.0699  0.1567
  909MOL0     C22623  12.107   8.483   2.999  0.5284 -0.1445  0.4053
  909MOL0    Cl22624  12.082   8.527   2.824  0.2628 -0.1595  0.1822
  909MOL0     C22625  11.431   8.367   3.636 -0.4020  0.0798 -0.2988
  909MOL0     C22626  11.320   8.348   3.717  0.9158 -0.0546  0.1410
  909MOL0     O22627  11.194   8.055   3.916 -0.4366  0.0363  0.1772
  909MOL0     C22628  10.962   8.041   4.063  0.2941  0.1499 -0.1013
  909MOL0     C22629  10.835   8.024   4.118 -0.1903  0.3765 -0.2097
  909MOL0     N22630  10.131   7.931   4.170 -0.1257 -0.3216  0.7574
  909MOL0     N22631  10.017   7.882   4.160 -0.5239 -0.9534 -0.0805
  909MOL0     C22632   8.788   8.229   3.933  0.2455  0.2408  0.3490
  909MOL0     C22633   8.647   8.238   3.913 -0.2295  0.1123 -0.6420
  909MOL0     C22634   8.226   8.371   3.994 -0.1587 -0.3136  0.3097
  909MOL0     C22635   8.198   8.371   3.857  0.0376 -0.3523  0.3037
  909MOL0     C22636   8.057   8.376   3.810  0.5600 -0.4834  0.0593
  909MOL0     C22637   7.945   8.385   3.893  1.9323 -0.3687 -0.9157
  909MOL0     O22638   7.813   8.402   3.852 -0.0822 -0.6071  0.1461
  909MOL0     C22639   7.772   8.327   3.743 -0.4940  0.1489  0.2478
  909MOL0     C22640   7.721   8.194   3.793  1.0552  0.2529 -0.8755
  909MOL0     C22641   7.600   8.222   3.895  0.0895  0.0572  0.2686
  909MOL0     C22642   7.465   8.206   3.827 -0.2495  0.1836  0.6725
  909MOL0     C22643   7.431   8.065   3.804 -0.2227  0.3409 -1.1808
  909MOL0     C22644   7.412   7.945   3.773 -0.1344  0.4918  0.2834
  909MOL0     C22645   7.978   8.390   4.029 -0.7924 -0.1751 -0.0402
  909MOL0     C22646   8.115   8.381   4.083  0.0465  0.5603 -0.0858
  909MOL0     C22647   8.136   8.384   4.236 -0.1625 -0.4035  0.9468
  909MOL0     H22648   8.615   8.545   4.074 -0.4252  0.0012 -1.1794
  909MOL0     H22649   8.854   8.531   4.067  0.7052 -0.0103 -1.0664
  909MOL0     H22650   8.962   8.137   4.124 -0.4480  1.9191  0.7255
  909MOL0     H22651   9.056   8.117   3.977  1.2229 -3.8600  2.2895
  909MOL0     H22652   9.185   8.085   4.170  0.4933  1.5587  3.1649
  909MOL0     H22653   9.182   8.255   4.216  0.0170  0.6327 -0.9551
  909MOL0     H22654   9.268   8.315   3.979 -1.9579  0.0314  1.6704
  909MOL0     H22655   9.279   8.139   3.942 -1.9097  0.7173 -0.9121
  909MOL0     H22656   9.492   8.269   4.019  2.9034  0.7394  2.8662
  909MOL0     H22657   9.408   8.303   4.169  4.4548 -0.2592 -0.1705
  909MOL0     H22658   9.503   8.117   4.259 -1.5259  2.5223  0.2982
  909MOL0     H22659   9.387   8.019   4.155  1.7155 -2.1406 -0.3037
  909MOL0     H22660   9.565   7.905   4.079 -0.5885 -0.5282 -2.5207
  909MOL0     H22661   9.548   8.028   3.963 -2.1410  0.5848  0.5860
  909MOL0     H22662   9.753   8.082   4.191  0.9576  2.3162 -1.0252
  909MOL0     H22663   9.758   8.142   4.038  2.5498  0.9805  2.9416
  909MOL0     H22664   9.775   7.840   4.093 -0.6941  0.7859  0.5119
  909MOL0     H22665   9.803   7.922   3.938  2.9628  2.2283 -1.2533
  909MOL0     H22666   9.991   8.159   3.985 -3.0460 -1.4130 -1.7082
  909MOL0     H22667  10.237   8.244   4.139  1.5151 -0.2192  1.2905
  909MOL0     H22668  10.333   8.102   4.170  2.0747  1.4511 -1.4232
  909MOL0     H22669  10.300   8.192   3.881  0.9428 -0.0336 -0.6402
  909MOL0     H22670  10.434   8.234   3.985 -0.1768 -0.5076 -1.3524
  909MOL0     H22671  10.482   8.043   3.836 -0.3572  1.5977 -0.2877
  909MOL0     H22672  10.346   7.958   3.895  0.5738  1.4697 -2.6851
  909MOL0     H22673  10.566   7.876   3.988  1.8598  0.6767  2.0334
  909MOL0     H22674  10.440   7.910   4.107  0.6058 -1.0844  1.1231
  909MOL0     H22675  10.652   8.186   3.885 -0.2617 -1.0059 -1.5652
  909MOL0     H22676  10.871   8.221   3.792  2.4711  0.2102 -0.1140
  909MOL0     H22677  11.224   8.038   3.605  1.6733 -1.1750  0.8968
  909MOL0     H22678  11.431   8.063   3.494  1.4964  1.2854 -0.6045
  909MOL0     H22679  11.463   8.216   3.301  1.2629 -0.8856 -1.2258
  909MOL0     H22680  11.572   8.358   3.284  0.9518  0.1904 -0.2117
  909MOL0     H22681  11.764   8.179   3.351  0.2424 -1.9238  0.3008
  909MOL0     H22682  11.645   8.071   3.305  1.6332 -0.1653 -0.1760
  909MOL0     H22683  11.679   8.127   3.065 -2.4532  1.1055 -0.3937
  909MOL0     H22684  11.679   8.293   3.108 -2.0347 -1.7216  1.3931
  909MOL0     H22685  11.916   8.111   3.153  0.2845  0.5262 -1.5441
  909MOL0     H22686  11.913   8.274   3.202 -0.6359 -0.5142  0.7185
  909MOL0     H22687  11.867   8.335   2.965 -0.8873 -0.3263 -0.9602
  909MOL0     H22688  11.872   8.157   2.934 -1.2204  1.3268 -0.1612
  909MOL0     H22689  12.097   8.132   2.987  0.5227 -0.3500  0.7005
  909MOL0     H22690  12.076   8.246   2.849  0.2399 -1.2693  0.1193
  909MOL0     H22691  12.251   8.330   2.976  0.3661  0.5958  0.6657
  909MOL0     H22692  12.168   8.327   3.134  1.3023 -1.2952 -0.1311
  909MOL0     H22693  12.017   8.495   3.060 -1.5752 -1.4426 -2.2365
  909MOL0     H22694  12.171   8.562   3.041  2.0470 -1.2313  0.2433
  909MOL0     H22695  11.500   8.451   3.626  2.3045 -1.7841  1.4138
  909MOL0     H22696  11.291   8.422   3.792  1.0167  0.1284 -0.0008
  909MOL0     H22697  11.047   8.001   4.117  1.6755 -1.3016 -3.0882
  909MOL0     H22698  10.827   7.969   4.212  1.0655  0.2529 -0.1635
  909MOL0     H22699   8.837   8.136   3.906 -0.5256 -0.1855  0.3878
  909MOL0     H22700   8.594   8.156   3.867  0.2475 -0.3963 -0.3095
  909MOL0     H22701   8.280   8.366   3.786 -0.4949  0.9104 -0.4419
  909MOL0     H22702   8.031   8.366   3.705 -0.1139  4.0949 -0.3975
  909MOL0     H22703   7.853   8.311   3.671 -0.3684 -0.6465  0.5500
  909MOL0     H22704   7.685   8.361   3.685 -2.8974 -2.5951  1.9280
  909MOL0     H22705   7.798   8.137   3.845  0.9332  0.3158 -0.6244
  909MOL0     H22706   7.691   8.136   3.706  0.4776 -1.9902  0.7265
  909MOL0     H22707   7.601   8.323   3.937  1.7557 -0.4687  1.6179
  909MOL0     H22708   7.605   8.152   3.979  1.0660 -1.4589 -0.9913
  909MOL0     H22709   7.392   8.251   3.895 -1.9957 -4.4624  2.3163
  909MOL0     H22710   7.463   8.260   3.733  1.1365  0.3305  0.6949
  909MOL0     H22711   7.406   7.843   3.740 -0.2232  1.2137 -2.1378
  909MOL0     H22712   7.890   8.400   4.091 -0.3182 -0.9201  0.7800
  909MOL0     H22713   8.197   8.471   4.263  0.2892 -0.2100 -0.6203
  909MOL0     H22714   8.041   8.392   4.290 -0.4897  1.0929  0.2104
  909MOL0     H22715   8.191   8.295   4.270  1.4689 -0.0082 -0.4949
  910MOL0     O22716   5.891   6.730   3.679  0.3277  0.1481  0.2758
  910MOL0     C22717   5.805   6.805   3.633 -0.5874  0.2000 -0.6720
  910MOL0     O22718   5.687   6.835   3.696 -0.6044 -0.4766  0.0404
  910MOL0     C22719   5.672   6.784   3.821 -0.0030  0.7410 -0.2216
  910MOL0     C22720   5.573   6.698   3.848  0.3643  0.2520 -0.6999
  910MOL0     C22721   5.555   6.648   3.983 -0.1731 -0.0800  0.9823
  910MOL0     C22722   5.631   6.704   4.082  0.3124  0.3209  0.0725
  910MOL0     O22723   5.604   6.644   4.209  0.0449  0.4091  0.6597
  910MOL0     C22724   5.699   6.667   4.315  0.2799  0.6274 -0.2251
  910MOL0     C22725   5.694   6.563   4.424  0.6134  0.0405 -0.0895
  910MOL0     C22726   5.576   6.588   4.527  0.3645 -0.1935 -0.9610
  910MOL0     C22727   5.534   6.468   4.615  0.7009 -0.4213 -0.5147
  910MOL0     C22728   5.652   6.424   4.702 -0.1403  0.2595  0.3335
  910MOL0     C22729   5.737   6.311   4.647  0.2999 -0.6847 -0.1219
  910MOL0     C22730   5.825   6.252   4.761 -0.3790 -0.6734 -0.5629
  910MOL0     C22731   5.932   6.152   4.705  0.5105  0.0094  0.4817
  910MOL0     N22732   6.071   6.184   4.738 -0.0347  0.0795 -0.4921
  910MOL0     C22733   6.145   6.285   4.690  0.3748  0.2332  0.4792
  910MOL0     C22734   6.269   6.269   4.743  0.4046  0.8790  0.3586
  910MOL0     C22735   6.388   6.361   4.725  0.3689  0.2427 -0.6764
  910MOL0     C22736   6.355   6.501   4.766 -0.7777  0.4297  0.0955
  910MOL0     C22737   6.473   6.589   4.727 -0.4597 -0.1844 -0.0726
  910MOL0     C22738   6.460   6.732   4.774  0.3131 -0.2100  0.2384
  910MOL0     O22739   6.583   6.800   4.792 -0.1947 -0.3785 -0.1477
  910MOL0     C22740   6.661   6.803   4.678 -0.0265 -0.1782  0.6556
  910MOL0     C22741   6.785   6.752   4.677 -0.5852 -0.0646 -0.3103
  910MOL0     C22742   6.869   6.750   4.565  1.1052 -0.3976 -0.3225
  910MOL0     C22743   6.832   6.827   4.447  0.7965 -0.6275 -0.4025
  910MOL0     C22744   6.913   6.818   4.322  0.0215  0.5711  0.8904
  910MOL0     O22745   7.027   6.757   4.327 -0.0905  1.0674  0.1037
  910MOL0     C22746   7.121   6.756   4.222  0.6020 -0.2924 -0.6000
  910MOL0     C22747   7.125   6.849   4.126 -0.1257  0.6477  0.3332
  910MOL0     C22748   7.224   6.832   4.022  0.3144 -0.5461 -0.5425
  910MOL0     C22749   7.314   6.724   4.023 -0.3299 -0.2056 -0.1808
  910MOL0     O22750   7.411   6.704   3.931  0.4051 -0.1690  0.5747
  910MOL0     C22751   7.430   6.805   3.836  0.5753 -0.7188  0.7146
  910MOL0     C22752   7.509   6.741   3.724 -0.9023 -0.5430  0.5062
  910MOL0     C22753   7.527   6.821   3.597 -0.3606  0.4247  0.4949
  910MOL0     C22754   7.635   6.763   3.503  0.1019  0.4482  0.0737
  910MOL0     C22755   7.658   6.853   3.387  0.1328 -1.1748  0.4314
  910MOL0     C22756   7.756   6.964   3.437  0.2133  0.3732 -0.4933
  910MOL0     C22757   7.856   6.996   3.332  0.1270  0.0951 -0.5329
  910MOL0     C22758   7.955   7.106   3.384 -0.0186 -0.1988  0.4944
  910MOL0    Cl22759   7.876   7.258   3.437  0.6033  0.0778 -0.1740
  910MOL0     C22760   7.302   6.629   4.121  0.1484 -0.3721 -0.5216
  910MOL0     C22761   7.213   6.648   4.231 -0.4073  0.7938  0.3781
  910MOL0     O22762   6.870   6.875   4.218  0.3566  0.4614 -0.1143
  910MOL0     C22763   6.704   6.889   4.455 -0.7050 -1.0287 -0.3126
  910MOL0     C22764   6.618   6.883   4.571  0.0309  0.1516  0.2950
  910MOL0     N22765   6.264   6.148   4.814 -0.3371 -0.6331 -0.0205
  910MOL0     N22766   6.150   6.098   4.807 -0.2637  0.4720  0.3163
  910MOL0     C22767   5.738   6.796   4.055 -0.7356  0.6644 -0.2664
  910MOL0     C22768   5.766   6.828   3.920  0.5208 -0.2605  1.0651
  910MOL0     C22769   5.838   6.876   3.507 -0.3177  0.1630 -0.5306
  910MOL0     C22770   5.755   6.987   3.481  0.5959  0.0577  0.5509
  910MOL0     C22771   5.747   7.031   3.350 -0.9021  0.3161  0.5253
  910MOL0     C22772   5.847   7.004   3.257  0.3505 -0.3915  0.7545
  910MOL0     O22773   5.841   7.070   3.135  0.2410  0.3310  0.2094
  910MOL0     C22774   5.816   6.985   3.015  0.2081 -0.5939 -0.5539
  910MOL0     C22775   5.704   7.045   2.933  0.0612 -0.0834 -0.0740
  910MOL0     C22776   5.737   7.187   2.886 -0.3348 -0.1626 -0.2499
  910MOL0     C22777   5.615   7.242   2.809  0.0291 -1.2835 -0.5351
  910MOL0     C22778   5.504   7.298   2.888  0.5466 -0.6559  0.3441
  910MOL0     C22779   5.409   7.350   2.944 -0.3547  0.5866 -0.2114
  910MOL0     C22780   5.949   6.908   3.281 -0.0756 -0.8037 -0.5346
  910MOL0     C22781   5.942   6.842   3.413  1.1440 -0.3014 -0.1060
  910MOL0     C22782   6.048   6.738   3.436 -0.6362 -0.2923 -0.3490
  910MOL0     H22783   5.522   6.653   3.763 -2.0216 -0.0557  0.7977
  910MOL0     H22784   5.478   6.576   4.005 -0.2248 -0.4257 -0.2561
  910MOL0     H22785   5.802   6.663   4.281 -0.2592 -2.9995 -1.8829
  910MOL0     H22786   5.677   6.765   4.359 -1.5231 -0.4332  1.4537
  910MOL0     H22787   5.789   6.569   4.478  0.4006 -1.4708  0.4994
  910MOL0     H22788   5.690   6.461   4.382 -1.4964  0.9603 -2.3716
  910MOL0     H22789   5.496   6.622   4.460  0.3241 -1.6699 -1.6985
  910MOL0     H22790   5.590   6.672   4.596 -2.1043 -1.3562  1.1283
  910MOL0     H22791   5.458   6.507   4.684 -1.8994 -1.2310 -2.7542
  910MOL0     H22792   5.506   6.380   4.556  4.7590 -0.5827 -2.5265
  910MOL0     H22793   5.713   6.510   4.728  2.2883 -1.6682  1.4154
  910MOL0     H22794   5.619   6.388   4.800 -1.7516 -0.3006 -0.3818
  910MOL0     H22795   5.676   6.223   4.625  2.0355 -1.3597 -2.6096
  910MOL0     H22796   5.793   6.338   4.557 -0.7919 -1.1179 -0.9597
  910MOL0     H22797   5.762   6.202   4.836 -1.8012  2.5101  0.5313
  910MOL0     H22798   5.884   6.333   4.805 -2.1340  0.9479 -1.0777
  910MOL0     H22799   5.906   6.055   4.750 -1.6944 -0.2052 -1.0611
  910MOL0     H22800   5.923   6.141   4.596 -1.5108 -3.6339  0.8568
  910MOL0     H22801   6.114   6.374   4.636  0.5661  1.9901  3.0384
  910MOL0     H22802   6.473   6.331   4.787 -1.1709 -2.6338  0.2538
  910MOL0     H22803   6.415   6.358   4.619  1.7701  2.8862 -0.4849
  910MOL0     H22804   6.269   6.532   4.706 -0.4971 -0.8259 -0.9785
  910MOL0     H22805   6.328   6.495   4.872 -1.1111 -2.6116 -0.0773
  910MOL0     H22806   6.478   6.596   4.618  0.7484  4.0973  0.0776
  910MOL0     H22807   6.561   6.542   4.770 -0.1442 -2.1121 -2.5842
  910MOL0     H22808   6.409   6.730   4.870  0.2298  1.7705  0.2786
  910MOL0     H22809   6.399   6.791   4.705  3.3080  1.6084 -1.0715
  910MOL0     H22810   6.822   6.711   4.771  0.1268 -0.6561 -0.8345
  910MOL0     H22811   6.969   6.707   4.564  0.1084 -3.0310  2.0279
  910MOL0     H22812   7.049   6.923   4.104 -2.4097 -1.6696 -0.1265
  910MOL0     H22813   7.225   6.911   3.947 -1.9173  0.6959  0.6258
  910MOL0     H22814   7.336   6.835   3.789  0.2657 -0.2636  1.5991
  910MOL0     H22815   7.485   6.889   3.880  2.8229  0.1093 -3.2186
  910MOL0     H22816   7.605   6.720   3.773  0.0461  1.4051 -0.4065
  910MOL0     H22817   7.451   6.651   3.701 -1.7441 -0.1162  0.9179
  910MOL0     H22818   7.433   6.838   3.545  0.5015  1.8286 -0.7124
  910MOL0     H22819   7.559   6.920   3.634  2.3631 -0.8873  1.9966
  910MOL0     H22820   7.600   6.663   3.474  0.0054  0.4848  0.0611
  910MOL0     H22821   7.729   6.754   3.557  0.0992  6.1533  1.5913
  910MOL0     H22822   7.562   6.879   3.342  1.3974 -0.7468 -2.2052
  910MOL0     H22823   7.708   6.804   3.303 -2.4605  1.9195 -3.2687
  910MOL0     H22824   7.695   7.053   3.450 -0.8612 -0.6016  1.4385
  910MOL0     H22825   7.810   6.949   3.531 -0.2991  0.4087 -0.1895
  910MOL0     H22826   7.812   7.017   3.234 -2.9604 -1.0988  0.4999
  910MOL0     H22827   7.922   6.910   3.318 -1.8044 -1.5730  0.2584
  910MOL0     H22828   8.002   7.061   3.472  1.8785 -0.1621 -0.4555
  910MOL0     H22829   8.041   7.129   3.321  1.1591  0.7694  2.3451
  910MOL0     H22830   7.375   6.549   4.127 -0.6292 -1.3729 -3.1412
  910MOL0     H22831   7.200   6.563   4.296  0.5415 -1.9307 -2.7340
  910MOL0     H22832   6.659   6.942   4.372  0.3704  0.9365  0.2835
  910MOL0     H22833   6.524   6.937   4.572  0.4788  1.1499  4.2146
  910MOL0     H22834   5.801   6.830   4.137  0.6280 -0.8270 -0.6405
  910MOL0     H22835   5.845   6.895   3.886  1.2259 -0.6552  1.8963
  910MOL0     H22836   5.685   7.034   3.549  0.6358  0.3609  0.3826
  910MOL0     H22837   5.669   7.104   3.332 -0.7680  1.1077  2.8521
  910MOL0     H22838   5.782   6.883   3.033 -1.2205  0.0165  0.3333
  910MOL0     H22839   5.907   6.964   2.959 -0.0830  0.7212 -1.5694
  910MOL0     H22840   5.618   7.036   2.999  1.0257 -0.3402  1.1927
  910MOL0     H22841   5.701   6.975   2.849  0.2090  1.4341 -1.3965
  910MOL0     H22842   5.830   7.180   2.830  0.7996 -1.2691  1.6611
  910MOL0     H22843   5.758   7.255   2.969  0.6303 -2.1203  1.1937
  910MOL0     H22844   5.660   7.317   2.744 -0.0718  0.4725  1.3107
  910MOL0     H22845   5.579   7.166   2.740 -3.4235  1.1891 -1.7295
  910MOL0     H22846   5.334   7.409   2.992 -0.2890  0.4516  0.0567
  910MOL0     H22847   6.019   6.877   3.204 -1.3270  0.8263 -2.4386
  910MOL0     H22848   6.117   6.727   3.351  0.7430  0.6358  0.6002
  910MOL0     H22849   6.108   6.767   3.523 -1.3087  1.3537 -0.3955
  910MOL0     H22850   5.991   6.646   3.445 -0.1801 -0.6401 -0.9327
  911MOL0     O22851   1.933   3.537   3.479  0.0731 -0.3457 -0.1052
  911MOL0     C22852   1.879   3.612   3.394 -0.0359  0.2483  0.7947
  911MOL0     O22853   1.940   3.695   3.301  0.2072 -0.2793 -0.0255
  911MOL0     C22854   2.073   3.673   3.286 -0.6933  0.1174 -0.3578
  911MOL0     C22855   2.123   3.632   3.164 -0.4751 -0.4196  0.7980
  911MOL0     C22856   2.261   3.620   3.151 -0.1837 -0.2065  0.6578
  911MOL0     C22857   2.351   3.652   3.255  0.2321 -0.7116 -0.9069
  911MOL0     O22858   2.491   3.655   3.254 -1.1459  0.3947  0.8074
  911MOL0     C22859   2.553   3.617   3.127  0.3122 -0.1697  0.3950
  911MOL0     C22860   2.712   3.630   3.144  0.3723  0.4121 -0.1299
  911MOL0     C22861   2.770   3.535   3.247 -0.0258  0.0175 -1.2723
  911MOL0     C22862   2.922   3.568   3.264  1.1800 -0.8288 -0.4318
  911MOL0     C22863   2.992   3.524   3.392  0.0294  0.1224  0.2068
  911MOL0     C22864   3.149   3.527   3.391  0.8503  0.1590 -0.3134
  911MOL0     C22865   3.219   3.475   3.257 -0.2491 -0.2155  0.0518
  911MOL0     C22866   3.371   3.447   3.273 -0.2573  0.3213 -0.3412
  911MOL0     N22867   3.405   3.367   3.156  0.1606  0.7181 -0.6712
  911MOL0     C22868   3.384   3.228   3.138 -0.4962  0.0440 -0.4670
  911MOL0     C22869   3.435   3.191   3.019 -0.6274  0.0615  0.0725
  911MOL0     C22870   3.444   3.055   2.953 -0.2295 -0.2600 -0.6443
  911MOL0     C22871   3.589   3.016   2.911 -0.6548 -0.5245  0.3252
  911MOL0     C22872   3.601   2.890   2.822  0.0906 -1.1789  0.0799
  911MOL0     C22873   3.743   2.862   2.773  0.2885 -0.5742 -0.1169
  911MOL0     O22874   3.826   2.856   2.889  0.1263  0.4981  0.6630
  911MOL0     C22875   3.960   2.866   2.868  0.2582 -1.2543 -0.4780
  911MOL0     C22876   4.033   2.762   2.808 -0.4583 -0.1164 -0.7025
  911MOL0     C22877   4.174   2.782   2.785 -0.1240  0.2309 -0.9695
  911MOL0     C22878   4.235   2.897   2.842 -0.9650  0.0774 -0.0916
  911MOL0     C22879   4.383   2.907   2.842 -0.1699  0.2548  0.0051
  911MOL0     O22880   4.450   2.794   2.817 -0.1820  0.8017 -0.2345
  911MOL0     C22881   4.586   2.787   2.844 -0.0949 -0.1745 -0.3834
  911MOL0     C22882   4.656   2.686   2.775  0.1279  0.2323  0.2242
  911MOL0     C22883   4.794   2.665   2.783  0.0191  0.5769 -0.0824
  911MOL0     C22884   4.871   2.749   2.866 -0.0012  0.9576  0.3273
  911MOL0     O22885   4.999   2.729   2.864  0.0652  0.1400  0.8027
  911MOL0     C22886   5.086   2.787   2.962 -0.2759  0.5226 -0.6333
  911MOL0     C22887   5.235   2.742   2.962  0.4831  0.5840  0.2107
  911MOL0     C22888   5.324   2.801   2.845  0.7054  0.9030 -0.2538
  911MOL0     C22889   5.373   2.938   2.891  1.0298 -0.0488  0.3041
  911MOL0     C22890   5.453   2.994   2.771  0.8366  0.5217 -0.3416
  911MOL0     C22891   5.508   3.136   2.804  0.0252 -0.0891 -0.0069
  911MOL0     C22892   5.603   3.201   2.705  0.0242  0.1425  0.1116
  911MOL0     C22893   5.538   3.230   2.568  0.1927  0.3317 -0.8964
  911MOL0    Cl22894   5.623   3.374   2.487 -0.4148  0.0616  0.3352
  911MOL0     C22895   4.807   2.845   2.946  0.2965  0.2937  0.4925
  911MOL0     C22896   4.667   2.863   2.937  0.4193  0.0817  0.1738
  911MOL0     O22897   4.440   3.014   2.868 -0.8109 -0.0583 -0.0742
  911MOL0     C22898   4.153   2.994   2.896 -0.3997 -0.2845  0.0783
  911MOL0     C22899   4.014   2.985   2.906 -0.3590  0.8342 -0.6693
  911MOL0     N22900   3.482   3.308   2.965 -0.0824  0.8262  0.7152
  911MOL0     N22901   3.478   3.405   3.044  0.4120 -0.8326 -0.9231
  911MOL0     C22902   2.296   3.703   3.375 -0.2437  0.6859 -0.0685
  911MOL0     C22903   2.158   3.710   3.389 -0.6981 -0.3129  0.9007
  911MOL0     C22904   1.730   3.607   3.390  1.0158 -0.0008 -0.3153
  911MOL0     C22905   1.672   3.553   3.511 -0.0231  0.0758  0.0928
  911MOL0     C22906   1.528   3.534   3.517  0.5976 -0.0730 -0.0057
  911MOL0     C22907   1.448   3.548   3.399  0.2686 -0.2579 -0.2038
  911MOL0     O22908   1.315   3.519   3.417 -0.1790  0.1184 -0.4136
  911MOL0     C22909   1.224   3.602   3.336  0.7369  0.6630 -0.5668
  911MOL0     C22910   1.073   3.550   3.312  0.6693  0.0583 -0.2032
  911MOL0     C22911   1.013   3.506   3.449 -0.6070  0.7171  0.9644
  911MOL0     C22912   0.890   3.420   3.439  0.4887 -0.1123  0.1236
  911MOL0     C22913   0.796   3.503   3.354 -0.5709  0.4049  0.7411
  911MOL0     C22914   0.735   3.578   3.279 -0.5096  0.2953 -0.2218
  911MOL0     C22915   1.512   3.592   3.280 -0.1016 -0.7365  0.2359
  911MOL0     C22916   1.653   3.623   3.273  0.7253 -0.8691  0.4031
  911MOL0     C22917   1.709   3.671   3.140 -0.2720  0.4654 -0.0587
  911MOL0     H22918   2.054   3.593   3.091 -0.5820  1.1769 -0.0093
  911MOL0     H22919   2.310   3.578   3.065 -0.1772  0.4780  0.3226
  911MOL0     H22920   2.531   3.516   3.091 -0.2146  0.4127 -1.0213
  911MOL0     H22921   2.522   3.684   3.046 -0.3787 -0.4291  0.4346
  911MOL0     H22922   2.734   3.734   3.169 -2.7194  0.7920  1.4785
  911MOL0     H22923   2.760   3.614   3.048 -1.9641  2.1799 -1.7003
  911MOL0     H22924   2.757   3.431   3.218 -1.1645  0.0824 -1.0179
  911MOL0     H22925   2.722   3.554   3.343  0.5092  0.7929 -1.1452
  911MOL0     H22926   2.981   3.545   3.175  0.4829 -0.5680 -0.9762
  911MOL0     H22927   2.931   3.677   3.267  1.1770 -0.8551  1.3331
  911MOL0     H22928   2.946   3.570   3.481  0.9211 -1.7035  1.6741
  911MOL0     H22929   2.966   3.418   3.396 -0.6710  0.1928 -1.6427
  911MOL0     H22930   3.179   3.632   3.393  3.5901 -0.5676 -0.0974
  911MOL0     H22931   3.177   3.471   3.480  1.5481 -1.4632 -1.4954
  911MOL0     H22932   3.217   3.562   3.190  1.0820 -0.7513 -0.7442
  911MOL0     H22933   3.167   3.386   3.222 -0.6485 -0.6648  1.7200
  911MOL0     H22934   3.418   3.545   3.274  2.1919 -0.7838  0.1895
  911MOL0     H22935   3.401   3.387   3.360  0.9700  0.9019 -0.3443
  911MOL0     H22936   3.330   3.160   3.203  1.2667 -0.4249  0.5783
  911MOL0     H22937   3.400   2.973   3.010  0.0606  1.5669  2.4752
  911MOL0     H22938   3.379   3.066   2.866 -1.4940  0.3220  0.3399
  911MOL0     H22939   3.626   3.105   2.860 -0.1493 -0.7279  0.3283
  911MOL0     H22940   3.654   2.999   2.997 -0.0538 -2.5764 -0.4601
  911MOL0     H22941   3.532   2.907   2.739 -1.1239  0.3291  1.3410
  911MOL0     H22942   3.562   2.804   2.877 -0.6652  0.4526  2.2302
  911MOL0     H22943   3.765   2.937   2.697 -2.1496 -0.5584 -0.9139
  911MOL0     H22944   3.755   2.766   2.721  2.8366  0.6414 -1.9311
  911MOL0     H22945   3.976   2.675   2.778  0.8914 -0.4861 -2.3112
  911MOL0     H22946   4.237   2.703   2.745  2.5468  1.3112  0.8081
  911MOL0     H22947   4.604   2.617   2.709  0.7178 -1.0319  1.0258
  911MOL0     H22948   4.854   2.593   2.729  0.5131 -0.4544  1.7341
  911MOL0     H22949   5.076   2.896   2.964 -0.9254  0.6563 -4.2149
  911MOL0     H22950   5.034   2.748   3.050  0.4101 -0.9155 -0.8399
  911MOL0     H22951   5.280   2.753   3.061 -0.5683  1.8080  0.5819
  911MOL0     H22952   5.227   2.635   2.944  0.3035  0.3957  1.3503
  911MOL0     H22953   5.405   2.733   2.819 -0.3662 -1.0428  1.1939
  911MOL0     H22954   5.263   2.813   2.755 -2.3722  1.0205  1.6638
  911MOL0     H22955   5.436   2.932   2.980  1.0217  2.1588  0.5202
  911MOL0     H22956   5.290   3.009   2.900  1.3575  0.9278 -2.9168
  911MOL0     H22957   5.379   2.991   2.691 -0.6165 -1.2728  0.9618
  911MOL0     H22958   5.539   2.927   2.759 -0.0042 -1.3603  2.8799
  911MOL0     H22959   5.424   3.202   2.829 -0.3536 -0.2208 -0.9175
  911MOL0     H22960   5.567   3.125   2.896  2.7937 -1.7622 -1.8494
  911MOL0     H22961   5.692   3.138   2.697 -0.5277 -1.3502  3.9303
  911MOL0     H22962   5.630   3.299   2.746  1.1675 -0.5509  1.0900
  911MOL0     H22963   5.547   3.137   2.511 -1.1462  0.1099 -0.7897
  911MOL0     H22964   5.432   3.251   2.588  0.5202  0.4534  0.9326
  911MOL0     H22965   4.861   2.897   3.025 -0.8294  0.1259  1.4030
  911MOL0     H22966   4.630   2.935   3.009 -1.3434 -0.2902 -0.3092
  911MOL0     H22967   4.197   3.089   2.924 -0.0728 -0.0581 -1.1368
  911MOL0     H22968   3.960   3.058   2.964 -0.0134  0.5929 -0.0190
  911MOL0     H22969   2.357   3.733   3.460 -1.0082 -0.5609  0.9548
  911MOL0     H22970   2.117   3.762   3.475 -0.1899 -0.0004  0.9552
  911MOL0     H22971   1.730   3.520   3.597 -0.6655 -0.5758  0.2873
  911MOL0     H22972   1.484   3.506   3.613 -0.8268 -1.7116 -1.0710
  911MOL0     H22973   1.261   3.613   3.234 -0.6484 -0.4911 -1.2364
  911MOL0     H22974   1.217   3.702   3.380 -0.1318 -0.0413  0.9760
  911MOL0     H22975   1.066   3.478   3.231  0.8135  1.0521 -1.1284
  911MOL0     H22976   1.015   3.634   3.273  1.8512  1.4784  0.9638
  911MOL0     H22977   0.993   3.595   3.508 -0.1685  2.9902 -2.0592
  911MOL0     H22978   1.096   3.448   3.491  0.5633  0.4982 -1.4374
  911MOL0     H22979   0.899   3.327   3.383 -1.2249 -0.8458  1.0013
  911MOL0     H22980   0.844   3.394   3.534 -1.2988 -0.9188 -0.9248
  911MOL0     H22981   0.687   3.650   3.216 -0.2058  1.6442  1.0374
  911MOL0     H22982   1.458   3.607   3.187  1.8899  3.0681 -0.5104
  911MOL0     H22983   1.743   3.774   3.147 -0.0643  0.3131  1.9519
  911MOL0     H22984   1.796   3.608   3.120 -2.0374 -1.8278 -1.0236
  911MOL0     H22985   1.633   3.656   3.063  0.5850 -1.2687 -0.6351
  912MOL0     O22986   4.500   5.406   2.883  0.3967 -0.3698  0.0619
  912MOL0     C22987   4.411   5.485   2.888 -0.5436 -0.2836  0.3926
  912MOL0     O22988   4.421   5.619   2.912  0.2778  0.1498 -0.6301
  912MOL0     C22989   4.534   5.699   2.923 -0.7266  0.0003  0.4288
  912MOL0     C22990   4.519   5.828   2.972 -0.2086 -0.4485 -0.5329
  912MOL0     C22991   4.631   5.906   2.996 -0.2438  0.7113 -0.3569
  912MOL0     C22992   4.756   5.860   2.962 -0.5352 -0.6125 -0.1695
  912MOL0     O22993   4.867   5.936   2.983  0.2775  0.3569  0.1187
  912MOL0     C22994   4.847   6.081   2.987 -0.4203 -0.0633  0.1780
  912MOL0     C22995   4.976   6.156   3.003 -0.0198 -0.4369  0.8263
  912MOL0     C22996   5.083   6.090   3.082 -0.2282  0.5442 -0.1249
  912MOL0     C22997   5.217   6.143   3.042 -0.4677 -1.0381 -0.0877
  912MOL0     C22998   5.327   6.060   3.108 -0.0019  0.4349 -0.1452
  912MOL0     C22999   5.473   6.101   3.081  0.1704  0.0455  0.3400
  912MOL0     C23000   5.589   6.009   3.146  0.3391  0.1735 -0.0279
  912MOL0     C23001   5.729   6.072   3.112 -0.4213  0.9933  0.3470
  912MOL0     N23002   5.837   6.007   3.180 -0.6175  0.0146  0.0961
  912MOL0     C23003   5.849   5.869   3.190  0.0969 -1.2371  1.1214
  912MOL0     C23004   5.955   5.845   3.260  0.8473  0.1318 -0.1258
  912MOL0     C23005   6.000   5.711   3.310  0.7120 -0.0492  0.0789
  912MOL0     C23006   6.131   5.676   3.255  0.0510  0.5109 -0.0001
  912MOL0     C23007   6.129   5.632   3.102 -0.2887  0.1012 -0.6384
  912MOL0     C23008   6.263   5.559   3.063 -0.2864 -0.4484 -0.5271
  912MOL0     O23009   6.367   5.658   3.033 -0.0644  0.3518  0.3516
  912MOL0     C23010   6.486   5.621   2.978 -0.1131 -0.4894 -0.5648
  912MOL0     C23011   6.587   5.716   2.950  0.0658  0.6315  1.0580
  912MOL0     C23012   6.710   5.672   2.898 -0.4006  0.2863 -0.0513
  912MOL0     C23013   6.735   5.538   2.865 -1.0419  0.2480 -0.1370
  912MOL0     C23014   6.864   5.499   2.800  0.3057 -0.0875 -0.4257
  912MOL0     O23015   6.940   5.599   2.747  0.3818  0.1444  0.3179
  912MOL0     C23016   7.079   5.589   2.737 -0.0699 -0.8296 -0.0366
  912MOL0     C23017   7.130   5.679   2.642 -0.3191 -0.1153  0.3634
  912MOL0     C23018   7.268   5.694   2.631  0.5776 -0.1731  0.4703
  912MOL0     C23019   7.352   5.635   2.718 -0.7679 -0.5553 -0.3087
  912MOL0     O23020   7.482   5.682   2.715 -0.0329 -0.0437  0.6151
  912MOL0     C23021   7.565   5.656   2.831  0.0536 -0.7515 -0.0770
  912MOL0     C23022   7.677   5.740   2.821 -0.8024 -0.2397  0.2458
  912MOL0     C23023   7.765   5.719   2.694 -0.5478 -0.1373  0.2768
  912MOL0     C23024   7.864   5.832   2.676  0.0062  0.7068  0.0828
  912MOL0     C23025   7.944   5.842   2.544  0.3609 -0.4145  0.3232
  912MOL0     C23026   7.988   5.701   2.493 -0.3554  0.1701 -0.0832
  912MOL0     C23027   8.118   5.656   2.556  0.4149  0.0357 -0.0854
  912MOL0     C23028   8.205   5.579   2.452  0.2180 -0.6457  0.4913
  912MOL0    Cl23029   8.366   5.512   2.502 -0.2515  0.3558  0.2954
  912MOL0     C23030   7.303   5.533   2.810  0.0049 -0.4865  0.1548
  912MOL0     C23031   7.164   5.506   2.810 -1.4187 -0.2992 -0.2108
  912MOL0     O23032   6.904   5.375   2.805  0.5395 -0.1638  0.1249
  912MOL0     C23033   6.631   5.448   2.896  0.4432  0.7006 -0.7007
  912MOL0     C23034   6.511   5.483   2.953  0.0590 -0.2283  1.0624
  912MOL0     N23035   6.007   5.969   3.296  0.2286  0.2513 -0.1029
  912MOL0     N23036   5.945   6.066   3.235  0.0343  0.1910 -0.1180
  912MOL0     C23037   4.773   5.726   2.918  0.7195 -0.5739  0.6658
  912MOL0     C23038   4.662   5.648   2.893 -0.5380 -0.5631  0.1657
  912MOL0     C23039   4.274   5.430   2.883 -0.3294  0.6770  0.8365
  912MOL0     C23040   4.167   5.511   2.923  0.2836 -0.3782 -0.4912
  912MOL0     C23041   4.033   5.472   2.910  0.1202  0.3688  1.2033
  912MOL0     C23042   4.011   5.346   2.860 -0.0737 -0.7748  0.2426
  912MOL0     O23043   3.882   5.296   2.859  0.1039 -0.1437  0.0622
  912MOL0     C23044   3.766   5.376   2.892  0.6729 -0.2341  0.2705
  912MOL0     C23045   3.641   5.298   2.829  0.4572  0.5915  0.1439
  912MOL0     C23046   3.511   5.358   2.878 -0.0059  0.8058 -0.3145
  912MOL0     C23047   3.389   5.279   2.824 -0.5150 -0.7125  1.2235
  912MOL0     C23048   3.265   5.353   2.851 -0.0823  0.1475 -0.7055
  912MOL0     C23049   3.163   5.418   2.877  0.1271  0.0215 -0.3826
  912MOL0     C23050   4.107   5.259   2.815  0.2101 -0.0223  0.3801
  912MOL0     C23051   4.241   5.300   2.824  0.6246 -0.3352  0.0420
  912MOL0     C23052   4.341   5.218   2.743 -0.1975  0.2892  0.6071
  912MOL0     H23053   4.416   5.853   2.997 -0.2192 -1.1343  0.1193
  912MOL0     H23054   4.594   5.998   3.040  0.0848 -0.0052  1.5348
  912MOL0     H23055   4.794   6.125   2.902 -1.2286 -0.5901  0.3997
  912MOL0     H23056   4.797   6.114   3.078 -1.5426 -0.0679 -0.4173
  912MOL0     H23057   4.955   6.252   3.051  3.1192  0.2945  0.9393
  912MOL0     H23058   5.022   6.173   2.905 -0.5728 -0.6599  0.5180
  912MOL0     H23059   5.086   5.982   3.066 -0.1406  0.6315 -0.7250
  912MOL0     H23060   5.070   6.113   3.188 -1.2565 -0.0956 -0.0968
  912MOL0     H23061   5.247   6.143   2.936 -1.1294  2.4402 -0.3691
  912MOL0     H23062   5.213   6.250   3.064  0.5967 -0.8474 -0.7439
  912MOL0     H23063   5.312   6.070   3.216 -0.0665 -1.7316  0.1015
  912MOL0     H23064   5.324   5.951   3.093 -4.0580  0.1618  1.3356
  912MOL0     H23065   5.491   6.110   2.973  0.2105 -0.9501  0.2536
  912MOL0     H23066   5.485   6.204   3.117 -2.5169  0.2336  0.8916
  912MOL0     H23067   5.568   5.908   3.110 -1.0802  0.2856  0.3954
  912MOL0     H23068   5.581   6.007   3.255 -2.5729  2.0866 -0.0692
  912MOL0     H23069   5.738   6.058   3.003 -1.4223  0.5104  0.3086
  912MOL0     H23070   5.739   6.177   3.138  1.3598  1.0143 -0.2742
  912MOL0     H23071   5.789   5.797   3.135 -0.1935  0.2761 -0.6347
  912MOL0     H23072   6.013   5.713   3.419  2.8549 -1.1137 -0.1195
  912MOL0     H23073   5.924   5.636   3.284  0.4564 -0.3342  1.5417
  912MOL0     H23074   6.200   5.760   3.270  0.1566 -0.0824  3.6385
  912MOL0     H23075   6.172   5.591   3.310  0.2381  0.3068 -0.4480
  912MOL0     H23076   6.119   5.719   3.036 -1.9685 -0.3999 -1.1014
  912MOL0     H23077   6.044   5.564   3.088 -0.2157 -0.1778  0.2162
  912MOL0     H23078   6.224   5.499   2.981 -3.5552 -1.4872  1.6122
  912MOL0     H23079   6.297   5.492   3.142  0.6230  0.3419 -0.2142
  912MOL0     H23080   6.564   5.819   2.977  1.3513  1.0440  0.6502
  912MOL0     H23081   6.783   5.744   2.865  1.2718 -2.1195 -2.0288
  912MOL0     H23082   7.058   5.737   2.585  0.8679  0.3122 -0.7395
  912MOL0     H23083   7.298   5.774   2.565  0.1984  1.0469  1.7266
  912MOL0     H23084   7.508   5.685   2.919 -0.0835  0.7168 -0.6329
  912MOL0     H23085   7.596   5.551   2.826  0.2489 -0.7620  1.1284
  912MOL0     H23086   7.648   5.845   2.824  0.4552  0.1335 -0.1399
  912MOL0     H23087   7.736   5.724   2.912 -3.6051  0.1215  2.2631
  912MOL0     H23088   7.815   5.623   2.707  1.4145  0.9113  0.8629
  912MOL0     H23089   7.707   5.700   2.603  1.6819 -3.3229 -0.6562
  912MOL0     H23090   7.935   5.823   2.759  0.0459 -2.3421 -0.1837
  912MOL0     H23091   7.805   5.924   2.682  0.9840  1.2693  1.5232
  912MOL0     H23092   8.031   5.905   2.560  0.3583  0.1806 -1.7194
  912MOL0     H23093   7.879   5.888   2.468 -2.8153 -2.0656  1.8544
  912MOL0     H23094   7.904   5.631   2.504 -0.2420 -0.3039 -1.9124
  912MOL0     H23095   8.011   5.710   2.386 -1.9653 -2.1796 -0.7238
  912MOL0     H23096   8.088   5.581   2.630  1.8686 -0.0767  0.4240
  912MOL0     H23097   8.169   5.742   2.601 -0.9378  1.0929 -0.5420
  912MOL0     H23098   8.137   5.502   2.413 -0.9231 -0.9648  2.9224
  912MOL0     H23099   8.225   5.654   2.375  0.5809  0.5456  1.6940
  912MOL0     H23100   7.370   5.472   2.870  3.5182 -1.1691 -3.9955
  912MOL0     H23101   7.121   5.434   2.879  0.4301 -1.9822 -0.7308
  912MOL0     H23102   6.643   5.345   2.862  1.5842  1.1627 -1.8004
  912MOL0     H23103   6.428   5.414   2.964 -0.4904  0.2719  0.2177
  912MOL0     H23104   4.863   5.689   2.872  0.8370 -1.2104  1.3774
  912MOL0     H23105   4.678   5.551   2.846 -1.8892 -1.5916  1.7196
  912MOL0     H23106   4.186   5.612   2.957 -2.0771 -0.4164  1.2507
  912MOL0     H23107   3.956   5.536   2.953 -0.6860 -0.2733  0.7375
  912MOL0     H23108   3.777   5.476   2.850  2.1904  0.1017  1.3792
  912MOL0     H23109   3.754   5.396   2.999 -1.2613  3.7189 -0.5251
  912MOL0     H23110   3.638   5.193   2.862 -0.3708  1.0590  1.6650
  912MOL0     H23111   3.637   5.307   2.720 -4.7358 -1.1499 -0.1155
  912MOL0     H23112   3.499   5.454   2.827  2.1174  1.0406 -0.4772
  912MOL0     H23113   3.513   5.355   2.987 -0.9383  2.7721 -0.2082
  912MOL0     H23114   3.399   5.267   2.716 -2.3306 -3.3393  1.2494
  912MOL0     H23115   3.383   5.175   2.859  1.9520 -1.6159 -0.6890
  912MOL0     H23116   3.069   5.462   2.902  0.3877  0.2859  0.1633
  912MOL0     H23117   4.073   5.178   2.750  1.9873 -1.4348  1.1075
  912MOL0     H23118   4.418   5.283   2.698  0.5003 -0.3393  0.8701
  912MOL0     H23119   4.395   5.149   2.808 -1.1478 -1.9710 -0.9010
  912MOL0     H23120   4.294   5.163   2.662 -1.5435  2.3692 -0.0969
  913MOL0     O23121   9.747   3.959  10.676  0.2135  0.6731  0.5903
  913MOL0     C23122   9.822   4.035  10.605 -0.3063 -1.0195 -0.6617
  913MOL0     O23123   9.871   4.156  10.649 -0.0439 -0.3612  0.0868
  913MOL0     C23124   9.809   4.223  10.755  0.3091  0.1822 -0.0866
  913MOL0     C23125   9.674   4.237  10.764 -0.0058 -1.0189  0.3301
  913MOL0     C23126   9.616   4.329  10.849  0.0768  1.6961  0.3674
  913MOL0     C23127   9.687   4.395  10.949 -1.1373  0.0668  0.5944
  913MOL0     O23128   9.609   4.463  11.041 -0.2858 -0.2338 -0.8686
  913MOL0     C23129   9.674   4.567  11.116 -1.1557  0.8981 -0.1974
  913MOL0     C23130   9.573   4.626  11.217  0.0996  0.1142  0.5015
  913MOL0     C23131   9.582   4.582  11.363 -0.5070  0.1552 -0.0822
  913MOL0     C23132   9.494   4.655  11.457  0.8231 -0.1070  0.0233
  913MOL0     C23133   9.551   4.771  11.535 -0.4496 -0.9024 -0.6366
  913MOL0     C23134   9.457   4.839  11.635  0.2015  0.7187  0.4370
  913MOL0     C23135   9.540   4.950  11.703 -0.0021 -0.2565 -0.1646
  913MOL0     C23136   9.628   4.879  11.807  0.2946 -0.0174  0.1903
  913MOL0     N23137   9.717   4.969  11.886  0.9834  1.5547  0.7392
  913MOL0     C23138   9.706   5.000  12.021  0.1029 -0.0111 -0.8483
  913MOL0     C23139   9.816   5.067  12.054  0.5613 -0.2991 -0.3426
  913MOL0     C23140   9.865   5.100  12.191  0.3922 -0.2830  0.6059
  913MOL0     C23141  10.002   5.031  12.218  0.1035 -0.4622 -0.3335
  913MOL0     C23142  10.045   5.055  12.363  1.2643 -0.0267  0.0048
  913MOL0     C23143  10.169   4.982  12.417  0.3211  0.1220  0.3555
  913MOL0     O23144  10.276   5.021  12.331  0.0996  0.1323 -0.1643
  913MOL0     C23145  10.395   4.965  12.364  1.1773  0.0786 -0.4923
  913MOL0     C23146  10.413   4.887  12.484  0.0920 -0.4606 -0.0675
  913MOL0     C23147  10.546   4.841  12.522  0.3585  0.1736 -0.3288
  913MOL0     C23148  10.656   4.880  12.444  0.2265 -0.4497  0.0848
  913MOL0     C23149  10.791   4.840  12.481  1.2009  0.1422  0.0403
  913MOL0     O23150  10.889   4.929  12.456  0.7721 -0.6459 -0.1663
  913MOL0     C23151  11.001   4.934  12.533 -0.6098 -0.7192 -0.9104
  913MOL0     C23152  11.008   5.018  12.651  0.1672 -0.2627  0.0213
  913MOL0     C23153  11.135   5.040  12.708  0.4729  0.7058 -0.8715
  913MOL0     C23154  11.252   4.986  12.663 -0.4555  0.6267  0.8268
  913MOL0     O23155  11.378   4.986  12.713  0.4754  0.8101 -0.1294
  913MOL0     C23156  11.400   5.058  12.834 -0.2045  0.4214 -0.0358
  913MOL0     C23157  11.541   5.037  12.887 -0.6870  0.2485  0.1695
  913MOL0     C23158  11.568   5.102  13.024  0.5146 -0.1540 -0.4248
  913MOL0     C23159  11.714   5.116  13.051  0.6568  0.4251  0.7202
  913MOL0     C23160  11.736   5.186  13.184  0.7301  0.0712  0.7293
  913MOL0     C23161  11.886   5.204  13.237  0.4401 -0.2574  1.1798
  913MOL0     C23162  11.972   5.305  13.150  0.1913  0.5384 -1.1176
  913MOL0     C23163  12.125   5.276  13.184  0.5582 -0.2998 -0.4023
  913MOL0    Cl23164  12.210   5.411  13.110  0.1711 -0.0585 -0.1914
  913MOL0     C23165  11.241   4.900  12.556 -0.6605  0.3850  0.1036
  913MOL0     C23166  11.125   4.892  12.478  0.2257 -0.6691  0.6812
  913MOL0     O23167  10.803   4.738  12.545 -0.6117 -0.0474 -0.2058
  913MOL0     C23168  10.639   4.962  12.336  1.0442 -0.1137  0.1183
  913MOL0     C23169  10.503   5.005  12.296 -1.4153 -0.5644 -0.0610
  913MOL0     N23170   9.880   5.102  11.935 -0.0229 -0.0145  0.6447
  913MOL0     N23171   9.814   5.049  11.835 -0.0743  0.1253  0.3468
  913MOL0     C23172   9.830   4.376  10.949  0.1734 -0.1934 -0.0904
  913MOL0     C23173   9.887   4.297  10.849  0.1408 -0.2499  1.0559
  913MOL0     C23174   9.888   3.991  10.479 -0.2523  0.1431 -1.0841
  913MOL0     C23175  10.025   4.013  10.469  0.0998  0.2546  0.0256
  913MOL0     C23176  10.091   3.974  10.354 -0.7236  0.1196 -0.0413
  913MOL0     C23177  10.026   3.900  10.257  0.5138  0.3702 -0.1651
  913MOL0     O23178  10.089   3.842  10.155  0.3331 -0.0940  0.7170
  913MOL0     C23179  10.219   3.800  10.167  0.1883  0.4012  0.0571
  913MOL0     C23180  10.235   3.675  10.081 -0.6399  0.7384 -0.0981
  913MOL0     C23181  10.382   3.606  10.077  0.5773 -0.1647  0.0440
  913MOL0     C23182  10.461   3.660   9.954 -0.5458 -0.6805  0.2694
  913MOL0     C23183  10.585   3.585   9.941 -0.1020 -0.0760  0.7488
  913MOL0     C23184  10.674   3.508   9.918 -0.2088 -0.1907 -0.1555
  913MOL0     C23185   9.886   3.882  10.270  0.6156  0.2371  0.6286
  913MOL0     C23186   9.817   3.924  10.376 -0.2322 -0.2002 -0.3290
  913MOL0     C23187   9.673   3.881  10.382 -0.7620 -0.4008 -0.1503
  913MOL0     H23188   9.601   4.193  10.697 -0.0262 -1.0630  0.3823
  913MOL0     H23189   9.507   4.334  10.849 -0.2682 -1.4034 -3.1765
  913MOL0     H23190   9.760   4.527  11.170 -0.8641  2.9144  0.9255
  913MOL0     H23191   9.701   4.652  11.053 -0.1275  0.3989 -0.4538
  913MOL0     H23192   9.472   4.604  11.180  1.7783 -0.9461 -4.0560
  913MOL0     H23193   9.588   4.734  11.217  2.9454 -0.2154  0.8733
  913MOL0     H23194   9.687   4.599  11.390 -0.3522  0.0415 -0.5974
  913MOL0     H23195   9.573   4.473  11.369 -2.5052  0.3343  0.8839
  913MOL0     H23196   9.417   4.692  11.388  0.2293 -1.1788  0.0836
  913MOL0     H23197   9.456   4.584  11.531 -2.1432 -1.2281 -2.3287
  913MOL0     H23198   9.636   4.732  11.591 -0.6506  1.2098  1.2706
  913MOL0     H23199   9.595   4.847  11.469  0.6491 -1.6059 -0.7410
  913MOL0     H23200   9.368   4.873  11.583  0.2474 -0.3756 -0.3913
  913MOL0     H23201   9.419   4.766  11.707  0.9130  0.9201  1.0312
  913MOL0     H23202   9.477   5.028  11.747  0.9358  0.5935 -0.2897
  913MOL0     H23203   9.603   5.009  11.635  0.5333 -1.2074 -0.5072
  913MOL0     H23204   9.568   4.815  11.873 -0.2594  0.5281  0.2223
  913MOL0     H23205   9.699   4.812  11.757 -1.0313 -3.2948  2.3576
  913MOL0     H23206   9.630   4.955  12.084  0.2181  2.0029  0.8587
  913MOL0     H23207   9.874   5.208  12.206  0.4840 -0.3414  0.9745
  913MOL0     H23208   9.788   5.066  12.261 -0.5318 -2.3412 -1.2755
  913MOL0     H23209   9.976   4.924  12.214 -1.6135 -0.1909  2.0071
  913MOL0     H23210  10.076   5.060  12.142  1.3474  1.4850  1.5393
  913MOL0     H23211   9.960   5.033  12.428  0.1644 -0.6308 -1.5782
  913MOL0     H23212  10.058   5.163  12.379 -2.9184  0.7669 -0.8437
  913MOL0     H23213  10.158   4.873  12.425  0.2616  0.1257  0.3232
  913MOL0     H23214  10.193   5.017  12.517  4.8007  1.0316 -0.8161
  913MOL0     H23215  10.330   4.866  12.551 -0.6395 -0.0684 -0.8423
  913MOL0     H23216  10.552   4.782  12.613 -1.0963  1.9035  0.9479
  913MOL0     H23217  10.914   5.052  12.691  0.2014 -0.3029  0.1372
  913MOL0     H23218  11.132   5.123  12.778 -0.6699  2.1215 -2.5151
  913MOL0     H23219  11.390   5.167  12.821  0.2541  0.4592 -0.0740
  913MOL0     H23220  11.336   5.024  12.917  1.2461  2.1345  1.8938
  913MOL0     H23221  11.542   4.928  12.902  0.8064  0.4291  1.8172
  913MOL0     H23222  11.611   5.070  12.809 -0.4468 -1.0490 -0.1960
  913MOL0     H23223  11.530   5.204  13.035  0.6093 -0.3746  2.8058
  913MOL0     H23224  11.523   5.042  13.103  0.0370 -0.2368 -0.7551
  913MOL0     H23225  11.759   5.181  12.975  2.0781  0.2195  1.3587
  913MOL0     H23226  11.767   5.021  13.043  1.2117  0.6788  1.3868
  913MOL0     H23227  11.670   5.129  13.251 -0.5250 -0.7460 -1.1230
  913MOL0     H23228  11.690   5.283  13.163 -0.7224 -0.2651  2.1532
  913MOL0     H23229  11.881   5.240  13.341 -1.1516  1.3710  0.5817
  913MOL0     H23230  11.933   5.106  13.226 -0.7459 -0.5923 -1.6357
  913MOL0     H23231  11.961   5.408  13.184  2.0558  0.4163 -0.0056
  913MOL0     H23232  11.940   5.297  13.046 -1.5180  3.0465 -0.8655
  913MOL0     H23233  12.147   5.284  13.291  0.1380  3.4988 -0.4716
  913MOL0     H23234  12.147   5.182  13.132 -1.0894 -1.7921  1.4119
  913MOL0     H23235  11.339   4.863  12.531 -1.0366 -0.7262  0.2062
  913MOL0     H23236  11.129   4.833  12.386 -0.2100 -2.6408  1.8699
  913MOL0     H23237  10.714   4.999  12.266 -0.9270  0.7321 -1.6863
  913MOL0     H23238  10.492   5.074  12.213 -1.2089 -1.0199 -0.4771
  913MOL0     H23239   9.891   4.429  11.022  1.5322  0.5648 -1.7237
  913MOL0     H23240   9.995   4.283  10.855  0.0320 -0.9766  1.4198
  913MOL0     H23241  10.067   4.073  10.549  0.2922  0.4243 -0.2029
  913MOL0     H23242  10.193   4.006  10.339 -1.4336  1.0866 -3.7330
  913MOL0     H23243  10.229   3.774  10.273 -3.1678  3.5466  1.3441
  913MOL0     H23244  10.290   3.878  10.139 -0.1259  0.8686  0.5683
  913MOL0     H23245  10.195   3.693   9.981 -4.3921 -2.4999  0.5862
  913MOL0     H23246  10.164   3.599  10.115  1.5939 -0.3620  2.5336
  913MOL0     H23247  10.366   3.498  10.064  0.2612 -0.2723  1.2141
  913MOL0     H23248  10.442   3.636  10.163  0.3173  3.4301 -0.8832
  913MOL0     H23249  10.398   3.652   9.865  1.5667  1.4370 -1.5646
  913MOL0     H23250  10.471   3.768   9.973  2.5326 -1.3381  3.1766
  913MOL0     H23251  10.753   3.439   9.895 -1.1945 -0.6274 -2.6165
  913MOL0     H23252   9.843   3.818  10.194  0.1298 -0.1693  1.2352
  913MOL0     H23253   9.655   3.776  10.409  0.1714 -0.3818  0.6267
  913MOL0     H23254   9.620   3.949  10.449 -0.2851 -0.9392  0.8012
  913MOL0     H23255   9.643   3.893  10.278  1.9794  1.1403 -0.8642
  914MOL0     O23256  11.074  10.122   1.736  0.2574 -0.1175 -0.6919
  914MOL0     C23257  11.040  10.088   1.626  0.6835 -1.3415  0.5251
  914MOL0     O23258  11.105  10.120   1.510 -0.6590  0.9606 -0.4648
  914MOL0     C23259  11.229  10.182   1.506  0.0027  0.2739 -0.1976
  914MOL0     C23260  11.260  10.286   1.596 -0.4092 -0.0220 -0.0692
  914MOL0     C23261  11.396  10.340   1.596  0.1057  0.3715  0.0829
  914MOL0     C23262  11.487  10.293   1.510  0.6388  0.1400  0.3061
  914MOL0     O23263  11.610  10.358   1.500  0.3959  0.2473 -0.3046
  914MOL0     C23264  11.626  10.490   1.549 -0.7328  0.3143 -0.1385
  914MOL0     C23265  11.734  10.566   1.483  0.0394 -0.2733  0.2745
  914MOL0     C23266  11.862  10.483   1.514  1.2936  0.1149 -0.2432
  914MOL0     C23267  11.984  10.553   1.470  0.1109 -0.7911 -0.3367
  914MOL0     C23268  12.104  10.461   1.494 -0.7281  0.2998  0.2608
  914MOL0     C23269  12.230  10.542   1.470 -0.0560  0.2848  1.2063
  914MOL0     C23270  12.332  10.460   1.389  0.1040 -0.2636 -0.9064
  914MOL0     C23271  12.431  10.370   1.469  0.6580 -0.0639 -0.2420
  914MOL0     N23272  12.554  10.351   1.395  0.1438  0.5192 -0.2859
  914MOL0     C23273  12.664  10.422   1.431 -0.0521 -0.0281  0.4822
  914MOL0     C23274  12.757  10.376   1.349  0.4134  0.4522 -0.8096
  914MOL0     C23275  12.906  10.418   1.333 -0.4038 -0.0390  0.0508
  914MOL0     C23276  12.969  10.405   1.468 -0.1555  0.2830 -0.6955
  914MOL0     C23277  12.915  10.509   1.568  0.2175  0.4399  0.3143
  914MOL0     C23278  13.007  10.545   1.677 -0.5115 -0.4190 -0.6359
  914MOL0     O23279  13.097  10.637   1.616  0.0783 -0.9112 -0.8223
  914MOL0     C23280  13.197  10.687   1.697 -0.1659 -0.2823 -0.1659
  914MOL0     C23281  13.239  10.633   1.816 -0.1474 -0.8197 -0.3422
  914MOL0     C23282  13.343  10.695   1.890  0.6885 -0.0714  0.1421
  914MOL0     C23283  13.407  10.804   1.837 -0.2758 -0.2957  0.0970
  914MOL0     C23284  13.513  10.871   1.914  0.2127  0.0271  0.2064
  914MOL0     O23285  13.532  10.824   2.041 -0.3266 -0.5817 -0.5531
  914MOL0     C23286  13.664  10.832   2.080  0.3798 -0.0358 -0.2893
  914MOL0     C23287  13.736  10.710   2.082 -0.2025 -0.3196  0.3538
  914MOL0     C23288  13.874  10.707   2.123  0.2569  0.7175 -0.3413
  914MOL0     C23289  13.929  10.827   2.159 -0.5230 -0.2373  0.5676
  914MOL0     O23290  14.066  10.834   2.164  0.5359  0.1288  0.4661
  914MOL0     C23291  14.151  10.936   2.208 -0.2884 -0.2871 -0.2795
  914MOL0     C23292  14.297  10.900   2.176  0.3565 -0.1878  0.3783
  914MOL0     C23293  14.352  10.779   2.245  0.2612 -0.5641 -0.5496
  914MOL0     C23294  14.347  10.793   2.401  0.7639  0.6707 -0.3591
  914MOL0     C23295  14.461  10.708   2.449  0.3266  0.6947  0.1753
  914MOL0     C23296  14.469  10.681   2.604 -0.3192 -0.0420  0.2114
  914MOL0     C23297  14.604  10.614   2.641 -0.2371  0.1767 -0.6666
  914MOL0     C23298  14.599  10.568   2.787 -0.3096 -0.1065  0.0712
  914MOL0    Cl23299  14.744  10.483   2.841 -0.3065  0.0308 -0.0765
  914MOL0     C23300  13.859  10.947   2.167  0.5090 -0.5112 -0.3481
  914MOL0     C23301  13.725  10.946   2.130  0.2729  0.0169  0.7062
  914MOL0     O23302  13.584  10.956   1.862  0.6460 -0.1592 -0.4239
  914MOL0     C23303  13.362  10.868   1.716 -0.2703 -0.1268  0.6650
  914MOL0     C23304  13.256  10.800   1.647  0.2478 -0.1411 -0.8512
  914MOL0     N23305  12.710  10.258   1.282  0.6582 -0.3294 -0.3161
  914MOL0     N23306  12.584  10.257   1.299  0.4714 -0.3390 -0.8078
  914MOL0     C23307  11.454  10.187   1.429 -0.1803 -0.2191  0.2852
  914MOL0     C23308  11.329  10.136   1.420  0.1001  0.5651 -0.3285
  914MOL0     C23309  10.910  10.027   1.603  1.2099  0.4140  0.3716
  914MOL0     C23310  10.849  10.018   1.479  0.0610  0.2985 -0.3650
  914MOL0     C23311  10.725   9.956   1.455  0.2095  0.6902 -0.0912
  914MOL0     C23312  10.656   9.896   1.563 -0.0440 -0.2849 -0.2665
  914MOL0     O23313  10.532   9.835   1.549  0.2117  0.3658 -0.7074
  914MOL0     C23314  10.428   9.912   1.489  0.7098 -0.4311 -0.0290
  914MOL0     C23315  10.293   9.863   1.555 -0.2649  0.2427  0.4204
  914MOL0     C23316  10.178   9.962   1.528 -0.2352  0.8313  0.4302
  914MOL0     C23317  10.064   9.950   1.636  0.1425 -0.0474  0.0959
  914MOL0     C23318   9.964   9.850   1.599 -0.9675  0.2414 -0.1465
  914MOL0     C23319   9.892   9.756   1.580  0.6476  0.9099  0.2378
  914MOL0     C23320  10.715   9.906   1.684 -0.1067 -0.2902 -0.7216
  914MOL0     C23321  10.834   9.966   1.714 -1.1003  0.2576  0.8741
  914MOL0     C23322  10.867   9.955   1.864 -0.1527  0.3258  0.5951
  914MOL0     H23323  11.190  10.320   1.672 -0.0163 -0.2977  0.4232
  914MOL0     H23324  11.414  10.422   1.665  0.3937  0.8447 -0.5454
  914MOL0     H23325  11.534  10.549   1.542 -0.4915  0.6813 -0.2191
  914MOL0     H23326  11.644  10.479   1.656 -0.9711  2.5939  0.1762
  914MOL0     H23327  11.755  10.665   1.526  1.3165  0.6717 -2.3138
  914MOL0     H23328  11.720  10.570   1.375 -1.3832 -5.0619  0.0775
  914MOL0     H23329  11.856  10.392   1.453 -0.6443  0.7186 -1.0320
  914MOL0     H23330  11.864  10.445   1.616  1.8676 -1.6013 -0.8513
  914MOL0     H23331  11.991  10.574   1.363  2.9649 -2.2044 -0.5427
  914MOL0     H23332  11.996  10.651   1.517 -0.1870 -0.2708 -1.3273
  914MOL0     H23333  12.107  10.414   1.593  2.2431 -1.8247 -0.6941
  914MOL0     H23334  12.110  10.382   1.419  0.9867  1.5564 -1.0163
  914MOL0     H23335  12.201  10.625   1.405 -2.6739 -0.5508  1.1649
  914MOL0     H23336  12.260  10.603   1.556  2.7537  1.6322 -0.5514
  914MOL0     H23337  12.393  10.534   1.337 -1.1209 -0.5877 -2.9105
  914MOL0     H23338  12.295  10.393   1.311 -0.9695  0.1308 -0.7454
  914MOL0     H23339  12.450  10.417   1.566  0.9076  1.7750 -1.1450
  914MOL0     H23340  12.384  10.271   1.478  0.7842 -0.3503 -2.3542
  914MOL0     H23341  12.665  10.510   1.495  4.1676  0.7224 -0.3232
  914MOL0     H23342  12.951  10.354   1.257 -2.4704 -0.1440 -1.1534
  914MOL0     H23343  12.896  10.522   1.299 -0.0953 -0.5187 -1.5705
  914MOL0     H23344  12.966  10.303   1.509  0.7111  1.3388  2.3052
  914MOL0     H23345  13.074  10.426   1.447  0.0155 -0.5727 -0.7454
  914MOL0     H23346  12.826  10.470   1.618 -0.9903  1.0121 -1.2846
  914MOL0     H23347  12.885  10.595   1.508 -0.6457  0.0198  0.1337
  914MOL0     H23348  13.039  10.451   1.724 -4.2621 -1.4045  0.2986
  914MOL0     H23349  12.951  10.598   1.755 -0.9501 -0.6558 -0.7864
  914MOL0     H23350  13.211  10.534   1.851  3.1253 -1.2265  1.5470
  914MOL0     H23351  13.376  10.646   1.981 -2.4536 -0.7022  1.0686
  914MOL0     H23352  13.678  10.630   2.038 -1.3761  1.3798 -1.3901
  914MOL0     H23353  13.924  10.612   2.108 -2.1681 -0.7437  0.4419
  914MOL0     H23354  14.111  11.020   2.150  0.1273 -0.5126 -0.8917
  914MOL0     H23355  14.141  10.951   2.316 -0.9352  1.5371 -0.5528
  914MOL0     H23356  14.300  10.877   2.069 -2.1396 -2.9894  0.7505
  914MOL0     H23357  14.357  10.989   2.196 -0.7513  0.9684 -1.1778
  914MOL0     H23358  14.317  10.681   2.212 -0.7051 -1.0678  1.7696
  914MOL0     H23359  14.458  10.790   2.219  0.7584 -0.8598  1.1825
  914MOL0     H23360  14.251  10.754   2.435  0.9819  0.5383  0.1174
  914MOL0     H23361  14.364  10.893   2.441  0.5596  1.0447 -1.1752
  914MOL0     H23362  14.554  10.751   2.412  0.1420  0.7583 -0.2153
  914MOL0     H23363  14.453  10.606   2.408  0.9753  1.3715 -1.6990
  914MOL0     H23364  14.465  10.779   2.653 -2.2468  0.7160 -1.3344
  914MOL0     H23365  14.381  10.624   2.634  0.9591 -1.8489  0.6502
  914MOL0     H23366  14.685  10.688   2.642 -1.6547  1.9689  3.4611
  914MOL0     H23367  14.636  10.530   2.578  1.7659  1.2312 -1.1614
  914MOL0     H23368  14.583  10.659   2.845  0.7267 -0.3932  0.8291
  914MOL0     H23369  14.514  10.501   2.802 -0.0117 -1.0355 -2.0327
  914MOL0     H23370  13.905  11.045   2.175 -1.2633  0.6412 -2.7834
  914MOL0     H23371  13.667  11.037   2.114 -2.6057 -1.9109 -0.6817
  914MOL0     H23372  13.409  10.956   1.673 -1.4157 -0.0955 -0.5970
  914MOL0     H23373  13.217  10.840   1.554 -3.0351 -0.0687  0.4309
  914MOL0     H23374  11.534  10.140   1.372  1.2302  1.4932  0.7254
  914MOL0     H23375  11.311  10.053   1.353  1.5992 -0.3528  0.3557
  914MOL0     H23376  10.902  10.054   1.391 -0.7192  1.4275 -0.3902
  914MOL0     H23377  10.689   9.951   1.353 -0.1215  0.8296  0.0164
  914MOL0     H23378  10.422   9.904   1.380 -0.4960  0.4006 -0.0441
  914MOL0     H23379  10.430  10.018   1.515 -0.3261 -0.7628  1.5600
  914MOL0     H23380  10.305   9.848   1.663 -1.6335  3.1121  1.0641
  914MOL0     H23381  10.267   9.763   1.518 -0.3752 -0.3759  2.0953
  914MOL0     H23382  10.147   9.956   1.423 -0.3822 -1.7211  0.5506
  914MOL0     H23383  10.218  10.062   1.545  0.7967  0.3397  0.9800
  914MOL0     H23384  10.113   9.928   1.731  0.5212  0.1416 -0.0527
  914MOL0     H23385  10.006  10.041   1.651 -0.1629 -0.2870  0.3705
  914MOL0     H23386   9.816   9.682   1.562 -1.1602  2.7483  0.0010
  914MOL0     H23387  10.659   9.869   1.770 -4.4529  0.6261 -2.9134
  914MOL0     H23388  10.931   9.873   1.897 -0.9349 -0.8179 -0.6341
  914MOL0     H23389  10.893  10.056   1.895 -0.1049  0.2378  0.8479
  914MOL0     H23390  10.781   9.937   1.929  0.1693 -1.4269  0.5898
  915MOL0     O23391   1.544   6.993   3.128  0.1259 -0.5694  0.4361
  915MOL0     C23392   1.482   7.077   3.058  0.2690  0.5189  0.0682
  915MOL0     O23393   1.528   7.195   3.035  0.0976  0.3484 -0.4048
  915MOL0     C23394   1.663   7.203   3.034  0.4131  0.6015  0.7920
  915MOL0     C23395   1.716   7.306   3.108 -0.1683 -0.1416 -0.2370
  915MOL0     C23396   1.855   7.328   3.108  0.2718 -0.5203 -1.0262
  915MOL0     C23397   1.944   7.250   3.036  0.3716  0.1439  0.0405
  915MOL0     O23398   2.081   7.275   3.035 -0.2572 -0.3630 -0.6256
  915MOL0     C23399   2.150   7.265   2.905 -0.1431 -0.3285 -0.6472
  915MOL0     C23400   2.299   7.290   2.919 -0.4063  0.1360 -0.0649
  915MOL0     C23401   2.373   7.193   3.010 -0.5890  0.2664  0.1483
  915MOL0     C23402   2.524   7.223   3.009 -0.6119 -0.0954  1.2095
  915MOL0     C23403   2.594   7.103   3.075  0.3620 -0.1240 -0.0548
  915MOL0     C23404   2.736   7.123   3.075 -0.2561 -0.3512 -0.3945
  915MOL0     C23405   2.807   7.030   3.179 -0.0317 -0.3475  0.2766
  915MOL0     C23406   2.949   7.076   3.207 -0.7756 -0.5590  0.5646
  915MOL0     N23407   2.958   7.207   3.278 -0.1641 -0.6351  0.0246
  915MOL0     C23408   2.946   7.213   3.420  0.3537  0.1148 -0.0502
  915MOL0     C23409   2.968   7.341   3.436  1.0855 -0.7632  0.3643
  915MOL0     C23410   2.979   7.422   3.563  0.1087 -0.5636  0.6302
  915MOL0     C23411   3.118   7.401   3.639  0.4510 -1.1687 -0.4975
  915MOL0     C23412   3.239   7.393   3.548  1.0040 -0.6597 -0.1016
  915MOL0     C23413   3.350   7.346   3.633  0.5760  0.1616 -0.8868
  915MOL0     O23414   3.390   7.443   3.736 -0.3722 -0.3736  1.4385
  915MOL0     C23415   3.523   7.429   3.763  0.3680  0.1450 -0.0873
  915MOL0     C23416   3.614   7.543   3.760 -0.7741  0.5557 -0.5725
  915MOL0     C23417   3.749   7.525   3.780 -0.5795  0.1995  0.1759
  915MOL0     C23418   3.808   7.396   3.809  0.5871  0.5667  0.6450
  915MOL0     C23419   3.953   7.379   3.833  0.1235  0.3213 -0.8075
  915MOL0     O23420   4.023   7.502   3.848  0.9795  0.2645  0.3955
  915MOL0     C23421   4.145   7.504   3.897  0.2468 -0.5587  0.3393
  915MOL0     C23422   4.197   7.438   4.010 -0.4884 -0.2393 -1.0697
  915MOL0     C23423   4.332   7.445   4.058 -0.1981 -0.2655  0.3648
  915MOL0     C23424   4.426   7.511   3.978  0.6554 -0.6563 -1.0864
  915MOL0     O23425   4.556   7.521   4.027  0.4504 -0.2593  0.5220
  915MOL0     C23426   4.650   7.606   3.954 -0.1471  0.3300  0.1613
  915MOL0     C23427   4.798   7.573   3.979 -0.2380 -0.4236 -0.3405
  915MOL0     C23428   4.903   7.657   3.916  0.3229 -0.4998  0.1195
  915MOL0     C23429   5.043   7.609   3.941 -0.1780  0.3218 -0.7646
  915MOL0     C23430   5.155   7.704   3.882  0.7360  0.5734  0.7305
  915MOL0     C23431   5.120   7.735   3.738  1.0528  0.9787 -0.7852
  915MOL0     C23432   5.247   7.769   3.664  0.4007  0.6119  0.6563
  915MOL0     C23433   5.217   7.793   3.504 -0.2099  0.0474  0.2357
  915MOL0    Cl23434   5.358   7.870   3.415 -0.0341  0.6413  0.0073
  915MOL0     C23435   4.376   7.591   3.868  0.0829 -0.3078  0.6815
  915MOL0     C23436   4.240   7.586   3.828 -0.0734  0.2317 -0.8284
  915MOL0     O23437   4.002   7.268   3.863  0.6543  0.0670 -1.0777
  915MOL0     C23438   3.717   7.284   3.802  0.5585  0.1471 -0.3355
  915MOL0     C23439   3.578   7.303   3.785  0.4996  0.4403  0.6560
  915MOL0     N23440   2.998   7.400   3.317 -0.0353  0.2212 -1.0302
  915MOL0     N23441   2.987   7.325   3.220 -0.0412 -0.3908  0.1721
  915MOL0     C23442   1.884   7.151   2.951 -0.2171 -0.0551  0.2362
  915MOL0     C23443   1.746   7.134   2.945 -0.3622  0.7169 -0.5944
  915MOL0     C23444   1.348   7.036   3.007  0.1676 -0.0012 -1.1130
  915MOL0     C23445   1.278   7.113   2.909 -0.1304 -0.1698  0.2630
  915MOL0     C23446   1.154   7.075   2.860 -0.0623  0.3836 -0.0981
  915MOL0     C23447   1.097   6.956   2.905  0.0198 -0.8429 -0.1535
  915MOL0     O23448   0.981   6.908   2.839 -0.3227  0.1195  0.1000
  915MOL0     C23449   0.898   6.820   2.912 -0.4216  0.2808  0.2391
  915MOL0     C23450   0.759   6.815   2.834 -0.6262 -0.2319 -0.0822
  915MOL0     C23451   0.664   6.713   2.903  0.3674  0.2370 -0.1935
  915MOL0     C23452   0.545   6.672   2.803  0.6791 -0.3052  0.2324
  915MOL0     C23453   0.479   6.545   2.852 -0.4020 -1.0158  0.3691
  915MOL0     C23454   0.418   6.450   2.895 -0.2220 -0.6195 -0.0194
  915MOL0     C23455   1.157   6.885   3.009  0.5540 -0.2640  0.5665
  915MOL0     C23456   1.274   6.926   3.058 -0.0535 -0.3852 -0.6561
  915MOL0     C23457   1.320   6.845   3.179  0.5301  0.4586  0.0901
  915MOL0     H23458   1.639   7.362   3.161 -0.6287 -1.1620  0.1860
  915MOL0     H23459   1.894   7.402   3.177 -2.4839 -0.6237  0.7645
  915MOL0     H23460   2.141   7.167   2.858  0.3831  1.1165 -4.0560
  915MOL0     H23461   2.121   7.339   2.830  2.2731  2.8525  1.2662
  915MOL0     H23462   2.303   7.391   2.960 -2.8348  0.0741  0.4723
  915MOL0     H23463   2.354   7.284   2.825  0.4943 -4.9900  0.4974
  915MOL0     H23464   2.355   7.093   2.969  2.6717 -0.1671 -0.5236
  915MOL0     H23465   2.338   7.197   3.113  2.2953  3.7985  1.2172
  915MOL0     H23466   2.558   7.249   2.908  0.3500  0.8216  1.7459
  915MOL0     H23467   2.533   7.314   3.069  0.8515  0.4927  0.1564
  915MOL0     H23468   2.553   7.091   3.176 -0.1391  1.1655 -0.0789
  915MOL0     H23469   2.566   7.010   3.024 -2.4793 -1.5719  3.6698
  915MOL0     H23470   2.769   7.109   2.972 -3.0215  0.8527 -1.5347
  915MOL0     H23471   2.751   7.229   3.097 -1.6550  0.1731 -1.7562
  915MOL0     H23472   2.816   6.929   3.138 -0.6592 -0.5741  0.6856
  915MOL0     H23473   2.750   7.027   3.272  0.3963  1.7083  0.6493
  915MOL0     H23474   3.001   7.001   3.267  0.5626  0.2347  0.4497
  915MOL0     H23475   3.004   7.081   3.113  2.8924  1.2254  2.5986
  915MOL0     H23476   2.921   7.136   3.493  0.5899 -2.0216 -2.1051
  915MOL0     H23477   2.959   7.529   3.555 -2.0731 -1.0134 -1.1858
  915MOL0     H23478   2.902   7.385   3.631  1.5572 -1.3435  1.8976
  915MOL0     H23479   3.123   7.486   3.707  0.3475 -0.7101 -1.0571
  915MOL0     H23480   3.114   7.311   3.701  0.4851 -1.4236 -0.8608
  915MOL0     H23481   3.261   7.495   3.513 -0.3337  0.6867  2.6707
  915MOL0     H23482   3.218   7.333   3.459 -0.4495  1.2774 -1.1406
  915MOL0     H23483   3.431   7.318   3.565  1.7032  0.2826  0.3598
  915MOL0     H23484   3.320   7.254   3.684 -1.7228  0.1968 -2.0364
  915MOL0     H23485   3.580   7.645   3.747 -2.8880 -0.1489 -0.9635
  915MOL0     H23486   3.802   7.619   3.776 -0.9542  0.3945 -0.2712
  915MOL0     H23487   4.126   7.386   4.074  0.5711 -0.8735 -0.3878
  915MOL0     H23488   4.355   7.387   4.147  3.7849 -1.4835 -1.2371
  915MOL0     H23489   4.648   7.590   3.846  0.8190 -1.0894  0.3259
  915MOL0     H23490   4.629   7.710   3.979  1.0641  0.3473  1.1722
  915MOL0     H23491   4.801   7.592   4.087  1.2732 -0.4636 -0.3561
  915MOL0     H23492   4.821   7.467   3.967  2.3982 -0.2945  2.4107
  915MOL0     H23493   4.882   7.668   3.809  0.4625  1.8003  0.2957
  915MOL0     H23494   4.898   7.754   3.966 -0.7299 -0.4307 -0.1003
  915MOL0     H23495   5.056   7.510   3.896 -2.2752 -1.2422  1.7883
  915MOL0     H23496   5.057   7.612   4.050 -0.4951  4.0880 -0.7204
  915MOL0     H23497   5.245   7.643   3.881 -0.3985 -1.2716  2.4689
  915MOL0     H23498   5.178   7.794   3.939  2.0151  1.4794 -1.1317
  915MOL0     H23499   5.072   7.646   3.695  0.0864 -0.0434  2.1075
  915MOL0     H23500   5.044   7.812   3.724 -1.1124 -1.0349 -0.7848
  915MOL0     H23501   5.321   7.689   3.674  1.8722  1.5364 -1.9734
  915MOL0     H23502   5.288   7.864   3.700  2.5533  0.8541 -2.1040
  915MOL0     H23503   5.187   7.698   3.458 -0.3423 -0.7419  1.8840
  915MOL0     H23504   5.129   7.858   3.498 -0.3023  0.0241  1.1489
  915MOL0     H23505   4.429   7.657   3.800 -1.5920  1.3671  0.9009
  915MOL0     H23506   4.206   7.643   3.742 -3.0019 -2.3442 -1.5681
  915MOL0     H23507   3.761   7.185   3.802  0.9819  0.3349 -0.8672
  915MOL0     H23508   3.499   7.229   3.786 -0.5092  1.4805  0.7804
  915MOL0     H23509   1.940   7.098   2.875 -0.3177  1.5276 -1.0008
  915MOL0     H23510   1.699   7.052   2.892  0.5839  0.0592 -0.4286
  915MOL0     H23511   1.332   7.198   2.868 -0.5764 -0.4405 -0.9151
  915MOL0     H23512   1.107   7.132   2.780 -1.1562 -2.3357 -1.5030
  915MOL0     H23513   0.890   6.849   3.017 -1.9897 -4.0025  1.5182
  915MOL0     H23514   0.949   6.724   2.908  0.7149  0.8911 -0.1396
  915MOL0     H23515   0.781   6.767   2.738 -1.7933  1.2566 -1.1484
  915MOL0     H23516   0.714   6.913   2.818  0.7721  0.2124 -1.5423
  915MOL0     H23517   0.633   6.763   2.995 -0.9157 -0.5288 -0.1816
  915MOL0     H23518   0.722   6.624   2.927 -1.3813 -0.6522  0.8597
  915MOL0     H23519   0.485   6.763   2.810  1.1808  0.0414  0.0503
  915MOL0     H23520   0.573   6.661   2.698  0.4793  1.0220  0.0206
  915MOL0     H23521   0.361   6.363   2.920 -0.4718 -0.4977 -0.1630
  915MOL0     H23522   1.108   6.798   3.052 -1.0411  0.2743 -0.0545
  915MOL0     H23523   1.366   6.905   3.257  2.0896  1.6353 -1.6480
  915MOL0     H23524   1.237   6.787   3.220  0.6226  0.6960  0.6233
  915MOL0     H23525   1.400   6.775   3.153  0.0916 -1.1372  2.6914
  916MOL0     O23526  10.965   6.394   6.883 -0.3430 -0.2208  0.5255
  916MOL0     C23527  10.870   6.430   6.812  0.0617  0.1897 -0.8315
  916MOL0     O23528  10.886   6.505   6.698 -0.2178 -0.3549  0.0259
  916MOL0     C23529  11.014   6.556   6.692 -0.6321 -1.0844  0.9862
  916MOL0     C23530  11.113   6.475   6.633  0.7915  0.0152 -0.6361
  916MOL0     C23531  11.248   6.516   6.610  0.5665  0.4851 -0.4405
  916MOL0     C23532  11.277   6.645   6.661 -0.9646  0.0853 -0.2431
  916MOL0     O23533  11.406   6.701   6.650  0.3983 -0.4122 -0.2163
  916MOL0     C23534  11.506   6.610   6.612 -0.6604  0.5343 -0.1952
  916MOL0     C23535  11.642   6.660   6.663 -0.3162  0.6957  0.1419
  916MOL0     C23536  11.751   6.561   6.624 -0.5309 -0.2826  0.3577
  916MOL0     C23537  11.881   6.614   6.683 -0.2495  0.4939  1.1657
  916MOL0     C23538  12.003   6.528   6.637  0.4822  0.0869 -0.1896
  916MOL0     C23539  12.119   6.578   6.726  0.1239 -0.3105  0.7768
  916MOL0     C23540  12.243   6.494   6.695  0.1505  0.2493  0.0666
  916MOL0     C23541  12.321   6.532   6.574 -0.4787 -0.3998 -0.9884
  916MOL0     N23542  12.464   6.490   6.574 -0.3219  0.4310  0.1118
  916MOL0     C23543  12.567   6.528   6.654 -0.4115 -0.1282 -0.0542
  916MOL0     C23544  12.679   6.461   6.618  0.0279 -0.1073  0.1087
  916MOL0     C23545  12.821   6.486   6.674  0.1022 -0.0144  0.5620
  916MOL0     C23546  12.925   6.502   6.565  0.4036 -0.2724 -0.0827
  916MOL0     C23547  13.067   6.528   6.619 -0.0099  0.8803 -0.5167
  916MOL0     C23548  13.081   6.657   6.705  0.1105 -0.3403  0.6705
  916MOL0     O23549  13.072   6.783   6.636  0.2787  0.1422 -0.2400
  916MOL0     C23550  13.194   6.844   6.592  0.8113 -0.5815  0.3080
  916MOL0     C23551  13.194   6.981   6.567  0.0213 -0.9474  0.3211
  916MOL0     C23552  13.305   7.055   6.529  0.3519 -0.4519  0.0876
  916MOL0     C23553  13.426   6.983   6.498  1.0128  0.0948 -0.8797
  916MOL0     C23554  13.545   7.057   6.450 -0.8587  0.1342  0.0702
  916MOL0     O23555  13.560   7.189   6.474 -0.1151 -0.8715 -0.2218
  916MOL0     C23556  13.682   7.241   6.440  0.1566  0.8067  0.7415
  916MOL0     C23557  13.671   7.351   6.356 -0.9637  0.0335 -0.3436
  916MOL0     C23558  13.787   7.424   6.307  0.9529 -1.1564  0.4857
  916MOL0     C23559  13.913   7.371   6.334 -0.4041  0.0135 -1.0390
  916MOL0     O23560  14.035   7.416   6.284 -0.0004 -0.0422 -0.3332
  916MOL0     C23561  14.043   7.556   6.252 -0.3071 -0.1374  0.7382
  916MOL0     C23562  14.065   7.584   6.102  0.4408 -0.8848  0.3764
  916MOL0     C23563  13.935   7.554   6.026 -0.2561  1.0322 -0.7786
  916MOL0     C23564  13.956   7.524   5.874  0.1539  0.1794 -0.3261
  916MOL0     C23565  13.833   7.526   5.789 -0.3050 -0.3513 -0.1809
  916MOL0     C23566  13.715   7.422   5.810  0.1378  0.3964  0.2489
  916MOL0     C23567  13.585   7.447   5.723 -0.2429  0.3342  0.4378
  916MOL0     C23568  13.484   7.338   5.732  0.0552  0.1362  0.6191
  916MOL0    Cl23569  13.343   7.373   5.623  0.2669 -0.1114 -0.4150
  916MOL0     C23570  13.924   7.269   6.414 -0.1635 -0.0103  0.0626
  916MOL0     C23571  13.809   7.204   6.467 -0.6470 -0.2789  0.6560
  916MOL0     O23572  13.628   6.980   6.397  0.4820 -0.5066  0.4287
  916MOL0     C23573  13.427   6.842   6.520 -0.7245 -0.6135 -0.2084
  916MOL0     C23574  13.318   6.787   6.578 -0.3587  0.7907  0.1242
  916MOL0     N23575  12.641   6.376   6.508 -0.3580  0.2142 -0.2027
  916MOL0     N23576  12.513   6.397   6.484  0.0287 -1.1339 -0.0997
  916MOL0     C23577  11.181   6.733   6.727 -0.0227 -0.2902 -0.3343
  916MOL0     C23578  11.046   6.689   6.729  0.5352 -0.4782  0.6860
  916MOL0     C23579  10.730   6.409   6.867  0.4315 -0.6809  0.3356
  916MOL0     C23580  10.723   6.329   6.979  0.0582  0.1704  0.2608
  916MOL0     C23581  10.598   6.284   7.029 -0.0854 -0.4232  0.7637
  916MOL0     C23582  10.474   6.332   6.974 -0.0330 -0.2584  0.1721
  916MOL0     O23583  10.339   6.288   7.007 -0.0471 -0.3335 -0.7311
  916MOL0     C23584  10.317   6.243   7.141  0.2292 -0.9972  0.6975
  916MOL0     C23585  10.183   6.169   7.183  0.0927  0.1380 -0.5557
  916MOL0     C23586  10.058   6.257   7.175 -0.0910  0.0354  0.6885
  916MOL0     C23587  10.042   6.365   7.285 -0.9745 -0.0157  0.2720
  916MOL0     C23588  10.027   6.506   7.223 -0.5490  0.1997 -1.1998
  916MOL0     C23589  10.011   6.614   7.173 -0.4426  0.7536  0.4226
  916MOL0     C23590  10.480   6.423   6.856 -1.4983 -0.0621  0.1716
  916MOL0     C23591  10.608   6.461   6.804 -0.5721 -0.7871 -0.0431
  916MOL0     C23592  10.608   6.565   6.699 -0.3119 -0.8052 -0.3858
  916MOL0     H23593  11.088   6.378   6.592  1.6209 -0.0336 -1.0341
  916MOL0     H23594  11.320   6.443   6.572  0.6417  0.0621  0.4717
  916MOL0     H23595  11.490   6.512   6.655 -0.4146  0.3449 -0.5272
  916MOL0     H23596  11.511   6.595   6.503  1.4373 -0.3330 -0.0247
  916MOL0     H23597  11.636   6.655   6.773  0.6590 -1.1244  0.1645
  916MOL0     H23598  11.661   6.760   6.625  1.8294 -0.1836 -1.3151
  916MOL0     H23599  11.770   6.560   6.516  3.1336 -0.4689  0.8454
  916MOL0     H23600  11.731   6.455   6.643  0.7543 -0.7941 -0.9509
  916MOL0     H23601  11.894   6.719   6.658 -0.9802  0.2380 -0.3886
  916MOL0     H23602  11.871   6.610   6.792 -0.0415 -0.0787  1.1696
  916MOL0     H23603  11.979   6.421   6.646 -0.4409  0.2880 -0.1539
  916MOL0     H23604  12.017   6.539   6.529 -3.1078  1.1882 -0.6839
  916MOL0     H23605  12.142   6.681   6.699 -0.1849 -0.2591  0.7007
  916MOL0     H23606  12.088   6.558   6.829 -1.8283 -0.0127  0.2823
  916MOL0     H23607  12.228   6.387   6.707 -0.1751  0.2509 -0.3149
  916MOL0     H23608  12.305   6.516   6.782  1.5043  1.9026 -1.2244
  916MOL0     H23609  12.268   6.483   6.492 -2.4332 -1.6864  0.9554
  916MOL0     H23610  12.334   6.639   6.556  1.9208 -0.6501 -1.1886
  916MOL0     H23611  12.576   6.609   6.725  0.7750  1.0866 -1.4974
  916MOL0     H23612  12.810   6.579   6.731  0.6306  1.7074 -1.9554
  916MOL0     H23613  12.854   6.395   6.724 -0.7940 -0.7437 -0.1338
  916MOL0     H23614  12.904   6.417   6.500 -0.6746  0.5442 -0.8284
  916MOL0     H23615  12.905   6.588   6.500 -0.6152 -0.7922 -0.4757
  916MOL0     H23616  13.140   6.541   6.539  0.1090  0.2394 -0.5116
  916MOL0     H23617  13.086   6.435   6.674 -3.7873 -0.9065 -1.9380
  916MOL0     H23618  13.178   6.645   6.754 -0.6687 -0.1751  2.3237
  916MOL0     H23619  13.004   6.646   6.782  1.6713 -2.6439  2.0278
  916MOL0     H23620  13.106   7.044   6.577  0.3917 -0.6176  1.8110
  916MOL0     H23621  13.310   7.162   6.514  0.4864 -0.2217  1.6955
  916MOL0     H23622  13.572   7.396   6.348 -0.4802  1.6613  2.0032
  916MOL0     H23623  13.781   7.517   6.252 -2.0553 -2.1798 -1.1791
  916MOL0     H23624  13.958   7.615   6.289 -0.4976  0.7957 -1.0976
  916MOL0     H23625  14.130   7.589   6.309 -1.2306 -0.2875  2.2824
  916MOL0     H23626  14.096   7.689   6.096  1.5261 -1.1531  1.1426
  916MOL0     H23627  14.152   7.528   6.067  0.2417  0.6446 -2.9935
  916MOL0     H23628  13.883   7.464   6.061 -1.4870  0.7952 -2.9904
  916MOL0     H23629  13.858   7.630   6.042 -0.5594  0.9626 -1.7949
  916MOL0     H23630  13.990   7.421   5.864 -0.8922 -0.0729 -1.5437
  916MOL0     H23631  14.037   7.587   5.835  1.1549 -1.6867 -1.3821
  916MOL0     H23632  13.884   7.518   5.692  1.8259  0.6996  0.8068
  916MOL0     H23633  13.790   7.627   5.793 -0.1240 -0.2109 -1.3777
  916MOL0     H23634  13.750   7.321   5.788 -0.7757 -0.0437  0.7561
  916MOL0     H23635  13.678   7.428   5.913  0.0150  0.0215  0.2270
  916MOL0     H23636  13.616   7.452   5.618  0.5993 -0.5727  0.6298
  916MOL0     H23637  13.539   7.540   5.759  0.6725  1.4024 -1.0366
  916MOL0     H23638  13.535   7.249   5.693 -2.1588 -0.7505 -0.4357
  916MOL0     H23639  13.444   7.340   5.834  0.4312 -0.3787  0.7809
  916MOL0     H23640  14.023   7.229   6.435 -0.6576 -1.4064 -0.1350
  916MOL0     H23641  13.824   7.109   6.518  1.2619  0.0362  0.7608
  916MOL0     H23642  13.523   6.792   6.516 -1.5021 -2.2548  0.7662
  916MOL0     H23643  13.332   6.685   6.611 -1.1973  0.8425  0.6926
  916MOL0     H23644  11.204   6.830   6.770 -3.1920 -0.1184  1.2886
  916MOL0     H23645  10.972   6.754   6.773  1.2731  0.1693  1.0071
  916MOL0     H23646  10.803   6.275   7.030  0.8828 -1.5885 -2.6834
  916MOL0     H23647  10.599   6.210   7.108 -1.2105  0.7862  1.9590
  916MOL0     H23648  10.334   6.330   7.205 -2.8313  0.8224 -0.7370
  916MOL0     H23649  10.393   6.171   7.172  0.5493  0.5196  3.8936
  916MOL0     H23650  10.204   6.128   7.282 -0.1938 -0.0438 -0.5714
  916MOL0     H23651  10.178   6.084   7.115 -1.2155 -0.2856  0.0416
  916MOL0     H23652   9.966   6.198   7.168  1.6762 -2.8764  0.4519
  916MOL0     H23653  10.056   6.317   7.083  0.7063  3.1795  2.5792
  916MOL0     H23654   9.960   6.334   7.350 -3.1100 -0.5707 -2.4644
  916MOL0     H23655  10.130   6.368   7.349 -0.7940 -0.5727  0.0590
  916MOL0     H23656   9.971   6.709   7.142 -0.5320  1.1501  1.7122
  916MOL0     H23657  10.395   6.460   6.799 -3.1455 -0.9883  1.9088
  916MOL0     H23658  10.614   6.520   6.600 -0.1597 -1.5190 -0.0569
  916MOL0     H23659  10.517   6.625   6.709  1.7193  2.4821 -0.2454
  916MOL0     H23660  10.683   6.642   6.722 -2.6855  0.8638  2.6396
  917MOL0     O23661   4.105   4.055   7.401 -0.7173  0.6332  0.6594
  917MOL0     C23662   4.117   4.051   7.526 -0.0687  0.3971 -0.3007
  917MOL0     O23663   4.217   4.103   7.603  0.0024  0.0161  0.1908
  917MOL0     C23664   4.331   4.137   7.532  0.1963 -0.6156  0.6244
  917MOL0     C23665   4.433   4.053   7.501  0.1337  0.4103  0.3344
  917MOL0     C23666   4.549   4.089   7.424 -0.7848  0.3793  0.2886
  917MOL0     C23667   4.551   4.220   7.368  0.0073  0.4001  0.3570
  917MOL0     O23668   4.640   4.272   7.277  0.3610  0.9733  1.0854
  917MOL0     C23669   4.782   4.244   7.314  0.2187  0.2377  0.4512
  917MOL0     C23670   4.831   4.324   7.438 -0.2864  0.2703 -0.1866
  917MOL0     C23671   4.963   4.261   7.489  0.2432  0.0793  0.0968
  917MOL0     C23672   5.014   4.359   7.608  0.0049  0.3642 -0.7173
  917MOL0     C23673   5.150   4.336   7.661  0.4438 -0.8220 -0.4784
  917MOL0     C23674   5.245   4.344   7.542  0.0478  0.6818  0.5373
  917MOL0     C23675   5.390   4.377   7.592  0.5238  0.6142  0.1044
  917MOL0     C23676   5.406   4.528   7.578  0.4306  0.2939  0.2688
  917MOL0     N23677   5.534   4.584   7.613  0.1257  0.3932  0.1547
  917MOL0     C23678   5.607   4.655   7.522 -0.6202 -0.3529 -0.5317
  917MOL0     C23679   5.721   4.685   7.589 -0.3099 -0.3712 -0.3557
  917MOL0     C23680   5.830   4.774   7.534  0.8988  0.3787  0.2433
  917MOL0     C23681   5.956   4.750   7.611 -0.0746 -0.3501  0.6992
  917MOL0     C23682   6.067   4.808   7.531  0.6189 -0.0827 -0.1271
  917MOL0     C23683   6.206   4.809   7.605  0.1573  0.8279 -0.4559
  917MOL0     O23684   6.309   4.845   7.513  0.7780  0.8479 -0.6096
  917MOL0     C23685   6.439   4.822   7.542 -0.0621 -0.0908  0.8130
  917MOL0     C23686   6.540   4.802   7.440  0.0462 -1.0221 -0.4259
  917MOL0     C23687   6.669   4.801   7.472 -0.2156  0.0555  0.5760
  917MOL0     C23688   6.715   4.800   7.606  0.5210  0.2114 -0.2069
  917MOL0     C23689   6.854   4.779   7.642  0.1570  0.3239  0.3708
  917MOL0     O23690   6.936   4.753   7.536 -0.1119  0.7417  0.2014
  917MOL0     C23691   7.069   4.751   7.559 -0.1976  0.2783  0.1951
  917MOL0     C23692   7.143   4.639   7.532  0.5730  0.1061  0.7841
  917MOL0     C23693   7.280   4.644   7.544  0.0632  0.7597 -0.6236
  917MOL0     C23694   7.347   4.758   7.588  0.1201  0.2175  0.5425
  917MOL0     O23695   7.480   4.783   7.609 -0.1766 -0.2725  0.3130
  917MOL0     C23696   7.570   4.695   7.546  0.3023 -0.0920  0.0708
  917MOL0     C23697   7.704   4.703   7.612  0.4352  0.7199  0.2217
  917MOL0     C23698   7.799   4.589   7.567  0.0152 -0.4994 -0.5086
  917MOL0     C23699   7.823   4.608   7.411  0.8713 -0.6947  0.1114
  917MOL0     C23700   7.940   4.536   7.350  0.0354  0.6994  0.1741
  917MOL0     C23701   8.087   4.586   7.390 -0.1652  0.4664  0.0319
  917MOL0     C23702   8.181   4.535   7.289  0.4769  0.5576  0.3093
  917MOL0     C23703   8.210   4.383   7.310 -1.2474  0.1077 -0.0015
  917MOL0    Cl23704   8.343   4.360   7.433  0.0560 -0.1856  0.1672
  917MOL0     C23705   7.265   4.872   7.607 -0.2224  0.4721 -0.2230
  917MOL0     C23706   7.130   4.869   7.586  0.0199 -0.4422 -0.1461
  917MOL0     O23707   6.882   4.789   7.758 -0.0249  0.5452  0.0587
  917MOL0     C23708   6.620   4.802   7.706  0.6434 -1.2185 -0.0002
  917MOL0     C23709   6.482   4.831   7.674 -0.0099  0.2505  0.0337
  917MOL0     N23710   5.711   4.623   7.713 -0.0650 -0.3496  0.7011
  917MOL0     N23711   5.591   4.567   7.731 -0.4546  0.0563 -0.3895
  917MOL0     C23712   4.432   4.291   7.367 -0.9540 -0.5506 -0.5660
  917MOL0     C23713   4.329   4.257   7.457 -0.6657  0.6324 -0.3585
  917MOL0     C23714   4.018   3.991   7.602 -0.1418  0.5922 -0.4474
  917MOL0     C23715   3.982   3.857   7.572  0.4018  0.1938  0.0372
  917MOL0     C23716   3.884   3.787   7.635 -0.2090  0.1982  0.0694
  917MOL0     C23717   3.811   3.841   7.738  0.1977  0.3729 -0.5927
  917MOL0     O23718   3.721   3.748   7.787 -0.7561 -0.2255 -0.2825
  917MOL0     C23719   3.664   3.792   7.907  0.3053  0.7786  0.4964
  917MOL0     C23720   3.579   3.680   7.956 -0.3151  0.2761 -0.2322
  917MOL0     C23721   3.444   3.667   7.880 -0.2742  0.2495  0.5330
  917MOL0     C23722   3.335   3.585   7.944  0.4200  1.0377 -0.9715
  917MOL0     C23723   3.223   3.599   7.862  0.3088  0.4178  0.5518
  917MOL0     C23724   3.147   3.633   7.772  0.3578  0.2403 -0.1646
  917MOL0     C23725   3.839   3.974   7.777 -0.2929  0.1946  0.4279
  917MOL0     C23726   3.949   4.051   7.715  0.2375  0.7520  0.0346
  917MOL0     C23727   3.966   4.194   7.762 -0.3569  0.4450 -0.1960
  917MOL0     H23728   4.433   3.952   7.540  0.7216 -0.0054 -0.7061
  917MOL0     H23729   4.643   4.037   7.408  0.3804  2.5452 -0.2835
  917MOL0     H23730   4.797   4.137   7.328 -0.5474  0.0087 -0.3714
  917MOL0     H23731   4.848   4.255   7.228  2.3042 -0.3283  1.9165
  917MOL0     H23732   4.764   4.317   7.523  2.2317 -0.7777  1.8551
  917MOL0     H23733   4.849   4.430   7.420  1.2004 -0.0965 -1.0673
  917MOL0     H23734   5.031   4.255   7.403 -2.1020  0.8699 -1.9409
  917MOL0     H23735   4.950   4.157   7.518 -0.5372  0.6433  1.8781
  917MOL0     H23736   5.011   4.463   7.572 -0.5067  0.5868 -0.0517
  917MOL0     H23737   4.945   4.358   7.692  0.0725 -1.2156 -0.6677
  917MOL0     H23738   5.173   4.413   7.735 -1.7202 -0.3400 -0.2219
  917MOL0     H23739   5.153   4.239   7.712 -1.6998  0.0815  1.5842
  917MOL0     H23740   5.247   4.247   7.492  1.6302  0.3349  1.2005
  917MOL0     H23741   5.205   4.419   7.473 -3.0139  0.9193  2.3484
  917MOL0     H23742   5.463   4.330   7.526  1.1831  1.9021 -0.1097
  917MOL0     H23743   5.403   4.337   7.693 -3.0436 -0.9297  0.1413
  917MOL0     H23744   5.377   4.551   7.475  2.1361  3.1743  0.3251
  917MOL0     H23745   5.326   4.575   7.635  0.1376  0.5117 -0.3151
  917MOL0     H23746   5.578   4.692   7.425  1.1593  0.6936 -0.7200
  917MOL0     H23747   5.839   4.749   7.428  2.7747  2.1608 -0.0827
  917MOL0     H23748   5.791   4.876   7.543 -1.4564 -0.5365  1.0966
  917MOL0     H23749   5.935   4.807   7.702 -1.1348 -0.1187  0.3255
  917MOL0     H23750   5.972   4.644   7.635 -2.4293 -1.0643 -0.5532
  917MOL0     H23751   6.034   4.910   7.507 -1.0613  0.2857  3.2228
  917MOL0     H23752   6.070   4.746   7.441 -1.2948  0.3662 -0.5492
  917MOL0     H23753   6.221   4.705   7.636 -0.5820  0.4824 -1.2113
  917MOL0     H23754   6.201   4.876   7.692  1.2236 -1.8676  1.8546
  917MOL0     H23755   6.519   4.807   7.334  0.6830 -0.8707 -0.5498
  917MOL0     H23756   6.745   4.787   7.396 -0.0601 -4.4871  1.2759
  917MOL0     H23757   7.096   4.553   7.486 -1.8268 -0.0714  3.2953
  917MOL0     H23758   7.339   4.559   7.511 -2.0908 -1.3307  0.5850
  917MOL0     H23759   7.545   4.589   7.558  0.5534  0.0886  2.7847
  917MOL0     H23760   7.577   4.713   7.438  2.1986 -0.0368  0.1693
  917MOL0     H23761   7.744   4.802   7.592 -0.0291  0.8390 -0.1287
  917MOL0     H23762   7.682   4.703   7.719 -0.8724 -1.1930  0.0179
  917MOL0     H23763   7.891   4.586   7.627 -1.3687 -0.4731  1.7508
  917MOL0     H23764   7.762   4.487   7.583 -1.6595  0.0205 -0.8693
  917MOL0     H23765   7.846   4.713   7.389  1.8103 -0.9342 -0.0792
  917MOL0     H23766   7.730   4.573   7.366  0.5615 -0.0436  0.2321
  917MOL0     H23767   7.939   4.550   7.242  0.6831  0.6430  0.1543
  917MOL0     H23768   7.932   4.431   7.380 -1.5921  0.6719 -0.2761
  917MOL0     H23769   8.093   4.694   7.406  1.2233  0.8427 -2.3824
  917MOL0     H23770   8.111   4.541   7.486 -3.3097 -0.1225  0.6423
  917MOL0     H23771   8.273   4.587   7.317  0.7632  0.0713  0.2769
  917MOL0     H23772   8.161   4.560   7.184 -2.0800  0.7608  0.7849
  917MOL0     H23773   8.125   4.327   7.350 -0.1870 -0.6714  1.2513
  917MOL0     H23774   8.242   4.333   7.219  0.5351 -2.0904  1.7140
  917MOL0     H23775   7.308   4.964   7.646 -0.8809  1.2175 -1.1951
  917MOL0     H23776   7.076   4.963   7.598  2.1411  1.3116 -3.0458
  917MOL0     H23777   6.635   4.798   7.814 -0.9470 -3.3231  0.1949
  917MOL0     H23778   6.418   4.853   7.759 -0.3867 -2.3520  0.4902
  917MOL0     H23779   4.438   4.384   7.310  0.3875  0.1917  0.7143
  917MOL0     H23780   4.233   4.307   7.464 -0.9861 -0.2525  2.7801
  917MOL0     H23781   4.042   3.801   7.501 -0.2904  0.8022 -1.0442
  917MOL0     H23782   3.866   3.686   7.602  0.6844  0.3620 -0.9891
  917MOL0     H23783   3.607   3.884   7.909  0.8980  1.1907 -0.7175
  917MOL0     H23784   3.742   3.801   7.984 -0.8633  1.9958  1.5660
  917MOL0     H23785   3.579   3.687   8.065 -2.6315 -1.8917  0.0116
  917MOL0     H23786   3.632   3.585   7.943  0.1369  0.3898  0.7359
  917MOL0     H23787   3.448   3.634   7.776 -1.4954  1.8656 -0.0800
  917MOL0     H23788   3.405   3.768   7.867 -1.6393 -0.4735 -1.3695
  917MOL0     H23789   3.357   3.477   7.942  1.7368  1.3013 -2.2197
  917MOL0     H23790   3.322   3.609   8.050  2.5066  2.2539 -0.9340
  917MOL0     H23791   3.093   3.652   7.681  0.7373 -1.8550 -0.8728
  917MOL0     H23792   3.795   4.017   7.867 -0.0877 -0.7620  0.9889
  917MOL0     H23793   3.960   4.197   7.871  0.9184  1.0029 -0.1279
  917MOL0     H23794   4.064   4.231   7.731 -0.4367  2.3921  1.6546
  917MOL0     H23795   3.889   4.256   7.717 -0.4651 -0.5865 -1.5092
  918MOL0     O23796   1.538   3.888   5.041  0.0376  0.1211 -0.0207
  918MOL0     C23797   1.475   3.785   5.018  0.4448 -0.3293 -0.0604
  918MOL0     O23798   1.529   3.663   4.961 -0.4170  0.5375 -0.0626
  918MOL0     C23799   1.629   3.668   4.875  0.3912 -0.0164 -1.0353
  918MOL0     C23800   1.623   3.603   4.748  0.0627 -0.6461 -0.2707
  918MOL0     C23801   1.722   3.628   4.655  1.0448  0.5383  0.1743
  918MOL0     C23802   1.834   3.703   4.673 -0.4792 -0.9726 -0.0556
  918MOL0     O23803   1.932   3.699   4.579  0.1291 -0.3640  0.6499
  918MOL0     C23804   2.073   3.724   4.608 -0.4802  1.0089 -0.3192
  918MOL0     C23805   2.125   3.606   4.693  0.3984 -0.6594  0.1392
  918MOL0     C23806   2.278   3.612   4.706 -0.3163  0.2339 -0.9838
  918MOL0     C23807   2.321   3.482   4.770  0.8110  0.4421 -1.1296
  918MOL0     C23808   2.475   3.474   4.802 -0.4147 -0.1235 -0.9590
  918MOL0     C23809   2.562   3.519   4.680  0.1238  0.3155  0.2941
  918MOL0     C23810   2.708   3.478   4.697 -0.2899  0.3125  0.1204
  918MOL0     C23811   2.806   3.554   4.613  0.7169  1.3277  0.4714
  918MOL0     N23812   2.804   3.695   4.640 -0.3415  0.5190 -1.3158
  918MOL0     C23813   2.748   3.791   4.566  0.3193  0.6255  0.1876
  918MOL0     C23814   2.744   3.900   4.641  0.3337 -0.1440 -1.2576
  918MOL0     C23815   2.679   4.030   4.597  0.6981 -0.5834 -0.0482
  918MOL0     C23816   2.782   4.140   4.603 -0.9362  0.3278  0.0472
  918MOL0     C23817   2.904   4.113   4.510  0.0639 -0.5606 -0.9632
  918MOL0     C23818   2.996   4.232   4.522 -0.3234  0.2124 -0.0426
  918MOL0     O23819   3.083   4.234   4.405 -0.5601  0.7431  0.2647
  918MOL0     C23820   3.200   4.303   4.409  0.5738 -0.0715  0.3144
  918MOL0     C23821   3.307   4.243   4.343  0.1212  0.0421  0.0750
  918MOL0     C23822   3.441   4.296   4.346 -0.2038 -1.2169  0.2322
  918MOL0     C23823   3.465   4.413   4.413 -0.0635  0.8508  0.5343
  918MOL0     C23824   3.595   4.478   4.406 -0.7019  0.3546  0.9244
  918MOL0     O23825   3.706   4.406   4.375  0.5677 -0.2664  0.2593
  918MOL0     C23826   3.836   4.448   4.386 -0.6449 -0.3420 -0.6779
  918MOL0     C23827   3.882   4.542   4.484  0.2334 -0.1091 -0.4182
  918MOL0     C23828   4.015   4.582   4.497  0.0118  0.3511 -0.2928
  918MOL0     C23829   4.112   4.519   4.417  0.1569  1.1720 -0.0167
  918MOL0     O23830   4.238   4.565   4.404 -0.5432 -0.4310  1.1437
  918MOL0     C23831   4.294   4.671   4.484 -0.3342  0.5825  0.2243
  918MOL0     C23832   4.436   4.694   4.440 -0.1404 -0.0855 -0.9297
  918MOL0     C23833   4.520   4.573   4.479 -0.0283  0.0712  0.6524
  918MOL0     C23834   4.671   4.579   4.434  0.1945 -0.1380  0.3286
  918MOL0     C23835   4.749   4.455   4.473 -0.6375  0.0603  0.5754
  918MOL0     C23836   4.755   4.433   4.619  0.7677  0.1928 -0.8261
  918MOL0     C23837   4.866   4.348   4.669 -0.1906  0.0195 -0.0212
  918MOL0     C23838   4.859   4.210   4.599 -0.2990 -0.3142  0.3592
  918MOL0    Cl23839   4.974   4.094   4.669 -0.3654 -0.1630  0.5384
  918MOL0     C23840   4.074   4.406   4.338 -0.1302 -0.2529  0.4875
  918MOL0     C23841   3.935   4.378   4.329 -0.1409  0.9692  0.1307
  918MOL0     O23842   3.585   4.597   4.414  0.6574 -0.2432 -0.4590
  918MOL0     C23843   3.360   4.467   4.491  0.1611 -0.0877 -0.8030
  918MOL0     C23844   3.230   4.421   4.487  0.6033  0.1405  0.4707
  918MOL0     N23845   2.815   3.872   4.759  0.2402 -0.3842  0.0337
  918MOL0     N23846   2.849   3.745   4.757 -0.1469  0.3030 -0.3892
  918MOL0     C23847   1.850   3.751   4.802  0.2437  1.7238 -0.2461
  918MOL0     C23848   1.742   3.744   4.901 -0.2699  0.1069 -0.2756
  918MOL0     C23849   1.327   3.783   5.050 -0.6278 -0.1297 -0.0175
  918MOL0     C23850   1.264   3.661   5.063  0.4175  0.2389  0.7123
  918MOL0     C23851   1.124   3.644   5.090  0.4325 -0.2027 -0.3026
  918MOL0     C23852   1.050   3.760   5.113 -0.0892 -0.6396  0.4650
  918MOL0     O23853   0.920   3.765   5.162  0.2379 -0.8336 -0.8453
  918MOL0     C23854   0.839   3.641   5.172  0.5597 -0.5950 -0.2188
  918MOL0     C23855   0.700   3.674   5.212  0.3159 -0.5343 -0.3989
  918MOL0     C23856   0.615   3.560   5.259  0.3161 -1.2261  0.2353
  918MOL0     C23857   0.547   3.485   5.142 -0.8012  0.2856  0.1054
  918MOL0     C23858   0.430   3.412   5.177 -0.2319 -0.5967 -0.2055
  918MOL0     C23859   0.337   3.365   5.232 -0.1438 -0.1014 -0.3631
  918MOL0     C23860   1.110   3.884   5.111  0.1035  0.6442 -0.5494
  918MOL0     C23861   1.243   3.901   5.070 -0.2018  0.0258 -0.3232
  918MOL0     C23862   1.279   4.039   5.033 -0.3426 -0.1841  0.4087
  918MOL0     H23863   1.538   3.542   4.721 -0.9307  0.8299 -0.5692
  918MOL0     H23864   1.712   3.580   4.558 -0.7054  1.0821  0.0616
  918MOL0     H23865   2.125   3.717   4.512 -0.4285 -1.0475 -0.1838
  918MOL0     H23866   2.090   3.822   4.653 -1.5010 -0.2302  3.0882
  918MOL0     H23867   2.091   3.511   4.651 -1.3003 -0.0165 -0.0213
  918MOL0     H23868   2.072   3.600   4.789  0.2916 -1.2845  0.0416
  918MOL0     H23869   2.303   3.704   4.759  0.6829 -1.1043  0.9944
  918MOL0     H23870   2.335   3.604   4.613  0.0424  1.6531 -0.8955
  918MOL0     H23871   2.256   3.465   4.856 -0.0378 -1.6915 -2.1190
  918MOL0     H23872   2.287   3.406   4.699 -2.3881  1.5497 -0.9495
  918MOL0     H23873   2.496   3.543   4.884  1.8843  2.9775 -3.8718
  918MOL0     H23874   2.491   3.370   4.832 -2.4271 -0.2505 -0.1942
  918MOL0     H23875   2.529   3.476   4.585  0.4783 -2.1963  1.2145
  918MOL0     H23876   2.560   3.628   4.668 -0.5866  0.2844  0.0731
  918MOL0     H23877   2.723   3.370   4.682 -1.1725  0.4381 -1.9809
  918MOL0     H23878   2.736   3.494   4.802 -3.0545 -1.6621  1.3033
  918MOL0     H23879   2.901   3.509   4.642  0.1212  0.0326  0.4606
  918MOL0     H23880   2.786   3.543   4.507 -3.5348  0.8101  1.1614
  918MOL0     H23881   2.717   3.758   4.467  0.8319 -3.3048  1.1697
  918MOL0     H23882   2.646   4.017   4.494  1.7960  1.3558 -0.7051
  918MOL0     H23883   2.592   4.056   4.657  0.8705  1.4140 -0.5920
  918MOL0     H23884   2.735   4.234   4.572  0.9667  1.4443  0.3727
  918MOL0     H23885   2.818   4.142   4.706 -0.9644  0.4126  0.0556
  918MOL0     H23886   2.875   4.081   4.409 -1.2831 -0.2722 -0.6880
  918MOL0     H23887   2.958   4.026   4.549  2.7414  0.0379 -3.0283
  918MOL0     H23888   3.051   4.223   4.616 -0.6735 -2.0545  0.0024
  918MOL0     H23889   2.944   4.328   4.518 -0.1993  0.5775  3.6287
  918MOL0     H23890   3.306   4.139   4.311  4.9792  0.2967 -1.7590
  918MOL0     H23891   3.520   4.242   4.295 -0.2729 -1.0585 -0.0422
  918MOL0     H23892   3.810   4.567   4.562 -2.1766 -0.4483 -2.4173
  918MOL0     H23893   4.037   4.668   4.559  2.0984 -0.2710 -0.0907
  918MOL0     H23894   4.233   4.761   4.468 -1.6962 -0.1327  1.1831
  918MOL0     H23895   4.295   4.645   4.590 -0.6837 -1.8951 -0.3037
  918MOL0     H23896   4.425   4.716   4.333  0.2219 -0.0482 -0.9600
  918MOL0     H23897   4.470   4.790   4.480 -1.1208  1.0043 -2.5728
  918MOL0     H23898   4.507   4.560   4.586  0.4412  2.4359  1.0713
  918MOL0     H23899   4.479   4.488   4.425 -0.0290  0.3335  0.2261
  918MOL0     H23900   4.728   4.663   4.474 -0.1797 -0.2771  1.1688
  918MOL0     H23901   4.674   4.588   4.325 -0.1691 -0.0656  0.3223
  918MOL0     H23902   4.850   4.467   4.433 -1.4346 -0.5840 -1.8080
  918MOL0     H23903   4.704   4.363   4.434 -1.9721  0.9338 -0.0014
  918MOL0     H23904   4.757   4.530   4.670  1.5608 -0.0932 -0.2962
  918MOL0     H23905   4.656   4.396   4.650  0.9769  0.2591 -0.0471
  918MOL0     H23906   4.868   4.337   4.778 -0.7393  0.7429  0.0749
  918MOL0     H23907   4.961   4.392   4.636 -0.5803  0.9099  0.0141
  918MOL0     H23908   4.758   4.170   4.610 -1.0309  0.1931 -3.2443
  918MOL0     H23909   4.870   4.210   4.490 -1.3168 -1.3882  0.2335
  918MOL0     H23910   4.161   4.363   4.289 -0.3437  1.6384 -1.7651
  918MOL0     H23911   3.922   4.288   4.269  0.1553  0.0701  1.3707
  918MOL0     H23912   3.372   4.559   4.547  2.1404 -0.4445 -0.5662
  918MOL0     H23913   3.145   4.470   4.534 -0.1410 -1.9547  1.4552
  918MOL0     H23914   1.944   3.798   4.833  0.9718 -1.7025  3.7154
  918MOL0     H23915   1.759   3.794   4.996  1.0333  4.2705 -2.4519
  918MOL0     H23916   1.333   3.578   5.053  1.8877  1.3302  1.4856
  918MOL0     H23917   1.081   3.546   5.111  0.9257 -0.1938  0.8643
  918MOL0     H23918   0.884   3.576   5.247  1.4368  0.5559  0.2792
  918MOL0     H23919   0.826   3.591   5.076 -2.7901 -1.0072  0.3275
  918MOL0     H23920   0.657   3.721   5.123  0.9896  0.5443 -0.1833
  918MOL0     H23921   0.699   3.745   5.296  1.2961  1.2651 -1.8353
  918MOL0     H23922   0.533   3.593   5.323  0.9936  1.4174 -0.1425
  918MOL0     H23923   0.675   3.497   5.325  0.3531 -0.1453  1.2735
  918MOL0     H23924   0.522   3.556   5.062 -2.2524  0.8068  0.9667
  918MOL0     H23925   0.616   3.414   5.097 -2.2388 -1.4088  0.4675
  918MOL0     H23926   0.249   3.320   5.273  0.5509 -0.4931  0.7695
  918MOL0     H23927   1.044   3.968   5.126 -0.5783 -0.2947  2.3185
  918MOL0     H23928   1.187   4.095   5.017 -0.0604  0.1694  0.0035
  918MOL0     H23929   1.332   4.084   5.117  0.5616 -1.5475  0.6046
  918MOL0     H23930   1.340   4.036   4.942  0.9767  1.5676  1.1926
  919MOL0     O23931   7.318   7.942   9.565  0.4919 -0.8095  0.4640
  919MOL0     C23932   7.229   7.892   9.502  0.3120  0.1875 -0.5104
  919MOL0     O23933   7.231   7.760   9.457 -0.1052 -0.2461  0.1279
  919MOL0     C23934   7.347   7.700   9.417 -0.0924  1.2426  0.4021
  919MOL0     C23935   7.342   7.554   9.414 -0.4254 -0.5455 -0.6978
  919MOL0     C23936   7.456   7.481   9.375  0.5767 -0.1667 -0.3840
  919MOL0     C23937   7.576   7.545   9.345 -0.4585 -0.5445 -0.3250
  919MOL0     O23938   7.685   7.461   9.319 -0.2437 -0.9839 -0.2564
  919MOL0     C23939   7.813   7.517   9.281  0.3152  0.0894 -0.0451
  919MOL0     C23940   7.926   7.411   9.298 -0.1931  1.1845  0.0685
  919MOL0     C23941   8.055   7.428   9.208  0.4411  0.1774  0.7793
  919MOL0     C23942   8.131   7.543   9.262  0.4456 -0.0208  0.4674
  919MOL0     C23943   8.265   7.556   9.186 -0.2360 -0.7786  0.7576
  919MOL0     C23944   8.248   7.602   9.035  0.4651  0.1358 -0.1480
  919MOL0     C23945   8.362   7.683   8.968  0.4733  0.1444 -0.3032
  919MOL0     C23946   8.390   7.810   9.051  0.0049  0.1297 -0.5785
  919MOL0     N23947   8.454   7.924   8.976  0.0540 -0.2848  0.1670
  919MOL0     C23948   8.389   7.984   8.876  0.2344 -0.1815  0.3933
  919MOL0     C23949   8.484   8.071   8.834 -0.6125 -0.3130  0.2820
  919MOL0     C23950   8.464   8.166   8.724  0.1693 -0.0810 -0.1579
  919MOL0     C23951   8.481   8.092   8.584 -1.0933  0.1990  0.2778
  919MOL0     C23952   8.528   8.188   8.478  0.1852 -0.4750  0.1644
  919MOL0     C23953   8.527   8.124   8.342  0.0488  0.3899 -0.5742
  919MOL0     O23954   8.619   8.005   8.330 -0.6368 -0.4389 -0.9347
  919MOL0     C23955   8.756   8.021   8.311 -0.6742 -0.6704  0.8015
  919MOL0     C23956   8.842   7.907   8.329 -0.5540  0.3453  0.5364
  919MOL0     C23957   8.978   7.917   8.306 -0.5544 -0.0778  0.2266
  919MOL0     C23958   9.037   8.041   8.269 -0.4878 -0.2290  1.5639
  919MOL0     C23959   9.178   8.045   8.224  0.4172  1.1347 -0.1805
  919MOL0     O23960   9.247   7.923   8.238 -0.0771  0.5166  0.0019
  919MOL0     C23961   9.368   7.911   8.186 -0.1978 -0.5554  0.0494
  919MOL0     C23962   9.471   7.976   8.252  0.4252 -0.2371  0.1590
  919MOL0     C23963   9.599   7.985   8.186 -0.2159  0.2939 -0.0329
  919MOL0     C23964   9.622   7.906   8.070  0.5667 -0.5165  0.8009
  919MOL0     O23965   9.741   7.909   8.012 -0.0474 -0.4425 -0.0891
  919MOL0     C23966   9.851   7.867   8.099  0.2864 -0.4484  0.5454
  919MOL0     C23967   9.977   7.832   8.029 -0.0695  0.1528  0.4726
  919MOL0     C23968  10.017   7.920   7.906  0.7778 -0.0744  0.1641
  919MOL0     C23969  10.139   7.865   7.839 -0.5583  0.2329 -0.2809
  919MOL0     C23970  10.267   7.836   7.912  0.6890  0.3905 -0.4013
  919MOL0     C23971  10.323   7.963   7.976  0.4959 -0.0363  0.2997
  919MOL0     C23972  10.345   8.092   7.877 -0.2625  0.6160 -0.0112
  919MOL0     C23973  10.428   8.201   7.946  0.1285  0.2898  0.3238
  919MOL0    Cl23974  10.612   8.156   7.971 -0.1031 -0.0055 -0.2432
  919MOL0     C23975   9.518   7.850   8.000  0.3757 -0.0535 -0.4434
  919MOL0     C23976   9.388   7.856   8.054 -0.2161  0.3032  0.2017
  919MOL0     O23977   9.226   8.150   8.201 -0.4041 -0.6178  0.4838
  919MOL0     C23978   8.953   8.153   8.250 -0.3193  0.0835  0.4041
  919MOL0     C23979   8.815   8.142   8.264 -0.0520 -0.8855 -0.5009
  919MOL0     N23980   8.595   8.067   8.913 -0.2536 -0.0313 -0.4248
  919MOL0     N23981   8.578   7.980   9.000 -0.5062 -0.1773 -0.2947
  919MOL0     C23982   7.585   7.689   9.333 -0.5553  0.1075 -0.5168
  919MOL0     C23983   7.464   7.763   9.365 -0.5257 -0.6928 -0.0906
  919MOL0     C23984   7.103   7.972   9.520  0.0456 -0.0583  0.0308
  919MOL0     C23985   6.984   7.912   9.562  0.2031  0.9521 -0.4116
  919MOL0     C23986   6.858   7.975   9.559  0.0595 -0.2672  0.0696
  919MOL0     C23987   6.858   8.115   9.538 -0.4887 -0.4805  0.4336
  919MOL0     O23988   6.743   8.191   9.544  0.2485  0.2307 -0.2092
  919MOL0     C23989   6.624   8.118   9.591 -0.0140  0.2982  1.4973
  919MOL0     C23990   6.513   8.218   9.616 -0.4161  1.4416 -0.5329
  919MOL0     C23991   6.373   8.162   9.601  0.6068 -0.0716 -0.4793
  919MOL0     C23992   6.337   8.058   9.711 -0.2789 -0.6584  0.1526
  919MOL0     C23993   6.204   8.006   9.708  0.2926 -0.7921 -0.1690
  919MOL0     C23994   6.090   7.957   9.693 -0.8144  0.5757  0.4325
  919MOL0     C23995   6.979   8.181   9.506  0.8063  0.1699 -0.4327
  919MOL0     C23996   7.099   8.109   9.485  0.1127  0.5329 -0.4202
  919MOL0     C23997   7.215   8.197   9.438  0.2605  0.3067 -0.5651
  919MOL0     H23998   7.247   7.506   9.436 -2.3407  3.0045 -0.5601
  919MOL0     H23999   7.456   7.374   9.359  0.7738  0.1568 -2.9228
  919MOL0     H24000   7.805   7.550   9.177 -0.4533  2.2197  0.6329
  919MOL0     H24001   7.827   7.607   9.341 -1.3887 -1.4506  2.8950
  919MOL0     H24002   7.873   7.319   9.273 -0.7621  1.4973  0.0838
  919MOL0     H24003   7.964   7.403   9.401  1.2108  1.5280 -0.4135
  919MOL0     H24004   8.026   7.444   9.104  2.4147  0.7528  0.2817
  919MOL0     H24005   8.114   7.336   9.206 -0.3952 -0.3945 -2.0428
  919MOL0     H24006   8.073   7.635   9.253  0.4578 -0.0542  0.0224
  919MOL0     H24007   8.146   7.536   9.370  0.2956  1.9105  0.6491
  919MOL0     H24008   8.327   7.633   9.232 -0.3938 -0.2251  0.0635
  919MOL0     H24009   8.318   7.460   9.185  0.6182 -0.3831  2.9537
  919MOL0     H24010   8.228   7.514   8.973 -0.5949  0.6575 -0.5818
  919MOL0     H24011   8.159   7.666   9.028  1.3718  1.2888 -1.7988
  919MOL0     H24012   8.337   7.723   8.869 -0.7374 -0.2675 -0.1848
  919MOL0     H24013   8.451   7.619   8.960  1.3727  1.3830 -0.4356
  919MOL0     H24014   8.291   7.846   9.081  0.0760 -1.7296  2.2437
  919MOL0     H24015   8.449   7.787   9.140  3.7025  0.8270 -2.6138
  919MOL0     H24016   8.293   7.965   8.829  0.5859  0.8783 -0.7725
  919MOL0     H24017   8.359   8.199   8.729  0.4351  0.9530 -0.9064
  919MOL0     H24018   8.532   8.252   8.733  1.2530 -0.7672 -1.4248
  919MOL0     H24019   8.558   8.015   8.589 -1.4084 -0.0827  1.1014
  919MOL0     H24020   8.389   8.043   8.553  0.2607 -1.8370 -0.7475
  919MOL0     H24021   8.629   8.227   8.497 -0.6198  2.8604 -1.6296
  919MOL0     H24022   8.460   8.273   8.476 -2.3195 -2.3576 -1.3195
  919MOL0     H24023   8.537   8.204   8.269 -3.2689  0.9079 -0.6237
  919MOL0     H24024   8.424   8.095   8.319  0.0661 -1.3535  1.1951
  919MOL0     H24025   8.800   7.809   8.350 -0.1642 -0.6390 -2.7501
  919MOL0     H24026   9.042   7.832   8.329 -0.5146  0.0673  0.6636
  919MOL0     H24027   9.440   8.034   8.338 -2.4253  1.0068 -1.5789
  919MOL0     H24028   9.679   8.050   8.220  0.2844 -0.1328 -0.3510
  919MOL0     H24029   9.884   7.942   8.172  0.8488 -0.3401  0.1897
  919MOL0     H24030   9.827   7.769   8.142  0.7757  0.6907  3.6519
  919MOL0     H24031  10.050   7.827   8.110 -0.9258  0.2665  1.2521
  919MOL0     H24032   9.964   7.730   7.990  1.7401  0.5197 -1.2965
  919MOL0     H24033   9.939   7.911   7.829  2.5561  0.5177 -1.7883
  919MOL0     H24034  10.026   8.024   7.939  0.2347 -0.0411  0.2166
  919MOL0     H24035  10.166   7.930   7.755 -0.2408 -0.9896 -1.1591
  919MOL0     H24036  10.105   7.775   7.788  0.7838  1.3589 -3.4370
  919MOL0     H24037  10.336   7.802   7.834  0.9337  0.6598 -0.3061
  919MOL0     H24038  10.253   7.754   7.983  1.1547  0.8058  0.1781
  919MOL0     H24039  10.259   8.001   8.056  1.6816 -1.4098  1.9755
  919MOL0     H24040  10.420   7.942   8.022  0.6191  1.8341  0.9829
  919MOL0     H24041  10.245   8.128   7.853 -0.9170 -0.3836  1.1387
  919MOL0     H24042  10.393   8.053   7.786 -0.2453 -1.9379  1.0163
  919MOL0     H24043  10.422   8.300   7.899  1.3520  0.3891  0.3442
  919MOL0     H24044  10.390   8.203   8.048  1.1822 -2.2551  0.8506
  919MOL0     H24045   9.544   7.789   7.914  2.1951  1.8526 -1.3151
  919MOL0     H24046   9.302   7.815   8.003 -1.1188  1.6619  0.5655
  919MOL0     H24047   8.987   8.246   8.206  1.5509 -1.2708 -1.1506
  919MOL0     H24048   8.752   8.220   8.220 -0.3715 -0.0180  1.4070
  919MOL0     H24049   7.675   7.743   9.305  2.2358 -2.5901  2.4397
  919MOL0     H24050   7.464   7.871   9.360 -1.6905 -0.5454  1.9217
  919MOL0     H24051   6.987   7.808   9.591 -2.6313  0.6072 -1.0799
  919MOL0     H24052   6.761   7.927   9.566 -1.7663  3.3954  2.9810
  919MOL0     H24053   6.631   8.060   9.684 -0.7288  0.8932  1.9263
  919MOL0     H24054   6.591   8.048   9.514  1.8089 -0.1033  1.0251
  919MOL0     H24055   6.527   8.301   9.546  1.1347  1.7526  0.1126
  919MOL0     H24056   6.526   8.253   9.718  1.6218 -0.3885 -0.0978
  919MOL0     H24057   6.362   8.115   9.503  4.8544  0.4846 -1.4112
  919MOL0     H24058   6.307   8.249   9.605  0.3402 -0.2870 -0.1083
  919MOL0     H24059   6.407   7.974   9.711 -0.5674 -0.8993 -0.1929
  919MOL0     H24060   6.344   8.109   9.808  0.9135  1.6730 -1.0600
  919MOL0     H24061   5.988   7.926   9.691 -1.2694  2.0486 -0.7757
  919MOL0     H24062   6.973   8.288   9.493 -2.9740  0.1088 -0.4585
  919MOL0     H24063   7.273   8.144   9.361  0.9078 -1.3449  0.9896
  919MOL0     H24064   7.182   8.295   9.402  0.2743  1.1616  1.5923
  919MOL0     H24065   7.290   8.218   9.514  0.5126  0.0393 -0.7383
  920MOL0     O24066   0.114  10.936   0.507 -0.0241 -0.3625 -0.1048
  920MOL0     C24067   0.199  10.848   0.488  0.2234  0.0805  0.2236
  920MOL0     O24068   0.333  10.853   0.520 -0.0680  0.1618  0.2033
  920MOL0     C24069   0.382  10.975   0.566  0.1764 -0.1720  1.4443
  920MOL0     C24070   0.341  11.045   0.683  0.2893 -0.4866 -0.2689
  920MOL0     C24071   0.405  11.161   0.732 -0.4188 -0.3632  0.4975
  920MOL0     C24072   0.517  11.208   0.666 -0.5776 -0.8580 -0.6647
  920MOL0     O24073   0.604  11.302   0.720  0.5351  0.4779  0.3531
  920MOL0     C24074   0.637  11.294   0.858 -0.5936 -0.5699 -0.2196
  920MOL0     C24075   0.704  11.165   0.910 -0.8931  0.2089  0.7609
  920MOL0     C24076   0.863  11.172   0.928  1.2633  0.0065  0.6389
  920MOL0     C24077   0.949  11.171   0.797 -0.3992  0.0412 -1.1135
  920MOL0     C24078   1.091  11.132   0.837 -0.2212 -0.2777 -0.3505
  920MOL0     C24079   1.168  11.235   0.926 -0.1752 -0.3340  0.5877
  920MOL0     C24080   1.322  11.195   0.931  0.4830 -0.3580  0.2842
  920MOL0     C24081   1.400  11.257   0.823 -0.6250  0.1317 -0.1924
  920MOL0     N24082   1.548  11.254   0.838  0.3178  0.3560 -0.5118
  920MOL0     C24083   1.619  11.142   0.795 -0.0605 -0.2543 -0.5493
  920MOL0     C24084   1.748  11.178   0.782 -0.0989  0.2788 -0.0260
  920MOL0     C24085   1.857  11.085   0.740 -0.2031 -0.5279 -0.1412
  920MOL0     C24086   1.956  11.073   0.860  0.4137  0.5704  0.1949
  920MOL0     C24087   2.094  11.012   0.824  0.2756 -0.2908  0.7701
  920MOL0     C24088   2.185  11.110   0.758 -0.0870 -0.5269 -0.8103
  920MOL0     O24089   2.210  11.228   0.834  0.5650 -0.5603  0.1918
  920MOL0     C24090   2.329  11.235   0.900 -0.3508  0.0428  0.6006
  920MOL0     C24091   2.417  11.130   0.935  0.5485 -0.2273 -0.5621
  920MOL0     C24092   2.531  11.153   1.009  0.3945  0.7804 -0.0655
  920MOL0     C24093   2.567  11.285   1.053  0.7778  0.3565 -0.7459
  920MOL0     C24094   2.687  11.303   1.143  0.4593 -0.3652  0.5205
  920MOL0     O24095   2.760  11.188   1.167 -0.3442  0.2167 -0.2297
  920MOL0     C24096   2.872  11.183   1.244 -0.1426  0.3372  0.2813
  920MOL0     C24097   2.948  11.077   1.224 -0.0757  0.8654  0.6484
  920MOL0     C24098   3.053  11.034   1.305 -1.0670 -0.3558  0.3161
  920MOL0     C24099   3.095  11.115   1.417  0.2695  0.8865  0.8934
  920MOL0     O24100   3.210  11.084   1.488  0.9591  0.4222 -0.4554
  920MOL0     C24101   3.243  10.940   1.501  0.6649 -0.3215  0.7923
  920MOL0     C24102   3.332  10.920   1.623 -1.0688 -0.1113  0.0819
  920MOL0     C24103   3.363  10.773   1.647 -0.4263 -0.1791 -0.2027
  920MOL0     C24104   3.483  10.758   1.744  0.5376 -0.1850 -0.4780
  920MOL0     C24105   3.435  10.765   1.891  0.3634  0.5275 -0.0859
  920MOL0     C24106   3.557  10.778   1.989  0.4479 -0.5948  0.0380
  920MOL0     C24107   3.656  10.661   1.986 -0.2000 -1.1746 -0.0853
  920MOL0     C24108   3.609  10.536   2.055 -0.4253  0.1674 -0.0726
  920MOL0    Cl24109   3.740  10.442   2.129 -0.7258  0.1947  0.0604
  920MOL0     C24110   3.024  11.233   1.439  0.9328  0.3110  0.3931
  920MOL0     C24111   2.912  11.263   1.354 -0.2202 -0.2513  0.2133
  920MOL0     O24112   2.706  11.418   1.189 -0.2376  0.0752 -0.5339
  920MOL0     C24113   2.477  11.386   1.007 -0.4304 -0.0128 -0.5974
  920MOL0     C24114   2.369  11.366   0.933  0.1574  0.0479  0.6370
  920MOL0     N24115   1.758  11.312   0.816  1.1525  1.2809 -0.1295
  920MOL0     N24116   1.635  11.359   0.844  0.1762 -0.5240  0.0475
  920MOL0     C24117   0.569  11.142   0.555 -0.1258  0.4989  0.3500
  920MOL0     C24118   0.499  11.026   0.505 -0.3892 -0.0627  0.1991
  920MOL0     C24119   0.154  10.730   0.411  0.2261  0.1804  0.0620
  920MOL0     C24120   0.248  10.659   0.339  0.0956 -0.0727 -0.4019
  920MOL0     C24121   0.215  10.546   0.270  0.4805 -0.0753  0.3302
  920MOL0     C24122   0.082  10.502   0.247  0.1187  0.7397 -0.0327
  920MOL0     O24123   0.060  10.398   0.158  0.4144 -0.3611 -0.1767
  920MOL0     C24124  -0.052  10.318   0.173  0.5044  0.2664 -0.3257
  920MOL0     C24125  -0.064  10.207   0.068 -0.6097 -0.9589  0.5951
  920MOL0     C24126  -0.150  10.263  -0.050 -0.3776  0.2964 -1.9707
  920MOL0     C24127  -0.167  10.166  -0.165 -0.5358  0.6358  0.0026
  920MOL0     C24128  -0.188  10.249  -0.285  0.2171  1.1132  1.0223
  920MOL0     C24129  -0.168  10.305  -0.392 -0.0720 -0.5375  0.1218
  920MOL0     C24130  -0.013  10.571   0.318  0.3327 -0.0655  0.3524
  920MOL0     C24131   0.022  10.689   0.393  0.3865 -0.4158  0.1007
  920MOL0     C24132  -0.098  10.760   0.459 -0.7986 -0.1351  0.1665
  920MOL0     H24133   0.249  11.021   0.734  1.2058 -1.2333  1.1198
  920MOL0     H24134   0.377  11.222   0.818  3.1042  0.8507  0.9961
  920MOL0     H24135   0.709  11.373   0.882  0.9462 -1.3471 -2.0336
  920MOL0     H24136   0.546  11.314   0.916  0.1510  0.1663  0.7251
  920MOL0     H24137   0.693  11.086   0.835  0.1361 -2.2000  2.9685
  920MOL0     H24138   0.654  11.121   0.997 -1.8803 -1.6156 -0.6668
  920MOL0     H24139   0.889  11.100   1.006  1.0496 -0.4718  0.2716
  920MOL0     H24140   0.890  11.271   0.967  0.0345 -0.2325  2.2235
  920MOL0     H24141   0.922  11.089   0.730  0.0412 -2.6775  1.8040
  920MOL0     H24142   0.942  11.271   0.753  0.6041  0.9435  0.6583
  920MOL0     H24143   1.105  11.037   0.890  1.0181  0.1089  0.0419
  920MOL0     H24144   1.143  11.120   0.742  0.3016  1.9585 -0.3869
  920MOL0     H24145   1.149  11.335   0.885 -3.1119 -1.5301 -1.3188
  920MOL0     H24146   1.125  11.243   1.027  1.1809 -1.5108  1.2940
  920MOL0     H24147   1.337  11.089   0.910  1.2797 -0.2207  0.1223
  920MOL0     H24148   1.362  11.224   1.029 -1.1659  3.2736  0.0531
  920MOL0     H24149   1.381  11.206   0.727 -2.7619  0.7074 -0.1250
  920MOL0     H24150   1.366  11.360   0.810 -0.3757  0.4098  1.2577
  920MOL0     H24151   1.576  11.045   0.774 -1.8353 -0.0287  1.6323
  920MOL0     H24152   1.818  10.985   0.720 -1.5751 -0.4615  1.9489
  920MOL0     H24153   1.905  11.108   0.644  2.2098 -1.9531  0.6311
  920MOL0     H24154   1.963  11.168   0.914 -1.0408 -0.1098  1.6978
  920MOL0     H24155   1.901  11.011   0.932  0.3720  1.0441  0.5768
  920MOL0     H24156   2.083  10.925   0.759  1.1031  1.5349 -2.0605
  920MOL0     H24157   2.151  10.980   0.911  1.3268  0.0383  0.2249
  920MOL0     H24158   2.131  11.142   0.669  0.1708  1.6814 -0.2475
  920MOL0     H24159   2.279  11.061   0.735  0.8597  1.9816 -2.7807
  920MOL0     H24160   2.402  11.026   0.909  1.5171 -0.3719 -0.5661
  920MOL0     H24161   2.600  11.071   1.024  0.1793  0.6868  0.4296
  920MOL0     H24162   2.921  11.016   1.139  1.0635 -0.0939  0.9494
  920MOL0     H24163   3.106  10.943   1.276 -0.3414 -0.3356  1.5057
  920MOL0     H24164   3.153  10.879   1.511  1.7060 -1.5415  3.5289
  920MOL0     H24165   3.284  10.912   1.403 -0.5783 -0.5513  0.3135
  920MOL0     H24166   3.423  10.979   1.605 -0.6415 -1.0962 -1.1975
  920MOL0     H24167   3.281  10.954   1.713 -1.5616 -2.0232  0.5622
  920MOL0     H24168   3.272  10.725   1.685  0.1562  0.0192  1.5110
  920MOL0     H24169   3.402  10.727   1.556  0.3338  0.2362 -0.0902
  920MOL0     H24170   3.543  10.849   1.732  1.7270 -1.0354 -1.1704
  920MOL0     H24171   3.538  10.667   1.720 -2.5213 -1.8004 -1.9943
  920MOL0     H24172   3.372  10.681   1.920 -0.4632  1.8755  2.3172
  920MOL0     H24173   3.366  10.849   1.907 -1.8973 -1.0643 -0.9782
  920MOL0     H24174   3.598  10.876   1.963 -0.5362 -0.3501 -0.6442
  920MOL0     H24175   3.535  10.801   2.093  2.0193  1.7153 -0.0746
  920MOL0     H24176   3.753  10.689   2.029 -0.9273 -1.4112  1.7825
  920MOL0     H24177   3.657  10.641   1.878 -1.2224 -1.0176 -0.1344
  920MOL0     H24178   3.538  10.562   2.133 -0.2734  1.7860 -0.4503
  920MOL0     H24179   3.559  10.474   1.979 -0.0499  0.3063 -0.4383
  920MOL0     H24180   3.057  11.292   1.524  1.3048 -0.2900  0.6752
  920MOL0     H24181   2.854  11.346   1.393 -2.4779 -0.7287 -1.8678
  920MOL0     H24182   2.487  11.492   1.032 -0.3311  0.1121 -1.1603
  920MOL0     H24183   2.311  11.453   0.903  2.7076  2.7768  3.0117
  920MOL0     H24184   0.655  11.179   0.499 -0.7582  0.1067 -0.9282
  920MOL0     H24185   0.551  10.972   0.426  0.0220  1.4219 -0.5727
  920MOL0     H24186   0.355  10.679   0.339  0.9324 -3.8388 -0.7008
  920MOL0     H24187   0.297  10.482   0.238 -0.1838 -1.5930  1.5557
  920MOL0     H24188  -0.141  10.382   0.183 -0.0426 -0.2883 -1.4676
  920MOL0     H24189  -0.050  10.261   0.267 -6.2694  0.7923  0.6866
  920MOL0     H24190  -0.107  10.119   0.117  1.6445 -1.7198  1.3631
  920MOL0     H24191   0.039  10.173   0.049 -1.0615 -2.1378  0.1515
  920MOL0     H24192  -0.096  10.356  -0.074 -1.0513  0.4941 -2.7660
  920MOL0     H24193  -0.253  10.279  -0.018 -0.2632 -0.4067 -1.2437
  920MOL0     H24194  -0.075  10.110  -0.183  0.3351  1.3471  1.8898
  920MOL0     H24195  -0.249  10.100  -0.137 -1.2916  1.8714  0.8351
  920MOL0     H24196  -0.145  10.344  -0.489 -0.6222 -0.4958  0.0033
  920MOL0     H24197  -0.114  10.533   0.321  0.1747  0.4350  2.5400
  920MOL0     H24198  -0.095  10.755   0.568 -0.1846  1.4736  0.2563
  920MOL0     H24199  -0.098  10.867   0.434  6.0250  0.3332  0.3467
  920MOL0     H24200  -0.193  10.709   0.441 -0.3111 -1.2294  0.6146
  921MOL0     O24201   8.354   0.213   9.128  0.2383 -0.2570  0.5677
  921MOL0     C24202   8.340   0.161   9.238 -0.7087 -0.2164  0.1350
  921MOL0     O24203   8.425   0.072   9.294  0.2441 -0.0729  0.8949
  921MOL0     C24204   8.549   0.051   9.240  0.1398  0.3121  0.8054
  921MOL0     C24205   8.597  -0.082   9.255 -0.2743  0.3121  0.6779
  921MOL0     C24206   8.724  -0.115   9.208  0.2509 -1.0223 -0.0277
  921MOL0     C24207   8.805  -0.022   9.157  0.0415  0.6759  0.1945
  921MOL0     O24208   8.931  -0.070   9.127 -0.0523 -0.8513  0.1768
  921MOL0     C24209   9.009   0.011   9.038  0.1152 -0.4269  0.4741
  921MOL0     C24210   9.114  -0.088   8.966  0.4554  0.0780 -0.2898
  921MOL0     C24211   9.228  -0.131   9.067 -0.8733 -0.6766  0.2455
  921MOL0     C24212   9.351  -0.186   8.986  0.2491  0.6894 -1.1682
  921MOL0     C24213   9.464  -0.237   9.075 -0.2838 -0.7640  0.2955
  921MOL0     C24214   9.581  -0.304   8.998  0.0849  0.2398 -0.9225
  921MOL0     C24215   9.629  -0.222   8.878  0.1128 -0.1540  0.7162
  921MOL0     C24216   9.682  -0.082   8.911 -0.6355 -0.5867  0.3634
  921MOL0     N24217   9.730  -0.018   8.792 -0.3135 -0.5481  0.1547
  921MOL0     C24218   9.649   0.030   8.695  0.4006 -0.5320 -0.9661
  921MOL0     C24219   9.731   0.064   8.591 -0.3397  0.0570  0.2828
  921MOL0     C24220   9.690   0.111   8.454  0.0181 -0.4424  0.4951
  921MOL0     C24221   9.793   0.072   8.347 -0.1592 -0.8619 -0.3191
  921MOL0     C24222   9.910   0.174   8.331  0.1399 -0.0978  0.0840
  921MOL0     C24223  10.003   0.118   8.220 -1.0507  0.5360  0.4377
  921MOL0     O24224  10.103   0.218   8.195 -0.3089 -0.2274 -0.0012
  921MOL0     C24225  10.222   0.223   8.259 -0.4225  1.1486 -0.0333
  921MOL0     C24226  10.326   0.304   8.207  0.3412  0.4348  1.3216
  921MOL0     C24227  10.452   0.302   8.258  0.3753 -0.5886 -0.1287
  921MOL0     C24228  10.476   0.221   8.366 -1.0603 -0.3330 -0.0903
  921MOL0     C24229  10.610   0.205   8.424  0.8002 -0.6780  0.4725
  921MOL0     O24230  10.700   0.296   8.377  0.1902  0.0261  0.4050
  921MOL0     C24231  10.835   0.295   8.404 -0.4980 -0.0804 -0.0780
  921MOL0     C24232  10.906   0.416   8.387  0.6652 -0.0681  0.6014
  921MOL0     C24233  11.048   0.406   8.391  0.0680 -0.0561 -0.5630
  921MOL0     C24234  11.114   0.285   8.397  0.3450  0.3755 -0.0574
  921MOL0     O24235  11.251   0.287   8.375  0.1126  0.2017 -0.1078
  921MOL0     C24236  11.305   0.167   8.317  0.0548 -0.8836 -0.0237
  921MOL0     C24237  11.456   0.198   8.297  0.0720 -0.3542  0.0048
  921MOL0     C24238  11.522   0.101   8.196 -0.2502 -0.3109  0.4511
  921MOL0     C24239  11.673   0.084   8.212  0.4485  0.0619  0.1034
  921MOL0     C24240  11.738   0.000   8.104 -0.5949 -0.5917 -0.5948
  921MOL0     C24241  11.895   0.004   8.116 -0.1068 -0.0616 -0.5151
  921MOL0     C24242  11.928  -0.091   8.240  0.0006  0.6630 -0.2035
  921MOL0     C24243  12.076  -0.077   8.288 -0.4469 -0.0628 -0.5822
  921MOL0    Cl24244  12.162  -0.146   8.143 -0.1053  0.6014 -0.3090
  921MOL0     C24245  11.039   0.169   8.418  0.2126  0.1290  0.9414
  921MOL0     C24246  10.898   0.173   8.422 -0.5332 -0.1746 -0.1388
  921MOL0     O24247  10.628   0.117   8.505 -0.1331  0.1804  0.3911
  921MOL0     C24248  10.365   0.161   8.434  0.3503  0.6863  0.6739
  921MOL0     C24249  10.241   0.160   8.373  0.2788  0.4084  0.3358
  921MOL0     N24250   9.859   0.027   8.630 -0.1751  0.5567  0.5246
  921MOL0     N24251   9.860  -0.013   8.751 -0.3271  0.4937 -0.4208
  921MOL0     C24252   8.762   0.109   9.144 -0.3426  0.8332 -0.1985
  921MOL0     C24253   8.638   0.145   9.185 -0.0657 -0.6618 -0.0155
  921MOL0     C24254   8.203   0.168   9.298 -0.3321  0.2917 -0.3954
  921MOL0     C24255   8.159   0.072   9.389  0.1649  0.3077  0.8050
  921MOL0     C24256   8.033   0.090   9.450 -1.1944  0.4131  0.2596
  921MOL0     C24257   7.948   0.192   9.421  1.1316  0.5745  0.5861
  921MOL0     O24258   7.826   0.183   9.482 -0.1746 -0.1599  0.6992
  921MOL0     C24259   7.764   0.310   9.522  0.0986  0.1571 -0.1705
  921MOL0     C24260   7.802   0.348   9.670  0.0776 -0.2724  0.6768
  921MOL0     C24261   7.954   0.378   9.689  0.6497 -0.0545  0.4852
  921MOL0     C24262   7.976   0.451   9.819  0.6828 -0.2242  0.4578
  921MOL0     C24263   7.951   0.365   9.938 -0.0625  0.1523 -0.2653
  921MOL0     C24264   7.933   0.313  10.042 -1.0980  0.6369 -0.0369
  921MOL0     C24265   7.987   0.285   9.329 -0.0677 -0.0033 -0.1320
  921MOL0     C24266   8.110   0.277   9.261 -1.1226 -0.4058 -0.7660
  921MOL0     C24267   8.147   0.395   9.172 -0.1538 -0.2729  0.2819
  921MOL0     H24268   8.540  -0.146   9.321  1.6783 -0.5007  1.6737
  921MOL0     H24269   8.769  -0.213   9.217  0.0144 -1.1030  0.3284
  921MOL0     H24270   8.940   0.057   8.968  0.6074 -2.9357 -1.8070
  921MOL0     H24271   9.066   0.085   9.095 -1.3149  0.3149  0.9769
  921MOL0     H24272   9.163  -0.058   8.874  0.7130 -1.6504 -0.7576
  921MOL0     H24273   9.057  -0.178   8.938 -0.9392 -0.2558  3.0589
  921MOL0     H24274   9.191  -0.198   9.145  0.3054 -2.6049 -0.7655
  921MOL0     H24275   9.266  -0.047   9.126 -1.3823 -2.1854  2.8650
  921MOL0     H24276   9.319  -0.259   8.912 -0.1959 -0.6670  0.2956
  921MOL0     H24277   9.384  -0.098   8.930 -0.7626  1.6182 -0.3586
  921MOL0     H24278   9.512  -0.161   9.136 -1.7970  0.1671  0.3755
  921MOL0     H24279   9.421  -0.300   9.154  2.1494 -0.3121  2.0788
  921MOL0     H24280   9.661  -0.331   9.068 -1.6897 -0.0833  1.0766
  921MOL0     H24281   9.545  -0.400   8.960 -1.4812 -0.5021  2.1493
  921MOL0     H24282   9.540  -0.203   8.818 -0.3314  3.9504  2.3045
  921MOL0     H24283   9.700  -0.284   8.824 -0.0440 -0.5639  0.9804
  921MOL0     H24284   9.601  -0.029   8.963 -2.3622 -2.9215  0.2301
  921MOL0     H24285   9.768  -0.085   8.979 -0.0666  1.7260 -0.1722
  921MOL0     H24286   9.547   0.065   8.693  1.0935  1.8144  0.7143
  921MOL0     H24287   9.593   0.067   8.428 -0.3890 -0.3646  1.8153
  921MOL0     H24288   9.669   0.218   8.462  1.4647 -0.1563  0.7730
  921MOL0     H24289   9.847  -0.021   8.369  0.5401 -0.3152  0.3567
  921MOL0     H24290   9.735   0.062   8.255 -2.1929 -0.6727  0.8896
  921MOL0     H24291   9.966   0.198   8.422  0.4707  1.0300 -0.3978
  921MOL0     H24292   9.860   0.260   8.286 -2.2392  0.1266  2.9226
  921MOL0     H24293   9.952   0.094   8.127  1.1022 -0.0703 -0.6631
  921MOL0     H24294  10.048   0.028   8.262 -1.6949  1.1319  2.5793
  921MOL0     H24295  10.311   0.354   8.111  1.0583 -1.8894 -0.0792
  921MOL0     H24296  10.541   0.348   8.216  0.0311 -0.7356 -1.0347
  921MOL0     H24297  10.849   0.507   8.372  2.8540  1.2218 -0.5652
  921MOL0     H24298  11.096   0.503   8.384 -0.1068  0.4635  3.1779
  921MOL0     H24299  11.310   0.081   8.384  0.2632 -1.3099 -0.5814
  921MOL0     H24300  11.247   0.147   8.227 -2.2365  1.2586  0.8533
  921MOL0     H24301  11.464   0.303   8.268  1.0579  0.8004  3.9634
  921MOL0     H24302  11.512   0.179   8.389  2.9224 -1.0664 -1.7567
  921MOL0     H24303  11.486  -0.002   8.204 -0.6883 -0.2017 -0.0247
  921MOL0     H24304  11.511   0.137   8.093 -0.5777 -0.7820  0.3203
  921MOL0     H24305  11.684   0.034   8.309  0.8622  0.9259  0.5116
  921MOL0     H24306  11.725   0.180   8.220 -0.1659  0.4559 -0.5237
  921MOL0     H24307  11.714   0.046   8.007  2.7555  0.7382 -0.9427
  921MOL0     H24308  11.692  -0.099   8.098 -1.5454 -0.0956 -2.4251
  921MOL0     H24309  11.947  -0.030   8.027  0.8404  0.5301 -0.2019
  921MOL0     H24310  11.930   0.106   8.132 -0.1036  0.2046 -2.0900
  921MOL0     H24311  11.908  -0.195   8.213 -0.3835  0.1607  1.8505
  921MOL0     H24312  11.856  -0.082   8.322 -2.0069  1.2128 -1.9286
  921MOL0     H24313  12.110   0.026   8.306  1.8728 -0.8212 -0.2971
  921MOL0     H24314  12.085  -0.133   8.381 -0.9775  0.4834 -0.1957
  921MOL0     H24315  11.083   0.070   8.423  1.0828  0.5753  3.3278
  921MOL0     H24316  10.842   0.080   8.430 -0.2249 -0.5583 -2.0006
  921MOL0     H24317  10.372   0.091   8.516 -2.0559 -3.6953 -2.4327
  921MOL0     H24318  10.159   0.119   8.430  1.1459 -1.2931  0.4322
  921MOL0     H24319   8.834   0.186   9.120  0.9895 -0.7484 -1.4742
  921MOL0     H24320   8.624   0.252   9.181  2.0101 -0.4085 -1.5889
  921MOL0     H24321   8.221  -0.013   9.418  2.4193  2.1532  1.7102
  921MOL0     H24322   7.999   0.013   9.518  2.0373  0.9785  2.7540
  921MOL0     H24323   7.659   0.278   9.532  0.5519 -0.5248  4.1440
  921MOL0     H24324   7.781   0.388   9.448  0.3631 -0.2672 -0.5619
  921MOL0     H24325   7.770   0.265   9.735 -2.0727  0.5359  0.7369
  921MOL0     H24326   7.745   0.438   9.694 -3.4299 -1.5520 -2.0420
  921MOL0     H24327   7.987   0.446   9.610  0.1638  2.2231  2.1065
  921MOL0     H24328   8.018   0.290   9.678  1.6409  0.6317  0.5288
  921MOL0     H24329   8.082   0.478   9.822  0.6473 -0.0141  0.0301
  921MOL0     H24330   7.932   0.551   9.814  4.1966  1.4490 -1.0942
  921MOL0     H24331   7.928   0.255  10.132  3.2251  2.5999  1.7638
  921MOL0     H24332   7.918   0.360   9.290 -3.5295 -2.2777  1.1246
  921MOL0     H24333   8.230   0.457   9.209 -2.6673  2.6738  1.3837
  921MOL0     H24334   8.176   0.361   9.072  1.0305 -0.1011  0.5429
  921MOL0     H24335   8.064   0.465   9.163 -0.5468 -0.9414 -1.8239
  922MOL0     O24336   1.453   0.806   8.387  0.3728  0.2388 -0.3304
  922MOL0     C24337   1.425   0.865   8.281  0.2656 -0.7892 -0.2733
  922MOL0     O24338   1.521   0.935   8.211  0.6776 -0.2336  0.0143
  922MOL0     C24339   1.656   0.910   8.237  0.1758  0.1040  0.2602
  922MOL0     C24340   1.717   0.941   8.357 -0.0616  0.3359 -0.3610
  922MOL0     C24341   1.856   0.911   8.378  0.7682  0.4172 -0.1950
  922MOL0     C24342   1.930   0.843   8.275 -0.0228  0.0208  0.4824
  922MOL0     O24343   2.066   0.805   8.294 -0.0882  0.8165 -0.0725
  922MOL0     C24344   2.159   0.908   8.334 -0.3439 -0.6660 -0.3320
  922MOL0     C24345   2.288   0.842   8.360 -0.1549  0.2431  1.0536
  922MOL0     C24346   2.362   0.829   8.219 -0.7264 -0.1088 -0.6197
  922MOL0     C24347   2.507   0.769   8.242  0.0010  0.2873 -0.8105
  922MOL0     C24348   2.580   0.763   8.106 -0.5254 -0.1813 -0.4116
  922MOL0     C24349   2.720   0.694   8.115 -0.0508 -0.1024 -0.0857
  922MOL0     C24350   2.820   0.772   8.208 -0.5486 -0.5140  0.6516
  922MOL0     C24351   2.842   0.920   8.166 -0.1693 -0.2661 -0.6333
  922MOL0     N24352   2.887   0.931   8.024 -1.0409  0.3801  0.5356
  922MOL0     C24353   2.968   0.848   7.944  0.6725  0.3633 -0.2429
  922MOL0     C24354   2.985   0.923   7.830  0.4912 -0.3463 -0.7489
  922MOL0     C24355   3.071   0.889   7.708  0.8427  1.0312 -0.0729
  922MOL0     C24356   3.229   0.886   7.737  0.9382 -0.8147  0.0942
  922MOL0     C24357   3.284   1.024   7.770  1.0774 -0.1442 -0.3635
  922MOL0     C24358   3.427   1.021   7.795 -0.6943  0.9397 -0.4134
  922MOL0     O24359   3.475   1.113   7.890 -0.5730 -0.3782  0.0187
  922MOL0     C24360   3.609   1.112   7.922 -0.0883 -0.0759  0.4044
  922MOL0     C24361   3.647   1.191   8.030 -0.9945 -0.3641  0.1009
  922MOL0     C24362   3.770   1.197   8.082 -0.2183 -0.5330  0.5470
  922MOL0     C24363   3.873   1.116   8.030 -0.8607 -0.1795 -0.1534
  922MOL0     C24364   4.013   1.120   8.080  1.1940 -0.2183  0.2158
  922MOL0     O24365   4.104   1.035   8.012  0.7408 -0.5147 -0.1074
  922MOL0     C24366   4.236   1.050   8.042 -0.4443 -0.2606 -0.6694
  922MOL0     C24367   4.301   0.985   8.146  0.2899  1.0405  0.2971
  922MOL0     C24368   4.441   0.992   8.162  1.3881 -0.3252 -0.4732
  922MOL0     C24369   4.516   1.055   8.069 -0.5357 -0.5520 -0.2976
  922MOL0     O24370   4.654   1.086   8.088 -0.2094  0.0618 -0.1609
  922MOL0     C24371   4.715   1.077   8.222  0.4550 -0.0891  0.3582
  922MOL0     C24372   4.647   1.165   8.327  0.6927 -0.7353 -0.1173
  922MOL0     C24373   4.740   1.184   8.443 -0.1667 -0.9624 -0.5895
  922MOL0     C24374   4.835   1.297   8.416 -0.2813  0.4020 -0.6225
  922MOL0     C24375   4.927   1.325   8.537 -0.0836 -0.3402 -0.0700
  922MOL0     C24376   5.025   1.209   8.577  0.3025 -0.6467 -0.8273
  922MOL0     C24377   5.112   1.255   8.695  0.3825  0.5999  0.5285
  922MOL0     C24378   5.228   1.344   8.645 -0.4101  0.1844 -0.0118
  922MOL0    Cl24379   5.326   1.412   8.778 -0.0191 -0.1535 -0.2127
  922MOL0     C24380   4.451   1.114   7.960 -0.4689  0.3346  0.4186
  922MOL0     C24381   4.318   1.109   7.944  0.1008 -0.2013 -0.0607
  922MOL0     O24382   4.034   1.186   8.177 -0.4258  0.6072 -0.4761
  922MOL0     C24383   3.835   1.034   7.921  0.4020 -0.0627  0.2776
  922MOL0     C24384   3.707   1.030   7.862  0.3832 -0.3370  0.5485
  922MOL0     N24385   2.925   1.043   7.839  0.7950 -0.6010  0.0923
  922MOL0     N24386   2.864   1.044   7.961  0.3808 -0.6331  1.0328
  922MOL0     C24387   1.860   0.801   8.160 -0.0831 -0.4424  0.4849
  922MOL0     C24388   1.728   0.832   8.141  0.4368  0.1722  0.2917
  922MOL0     C24389   1.282   0.904   8.238  0.4188 -0.2419 -0.4723
  922MOL0     C24390   1.254   0.954   8.110 -0.6544 -0.1594 -0.0836
  922MOL0     C24391   1.126   0.991   8.063  0.0193  0.0719 -0.4680
  922MOL0     C24392   1.014   0.971   8.150 -0.7181 -0.4057 -0.0790
  922MOL0     O24393   0.883   0.986   8.114  0.1080 -0.1539  0.4173
  922MOL0     C24394   0.851   1.026   7.978  0.0495 -0.2491 -0.6459
  922MOL0     C24395   0.700   1.026   7.971 -0.3641  0.1022 -0.2917
  922MOL0     C24396   0.632   1.113   8.074  0.6093 -0.1647  0.1431
  922MOL0     C24397   0.658   1.262   8.037 -0.1817  0.2745  0.4667
  922MOL0     C24398   0.560   1.340   8.114  0.3688  1.1685 -0.3371
  922MOL0     C24399   0.488   1.405   8.187 -0.2227  0.1993  0.5024
  922MOL0     C24400   1.045   0.915   8.273 -0.1146  0.4434  0.0791
  922MOL0     C24401   1.172   0.891   8.325  0.6125  0.7333  0.0676
  922MOL0     C24402   1.184   0.851   8.468  0.3786  0.2447  0.6831
  922MOL0     H24403   1.659   1.005   8.424  2.5817  1.5968  0.8444
  922MOL0     H24404   1.899   0.932   8.476  0.2828  2.2860 -0.3450
  922MOL0     H24405   2.170   0.991   8.264  1.0783  0.2939  0.9569
  922MOL0     H24406   2.117   0.952   8.426 -2.1741  2.9370 -2.6447
  922MOL0     H24407   2.273   0.743   8.403 -2.8650 -1.2268 -2.7328
  922MOL0     H24408   2.348   0.898   8.433  0.4976  2.0431 -0.7753
  922MOL0     H24409   2.383   0.923   8.166  1.3737  0.0510  0.4172
  922MOL0     H24410   2.297   0.760   8.164 -0.6075  0.3000 -1.2850
  922MOL0     H24411   2.558   0.844   8.304  0.5285 -0.3779 -0.4197
  922MOL0     H24412   2.503   0.670   8.290  1.6574  0.0455 -1.0967
  922MOL0     H24413   2.515   0.706   8.038 -1.1061 -2.3704  1.8206
  922MOL0     H24414   2.594   0.865   8.069 -3.3711  0.6424  0.5142
  922MOL0     H24415   2.712   0.597   8.163  0.1870 -1.1364 -2.0447
  922MOL0     H24416   2.757   0.666   8.016 -1.5213 -0.1223 -0.6560
  922MOL0     H24417   2.919   0.725   8.208 -1.4851 -2.6417  1.9741
  922MOL0     H24418   2.778   0.776   8.309 -2.6078  0.4452 -0.1984
  922MOL0     H24419   2.751   0.976   8.189  2.0279  2.7342  1.5745
  922MOL0     H24420   2.912   0.967   8.236 -1.2712  1.3950 -0.5829
  922MOL0     H24421   2.994   0.745   7.964  1.2673  0.3258 -1.1582
  922MOL0     H24422   3.032   0.794   7.671 -0.5118  1.1388  0.9691
  922MOL0     H24423   3.043   0.962   7.631  3.0632 -0.7553 -2.7676
  922MOL0     H24424   3.254   0.810   7.812  0.2587 -0.9451  0.1933
  922MOL0     H24425   3.276   0.856   7.643  2.1040 -0.1750  0.4406
  922MOL0     H24426   3.233   1.059   7.860  0.7619 -0.1950 -0.5234
  922MOL0     H24427   3.256   1.086   7.684  0.4943 -0.4376 -0.3913
  922MOL0     H24428   3.473   1.037   7.697  0.7065  1.1456  0.2478
  922MOL0     H24429   3.462   0.921   7.823 -0.8262  0.5094 -1.7371
  922MOL0     H24430   3.560   1.243   8.067 -0.7151  0.0893  0.1337
  922MOL0     H24431   3.792   1.266   8.163 -2.1907 -1.5462  2.0344
  922MOL0     H24432   4.236   0.926   8.209 -1.3474  1.9368 -0.4840
  922MOL0     H24433   4.486   0.943   8.248 -0.5457 -0.4262  0.5306
  922MOL0     H24434   4.733   0.972   8.246 -0.3128 -0.5983 -1.1481
  922MOL0     H24435   4.816   1.117   8.207  0.4196 -0.9144 -2.6105
  922MOL0     H24436   4.621   1.261   8.282  0.6840 -0.8280 -0.3152
  922MOL0     H24437   4.558   1.112   8.364 -0.3822  0.9697 -0.1338
  922MOL0     H24438   4.674   1.217   8.524  3.0673  1.1132  1.4212
  922MOL0     H24439   4.786   1.087   8.464  0.5994 -0.5543 -0.3447
  922MOL0     H24440   4.793   1.393   8.383 -0.6301  0.3076 -0.4600
  922MOL0     H24441   4.890   1.267   8.326 -0.1389  1.4262 -0.8933
  922MOL0     H24442   4.868   1.355   8.625  0.2604  2.2177 -0.6261
  922MOL0     H24443   4.995   1.403   8.502  1.6141 -2.2390 -1.2264
  922MOL0     H24444   4.968   1.121   8.611  2.9068 -3.2633 -2.6952
  922MOL0     H24445   5.090   1.183   8.493  1.5591 -0.1059 -0.0394
  922MOL0     H24446   5.138   1.157   8.735 -1.0949 -0.7750 -1.6295
  922MOL0     H24447   5.054   1.304   8.774 -1.2991 -2.7848  1.5849
  922MOL0     H24448   5.290   1.290   8.573 -0.5526 -2.3880  1.6575
  922MOL0     H24449   5.185   1.427   8.589 -2.3410 -0.3378  0.6292
  922MOL0     H24450   4.504   1.168   7.883 -0.8316  0.8577  0.5297
  922MOL0     H24451   4.288   1.152   7.849 -2.1792 -0.6561  0.3894
  922MOL0     H24452   3.895   0.955   7.878 -4.2763 -3.3559 -1.0885
  922MOL0     H24453   3.695   0.942   7.799 -0.6460 -2.3424  3.3351
  922MOL0     H24454   1.903   0.735   8.086 -1.0536  1.3641 -1.8022
  922MOL0     H24455   1.693   0.798   8.044 -0.5230  0.5293  0.5056
  922MOL0     H24456   1.342   0.968   8.048  0.7186 -1.1016  1.5391
  922MOL0     H24457   1.115   1.033   7.963 -0.0733 -0.6939 -0.7936
  922MOL0     H24458   0.894   0.950   7.912 -0.4580 -0.1146 -1.1325
  922MOL0     H24459   0.894   1.121   7.944 -1.2106  0.4733 -0.2663
  922MOL0     H24460   0.664   0.926   7.995 -1.2248 -0.0662 -2.1407
  922MOL0     H24461   0.660   1.057   7.874 -1.6074 -1.5318 -0.3500
  922MOL0     H24462   0.681   1.093   8.170  3.9829 -0.7916 -1.5616
  922MOL0     H24463   0.524   1.094   8.080  0.5692  0.3336  1.2881
  922MOL0     H24464   0.758   1.298   8.062 -0.1324  0.5173 -0.0648
  922MOL0     H24465   0.640   1.279   7.930  0.2666  0.4818  0.4193
  922MOL0     H24466   0.424   1.463   8.250 -2.2910  0.7095 -1.9046
  922MOL0     H24467   0.954   0.898   8.329 -2.5338  0.0742 -3.6439
  922MOL0     H24468   1.086   0.850   8.515 -0.6563 -0.7834 -1.3459
  922MOL0     H24469   1.231   0.753   8.481  1.8674  1.0347  1.5268
  922MOL0     H24470   1.244   0.919   8.529 -1.2247  1.1499  1.2939
  923MOL0     O24471   7.240   1.461  10.663 -0.1806 -0.5949  0.3850
  923MOL0     C24472   7.236   1.572  10.724  0.4975 -0.5980  0.0313
  923MOL0     O24473   7.339   1.648  10.776  0.0630  0.1108  0.1737
  923MOL0     C24474   7.466   1.596  10.791 -0.0596  0.2131 -0.0352
  923MOL0     C24475   7.502   1.464  10.798 -0.1815 -0.2318  0.6610
  923MOL0     C24476   7.636   1.421  10.799 -1.0338 -0.2766  0.0012
  923MOL0     C24477   7.744   1.515  10.806  0.3487  0.8779  0.4726
  923MOL0     O24478   7.875   1.464  10.809 -0.1742 -0.7913 -0.4003
  923MOL0     C24479   7.980   1.558  10.846 -0.8509 -0.0550  0.1250
  923MOL0     C24480   7.979   1.576  11.000 -0.0323  0.3177 -0.0766
  923MOL0     C24481   8.118   1.631  11.053 -0.0866 -0.5855  0.7724
  923MOL0     C24482   8.235   1.527  11.041  0.3433 -1.3115  0.2570
  923MOL0     C24483   8.350   1.579  11.109  0.5569 -0.6346  0.0667
  923MOL0     C24484   8.393   1.720  11.057 -0.6805 -0.2724  0.7847
  923MOL0     C24485   8.444   1.731  10.911 -0.8294  0.1254 -0.0322
  923MOL0     C24486   8.584   1.660  10.891  0.8588  0.0450  0.0258
  923MOL0     N24487   8.630   1.678  10.753 -0.5364  0.6958 -0.6373
  923MOL0     C24488   8.579   1.622  10.641  0.1385 -0.2921  0.9263
  923MOL0     C24489   8.642   1.677  10.534  1.0308  0.6782  0.4853
  923MOL0     C24490   8.618   1.650  10.389 -0.4074 -0.4183  0.1578
  923MOL0     C24491   8.495   1.554  10.376 -0.2173  0.1236  0.1803
  923MOL0     C24492   8.467   1.523  10.223  0.4751 -0.2255 -0.6404
  923MOL0     C24493   8.589   1.529  10.137 -0.0194 -0.2663  0.2112
  923MOL0     O24494   8.551   1.503  10.001  0.0209 -0.1396  0.3417
  923MOL0     C24495   8.640   1.511   9.902 -0.1745 -0.3881 -0.0575
  923MOL0     C24496   8.775   1.552   9.922  0.1717  0.1864  0.0315
  923MOL0     C24497   8.874   1.547   9.818  0.8058 -0.1776  0.0278
  923MOL0     C24498   8.829   1.497   9.688 -0.0685  0.0423  0.1420
  923MOL0     C24499   8.921   1.487   9.580 -0.0742 -1.0401  0.2372
  923MOL0     O24500   8.879   1.430   9.470  0.7614 -0.3094 -0.4517
  923MOL0     C24501   8.945   1.438   9.347  0.6854 -0.0362  0.4379
  923MOL0     C24502   8.870   1.380   9.245  0.0815 -0.8720  0.3185
  923MOL0     C24503   8.904   1.384   9.106  0.0164  0.1613  0.4676
  923MOL0     C24504   9.027   1.434   9.058 -1.1782 -0.3787 -0.2634
  923MOL0     O24505   9.066   1.446   8.928  0.0648 -0.3892 -0.7784
  923MOL0     C24506   9.061   1.326   8.855 -0.2890  0.6136  0.2803
  923MOL0     C24507   9.143   1.334   8.723  0.3875 -0.2958  0.3113
  923MOL0     C24508   9.295   1.347   8.763  0.4517  0.5386 -0.1169
  923MOL0     C24509   9.384   1.315   8.646 -0.5767  0.0677 -0.0067
  923MOL0     C24510   9.526   1.337   8.686 -1.6357  0.0674  0.4732
  923MOL0     C24511   9.636   1.303   8.580  0.0002 -0.2946 -0.5960
  923MOL0     C24512   9.765   1.359   8.626 -0.3944  0.0667  0.4101
  923MOL0     C24513   9.871   1.321   8.519 -0.3756 -0.1879  0.0375
  923MOL0    Cl24514  10.026   1.384   8.575 -0.2290 -0.5614 -0.2149
  923MOL0     C24515   9.101   1.508   9.165 -0.5666 -0.4368  0.3250
  923MOL0     C24516   9.063   1.505   9.302 -0.5325  0.0248 -0.3044
  923MOL0     O24517   9.036   1.531   9.594  0.1145 -0.0957 -0.2722
  923MOL0     C24518   8.695   1.461   9.672 -0.3560 -0.2948  0.0618
  923MOL0     C24519   8.607   1.464   9.778  0.2570 -0.0387  0.2185
  923MOL0     N24520   8.739   1.763  10.585  0.3567 -1.0247 -0.4084
  923MOL0     N24521   8.735   1.756  10.713 -0.6142 -0.1161 -0.5593
  923MOL0     C24522   7.708   1.646  10.810  0.3871 -0.9389 -0.0587
  923MOL0     C24523   7.571   1.685  10.796  0.3804 -0.5637 -0.5837
  923MOL0     C24524   7.100   1.630  10.746 -0.0178 -0.1039  0.3668
  923MOL0     C24525   6.993   1.539  10.755 -0.6169  0.2323  0.0439
  923MOL0     C24526   6.862   1.576  10.771  0.6865  0.5030  0.7913
  923MOL0     C24527   6.826   1.714  10.774 -0.0475 -0.1614  0.0664
  923MOL0     O24528   6.696   1.761  10.785 -0.1851 -0.4768  0.4783
  923MOL0     C24529   6.595   1.661  10.772 -0.0901  0.3501 -0.7701
  923MOL0     C24530   6.453   1.722  10.770  0.3264 -0.2652 -0.2583
  923MOL0     C24531   6.335   1.628  10.740 -0.2709 -0.6145 -0.4718
  923MOL0     C24532   6.344   1.565  10.605 -0.4103  0.1034  0.2221
  923MOL0     C24533   6.295   1.666  10.503  0.8995  0.8420  0.2118
  923MOL0     C24534   6.258   1.750  10.418  0.1540 -0.4095 -0.8882
  923MOL0     C24535   6.930   1.803  10.750 -0.7884 -0.1910  0.1635
  923MOL0     C24536   7.068   1.768  10.745 -0.8163 -0.1545  0.0672
  923MOL0     C24537   7.182   1.868  10.730  0.1893 -0.4126 -0.2736
  923MOL0     H24538   7.419   1.395  10.785 -0.4619  0.3682 -0.9563
  923MOL0     H24539   7.661   1.316  10.788 -0.9731 -0.2246 -0.3763
  923MOL0     H24540   8.073   1.511  10.813  0.3948  2.3906 -0.0485
  923MOL0     H24541   7.981   1.656  10.797 -2.7738 -0.1269 -0.1191
  923MOL0     H24542   7.958   1.480  11.048 -1.6428  0.1525 -1.0457
  923MOL0     H24543   7.898   1.638  11.039  0.9145  0.4909  1.7151
  923MOL0     H24544   8.109   1.677  11.152  0.6680  0.2008  0.4912
  923MOL0     H24545   8.144   1.720  10.995  1.7476  0.0633  2.4816
  923MOL0     H24546   8.203   1.433  11.086 -0.3824 -1.4689 -0.5620
  923MOL0     H24547   8.258   1.512  10.936  0.7319 -0.6022  0.2294
  923MOL0     H24548   8.328   1.586  11.216  0.0081 -2.0361  0.0680
  923MOL0     H24549   8.434   1.510  11.094  1.2837 -0.1984  1.9017
  923MOL0     H24550   8.313   1.794  11.065  1.7018  2.4853  0.8462
  923MOL0     H24551   8.475   1.755  11.119 -0.1429 -1.8095  0.9776
  923MOL0     H24552   8.471   1.836  10.896  0.7329 -0.1828  0.4813
  923MOL0     H24553   8.366   1.711  10.836 -0.7108  1.0134 -0.3955
  923MOL0     H24554   8.658   1.714  10.952  3.3156 -3.9244  1.0059
  923MOL0     H24555   8.586   1.553  10.913  1.8040 -0.0442 -0.4189
  923MOL0     H24556   8.503   1.544  10.644  1.5901 -1.7714  0.7580
  923MOL0     H24557   8.589   1.748  10.351  1.7836 -1.1471 -3.9609
  923MOL0     H24558   8.711   1.619  10.340  0.7895  1.9641  0.7536
  923MOL0     H24559   8.514   1.457  10.423 -0.3286 -1.7569 -3.2852
  923MOL0     H24560   8.407   1.599  10.421 -0.3299 -1.5068  1.7016
  923MOL0     H24561   8.394   1.598  10.189  2.0691  0.6931 -2.1844
  923MOL0     H24562   8.416   1.426  10.220  0.5916 -0.2585 -2.5870
  923MOL0     H24563   8.668   1.461  10.172  2.4992  2.3272 -0.0107
  923MOL0     H24564   8.634   1.628  10.145 -0.4650 -0.2154  2.8805
  923MOL0     H24565   8.824   1.601  10.005  1.9704 -1.4502  0.0217
  923MOL0     H24566   8.978   1.577   9.830  0.8024  0.0163 -0.3997
  923MOL0     H24567   8.774   1.338   9.273 -1.4458  3.2053  2.0057
  923MOL0     H24568   8.846   1.332   9.030  2.3403 -0.2775 -1.1109
  923MOL0     H24569   9.101   1.243   8.914 -4.0680  0.0482  2.3508
  923MOL0     H24570   8.960   1.291   8.833  0.1668 -1.4879  1.2750
  923MOL0     H24571   9.139   1.240   8.668  0.2020  0.9645 -1.9876
  923MOL0     H24572   9.103   1.414   8.659 -0.7766 -0.8586  0.3078
  923MOL0     H24573   9.317   1.448   8.798 -0.6146  1.8550 -2.9417
  923MOL0     H24574   9.312   1.273   8.842 -1.9083  0.2125  0.1785
  923MOL0     H24575   9.353   1.377   8.561 -0.5160  0.7227  0.4428
  923MOL0     H24576   9.367   1.209   8.629  1.2706 -0.7818  2.7662
  923MOL0     H24577   9.542   1.280   8.778 -0.3608  3.0745  2.2287
  923MOL0     H24578   9.540   1.438   8.724 -0.2900 -0.2309  0.8255
  923MOL0     H24579   9.650   1.195   8.571  2.0525 -0.1115 -0.0496
  923MOL0     H24580   9.616   1.349   8.483 -0.1696  0.1859 -0.3364
  923MOL0     H24581   9.779   1.318   8.726 -1.6955  0.6453  0.8574
  923MOL0     H24582   9.745   1.466   8.637 -4.1103 -0.2361 -1.6795
  923MOL0     H24583   9.886   1.213   8.513 -2.3613 -0.6351  1.9088
  923MOL0     H24584   9.844   1.356   8.419 -2.0779 -0.8013  0.2569
  923MOL0     H24585   9.187   1.568   9.133 -0.4073 -0.8361  0.0036
  923MOL0     H24586   9.129   1.550   9.375 -0.3124  0.6154 -0.8612
  923MOL0     H24587   8.671   1.426   9.572  0.5411  0.1612 -0.3286
  923MOL0     H24588   8.506   1.432   9.754 -0.2160  1.8277 -0.5297
  923MOL0     H24589   7.789   1.717  10.800  1.6183 -1.8212  2.6052
  923MOL0     H24590   7.537   1.787  10.782  0.0655 -0.3033  1.6791
  923MOL0     H24591   7.021   1.434  10.747 -1.4362 -0.2362  2.4675
  923MOL0     H24592   6.792   1.495  10.787 -0.0239  0.8506 -0.4193
  923MOL0     H24593   6.612   1.598  10.860 -1.9533  1.9609  0.8649
  923MOL0     H24594   6.622   1.604  10.683 -2.3789 -1.6617 -0.2947
  923MOL0     H24595   6.450   1.795  10.689 -3.2087  0.0172 -0.0260
  923MOL0     H24596   6.441   1.776  10.864 -0.9209 -2.1842  0.7536
  923MOL0     H24597   6.241   1.682  10.758  0.6321  0.2321  2.3515
  923MOL0     H24598   6.326   1.550  10.816 -3.5592  0.3518  0.2779
  923MOL0     H24599   6.446   1.536  10.578 -1.3036 -0.2245 -3.4287
  923MOL0     H24600   6.288   1.471  10.602 -1.1495  0.5389  0.0689
  923MOL0     H24601   6.206   1.816  10.351  1.4199  1.8039  0.1737
  923MOL0     H24602   6.907   1.909  10.750 -2.0541 -0.4490  0.3945
  923MOL0     H24603   7.244   1.880  10.819 -0.4889  0.3722  0.0979
  923MOL0     H24604   7.235   1.853  10.635 -0.3633 -0.7687 -0.5317
  923MOL0     H24605   7.142   1.969  10.736  2.3864  0.4283  1.4535
  924MOL0     O24606   3.746  10.023   1.380 -0.6327 -0.7941 -0.4782
  924MOL0     C24607   3.779   9.989   1.268  0.4197  0.1150  1.1523
  924MOL0     O24608   3.898  10.013   1.203 -0.3431  0.2935 -0.4733
  924MOL0     C24609   4.000  10.099   1.253 -0.5341 -0.4850 -0.6360
  924MOL0     C24610   4.086  10.163   1.165  0.3526  0.6086 -0.0319
  924MOL0     C24611   4.179  10.257   1.203 -0.5958  0.2520  0.5606
  924MOL0     C24612   4.191  10.284   1.336  0.2866  0.8364 -0.2131
  924MOL0     O24613   4.290  10.376   1.370 -0.3997 -0.2038  0.3216
  924MOL0     C24614   4.316  10.412   1.509  0.3491  0.3828  0.3008
  924MOL0     C24615   4.443  10.492   1.537  0.3426 -0.3162 -0.4984
  924MOL0     C24616   4.568  10.448   1.462 -0.7472  0.0121 -0.7846
  924MOL0     C24617   4.618  10.311   1.507 -0.0542 -0.9509  0.2067
  924MOL0     C24618   4.732  10.273   1.413  0.1007 -0.1070  0.3870
  924MOL0     C24619   4.809  10.147   1.460  0.0940 -1.0302 -0.1266
  924MOL0     C24620   4.927  10.102   1.379 -0.1203  1.1115  0.4410
  924MOL0     C24621   5.025  10.208   1.335  0.0179 -0.7247  0.5932
  924MOL0     N24622   5.077  10.280   1.448  0.6137 -0.4953 -0.5934
  924MOL0     C24623   5.156  10.225   1.544  0.1325 -0.0957 -0.2919
  924MOL0     C24624   5.200  10.328   1.621 -0.6974  1.3483 -0.5321
  924MOL0     C24625   5.272  10.301   1.746  0.3447  0.1832 -0.9937
  924MOL0     C24626   5.426  10.335   1.745 -0.1393  0.4143 -0.3144
  924MOL0     C24627   5.494  10.300   1.872  0.0469 -0.2619 -0.6950
  924MOL0     C24628   5.644  10.316   1.878  0.7813  0.0405  0.5326
  924MOL0     O24629   5.687  10.240   1.997 -0.1616 -0.1197  0.4108
  924MOL0     C24630   5.824  10.229   2.012  0.4909 -0.1270 -0.1213
  924MOL0     C24631   5.874  10.141   2.106  0.5793  0.9770  0.6885
  924MOL0     C24632   6.009  10.138   2.136 -0.1022  0.1505 -0.1778
  924MOL0     C24633   6.108  10.214   2.057  0.0135  0.7633 -0.2310
  924MOL0     C24634   6.255  10.191   2.076  0.7175 -0.4333  0.7865
  924MOL0     O24635   6.330  10.245   1.978  0.0789 -0.4846  0.2555
  924MOL0     C24636   6.461  10.211   1.968 -0.1378 -0.1827  0.2874
  924MOL0     C24637   6.565  10.308   1.942 -0.5085  0.0300  0.7294
  924MOL0     C24638   6.702  10.269   1.933  0.9987 -0.7781  0.6251
  924MOL0     C24639   6.746  10.136   1.936 -0.2604 -0.1928 -0.6629
  924MOL0     O24640   6.875  10.116   1.955 -1.1085  0.0918 -0.3783
  924MOL0     C24641   6.948  10.048   1.855  0.0925 -0.4794  0.4280
  924MOL0     C24642   7.041   9.932   1.901 -0.4088 -0.5936  0.8033
  924MOL0     C24643   7.150   9.976   2.000  0.1966  0.7740 -0.7828
  924MOL0     C24644   7.264   9.878   2.005 -0.5370  0.3340 -0.4662
  924MOL0     C24645   7.352   9.888   2.124  0.7509 -0.4719 -0.2728
  924MOL0     C24646   7.407  10.029   2.146  0.1084 -1.5565 -1.1984
  924MOL0     C24647   7.528  10.035   2.243 -0.2564 -0.0757 -0.3778
  924MOL0     C24648   7.656   9.951   2.200  0.4597 -0.5514 -0.4852
  924MOL0    Cl24649   7.691   9.972   2.032 -0.2055 -0.0125  0.1589
  924MOL0     C24650   6.644  10.039   1.943  0.4196  0.4043  0.3471
  924MOL0     C24651   6.506  10.078   1.965 -0.0897  0.3554  0.8228
  924MOL0     O24652   6.291  10.123   2.171 -0.5312 -0.1942  0.8853
  924MOL0     C24653   6.053  10.313   1.972  0.3291 -0.4641 -0.7438
  924MOL0     C24654   5.916  10.325   1.951 -0.0062  0.1326 -0.4010
  924MOL0     N24655   5.146  10.439   1.568  0.1294 -0.0613  0.4643
  924MOL0     N24656   5.075  10.411   1.461 -0.5391 -0.0707  0.0941
  924MOL0     C24657   4.103  10.219   1.432 -0.3074 -0.1404 -1.1529
  924MOL0     C24658   4.009  10.131   1.390 -0.0119  0.2277  0.0593
  924MOL0     C24659   3.681   9.927   1.177  0.0629 -0.2828 -1.4886
  924MOL0     C24660   3.715   9.876   1.056 -0.7851  0.3206 -0.3535
  924MOL0     C24661   3.618   9.818   0.974 -0.5972  0.6264 -0.0325
  924MOL0     C24662   3.490   9.799   1.008 -0.0767 -0.6772 -0.6310
  924MOL0     O24663   3.409   9.747   0.906  0.0614  0.1848  0.0367
  924MOL0     C24664   3.268   9.740   0.942 -0.5619 -0.0256 -0.1847
  924MOL0     C24665   3.184   9.764   0.815  0.0007  0.4181 -0.7193
  924MOL0     C24666   3.034   9.739   0.855  0.1857 -0.1748 -0.9205
  924MOL0     C24667   2.937   9.789   0.747  0.1121 -0.3971  0.0915
  924MOL0     C24668   2.807   9.727   0.766  0.6526 -0.4089 -0.9415
  924MOL0     C24669   2.703   9.668   0.783 -0.8030 -0.6037 -0.1491
  924MOL0     C24670   3.454   9.845   1.135 -0.2052 -0.0295  0.4560
  924MOL0     C24671   3.544   9.902   1.224 -0.9521  0.2278  0.2596
  924MOL0     C24672   3.493   9.932   1.365 -0.9640 -0.3862 -0.3392
  924MOL0     H24673   4.080  10.134   1.061  2.1747 -1.2791  0.2958
  924MOL0     H24674   4.248  10.304   1.132 -1.5579  3.2903  1.4815
  924MOL0     H24675   4.226  10.464   1.544  0.5252  0.2584  0.9451
  924MOL0     H24676   4.333  10.317   1.561  2.0897 -0.5304 -1.7995
  924MOL0     H24677   4.461  10.482   1.644 -2.6814  1.0996  0.2292
  924MOL0     H24678   4.423  10.597   1.513 -0.4583 -0.8956 -2.6082
  924MOL0     H24679   4.646  10.522   1.481  0.9690 -1.7122 -0.8305
  924MOL0     H24680   4.547  10.442   1.355  2.1226 -0.0564 -1.4379
  924MOL0     H24681   4.652  10.308   1.611  0.5914  3.3542  0.3194
  924MOL0     H24682   4.532  10.245   1.494 -0.6546 -0.1460  0.0020
  924MOL0     H24683   4.691  10.259   1.313  0.4888 -0.3845  0.2630
  924MOL0     H24684   4.801  10.358   1.422 -0.9673  1.3140 -3.1545
  924MOL0     H24685   4.835  10.177   1.562 -0.8699  0.8404 -0.3902
  924MOL0     H24686   4.737  10.065   1.469  1.0950 -1.7173  3.1979
  924MOL0     H24687   4.897  10.044   1.292 -0.1587 -1.6635  2.1916
  924MOL0     H24688   4.987  10.032   1.437  1.5342  0.2139 -2.1913
  924MOL0     H24689   5.104  10.151   1.284 -0.2584 -0.8026  0.2448
  924MOL0     H24690   4.977  10.277   1.265 -0.0448 -0.5458  0.8144
  924MOL0     H24691   5.171  10.118   1.557  2.7673  0.2688  0.1271
  924MOL0     H24692   5.210  10.340   1.827 -1.5945 -1.3838 -1.6404
  924MOL0     H24693   5.264  10.195   1.773 -1.9398  0.2870 -1.0460
  924MOL0     H24694   5.473  10.276   1.665  2.5443  0.4049  1.1513
  924MOL0     H24695   5.445  10.441   1.729  1.7421  0.0096 -1.1656
  924MOL0     H24696   5.485  10.193   1.897  1.8878  0.0467  1.7132
  924MOL0     H24697   5.445  10.352   1.955 -1.6296 -1.0748 -1.1316
  924MOL0     H24698   5.669  10.422   1.890 -1.1547  0.6691 -0.5495
  924MOL0     H24699   5.690  10.272   1.789 -2.5072 -3.4518  0.3119
  924MOL0     H24700   5.806  10.083   2.167  0.9975 -0.2715 -0.0122
  924MOL0     H24701   6.046  10.076   2.217  2.0283  0.3652 -0.9218
  924MOL0     H24702   6.529  10.410   1.942 -0.9902 -0.0952  2.8658
  924MOL0     H24703   6.766  10.356   1.922  0.6730 -0.6952 -0.8815
  924MOL0     H24704   6.882  10.019   1.773  2.3482 -1.6277 -1.0933
  924MOL0     H24705   7.007  10.123   1.800  0.8248 -2.5042 -1.7609
  924MOL0     H24706   6.987   9.848   1.945 -0.8014 -1.5671 -1.4068
  924MOL0     H24707   7.099   9.895   1.816  0.7875 -2.2130  2.2443
  924MOL0     H24708   7.196  10.070   1.969  3.5852 -0.1903  0.7875
  924MOL0     H24709   7.105   9.976   2.100 -2.1415 -1.0841 -1.7393
  924MOL0     H24710   7.334   9.884   1.922  1.0271 -0.1314  0.7713
  924MOL0     H24711   7.211   9.782   2.006  0.4164 -0.1985 -0.5984
  924MOL0     H24712   7.429   9.811   2.127  0.5239 -0.6818  0.4877
  924MOL0     H24713   7.287   9.863   2.209  1.0910  1.1751  0.5196
  924MOL0     H24714   7.426  10.068   2.045  0.9481  0.6055 -0.2465
  924MOL0     H24715   7.329  10.097   2.181  1.4654 -0.6861  0.2260
  924MOL0     H24716   7.487   9.996   2.337  0.6367 -0.4187 -0.1178
  924MOL0     H24717   7.570  10.136   2.255  2.1465 -1.0741  0.1702
  924MOL0     H24718   7.733   9.986   2.269 -0.4729  0.9125 -0.1381
  924MOL0     H24719   7.646   9.846   2.230 -2.7370 -0.8895 -2.2115
  924MOL0     H24720   6.673   9.935   1.948  1.9211  0.7485 -0.6886
  924MOL0     H24721   6.432   9.999   1.972 -1.2407  1.2485 -0.5965
  924MOL0     H24722   6.119  10.391   1.934  2.4343 -0.7959  1.8720
  924MOL0     H24723   5.890  10.408   1.887 -0.1820 -1.0880 -1.9822
  924MOL0     H24724   4.115  10.250   1.535  2.0587 -0.1888 -1.3462
  924MOL0     H24725   3.939  10.095   1.466  0.0807  1.5091  0.7734
  924MOL0     H24726   3.818   9.878   1.024 -0.8293 -0.6729 -0.5880
  924MOL0     H24727   3.650   9.787   0.875 -1.9491 -0.4222 -0.1774
  924MOL0     H24728   3.237   9.820   1.010 -2.1680 -1.0421  0.3146
  924MOL0     H24729   3.247   9.644   0.989 -0.4374  0.9300  1.9484
  924MOL0     H24730   3.217   9.696   0.736  0.3657  1.0348 -1.1018
  924MOL0     H24731   3.197   9.866   0.777 -2.1917  0.7557 -0.7497
  924MOL0     H24732   2.997   9.792   0.943 -0.0374  1.4195 -1.9459
  924MOL0     H24733   3.016   9.631   0.862 -2.1449  0.2590  1.0285
  924MOL0     H24734   2.928   9.898   0.750  1.8216 -0.2459  2.5035
  924MOL0     H24735   2.988   9.769   0.652  4.1931 -0.1885  2.0365
  924MOL0     H24736   2.613   9.611   0.793 -1.6581  0.9205  1.2064
  924MOL0     H24737   3.356   9.827   1.178 -0.6905  2.5345  0.5457
  924MOL0     H24738   3.389   9.899   1.357 -1.7145  1.8499 -0.6866
  924MOL0     H24739   3.542   9.866   1.436 -1.9532  0.0765  0.8079
  924MOL0     H24740   3.492  10.035   1.403 -1.4919 -1.1268  1.7881
  925MOL0     O24741   1.275   9.011   5.258  0.3526  0.2173 -0.4298
  925MOL0     C24742   1.179   9.028   5.336  0.2005  0.4510  0.7758
  925MOL0     O24743   1.173   9.115   5.443 -0.4128  0.3107 -0.4741
  925MOL0     C24744   1.286   9.183   5.477 -0.0537  0.1433 -0.1145
  925MOL0     C24745   1.343   9.287   5.408 -0.1210  0.7366 -0.8804
  925MOL0     C24746   1.466   9.346   5.443  0.3079  0.4059 -0.5439
  925MOL0     C24747   1.543   9.286   5.550  0.1120  0.7479 -0.0735
  925MOL0     O24748   1.668   9.327   5.599  0.4211  0.2353  0.3872
  925MOL0     C24749   1.758   9.393   5.505  0.5414 -0.1760 -0.6185
  925MOL0     C24750   1.784   9.548   5.530  0.5031  0.5683  0.1026
  925MOL0     C24751   1.924   9.599   5.494  0.0332  0.1160 -0.5741
  925MOL0     C24752   1.926   9.754   5.507  0.0147  0.0264 -0.4824
  925MOL0     C24753   1.923   9.797   5.665  1.0711 -1.1515  0.5725
  925MOL0     C24754   2.062   9.790   5.736  0.6894  0.6315  0.3894
  925MOL0     C24755   2.060   9.840   5.881  0.3962 -0.2825  0.5624
  925MOL0     C24756   2.027   9.994   5.907 -0.4024  0.0482  0.0123
  925MOL0     N24757   2.118  10.072   5.823 -0.1539 -0.3754  0.2011
  925MOL0     C24758   2.093  10.155   5.706 -0.3011  0.2439 -0.0550
  925MOL0     C24759   2.210  10.205   5.674  0.1954  0.0114 -0.0202
  925MOL0     C24760   2.238  10.312   5.570 -0.1385 -0.5010 -0.6072
  925MOL0     C24761   2.371  10.290   5.501 -0.1966  0.2660 -0.9899
  925MOL0     C24762   2.413  10.377   5.383  0.7310 -0.5746 -0.1265
  925MOL0     C24763   2.403  10.519   5.430 -0.0827  0.4719 -0.6519
  925MOL0     O24764   2.433  10.617   5.331 -0.1464 -0.1424 -0.8034
  925MOL0     C24765   2.556  10.680   5.348  0.7740 -0.4066 -0.5330
  925MOL0     C24766   2.670  10.620   5.404  0.1009 -0.1690  0.4178
  925MOL0     C24767   2.794  10.679   5.383 -0.2304 -0.7873  0.3110
  925MOL0     C24768   2.804  10.808   5.322 -0.1219 -0.0458  0.4760
  925MOL0     C24769   2.925  10.885   5.311  0.5746 -0.3011  0.3108
  925MOL0     O24770   2.915  11.019   5.285  0.3946 -0.3266 -0.0437
  925MOL0     C24771   3.033  11.089   5.300 -0.4099 -0.1549 -0.2761
  925MOL0     C24772   3.027  11.206   5.377  0.7871 -0.0863 -0.1892
  925MOL0     C24773   3.148  11.272   5.421  0.4937  0.0288  0.0153
  925MOL0     C24774   3.271  11.242   5.353 -0.8397  0.0038 -0.2336
  925MOL0     O24775   3.379  11.314   5.390 -0.0493  0.6894 -0.5590
  925MOL0     C24776   3.512  11.256   5.389 -0.3464  0.6890 -0.3842
  925MOL0     C24777   3.618  11.344   5.458  0.1094  0.4070 -0.1977
  925MOL0     C24778   3.759  11.306   5.440  0.0151  0.1868  0.1964
  925MOL0     C24779   3.859  11.395   5.520 -0.1320 -0.3435  0.5129
  925MOL0     C24780   3.840  11.542   5.505 -0.2728 -0.4960  0.2836
  925MOL0     C24781   3.855  11.588   5.361  0.5139 -0.4338  1.0981
  925MOL0     C24782   3.828  11.737   5.341  0.1415 -0.4493 -1.0506
  925MOL0     C24783   3.876  11.787   5.198 -0.0804 -0.6115  0.2735
  925MOL0    Cl24784   4.056  11.803   5.163  0.2937 -0.1733  0.1839
  925MOL0     C24785   3.271  11.125   5.269  0.0008 -0.7910 -1.1698
  925MOL0     C24786   3.149  11.060   5.238  0.6865 -0.4806  0.6338
  925MOL0     O24787   3.028  10.820   5.331  0.1393  0.9154  0.3010
  925MOL0     C24788   2.692  10.869   5.283  0.1104 -0.0489  0.5307
  925MOL0     C24789   2.568  10.815   5.296 -0.0653  0.8533 -0.3330
  925MOL0     N24790   2.302  10.174   5.770  0.1926 -0.4190  0.2698
  925MOL0     N24791   2.251  10.082   5.851 -0.4278 -0.5205 -0.1447
  925MOL0     C24792   1.485   9.186   5.624  0.3358  1.0187 -0.6326
  925MOL0     C24793   1.361   9.133   5.592 -0.4591 -0.9539 -0.6758
  925MOL0     C24794   1.056   8.947   5.295  0.0760  0.4612 -0.3083
  925MOL0     C24795   1.069   8.862   5.185  0.8845 -0.9417 -0.4209
  925MOL0     C24796   0.953   8.794   5.139 -0.2899 -0.0523 -0.3674
  925MOL0     C24797   0.829   8.796   5.214 -0.5190 -0.5937  0.2591
  925MOL0     O24798   0.724   8.717   5.174 -0.0293  0.0038  0.6937
  925MOL0     C24799   0.621   8.678   5.277 -0.5064 -0.1006  0.4011
  925MOL0     C24800   0.570   8.536   5.249  0.4143 -0.2686  0.8143
  925MOL0     C24801   0.684   8.429   5.247  0.0358 -0.3124  0.2575
  925MOL0     C24802   0.638   8.293   5.210  0.0041  0.9327 -0.2990
  925MOL0     C24803   0.539   8.229   5.308  0.1975  0.5516  0.3385
  925MOL0     C24804   0.463   8.176   5.387  0.8040  0.5304  1.4809
  925MOL0     C24805   0.827   8.870   5.335  0.2331  0.5191 -0.1950
  925MOL0     C24806   0.941   8.940   5.377 -0.0066  0.1972  0.1801
  925MOL0     C24807   0.931   9.009   5.517  0.1155  0.1784  0.1047
  925MOL0     H24808   1.296   9.319   5.316  3.9090 -1.0695 -3.9160
  925MOL0     H24809   1.497   9.438   5.394  1.3335  0.3708  0.0169
  925MOL0     H24810   1.852   9.342   5.530 -0.0027 -0.1917  1.5592
  925MOL0     H24811   1.732   9.372   5.401  0.0577 -3.0095  0.0008
  925MOL0     H24812   1.758   9.582   5.630 -0.9075 -0.1810  0.0208
  925MOL0     H24813   1.720   9.602   5.459  0.2638  3.4887  2.3759
  925MOL0     H24814   1.949   9.554   5.397  0.9440  1.1346 -0.8343
  925MOL0     H24815   2.005   9.566   5.560 -0.2755 -1.2902 -0.8528
  925MOL0     H24816   2.016   9.794   5.458 -0.3247  0.8694 -0.4289
  925MOL0     H24817   1.838   9.796   5.459  0.4498 -1.3348 -2.5780
  925MOL0     H24818   1.893   9.902   5.660  2.7774 -0.6062  0.9345
  925MOL0     H24819   1.844   9.743   5.717  0.6339 -0.3424  0.7531
  925MOL0     H24820   2.087   9.683   5.739 -2.6645 -0.2187  2.4903
  925MOL0     H24821   2.130   9.849   5.674  0.8563  1.1779  1.0875
  925MOL0     H24822   2.157   9.825   5.929  0.0633 -0.5972  1.1413
  925MOL0     H24823   1.983   9.782   5.932  0.0124 -0.1717  0.1222
  925MOL0     H24824   1.928  10.014   5.864  0.5120 -0.1170 -2.3534
  925MOL0     H24825   2.036  10.012   6.014 -0.7166  0.7350 -0.0725
  925MOL0     H24826   2.002  10.157   5.648 -0.4111 -1.8968 -0.0360
  925MOL0     H24827   2.151  10.313   5.504  0.7334  1.5673 -1.8159
  925MOL0     H24828   2.240  10.407   5.624 -1.7981 -1.1453  0.6501
  925MOL0     H24829   2.452  10.288   5.574 -0.0499 -0.4987 -1.1655
  925MOL0     H24830   2.364  10.184   5.475  0.6746 -0.1233  0.2954
  925MOL0     H24831   2.336  10.367   5.306 -0.3241  2.9392  0.2737
  925MOL0     H24832   2.513  10.357   5.345  0.6646 -0.8135 -0.1762
  925MOL0     H24833   2.464  10.548   5.515  2.1205 -0.2140 -1.9240
  925MOL0     H24834   2.297  10.535   5.452 -0.3280 -0.2809 -1.2430
  925MOL0     H24835   2.670  10.523   5.454 -1.7982 -0.8356 -0.7745
  925MOL0     H24836   2.889  10.645   5.424  0.4797 -2.4186 -2.3694
  925MOL0     H24837   2.929  11.231   5.418  0.3911 -0.8770 -0.6311
  925MOL0     H24838   3.148  11.358   5.486  0.7237  0.1904 -0.1959
  925MOL0     H24839   3.520  11.152   5.422 -0.3813 -0.2401 -3.0552
  925MOL0     H24840   3.552  11.258   5.288  3.7367  1.2829  1.0594
  925MOL0     H24841   3.601  11.446   5.424 -3.0097 -0.6300 -2.2043
  925MOL0     H24842   3.602  11.341   5.566 -1.9089 -1.7225 -0.4777
  925MOL0     H24843   3.775  11.201   5.470 -0.2368  0.0792 -0.0432
  925MOL0     H24844   3.784  11.314   5.334  1.1432  2.2248  0.5761
  925MOL0     H24845   3.958  11.361   5.489 -0.7942  0.4058 -2.8189
  925MOL0     H24846   3.851  11.375   5.627  0.5446  0.5386  0.7450
  925MOL0     H24847   3.925  11.584   5.560 -1.3855  0.0013  1.6675
  925MOL0     H24848   3.743  11.571   5.546  0.5089  0.2162  1.7099
  925MOL0     H24849   3.960  11.576   5.332  0.7602  0.9964  1.2781
  925MOL0     H24850   3.789  11.544   5.286  0.5590  1.3646 -0.0811
  925MOL0     H24851   3.883  11.793   5.417 -0.0749 -1.6619  0.0429
  925MOL0     H24852   3.721  11.755   5.358 -0.1885 -0.8794 -2.5347
  925MOL0     H24853   3.828  11.715   5.131 -2.6479  3.0841 -2.2014
  925MOL0     H24854   3.835  11.884   5.169  0.9092  0.4593  2.2538
  925MOL0     H24855   3.366  11.110   5.218  0.8091  1.9651 -0.6602
  925MOL0     H24856   3.144  10.979   5.166  1.5109  1.8712 -2.2610
  925MOL0     H24857   2.686  10.965   5.233  1.4020 -1.2921 -2.2235
  925MOL0     H24858   2.488  10.871   5.249 -1.5084 -0.6081  0.2956
  925MOL0     H24859   1.549   9.130   5.692 -1.2946  0.3739  0.4313
  925MOL0     H24860   1.317   9.050   5.646 -0.1378  0.6525  2.2232
  925MOL0     H24861   1.158   8.859   5.123  1.4437  0.8557  0.2394
  925MOL0     H24862   0.963   8.742   5.044  2.4519 -1.2059  0.4385
  925MOL0     H24863   0.538   8.748   5.263 -0.3085  0.4899  1.9618
  925MOL0     H24864   0.658   8.687   5.379  1.7823 -0.2579 -0.3571
  925MOL0     H24865   0.508   8.536   5.159  1.1550 -1.2029  0.2786
  925MOL0     H24866   0.511   8.512   5.337  1.6196 -2.2915  1.1327
  925MOL0     H24867   0.736   8.436   5.343 -1.5556  1.9935  1.0455
  925MOL0     H24868   0.766   8.453   5.177  1.9981 -2.1819  1.7780
  925MOL0     H24869   0.589   8.301   5.113 -0.7659  1.6195  0.1241
  925MOL0     H24870   0.719   8.221   5.201 -1.5100 -0.9174  0.1149
  925MOL0     H24871   0.386   8.133   5.449  0.7951 -1.2547  0.3017
  925MOL0     H24872   0.734   8.870   5.392 -1.1798 -1.1109 -2.3027
  925MOL0     H24873   0.837   8.981   5.565 -0.0128  0.3334 -0.0561
  925MOL0     H24874   1.008   8.968   5.583  1.1311  2.8190  0.6894
  925MOL0     H24875   0.952   9.116   5.510  2.9297 -0.2109  1.2678
  926MOL0     O24876  10.192   2.821   4.790 -0.3573  0.2668  0.1099
  926MOL0     C24877  10.175   2.926   4.841  0.4129  0.2176 -0.4326
  926MOL0     O24878  10.244   2.969   4.951  0.2080  0.6456 -0.0328
  926MOL0     C24879  10.324   2.900   5.041  0.3039 -0.4335  0.1463
  926MOL0     C24880  10.354   2.763   5.037  0.3230  0.1117 -0.6217
  926MOL0     C24881  10.434   2.703   5.129 -0.2064 -0.3687  0.6285
  926MOL0     C24882  10.483   2.777   5.237  0.8545  0.7246 -0.1317
  926MOL0     O24883  10.553   2.718   5.342  0.1681 -0.1019  0.3803
  926MOL0     C24884  10.693   2.738   5.346  0.3466  0.2095  0.5400
  926MOL0     C24885  10.728   2.738   5.491 -0.6348  0.2337  0.7498
  926MOL0     C24886  10.881   2.732   5.513 -0.6504 -0.3389  0.1252
  926MOL0     C24887  10.947   2.866   5.492  0.0322  0.6044  0.3844
  926MOL0     C24888  11.090   2.866   5.554  0.6979 -0.8401 -0.6405
  926MOL0     C24889  11.185   2.755   5.508  1.2786  0.3577  0.1111
  926MOL0     C24890  11.284   2.708   5.606 -0.5196 -0.3666  0.0823
  926MOL0     C24891  11.408   2.811   5.613 -1.3060 -0.5258 -0.2815
  926MOL0     N24892  11.497   2.791   5.733  0.1093  0.3224 -0.1321
  926MOL0     C24893  11.607   2.708   5.724 -0.0033 -0.4651  0.3338
  926MOL0     C24894  11.680   2.733   5.831 -0.1434 -0.0848  0.3395
  926MOL0     C24895  11.815   2.680   5.864 -0.6798  0.1266  0.3626
  926MOL0     C24896  11.903   2.799   5.885 -0.3674  0.2958 -0.3377
  926MOL0     C24897  12.055   2.759   5.862  0.4090 -0.9097  0.3762
  926MOL0     C24898  12.098   2.714   5.725  0.0159  0.6096  0.2229
  926MOL0     O24899  12.236   2.679   5.746 -0.3155 -0.1414 -0.1815
  926MOL0     C24900  12.330   2.779   5.738 -0.7995  0.2160 -0.4829
  926MOL0     C24901  12.292   2.911   5.700 -0.3107 -0.5388  0.4133
  926MOL0     C24902  12.387   3.007   5.691  0.0330 -0.3596 -0.1686
  926MOL0     C24903  12.522   2.983   5.726  0.4614 -0.4056 -0.1299
  926MOL0     C24904  12.629   3.088   5.701  1.4687 -0.3666  0.9574
  926MOL0     O24905  12.754   3.058   5.728  0.3157 -0.3688 -0.3765
  926MOL0     C24906  12.863   3.134   5.708  0.1219  0.1892  0.3794
  926MOL0     C24907  12.970   3.084   5.782  0.6934  0.1096 -0.0555
  926MOL0     C24908  13.091   3.147   5.783 -1.3043 -0.4626  0.6748
  926MOL0     C24909  13.118   3.262   5.702 -0.2833 -0.2760 -0.5162
  926MOL0     O24910  13.237   3.324   5.694  0.5557 -0.0314  0.1704
  926MOL0     C24911  13.354   3.279   5.761  0.1307 -1.3275 -0.4063
  926MOL0     C24912  13.464   3.370   5.721 -0.7310  0.1121 -0.1621
  926MOL0     C24913  13.509   3.361   5.577  0.0973 -0.0726 -0.2336
  926MOL0     C24914  13.571   3.224   5.529 -0.5444  0.6547 -0.4884
  926MOL0     C24915  13.613   3.226   5.378  0.1705 -0.7115 -1.0682
  926MOL0     C24916  13.649   3.085   5.332  0.3754  0.3922  0.4222
  926MOL0     C24917  13.706   3.078   5.191  0.3400  0.3381 -0.5636
  926MOL0     C24918  13.602   3.116   5.085  0.0002  0.8092  0.6261
  926MOL0    Cl24919  13.675   3.107   4.914 -0.5308  0.0755  0.0145
  926MOL0     C24920  13.009   3.311   5.629 -0.4147 -0.4416  0.0421
  926MOL0     C24921  12.881   3.255   5.635 -0.4104  0.2159 -0.4149
  926MOL0     O24922  12.590   3.190   5.644 -0.4355  0.0445  0.3148
  926MOL0     C24923  12.557   2.857   5.778  0.0556  0.1193 -0.2928
  926MOL0     C24924  12.469   2.754   5.784  0.0019 -0.0532  0.0709
  926MOL0     N24925  11.608   2.821   5.913 -0.3501 -0.6463 -0.6804
  926MOL0     N24926  11.502   2.858   5.849 -0.3721 -0.0512  0.9514
  926MOL0     C24927  10.470   2.912   5.230  0.3477 -0.2586  0.1011
  926MOL0     C24928  10.386   2.971   5.133 -0.3082  0.2145 -0.4123
  926MOL0     C24929  10.086   3.027   4.776 -0.2264  0.1582 -0.2204
  926MOL0     C24930  10.114   3.162   4.806  0.1377  1.3528  0.2503
  926MOL0     C24931  10.036   3.265   4.755  0.1477  0.2700  0.1266
  926MOL0     C24932   9.926   3.236   4.669  0.5625  0.0146 -0.0517
  926MOL0     O24933   9.851   3.352   4.633 -0.2730  0.2769  0.1975
  926MOL0     C24934   9.732   3.322   4.556  0.6476  0.1888 -1.3488
  926MOL0     C24935   9.678   3.456   4.493  0.2908 -0.1482 -0.7042
  926MOL0     C24936   9.630   3.569   4.584  0.0683  0.0707  0.5619
  926MOL0     C24937   9.475   3.554   4.609  0.3130  0.0182  0.4215
  926MOL0     C24938   9.433   3.655   4.702 -0.4335 -0.1163  0.4046
  926MOL0     C24939   9.403   3.732   4.792 -0.3062  0.4361 -0.1054
  926MOL0     C24940   9.889   3.101   4.647  0.2383  0.3186 -1.0786
  926MOL0     C24941   9.973   2.996   4.696 -0.4746  0.2812  0.6215
  926MOL0     C24942   9.945   2.853   4.650  0.0766  0.9794 -1.0456
  926MOL0     H24943  10.311   2.691   4.968  1.2252  1.1852 -2.3621
  926MOL0     H24944  10.443   2.595   5.132 -4.6615 -1.0373 -1.5195
  926MOL0     H24945  10.739   2.652   5.297  0.2793  0.3368  0.2556
  926MOL0     H24946  10.729   2.830   5.298  1.8398  1.8457  4.3688
  926MOL0     H24947  10.679   2.659   5.547  2.5192 -2.0658  0.5253
  926MOL0     H24948  10.680   2.826   5.537 -0.7475 -0.2487  1.5859
  926MOL0     H24949  10.923   2.656   5.446  1.0220 -0.4856  1.2912
  926MOL0     H24950  10.894   2.695   5.614 -1.0137  0.3090  0.4173
  926MOL0     H24951  10.960   2.877   5.384 -0.7169 -1.0891  0.0908
  926MOL0     H24952  10.885   2.948   5.529 -0.4812  1.4334 -2.0731
  926MOL0     H24953  11.134   2.964   5.530  0.6014 -0.6500 -0.0543
  926MOL0     H24954  11.083   2.856   5.662  2.7962  0.5363 -0.3177
  926MOL0     H24955  11.130   2.670   5.468  1.3233  2.1207 -4.3580
  926MOL0     H24956  11.240   2.790   5.419  0.3197 -0.3524 -0.7876
  926MOL0     H24957  11.317   2.608   5.577  2.4747  0.8148 -1.0873
  926MOL0     H24958  11.238   2.705   5.705 -0.8042  0.8925  0.0102
  926MOL0     H24959  11.468   2.802   5.522  1.1050 -0.2292  1.2103
  926MOL0     H24960  11.372   2.914   5.612 -0.0371 -0.0766 -0.6746
  926MOL0     H24961  11.644   2.644   5.645  0.6479 -1.3633  1.3499
  926MOL0     H24962  11.805   2.625   5.957  0.0335  0.1201  0.4398
  926MOL0     H24963  11.847   2.618   5.780 -0.7401 -0.2414  0.6095
  926MOL0     H24964  11.877   2.885   5.823  0.7302  4.9028  4.7993
  926MOL0     H24965  11.897   2.836   5.988 -1.6406  0.1838 -0.3607
  926MOL0     H24966  12.083   2.683   5.935  0.3086 -1.4947 -0.1885
  926MOL0     H24967  12.102   2.851   5.897 -0.3613 -0.7622  1.0550
  926MOL0     H24968  12.080   2.783   5.643  1.4499  1.0877  0.2947
  926MOL0     H24969  12.051   2.620   5.695 -1.4294  2.2901 -3.3221
  926MOL0     H24970  12.192   2.946   5.678 -0.2061  0.6800  1.7813
  926MOL0     H24971  12.357   3.103   5.653 -1.2541 -0.5300  0.3613
  926MOL0     H24972  12.950   3.001   5.849 -0.5565 -0.7629 -1.4335
  926MOL0     H24973  13.174   3.111   5.842 -1.6603 -0.3502  1.2560
  926MOL0     H24974  13.350   3.292   5.869 -2.5119 -2.1011 -0.3353
  926MOL0     H24975  13.370   3.176   5.725  1.3830 -1.0043 -0.8018
  926MOL0     H24976  13.427   3.471   5.740  0.1538  1.0311 -2.8462
  926MOL0     H24977  13.555   3.355   5.780 -0.4957  2.3010  0.1135
  926MOL0     H24978  13.419   3.372   5.516 -2.5154 -1.5154  3.0403
  926MOL0     H24979  13.579   3.445   5.563 -0.5934  0.6528  0.5201
  926MOL0     H24980  13.503   3.139   5.544  1.1442 -0.5546  0.6880
  926MOL0     H24981  13.661   3.193   5.583 -1.4299  0.2037  0.7869
  926MOL0     H24982  13.698   3.294   5.362 -0.5177  0.1806 -1.0644
  926MOL0     H24983  13.529   3.266   5.319 -0.1508 -0.3252 -0.3588
  926MOL0     H24984  13.740   3.053   5.382  1.8612  0.1415 -2.2624
  926MOL0     H24985  13.569   3.013   5.357  1.1389  0.1729  2.3967
  926MOL0     H24986  13.715   2.973   5.162  2.2994  0.4479 -0.5013
  926MOL0     H24987  13.801   3.126   5.166 -0.5140  1.1430 -2.4771
  926MOL0     H24988  13.525   3.039   5.087  1.8604 -1.1737 -0.4244
  926MOL0     H24989  13.564   3.216   5.109  1.2940  1.6212 -0.5715
  926MOL0     H24990  13.033   3.385   5.554  0.9744 -2.2624 -1.3988
  926MOL0     H24991  12.805   3.292   5.566  0.3715  1.6183 -0.5567
  926MOL0     H24992  12.661   2.844   5.804  0.0773  0.5023 -0.1809
  926MOL0     H24993  12.504   2.655   5.811  3.5254  1.5966  2.1255
  926MOL0     H24994  10.512   2.975   5.308 -1.1615 -1.0026  1.5781
  926MOL0     H24995  10.375   3.079   5.126 -0.5118  0.2722  0.6021
  926MOL0     H24996  10.194   3.192   4.874  0.2391  3.0071 -0.5672
  926MOL0     H24997  10.048   3.368   4.786  0.4571 -0.1356  1.4157
  926MOL0     H24998   9.652   3.272   4.611  0.6287 -0.1855 -1.7205
  926MOL0     H24999   9.757   3.256   4.472  0.3922 -1.4699 -0.1660
  926MOL0     H25000   9.605   3.420   4.421  0.1782  3.7441 -2.8104
  926MOL0     H25001   9.758   3.494   4.429 -1.9324 -0.1114 -3.6652
  926MOL0     H25002   9.652   3.665   4.538  0.7722 -0.6862 -0.7313
  926MOL0     H25003   9.674   3.580   4.684  1.8281 -0.6834 -0.0962
  926MOL0     H25004   9.414   3.556   4.518  1.5210 -1.2010 -0.4581
  926MOL0     H25005   9.461   3.455   4.654  2.3425 -0.9709 -0.9374
  926MOL0     H25006   9.381   3.800   4.872  1.4969 -0.1903  1.0026
  926MOL0     H25007   9.808   3.076   4.579 -0.8668  0.2285  0.2383
  926MOL0     H25008  10.039   2.819   4.605  1.5898 -0.4099  2.7313
  926MOL0     H25009   9.922   2.788   4.736  2.1131 -0.0085 -1.2039
  926MOL0     H25010   9.863   2.847   4.578 -0.2130  0.9803 -0.7191
  927MOL0     O25011   2.311   1.225   7.903 -0.0720  0.3300  0.6107
  927MOL0     C25012   2.248   1.205   7.793 -0.6929 -0.3850 -0.6068
  927MOL0     O25013   2.305   1.188   7.677  0.2547 -1.1670  0.5795
  927MOL0     C25014   2.435   1.205   7.646 -0.4962 -0.0988 -0.5589
  927MOL0     C25015   2.457   1.193   7.513  0.4276  0.5668  0.4113
  927MOL0     C25016   2.584   1.170   7.456 -0.3224  0.1762  0.3155
  927MOL0     C25017   2.693   1.170   7.536  0.0057 -0.2423  0.2849
  927MOL0     O25018   2.824   1.159   7.484  0.4254  0.1012 -0.6541
  927MOL0     C25019   2.917   1.254   7.541 -1.0202 -0.0835 -1.1010
  927MOL0     C25020   3.014   1.308   7.435  0.2034 -0.0991 -0.6627
  927MOL0     C25021   3.095   1.417   7.506 -0.0412 -0.5763  0.3348
  927MOL0     C25022   3.197   1.470   7.392  0.8399  0.0007 -0.5236
  927MOL0     C25023   3.260   1.606   7.430 -0.3951  1.0174 -0.5400
  927MOL0     C25024   3.403   1.588   7.487 -0.0204 -0.0184  0.2774
  927MOL0     C25025   3.467   1.720   7.525  0.3538 -0.0339 -0.9256
  927MOL0     C25026   3.621   1.705   7.539  0.4009  0.2154  0.6144
  927MOL0     N25027   3.693   1.821   7.569 -0.0469 -0.9150 -0.3582
  927MOL0     C25028   3.721   1.874   7.695 -0.3154  0.5596  0.0510
  927MOL0     C25029   3.799   1.988   7.673  0.2017  0.8079  0.4723
  927MOL0     C25030   3.855   2.072   7.780 -0.1927  0.5412  0.0658
  927MOL0     C25031   3.985   2.144   7.746  0.3137 -0.4126 -0.6515
  927MOL0     C25032   4.101   2.051   7.736  0.5512 -0.7375 -0.5618
  927MOL0     C25033   4.231   2.136   7.722  0.3714  0.6190  0.2364
  927MOL0     O25034   4.261   2.217   7.835 -0.6332  0.7555 -0.3036
  927MOL0     C25035   4.388   2.266   7.840 -0.1566 -0.7372 -0.4184
  927MOL0     C25036   4.418   2.379   7.772  0.3758 -0.4030  0.5210
  927MOL0     C25037   4.544   2.451   7.788  0.8293  0.7284 -0.5071
  927MOL0     C25038   4.644   2.396   7.868 -0.1761  0.2261 -0.1973
  927MOL0     C25039   4.775   2.460   7.886 -0.1564 -0.7552  0.1916
  927MOL0     O25040   4.855   2.414   7.996  0.9568  0.5106  0.1746
  927MOL0     C25041   4.965   2.490   8.045  0.0834 -0.9313 -0.5428
  927MOL0     C25042   4.950   2.615   8.105  1.0636  0.6028  0.5440
  927MOL0     C25043   5.054   2.701   8.155  0.0345  0.2561  0.6757
  927MOL0     C25044   5.184   2.653   8.137  0.4318 -0.9984  1.0156
  927MOL0     O25045   5.299   2.725   8.160  0.1782 -0.6038 -0.2574
  927MOL0     C25046   5.353   2.697   8.291 -0.0672  0.5632  0.2196
  927MOL0     C25047   5.477   2.781   8.296 -0.1029  0.0898 -0.7778
  927MOL0     C25048   5.544   2.767   8.433  0.7735 -0.0822  0.1370
  927MOL0     C25049   5.669   2.857   8.420 -0.4770  1.1482  0.9799
  927MOL0     C25050   5.759   2.857   8.544 -0.6186  0.3826 -0.0759
  927MOL0     C25051   5.861   2.964   8.515  0.1294  0.8096 -0.3833
  927MOL0     C25052   5.992   2.945   8.595 -0.0301 -0.8988  0.6272
  927MOL0     C25053   6.095   3.045   8.542  0.5958 -0.0790  0.2510
  927MOL0    Cl25054   6.229   3.045   8.665 -0.3069  0.2300  0.2043
  927MOL0     C25055   5.207   2.537   8.065 -0.6757  0.3634  0.0753
  927MOL0     C25056   5.099   2.457   8.028 -0.0574  0.0315  0.4557
  927MOL0     O25057   4.811   2.549   7.804  0.3673 -0.3157 -0.8530
  927MOL0     C25058   4.609   2.279   7.940  0.9388  0.5397 -0.1361
  927MOL0     C25059   4.484   2.216   7.927  0.2408  0.0177  0.2860
  927MOL0     N25060   3.802   2.012   7.537  0.1669  0.1567 -0.3088
  927MOL0     N25061   3.739   1.910   7.477 -0.6314  0.5117  0.1862
  927MOL0     C25062   2.665   1.191   7.677 -0.8354  0.5642  0.9602
  927MOL0     C25063   2.543   1.200   7.726  0.4885  0.4874 -0.5263
  927MOL0     C25064   2.105   1.203   7.800  0.1906  0.3316 -0.3810
  927MOL0     C25065   2.037   1.277   7.703  0.0657 -1.1586 -1.0171
  927MOL0     C25066   1.901   1.288   7.706  0.0083  1.0429 -0.3946
  927MOL0     C25067   1.824   1.216   7.791  0.2699  1.2311 -0.1643
  927MOL0     O25068   1.682   1.218   7.781 -0.2755 -0.8995  0.0756
  927MOL0     C25069   1.607   1.223   7.902 -0.0857 -0.8560 -0.0122
  927MOL0     C25070   1.467   1.280   7.862 -0.0375  0.2979  0.1819
  927MOL0     C25071   1.380   1.306   7.981  0.6215  0.2510  1.1211
  927MOL0     C25072   1.226   1.320   7.943 -0.6285  0.2296 -0.1624
  927MOL0     C25073   1.141   1.365   8.049 -0.0243  0.1586  0.0809
  927MOL0     C25074   1.063   1.411   8.131 -0.4208 -0.8731 -0.0650
  927MOL0     C25075   1.888   1.143   7.891 -0.4638  0.5178  0.3632
  927MOL0     C25076   2.033   1.135   7.899  0.2101 -0.7039  0.8999
  927MOL0     C25077   2.102   1.064   8.003  0.0451 -0.2431  0.9090
  927MOL0     H25078   2.380   1.192   7.437  0.9674 -0.1157 -0.1341
  927MOL0     H25079   2.602   1.157   7.350  2.4329  1.7293  0.5125
  927MOL0     H25080   2.862   1.328   7.601 -1.8157 -1.6844  0.2438
  927MOL0     H25081   2.973   1.193   7.613 -1.6080  1.4265  0.7218
  927MOL0     H25082   2.968   1.369   7.357  3.3863  3.1286 -0.2786
  927MOL0     H25083   3.075   1.226   7.396  0.6737 -0.2622  0.3966
  927MOL0     H25084   3.147   1.376   7.593  0.4016 -0.7323  0.0006
  927MOL0     H25085   3.031   1.498   7.543 -0.0716 -0.6055  0.3471
  927MOL0     H25086   3.268   1.390   7.374  2.0904  0.8241  0.6032
  927MOL0     H25087   3.131   1.481   7.305  0.6942  2.8838 -0.1394
  927MOL0     H25088   3.265   1.664   7.337  1.5643  1.9395  0.0906
  927MOL0     H25089   3.193   1.659   7.497 -0.7770 -2.4851  2.1789
  927MOL0     H25090   3.400   1.528   7.579 -2.1048 -0.5867 -0.1025
  927MOL0     H25091   3.463   1.532   7.415 -1.5318 -0.6351 -0.5384
  927MOL0     H25092   3.424   1.740   7.624  1.0072 -0.8487 -0.4631
  927MOL0     H25093   3.452   1.799   7.452  0.3013 -0.7630 -1.7154
  927MOL0     H25094   3.640   1.632   7.618 -0.4530  0.7714  1.3585
  927MOL0     H25095   3.646   1.658   7.443 -0.2201  2.1730 -0.5645
  927MOL0     H25096   3.697   1.832   7.792 -2.2750 -0.6795 -0.9225
  927MOL0     H25097   3.779   2.145   7.807  0.4648  0.8355  1.1810
  927MOL0     H25098   3.876   2.014   7.871 -1.6620  1.8432  1.2843
  927MOL0     H25099   3.980   2.206   7.656 -3.0397  0.9357  0.2899
  927MOL0     H25100   4.004   2.207   7.833  1.2233 -3.2803  1.3817
  927MOL0     H25101   4.088   1.987   7.649 -0.4869 -0.9842 -0.2407
  927MOL0     H25102   4.103   1.989   7.826 -1.5730  1.3439  1.0604
  927MOL0     H25103   4.221   2.207   7.639 -1.7043 -0.5078 -0.5314
  927MOL0     H25104   4.315   2.069   7.702 -1.9596 -3.1721  1.9539
  927MOL0     H25105   4.363   2.434   7.696  0.2855 -1.3362 -0.1124
  927MOL0     H25106   4.561   2.544   7.734 -1.0745  1.1860 -0.3939
  927MOL0     H25107   4.844   2.639   8.113  0.8548  0.0040 -0.2784
  927MOL0     H25108   5.036   2.790   8.214 -0.6349  0.6056 -0.0451
  927MOL0     H25109   5.289   2.727   8.375  1.9545 -0.8519  2.4155
  927MOL0     H25110   5.374   2.590   8.304 -3.7861 -0.1577  1.4726
  927MOL0     H25111   5.547   2.758   8.216  0.2598  0.2619 -0.5115
  927MOL0     H25112   5.442   2.883   8.278 -1.2498 -0.3749 -1.2698
  927MOL0     H25113   5.476   2.797   8.513  0.0365  0.5146 -0.6805
  927MOL0     H25114   5.579   2.668   8.462  0.6090  0.7199  3.4680
  927MOL0     H25115   5.640   2.957   8.385 -0.7258  0.0193 -2.3951
  927MOL0     H25116   5.736   2.820   8.342  1.5602 -1.9664  3.9686
  927MOL0     H25117   5.816   2.764   8.557  2.6850  2.4356  1.3709
  927MOL0     H25118   5.703   2.873   8.636 -0.9355 -1.0075 -0.0032
  927MOL0     H25119   5.888   2.961   8.409  0.8929  1.9491 -0.2363
  927MOL0     H25120   5.813   3.058   8.546  0.3544  0.4161  1.2301
  927MOL0     H25121   6.030   2.844   8.576 -0.2421 -0.8567 -0.0635
  927MOL0     H25122   5.982   2.962   8.702 -0.1885  3.5562  0.1189
  927MOL0     H25123   6.134   3.022   8.442  2.5168 -1.8681  1.3495
  927MOL0     H25124   6.062   3.150   8.543 -0.4261 -0.3965  1.5835
  927MOL0     H25125   5.305   2.493   8.056 -1.2654 -0.5555 -3.7396
  927MOL0     H25126   5.112   2.358   7.987  0.1976  0.4806 -0.5638
  927MOL0     H25127   4.671   2.238   8.019  0.8336  0.3234 -0.1661
  927MOL0     H25128   4.464   2.131   7.993  0.3683 -0.7785 -0.6794
  927MOL0     H25129   2.733   1.180   7.761  1.7114 -0.2413 -1.0744
  927MOL0     H25130   2.530   1.212   7.833  0.1678  1.1284 -0.6350
  927MOL0     H25131   2.105   1.335   7.641  0.5795 -2.6720 -1.9103
  927MOL0     H25132   1.853   1.351   7.632 -0.7586  0.5690 -0.3082
  927MOL0     H25133   1.660   1.275   7.982  0.7156 -2.6364  0.6654
  927MOL0     H25134   1.592   1.121   7.940 -1.5326 -0.2427  1.1625
  927MOL0     H25135   1.425   1.205   7.794  0.7780 -0.2621  0.2760
  927MOL0     H25136   1.476   1.379   7.816 -1.5432  1.2991  1.9052
  927MOL0     H25137   1.409   1.389   8.046 -1.0193  0.8825  1.1155
  927MOL0     H25138   1.381   1.218   8.046  0.6584 -0.4222  0.2323
  927MOL0     H25139   1.218   1.380   7.851 -0.2627 -0.1674 -0.4577
  927MOL0     H25140   1.186   1.225   7.909 -0.5708  0.0472  0.2761
  927MOL0     H25141   1.000   1.440   8.212  1.2708  2.8591  0.1211
  927MOL0     H25142   1.829   1.098   7.970  0.7434  1.1843  1.7071
  927MOL0     H25143   2.163   0.983   7.961  0.3183  0.4935 -0.1575
  927MOL0     H25144   2.161   1.119   8.076 -1.6817  0.3417  1.9038
  927MOL0     H25145   2.028   1.018   8.069  2.1704 -0.5529  3.2199
  928MOL0     O25146   6.923   4.299   2.322  0.0061 -0.4436  0.0217
  928MOL0     C25147   6.857   4.209   2.282 -0.2671  0.1834  0.8192
  928MOL0     O25148   6.899   4.101   2.203 -0.4314 -0.1288 -0.2127
  928MOL0     C25149   7.034   4.082   2.178 -0.4517 -1.1708  0.0637
  928MOL0     C25150   7.092   4.108   2.052  0.8981 -0.0654 -0.0489
  928MOL0     C25151   7.226   4.098   2.029  0.6181  0.6639 -0.1969
  928MOL0     C25152   7.311   4.043   2.127  0.8051 -0.2504 -0.2999
  928MOL0     O25153   7.446   4.029   2.097 -0.1782 -0.1941 -0.1400
  928MOL0     C25154   7.550   4.057   2.194 -0.2364 -0.5456  0.3666
  928MOL0     C25155   7.680   4.061   2.116  0.2480  0.1839  0.1041
  928MOL0     C25156   7.807   4.045   2.200  0.5547 -0.4512  0.2931
  928MOL0     C25157   7.927   4.048   2.116 -0.3131 -0.1581  0.5926
  928MOL0     C25158   7.931   3.920   2.029 -0.9188  0.4701  0.2668
  928MOL0     C25159   8.072   3.925   1.957  0.2902  0.3066  0.1441
  928MOL0     C25160   8.131   3.784   1.943  0.2477 -0.6433  0.9259
  928MOL0     C25161   8.268   3.794   1.893 -0.5519  0.8618 -0.1828
  928MOL0     N25162   8.313   3.667   1.830  0.5307 -0.0982 -0.1608
  928MOL0     C25163   8.340   3.556   1.898  0.3617 -0.4162  0.1685
  928MOL0     C25164   8.358   3.452   1.805  0.6637  0.7659 -0.2890
  928MOL0     C25165   8.409   3.317   1.833  0.6655  0.3863  1.0455
  928MOL0     C25166   8.556   3.305   1.828  0.8049 -0.0799  0.1340
  928MOL0     C25167   8.622   3.186   1.891  0.2605  0.4502  0.7235
  928MOL0     C25168   8.768   3.203   1.874  0.2946  0.4076 -0.0861
  928MOL0     O25169   8.836   3.083   1.915 -0.2528  0.1903 -0.6091
  928MOL0     C25170   8.972   3.091   1.913  0.2084  0.4033 -0.3124
  928MOL0     C25171   9.045   2.975   1.938  0.0401 -0.0214  0.1329
  928MOL0     C25172   9.187   2.973   1.955 -0.2113  0.0559 -0.8295
  928MOL0     C25173   9.262   3.093   1.930 -0.1643  0.0800 -0.3003
  928MOL0     C25174   9.412   3.104   1.940  0.9124  0.0279 -0.1076
  928MOL0     O25175   9.464   3.230   1.914  0.1436  0.5752  0.1089
  928MOL0     C25176   9.598   3.237   1.900  0.3050  0.7535  0.1967
  928MOL0     C25177   9.661   3.216   1.774 -0.5538 -0.5070 -0.5268
  928MOL0     C25178   9.799   3.223   1.759  0.0488 -0.6665 -1.0855
  928MOL0     C25179   9.877   3.240   1.873 -0.4190  0.8593 -0.1242
  928MOL0     O25180  10.011   3.228   1.872  0.3975 -0.2680  0.5575
  928MOL0     C25181  10.086   3.326   1.950 -0.9857  0.1595  0.5317
  928MOL0     C25182  10.214   3.353   1.875 -0.4938 -0.3626 -0.0220
  928MOL0     C25183  10.301   3.456   1.938  0.7235 -0.1235  0.4502
  928MOL0     C25184  10.447   3.444   1.899 -0.4989  0.9512 -0.1358
  928MOL0     C25185  10.541   3.547   1.986 -0.0152  0.0196  0.1386
  928MOL0     C25186  10.687   3.504   1.974  0.7163 -0.1067  0.8980
  928MOL0     C25187  10.765   3.586   2.072 -0.6606  0.0646 -0.3095
  928MOL0     C25188  10.811   3.717   2.002  0.1845 -0.0129  0.3631
  928MOL0    Cl25189  10.900   3.832   2.114 -0.0529  0.2608  0.0292
  928MOL0     C25190   9.816   3.254   2.001  0.3525 -0.2366  0.6701
  928MOL0     C25191   9.675   3.246   2.010  0.4755  0.5577 -0.0800
  928MOL0     O25192   9.470   2.999   1.964 -0.6011  0.2994 -0.0957
  928MOL0     C25193   9.185   3.207   1.901  0.2929  0.1511 -0.2001
  928MOL0     C25194   9.046   3.208   1.886  0.5235  0.1999  0.2027
  928MOL0     N25195   8.333   3.512   1.682 -0.2609 -0.1750  0.7582
  928MOL0     N25196   8.300   3.637   1.702 -0.4051  0.1237 -0.0618
  928MOL0     C25197   7.264   4.025   2.255  0.6486 -0.0648  0.2047
  928MOL0     C25198   7.124   4.036   2.279 -0.0006 -0.7105  0.1794
  928MOL0     C25199   6.713   4.234   2.299 -0.0518  0.5514 -0.2027
  928MOL0     C25200   6.669   4.301   2.420  0.3890 -0.1746  0.5843
  928MOL0     C25201   6.540   4.308   2.457  0.6488 -0.4443  0.1846
  928MOL0     C25202   6.442   4.242   2.378  0.0359  0.0753 -0.7311
  928MOL0     O25203   6.308   4.242   2.421  0.3414 -0.1887 -0.4095
  928MOL0     C25204   6.205   4.198   2.331 -0.0115 -0.0341 -0.4867
  928MOL0     C25205   6.057   4.221   2.363 -0.0836  0.1655 -0.1735
  928MOL0     C25206   5.986   4.265   2.239 -0.1447  0.6748 -0.0964
  928MOL0     C25207   5.843   4.306   2.272 -0.9567  0.2741 -0.0052
  928MOL0     C25208   5.759   4.195   2.234  0.7404  0.3252  0.3622
  928MOL0     C25209   5.693   4.092   2.207 -0.3075 -0.1399 -1.1427
  928MOL0     C25210   6.480   4.173   2.267 -0.2666  0.2903 -0.1010
  928MOL0     C25211   6.611   4.179   2.213  0.4322 -1.0664 -0.3919
  928MOL0     C25212   6.648   4.109   2.086 -0.5088 -0.4459  0.4974
  928MOL0     H25213   7.026   4.128   1.968  1.8641 -1.7517 -1.2601
  928MOL0     H25214   7.266   4.131   1.934 -1.0096  2.3778 -0.3428
  928MOL0     H25215   7.534   4.156   2.237 -1.5627  0.6935 -2.7017
  928MOL0     H25216   7.551   3.983   2.275  2.1655  0.0776  1.0122
  928MOL0     H25217   7.674   4.162   2.075 -5.0086 -0.0974 -0.5817
  928MOL0     H25218   7.671   3.990   2.033 -0.2439 -1.3345  1.3927
  928MOL0     H25219   7.815   3.951   2.256  3.2060  0.5355  1.7786
  928MOL0     H25220   7.816   4.125   2.274  0.4434 -0.3497  0.1968
  928MOL0     H25221   7.932   4.138   2.055 -0.3015 -0.3635  0.2877
  928MOL0     H25222   8.010   4.052   2.186 -0.1860 -2.6311  0.6825
  928MOL0     H25223   7.928   3.828   2.088 -0.4392 -1.4020 -2.4376
  928MOL0     H25224   7.844   3.915   1.962 -0.4643  1.0964 -0.3927
  928MOL0     H25225   8.056   3.974   1.861  0.3800  3.2150  1.5044
  928MOL0     H25226   8.148   3.980   2.013  1.0222 -0.1016 -0.4209
  928MOL0     H25227   8.080   3.725   1.866  1.2656  0.1394 -0.3739
  928MOL0     H25228   8.137   3.728   2.037 -1.5051 -2.8272 -0.1633
  928MOL0     H25229   8.291   3.879   1.829 -0.3327  0.1683 -1.0479
  928MOL0     H25230   8.334   3.808   1.979  2.1324  2.7707 -2.4165
  928MOL0     H25231   8.356   3.537   2.004 -3.2319 -0.1110  0.9118
  928MOL0     H25232   8.374   3.288   1.933 -1.9722 -1.5798 -0.3203
  928MOL0     H25233   8.360   3.250   1.762 -1.2439 -0.7574  3.2744
  928MOL0     H25234   8.575   3.301   1.720  0.7033  3.1351 -0.1070
  928MOL0     H25235   8.601   3.395   1.871  0.6132  0.8502 -1.5102
  928MOL0     H25236   8.592   3.099   1.832  0.4575 -0.2138  1.5697
  928MOL0     H25237   8.587   3.172   1.994  0.5271  0.3664  0.8031
  928MOL0     H25238   8.809   3.284   1.936  1.1946  0.3302 -0.5597
  928MOL0     H25239   8.794   3.216   1.769  0.0326 -0.5531 -0.2730
  928MOL0     H25240   8.997   2.880   1.958 -0.1911  0.4626  2.0690
  928MOL0     H25241   9.246   2.886   1.983  0.6929 -0.9310 -5.1313
  928MOL0     H25242   9.594   3.203   1.690 -1.9585 -1.5567  0.7144
  928MOL0     H25243   9.850   3.206   1.664  3.6709 -0.9812  0.7190
  928MOL0     H25244  10.037   3.424   1.949  0.0941  0.8657  3.7518
  928MOL0     H25245  10.103   3.294   2.053 -0.3915 -3.1950 -0.4958
  928MOL0     H25246  10.276   3.263   1.878 -1.1822 -0.8294  1.5893
  928MOL0     H25247  10.197   3.392   1.775 -0.6272  0.6945  0.4002
  928MOL0     H25248  10.268   3.555   1.904  0.5767 -0.8767 -1.7477
  928MOL0     H25249  10.294   3.459   2.047 -0.0940  2.2586  0.3960
  928MOL0     H25250  10.468   3.459   1.793  0.8184 -1.4128 -0.2943
  928MOL0     H25251  10.474   3.341   1.927 -2.9765  0.4258  0.5131
  928MOL0     H25252  10.522   3.555   2.094  1.2969 -0.2136  0.4014
  928MOL0     H25253  10.532   3.647   1.943 -0.7362 -0.4015 -0.7265
  928MOL0     H25254  10.689   3.397   1.997  1.9519 -0.0878  0.9726
  928MOL0     H25255  10.724   3.514   1.872  4.9199  3.1748  2.4035
  928MOL0     H25256  10.856   3.528   2.090  0.7741  1.9175 -1.2225
  928MOL0     H25257  10.714   3.604   2.167 -1.4415  2.2629 -1.0825
  928MOL0     H25258  10.884   3.699   1.923 -0.4966 -0.5985 -0.1434
  928MOL0     H25259  10.725   3.778   1.971  0.6266  0.2024 -0.4735
  928MOL0     H25260   9.873   3.267   2.092 -1.5679  1.5248  1.6843
  928MOL0     H25261   9.624   3.272   2.102  2.1492 -0.0523  1.0706
  928MOL0     H25262   9.229   3.307   1.901  0.0067  0.2776 -0.6431
  928MOL0     H25263   9.008   3.306   1.860  1.7008  1.3351  2.5006
  928MOL0     H25264   7.331   3.972   2.322 -0.0503 -0.6986  0.4133
  928MOL0     H25265   7.087   4.009   2.377  2.2319  1.6590  1.8329
  928MOL0     H25266   6.747   4.340   2.485 -0.5908  0.2944  1.5037
  928MOL0     H25267   6.506   4.365   2.543 -0.3557 -2.4576  1.1652
  928MOL0     H25268   6.223   4.097   2.293  2.2095  0.9841 -2.4477
  928MOL0     H25269   6.220   4.261   2.242  0.6409 -0.5309 -0.7311
  928MOL0     H25270   6.049   4.303   2.434 -2.8853 -0.0116 -0.1740
  928MOL0     H25271   6.018   4.133   2.415 -0.3309  0.5697  0.3341
  928MOL0     H25272   5.990   4.188   2.162  0.4485  1.1960 -0.5946
  928MOL0     H25273   6.033   4.359   2.210  1.7498  0.0813  0.8010
  928MOL0     H25274   5.823   4.347   2.371 -4.8826  3.1403 -1.7107
  928MOL0     H25275   5.815   4.384   2.200  0.7766  0.4581 -0.5250
  928MOL0     H25276   5.656   3.995   2.179  0.0239  0.4822 -4.0405
  928MOL0     H25277   6.406   4.123   2.205 -0.4060 -0.5829  0.7448
  928MOL0     H25278   6.566   4.086   2.017  2.2491 -0.8042 -2.9347
  928MOL0     H25279   6.707   4.184   2.031 -1.4432 -1.3481 -1.8947
  928MOL0     H25280   6.693   4.011   2.099 -4.2535 -2.2485  1.1559
  929MOL0     O25281   7.678   6.127   9.405  0.3174  0.2152  0.6188
  929MOL0     C25282   7.593   6.138   9.315  0.2557  0.1335 -0.2410
  929MOL0     O25283   7.614   6.181   9.192  0.0712 -0.2119  0.5629
  929MOL0     C25284   7.718   6.259   9.164 -0.1657 -0.4245 -0.1569
  929MOL0     C25285   7.695   6.381   9.096  0.3546  0.9397 -1.0014
  929MOL0     C25286   7.800   6.459   9.058 -0.4838  0.1133  0.8958
  929MOL0     C25287   7.933   6.430   9.085  0.0162  0.5500 -0.5023
  929MOL0     O25288   8.044   6.504   9.051  0.4714  0.4971 -0.4184
  929MOL0     C25289   8.074   6.614   9.143 -0.5866 -0.4948  0.2554
  929MOL0     C25290   8.147   6.728   9.057  0.4438  1.3493 -0.0638
  929MOL0     C25291   8.169   6.849   9.143  0.3383  0.0452 -0.4505
  929MOL0     C25292   8.214   6.960   9.061  0.7675  0.6478 -0.2343
  929MOL0     C25293   8.245   7.090   9.145  0.2572  0.7576 -0.0809
  929MOL0     C25294   8.305   7.196   9.056 -0.2620 -0.2883  0.0928
  929MOL0     C25295   8.403   7.149   8.952 -0.1446 -0.1253 -0.2541
  929MOL0     C25296   8.474   7.271   8.890  0.5393 -0.0592 -0.4151
  929MOL0     N25297   8.604   7.242   8.831 -0.0042 -0.0077  0.1682
  929MOL0     C25298   8.712   7.213   8.911 -0.6149  0.2786  0.4447
  929MOL0     C25299   8.815   7.213   8.823  0.6561  0.2991 -0.8518
  929MOL0     C25300   8.951   7.178   8.854 -0.9914  0.8180 -0.4275
  929MOL0     C25301   9.038   7.191   8.721  1.2054 -0.1426 -0.2460
  929MOL0     C25302   9.186   7.184   8.757 -0.0562 -0.8752 -0.4330
  929MOL0     C25303   9.281   7.196   8.638 -0.1978 -0.7916 -0.2953
  929MOL0     O25304   9.266   7.079   8.559  0.1832 -0.6557  0.0200
  929MOL0     C25305   9.379   7.055   8.487  0.3345  0.6125  0.3089
  929MOL0     C25306   9.406   6.920   8.461  0.3639 -0.6657 -0.8220
  929MOL0     C25307   9.527   6.885   8.396 -0.0722  0.3794  0.4954
  929MOL0     C25308   9.615   6.981   8.359 -0.2618 -0.6990 -0.9724
  929MOL0     C25309   9.754   6.942   8.308 -0.5497 -0.1259 -0.3382
  929MOL0     O25310   9.849   7.047   8.299 -0.2781 -0.5192 -0.2483
  929MOL0     C25311   9.968   7.051   8.228  0.7237 -0.0859  0.0982
  929MOL0     C25312  10.008   6.963   8.132 -0.2169  0.9938  0.3987
  929MOL0     C25313  10.118   6.983   8.048 -1.3005 -0.4698  0.3265
  929MOL0     C25314  10.203   7.089   8.079  0.5280  0.1394  0.2114
  929MOL0     O25315  10.328   7.103   8.017 -0.2415  0.3989  0.7129
  929MOL0     C25316  10.424   7.007   8.061 -0.2831 -0.6203 -0.7861
  929MOL0     C25317  10.568   7.045   8.036 -0.4490 -0.7005 -0.0225
  929MOL0     C25318  10.659   6.922   8.040  0.2025 -0.1543 -0.0866
  929MOL0     C25319  10.798   6.964   8.004  0.6779  0.2279 -0.3097
  929MOL0     C25320  10.906   6.856   7.999  0.5022  0.3374 -0.8843
  929MOL0     C25321  11.034   6.916   7.945 -0.1734  0.3203 -0.3284
  929MOL0     C25322  11.124   6.798   7.916 -0.1786  1.1608 -0.3293
  929MOL0     C25323  11.268   6.840   7.905  0.2304 -0.7372  0.3123
  929MOL0    Cl25324  11.375   6.712   7.834  0.0216  0.0996  0.0872
  929MOL0     C25325  10.168   7.184   8.174 -0.3763  0.1153 -0.8134
  929MOL0     C25326  10.049   7.169   8.240 -0.2647  0.6968 -1.2083
  929MOL0     O25327   9.786   6.826   8.279  0.1713  0.1282  0.7918
  929MOL0     C25328   9.589   7.120   8.385 -0.0921  0.5434  0.4093
  929MOL0     C25329   9.465   7.156   8.440  0.1901  0.4158 -0.7470
  929MOL0     N25330   8.764   7.234   8.692  0.0119 -0.0930  0.4791
  929MOL0     N25331   8.640   7.262   8.701  0.6986  0.8495  0.1775
  929MOL0     C25332   7.955   6.310   9.152 -0.0227  0.5584  0.1127
  929MOL0     C25333   7.853   6.227   9.179  0.6377  0.8279  0.4866
  929MOL0     C25334   7.450   6.103   9.354 -0.5185 -0.3257 -0.8557
  929MOL0     C25335   7.348   6.159   9.270 -0.1291  0.6670 -0.3514
  929MOL0     C25336   7.218   6.129   9.304 -0.1464 -1.0897  0.1803
  929MOL0     C25337   7.180   6.062   9.416 -0.7359  0.1700  0.3887
  929MOL0     O25338   7.048   6.027   9.436 -0.5010 -0.0998  0.3751
  929MOL0     C25339   6.940   6.102   9.373  0.0252 -0.2237  0.3068
  929MOL0     C25340   6.815   6.086   9.464 -0.6307 -0.0983  0.2502
  929MOL0     C25341   6.755   5.942   9.463 -0.8669  0.4599 -0.2000
  929MOL0     C25342   6.624   5.926   9.533 -0.0533  0.3635  0.3997
  929MOL0     C25343   6.528   6.030   9.505 -0.0370 -0.6911  0.6008
  929MOL0     C25344   6.451   6.126   9.495 -0.1446 -0.4276  0.5481
  929MOL0     C25345   7.280   6.015   9.504  0.6900  0.7274  0.3803
  929MOL0     C25346   7.415   6.033   9.473  1.0739  0.7095 -0.1344
  929MOL0     C25347   7.509   5.964   9.564 -0.2619  0.1338  1.6615
  929MOL0     H25348   7.595   6.419   9.078  0.2396  1.3782  0.4255
  929MOL0     H25349   7.786   6.548   8.999  1.8538  0.8627  1.3558
  929MOL0     H25350   7.984   6.656   9.189 -0.3395  0.9482 -0.4898
  929MOL0     H25351   8.148   6.581   9.217  1.2252 -0.3785 -1.4152
  929MOL0     H25352   8.096   6.751   8.963  0.9915  0.1463 -0.6766
  929MOL0     H25353   8.236   6.679   9.017 -1.9177 -1.7026 -2.0823
  929MOL0     H25354   8.242   6.827   9.221 -0.1836  0.4472  0.1649
  929MOL0     H25355   8.075   6.868   9.196  0.0498  0.0368 -0.9495
  929MOL0     H25356   8.307   6.922   9.018 -0.1186  0.5844 -2.2245
  929MOL0     H25357   8.150   6.983   8.975  1.4509  0.7290 -0.7301
  929MOL0     H25358   8.154   7.129   9.191 -0.5689  0.8539 -1.7293
  929MOL0     H25359   8.318   7.056   9.219  0.0063  1.0247  0.2905
  929MOL0     H25360   8.221   7.246   9.007  0.3503  0.8040  0.1233
  929MOL0     H25361   8.359   7.264   9.123  0.2813  1.9753 -2.4437
  929MOL0     H25362   8.356   7.096   8.869 -0.3993  0.4055 -0.4561
  929MOL0     H25363   8.474   7.081   8.999 -2.2285 -2.4619 -0.3311
  929MOL0     H25364   8.414   7.308   8.806 -0.3278 -1.5220 -0.4675
  929MOL0     H25365   8.472   7.355   8.961 -1.1193  1.7954 -2.5062
  929MOL0     H25366   8.715   7.191   9.017  0.1031  0.8353  0.5472
  929MOL0     H25367   8.986   7.252   8.926  0.9362 -0.0324 -0.4372
  929MOL0     H25368   8.952   7.078   8.897 -0.9061  0.3914 -1.3809
  929MOL0     H25369   9.011   7.101   8.665  0.5834 -0.7008  0.9194
  929MOL0     H25370   8.999   7.281   8.672 -0.3993 -0.0337  1.1403
  929MOL0     H25371   9.206   7.092   8.812  0.9650 -1.3134 -1.4929
  929MOL0     H25372   9.205   7.261   8.832 -1.0968 -1.9407  0.9812
  929MOL0     H25373   9.383   7.227   8.658 -0.8985  2.3605 -1.0925
  929MOL0     H25374   9.248   7.279   8.575  0.3276 -1.6647 -1.7600
  929MOL0     H25375   9.344   6.839   8.497  1.4157 -1.2892 -0.3730
  929MOL0     H25376   9.560   6.782   8.385 -1.7535 -0.1952  0.6202
  929MOL0     H25377   9.943   6.885   8.093 -0.1994  1.0879  0.1830
  929MOL0     H25378  10.146   6.907   7.975 -1.2240 -1.5953  1.4775
  929MOL0     H25379  10.412   6.987   8.168  1.8979 -0.3190 -0.4428
  929MOL0     H25380  10.398   6.914   8.009 -0.8996 -1.4944  1.0039
  929MOL0     H25381  10.572   7.093   7.938  1.2865  0.6331  0.6438
  929MOL0     H25382  10.602   7.119   8.109  0.5707 -0.7095 -0.4704
  929MOL0     H25383  10.666   6.874   8.138 -0.8687 -0.2727 -0.0602
  929MOL0     H25384  10.630   6.847   7.966 -0.6706 -0.1111  0.2008
  929MOL0     H25385  10.823   7.028   8.089  1.0664  1.7851 -1.5401
  929MOL0     H25386  10.808   7.028   7.916  3.7492  0.4448  0.1053
  929MOL0     H25387  10.875   6.774   7.934 -1.5023  0.9599 -0.7780
  929MOL0     H25388  10.927   6.822   8.100  0.4263  2.3038 -0.1658
  929MOL0     H25389  11.011   6.977   7.857 -0.5296  1.1199  0.3003
  929MOL0     H25390  11.075   6.984   8.020  1.5482  0.7389 -1.5861
  929MOL0     H25391  11.100   6.755   7.819 -0.9027 -1.1256  0.7888
  929MOL0     H25392  11.128   6.726   7.998  1.0434  3.1593  1.4944
  929MOL0     H25393  11.289   6.934   7.852 -0.6462 -0.6438  0.1218
  929MOL0     H25394  11.301   6.851   8.009 -1.7409  0.0784  0.9036
  929MOL0     H25395  10.239   7.265   8.189 -1.1266  0.2665  2.7012
  929MOL0     H25396  10.008   7.247   8.304 -0.6550 -0.2784 -0.2456
  929MOL0     H25397   9.665   7.192   8.358  0.3129 -0.1976 -0.4787
  929MOL0     H25398   9.448   7.263   8.444 -1.7319  0.2323 -2.0702
  929MOL0     H25399   8.055   6.271   9.169  0.2525  0.2379 -1.9507
  929MOL0     H25400   7.867   6.130   9.225 -0.3460 -0.6995 -2.2196
  929MOL0     H25401   7.362   6.224   9.184  0.8708 -0.9567 -1.4768
  929MOL0     H25402   7.149   6.160   9.226 -0.3029 -3.2912 -0.6195
  929MOL0     H25403   6.920   6.075   9.269  0.6733 -1.1993  0.4204
  929MOL0     H25404   6.961   6.208   9.361 -1.4873  0.3236  1.9497
  929MOL0     H25405   6.742   6.153   9.416  1.2888  2.4776  0.6868
  929MOL0     H25406   6.834   6.120   9.566 -1.4553  0.8922  0.0907
  929MOL0     H25407   6.820   5.872   9.516 -1.0351  1.2980  1.1542
  929MOL0     H25408   6.743   5.910   9.359  1.3319 -4.1314  0.7233
  929MOL0     H25409   6.579   5.835   9.492  1.5737 -0.2077 -0.2026
  929MOL0     H25410   6.634   5.915   9.641 -0.1477 -1.6595  0.2332
  929MOL0     H25411   6.376   6.198   9.518 -1.0846 -0.9196 -0.8272
  929MOL0     H25412   7.246   5.965   9.595 -0.7830  1.2933  0.1621
  929MOL0     H25413   7.593   5.926   9.504  0.2282  3.1021  0.3120
  929MOL0     H25414   7.557   6.031   9.635 -1.0925 -1.0200  3.3729
  929MOL0     H25415   7.467   5.875   9.612 -0.1421 -1.8325 -1.5497
  930MOL0     O25416  10.191   8.384   8.825 -0.1154 -0.0408  0.3263
  930MOL0     C25417  10.105   8.339   8.748  0.8654 -0.1528 -0.2069
  930MOL0     O25418  10.126   8.279   8.629 -0.2646 -0.5586 -0.8587
  930MOL0     C25419  10.256   8.229   8.593  0.9400 -0.1518  0.4723
  930MOL0     C25420  10.252   8.130   8.487  0.1873 -0.1560  0.2341
  930MOL0     C25421  10.372   8.076   8.440  0.0838 -0.4868  0.2761
  930MOL0     C25422  10.495   8.108   8.494 -1.1238 -0.6140  0.0802
  930MOL0     O25423  10.604   8.061   8.427 -0.2082 -0.3711  0.4451
  930MOL0     C25424  10.739   8.086   8.474 -1.0550 -1.5682 -0.7886
  930MOL0     C25425  10.844   8.015   8.394  0.3442 -0.0823  0.5274
  930MOL0     C25426  10.984   8.019   8.467  0.2774 -0.0274 -1.0266
  930MOL0     C25427  11.111   7.996   8.385  0.1419  0.0763 -0.4218
  930MOL0     C25428  11.248   7.999   8.454  0.5035  0.0561  0.0172
  930MOL0     C25429  11.362   7.999   8.349  0.6277 -0.3128  0.0688
  930MOL0     C25430  11.496   7.981   8.428  0.4515 -0.1659  0.3073
  930MOL0     C25431  11.626   7.972   8.340  0.8440  0.6074 -0.2413
  930MOL0     N25432  11.747   7.922   8.406  0.2879 -0.5350 -0.7962
  930MOL0     C25433  11.748   7.815   8.489 -0.3470 -0.2215 -0.5211
  930MOL0     C25434  11.872   7.812   8.538 -1.0199  0.3126  0.9722
  930MOL0     C25435  11.933   7.693   8.611  0.7711  0.1992  0.2206
  930MOL0     C25436  12.044   7.617   8.534  0.7066  0.4227 -0.2934
  930MOL0     C25437  12.185   7.671   8.581 -0.3265 -0.1918  0.2150
  930MOL0     C25438  12.303   7.622   8.495 -0.8195  0.1888  0.0783
  930MOL0     O25439  12.295   7.479   8.477 -0.5952  1.0105  0.0114
  930MOL0     C25440  12.382   7.434   8.382 -0.8325 -0.6371  0.7201
  930MOL0     C25441  12.506   7.404   8.432  0.6243  0.7663 -0.4213
  930MOL0     C25442  12.608   7.352   8.350 -0.2237 -0.0654  0.2129
  930MOL0     C25443  12.580   7.330   8.210  0.2732  0.3983  0.1590
  930MOL0     C25444  12.683   7.275   8.115  0.0201 -0.1256  0.2174
  930MOL0     O25445  12.652   7.258   7.985 -0.5091 -0.8336  0.5608
  930MOL0     C25446  12.749   7.219   7.893  0.6152  0.2724 -0.3314
  930MOL0     C25447  12.715   7.115   7.798  0.6618 -0.2010 -0.6855
  930MOL0     C25448  12.806   7.071   7.705 -0.4330  0.2861 -0.2229
  930MOL0     C25449  12.938   7.119   7.705  0.1908 -0.6506 -0.1788
  930MOL0     O25450  13.031   7.085   7.614 -0.3915  0.5786  0.1206
  930MOL0     C25451  13.052   6.947   7.593  0.4682  0.8280  0.5111
  930MOL0     C25452  13.181   6.891   7.647 -0.0557 -0.4917  0.3497
  930MOL0     C25453  13.191   6.737   7.615  0.2370  0.4567 -0.7789
  930MOL0     C25454  13.326   6.691   7.667 -0.5470  0.3316  0.6528
  930MOL0     C25455  13.339   6.532   7.659 -0.3167  0.1687  0.2174
  930MOL0     C25456  13.269   6.473   7.531 -0.4603  1.0655 -0.6122
  930MOL0     C25457  13.337   6.508   7.399 -1.1745 -0.3793  0.3277
  930MOL0     C25458  13.467   6.430   7.376  0.4681 -1.4054  0.6148
  930MOL0    Cl25459  13.528   6.445   7.202  0.3614  0.4025 -0.0409
  930MOL0     C25460  12.974   7.225   7.799  0.2794 -0.1123 -0.5852
  930MOL0     C25461  12.879   7.269   7.891  0.1912 -0.6782  0.1724
  930MOL0     O25462  12.795   7.252   8.161 -0.2920 -1.3169 -0.3952
  930MOL0     C25463  12.449   7.356   8.169  0.0661  0.1636  0.3572
  930MOL0     C25464  12.347   7.407   8.251 -0.4873  0.3952 -1.0799
  930MOL0     N25465  11.941   7.920   8.488 -0.4804  0.2235 -0.0933
  930MOL0     N25466  11.864   7.981   8.409  0.0772 -0.3791  0.4192
  930MOL0     C25467  10.501   8.212   8.595  0.4028  0.5734 -0.0539
  930MOL0     C25468  10.381   8.269   8.638 -0.3291 -0.1918  0.5346
  930MOL0     C25469   9.974   8.370   8.804 -0.3958 -0.3058 -0.1640
  930MOL0     C25470   9.946   8.329   8.937  0.0125  0.9222  0.4519
  930MOL0     C25471   9.826   8.344   8.999 -0.2122  0.1646 -0.0199
  930MOL0     C25472   9.720   8.414   8.935 -1.0359 -0.3053 -0.4897
  930MOL0     O25473   9.599   8.433   8.994  0.2161  0.1111 -0.4981
  930MOL0     C25474   9.512   8.320   8.980  0.0393  0.3647 -0.7389
  930MOL0     C25475   9.373   8.344   9.063 -0.6509 -0.5733 -0.6392
  930MOL0     C25476   9.269   8.237   9.045 -0.5406  1.0717 -1.2596
  930MOL0     C25477   9.152   8.251   9.148 -0.6101  0.2645  0.1569
  930MOL0     C25478   9.037   8.172   9.101 -1.0801 -0.7866 -0.4039
  930MOL0     C25479   8.950   8.120   9.053 -0.3101  0.3415 -0.3237
  930MOL0     C25480   9.750   8.467   8.811 -0.7396  0.0683  0.7077
  930MOL0     C25481   9.870   8.440   8.742 -0.2688  0.0805  0.0463
  930MOL0     C25482   9.887   8.495   8.599  0.3469 -0.8921 -0.0011
  930MOL0     H25483  10.166   8.092   8.433  1.1831 -0.2187 -1.3593
  930MOL0     H25484  10.368   8.011   8.353 -2.5555 -1.5854  1.1079
  930MOL0     H25485  10.768   8.190   8.459 -3.9018 -0.2052  1.9917
  930MOL0     H25486  10.739   8.048   8.577  0.8416 -0.3736 -0.2818
  930MOL0     H25487  10.857   8.060   8.295  1.2916 -2.3375 -0.4442
  930MOL0     H25488  10.814   7.913   8.368 -0.8169  0.6801 -1.3135
  930MOL0     H25489  10.996   7.947   8.549 -0.5031  0.8330 -0.1292
  930MOL0     H25490  10.988   8.117   8.516  0.7986 -1.8001  2.8501
  930MOL0     H25491  11.096   7.905   8.326 -1.6740  0.9893 -1.4909
  930MOL0     H25492  11.114   8.075   8.309  2.4731  0.4553 -0.0016
  930MOL0     H25493  11.256   8.090   8.513  2.5444 -0.5620  0.7695
  930MOL0     H25494  11.251   7.912   8.520  0.6919  0.7376  0.9293
  930MOL0     H25495  11.351   7.912   8.284 -2.7756  1.5725 -2.1592
  930MOL0     H25496  11.364   8.088   8.285 -2.5264  0.0461  0.3105
  930MOL0     H25497  11.475   7.894   8.490  0.7665 -0.3960  0.0922
  930MOL0     H25498  11.512   8.066   8.496 -1.8948 -0.0311  0.7735
  930MOL0     H25499  11.601   7.901   8.260  1.9169 -2.1468  1.7171
  930MOL0     H25500  11.630   8.075   8.304  1.8140  0.6926  0.0959
  930MOL0     H25501  11.658   7.754   8.499  0.6813 -1.4718  2.6039
  930MOL0     H25502  11.978   7.727   8.705 -0.7638 -1.4697  1.6354
  930MOL0     H25503  11.860   7.622   8.649  1.2453 -0.6777 -0.4572
  930MOL0     H25504  12.040   7.510   8.558 -1.3671  0.4537 -0.3307
  930MOL0     H25505  12.029   7.624   8.426 -1.9735 -0.3911 -0.0541
  930MOL0     H25506  12.197   7.634   8.683 -2.5420 -0.4885  0.4172
  930MOL0     H25507  12.186   7.781   8.579 -3.4973 -0.0877 -0.1298
  930MOL0     H25508  12.394   7.649   8.548 -0.2637  1.4905 -1.4334
  930MOL0     H25509  12.308   7.677   8.400 -0.9529 -1.0244 -0.6612
  930MOL0     H25510  12.519   7.411   8.540 -3.7091 -0.5189  0.3728
  930MOL0     H25511  12.705   7.332   8.393  0.0892 -0.9822 -0.8631
  930MOL0     H25512  12.610   7.090   7.797 -0.1166  2.2263 -4.6773
  930MOL0     H25513  12.773   7.002   7.629 -2.1355  0.1002  0.6390
  930MOL0     H25514  12.972   6.896   7.648  1.1586 -1.0521 -0.1266
  930MOL0     H25515  13.046   6.922   7.487 -0.3032 -0.1035  0.7565
  930MOL0     H25516  13.258   6.956   7.603  0.4452 -1.2391  0.1074
  930MOL0     H25517  13.195   6.905   7.754 -1.8933  2.0569  0.3406
  930MOL0     H25518  13.107   6.687   7.664  0.6235 -1.1989 -1.7419
  930MOL0     H25519  13.172   6.717   7.510 -0.0553  0.4511 -0.7255
  930MOL0     H25520  13.339   6.719   7.772 -0.5316 -3.3768  1.7892
  930MOL0     H25521  13.405   6.735   7.605 -0.4258 -4.4655 -3.2762
  930MOL0     H25522  13.286   6.500   7.749  0.7305 -1.5840  0.2682
  930MOL0     H25523  13.444   6.504   7.673 -0.3136 -0.2523 -0.5930
  930MOL0     H25524  13.268   6.364   7.547 -3.4927  0.8467 -1.7117
  930MOL0     H25525  13.161   6.486   7.535 -0.7547 -1.1208  2.2777
  930MOL0     H25526  13.357   6.615   7.383 -1.1799 -0.1560  1.6754
  930MOL0     H25527  13.276   6.496   7.309  1.1190  3.4739 -2.0306
  930MOL0     H25528  13.539   6.471   7.448 -0.0352 -1.2164  1.0154
  930MOL0     H25529  13.453   6.324   7.401  2.1046 -1.3205  2.1650
  930MOL0     H25530  13.073   7.270   7.794 -0.5394  2.3165  2.1290
  930MOL0     H25531  12.894   7.363   7.943 -1.4066 -0.8166  0.9341
  930MOL0     H25532  12.423   7.347   8.064 -1.1912 -0.4162  0.6979
  930MOL0     H25533  12.243   7.417   8.222  0.1081  0.4998 -3.3906
  930MOL0     H25534  10.593   8.256   8.633  0.3203  0.3652  0.3994
  930MOL0     H25535  10.394   8.348   8.711  0.4104  1.2697 -1.1018
  930MOL0     H25536  10.033   8.284   8.984 -0.2755  0.6947  0.7663
  930MOL0     H25537   9.820   8.317   9.104  0.9704  0.6949  0.2048
  930MOL0     H25538   9.555   8.226   9.017 -0.3641  1.3294  2.4234
  930MOL0     H25539   9.487   8.306   8.874 -0.6816  1.7332 -0.7773
  930MOL0     H25540   9.337   8.435   9.013 -2.5541 -1.5462 -1.1385
  930MOL0     H25541   9.407   8.353   9.167  3.6686  1.0959 -1.9817
  930MOL0     H25542   9.310   8.137   9.059 -1.5292  0.9450  1.3404
  930MOL0     H25543   9.222   8.257   8.948 -0.2005  2.5104 -1.1523
  930MOL0     H25544   9.181   8.215   9.247  1.5414 -0.6766 -0.7585
  930MOL0     H25545   9.119   8.356   9.143 -1.6983 -0.0243  0.8118
  930MOL0     H25546   8.867   8.071   9.006 -1.2539  0.7520  0.8789
  930MOL0     H25547   9.677   8.526   8.756 -1.1911 -0.9201  0.2264
  930MOL0     H25548   9.978   8.555   8.588 -1.5244  1.7206 -2.8057
  930MOL0     H25549   9.880   8.408   8.533 -1.0006 -0.3427 -0.6309
  930MOL0     H25550   9.801   8.556   8.569  2.1215  0.4630 -2.7817
  931MOL0     O25551   1.802   1.769   2.026 -0.4613 -0.2546  0.2799
  931MOL0     C25552   1.883   1.697   1.972  0.2833 -0.7682  0.4853
  931MOL0     O25553   2.011   1.681   2.009 -0.6019 -0.1678  0.4663
  931MOL0     C25554   2.070   1.742   2.119  0.4230  0.1895 -0.2870
  931MOL0     C25555   2.178   1.669   2.165  0.2942  0.0992  0.1691
  931MOL0     C25556   2.267   1.722   2.256  0.2010 -0.2703  0.1022
  931MOL0     C25557   2.251   1.849   2.313 -0.5604 -0.1221 -0.1568
  931MOL0     O25558   2.347   1.900   2.403  0.1671 -0.6784 -0.4117
  931MOL0     C25559   2.411   1.821   2.493 -1.0545  0.8739 -0.0712
  931MOL0     C25560   2.469   1.914   2.604 -0.3227  0.4981  0.8142
  931MOL0     C25561   2.523   1.828   2.720 -0.5412  0.5881  0.7295
  931MOL0     C25562   2.665   1.789   2.696 -0.3281  0.0473  0.1813
  931MOL0     C25563   2.735   1.725   2.819 -0.2489 -0.1410 -0.6824
  931MOL0     C25564   2.886   1.717   2.803 -0.2744 -0.0943 -0.1004
  931MOL0     C25565   2.926   1.621   2.702  0.4716  0.3844  0.1414
  931MOL0     C25566   3.069   1.589   2.709 -0.2816  0.5063  0.3406
  931MOL0     N25567   3.144   1.697   2.662  0.6098 -0.0760 -0.3462
  931MOL0     C25568   3.162   1.736   2.531  0.5055 -0.2920 -0.4369
  931MOL0     C25569   3.229   1.854   2.526  0.5510  0.3778  0.4314
  931MOL0     C25570   3.263   1.934   2.406 -0.3596 -0.4529  0.2617
  931MOL0     C25571   3.361   1.861   2.322  0.0726  0.4977 -0.6173
  931MOL0     C25572   3.417   1.930   2.195 -1.0242  0.6197  0.5681
  931MOL0     C25573   3.535   2.023   2.213  0.3466 -1.4304  0.2225
  931MOL0     O25574   3.650   1.961   2.273 -1.1181  0.1986 -0.0050
  931MOL0     C25575   3.763   2.035   2.303  0.1981 -0.0960 -0.4227
  931MOL0     C25576   3.772   2.177   2.310 -0.6709  0.8459  0.2734
  931MOL0     C25577   3.898   2.238   2.330 -0.7210 -0.1088  0.0211
  931MOL0     C25578   4.016   2.163   2.359 -0.7128 -0.6949  0.4010
  931MOL0     C25579   4.152   2.231   2.376 -0.1562  0.3672 -0.4411
  931MOL0     O25580   4.155   2.368   2.371 -0.1479  0.3025  0.0429
  931MOL0     C25581   4.279   2.427   2.383  0.1395 -0.5298 -0.2288
  931MOL0     C25582   4.284   2.520   2.497  0.3431 -0.3376  0.6532
  931MOL0     C25583   4.399   2.596   2.515  0.4978  0.2528 -0.0249
  931MOL0     C25584   4.514   2.580   2.435  0.1541 -0.2767  0.2086
  931MOL0     O25585   4.619   2.664   2.453 -0.2292  0.3224  0.4235
  931MOL0     C25586   4.744   2.636   2.388 -0.4281 -0.7114  0.2610
  931MOL0     C25587   4.745   2.714   2.255 -0.0017  0.1927  0.6277
  931MOL0     C25588   4.887   2.732   2.197 -0.0195  0.0746 -0.3305
  931MOL0     C25589   4.901   2.784   2.051 -0.8760  0.8820  0.0870
  931MOL0     C25590   5.037   2.740   1.980  0.2587  0.0984 -0.8097
  931MOL0     C25591   5.042   2.597   1.943 -0.1842  0.2840 -0.1503
  931MOL0     C25592   5.169   2.572   1.848 -0.3916 -0.1955  0.2786
  931MOL0     C25593   5.201   2.421   1.825  0.0226 -0.6785  0.1389
  931MOL0    Cl25594   5.325   2.359   1.947  0.2436  0.0224  0.2974
  931MOL0     C25595   4.505   2.487   2.329  0.1201 -0.4684 -0.2026
  931MOL0     C25596   4.389   2.408   2.303 -0.2108 -0.9340  0.2694
  931MOL0     O25597   4.244   2.155   2.396 -0.5556  0.7242 -0.3064
  931MOL0     C25598   4.001   2.022   2.362  0.5369 -0.0900 -0.8031
  931MOL0     C25599   3.871   1.959   2.345 -0.6434  0.2264 -1.1161
  931MOL0     N25600   3.255   1.880   2.656  0.2265  0.2688 -1.2300
  931MOL0     N25601   3.209   1.789   2.739 -0.7697  0.3033 -0.3783
  931MOL0     C25602   2.148   1.932   2.263 -0.0281  0.5098 -0.2337
  931MOL0     C25603   2.056   1.876   2.167 -0.6841  0.3199  0.2452
  931MOL0     C25604   1.850   1.629   1.837 -0.6388  0.2131 -0.3531
  931MOL0     C25605   1.925   1.523   1.784  0.0278  0.8063 -0.0162
  931MOL0     C25606   1.876   1.450   1.680 -0.5379 -0.1088  0.1979
  931MOL0     C25607   1.757   1.483   1.612  0.2545  0.1401 -0.4160
  931MOL0     O25608   1.695   1.407   1.519  0.6301  0.0568 -1.4906
  931MOL0     C25609   1.748   1.280   1.489 -0.6235  0.2382 -0.4912
  931MOL0     C25610   1.868   1.298   1.400 -0.5355  0.0019 -0.6275
  931MOL0     C25611   1.919   1.172   1.333 -0.2381  0.2252  0.0501
  931MOL0     C25612   2.037   1.195   1.236 -0.8256 -0.5028 -0.5625
  931MOL0     C25613   2.098   1.065   1.201 -0.2454 -0.6719  0.1178
  931MOL0     C25614   2.138   0.960   1.164  0.2892 -0.0582 -0.0082
  931MOL0     C25615   1.695   1.599   1.652  0.5701  0.6056  0.2119
  931MOL0     C25616   1.737   1.667   1.767 -0.3169  0.0114 -0.3517
  931MOL0     C25617   1.651   1.785   1.799  0.3364 -0.2971  0.2488
  931MOL0     H25618   2.204   1.576   2.114 -2.6225 -0.2059 -0.9481
  931MOL0     H25619   2.357   1.664   2.274  0.4832  0.3326  0.6752
  931MOL0     H25620   2.341   1.746   2.533 -0.6212 -0.1343 -1.1456
  931MOL0     H25621   2.490   1.769   2.439  0.2396 -0.2636  2.7504
  931MOL0     H25622   2.401   1.985   2.651  2.3560  2.0092  2.7193
  931MOL0     H25623   2.543   1.980   2.558 -0.7879 -0.0819 -0.8075
  931MOL0     H25624   2.462   1.740   2.743 -0.5494  0.4086  0.0566
  931MOL0     H25625   2.526   1.891   2.809 -2.5530 -1.2659  2.2471
  931MOL0     H25626   2.654   1.731   2.604 -1.5075  2.9977 -1.7200
  931MOL0     H25627   2.718   1.880   2.667  0.2052 -1.1586 -3.1036
  931MOL0     H25628   2.721   1.789   2.907  3.4073  1.0803 -0.8238
  931MOL0     H25629   2.700   1.624   2.844  2.0110 -1.1448 -1.3610
  931MOL0     H25630   2.926   1.812   2.767 -2.7676  0.6995 -0.9205
  931MOL0     H25631   2.931   1.696   2.901  0.5289  0.3609 -0.3609
  931MOL0     H25632   2.893   1.641   2.599 -4.9135  1.6489  1.7686
  931MOL0     H25633   2.869   1.530   2.725 -0.3571  0.9911  0.5580
  931MOL0     H25634   3.097   1.560   2.811 -0.8228 -0.0609  0.3337
  931MOL0     H25635   3.084   1.500   2.647 -0.1421  1.5030 -1.0951
  931MOL0     H25636   3.118   1.682   2.447 -3.5993 -0.4250  1.5426
  931MOL0     H25637   3.165   1.946   2.359  0.0884  1.2781 -0.3240
  931MOL0     H25638   3.295   2.035   2.435 -0.5242 -0.1301 -0.6460
  931MOL0     H25639   3.442   1.824   2.385 -1.5675 -0.6454  0.8807
  931MOL0     H25640   3.300   1.778   2.287  1.6919 -1.9601  1.9819
  931MOL0     H25641   3.334   1.984   2.148 -1.7752  0.8675  2.1102
  931MOL0     H25642   3.459   1.855   2.128 -1.3162  0.4337  0.5910
  931MOL0     H25643   3.495   2.110   2.266 -0.8918  1.1297 -4.3206
  931MOL0     H25644   3.571   2.059   2.116 -0.2269 -2.2140 -0.2882
  931MOL0     H25645   3.680   2.231   2.291 -1.2287 -0.3552 -0.5211
  931MOL0     H25646   3.912   2.345   2.326 -1.3590  0.0150  0.9218
  931MOL0     H25647   4.192   2.533   2.554 -0.0674  1.5126 -0.3148
  931MOL0     H25648   4.401   2.657   2.605  0.7473  0.3283 -0.0812
  931MOL0     H25649   4.816   2.678   2.459  0.1193  0.9969 -1.2442
  931MOL0     H25650   4.762   2.529   2.372  1.6174 -0.5896  1.3821
  931MOL0     H25651   4.677   2.665   2.185  0.7438  0.6814 -0.4702
  931MOL0     H25652   4.708   2.816   2.266  0.6351  0.4180  0.7635
  931MOL0     H25653   4.947   2.800   2.257 -0.7069  0.7318 -0.3734
  931MOL0     H25654   4.937   2.636   2.208  2.9886  1.5881  0.2107
  931MOL0     H25655   4.892   2.893   2.048  0.1569  1.1395  3.0303
  931MOL0     H25656   4.821   2.738   1.993 -2.1359  0.0070  2.3856
  931MOL0     H25657   5.127   2.768   2.036 -0.6295 -0.7061  1.1438
  931MOL0     H25658   5.038   2.789   1.882 -0.3468 -0.1134 -0.9222
  931MOL0     H25659   5.046   2.522   2.023  1.6170  0.3746 -0.1022
  931MOL0     H25660   4.951   2.564   1.893 -0.6862 -3.3435  2.6576
  931MOL0     H25661   5.252   2.633   1.884 -0.9034  0.2487  0.7270
  931MOL0     H25662   5.141   2.623   1.755  0.4842  1.1862  0.7450
  931MOL0     H25663   5.103   2.374   1.838  0.6514 -1.8459  0.7372
  931MOL0     H25664   5.223   2.417   1.718  0.7673  0.0315  0.2597
  931MOL0     H25665   4.590   2.490   2.261 -1.5378  0.9637 -2.3484
  931MOL0     H25666   4.388   2.336   2.222 -2.4354 -0.1373 -0.4573
  931MOL0     H25667   4.093   1.966   2.378  0.5860  0.2612  0.2916
  931MOL0     H25668   3.867   1.851   2.348  1.5236  0.1266  0.6855
  931MOL0     H25669   2.141   2.031   2.306 -0.3135  0.5297 -0.3222
  931MOL0     H25670   1.982   1.943   2.123 -0.6114 -1.0875 -2.1959
  931MOL0     H25671   2.023   1.496   1.822  0.2054  1.4858  0.0289
  931MOL0     H25672   1.939   1.368   1.646 -0.0181  1.3839 -2.8080
  931MOL0     H25673   1.676   1.215   1.438  0.7014 -4.0906  2.6387
  931MOL0     H25674   1.755   1.227   1.584  0.7146  1.0308 -0.1205
  931MOL0     H25675   1.951   1.352   1.446  0.5287 -2.9996  1.3255
  931MOL0     H25676   1.835   1.362   1.318 -1.7607  0.5778  0.2817
  931MOL0     H25677   1.845   1.111   1.281  0.4030 -3.3154  2.8605
  931MOL0     H25678   1.950   1.103   1.412  0.6958  0.7512  0.1608
  931MOL0     H25679   2.005   1.250   1.148 -1.7769  1.4979  0.9556
  931MOL0     H25680   2.116   1.254   1.283  0.2067 -2.0290 -0.2773
  931MOL0     H25681   2.193   0.872   1.136 -1.2744 -1.2570  0.5345
  931MOL0     H25682   1.605   1.631   1.601  0.9627 -1.1191 -1.6925
  931MOL0     H25683   1.555   1.788   1.746  0.5808  1.9396 -0.1525
  931MOL0     H25684   1.609   1.784   1.900 -1.1312 -0.0038 -0.3205
  931MOL0     H25685   1.702   1.879   1.777 -2.1992  0.6979 -2.0607
  932MOL0     O25686   9.151   0.295   9.948 -0.1121 -0.0537 -0.0221
  932MOL0     C25687   9.140   0.354   9.843 -0.0412 -0.1458 -0.3657
  932MOL0     O25688   9.239   0.362   9.752 -0.4589  0.1041  0.2439
  932MOL0     C25689   9.356   0.311   9.791 -0.4113  0.6091  0.1257
  932MOL0     C25690   9.386   0.172   9.788  0.1817 -0.1088 -0.0567
  932MOL0     C25691   9.511   0.124   9.840  1.1579 -0.2678 -0.8799
  932MOL0     C25692   9.608   0.223   9.888 -0.3428 -0.1606  0.0321
  932MOL0     O25693   9.735   0.187   9.932 -0.0818 -0.1700  0.0839
  932MOL0     C25694   9.755   0.058   9.987 -0.0003  0.6581  0.4044
  932MOL0     C25695   9.879   0.058  10.075  0.6028  0.1743 -0.8685
  932MOL0     C25696  10.002   0.114  10.005  1.0550 -0.1165 -0.0674
  932MOL0     C25697  10.113   0.105  10.101  0.2422  0.9256  0.0180
  932MOL0     C25698  10.254   0.128  10.043  0.5204  0.1826 -0.8899
  932MOL0     C25699  10.368   0.131  10.152 -0.5935  0.5200 -0.5212
  932MOL0     C25700  10.510   0.167  10.093 -0.5724 -0.0542  0.1165
  932MOL0     C25701  10.620   0.140  10.209  0.1010 -0.1418 -0.0810
  932MOL0     N25702  10.762   0.127  10.178  0.6523  0.2059 -0.9179
  932MOL0     C25703  10.816   0.067  10.065  0.0214  0.0202  0.1182
  932MOL0     C25704  10.955   0.067  10.073  0.5838 -0.4212  0.2742
  932MOL0     C25705  11.061   0.044   9.969  0.1678  1.2210  0.4054
  932MOL0     C25706  11.078   0.163   9.868  0.2568  0.1217 -0.5269
  932MOL0     C25707  11.185   0.140   9.767 -0.0817  0.6083 -0.0419
  932MOL0     C25708  11.321   0.078   9.812  0.0730  1.0259  0.2037
  932MOL0     O25709  11.377   0.157   9.920  0.9663  0.4016  0.5359
  932MOL0     C25710  11.505   0.183   9.935  0.5761 -0.0073 -0.5899
  932MOL0     C25711  11.609   0.129   9.861  0.2102 -0.5536 -0.9346
  932MOL0     C25712  11.744   0.153   9.884  0.0287  0.5582  0.9747
  932MOL0     C25713  11.784   0.260   9.974  1.5061  0.0845  0.1757
  932MOL0     C25714  11.921   0.306   9.979  0.2421  0.1760  0.2386
  932MOL0     O25715  12.002   0.255   9.885  0.5474  0.6500  1.0764
  932MOL0     C25716  12.135   0.249   9.905  0.1142 -0.0803 -0.2902
  932MOL0     C25717  12.207   0.360   9.930 -1.0251  0.3437 -0.9201
  932MOL0     C25718  12.353   0.363   9.932  0.9103  0.0832  0.0280
  932MOL0     C25719  12.422   0.237   9.904  0.6413  0.3416  0.5705
  932MOL0     O25720  12.557   0.212   9.918  0.5296  0.6946  0.1024
  932MOL0     C25721  12.645   0.330   9.929  0.8140  0.3360 -0.2346
  932MOL0     C25722  12.785   0.281   9.943 -0.1197 -0.2525  0.0945
  932MOL0     C25723  12.835   0.203   9.824 -0.8985  0.1401  0.2905
  932MOL0     C25724  12.980   0.139   9.854  0.0387  0.6130  1.0125
  932MOL0     C25725  13.054   0.066   9.734  0.0101  1.0356  0.2372
  932MOL0     C25726  13.139   0.154   9.642 -0.3709 -0.1587 -0.2845
  932MOL0     C25727  13.057   0.205   9.517 -0.8384 -0.1184  0.4896
  932MOL0     C25728  13.143   0.305   9.439  0.8828  0.7170 -0.4668
  932MOL0    Cl25729  13.201   0.460   9.518 -0.3679  0.0265 -0.1538
  932MOL0     C25730  12.339   0.125   9.875 -0.4062  0.3202  0.8097
  932MOL0     C25731  12.204   0.137   9.875  0.1957  0.0089 -0.4812
  932MOL0     O25732  11.957   0.361  10.077 -0.0955 -0.3824 -0.9493
  932MOL0     C25733  11.680   0.318  10.049 -1.2203 -0.2291 -0.5492
  932MOL0     C25734  11.544   0.276  10.032  0.5226  0.5897  0.5597
  932MOL0     N25735  10.981   0.117  10.197 -0.3511  0.2973  0.0539
  932MOL0     N25736  10.871   0.141  10.264  0.3074  1.0665  0.6476
  932MOL0     C25737   9.578   0.355   9.871  0.2449 -0.1844 -0.5152
  932MOL0     C25738   9.459   0.400   9.824  0.1064  0.0351  0.8324
  932MOL0     C25739   9.011   0.422   9.819  0.2140  0.6413 -0.1996
  932MOL0     C25740   9.021   0.523   9.726  0.7676  0.2983  0.8505
  932MOL0     C25741   8.909   0.599   9.703  0.7346  0.6585 -0.2293
  932MOL0     C25742   8.790   0.565   9.761  0.3190  0.5645  0.5913
  932MOL0     O25743   8.673   0.617   9.713  0.4761 -0.1370 -0.2425
  932MOL0     C25744   8.588   0.523   9.644  0.0496 -0.9645  0.0678
  932MOL0     C25745   8.452   0.591   9.609  0.1820 -0.4244  0.5099
  932MOL0     C25746   8.367   0.505   9.523 -0.2746  0.8942  0.9072
  932MOL0     C25747   8.233   0.566   9.487  0.3993 -0.5132  0.1715
  932MOL0     C25748   8.269   0.672   9.391  0.6820 -0.4377  0.0490
  932MOL0     C25749   8.286   0.764   9.313 -0.9433 -0.3777 -0.0558
  932MOL0     C25750   8.784   0.465   9.862  0.2154 -0.7478  0.2294
  932MOL0     C25751   8.894   0.397   9.896 -0.2495  0.3523 -1.2717
  932MOL0     C25752   8.881   0.295  10.008 -0.5228  0.2944  0.9244
  932MOL0     H25753   9.314   0.094   9.764  2.3454 -1.7947 -1.4284
  932MOL0     H25754   9.518   0.016   9.829  3.9059 -0.1267 -1.3675
  932MOL0     H25755   9.661   0.042  10.042 -1.6797 -0.4490 -2.5590
  932MOL0     H25756   9.758  -0.017   9.907 -1.1203  3.0400 -2.0348
  932MOL0     H25757   9.903  -0.044  10.107  0.5083 -0.0569 -1.5312
  932MOL0     H25758   9.863   0.113  10.168  4.3260  0.3973 -0.2052
  932MOL0     H25759   9.985   0.216   9.967 -2.2870 -1.1639 -1.8627
  932MOL0     H25760  10.016   0.056   9.913  0.2055 -0.1571 -0.1826
  932MOL0     H25761  10.102   0.170  10.188 -0.3887  0.6082  0.1758
  932MOL0     H25762  10.116   0.003  10.140 -0.3163  0.4915 -1.0303
  932MOL0     H25763  10.266   0.053   9.965 -5.3177 -2.3696  0.1524
  932MOL0     H25764  10.247   0.231  10.007  1.3002  1.4656  2.2956
  932MOL0     H25765  10.351   0.202  10.233 -1.7113 -1.3518  0.9868
  932MOL0     H25766  10.360   0.039  10.212  1.9060 -0.3431 -1.3806
  932MOL0     H25767  10.513   0.271  10.060  0.8137 -0.7787 -2.2204
  932MOL0     H25768  10.530   0.109  10.003  0.1773  0.6251 -0.1627
  932MOL0     H25769  10.616   0.233  10.267  1.0215 -1.0809  1.5709
  932MOL0     H25770  10.594   0.052  10.269  0.4960 -1.5209 -1.8562
  932MOL0     H25771  10.755   0.044   9.978  1.6054  1.5170 -1.4703
  932MOL0     H25772  11.153   0.027  10.025  0.8550  2.6992 -0.2253
  932MOL0     H25773  11.035  -0.047   9.913  0.0800  0.1762  2.0854
  932MOL0     H25774  10.988   0.165   9.806  0.3921 -0.3032 -0.7373
  932MOL0     H25775  11.082   0.258   9.923  1.5768 -0.1358 -0.1435
  932MOL0     H25776  11.215   0.238   9.729 -0.5682  0.6107 -0.4296
  932MOL0     H25777  11.153   0.082   9.680  0.2782  0.1739  0.1120
  932MOL0     H25778  11.385   0.067   9.723 -2.2771 -0.3390 -1.4185
  932MOL0     H25779  11.296  -0.022   9.847  0.0742  1.4457  1.4406
  932MOL0     H25780  11.581   0.067   9.777 -2.8805 -0.4172 -0.1177
  932MOL0     H25781  11.819   0.098   9.827  0.1501 -0.4582  2.0625
  932MOL0     H25782  12.158   0.454   9.954 -0.3307  0.6261 -0.5518
  932MOL0     H25783  12.413   0.452   9.941  0.7398  1.0922 -5.2570
  932MOL0     H25784  12.623   0.402   9.850 -0.7344 -1.3512 -1.4279
  932MOL0     H25785  12.623   0.366  10.030 -1.5598 -4.1157  1.1273
  932MOL0     H25786  12.855   0.364   9.959  0.3987 -0.8031  0.7321
  932MOL0     H25787  12.789   0.221  10.034  1.3864  0.4815  0.5434
  932MOL0     H25788  12.771   0.117   9.802  0.9362 -0.6335 -2.6116
  932MOL0     H25789  12.849   0.277   9.745 -1.2721  0.1934  0.2752
  932MOL0     H25790  12.974   0.074   9.942 -1.5153 -0.4432  0.1684
  932MOL0     H25791  13.041   0.225   9.886  1.3492  1.2568 -2.7275
  932MOL0     H25792  12.983   0.005   9.677  1.7775 -2.2768  1.2639
  932MOL0     H25793  13.124  -0.008   9.773 -1.5851 -2.9045 -3.4869
  932MOL0     H25794  13.193   0.230   9.698  1.4176 -0.1543 -1.9170
  932MOL0     H25795  13.218   0.093   9.596  2.8768  2.5422  1.3208
  932MOL0     H25796  12.965   0.248   9.557 -0.4710  2.1259 -0.9076
  932MOL0     H25797  13.023   0.125   9.451 -1.6418 -0.3752  1.2041
  932MOL0     H25798  13.218   0.242   9.389  1.0057  0.0914  0.4879
  932MOL0     H25799  13.072   0.338   9.363 -0.5905 -1.4598 -0.1223
  932MOL0     H25800  12.388   0.031   9.851 -0.1251  1.3463 -3.4633
  932MOL0     H25801  12.144   0.047   9.868  0.5949 -0.7102  3.4958
  932MOL0     H25802  11.712   0.382  10.130 -0.1747 -2.8157  1.2355
  932MOL0     H25803  11.467   0.331  10.087 -0.6357 -2.4276  2.1995
  932MOL0     H25804   9.661   0.422   9.891  0.1959  0.2194 -1.6177
  932MOL0     H25805   9.444   0.506   9.811 -0.9476 -0.4734 -4.1249
  932MOL0     H25806   9.108   0.549   9.667  0.7753 -0.9907  0.2757
  932MOL0     H25807   8.894   0.678   9.631  0.0527  1.4521  0.7502
  932MOL0     H25808   8.568   0.438   9.710  0.8675 -1.5056 -0.3655
  932MOL0     H25809   8.637   0.488   9.553  0.2071  0.0767 -0.2567
  932MOL0     H25810   8.468   0.691   9.567  1.5093 -1.2426 -1.0279
  932MOL0     H25811   8.403   0.592   9.707  0.1250  0.3417  0.4835
  932MOL0     H25812   8.345   0.407   9.567  0.3902 -0.1225 -0.9516
  932MOL0     H25813   8.428   0.480   9.436  0.5917  1.2314  1.4006
  932MOL0     H25814   8.168   0.491   9.442  0.4921 -0.6902  0.3279
  932MOL0     H25815   8.183   0.603   9.578 -1.6889 -0.5263 -0.9126
  932MOL0     H25816   8.300   0.844   9.243 -1.2270 -1.4216 -1.3514
  932MOL0     H25817   8.686   0.452   9.908 -0.0370 -3.0498 -0.8200
  932MOL0     H25818   8.948   0.314  10.093  1.7771  0.6918 -0.8604
  932MOL0     H25819   8.779   0.296  10.048 -0.0951  2.3980  2.1596
  932MOL0     H25820   8.900   0.193   9.974  0.9136  0.8443 -0.0499
  933MOL0     O25821  10.702  10.557   9.682 -0.1869 -0.3867  0.5629
  933MOL0     C25822  10.638  10.512   9.777 -0.1970 -0.2618  0.6051
  933MOL0     O25823  10.691  10.495   9.906 -0.5874  0.2097 -0.8527
  933MOL0     C25824  10.812  10.533   9.927 -0.4290 -0.3727  0.0661
  933MOL0     C25825  10.845  10.640  10.005 -0.6202  0.3268 -0.1916
  933MOL0     C25826  10.979  10.658  10.052 -0.8098 -0.9952 -0.1715
  933MOL0     C25827  11.078  10.574  10.008  0.3950  0.5310  0.0678
  933MOL0     O25828  11.203  10.595  10.056  0.3326 -0.1303  0.5954
  933MOL0     C25829  11.299  10.651   9.969  0.4154  0.1825 -0.0145
  933MOL0     C25830  11.432  10.604  10.037  0.3236 -0.3240 -0.7599
  933MOL0     C25831  11.550  10.641   9.954 -1.3038 -1.1017  0.0470
  933MOL0     C25832  11.659  10.645  10.056  0.0538 -0.0742  0.7919
  933MOL0     C25833  11.797  10.692   9.991 -0.2761  0.0946  0.3294
  933MOL0     C25834  11.908  10.687  10.103  0.2975 -0.1186  0.5628
  933MOL0     C25835  12.039  10.718  10.038  0.0206 -0.7398  0.5420
  933MOL0     C25836  12.142  10.740  10.149 -0.2531  0.1546 -0.3254
  933MOL0     N25837  12.271  10.793  10.102  0.2297 -0.6786 -0.3981
  933MOL0     C25838  12.381  10.713  10.094  0.0839  0.3237 -0.3789
  933MOL0     C25839  12.476  10.783  10.038  0.1374  0.5923  0.7221
  933MOL0     C25840  12.611  10.724   9.996  0.2220 -0.7628 -0.5080
  933MOL0     C25841  12.697  10.705  10.124 -0.2201  0.3141  0.4977
  933MOL0     C25842  12.838  10.663  10.086  0.0905 -0.5810  0.7391
  933MOL0     C25843  12.912  10.682  10.215 -0.3731 -0.2790  0.3180
  933MOL0     O25844  13.056  10.678  10.195 -0.1413 -0.0626  0.4179
  933MOL0     C25845  13.135  10.699  10.305 -0.3575 -0.2413 -0.4168
  933MOL0     C25846  13.264  10.723  10.270  0.1572 -0.3139 -0.1638
  933MOL0     C25847  13.366  10.733  10.367 -0.7207  0.1858  0.1427
  933MOL0     C25848  13.340  10.719  10.503 -0.0344 -1.3240  0.4981
  933MOL0     C25849  13.447  10.710  10.606 -0.2743 -0.7735  0.1971
  933MOL0     O25850  13.569  10.717  10.561 -0.4704 -0.0508 -0.2980
  933MOL0     C25851  13.680  10.717  10.643  0.1362  0.4570 -0.2899
  933MOL0     C25852  13.780  10.812  10.610  0.1421  0.3648  0.0086
  933MOL0     C25853  13.895  10.825  10.684 -0.1390  0.0523  0.0850
  933MOL0     C25854  13.929  10.734  10.783  0.5040 -0.5202 -0.7269
  933MOL0     O25855  14.056  10.737  10.833  0.3941  0.3229 -0.2054
  933MOL0     C25856  14.092  10.860  10.897  0.2287  0.0205  0.0105
  933MOL0     C25857  14.204  10.852  10.999  0.4223 -0.2061  0.6401
  933MOL0     C25858  14.343  10.852  10.936 -0.6967  0.1693 -0.1228
  933MOL0     C25859  14.452  10.817  11.031  0.3563 -0.7716 -0.1594
  933MOL0     C25860  14.589  10.818  10.956  0.2325  0.0883 -0.7055
  933MOL0     C25861  14.707  10.781  11.052  0.7891 -0.1930  0.0576
  933MOL0     C25862  14.841  10.823  10.985  0.0785 -0.5094 -0.3186
  933MOL0     C25863  14.967  10.807  11.078  0.8427  0.1745  0.4947
  933MOL0    Cl25864  14.953  10.908  11.222  0.2987 -0.2136  0.0251
  933MOL0     C25865  13.829  10.638  10.814  0.0460 -0.2173 -0.6252
  933MOL0     C25866  13.713  10.632  10.750 -0.0918  0.0443  1.0545
  933MOL0     O25867  13.409  10.709  10.727 -0.5475 -0.5508  0.2558
  933MOL0     C25868  13.209  10.687  10.539 -0.2098  0.1588 -0.6641
  933MOL0     C25869  13.106  10.688  10.437  0.2671 -0.1816  0.3297
  933MOL0     N25870  12.420  10.904  10.003  0.2646  0.1465 -0.5176
  933MOL0     N25871  12.299  10.909  10.042  0.7237 -0.4484 -0.0545
  933MOL0     C25872  11.046  10.477   9.917 -0.7126  0.2582  0.0325
  933MOL0     C25873  10.918  10.448   9.879  0.1611  0.0574 -0.2863
  933MOL0     C25874  10.495  10.466   9.747 -0.6318  0.3748 -0.1749
  933MOL0     C25875  10.432  10.393   9.854 -1.1107  0.6613 -0.7009
  933MOL0     C25876  10.305  10.341   9.838 -0.8563 -0.0592  0.1098
  933MOL0     C25877  10.231  10.364   9.716 -0.5380  0.2564  0.8806
  933MOL0     O25878  10.096  10.345   9.709  0.3113 -0.4474  0.1918
  933MOL0     C25879  10.018  10.334   9.828 -0.2457  0.5235 -0.5324
  933MOL0     C25880   9.866  10.377   9.834 -0.6855  0.0729 -0.2302
  933MOL0     C25881   9.793  10.283   9.728  0.2614 -0.7244  0.1289
  933MOL0     C25882   9.814  10.123   9.734  0.4324 -0.2574  0.0246
  933MOL0     C25883   9.789  10.072   9.872  0.0747  0.3350  0.9026
  933MOL0     C25884   9.776  10.044   9.988 -0.1318  0.0302  0.5950
  933MOL0     C25885  10.301  10.410   9.606 -0.9726 -0.5131  0.0184
  933MOL0     C25886  10.427  10.468   9.621 -0.5509  0.2453 -0.0110
  933MOL0     C25887  10.486  10.521   9.493 -0.3851 -0.2229  0.4546
  933MOL0     H25888  10.769  10.709  10.038 -2.6768 -2.3744  1.1000
  933MOL0     H25889  11.011  10.745  10.108 -2.6303  0.0506 -0.6486
  933MOL0     H25890  11.300  10.620   9.864  2.2871  2.0026 -0.5931
  933MOL0     H25891  11.297  10.760   9.968  4.4611  0.5467  3.0041
  933MOL0     H25892  11.427  10.496  10.055 -1.0725 -0.3393 -1.0962
  933MOL0     H25893  11.433  10.651  10.136  1.7734 -1.2710 -0.2767
  933MOL0     H25894  11.534  10.744   9.923  0.7522 -0.6652  0.3318
  933MOL0     H25895  11.576  10.582   9.865  3.4016 -0.6990  0.9186
  933MOL0     H25896  11.645  10.727  10.126  0.0698 -1.0532  1.9766
  933MOL0     H25897  11.652  10.548  10.107  0.0929 -0.1270  0.6994
  933MOL0     H25898  11.822  10.636   9.901 -2.5513 -0.4842 -0.0218
  933MOL0     H25899  11.789  10.796   9.957 -0.6406  1.0587  3.1205
  933MOL0     H25900  11.888  10.763  10.180 -0.3100 -2.0876  2.4418
  933MOL0     H25901  11.906  10.590  10.153 -1.0098 -0.4964 -0.1876
  933MOL0     H25902  12.020  10.796   9.964 -1.5874 -1.0733  0.5836
  933MOL0     H25903  12.067  10.628   9.982 -0.2380  0.1171 -1.0469
  933MOL0     H25904  12.101  10.813  10.220  0.9001  0.8452 -0.3498
  933MOL0     H25905  12.156  10.640  10.191  0.7474 -0.2862 -1.6444
  933MOL0     H25906  12.385  10.607  10.118  1.6227  0.5247  0.4216
  933MOL0     H25907  12.587  10.628   9.949 -2.5749  0.1736 -1.2068
  933MOL0     H25908  12.662  10.787   9.923  0.7428 -1.3871 -0.6989
  933MOL0     H25909  12.691  10.793  10.189  2.8639 -2.0180  4.4293
  933MOL0     H25910  12.653  10.632  10.193  0.5337 -1.0680 -0.4319
  933MOL0     H25911  12.882  10.726  10.008 -3.6505 -1.4800 -2.4138
  933MOL0     H25912  12.839  10.566  10.034 -0.5785 -1.2521  1.9335
  933MOL0     H25913  12.875  10.617  10.295 -3.7589  0.8741 -0.1487
  933MOL0     H25914  12.880  10.779  10.254 -1.4246  0.5381 -2.3984
  933MOL0     H25915  13.286  10.726  10.163 -3.2707 -0.5518 -0.9923
  933MOL0     H25916  13.470  10.746  10.341 -0.6916  1.7870  0.9396
  933MOL0     H25917  13.756  10.889  10.537 -1.6646 -0.9165 -0.8295
  933MOL0     H25918  13.956  10.913  10.665 -1.9065  1.0717 -1.2639
  933MOL0     H25919  14.114  10.928  10.815 -0.2791  1.0327  0.6881
  933MOL0     H25920  14.008  10.900  10.954  2.3795  2.3425  1.7847
  933MOL0     H25921  14.191  10.937  11.067 -0.8326 -2.0665  2.8518
  933MOL0     H25922  14.184  10.767  11.064  0.4586 -0.6767  0.0468
  933MOL0     H25923  14.336  10.785  10.849  0.4665 -0.5762  0.3379
  933MOL0     H25924  14.354  10.952  10.892 -0.4592  1.7574  3.2325
  933MOL0     H25925  14.432  10.725  11.087 -1.7436  1.5146  3.2433
  933MOL0     H25926  14.458  10.885  11.116  3.2736 -1.4936  0.3363
  933MOL0     H25927  14.610  10.922  10.929  0.7093 -0.0804 -0.9938
  933MOL0     H25928  14.598  10.739  10.881  1.7878 -1.1118  0.6711
  933MOL0     H25929  14.705  10.819  11.155 -0.2982 -0.7483  0.2594
  933MOL0     H25930  14.695  10.673  11.065 -1.0250 -0.2433 -1.5666
  933MOL0     H25931  14.829  10.924  10.943  3.4850 -0.3420 -1.1453
  933MOL0     H25932  14.861  10.768  10.893 -0.7734 -0.2438 -0.6774
  933MOL0     H25933  14.982  10.702  11.104  2.5672  0.0531 -0.7576
  933MOL0     H25934  15.050  10.841  11.015 -1.3962  0.2267 -2.6490
  933MOL0     H25935  13.845  10.544  10.866 -0.9261  0.1553  0.3872
  933MOL0     H25936  13.632  10.566  10.780 -0.5003  0.1350  0.1747
  933MOL0     H25937  13.183  10.671  10.643  3.1507  0.6943  0.3686
  933MOL0     H25938  13.005  10.683  10.477  0.9432 -0.6220  2.1115
  933MOL0     H25939  11.126  10.410   9.884  1.8571  4.0472 -2.2074
  933MOL0     H25940  10.890  10.362   9.819 -3.0570 -0.9822  2.4104
  933MOL0     H25941  10.485  10.370   9.947  0.0722  1.8719 -1.0388
  933MOL0     H25942  10.250  10.310   9.927 -0.9149  0.5178  0.2821
  933MOL0     H25943  10.051  10.404   9.905 -1.8763  0.7889 -0.0469
  933MOL0     H25944  10.030  10.236   9.874 -0.0407 -0.0909 -1.8432
  933MOL0     H25945   9.850  10.482   9.811  1.5944  1.0194  2.0530
  933MOL0     H25946   9.834  10.358   9.936 -2.0675 -0.1179 -0.6831
  933MOL0     H25947   9.835  10.322   9.634 -0.0872  1.1364  0.7063
  933MOL0     H25948   9.688  10.314   9.731  0.6777  0.6801  1.8835
  933MOL0     H25949   9.738  10.078   9.669  0.5074 -2.8194  1.5645
  933MOL0     H25950   9.915  10.098   9.700  0.7081 -1.0368  1.3246
  933MOL0     H25951   9.759  10.027  10.093  0.0674 -1.8008  0.3729
  933MOL0     H25952  10.246  10.420   9.513 -1.0563  1.6031  0.2403
  933MOL0     H25953  10.427  10.506   9.403  0.1668  0.8389 -0.1014
  933MOL0     H25954  10.494  10.630   9.497 -3.2064  0.0638  3.9299
  933MOL0     H25955  10.590  10.489   9.485 -0.9635 -1.7928 -1.6084
  934MOL0     O25956   9.662   3.337   6.389 -0.4229 -0.1073  0.3750
  934MOL0     C25957   9.654   3.454   6.370  0.7020  0.1733 -0.0307
  934MOL0     O25958   9.736   3.555   6.415  0.1317 -0.7008  0.0052
  934MOL0     C25959   9.869   3.538   6.431  0.3291 -0.4396  0.0962
  934MOL0     C25960   9.927   3.643   6.504  0.5757  0.3532  0.7865
  934MOL0     C25961  10.066   3.650   6.531  0.8457  0.4483  0.5739
  934MOL0     C25962  10.149   3.537   6.497 -0.3914  0.8609 -0.5835
  934MOL0     O25963  10.282   3.530   6.534  0.0982  0.4065 -0.2431
  934MOL0     C25964  10.362   3.655   6.524 -0.6439  0.4776 -0.2466
  934MOL0     C25965  10.511   3.621   6.544 -0.4253 -0.3436 -0.1510
  934MOL0     C25966  10.606   3.746   6.538  0.5186 -0.7125  0.2748
  934MOL0     C25967  10.752   3.725   6.579 -0.0811  0.1633  0.3830
  934MOL0     C25968  10.768   3.716   6.730  0.3844 -0.0844  0.2313
  934MOL0     C25969  10.912   3.708   6.774  0.0456 -0.6390 -0.5224
  934MOL0     C25970  10.973   3.848   6.773  0.5453  0.1830  0.0245
  934MOL0     C25971  11.120   3.844   6.816  0.8362 -0.1058 -0.1011
  934MOL0     N25972  11.195   3.973   6.785  0.6839 -0.3414 -1.0219
  934MOL0     C25973  11.317   3.995   6.835  0.6474  0.4819  0.1991
  934MOL0     C25974  11.340   4.125   6.790  0.0574  1.1545  0.4244
  934MOL0     C25975  11.464   4.197   6.816 -0.3237  0.1972 -0.0273
  934MOL0     C25976  11.457   4.252   6.962 -0.0535  0.1650 -1.1435
  934MOL0     C25977  11.597   4.269   7.026  0.0713  0.3768 -0.8493
  934MOL0     C25978  11.705   4.326   6.948 -0.2267 -0.8003 -0.4950
  934MOL0     O25979  11.787   4.221   6.898  0.5408  0.0296 -0.9858
  934MOL0     C25980  11.926   4.235   6.907 -0.3673 -0.0887 -0.5437
  934MOL0     C25981  11.994   4.326   6.825  0.5847  0.5397  0.6295
  934MOL0     C25982  12.133   4.346   6.827 -0.1093  0.4450 -0.6700
  934MOL0     C25983  12.205   4.279   6.927 -0.0742  0.4617  0.0118
  934MOL0     C25984  12.348   4.301   6.945 -0.2475  0.2437  0.6029
  934MOL0     O25985  12.416   4.391   6.864 -0.1298 -0.3311 -0.0270
  934MOL0     C25986  12.546   4.408   6.901 -0.0315 -0.4171 -0.3894
  934MOL0     C25987  12.572   4.499   6.998  0.5616 -0.4143  0.1220
  934MOL0     C25988  12.700   4.515   7.053 -0.3883 -0.2186 -0.1220
  934MOL0     C25989  12.812   4.454   7.001 -0.4851  0.6871  0.1073
  934MOL0     O25990  12.928   4.476   7.069  0.0369 -0.8562 -0.3510
  934MOL0     C25991  13.031   4.385   7.031 -0.0505 -0.4401 -0.3347
  934MOL0     C25992  13.148   4.408   7.129 -0.0210 -0.5756  0.1007
  934MOL0     C25993  13.277   4.334   7.107 -0.7781 -0.3667 -0.0670
  934MOL0     C25994  13.412   4.383   7.174  0.1282  0.5313  0.2633
  934MOL0     C25995  13.521   4.272   7.171 -0.0571 -0.5522  0.2868
  934MOL0     C25996  13.651   4.320   7.244 -0.1594 -0.8923 -0.6248
  934MOL0     C25997  13.763   4.222   7.201  0.6522  0.0077  1.0436
  934MOL0     C25998  13.888   4.236   7.290  0.6489  0.2515 -0.1513
  934MOL0    Cl25999  14.009   4.118   7.227 -0.0859 -0.2394  0.0602
  934MOL0     C26000  12.787   4.351   6.901  0.9688 -0.3413 -0.1443
  934MOL0     C26001  12.658   4.341   6.850 -0.2950 -0.5100  0.3887
  934MOL0     O26002  12.399   4.244   7.049 -0.2669  0.0676 -0.0049
  934MOL0     C26003  12.144   4.185   7.015  0.6496 -0.6300 -0.4444
  934MOL0     C26004  12.000   4.160   7.002 -0.2779 -0.9153 -0.5932
  934MOL0     N26005  11.222   4.175   6.735 -0.1528  0.0576  0.0612
  934MOL0     N26006  11.139   4.086   6.731  0.1108 -0.5977  0.5835
  934MOL0     C26007  10.085   3.429   6.430 -0.3211 -0.7914  0.0673
  934MOL0     C26008   9.948   3.423   6.398 -0.0372  0.5674  0.1773
  934MOL0     C26009   9.531   3.497   6.299 -0.4299  0.2207  0.2413
  934MOL0     C26010   9.427   3.416   6.296 -0.4187 -0.1153 -0.1806
  934MOL0     C26011   9.308   3.466   6.247  0.7941 -0.0540 -0.2434
  934MOL0     C26012   9.292   3.591   6.191  0.5465 -0.0254  1.0795
  934MOL0     O26013   9.172   3.634   6.139 -0.1516  1.0151 -0.5268
  934MOL0     C26014   9.060   3.627   6.230  0.6023  0.7357 -0.0655
  934MOL0     C26015   8.953   3.524   6.199  0.5067  0.1075 -0.5918
  934MOL0     C26016   8.910   3.537   6.056  0.6008 -0.1218 -0.0379
  934MOL0     C26017   8.783   3.465   6.036  0.0350 -0.1085  0.8576
  934MOL0     C26018   8.790   3.323   6.077 -0.5672 -0.4565 -0.7287
  934MOL0     C26019   8.803   3.205   6.120  0.6824 -0.0229  0.3751
  934MOL0     C26020   9.407   3.674   6.186  0.0608  0.9101  0.6254
  934MOL0     C26021   9.527   3.623   6.236  0.1603 -0.2428 -0.3101
  934MOL0     C26022   9.648   3.706   6.196 -0.2316 -0.4950 -0.3762
  934MOL0     H26023   9.860   3.723   6.533  1.8453  0.5145  3.5917
  934MOL0     H26024  10.102   3.739   6.582  1.5691  0.6383 -0.2497
  934MOL0     H26025  10.347   3.706   6.428 -0.1834  0.5195 -0.2981
  934MOL0     H26026  10.331   3.712   6.612 -1.1066  0.6848 -0.5368
  934MOL0     H26027  10.552   3.548   6.473 -0.1345  0.3726 -0.7458
  934MOL0     H26028  10.505   3.578   6.644  1.3998 -2.6734 -0.9633
  934MOL0     H26029  10.577   3.828   6.604  2.5223 -0.1866  0.5884
  934MOL0     H26030  10.607   3.782   6.434 -1.9816  0.4255  0.5836
  934MOL0     H26031  10.800   3.639   6.532 -0.1132  0.0612  0.5362
  934MOL0     H26032  10.807   3.808   6.534  2.1869 -1.2431  0.4546
  934MOL0     H26033  10.719   3.790   6.794  3.2172  1.0433  1.2751
  934MOL0     H26034  10.725   3.621   6.761 -1.4055  0.6708  0.2009
  934MOL0     H26035  10.916   3.672   6.877  1.2263 -1.5082 -0.8601
  934MOL0     H26036  10.971   3.646   6.706  1.1490 -1.6683  1.3033
  934MOL0     H26037  10.917   3.909   6.845  1.6139  1.8302 -0.4705
  934MOL0     H26038  10.975   3.880   6.669 -3.1630 -0.1556 -0.2724
  934MOL0     H26039  11.125   3.844   6.925 -0.5523  0.8064 -0.0096
  934MOL0     H26040  11.172   3.756   6.779  4.5310  0.7804  2.3529
  934MOL0     H26041  11.381   3.925   6.887 -2.2010 -1.6843  0.9793
  934MOL0     H26042  11.547   4.126   6.801  0.2855  0.5941  1.3196
  934MOL0     H26043  11.485   4.282   6.750  0.3623  0.7925  0.9215
  934MOL0     H26044  11.408   4.350   6.964 -2.4956 -0.9637  2.2010
  934MOL0     H26045  11.404   4.185   7.030  1.3566  0.7747  0.6711
  934MOL0     H26046  11.629   4.170   7.059  1.1926  0.5015 -1.5137
  934MOL0     H26047  11.579   4.325   7.118  0.2183 -0.5000 -0.2683
  934MOL0     H26048  11.759   4.400   7.008 -1.3806 -0.3086 -0.0299
  934MOL0     H26049  11.668   4.384   6.863 -1.2379  0.3601  0.6955
  934MOL0     H26050  11.940   4.388   6.754 -1.6711  0.7641  2.4280
  934MOL0     H26051  12.175   4.428   6.770 -3.5673  2.5598 -0.4646
  934MOL0     H26052  12.492   4.566   7.029 -1.8536 -1.3342 -3.4616
  934MOL0     H26053  12.712   4.595   7.126 -0.7183 -0.8293  0.6233
  934MOL0     H26054  13.007   4.279   7.032  1.6190 -0.8711  1.3123
  934MOL0     H26055  13.064   4.406   6.929  0.5542 -0.4401 -0.1460
  934MOL0     H26056  13.170   4.515   7.130 -2.8428  0.0724  0.5031
  934MOL0     H26057  13.121   4.396   7.234  2.2360  1.3586  0.9778
  934MOL0     H26058  13.258   4.236   7.153  0.2826 -1.2939 -1.5443
  934MOL0     H26059  13.287   4.312   7.001 -0.9331  0.4651 -0.2587
  934MOL0     H26060  13.397   4.427   7.273  1.6509 -2.4216  1.9559
  934MOL0     H26061  13.450   4.467   7.115  0.8607  1.3310  1.8024
  934MOL0     H26062  13.542   4.251   7.065  1.6262 -0.4461  0.5832
  934MOL0     H26063  13.492   4.175   7.213  0.5632 -1.0099 -0.3025
  934MOL0     H26064  13.681   4.418   7.207  3.2221 -2.3669 -2.2172
  934MOL0     H26065  13.645   4.335   7.352  2.8853  2.3823 -0.7337
  934MOL0     H26066  13.793   4.244   7.098  1.2222 -3.1988  0.4139
  934MOL0     H26067  13.732   4.117   7.196  2.1993 -0.4193 -0.7859
  934MOL0     H26068  13.927   4.337   7.282 -1.6505  1.1822 -0.4198
  934MOL0     H26069  13.860   4.205   7.391 -1.4279  1.7638 -0.1880
  934MOL0     H26070  12.871   4.294   6.861 -0.2954 -2.5328  0.1478
  934MOL0     H26071  12.648   4.271   6.768 -0.9803  1.0428 -0.9216
  934MOL0     H26072  12.196   4.132   7.094  0.9382 -1.4182 -1.1452
  934MOL0     H26073  11.952   4.081   7.059 -0.3347 -0.0205  0.6412
  934MOL0     H26074  10.145   3.349   6.388  1.6958 -0.6113  2.3791
  934MOL0     H26075   9.904   3.338   6.347  0.7151 -0.6484  1.5224
  934MOL0     H26076   9.430   3.314   6.332 -0.5129 -0.4409 -1.0661
  934MOL0     H26077   9.223   3.400   6.245  0.6618  0.1103 -0.0622
  934MOL0     H26078   9.016   3.726   6.242  0.2274  0.6644 -0.8314
  934MOL0     H26079   9.088   3.610   6.335  0.1603  1.0070  0.0996
  934MOL0     H26080   8.880   3.545   6.277  1.1866 -1.3152  0.4687
  934MOL0     H26081   8.989   3.422   6.211  0.8562  0.3252  0.2485
  934MOL0     H26082   8.981   3.481   5.995 -1.7563 -4.8298  1.0467
  934MOL0     H26083   8.886   3.636   6.017 -0.8910 -0.0034  1.0992
  934MOL0     H26084   8.700   3.512   6.089 -0.1436  2.4308 -1.4777
  934MOL0     H26085   8.750   3.459   5.931  1.5157 -4.5959  0.4035
  934MOL0     H26086   8.799   3.113   6.174  1.6095  1.4514  3.1385
  934MOL0     H26087   9.406   3.767   6.131  1.1327  0.8816  0.5355
  934MOL0     H26088   9.721   3.642   6.146 -0.0221  0.0144 -0.7350
  934MOL0     H26089   9.620   3.786   6.126  0.8877 -0.2961 -0.6225
  934MOL0     H26090   9.708   3.758   6.270 -0.1696  1.2137 -1.5550
  935MOL0     O26091   2.242   0.186   8.735  0.3227  0.1725 -0.2050
  935MOL0     C26092   2.230   0.093   8.816 -0.4915  0.0972  0.2665
  935MOL0     O26093   2.340   0.035   8.886 -0.0477 -0.5361 -0.4625
  935MOL0     C26094   2.461   0.100   8.887 -0.6485 -0.5768 -0.5501
  935MOL0     C26095   2.575   0.017   8.881  0.5334  0.5466 -0.5332
  935MOL0     C26096   2.703   0.071   8.876  0.1514  0.9536 -0.2238
  935MOL0     C26097   2.724   0.216   8.880  1.5207  1.2432  0.4100
  935MOL0     O26098   2.841   0.276   8.868  0.0197 -0.6342 -0.4715
  935MOL0     C26099   2.953   0.193   8.835 -0.5796 -0.1414 -0.5427
  935MOL0     C26100   3.063   0.297   8.796  0.4661 -0.5217 -0.2795
  935MOL0     C26101   3.195   0.235   8.771  0.6388  0.0331  0.6840
  935MOL0     C26102   3.202   0.162   8.639 -0.3675 -0.1802 -0.8322
  935MOL0     C26103   3.344   0.102   8.614  0.3635  0.4140  0.1561
  935MOL0     C26104   3.362   0.052   8.474 -0.5840 -0.5327  0.5807
  935MOL0     C26105   3.512   0.014   8.439  0.0582  0.4974 -0.0568
  935MOL0     C26106   3.595   0.132   8.424  0.3974 -0.0766  0.1758
  935MOL0     N26107   3.723   0.105   8.362  0.5356 -0.5072 -0.4441
  935MOL0     C26108   3.785  -0.013   8.365 -0.2624  0.4802  0.3579
  935MOL0     C26109   3.912   0.017   8.321  0.6720  0.2092  0.2866
  935MOL0     C26110   4.030  -0.076   8.311  0.6105  0.8399  0.4797
  935MOL0     C26111   4.157  -0.010   8.369  0.0607  0.4779  0.8240
  935MOL0     C26112   4.278  -0.102   8.334 -0.2704  0.2389  0.8247
  935MOL0     C26113   4.424  -0.043   8.359  0.6800  0.3331  0.2474
  935MOL0     O26114   4.463  -0.088   8.489 -0.2470  0.1911  0.0063
  935MOL0     C26115   4.600  -0.103   8.511  0.4500 -0.2600 -0.5834
  935MOL0     C26116   4.672  -0.212   8.448 -0.1816 -0.1900  0.0684
  935MOL0     C26117   4.813  -0.220   8.463 -0.2045  0.3881  0.2169
  935MOL0     C26118   4.884  -0.126   8.536  0.2640 -1.5409  0.4048
  935MOL0     C26119   5.024  -0.138   8.560 -0.5563  0.7528  1.3610
  935MOL0     O26120   5.055  -0.080   8.671 -0.8611  0.1926 -0.8399
  935MOL0     C26121   5.185  -0.091   8.712  0.0594 -1.3634  0.4925
  935MOL0     C26122   5.218  -0.192   8.793 -0.4442 -0.1156  0.2291
  935MOL0     C26123   5.347  -0.197   8.853  1.2630  0.1534  0.6605
  935MOL0     C26124   5.442  -0.094   8.834 -0.3673 -0.0854  0.7415
  935MOL0     O26125   5.567  -0.081   8.895 -0.5223 -0.1240 -0.3195
  935MOL0     C26126   5.628  -0.200   8.937 -0.4825 -0.0032 -0.6755
  935MOL0     C26127   5.745  -0.149   9.033 -0.1606 -0.3321  0.4187
  935MOL0     C26128   5.862  -0.095   8.945  0.4157  0.5178 -0.1711
  935MOL0     C26129   5.999  -0.103   9.027 -0.1691 -0.1215  0.8541
  935MOL0     C26130   6.114  -0.051   8.938  0.0567  0.4273  0.2537
  935MOL0     C26131   6.129  -0.140   8.813  0.2976 -0.4361  0.0602
  935MOL0     C26132   6.259  -0.129   8.730 -0.5233 -0.1218  0.0719
  935MOL0     C26133   6.259  -0.209   8.598 -0.4633 -0.1495 -0.0295
  935MOL0    Cl26134   6.106  -0.203   8.518  0.0199  0.0059  0.3041
  935MOL0     C26135   5.405   0.009   8.737  0.2696  0.4627  0.6509
  935MOL0     C26136   5.276   0.005   8.678 -0.5118  0.2167 -1.3616
  935MOL0     O26137   5.101  -0.208   8.489 -0.3649  0.1500  0.4713
  935MOL0     C26138   4.813  -0.024   8.604  0.9697  0.4789 -1.3612
  935MOL0     C26139   4.672  -0.015   8.592 -1.1737  0.0583 -0.1390
  935MOL0     N26140   3.925   0.146   8.285 -0.4446 -0.0215  0.4030
  935MOL0     N26141   3.803   0.200   8.312 -0.1037  0.4992 -0.3435
  935MOL0     C26142   2.607   0.294   8.889  0.4109  0.3976  1.7960
  935MOL0     C26143   2.477   0.237   8.893 -1.2034 -0.4774  0.3139
  935MOL0     C26144   2.096   0.038   8.833  0.6563 -0.2711  0.8859
  935MOL0     C26145   2.088  -0.100   8.844  0.3319  0.9080  0.2067
  935MOL0     C26146   1.971  -0.174   8.826  0.1655  0.5583 -0.2546
  935MOL0     C26147   1.854  -0.117   8.783 -0.6569  0.2624  0.7710
  935MOL0     O26148   1.727  -0.174   8.764  0.0124  0.2013 -0.3507
  935MOL0     C26149   1.706  -0.298   8.835  0.3490  0.6156  0.3596
  935MOL0     C26150   1.561  -0.353   8.811 -0.3681 -0.1741  0.2558
  935MOL0     C26151   1.458  -0.260   8.860  0.7250 -0.9791  0.8806
  935MOL0     C26152   1.339  -0.318   8.922  0.6358  0.1580 -0.6421
  935MOL0     C26153   1.248  -0.374   8.820  0.0115  0.7103  0.2718
  935MOL0     C26154   1.181  -0.426   8.734  0.7208  0.4200 -0.1661
  935MOL0     C26155   1.856   0.025   8.780 -0.0304  0.1541  0.4352
  935MOL0     C26156   1.974   0.104   8.805  0.0201  0.9860 -0.4706
  935MOL0     C26157   1.959   0.251   8.788 -0.0984 -0.4793 -0.0221
  935MOL0     H26158   2.553  -0.089   8.878 -1.4494  0.9249 -0.7680
  935MOL0     H26159   2.789   0.004   8.878  1.6300  2.7119 -1.3525
  935MOL0     H26160   2.977   0.116   8.908  0.9020 -0.5138 -1.3825
  935MOL0     H26161   2.927   0.133   8.747  1.7556  0.8046 -1.9906
  935MOL0     H26162   3.081   0.354   8.887  0.1888  0.1937 -0.6636
  935MOL0     H26163   3.021   0.354   8.713 -0.5301 -1.6765 -0.6008
  935MOL0     H26164   3.231   0.165   8.847  0.5281 -2.3858 -1.3770
  935MOL0     H26165   3.264   0.320   8.775  0.3892  0.2382  0.6396
  935MOL0     H26166   3.138   0.074   8.628  0.3366 -0.7167 -0.6977
  935MOL0     H26167   3.174   0.236   8.563 -2.7459  2.8677  2.6621
  935MOL0     H26168   3.412   0.186   8.629  2.8288 -1.3328 -0.7087
  935MOL0     H26169   3.372   0.025   8.686  3.5582  1.3174  0.0084
  935MOL0     H26170   3.302  -0.038   8.455 -0.0814 -0.5156 -1.3318
  935MOL0     H26171   3.326   0.120   8.395  2.0994 -0.5617 -0.7791
  935MOL0     H26172   3.532  -0.043   8.348 -0.6572  1.6155 -0.9469
  935MOL0     H26173   3.544  -0.040   8.529 -1.1258  1.3339  0.9032
  935MOL0     H26174   3.542   0.210   8.369 -2.7219 -0.6930  2.0290
  935MOL0     H26175   3.607   0.172   8.525 -1.8204  3.8588 -0.8946
  935MOL0     H26176   3.761  -0.105   8.416 -2.2864  2.4481  3.2430
  935MOL0     H26177   4.000  -0.168   8.362  0.0776 -0.3404 -1.7750
  935MOL0     H26178   4.046  -0.104   8.206 -0.7427  1.9068 -0.0443
  935MOL0     H26179   4.177   0.093   8.338 -0.7898  1.5496  3.5596
  935MOL0     H26180   4.149  -0.012   8.478  0.5616 -2.2536  0.8962
  935MOL0     H26181   4.268  -0.115   8.226 -1.1059 -1.0899  1.0365
  935MOL0     H26182   4.265  -0.199   8.383 -2.8561  1.0191  1.8190
  935MOL0     H26183   4.434   0.065   8.371 -0.4303  0.2701  2.1621
  935MOL0     H26184   4.484  -0.071   8.272  0.6061  2.7426 -0.6663
  935MOL0     H26185   4.625  -0.290   8.388 -0.1465  1.2233 -1.9042
  935MOL0     H26186   4.848  -0.310   8.415  4.0072  0.5281  2.5488
  935MOL0     H26187   5.147  -0.267   8.824 -0.4852  0.2489  1.0555
  935MOL0     H26188   5.374  -0.286   8.909  0.9180 -1.2478 -1.2550
  935MOL0     H26189   5.556  -0.263   8.990  1.4365 -0.9188  1.0288
  935MOL0     H26190   5.667  -0.264   8.858  2.0836 -3.1003  2.7143
  935MOL0     H26191   5.711  -0.073   9.104  1.2025  1.8591 -1.1360
  935MOL0     H26192   5.787  -0.235   9.086  0.3368 -1.3630 -1.5443
  935MOL0     H26193   5.870  -0.162   8.859  1.5323 -1.4833  1.3963
  935MOL0     H26194   5.847   0.008   8.913  0.4505  1.0231  1.3496
  935MOL0     H26195   6.022  -0.206   9.057  2.4210  0.5902  1.5280
  935MOL0     H26196   5.991  -0.044   9.118  1.1777  1.4196  0.0242
  935MOL0     H26197   6.205  -0.067   8.997  0.6995 -2.2302 -1.3021
  935MOL0     H26198   6.106   0.053   8.905 -0.3067 -0.1033 -1.4297
  935MOL0     H26199   6.125  -0.246   8.839  1.9774 -0.3245  0.8890
  935MOL0     H26200   6.044  -0.119   8.748 -0.7475 -0.6084  1.3152
  935MOL0     H26201   6.349  -0.164   8.780 -0.8945  1.6525  2.1760
  935MOL0     H26202   6.264  -0.021   8.714 -4.8311 -0.0921 -2.7991
  935MOL0     H26203   6.337  -0.165   8.534 -1.9331  1.8608 -0.5197
  935MOL0     H26204   6.269  -0.317   8.614  0.4006  0.2602  2.8264
  935MOL0     H26205   5.469   0.091   8.704 -0.4410  0.8879  0.3122
  935MOL0     H26206   5.254   0.076   8.598  0.2692  3.0981  0.8308
  935MOL0     H26207   4.862   0.048   8.669  0.7034 -1.5199  1.2548
  935MOL0     H26208   4.618   0.060   8.648  0.1356 -0.3297  1.7598
  935MOL0     H26209   2.620   0.401   8.878  0.3348  0.1707 -1.6322
  935MOL0     H26210   2.392   0.305   8.890 -1.9051 -1.2977  1.0193
  935MOL0     H26211   2.181  -0.146   8.875  0.1053 -0.2728 -0.7706
  935MOL0     H26212   1.959  -0.282   8.833 -1.1774  0.7360  0.5721
  935MOL0     H26213   1.713  -0.275   8.942 -0.9031  0.0362  0.5850
  935MOL0     H26214   1.778  -0.377   8.813  1.1519  0.7201  2.3871
  935MOL0     H26215   1.556  -0.448   8.865  0.5587  1.5320  3.5932
  935MOL0     H26216   1.555  -0.369   8.703 -0.3500  2.6446 -0.2545
  935MOL0     H26217   1.418  -0.186   8.791 -1.6929 -1.1094  2.0454
  935MOL0     H26218   1.501  -0.202   8.942 -0.8494  1.1904  0.2608
  935MOL0     H26219   1.375  -0.396   8.989  2.1124  1.2364 -0.1270
  935MOL0     H26220   1.280  -0.244   8.978 -0.3113 -1.3932  0.4830
  935MOL0     H26221   1.126  -0.472   8.654  0.2852  0.3473  0.1704
  935MOL0     H26222   1.767   0.082   8.753  0.5511 -0.0255 -2.0552
  935MOL0     H26223   1.854   0.278   8.770  0.1662 -1.0846 -2.9670
  935MOL0     H26224   1.994   0.303   8.878  0.3826 -1.4426  0.3652
  935MOL0     H26225   2.017   0.278   8.700 -1.5456  0.9804 -0.5788
  936MOL0     O26226   4.095   0.377   6.979  0.0413 -0.0329  0.5560
  936MOL0     C26227   4.019   0.328   6.892  0.3504 -0.1268  0.2287
  936MOL0     O26228   4.054   0.300   6.772  0.0964  0.5653 -0.1408
  936MOL0     C26229   4.183   0.274   6.756 -0.3257 -0.9100 -0.2630
  936MOL0     C26230   4.232   0.162   6.793  0.4033  0.5090  0.1183
  936MOL0     C26231   4.358   0.131   6.755  0.2337 -1.2414 -0.2918
  936MOL0     C26232   4.440   0.214   6.684  0.4522 -0.2006  0.7210
  936MOL0     O26233   4.564   0.178   6.654 -0.0951  0.0276 -0.1125
  936MOL0     C26234   4.670   0.273   6.656  0.1475  0.3789 -0.4895
  936MOL0     C26235   4.798   0.188   6.646  0.1912  0.2335 -0.5655
  936MOL0     C26236   4.923   0.269   6.697  0.5198  0.0734  0.0009
  936MOL0     C26237   5.047   0.177   6.679  0.4965 -0.3152  0.2351
  936MOL0     C26238   5.172   0.226   6.751  0.4083 -0.4486 -0.6293
  936MOL0     C26239   5.294   0.152   6.708 -1.1535  0.1935 -0.1541
  936MOL0     C26240   5.412   0.257   6.724  0.2089  0.3731 -0.4690
  936MOL0     C26241   5.543   0.182   6.713 -0.4061  0.7504 -0.1340
  936MOL0     N26242   5.654   0.270   6.760 -0.1081 -0.1852 -0.4150
  936MOL0     C26243   5.680   0.300   6.892 -0.0871  0.1954 -0.6857
  936MOL0     C26244   5.775   0.393   6.882 -1.0585  0.5315 -0.2806
  936MOL0     C26245   5.839   0.473   6.987  0.4040 -0.2002 -0.5108
  936MOL0     C26246   5.771   0.610   7.014 -0.6487  1.0768  0.9592
  936MOL0     C26247   5.776   0.651   7.160  0.6399  0.3164  0.3714
  936MOL0     C26248   5.922   0.677   7.202 -0.7678 -0.6312 -0.2472
  936MOL0     O26249   5.950   0.705   7.343  0.4161 -0.1082 -0.0195
  936MOL0     C26250   6.075   0.671   7.379  0.7779  0.2181  0.5683
  936MOL0     C26251   6.188   0.709   7.303  0.3285  0.7448 -0.6353
  936MOL0     C26252   6.313   0.683   7.354 -0.4849  0.7701  0.0919
  936MOL0     C26253   6.332   0.603   7.469  0.0797  0.0732  0.1819
  936MOL0     C26254   6.472   0.564   7.512 -0.1602 -0.8406  0.2997
  936MOL0     O26255   6.500   0.550   7.645 -0.0833  0.1173  0.1448
  936MOL0     C26256   6.628   0.524   7.689  0.3649  0.5119  1.1160
  936MOL0     C26257   6.716   0.430   7.632  0.3572  0.1560 -0.7499
  936MOL0     C26258   6.843   0.419   7.684  0.5313 -0.1289  0.4127
  936MOL0     C26259   6.887   0.497   7.791  0.8150 -0.2143  0.5359
  936MOL0     O26260   7.018   0.479   7.832 -0.4857 -0.4177 -0.2010
  936MOL0     C26261   7.089   0.595   7.862 -0.6145 -0.5171 -0.3446
  936MOL0     C26262   7.244   0.558   7.852 -0.4677 -0.4653 -0.3056
  936MOL0     C26263   7.338   0.657   7.921  0.3653 -0.0428 -0.8759
  936MOL0     C26264   7.352   0.790   7.842  0.8267  0.3246 -0.0462
  936MOL0     C26265   7.459   0.885   7.893 -0.2231  0.6468  0.2771
  936MOL0     C26266   7.600   0.835   7.849 -0.8591  0.3353  0.1899
  936MOL0     C26267   7.714   0.945   7.851 -0.2673 -0.0576  0.3113
  936MOL0     C26268   7.721   1.022   7.985 -0.6007  0.4907  0.6985
  936MOL0    Cl26269   7.791   0.905   8.100  0.1848  0.3699 -0.1267
  936MOL0     C26270   6.797   0.586   7.853 -0.7916  0.3267  0.3683
  936MOL0     C26271   6.669   0.600   7.799 -0.4118 -0.0725  0.4540
  936MOL0     O26272   6.559   0.569   7.418 -0.5351  0.2461 -0.0868
  936MOL0     C26273   6.221   0.568   7.540  0.1615  0.0415 -0.1523
  936MOL0     C26274   6.092   0.598   7.499  0.5822  0.5421  0.5074
  936MOL0     N26275   5.800   0.428   6.756  0.0459 -1.5115  0.7799
  936MOL0     N26276   5.726   0.353   6.681 -0.3579 -0.0193  1.2379
  936MOL0     C26277   4.382   0.334   6.637  0.2660 -0.3158 -0.0637
  936MOL0     C26278   4.252   0.365   6.674  0.3671 -0.0536 -0.3593
  936MOL0     C26279   3.881   0.312   6.944  0.7851  0.9651  0.1650
  936MOL0     C26280   3.838   0.358   7.077  0.9238 -0.6514 -0.3745
  936MOL0     C26281   3.705   0.361   7.120 -0.3383 -0.4835 -0.0351
  936MOL0     C26282   3.606   0.322   7.042  0.1786  0.6290 -0.1785
  936MOL0     O26283   3.475   0.321   7.091  0.6565 -0.4667  0.3538
  936MOL0     C26284   3.393   0.215   7.043  0.0616  0.3677 -0.5308
  936MOL0     C26285   3.315   0.148   7.156  0.0191  0.2618 -0.1600
  936MOL0     C26286   3.197   0.232   7.212 -0.0007  0.0108  0.1502
  936MOL0     C26287   3.096   0.132   7.284  0.2638 -0.6523  0.1615
  936MOL0     C26288   2.998   0.078   7.192  0.2358 -0.7331  0.0756
  936MOL0     C26289   2.921   0.021   7.115  0.0394  0.1850  0.4435
  936MOL0     C26290   3.640   0.281   6.910  0.0512 -0.3774 -1.2948
  936MOL0     C26291   3.773   0.261   6.864 -0.2916  0.1977  0.5255
  936MOL0     C26292   3.791   0.172   6.749 -0.0594  0.1941 -0.0359
  936MOL0     H26293   4.177   0.091   6.854  1.3994  0.9729  1.6234
  936MOL0     H26294   4.399   0.035   6.784  0.3757 -1.0977 -0.0170
  936MOL0     H26295   4.668   0.338   6.568 -1.7411  0.8551 -0.1421
  936MOL0     H26296   4.679   0.330   6.749  4.1744 -0.7052 -0.0486
  936MOL0     H26297   4.813   0.161   6.540 -1.2178  1.4866 -1.1096
  936MOL0     H26298   4.783   0.093   6.698  4.3443 -1.7493 -2.4661
  936MOL0     H26299   4.915   0.318   6.794 -1.9602  0.5196 -0.3707
  936MOL0     H26300   4.929   0.352   6.625  0.4197 -0.5311 -0.7138
  936MOL0     H26301   5.030   0.075   6.713  1.8201 -0.3949  0.7318
  936MOL0     H26302   5.055   0.171   6.570  0.6461  0.5749  0.1830
  936MOL0     H26303   5.182   0.335   6.744  0.4891 -0.1951  2.4040
  936MOL0     H26304   5.159   0.224   6.859  1.6069 -2.1234 -0.4767
  936MOL0     H26305   5.318   0.067   6.773  1.4408  0.6144 -0.4839
  936MOL0     H26306   5.287   0.110   6.607  3.1341 -2.2643  0.3215
  936MOL0     H26307   5.407   0.300   6.825 -2.4324 -0.1934 -0.2844
  936MOL0     H26308   5.393   0.334   6.650 -1.9069 -1.0178 -1.4750
  936MOL0     H26309   5.548   0.090   6.773 -1.3937 -0.2665 -1.5474
  936MOL0     H26310   5.559   0.140   6.613  2.0508  0.9801  0.0951
  936MOL0     H26311   5.633   0.262   6.982  1.5466 -2.2595 -0.7965
  936MOL0     H26312   5.844   0.404   7.071  0.6396 -0.8510 -1.0474
  936MOL0     H26313   5.940   0.501   6.957  0.3967  0.7024  0.2636
  936MOL0     H26314   5.820   0.681   6.948  0.5386  1.6148  2.3785
  936MOL0     H26315   5.664   0.591   6.997 -0.4426  0.8040 -0.1033
  936MOL0     H26316   5.730   0.571   7.218 -1.1184  0.0035 -1.3442
  936MOL0     H26317   5.727   0.747   7.183  0.1027 -0.0974  0.9925
  936MOL0     H26318   5.965   0.754   7.137  2.3459 -2.0810 -0.0952
  936MOL0     H26319   5.974   0.584   7.176 -1.1034 -0.1030 -3.2123
  936MOL0     H26320   6.179   0.757   7.206  1.4244  2.5419  0.0818
  936MOL0     H26321   6.397   0.710   7.291 -0.4669 -2.6009 -1.5649
  936MOL0     H26322   6.674   0.366   7.555 -2.8163  1.0722  0.0529
  936MOL0     H26323   6.919   0.346   7.658  0.7369  0.8517 -2.0636
  936MOL0     H26324   7.054   0.685   7.811 -1.3693 -1.0834 -0.8567
  936MOL0     H26325   7.071   0.606   7.970 -0.9229 -2.0528 -0.2192
  936MOL0     H26326   7.258   0.464   7.905  1.5950 -0.2706 -0.4250
  936MOL0     H26327   7.281   0.535   7.752  0.8865 -1.5335  0.4173
  936MOL0     H26328   7.297   0.682   8.019  2.0699  1.7454 -0.5742
  936MOL0     H26329   7.437   0.615   7.941  1.0450  1.3846 -1.1348
  936MOL0     H26330   7.261   0.850   7.828 -0.3052 -0.5559  2.9404
  936MOL0     H26331   7.384   0.751   7.745  0.5064 -2.0700  0.7518
  936MOL0     H26332   7.450   0.894   8.001  1.7769 -0.6308  0.6008
  936MOL0     H26333   7.447   0.983   7.846 -0.8075 -0.5055 -2.1687
  936MOL0     H26334   7.622   0.755   7.920 -0.6104  1.0219  0.8879
  936MOL0     H26335   7.617   0.794   7.749 -0.6957 -0.1068  0.3969
  936MOL0     H26336   7.694   1.021   7.775 -1.3990 -1.5851 -0.9846
  936MOL0     H26337   7.812   0.907   7.822 -0.1991  0.6086 -0.3850
  936MOL0     H26338   7.788   1.109   7.981 -0.5715  0.4080 -1.2983
  936MOL0     H26339   7.618   1.053   8.009 -2.1791 -2.1952 -1.9035
  936MOL0     H26340   6.827   0.655   7.932 -1.3556  0.2958  0.6160
  936MOL0     H26341   6.602   0.666   7.852 -3.2656 -0.7888 -1.9940
  936MOL0     H26342   6.231   0.499   7.623  1.8837  1.1401  0.5980
  936MOL0     H26343   5.997   0.566   7.542  0.3702  0.7902  0.2314
  936MOL0     H26344   4.444   0.402   6.579  0.8167 -1.4786 -0.8764
  936MOL0     H26345   4.202   0.454   6.638 -0.6054 -0.7100 -0.6888
  936MOL0     H26346   3.912   0.390   7.150  1.5329 -1.9806 -0.3867
  936MOL0     H26347   3.670   0.391   7.218 -1.5444 -0.3784 -0.4858
  936MOL0     H26348   3.465   0.137   7.014  0.3726  0.8582 -1.0931
  936MOL0     H26349   3.325   0.250   6.965 -1.6275  1.7273  1.4668
  936MOL0     H26350   3.371   0.133   7.249  1.9584 -1.9627 -1.5846
  936MOL0     H26351   3.272   0.054   7.118 -0.0742  0.3614 -0.3002
  936MOL0     H26352   3.146   0.272   7.124 -1.8500 -0.5013  0.9406
  936MOL0     H26353   3.229   0.315   7.277 -0.2917  0.7403 -0.6181
  936MOL0     H26354   3.139   0.048   7.338  0.0915 -1.1795 -0.5101
  936MOL0     H26355   3.038   0.190   7.357  2.3007  2.3908 -0.4266
  936MOL0     H26356   2.848  -0.032   7.058 -0.8179  3.3114 -1.6017
  936MOL0     H26357   3.554   0.255   6.849 -0.7159 -0.5286 -0.1889
  936MOL0     H26358   3.787   0.237   6.661  0.7910 -0.0463 -0.2572
  936MOL0     H26359   3.883   0.117   6.732 -1.3478 -2.7746  1.8100
  936MOL0     H26360   3.717   0.092   6.738 -0.1927  0.4286 -0.8763
  937MOL0     O26361   3.893   7.618   6.158 -0.0197 -0.2946 -0.0684
  937MOL0     C26362   3.805   7.642   6.082  0.8142  0.1510 -0.5014
  937MOL0     O26363   3.816   7.632   5.950  0.2122 -0.2381  0.4280
  937MOL0     C26364   3.934   7.582   5.899 -0.4068 -0.1886 -0.3270
  937MOL0     C26365   3.942   7.457   5.841 -0.5347  0.6805 -0.4484
  937MOL0     C26366   4.058   7.420   5.767  0.0710  0.1455 -0.0293
  937MOL0     C26367   4.168   7.504   5.764  0.0531  0.3680 -0.2368
  937MOL0     O26368   4.263   7.470   5.671  0.2100 -0.1972  0.3311
  937MOL0     C26369   4.387   7.541   5.661  0.0888 -0.8513 -0.3627
  937MOL0     C26370   4.488   7.490   5.769 -0.5830  0.1559 -0.3166
  937MOL0     C26371   4.639   7.541   5.755  0.5162  0.4925  0.6165
  937MOL0     C26372   4.711   7.502   5.630 -0.3470 -0.9203 -0.4853
  937MOL0     C26373   4.863   7.543   5.631  0.2037 -0.0449 -0.3788
  937MOL0     C26374   4.942   7.448   5.733  0.3075 -0.0268  0.4316
  937MOL0     C26375   5.094   7.439   5.700 -0.1833 -0.2866 -0.5046
  937MOL0     C26376   5.164   7.568   5.667 -0.2371 -0.0241 -0.4289
  937MOL0     N26377   5.306   7.540   5.639 -0.2722  0.0668 -0.1638
  937MOL0     C26378   5.399   7.525   5.733  1.0678  0.1392 -0.5018
  937MOL0     C26379   5.514   7.497   5.668 -0.5867 -0.4204 -0.4324
  937MOL0     C26380   5.650   7.455   5.723 -0.7034 -0.2801  0.4570
  937MOL0     C26381   5.761   7.553   5.689  0.0342  0.6192  0.5852
  937MOL0     C26382   5.891   7.481   5.728 -0.9880  0.2470  0.3951
  937MOL0     C26383   6.016   7.558   5.692  0.5244 -1.2629  1.0550
  937MOL0     O26384   6.135   7.480   5.722  0.8890 -0.0732 -0.0998
  937MOL0     C26385   6.257   7.545   5.710 -0.2440 -0.1473 -0.2148
  937MOL0     C26386   6.270   7.676   5.679  0.5473 -0.5377  0.3789
  937MOL0     C26387   6.400   7.735   5.680  0.8831 -0.6628 -0.3549
  937MOL0     C26388   6.510   7.662   5.706 -0.6154  0.4937 -0.9196
  937MOL0     C26389   6.642   7.720   5.705  0.5341  0.0465  0.6199
  937MOL0     O26390   6.663   7.836   5.638 -0.6073 -0.8249  0.2432
  937MOL0     C26391   6.793   7.882   5.629  0.3587 -0.9483 -0.1277
  937MOL0     C26392   6.872   7.896   5.737 -0.0319  0.1568  0.1231
  937MOL0     C26393   7.007   7.923   5.723 -0.0403  0.1264 -1.2801
  937MOL0     C26394   7.061   7.934   5.599 -0.0722 -0.3926  0.4008
  937MOL0     O26395   7.187   7.973   5.592  0.2069 -0.0229  0.9101
  937MOL0     C26396   7.278   7.930   5.491 -0.7628 -0.2733  0.0335
  937MOL0     C26397   7.415   7.957   5.547 -0.7254 -0.4114  0.4227
  937MOL0     C26398   7.538   7.920   5.455  0.5508 -0.1525  0.9057
  937MOL0     C26399   7.672   7.941   5.526 -0.0851  0.4852  0.2632
  937MOL0     C26400   7.782   7.892   5.428 -0.3794  0.2935 -0.3606
  937MOL0     C26401   7.926   7.918   5.480  0.1351 -0.1319 -0.1755
  937MOL0     C26402   8.020   7.847   5.384  0.3775  0.9713 -0.0426
  937MOL0     C26403   8.161   7.882   5.416  0.0839 -0.5512 -0.0192
  937MOL0    Cl26404   8.264   7.756   5.333 -0.1193 -0.1556 -0.3462
  937MOL0     C26405   6.985   7.927   5.489  0.1210 -0.2526  0.3614
  937MOL0     C26406   6.844   7.902   5.504 -0.1438 -0.5300  0.2180
  937MOL0     O26407   6.726   7.653   5.758 -0.2918 -0.0428 -0.2200
  937MOL0     C26408   6.500   7.520   5.732  0.3850 -0.9963  0.0454
  937MOL0     C26409   6.371   7.476   5.746  0.5394  0.0167 -0.4479
  937MOL0     N26410   5.485   7.496   5.528  0.4526  0.9069  0.4562
  937MOL0     N26411   5.361   7.536   5.513  0.0516  0.7392 -0.1002
  937MOL0     C26412   4.169   7.626   5.840  0.3447  0.2967  0.5390
  937MOL0     C26413   4.055   7.658   5.916  0.3861 -0.2685  0.1949
  937MOL0     C26414   3.668   7.676   6.128 -0.5055  0.6931 -0.1572
  937MOL0     C26415   3.564   7.687   6.028  0.1370  0.7095  0.4545
  937MOL0     C26416   3.437   7.728   6.070  0.0901  0.2161 -0.4853
  937MOL0     C26417   3.405   7.733   6.211 -0.6482  0.2448 -0.6105
  937MOL0     O26418   3.274   7.758   6.241  0.3419 -0.7160  0.3558
  937MOL0     C26419   3.220   7.727   6.371  0.3656 -0.1565  0.0647
  937MOL0     C26420   3.160   7.590   6.380 -0.0865  0.8477  0.2037
  937MOL0     C26421   3.268   7.480   6.375  0.1514  0.1848 -0.6325
  937MOL0     C26422   3.225   7.354   6.467 -0.4396  0.3586 -1.0610
  937MOL0     C26423   3.110   7.285   6.421 -0.8966  0.2028  0.0661
  937MOL0     C26424   3.023   7.214   6.369 -0.4396 -0.6312  0.8061
  937MOL0     C26425   3.510   7.730   6.306  0.5211  0.4545  0.2337
  937MOL0     C26426   3.640   7.700   6.265 -0.1107  0.5095 -0.0279
  937MOL0     C26427   3.746   7.700   6.376  0.2779  0.5150 -0.5379
  937MOL0     H26428   3.861   7.388   5.863  0.0944  0.1819  0.3223
  937MOL0     H26429   4.065   7.325   5.715  1.2726  0.2193 -0.0297
  937MOL0     H26430   4.430   7.539   5.561  2.1053  0.4653  0.4228
  937MOL0     H26431   4.373   7.649   5.676  1.0068 -0.9994  1.9752
  937MOL0     H26432   4.500   7.381   5.770  0.4282  0.2406 -1.3070
  937MOL0     H26433   4.454   7.520   5.868  1.0160 -1.0547  0.6478
  937MOL0     H26434   4.686   7.489   5.840  0.4547 -1.5014 -0.5030
  937MOL0     H26435   4.655   7.647   5.776  0.0623  0.5068  0.9017
  937MOL0     H26436   4.695   7.395   5.613 -1.1220 -1.0953  1.1527
  937MOL0     H26437   4.674   7.549   5.539  1.8729 -2.6168 -2.3913
  937MOL0     H26438   4.908   7.527   5.533  1.8579  2.1019 -0.0474
  937MOL0     H26439   4.869   7.649   5.656 -0.4691  0.9332 -3.8271
  937MOL0     H26440   4.929   7.489   5.833  0.6043 -1.9934  1.3134
  937MOL0     H26441   4.897   7.349   5.726 -1.6911  0.8977 -0.5385
  937MOL0     H26442   5.101   7.376   5.611 -0.1117 -1.2231  0.1470
  937MOL0     H26443   5.143   7.390   5.784 -0.9833 -0.3464 -0.0579
  937MOL0     H26444   5.118   7.615   5.579 -0.3232 -0.3648 -0.5676
  937MOL0     H26445   5.155   7.638   5.751 -3.0963  0.6877 -1.2258
  937MOL0     H26446   5.370   7.534   5.837 -0.1314  1.0462 -0.9002
  937MOL0     H26447   5.651   7.451   5.832  2.4878  2.4536  0.6955
  937MOL0     H26448   5.671   7.358   5.678  0.5640  0.3603 -0.4050
  937MOL0     H26449   5.761   7.560   5.580 -0.8654 -2.8212  0.2415
  937MOL0     H26450   5.744   7.645   5.744  0.3543  0.8915  0.2331
  937MOL0     H26451   5.908   7.390   5.670  3.6289  2.5038 -2.4810
  937MOL0     H26452   5.899   7.457   5.834  1.4524  0.5050  0.3246
  937MOL0     H26453   6.014   7.649   5.753  2.6937  0.5272 -1.2951
  937MOL0     H26454   6.019   7.580   5.584  1.7671 -1.3487  1.0595
  937MOL0     H26455   6.179   7.734   5.669  2.0846  2.2739  1.5091
  937MOL0     H26456   6.406   7.837   5.644 -0.9936 -1.0792 -2.0664
  937MOL0     H26457   6.822   7.899   5.833 -1.9710 -3.5662 -0.5963
  937MOL0     H26458   7.084   7.948   5.796  1.7953 -2.8501 -2.0183
  937MOL0     H26459   7.263   7.830   5.451  3.2083 -1.4503  1.0667
  937MOL0     H26460   7.272   7.990   5.399  3.9732 -0.8713 -0.9486
  937MOL0     H26461   7.433   8.064   5.562 -0.8431  0.1010 -2.5557
  937MOL0     H26462   7.423   7.894   5.636  2.3915  0.3459  0.8034
  937MOL0     H26463   7.520   7.816   5.428 -2.6429  0.6308 -0.4373
  937MOL0     H26464   7.537   7.973   5.359  3.3764  0.3733  1.0715
  937MOL0     H26465   7.683   7.881   5.616  4.7618 -1.1071 -1.1252
  937MOL0     H26466   7.694   8.043   5.560 -0.4769  1.3846 -1.9922
  937MOL0     H26467   7.774   7.942   5.331  3.9784  0.6654 -0.7504
  937MOL0     H26468   7.765   7.785   5.416  1.1067  0.0227 -0.2519
  937MOL0     H26469   7.939   8.026   5.476 -3.0790  0.4103  1.3115
  937MOL0     H26470   7.946   7.880   5.581  0.7886 -0.0372 -0.2669
  937MOL0     H26471   7.992   7.877   5.283 -4.0671  0.7268  0.8872
  937MOL0     H26472   8.008   7.739   5.394 -0.1782  0.9006 -1.3257
  937MOL0     H26473   8.185   7.984   5.384  0.5108 -0.2984  1.0515
  937MOL0     H26474   8.166   7.884   5.525 -2.6728  2.1052  0.1672
  937MOL0     H26475   7.027   7.940   5.389  0.0619  0.3390  0.4113
  937MOL0     H26476   6.773   7.903   5.422  0.0303  0.0510  0.0694
  937MOL0     H26477   6.585   7.457   5.755  1.5392  0.9630  1.3806
  937MOL0     H26478   6.344   7.378   5.782  1.3178 -0.5707 -1.4161
  937MOL0     H26479   4.253   7.695   5.838 -1.8282  3.4014 -4.2379
  937MOL0     H26480   4.064   7.751   5.972  0.1024 -0.6217  0.8350
  937MOL0     H26481   3.576   7.679   5.921 -2.3076 -0.9619  0.2205
  937MOL0     H26482   3.357   7.751   6.001  1.0162  2.0633 -1.0112
  937MOL0     H26483   3.143   7.804   6.369  0.2940 -0.2437 -1.9680
  937MOL0     H26484   3.289   7.768   6.446 -1.3553  2.7723  0.1932
  937MOL0     H26485   3.085   7.578   6.301 -0.7378  1.9607  0.6158
  937MOL0     H26486   3.104   7.586   6.475 -1.9922  1.4580 -0.8392
  937MOL0     H26487   3.359   7.524   6.418  0.3234 -1.2392  0.5631
  937MOL0     H26488   3.279   7.459   6.269 -2.9061  0.6220 -1.1262
  937MOL0     H26489   3.305   7.279   6.462 -0.2762  0.5750 -1.8091
  937MOL0     H26490   3.220   7.390   6.570  2.6041 -1.6171 -0.0931
  937MOL0     H26491   2.941   7.158   6.328  0.0717 -1.1067  0.4237
  937MOL0     H26492   3.495   7.730   6.413 -2.1591  1.1071 -0.0706
  937MOL0     H26493   3.775   7.596   6.396 -0.8020 -0.1362 -2.1169
  937MOL0     H26494   3.836   7.757   6.350 -0.4262  2.8973  1.8166
  937MOL0     H26495   3.709   7.748   6.467  2.0386 -2.8191  2.1943
  938MOL0     O26496  10.847   7.383   4.645 -0.3529 -0.3317  0.0349
  938MOL0     C26497  10.743   7.447   4.631  0.3523 -0.2142  0.7854
  938MOL0     O26498  10.731   7.573   4.590  0.7174 -0.1827  0.8377
  938MOL0     C26499  10.836   7.642   4.542  0.0143  0.3597 -0.8402
  938MOL0     C26500  10.897   7.753   4.605 -0.3688 -0.3099  0.8898
  938MOL0     C26501  10.999   7.821   4.545  0.2704 -0.2009 -0.3090
  938MOL0     C26502  11.046   7.782   4.429 -0.4947 -0.0903  0.0876
  938MOL0     O26503  11.160   7.838   4.388 -0.3916  0.1070 -0.0802
  938MOL0     C26504  11.219   7.788   4.269  0.4576  0.2452  0.1102
  938MOL0     C26505  11.351   7.863   4.252 -0.2093  0.1796  0.2526
  938MOL0     C26506  11.401   7.838   4.105 -0.1764  0.4523  0.0819
  938MOL0     C26507  11.551   7.873   4.084  0.1320 -0.0511  0.4416
  938MOL0     C26508  11.597   7.929   3.947  0.6103 -0.4688  0.1273
  938MOL0     C26509  11.576   8.075   3.927 -0.6374  0.0055 -0.6054
  938MOL0     C26510  11.687   8.166   3.979 -0.9317  0.1228 -0.1011
  938MOL0     C26511  11.827   8.137   3.932  0.3418  1.2652  0.2051
  938MOL0     N26512  11.927   8.223   3.988  0.2909 -0.8541  0.1203
  938MOL0     C26513  11.964   8.236   4.116 -0.8904 -0.5580  0.0613
  938MOL0     C26514  12.062   8.333   4.115  0.0937 -0.6045  0.0443
  938MOL0     C26515  12.139   8.373   4.241 -0.0923  0.1993  0.2673
  938MOL0     C26516  12.295   8.316   4.239  0.7604 -0.1924  0.8087
  938MOL0     C26517  12.362   8.330   4.377  0.5692 -0.3761  0.3203
  938MOL0     C26518  12.514   8.298   4.386 -0.2604  0.0317  0.5525
  938MOL0     O26519  12.598   8.378   4.299 -0.0321  1.0534  0.0235
  938MOL0     C26520  12.734   8.363   4.295  0.1640  0.0135 -0.1352
  938MOL0     C26521  12.806   8.462   4.232  0.8760  0.2164 -0.0373
  938MOL0     C26522  12.945   8.462   4.239 -0.8085  0.2834 -0.0602
  938MOL0     C26523  13.018   8.352   4.295  0.3488 -0.9190 -1.3087
  938MOL0     C26524  13.163   8.347   4.288 -0.1723 -0.3609  0.7243
  938MOL0     O26525  13.230   8.466   4.277 -1.0355  0.5978 -0.2981
  938MOL0     C26526  13.365   8.475   4.270  0.0460 -0.5089  0.1416
  938MOL0     C26527  13.442   8.434   4.382  0.3277 -0.6874 -0.5420
  938MOL0     C26528  13.582   8.449   4.389  0.1430  0.4085 -0.5813
  938MOL0     C26529  13.642   8.511   4.272  0.2028  1.0121  0.7573
  938MOL0     O26530  13.778   8.530   4.253  0.7914  0.4546  0.4277
  938MOL0     C26531  13.874   8.503   4.362 -0.2896 -0.0949 -0.2941
  938MOL0     C26532  14.013   8.556   4.331 -0.2380 -0.7059  1.0740
  938MOL0     C26533  14.091   8.571   4.465 -0.9685 -0.2649  0.4359
  938MOL0     C26534  14.226   8.638   4.434 -0.9219 -0.7066  0.1353
  938MOL0     C26535  14.318   8.619   4.560 -0.0565 -0.0226  0.2911
  938MOL0     C26536  14.436   8.719   4.551 -0.1781 -0.6162 -0.0962
  938MOL0     C26537  14.502   8.735   4.684 -0.1679  0.1899 -0.1064
  938MOL0     C26538  14.592   8.863   4.691  0.4605  0.5140  0.4097
  938MOL0    Cl26539  14.741   8.840   4.587 -0.1404  0.1486  0.2715
  938MOL0     C26540  13.560   8.564   4.170 -1.1250  0.7439 -0.6426
  938MOL0     C26541  13.425   8.537   4.161 -1.0332 -0.1306  0.9846
  938MOL0     O26542  13.213   8.239   4.277 -0.0177 -0.2171 -0.3561
  938MOL0     C26543  12.935   8.244   4.341 -0.7998  0.0136  0.5387
  938MOL0     C26544  12.800   8.256   4.345 -0.6831  0.5736  0.0629
  938MOL0     N26545  12.086   8.379   3.990 -0.1391 -0.5142  0.7119
  938MOL0     N26546  12.011   8.305   3.915  0.9147  0.5768 -0.9548
  938MOL0     C26547  10.990   7.672   4.362  0.0223 -0.0834  0.4909
  938MOL0     C26548  10.886   7.597   4.418 -0.1386  0.6692  0.3369
  938MOL0     C26549  10.602   7.382   4.660 -0.2709  0.7325  0.1533
  938MOL0     C26550  10.486   7.457   4.627  0.2636 -0.4619 -0.4921
  938MOL0     C26551  10.365   7.405   4.627  0.7854  0.4613 -0.1179
  938MOL0     C26552  10.344   7.267   4.657 -0.1642  0.2513 -0.3060
  938MOL0     O26553  10.224   7.199   4.651  0.1956  0.5613  0.2781
  938MOL0     C26554  10.109   7.267   4.689  0.7778 -0.1076 -0.7393
  938MOL0     C26555  10.053   7.213   4.827  0.3426  0.4497  0.8221
  938MOL0     C26556  10.152   7.241   4.939 -0.9677  0.5448 -0.0475
  938MOL0     C26557  10.117   7.166   5.071 -0.2520 -0.3830  0.9340
  938MOL0     C26558  10.005   7.213   5.139  0.1271  0.7136 -0.0558
  938MOL0     C26559   9.890   7.232   5.184 -0.6634 -0.0629  0.6345
  938MOL0     C26560  10.451   7.192   4.705  0.1954 -0.3524  0.3949
  938MOL0     C26561  10.576   7.250   4.712 -0.1847 -0.2040 -0.8086
  938MOL0     C26562  10.695   7.173   4.766 -0.2661  0.2320  0.1204
  938MOL0     H26563  10.871   7.789   4.704  0.1051  2.2558  0.1433
  938MOL0     H26564  11.050   7.909   4.584  0.2658 -1.1225  1.8809
  938MOL0     H26565  11.238   7.680   4.269  1.6338  0.3455 -2.9812
  938MOL0     H26566  11.145   7.801   4.190 -0.1194 -1.5651  0.3156
  938MOL0     H26567  11.422   7.830   4.329  0.9112  2.4431  0.2560
  938MOL0     H26568  11.315   7.966   4.260  1.3017  0.7046  0.7634
  938MOL0     H26569  11.341   7.894   4.032 -1.2845 -0.2465  0.4330
  938MOL0     H26570  11.395   7.729   4.100  1.5379  0.2312  1.8543
  938MOL0     H26571  11.575   7.953   4.154  4.9022  1.0129 -1.9633
  938MOL0     H26572  11.610   7.783   4.105  1.4765  0.2324 -1.7231
  938MOL0     H26573  11.700   7.899   3.924  0.4196 -0.9599 -0.0967
  938MOL0     H26574  11.542   7.873   3.871  2.7077 -0.9117 -1.1426
  938MOL0     H26575  11.561   8.104   3.822 -1.4946  1.8460 -0.0025
  938MOL0     H26576  11.484   8.100   3.980  0.4620  1.0018  0.8915
  938MOL0     H26577  11.675   8.162   4.087  0.5905  2.7186  0.2666
  938MOL0     H26578  11.661   8.262   3.933 -0.4899  0.8024  1.0275
  938MOL0     H26579  11.855   8.033   3.950  1.2824  1.4984  0.1553
  938MOL0     H26580  11.824   8.142   3.822 -0.6824 -1.7352  0.0121
  938MOL0     H26581  11.934   8.180   4.204  1.6241  0.2933  1.5607
  938MOL0     H26582  12.151   8.482   4.245 -0.7934  0.2728  3.8855
  938MOL0     H26583  12.093   8.336   4.333  0.4959  3.0924  1.8472
  938MOL0     H26584  12.299   8.211   4.207  1.5637 -0.1616  0.8026
  938MOL0     H26585  12.346   8.372   4.160 -1.7863 -0.5289 -1.2353
  938MOL0     H26586  12.316   8.253   4.440 -1.5782 -0.5636 -1.3500
  938MOL0     H26587  12.340   8.430   4.415  0.6315  0.6887 -2.2547
  938MOL0     H26588  12.518   8.195   4.350 -1.2507  0.4977 -1.0066
  938MOL0     H26589  12.549   8.311   4.489  0.5411  1.8500  0.0779
  938MOL0     H26590  12.760   8.549   4.185  1.4355 -0.4843 -1.9917
  938MOL0     H26591  12.990   8.541   4.180 -1.4988  0.0975 -0.8658
  938MOL0     H26592  13.391   8.387   4.466  1.5631  2.4699  2.1892
  938MOL0     H26593  13.642   8.412   4.471 -2.0338  0.7953  1.2883
  938MOL0     H26594  13.836   8.561   4.447  1.3064  0.3402  0.1442
  938MOL0     H26595  13.878   8.399   4.396  1.7973  0.9058  2.9850
  938MOL0     H26596  14.061   8.493   4.256  1.5397 -0.5043  1.9993
  938MOL0     H26597  14.001   8.654   4.284  0.6696 -1.1916 -0.2366
  938MOL0     H26598  14.040   8.641   4.531  2.9530  4.9056 -1.3497
  938MOL0     H26599  14.102   8.474   4.516  1.1731  0.6052  1.7629
  938MOL0     H26600  14.209   8.746   4.433 -3.8202 -0.9172  3.4983
  938MOL0     H26601  14.278   8.607   4.343  0.1091  1.9560 -0.2670
  938MOL0     H26602  14.362   8.519   4.555 -1.1916 -0.5125 -0.4154
  938MOL0     H26603  14.256   8.635   4.648  0.3421 -1.4887  0.8666
  938MOL0     H26604  14.513   8.679   4.483  0.5172  0.7339 -0.1341
  938MOL0     H26605  14.411   8.819   4.514  1.7461 -0.2882 -0.6297
  938MOL0     H26606  14.553   8.646   4.722 -3.0675 -1.3039  0.6294
  938MOL0     H26607  14.418   8.767   4.747 -0.2637  1.1309 -0.6892
  938MOL0     H26608  14.541   8.952   4.653 -1.4315 -0.2365  1.0701
  938MOL0     H26609  14.606   8.889   4.796 -3.6469  1.7212  0.8412
  938MOL0     H26610  13.615   8.615   4.091  0.0114  1.5394  0.6299
  938MOL0     H26611  13.367   8.559   4.072  1.4450 -0.2817 -0.7664
  938MOL0     H26612  12.977   8.157   4.391 -1.3039  0.5177  1.8767
  938MOL0     H26613  12.734   8.178   4.382 -0.8330  0.5278 -0.2949
  938MOL0     H26614  11.019   7.640   4.263 -1.1242 -1.5633  0.5828
  938MOL0     H26615  10.846   7.507   4.373  1.2502 -0.6342  1.5826
  938MOL0     H26616  10.488   7.564   4.607 -1.7734  0.5072  3.4492
  938MOL0     H26617  10.278   7.469   4.611  0.0274 -1.0033 -2.2826
  938MOL0     H26618  10.030   7.273   4.613 -0.5575 -0.1172  0.6052
  938MOL0     H26619  10.115   7.374   4.710 -0.2441 -0.4214  1.3965
  938MOL0     H26620  10.041   7.105   4.813 -1.6779  0.8406 -0.8665
  938MOL0     H26621   9.953   7.250   4.850 -0.0193 -0.1410  0.2356
  938MOL0     H26622  10.153   7.350   4.949  0.8403  0.3363  3.7078
  938MOL0     H26623  10.255   7.215   4.914 -0.3683  0.0554  2.6577
  938MOL0     H26624  10.100   7.065   5.031  2.4470 -0.1457 -1.1107
  938MOL0     H26625  10.202   7.157   5.139 -0.7005 -2.7448  1.2916
  938MOL0     H26626   9.788   7.251   5.210 -0.3531  2.5118  0.2388
  938MOL0     H26627  10.455   7.092   4.746  0.3464 -0.6128 -0.2384
  938MOL0     H26628  10.672   7.075   4.808 -2.7620  0.8204  0.2584
  938MOL0     H26629  10.767   7.150   4.687 -1.4554 -0.1655 -0.8831
  938MOL0     H26630  10.743   7.239   4.839  1.2849 -0.1523 -0.5028
  939MOL0     O26631   0.568   6.144   7.929  0.1992 -0.2267 -0.0147
  939MOL0     C26632   0.540   6.098   7.815 -0.2615 -0.9227  0.8793
  939MOL0     O26633   0.638   6.071   7.721  0.5952 -0.2046 -0.5177
  939MOL0     C26634   0.766   6.129   7.728 -0.1291  0.6762  0.4516
  939MOL0     C26635   0.846   6.099   7.837 -0.2726 -0.3394  0.2069
  939MOL0     C26636   0.974   6.161   7.856  0.1412  0.6731 -0.5761
  939MOL0     C26637   1.023   6.252   7.765  0.6850 -0.3248  0.1781
  939MOL0     O26638   1.137   6.314   7.810  0.1726  0.8642 -0.5810
  939MOL0     C26639   1.204   6.392   7.716  0.1454  0.5766  0.8332
  939MOL0     C26640   1.346   6.402   7.752 -1.0397 -0.3590 -0.3291
  939MOL0     C26641   1.436   6.509   7.675  0.3229  0.1565 -0.1443
  939MOL0     C26642   1.445   6.496   7.521  0.9597  0.0783 -0.0558
  939MOL0     C26643   1.553   6.604   7.472 -0.4235 -0.2214  0.2386
  939MOL0     C26644   1.597   6.575   7.317 -0.2790  0.4084 -0.9046
  939MOL0     C26645   1.687   6.695   7.259 -0.0576  0.9906  0.8353
  939MOL0     C26646   1.702   6.688   7.103  0.5964 -0.1050  0.0136
  939MOL0     N26647   1.771   6.576   7.057  0.4066  1.1521  0.4557
  939MOL0     C26648   1.729   6.444   7.027  0.5155  0.3986  0.0078
  939MOL0     C26649   1.844   6.382   6.973 -0.2257 -1.5294 -0.3705
  939MOL0     C26650   1.863   6.246   6.912 -0.1997  0.3607 -0.9256
  939MOL0     C26651   2.006   6.190   6.937 -0.2270 -0.3763  0.1822
  939MOL0     C26652   2.052   6.161   7.085  0.1918  0.3504  0.6580
  939MOL0     C26653   2.205   6.139   7.081  0.9479  1.1985  0.3577
  939MOL0     O26654   2.248   5.999   7.052 -0.1137 -0.5024 -0.0141
  939MOL0     C26655   2.375   5.972   7.070 -0.0878  0.2133  0.1914
  939MOL0     C26656   2.484   6.055   7.114  0.0790 -1.1083  0.5044
  939MOL0     C26657   2.611   6.008   7.116 -0.1144  0.6894 -0.4457
  939MOL0     C26658   2.642   5.871   7.099 -0.3613  0.1655  0.5404
  939MOL0     C26659   2.783   5.819   7.102  0.2232  0.6991 -0.2683
  939MOL0     O26660   2.880   5.903   7.131  0.4804 -0.0635 -0.3713
  939MOL0     C26661   3.008   5.851   7.156  0.3375 -0.3108  0.3845
  939MOL0     C26662   3.110   5.835   7.062  0.2177 -0.0430 -0.1685
  939MOL0     C26663   3.227   5.763   7.088 -0.2805 -0.2336  0.1134
  939MOL0     C26664   3.247   5.709   7.211  0.2916 -1.0244 -0.5180
  939MOL0     O26665   3.366   5.646   7.235 -0.1381  0.5600  0.0976
  939MOL0     C26666   3.384   5.564   7.346 -0.5834 -0.4619  0.2993
  939MOL0     C26667   3.516   5.497   7.324  0.4303  0.4196  0.0155
  939MOL0     C26668   3.638   5.572   7.362 -0.3243 -0.1023 -0.4541
  939MOL0     C26669   3.771   5.489   7.358 -0.2899  0.5375 -0.0668
  939MOL0     C26670   3.893   5.575   7.400  0.2417  0.5274 -0.2702
  939MOL0     C26671   4.014   5.491   7.428 -0.0619 -0.2286  0.6709
  939MOL0     C26672   4.140   5.576   7.448 -0.0391 -0.0596 -0.0440
  939MOL0     C26673   4.255   5.481   7.431  0.2696  0.6778  0.3909
  939MOL0    Cl26674   4.415   5.553   7.472  0.1078  0.0607  0.0767
  939MOL0     C26675   3.143   5.726   7.312 -0.5613  0.3967 -1.0066
  939MOL0     C26676   3.027   5.800   7.278  0.2479  0.8356  0.1981
  939MOL0     O26677   2.791   5.701   7.085 -0.0233 -0.5501  0.5847
  939MOL0     C26678   2.532   5.796   7.068  0.6516  0.2312  0.6150
  939MOL0     C26679   2.402   5.843   7.052  0.3579 -0.3934  0.4511
  939MOL0     N26680   1.956   6.475   6.980  0.3341  0.0924  0.6104
  939MOL0     N26681   1.905   6.587   7.028  0.1342  0.1950 -0.0430
  939MOL0     C26682   0.935   6.298   7.659  0.0886  0.7841  0.0851
  939MOL0     C26683   0.810   6.236   7.646 -0.2224  0.0119 -0.1584
  939MOL0     C26684   0.396   6.079   7.775  0.0108 -0.1307  0.1183
  939MOL0     C26685   0.368   6.006   7.660  0.1557 -0.0927 -0.1451
  939MOL0     C26686   0.237   5.990   7.620  0.0769  0.3094 -0.4294
  939MOL0     C26687   0.127   6.042   7.693  0.0922  0.3473 -0.6547
  939MOL0     O26688   0.003   6.013   7.641  0.2309 -0.1336 -0.9698
  939MOL0     C26689  -0.117   6.060   7.711 -0.5101  0.3409 -0.2857
  939MOL0     C26690  -0.245   6.028   7.639  0.3553  0.0677  0.3615
  939MOL0     C26691  -0.366   6.091   7.714 -1.2667  0.5647 -0.6152
  939MOL0     C26692  -0.490   6.084   7.634 -0.3603 -0.0595  0.0790
  939MOL0     C26693  -0.609   6.068   7.724 -0.2388 -0.1490 -0.0953
  939MOL0     C26694  -0.720   6.077   7.781  0.4084  0.5956 -0.1643
  939MOL0     C26695   0.161   6.117   7.809 -0.1364 -0.5189 -0.7908
  939MOL0     C26696   0.291   6.136   7.856 -0.3509 -0.2372 -0.4073
  939MOL0     C26697   0.316   6.251   7.945  0.4659  0.1234 -0.1443
  939MOL0     H26698   0.810   6.026   7.910  0.1941 -1.1324 -0.3449
  939MOL0     H26699   1.023   6.148   7.952 -3.3256 -0.1687  1.2577
  939MOL0     H26700   1.199   6.349   7.616  1.6824  0.7199  0.6819
  939MOL0     H26701   1.156   6.490   7.727 -0.6664  0.0871  2.0124
  939MOL0     H26702   1.401   6.308   7.753  0.8978  0.7269  0.7763
  939MOL0     H26703   1.351   6.435   7.856 -0.0724 -2.9122  0.4950
  939MOL0     H26704   1.537   6.515   7.718  0.6148 -1.8615 -0.4400
  939MOL0     H26705   1.400   6.606   7.710 -1.5318 -0.5851  0.1242
  939MOL0     H26706   1.490   6.399   7.500  1.4037  0.3460 -0.3697
  939MOL0     H26707   1.347   6.504   7.474  1.3102 -1.7545 -1.1885
  939MOL0     H26708   1.519   6.709   7.475 -0.5853 -0.1976 -1.4388
  939MOL0     H26709   1.636   6.598   7.543 -0.4567 -0.7005  0.2382
  939MOL0     H26710   1.656   6.483   7.314  0.6651  1.0260 -2.7078
  939MOL0     H26711   1.513   6.550   7.251 -1.3325  0.4655  0.3852
  939MOL0     H26712   1.784   6.693   7.309  0.9547  3.2467 -0.9059
  939MOL0     H26713   1.635   6.787   7.289  3.1454  2.9774  0.7620
  939MOL0     H26714   1.599   6.684   7.065  0.9558 -0.9341 -0.9173
  939MOL0     H26715   1.753   6.781   7.076 -1.2197  1.0749  0.4331
  939MOL0     H26716   1.625   6.418   7.040 -0.1481  3.4880  1.8133
  939MOL0     H26717   1.790   6.174   6.951  0.9913  0.7002  2.2435
  939MOL0     H26718   1.859   6.254   6.803  1.1818  1.2932 -0.9224
  939MOL0     H26719   2.022   6.102   6.874  0.4414 -1.0675  1.2981
  939MOL0     H26720   2.074   6.267   6.899  1.6916 -2.4899 -0.9449
  939MOL0     H26721   2.001   6.079   7.137 -2.2214  1.6516  0.4857
  939MOL0     H26722   2.042   6.248   7.151 -1.3426 -0.3721  1.4284
  939MOL0     H26723   2.242   6.160   7.182  2.3271 -0.9764  0.3615
  939MOL0     H26724   2.243   6.200   6.999 -1.8532 -0.7699 -2.6792
  939MOL0     H26725   2.476   6.161   7.136  3.3388 -1.0223  1.8820
  939MOL0     H26726   2.695   6.075   7.134 -0.9844  1.1393  2.5096
  939MOL0     H26727   3.084   5.868   6.962 -0.4166  0.3182  0.1113
  939MOL0     H26728   3.305   5.758   7.013  0.0508  3.1481  0.0834
  939MOL0     H26729   3.394   5.625   7.436  2.2250  1.3705 -1.1361
  939MOL0     H26730   3.302   5.493   7.361 -1.8804  0.7310 -0.7577
  939MOL0     H26731   3.511   5.399   7.373 -1.5116  1.2734  1.7081
  939MOL0     H26732   3.522   5.471   7.218  0.0561 -1.4009  0.3957
  939MOL0     H26733   3.645   5.666   7.308  1.9915  1.9644  3.0713
  939MOL0     H26734   3.627   5.599   7.468  1.6144  3.4290 -1.0108
  939MOL0     H26735   3.791   5.437   7.264  2.7867  4.2105 -1.7536
  939MOL0     H26736   3.764   5.415   7.438 -0.2531 -1.4294 -1.8147
  939MOL0     H26737   3.865   5.625   7.493  0.6107 -1.0931  0.7522
  939MOL0     H26738   3.892   5.647   7.318 -2.3976  1.5722  0.5786
  939MOL0     H26739   3.986   5.436   7.519  1.4985 -0.2821  1.1511
  939MOL0     H26740   4.016   5.412   7.353  1.3208 -1.0637  1.5487
  939MOL0     H26741   4.148   5.625   7.546  2.7202 -0.3284 -0.0470
  939MOL0     H26742   4.150   5.664   7.383 -0.1255 -2.9096 -4.2600
  939MOL0     H26743   4.244   5.396   7.499  1.5284  1.3008  1.4190
  939MOL0     H26744   4.263   5.445   7.328  2.7077  0.4720  0.6007
  939MOL0     H26745   3.138   5.684   7.412 -1.2766  1.4155 -0.5999
  939MOL0     H26746   2.945   5.795   7.349  1.3663 -0.1019  1.4846
  939MOL0     H26747   2.533   5.687   7.065 -0.5071  0.1439  2.2997
  939MOL0     H26748   2.327   5.774   7.016  0.2519  0.3840 -0.9051
  939MOL0     H26749   0.959   6.379   7.591 -0.2213 -0.6538 -1.8248
  939MOL0     H26750   0.739   6.265   7.570 -0.4603 -1.1879 -0.4086
  939MOL0     H26751   0.449   5.957   7.606  0.3808  1.6008 -1.4314
  939MOL0     H26752   0.208   5.924   7.539 -0.5377  0.8588 -0.6596
  939MOL0     H26753  -0.106   6.169   7.707  0.7272  0.2172 -0.4810
  939MOL0     H26754  -0.128   6.025   7.814 -2.2814 -1.0405 -0.8865
  939MOL0     H26755  -0.260   5.920   7.639  0.0100  0.0832 -1.5392
  939MOL0     H26756  -0.239   6.071   7.539  0.2918 -0.6281  0.0549
  939MOL0     H26757  -0.346   6.195   7.742  0.7732  0.4672 -1.4886
  939MOL0     H26758  -0.374   6.034   7.806  0.3964 -1.0407 -1.3951
  939MOL0     H26759  -0.517   6.171   7.573 -0.3293 -0.6886 -0.8584
  939MOL0     H26760  -0.485   6.005   7.559 -2.2769  0.4632 -0.6660
  939MOL0     H26761  -0.816   6.084   7.828  1.5056 -1.1499  2.6285
  939MOL0     H26762   0.082   6.160   7.869 -1.3870 -2.2734 -1.1180
  939MOL0     H26763   0.364   6.219   8.037 -0.5034  2.2007  1.1685
  939MOL0     H26764   0.389   6.324   7.907  1.1709  0.3025  1.4861
  939MOL0     H26765   0.222   6.300   7.974  0.0489 -0.7897  0.0840
  940MOL0     O26766   5.642   5.895   2.819 -0.5241  0.2790 -0.5661
  940MOL0     C26767   5.623   5.779   2.810  0.1047  0.5168 -0.1660
  940MOL0     O26768   5.711   5.689   2.759  0.9270  0.6552  0.1184
  940MOL0     C26769   5.828   5.733   2.706 -0.8166  0.3916  0.5241
  940MOL0     C26770   5.947   5.663   2.731 -0.3870  0.1866 -0.4211
  940MOL0     C26771   6.073   5.685   2.676  0.7604 -0.8999  0.4517
  940MOL0     C26772   6.087   5.785   2.581  0.6098  0.4253 -0.4023
  940MOL0     O26773   6.206   5.792   2.509  0.4611  0.1612  0.6473
  940MOL0     C26774   6.332   5.770   2.562  0.0957 -0.1660 -0.0720
  940MOL0     C26775   6.425   5.875   2.507  0.4663  0.5216  0.5491
  940MOL0     C26776   6.570   5.860   2.558 -0.0326  0.4526 -1.0789
  940MOL0     C26777   6.670   5.896   2.451  0.4412 -0.6165 -0.1794
  940MOL0     C26778   6.813   5.886   2.500  1.3168 -1.0849  0.7981
  940MOL0     C26779   6.903   5.932   2.387 -0.9631  0.0594  0.5838
  940MOL0     C26780   7.004   6.032   2.425 -0.1005  1.2662 -0.1724
  940MOL0     C26781   7.073   6.103   2.308 -0.8727  0.0817  0.1202
  940MOL0     N26782   7.186   6.016   2.271 -0.2217 -0.3898 -0.1421
  940MOL0     C26783   7.279   5.958   2.351 -0.3501 -0.0432 -0.4535
  940MOL0     C26784   7.347   5.871   2.275 -0.5754  0.3285 -0.6027
  940MOL0     C26785   7.466   5.771   2.308 -0.4753 -0.1989 -0.2566
  940MOL0     C26786   7.572   5.771   2.205  0.3086 -0.0263 -0.0788
  940MOL0     C26787   7.663   5.660   2.231  0.7160 -0.0650  0.8997
  940MOL0     C26788   7.792   5.666   2.152  0.0137 -0.1824  0.1364
  940MOL0     O26789   7.875   5.557   2.165 -0.0056  0.1043  0.1670
  940MOL0     C26790   7.996   5.566   2.105  0.3629  0.4808 -0.0049
  940MOL0     C26791   8.079   5.454   2.127 -0.1375 -0.2557  0.1005
  940MOL0     C26792   8.215   5.449   2.091  0.1257 -0.5994 -0.4526
  940MOL0     C26793   8.269   5.566   2.039 -0.2462  0.3227  0.1373
  940MOL0     C26794   8.413   5.564   2.016  0.4477  0.1327 -0.6528
  940MOL0     O26795   8.463   5.683   1.981 -0.5879 -0.6094 -0.3093
  940MOL0     C26796   8.594   5.722   1.955  0.1025 -0.2497 -0.0811
  940MOL0     C26797   8.692   5.628   1.919  0.8299  0.0403 -0.3366
  940MOL0     C26798   8.807   5.670   1.861 -0.9367  0.3599 -0.2344
  940MOL0     C26799   8.826   5.808   1.811 -0.2126  1.2413  0.2354
  940MOL0     O26800   8.954   5.834   1.766 -0.1724 -0.5560  0.4767
  940MOL0     C26801   9.027   5.931   1.847  0.5236  0.1036  0.8995
  940MOL0     C26802   9.042   5.882   1.991 -0.8545  0.8407  0.1017
  940MOL0     C26803   9.126   5.971   2.087  0.4159  0.4861 -0.3779
  940MOL0     C26804   9.134   5.909   2.226 -0.1358 -0.0248 -0.6532
  940MOL0     C26805   9.218   6.000   2.316  0.8641  1.0486  0.5388
  940MOL0     C26806   9.271   5.926   2.438 -0.1804  0.0827 -0.9196
  940MOL0     C26807   9.156   5.871   2.534  0.8307  0.0510  0.1539
  940MOL0     C26808   9.187   5.733   2.591  0.7485 -0.2826  0.4219
  940MOL0    Cl26809   9.043   5.663   2.680  0.4033  0.1617  0.4852
  940MOL0     C26810   8.727   5.899   1.844  0.4080  0.1662  0.1873
  940MOL0     C26811   8.616   5.856   1.919 -0.2820  0.1874 -0.7737
  940MOL0     O26812   8.478   5.466   2.037 -0.0393 -0.5677 -0.2052
  940MOL0     C26813   8.189   5.675   2.013 -0.4158 -0.3323 -1.1316
  940MOL0     C26814   8.052   5.669   2.036  0.6980  0.0912 -0.6327
  940MOL0     N26815   7.303   5.894   2.146 -0.0433  0.3405  0.7880
  940MOL0     N26816   7.209   5.978   2.140  0.2270 -0.2180  0.3017
  940MOL0     C26817   5.981   5.860   2.547 -1.1481  0.1976  0.5686
  940MOL0     C26818   5.854   5.832   2.610  0.0807 -0.1936  0.8586
  940MOL0     C26819   5.508   5.718   2.887  0.0162  0.3468 -0.5558
  940MOL0     C26820   5.381   5.778   2.888 -0.0450  0.8020  0.3111
  940MOL0     C26821   5.266   5.720   2.947 -1.2103  0.1917  0.4225
  940MOL0     C26822   5.275   5.605   3.023 -0.2475 -0.2707 -0.4458
  940MOL0     O26823   5.172   5.536   3.071  0.1266 -0.7270 -0.3527
  940MOL0     C26824   5.127   5.425   2.993 -0.2241  0.3770 -0.4617
  940MOL0     C26825   4.997   5.361   3.041  0.4402  0.2626 -0.0025
  940MOL0     C26826   4.943   5.260   2.938  0.0881  1.4898 -0.7161
  940MOL0     C26827   4.819   5.193   3.008 -0.1055  0.5724 -0.2971
  940MOL0     C26828   4.751   5.110   2.918 -0.0968 -0.7135  1.1617
  940MOL0     C26829   4.699   5.039   2.834 -0.3342  0.2014  0.6692
  940MOL0     C26830   5.410   5.551   3.035 -0.2098  0.4604 -0.2178
  940MOL0     C26831   5.520   5.599   2.970  0.6785  0.0861 -0.1102
  940MOL0     C26832   5.648   5.521   2.979 -0.2189  0.7008 -0.0078
  940MOL0     H26833   5.928   5.570   2.783 -0.1812  0.3528 -0.0453
  940MOL0     H26834   6.148   5.610   2.700  1.9526  0.3769  0.8411
  940MOL0     H26835   6.340   5.773   2.671 -0.4423  2.5502 -0.0532
  940MOL0     H26836   6.362   5.671   2.525  1.9290 -0.0549  1.0113
  940MOL0     H26837   6.388   5.976   2.528 -1.3605  0.1022 -0.4246
  940MOL0     H26838   6.438   5.865   2.398  3.1075  0.7258  0.7678
  940MOL0     H26839   6.581   5.756   2.589  0.0203  0.6155 -0.5454
  940MOL0     H26840   6.579   5.926   2.645 -2.6780  0.5222 -0.7886
  940MOL0     H26841   6.658   5.836   2.360 -0.4572  2.0399 -1.9496
  940MOL0     H26842   6.654   5.997   2.412 -1.4967  0.5880  3.3481
  940MOL0     H26843   6.837   5.954   2.582  2.0734 -0.6055  0.1847
  940MOL0     H26844   6.834   5.782   2.527  0.7402 -0.8144  2.4085
  940MOL0     H26845   6.960   5.844   2.354  2.3580  2.0465  0.6162
  940MOL0     H26846   6.841   5.976   2.308 -0.6144 -0.9475 -0.2856
  940MOL0     H26847   7.068   6.006   2.509 -1.5221 -1.6359  0.1205
  940MOL0     H26848   6.944   6.112   2.469 -2.3693  0.5460 -1.7427
  940MOL0     H26849   7.008   6.116   2.221  0.2473 -0.2886 -0.7845
  940MOL0     H26850   7.110   6.201   2.340  0.0835  0.7305 -2.6948
  940MOL0     H26851   7.292   5.973   2.458 -0.3374 -1.3625 -0.2535
  940MOL0     H26852   7.504   5.799   2.406  0.3524  0.1557 -0.6708
  940MOL0     H26853   7.431   5.667   2.318  0.0226 -0.1699  2.7324
  940MOL0     H26854   7.533   5.756   2.104 -0.1538 -1.5956  0.2922
  940MOL0     H26855   7.620   5.869   2.206 -2.3901  1.4258 -2.1768
  940MOL0     H26856   7.611   5.565   2.211 -3.2448  1.7852  1.4863
  940MOL0     H26857   7.689   5.662   2.337  0.5194 -1.1388  0.9775
  940MOL0     H26858   7.837   5.758   2.191  0.1234  0.3497 -1.1958
  940MOL0     H26859   7.774   5.691   2.047 -1.3341  1.3060  0.6812
  940MOL0     H26860   8.040   5.362   2.168 -0.8369 -0.9269 -1.9197
  940MOL0     H26861   8.272   5.361   2.121 -0.1063  0.0268  2.0287
  940MOL0     H26862   8.681   5.520   1.929  3.2816 -0.2371 -0.0429
  940MOL0     H26863   8.885   5.600   1.835 -3.1616 -3.7252  2.8856
  940MOL0     H26864   9.125   5.956   1.806 -0.4099  3.1047  0.2018
  940MOL0     H26865   8.975   6.028   1.844  0.7451  0.2424  1.3895
  940MOL0     H26866   8.940   5.872   2.029 -0.9628 -1.2692 -0.6221
  940MOL0     H26867   9.084   5.782   1.984  2.5296  1.8190  3.3820
  940MOL0     H26868   9.224   5.998   2.045  2.2416  2.3716  4.3926
  940MOL0     H26869   9.075   6.068   2.084  1.0347  0.9903  2.2019
  940MOL0     H26870   9.170   5.806   2.229 -2.1938 -0.7818 -0.1651
  940MOL0     H26871   9.033   5.915   2.269  0.1195 -0.8518  0.0838
  940MOL0     H26872   9.166   6.086   2.360  1.6441  0.5342  2.5487
  940MOL0     H26873   9.300   6.029   2.249  0.8155 -2.0672 -1.0340
  940MOL0     H26874   9.341   5.845   2.413  0.8913  0.8468 -0.4828
  940MOL0     H26875   9.330   5.997   2.497 -0.5342  1.1073 -1.7834
  940MOL0     H26876   9.060   5.868   2.481  2.0074  0.0606 -2.0611
  940MOL0     H26877   9.137   5.939   2.618 -0.7120  0.0062 -0.1279
  940MOL0     H26878   9.216   5.670   2.506  3.2994  0.4446  0.6655
  940MOL0     H26879   9.271   5.728   2.660  0.3473  1.5504  1.1021
  940MOL0     H26880   8.729   5.992   1.788  0.6713 -0.5923 -1.0902
  940MOL0     H26881   8.536   5.927   1.934 -1.1454 -0.9080 -0.0611
  940MOL0     H26882   8.245   5.758   1.971  2.3365 -1.3008  0.3812
  940MOL0     H26883   8.000   5.759   2.006  3.0539  1.0971 -2.0011
  940MOL0     H26884   5.993   5.940   2.475  3.1268 -0.3274  0.4788
  940MOL0     H26885   5.779   5.901   2.571 -0.3248 -0.2570  1.5259
  940MOL0     H26886   5.356   5.866   2.830  0.4702  1.8821  1.6787
  940MOL0     H26887   5.172   5.772   2.936 -0.7173  1.1982  0.8345
  940MOL0     H26888   5.203   5.347   2.995 -0.4147  0.2127  1.6083
  940MOL0     H26889   5.131   5.459   2.889  2.4823  0.8101 -0.2970
  940MOL0     H26890   4.926   5.443   3.054 -0.1271 -0.0765 -0.8773
  940MOL0     H26891   5.010   5.313   3.139 -1.6935  0.0221  0.1898
  940MOL0     H26892   5.012   5.183   2.904 -3.2597 -1.9421 -0.4552
  940MOL0     H26893   4.897   5.321   2.859  0.1963  0.7514 -1.3526
  940MOL0     H26894   4.850   5.132   3.092  2.3631  1.6333 -0.3511
  940MOL0     H26895   4.744   5.264   3.045 -0.7509  1.4225 -2.9707
  940MOL0     H26896   4.644   4.982   2.763  2.0733  2.6453 -3.5825
  940MOL0     H26897   5.416   5.462   3.096  0.2744  0.6026 -0.0506
  940MOL0     H26898   5.657   5.453   3.065 -0.4236  2.2638  1.3063
  940MOL0     H26899   5.665   5.458   2.892  0.2275 -1.3726  1.5057
  940MOL0     H26900   5.737   5.585   2.980 -0.4831  1.0745 -0.0818
  941MOL0     O26901  10.241   6.729  10.507  0.0280 -0.5899  0.6597
  941MOL0     C26902  10.218   6.612  10.487 -0.0710  0.7654 -0.4125
  941MOL0     O26903  10.255   6.504  10.571  0.3026 -0.1140  0.0138
  941MOL0     C26904  10.315   6.532  10.695 -0.3756  0.3926 -1.1555
  941MOL0     C26905  10.431   6.614  10.705 -0.1971  0.1230  0.3599
  941MOL0     C26906  10.488   6.642  10.821  0.0635  0.1421  0.4396
  941MOL0     C26907  10.441   6.579  10.940 -0.2771  0.8606 -0.2886
  941MOL0     O26908  10.487   6.616  11.062  0.4212  0.7844  0.1791
  941MOL0     C26909  10.552   6.744  11.068  0.3312  0.2427 -0.6595
  941MOL0     C26910  10.571   6.787  11.205  0.6144 -0.1620  0.4303
  941MOL0     C26911  10.676   6.695  11.272 -0.6907  0.2352 -0.6801
  941MOL0     C26912  10.667   6.708  11.434  0.2938 -0.2902  0.1419
  941MOL0     C26913  10.775   6.621  11.496  0.1894  0.3038  0.7788
  941MOL0     C26914  10.916   6.670  11.463  0.4120  0.1250  0.4562
  941MOL0     C26915  11.022   6.623  11.571 -0.7048 -0.2613 -1.0132
  941MOL0     C26916  11.151   6.572  11.521 -0.4477 -0.5804  0.4950
  941MOL0     N26917  11.220   6.682  11.453 -0.5428  0.1624  0.3016
  941MOL0     C26918  11.249   6.802  11.517  0.2103 -0.8333 -0.0161
  941MOL0     C26919  11.271   6.890  11.418  0.7522 -0.3146  0.6814
  941MOL0     C26920  11.279   7.038  11.430  0.9837 -0.2124  0.2217
  941MOL0     C26921  11.423   7.076  11.448  0.2932 -0.9734  0.0620
  941MOL0     C26922  11.428   7.231  11.458 -0.4159  0.4476 -0.2708
  941MOL0     C26923  11.572   7.275  11.470  0.4169 -0.0900 -0.5234
  941MOL0     O26924  11.611   7.301  11.336  0.7148  0.6106 -0.5089
  941MOL0     C26925  11.724   7.370  11.317 -0.1891  0.5533 -0.3537
  941MOL0     C26926  11.762   7.408  11.192 -0.3030 -0.7016 -0.3596
  941MOL0     C26927  11.887   7.478  11.166 -0.4171 -0.0272 -0.5710
  941MOL0     C26928  11.975   7.512  11.275  0.1756 -0.4142  0.0586
  941MOL0     C26929  12.109   7.569  11.252  0.5545 -0.3885 -0.0171
  941MOL0     O26930  12.201   7.572  11.356 -0.6286 -0.0675  1.2474
  941MOL0     C26931  12.312   7.656  11.359  1.1071  0.2072 -0.0664
  941MOL0     C26932  12.368   7.654  11.491  0.1716 -0.7190  0.5605
  941MOL0     C26933  12.481   7.738  11.518  0.3468  0.2806  0.2159
  941MOL0     C26934  12.548   7.811  11.415  0.4433 -0.1076 -0.4483
  941MOL0     O26935  12.667   7.881  11.420 -0.8429  0.3159  0.1803
  941MOL0     C26936  12.719   7.888  11.558 -0.5909  0.7171  0.0695
  941MOL0     C26937  12.849   7.957  11.562  0.4480 -0.3843  0.2367
  941MOL0     C26938  12.964   7.862  11.550 -1.5140 -0.5050  0.1363
  941MOL0     C26939  13.104   7.933  11.560  0.2878  1.0411  0.3389
  941MOL0     C26940  13.222   7.844  11.586 -0.2286  0.3228  0.4260
  941MOL0     C26941  13.244   7.762  11.458 -0.5781  0.9583 -0.2967
  941MOL0     C26942  13.355   7.652  11.469 -0.4224  0.5115 -0.6495
  941MOL0     C26943  13.303   7.507  11.491  0.1740  0.1042  0.7433
  941MOL0    Cl26944  13.157   7.458  11.399 -0.3058 -0.0172 -0.2883
  941MOL0     C26945  12.482   7.813  11.289  0.0343 -0.2869 -0.2896
  941MOL0     C26946  12.366   7.741  11.257 -0.3543  0.0469  0.4144
  941MOL0     O26947  12.127   7.620  11.139 -0.5000 -0.0141  0.0041
  941MOL0     C26948  11.939   7.461  11.400  1.1294 -0.1799 -0.3752
  941MOL0     C26949  11.811   7.410  11.423  0.8342  0.6163 -0.2266
  941MOL0     N26950  11.262   6.829  11.295  0.0461 -0.0705  0.8317
  941MOL0     N26951  11.221   6.704  11.315  0.4572  0.4386  0.4019
  941MOL0     C26952  10.329   6.495  10.934  0.1084  0.0829  0.0991
  941MOL0     C26953  10.270   6.471  10.815 -0.3490 -0.5918 -0.1231
  941MOL0     C26954  10.133   6.582  10.374 -0.6407  0.1448  0.1167
  941MOL0     C26955  10.043   6.479  10.387 -0.3075  0.1324  0.1423
  941MOL0     C26956   9.943   6.455  10.290 -0.0359  0.1505 -0.7215
  941MOL0     C26957   9.935   6.533  10.168 -0.0831 -0.8779  0.1403
  941MOL0     O26958   9.854   6.487  10.066 -0.3058 -0.3994 -0.0537
  941MOL0     C26959   9.895   6.526   9.930 -0.1348 -0.8859 -0.6173
  941MOL0     C26960   9.840   6.428   9.828  0.3499 -0.3311 -0.0425
  941MOL0     C26961   9.691   6.454   9.784  0.2137  0.3636  0.2968
  941MOL0     C26962   9.596   6.477   9.907 -0.5386  0.1168  0.0649
  941MOL0     C26963   9.455   6.485   9.864  0.1488 -0.3072  0.2533
  941MOL0     C26964   9.339   6.496   9.830 -0.3987 -0.7087  0.0549
  941MOL0     C26965  10.033   6.641  10.151  0.4978 -0.0846  0.0127
  941MOL0     C26966  10.132   6.657  10.250  0.2678 -0.7413  0.0015
  941MOL0     C26967  10.249   6.754  10.214  0.2811  0.0501  0.3857
  941MOL0     H26968  10.476   6.661  10.619 -3.0408 -0.0441 -1.3395
  941MOL0     H26969  10.574   6.708  10.821  1.4902 -1.5842 -1.4865
  941MOL0     H26970  10.654   6.737  11.030  2.0283 -0.4057  3.5418
  941MOL0     H26971  10.491   6.816  11.013  0.9852 -0.2805 -2.1264
  941MOL0     H26972  10.479   6.801  11.263 -0.1016  0.6173 -0.8342
  941MOL0     H26973  10.613   6.888  11.203  1.5659 -0.5096 -2.7419
  941MOL0     H26974  10.781   6.721  11.253  0.1340 -1.4827  1.1400
  941MOL0     H26975  10.674   6.589  11.246  2.0191 -0.3808  1.1718
  941MOL0     H26976  10.675   6.815  11.455 -2.5556  0.1904 -0.7884
  941MOL0     H26977  10.569   6.681  11.474 -0.9602  0.5476 -2.1929
  941MOL0     H26978  10.755   6.619  11.603  0.8952 -1.9102  0.9064
  941MOL0     H26979  10.764   6.519  11.458  0.4221  1.1074 -1.6424
  941MOL0     H26980  10.945   6.636  11.363 -1.8929  0.9074 -0.5493
  941MOL0     H26981  10.926   6.777  11.446  2.1061 -0.3679 -2.3552
  941MOL0     H26982  10.976   6.534  11.617  1.4541 -0.7262  0.3775
  941MOL0     H26983  11.038   6.698  11.649  2.0149 -1.6743 -0.0638
  941MOL0     H26984  11.205   6.525  11.604 -2.3278 -0.0878  2.0593
  941MOL0     H26985  11.133   6.491  11.450 -2.8202  0.4195 -0.1409
  941MOL0     H26986  11.243   6.839  11.619  2.5127  0.0073 -0.1156
  941MOL0     H26987  11.250   7.093  11.339 -2.1820 -0.9628  0.6870
  941MOL0     H26988  11.217   7.081  11.508 -1.5539  2.7337 -3.0734
  941MOL0     H26989  11.474   7.034  11.535 -0.8409 -1.0889  0.6841
  941MOL0     H26990  11.483   7.054  11.359  3.6565 -0.9912  2.1606
  941MOL0     H26991  11.357   7.272  11.531 -1.5172  0.9041 -1.5509
  941MOL0     H26992  11.389   7.272  11.364  1.1802  2.0859 -0.2775
  941MOL0     H26993  11.637   7.203  11.520  0.6177 -0.7667 -1.7158
  941MOL0     H26994  11.581   7.369  11.525 -0.2309 -0.7717  0.8011
  941MOL0     H26995  11.705   7.373  11.106 -1.4090 -2.2577  0.9627
  941MOL0     H26996  11.913   7.514  11.067 -3.2651  0.9181 -1.0538
  941MOL0     H26997  12.318   7.596  11.568 -1.3999 -2.0554 -1.3618
  941MOL0     H26998  12.527   7.749  11.616 -0.6208  3.4047  0.4195
  941MOL0     H26999  12.641   7.935  11.619  1.7030  0.5025  3.3984
  941MOL0     H27000  12.741   7.790  11.601 -1.3762  0.7275  0.5243
  941MOL0     H27001  12.857   8.035  11.486  2.1144  0.6376  1.3870
  941MOL0     H27002  12.848   8.014  11.655 -1.3928  1.2213 -0.6931
  941MOL0     H27003  12.963   7.800  11.640  0.5118  2.6968  2.6038
  941MOL0     H27004  12.958   7.814  11.452  0.1723 -1.2668  0.3649
  941MOL0     H27005  13.101   7.995  11.649  1.0333 -2.6663  3.2038
  941MOL0     H27006  13.106   7.997  11.472 -2.7088  2.0916  0.9321
  941MOL0     H27007  13.199   7.777  11.670  2.7854  0.7235  1.6993
  941MOL0     H27008  13.309   7.906  11.609 -0.0052  0.4719 -0.7730
  941MOL0     H27009  13.149   7.724  11.422 -0.0466 -2.3468  1.3701
  941MOL0     H27010  13.290   7.825  11.381  2.1631 -1.5120 -0.8597
  941MOL0     H27011  13.429   7.675  11.546  1.7828  0.9843 -2.7903
  941MOL0     H27012  13.412   7.644  11.376 -0.6535 -1.7019 -0.6669
  941MOL0     H27013  13.392   7.447  11.469  0.9009  1.8064 -1.2369
  941MOL0     H27014  13.282   7.488  11.597 -1.6841 -0.1880  0.3475
  941MOL0     H27015  12.518   7.877  11.209  0.2120  0.9448  0.7409
  941MOL0     H27016  12.324   7.750  11.157 -0.6286  1.2176  0.6148
  941MOL0     H27017  11.998   7.464  11.491  0.6460 -2.7192  0.1205
  941MOL0     H27018  11.792   7.376  11.524  0.1969 -3.3640 -1.4887
  941MOL0     H27019  10.287   6.452  11.024 -3.5466  1.4087 -0.8152
  941MOL0     H27020  10.182   6.406  10.817 -0.6044 -0.3542 -1.9681
  941MOL0     H27021  10.044   6.415  10.474 -3.2917 -0.7209 -0.3273
  941MOL0     H27022   9.877   6.371  10.309 -1.0051  1.6299  3.4910
  941MOL0     H27023  10.002   6.504   9.928  0.3653  0.4339  3.2803
  941MOL0     H27024   9.867   6.628   9.902  1.4095 -0.2334  0.1102
  941MOL0     H27025   9.847   6.326   9.868 -0.4254  0.2756  1.7522
  941MOL0     H27026   9.900   6.431   9.737 -1.0534 -2.2810 -1.1119
  941MOL0     H27027   9.661   6.369   9.722  1.2449  0.2135 -0.0138
  941MOL0     H27028   9.673   6.531   9.708 -1.5756 -1.3691 -1.1357
  941MOL0     H27029   9.599   6.397   9.981 -1.6202 -1.4122 -1.4648
  941MOL0     H27030   9.631   6.571   9.951  0.3845  0.4998 -1.4091
  941MOL0     H27031   9.238   6.507   9.796 -0.3767 -0.4503  0.0715
  941MOL0     H27032  10.051   6.690  10.055 -0.9520 -0.6488 -0.5652
  941MOL0     H27033  10.348   6.738  10.256  2.1072  0.2554 -3.3690
  941MOL0     H27034  10.265   6.751  10.106  2.8542  0.2414  0.6983
  941MOL0     H27035  10.213   6.854  10.242  4.6499  1.9789 -0.1175
  942MOL0     O27036   7.182   9.996   0.323 -0.3075  0.8007  0.0591
  942MOL0     C27037   7.186  10.116   0.306 -0.7702  0.3589  0.6396
  942MOL0     O27038   7.300  10.172   0.258  0.1735  0.4393  0.5632
  942MOL0     C27039   7.404  10.092   0.227 -0.6378  0.1061  0.0571
  942MOL0     C27040   7.527  10.102   0.291  0.2419  0.0408 -0.3718
  942MOL0     C27041   7.640  10.034   0.242 -0.3946  1.2534  0.2431
  942MOL0     C27042   7.632   9.950   0.129 -1.1031  0.7849  0.1315
  942MOL0     O27043   7.726   9.857   0.093  0.8244  0.3862  0.2275
  942MOL0     C27044   7.854   9.907   0.094  0.3805  0.5281 -0.2716
  942MOL0     C27045   7.928   9.806   0.003 -0.7180 -1.0885  0.6082
  942MOL0     C27046   8.085   9.813   0.006 -0.2481  0.5625  0.4471
  942MOL0     C27047   8.143   9.742  -0.117 -0.9438  0.3378  0.5454
  942MOL0     C27048   8.300   9.738  -0.104  0.2526 -0.0260  0.4023
  942MOL0     C27049   8.377   9.676  -0.219 -0.0584  0.3835 -0.9635
  942MOL0     C27050   8.329   9.543  -0.270 -0.1458 -0.0623 -0.9462
  942MOL0     C27051   8.335   9.434  -0.161 -0.5808  0.1616  0.9686
  942MOL0     N27052   8.477   9.419  -0.112 -0.3419  0.0768  0.5168
  942MOL0     C27053   8.582   9.384  -0.191  0.5689 -0.2899 -0.3235
  942MOL0     C27054   8.686   9.399  -0.111 -0.2950  0.2500  0.2335
  942MOL0     C27055   8.824   9.367  -0.161 -0.3200  0.2794  0.1166
  942MOL0     C27056   8.843   9.222  -0.210  1.1688  1.4928  0.8219
  942MOL0     C27057   8.839   9.118  -0.097  0.2188  0.5003  0.0034
  942MOL0     C27058   8.969   9.126  -0.025  0.3673  0.5562 -0.8471
  942MOL0     O27059   8.974   9.026   0.077  0.3272  0.1119  0.0981
  942MOL0     C27060   9.099   9.020   0.136  0.2105 -0.9405  0.6381
  942MOL0     C27061   9.189   9.123   0.140 -0.8301 -0.7613  0.5513
  942MOL0     C27062   9.312   9.108   0.212  0.7797 -0.4848 -0.5612
  942MOL0     C27063   9.353   8.977   0.258  0.6854 -0.0898 -0.5580
  942MOL0     C27064   9.478   8.953   0.320  0.0597  0.4382  0.0358
  942MOL0     O27065   9.582   9.047   0.295  0.5495 -0.0929  0.8021
  942MOL0     C27066   9.710   9.032   0.329  0.6546  0.2218 -0.9787
  942MOL0     C27067   9.810   9.070   0.233  0.1272 -0.1331 -0.7817
  942MOL0     C27068   9.943   9.073   0.262 -0.9492 -0.1450 -0.2255
  942MOL0     C27069   9.983   9.031   0.389 -0.6335 -0.0581 -0.2741
  942MOL0     O27070  10.116   9.044   0.439  0.0152  0.0571  0.2945
  942MOL0     C27071  10.220   9.001   0.348  0.2426 -0.5861  0.6656
  942MOL0     C27072  10.353   9.025   0.419 -0.5004 -0.0202 -0.4211
  942MOL0     C27073  10.390   9.168   0.415  0.3621 -0.3310 -0.1823
  942MOL0     C27074  10.517   9.196   0.496 -0.2541  0.8187  0.9917
  942MOL0     C27075  10.552   9.344   0.510 -0.1667  0.3938 -0.2469
  942MOL0     C27076  10.616   9.407   0.385 -0.2598  0.1042  0.4720
  942MOL0     C27077  10.771   9.378   0.371  0.3778  0.4698 -1.1485
  942MOL0     C27078  10.840   9.500   0.297  0.1529  0.5729 -0.6247
  942MOL0    Cl27079  11.011   9.449   0.276  0.0041 -0.1070 -0.2185
  942MOL0     C27080   9.891   8.988   0.481 -0.5881  0.3000 -0.5153
  942MOL0     C27081   9.759   8.990   0.456  0.4867 -0.3573 -0.9641
  942MOL0     O27082   9.502   8.849   0.380 -0.0587 -0.0521 -0.7877
  942MOL0     C27083   9.255   8.878   0.255 -0.0024  0.1709  0.1655
  942MOL0     C27084   9.127   8.896   0.199 -0.3155 -0.5471  0.7194
  942MOL0     N27085   8.641   9.450   0.017 -0.1996  0.7078 -0.2658
  942MOL0     N27086   8.515   9.470   0.006  0.3185  0.7011  0.3498
  942MOL0     C27087   7.508   9.937   0.064 -0.3594 -0.1768 -0.5822
  942MOL0     C27088   7.399  10.009   0.115  0.2145 -0.5699  0.1854
  942MOL0     C27089   7.078  10.193   0.351  0.4386 -0.3854 -0.3377
  942MOL0     C27090   6.966  10.123   0.403  0.8033  0.6876 -0.3682
  942MOL0     C27091   6.846  10.193   0.440 -0.1894 -0.5141 -0.8501
  942MOL0     C27092   6.841  10.329   0.443 -0.2308  0.8111 -0.1387
  942MOL0     O27093   6.733  10.388   0.500  0.3824 -0.1547 -0.2128
  942MOL0     C27094   6.713  10.526   0.466  0.0775  0.0447 -0.1680
  942MOL0     C27095   6.562  10.556   0.477 -1.0904 -0.7047  0.2264
  942MOL0     C27096   6.476  10.457   0.403  0.2189 -0.1041 -0.0174
  942MOL0     C27097   6.335  10.456   0.473  0.0134 -0.2627  0.3199
  942MOL0     C27098   6.247  10.569   0.452 -0.2901 -0.4149  0.8418
  942MOL0     C27099   6.185  10.671   0.434 -0.3318  0.1729  0.1088
  942MOL0     C27100   6.958  10.402   0.404  0.0560 -0.2293  0.3388
  942MOL0     C27101   7.077  10.336   0.354  0.2835  0.6346  0.8625
  942MOL0     C27102   7.192  10.424   0.305 -0.1820  0.5453 -0.2151
  942MOL0     H27103   7.534  10.168   0.377 -0.4305 -3.1695  2.3440
  942MOL0     H27104   7.736  10.063   0.283  0.8453 -0.3890 -1.3495
  942MOL0     H27105   7.860  10.009   0.054 -1.6410  0.9072  0.2515
  942MOL0     H27106   7.881   9.902   0.200  1.7778 -1.8395 -0.6752
  942MOL0     H27107   7.897   9.819  -0.101 -1.1077  1.9793  1.0104
  942MOL0     H27108   7.901   9.706   0.037  0.2999 -1.5812 -0.0002
  942MOL0     H27109   8.112   9.764   0.100 -1.8824  0.1353  0.7155
  942MOL0     H27110   8.111   9.918   0.022 -0.4836  0.5038  1.2846
  942MOL0     H27111   8.102   9.641  -0.111  0.6270 -0.4462 -0.8438
  942MOL0     H27112   8.104   9.792  -0.206  0.5524  1.0557  0.2435
  942MOL0     H27113   8.333   9.840  -0.080 -2.7853  0.5036  2.9775
  942MOL0     H27114   8.309   9.670  -0.019  0.9779  0.7354  0.9471
  942MOL0     H27115   8.373   9.748  -0.301 -1.5109  0.3177 -0.9809
  942MOL0     H27116   8.483   9.671  -0.194 -0.8346 -0.6258  2.8287
  942MOL0     H27117   8.394   9.500  -0.346 -2.3379 -2.7142 -1.4674
  942MOL0     H27118   8.226   9.550  -0.307  0.2499 -0.4464 -2.1594
  942MOL0     H27119   8.277   9.451  -0.070 -0.3327 -0.2465  1.2079
  942MOL0     H27120   8.309   9.339  -0.208  0.9605 -0.6493  1.6594
  942MOL0     H27121   8.579   9.355  -0.296 -0.5765 -0.2837 -0.3041
  942MOL0     H27122   8.853   9.430  -0.246 -0.5771 -1.4042 -1.2881
  942MOL0     H27123   8.900   9.371  -0.083  2.7942 -2.4849 -2.4286
  942MOL0     H27124   8.770   9.201  -0.289  2.0863 -0.1124  0.3408
  942MOL0     H27125   8.930   9.196  -0.271 -0.8917 -1.5352 -1.0970
  942MOL0     H27126   8.825   9.017  -0.135  1.4333 -1.9935  5.2344
  942MOL0     H27127   8.756   9.139  -0.028  0.7591  0.8270  0.5651
  942MOL0     H27128   8.985   9.227   0.015 -0.4298  0.6341 -0.7110
  942MOL0     H27129   9.044   9.102  -0.101 -0.4071 -1.3501 -1.0480
  942MOL0     H27130   9.184   9.222   0.096  0.7909 -0.5346  0.7945
  942MOL0     H27131   9.363   9.201   0.235 -2.2197  1.1272  0.0340
  942MOL0     H27132   9.766   9.109   0.142 -1.6103 -1.2170 -0.4554
  942MOL0     H27133  10.014   9.116   0.191  1.2703 -4.1855 -0.7356
  942MOL0     H27134  10.216   8.895   0.324  0.0319  0.0782 -2.7319
  942MOL0     H27135  10.212   9.061   0.257 -0.1242 -0.3237  0.8673
  942MOL0     H27136  10.351   8.996   0.524 -1.0254  3.1745  0.5517
  942MOL0     H27137  10.431   8.975   0.361  0.0976  2.1119 -1.5612
  942MOL0     H27138  10.403   9.210   0.314 -1.1279  0.1599 -0.1886
  942MOL0     H27139  10.304   9.220   0.458 -0.3360 -1.8824  0.3378
  942MOL0     H27140  10.599   9.142   0.447 -2.0225  0.0732 -1.2823
  942MOL0     H27141  10.516   9.149   0.594  0.6954 -2.3585 -0.3884
  942MOL0     H27142  10.608   9.363   0.602 -0.1955 -0.1384 -0.1159
  942MOL0     H27143  10.457   9.396   0.528  0.2368  0.7873  0.8131
  942MOL0     H27144  10.558   9.370   0.300 -2.5492  0.1724  1.9233
  942MOL0     H27145  10.592   9.514   0.388 -1.1391 -0.0905  3.1257
  942MOL0     H27146  10.784   9.285   0.314  3.0549  0.8543 -1.3174
  942MOL0     H27147  10.816   9.365   0.469 -2.0813 -0.3792 -0.0689
  942MOL0     H27148  10.805   9.529   0.197 -1.2481  1.7518  0.1622
  942MOL0     H27149  10.839   9.586   0.365  0.8854 -0.4730  0.7662
  942MOL0     H27150   9.928   8.957   0.578  2.0768  3.2829 -0.4331
  942MOL0     H27151   9.680   8.975   0.529  0.0572  1.9633 -0.8866
  942MOL0     H27152   9.276   8.775   0.284  0.9163 -0.1743 -1.5798
  942MOL0     H27153   9.054   8.816   0.189  0.5113 -1.4933  1.9049
  942MOL0     H27154   7.500   9.878  -0.027  0.0095 -1.9093  0.4534
  942MOL0     H27155   7.303  10.005   0.065 -0.0164  2.1325  0.2743
  942MOL0     H27156   6.953  10.015   0.394 -2.0434  0.7914  1.3336
  942MOL0     H27157   6.763  10.130   0.472 -0.1118 -0.7656 -1.1317
  942MOL0     H27158   6.748  10.540   0.364  1.2987  0.5703  0.2977
  942MOL0     H27159   6.768  10.595   0.531 -0.0537  1.2636 -1.3129
  942MOL0     H27160   6.544  10.659   0.444  0.9308 -1.0424 -2.2231
  942MOL0     H27161   6.543  10.544   0.584 -1.0785  0.4336  0.3741
  942MOL0     H27162   6.513  10.356   0.418  0.5335 -0.3541 -2.2466
  942MOL0     H27163   6.460  10.471   0.296 -0.4733 -0.1842  0.0696
  942MOL0     H27164   6.289  10.366   0.430  1.4698  0.0652 -2.1039
  942MOL0     H27165   6.349  10.436   0.579 -0.3359 -1.0482  0.2290
  942MOL0     H27166   6.133  10.764   0.429  0.0362  0.4210  0.8026
  942MOL0     H27167   6.960  10.510   0.420 -0.7633 -0.3366  1.2730
  942MOL0     H27168   7.181  10.527   0.342  0.2575  0.3523  0.4759
  942MOL0     H27169   7.288  10.395   0.349  1.2006  4.7042  0.0078
  942MOL0     H27170   7.190  10.428   0.196 -0.1567  0.7492 -0.2087
  943MOL0     O27171  10.078   1.859   4.651 -1.1790 -0.6254 -0.7906
  943MOL0     C27172  10.019   1.803   4.559  0.2651  0.5587  0.0336
  943MOL0     O27173  10.079   1.763   4.448  0.2557  0.6488  0.2672
  943MOL0     C27174  10.211   1.778   4.432 -0.0857 -0.5650 -0.1266
  943MOL0     C27175  10.270   1.896   4.388 -0.0816  0.8496  0.5528
  943MOL0     C27176  10.413   1.901   4.370  0.4278 -0.3664 -0.0869
  943MOL0     C27177  10.493   1.798   4.400  1.5184 -0.8218  0.1772
  943MOL0     O27178  10.620   1.816   4.364 -0.2701 -0.5740  0.4974
  943MOL0     C27179  10.695   1.694   4.335  0.5641  0.8729 -0.7944
  943MOL0     C27180  10.803   1.736   4.232 -0.7847 -0.1548  0.7118
  943MOL0     C27181  10.868   1.604   4.173 -0.5766  1.0004 -0.4683
  943MOL0     C27182  10.921   1.513   4.291 -0.0096  0.1891  0.5848
  943MOL0     C27183  11.017   1.408   4.231 -0.4113 -0.2611 -0.4369
  943MOL0     C27184  11.079   1.336   4.357 -0.0630 -0.6522  0.1856
  943MOL0     C27185  11.186   1.231   4.307  0.1053  1.0921  0.6548
  943MOL0     C27186  11.188   1.116   4.407  0.0710  0.5747 -0.1892
  943MOL0     N27187  11.283   1.009   4.381  0.0867  0.4240 -0.0337
  943MOL0     C27188  11.306   0.950   4.261  1.1251  0.0714  0.3908
  943MOL0     C27189  11.413   0.870   4.281  0.0301 -0.1871  0.0202
  943MOL0     C27190  11.480   0.801   4.171 -0.8125  0.7281  0.3784
  943MOL0     C27191  11.625   0.858   4.139 -0.2422 -0.5426 -0.3931
  943MOL0     C27192  11.732   0.828   4.255  0.7986  0.5720 -0.9905
  943MOL0     C27193  11.881   0.815   4.201  0.3646 -0.4492 -0.3268
  943MOL0     O27194  11.913   0.941   4.136 -0.3176  0.4416 -0.7588
  943MOL0     C27195  12.043   0.942   4.089  0.1146 -1.0165 -0.1865
  943MOL0     C27196  12.133   1.027   4.157 -0.3938 -0.3991  0.5894
  943MOL0     C27197  12.268   1.023   4.116  0.3346  0.1987 -0.5343
  943MOL0     C27198  12.311   0.938   4.019 -0.1550 -0.2290  0.6404
  943MOL0     C27199  12.453   0.942   3.985  0.5663  0.8684 -0.3423
  943MOL0     O27200  12.539   1.004   4.066  0.2587 -0.5082 -0.6427
  943MOL0     C27201  12.677   1.007   4.036 -0.0378 -0.6174 -0.2481
  943MOL0     C27202  12.750   1.116   4.075 -0.0083 -0.0677  0.7921
  943MOL0     C27203  12.891   1.117   4.075  0.5548 -0.0508  0.5931
  943MOL0     C27204  12.964   1.017   4.022 -1.0403  0.1169 -0.5139
  943MOL0     O27205  13.099   1.009   4.000  0.7362  0.1343  0.3581
  943MOL0     C27206  13.191   1.086   4.078  0.4310 -0.4809  0.0477
  943MOL0     C27207  13.339   1.037   4.088 -0.2546  0.0326 -0.0783
  943MOL0     C27208  13.343   0.886   4.130  0.1152 -0.3815  0.0483
  943MOL0     C27209  13.494   0.854   4.133  0.0874  0.9919  0.2079
  943MOL0     C27210  13.542   0.818   4.273 -0.3731  0.1538 -0.1160
  943MOL0     C27211  13.702   0.802   4.275 -0.2809  0.5204 -0.5961
  943MOL0     C27212  13.754   0.747   4.414 -0.1388  0.1675  0.0194
  943MOL0     C27213  13.907   0.727   4.406 -0.4495 -1.3432 -0.2363
  943MOL0    Cl27214  13.980   0.661   4.565  0.0073 -0.5601 -0.6342
  943MOL0     C27215  12.890   0.910   3.974 -0.4096  0.3522  0.4150
  943MOL0     C27216  12.757   0.899   3.995 -0.2896 -0.3573 -1.3840
  943MOL0     O27217  12.484   0.887   3.879  0.4692 -0.0076 -0.0582
  943MOL0     C27218  12.217   0.854   3.951  0.6811 -0.5766 -0.9063
  943MOL0     C27219  12.083   0.863   3.980  1.0168 -0.8481  0.2001
  943MOL0     N27220  11.453   0.884   4.411  0.1389  0.6138  0.2392
  943MOL0     N27221  11.381   0.977   4.466 -0.3932  0.1172 -0.1385
  943MOL0     C27222  10.433   1.679   4.439  0.0257 -0.2841  1.0470
  943MOL0     C27223  10.294   1.671   4.451  0.9448  0.4020  0.4199
  943MOL0     C27224   9.878   1.764   4.572  0.0331 -0.0607 -0.4891
  943MOL0     C27225   9.803   1.757   4.455  1.4060 -0.1962  0.3370
  943MOL0     C27226   9.667   1.723   4.456 -0.0658 -0.2612 -0.1238
  943MOL0     C27227   9.608   1.700   4.581  1.0637  0.7327  0.4929
  943MOL0     O27228   9.474   1.682   4.577 -0.1931  0.4208  0.3860
  943MOL0     C27229   9.409   1.620   4.694  0.9922  0.7191  0.4597
  943MOL0     C27230   9.261   1.631   4.676 -0.3589 -0.1211 -0.0523
  943MOL0     C27231   9.211   1.563   4.550 -0.3176 -1.0106  0.7582
  943MOL0     C27232   9.067   1.596   4.506 -1.0589  0.4158  0.8198
  943MOL0     C27233   8.977   1.515   4.589 -0.4391 -0.2640 -0.0301
  943MOL0     C27234   8.910   1.437   4.654  0.5991  0.3155  0.4708
  943MOL0     C27235   9.681   1.707   4.697 -0.9040 -0.2565 -0.3922
  943MOL0     C27236   9.812   1.737   4.693 -0.2357 -0.5971 -0.0214
  943MOL0     C27237   9.887   1.739   4.829  0.0622  0.5373  0.0643
  943MOL0     H27238  10.207   1.983   4.372  0.2774  1.7021  3.2922
  943MOL0     H27239  10.459   1.990   4.328 -1.4821  0.6321 -0.1433
  943MOL0     H27240  10.742   1.652   4.424  0.3659 -0.4483 -1.2837
  943MOL0     H27241  10.632   1.612   4.298  2.8006 -1.7580  0.8738
  943MOL0     H27242  10.879   1.797   4.281 -0.2513  1.2682 -1.7294
  943MOL0     H27243  10.761   1.798   4.153  0.2409 -0.3156  0.0297
  943MOL0     H27244  10.945   1.645   4.107 -1.2703  2.0292 -0.6713
  943MOL0     H27245  10.802   1.537   4.116  1.1941  0.3160 -1.7911
  943MOL0     H27246  10.966   1.571   4.372  1.8268  1.5383 -1.2957
  943MOL0     H27247  10.841   1.452   4.333 -0.5693 -0.4611 -1.3001
  943MOL0     H27248  10.976   1.338   4.158 -0.1267  1.7139 -2.6206
  943MOL0     H27249  11.094   1.473   4.187 -0.9401  0.5045 -0.2511
  943MOL0     H27250  11.130   1.397   4.433 -2.7807  0.6939  1.0484
  943MOL0     H27251  10.997   1.275   4.396 -0.1167  0.1658  1.4283
  943MOL0     H27252  11.281   1.283   4.293 -0.2939  1.5248 -0.6504
  943MOL0     H27253  11.168   1.198   4.204 -2.9283  3.9205  0.0892
  943MOL0     H27254  11.208   1.152   4.508 -2.0192  0.2613  0.3741
  943MOL0     H27255  11.092   1.063   4.402 -1.1079  1.9907  3.6867
  943MOL0     H27256  11.250   0.974   4.171  0.2952 -0.8883  0.6319
  943MOL0     H27257  11.499   0.697   4.199 -1.5646  0.2349 -0.8608
  943MOL0     H27258  11.424   0.798   4.077  0.8038 -0.0640 -0.6078
  943MOL0     H27259  11.659   0.801   4.052  0.0225 -2.6340  1.0268
  943MOL0     H27260  11.634   0.963   4.108 -0.2380 -0.3984  0.0805
  943MOL0     H27261  11.707   0.737   4.311 -0.2999  0.8044 -1.0817
  943MOL0     H27262  11.715   0.912   4.322 -0.2435 -0.9900  0.7857
  943MOL0     H27263  11.880   0.733   4.129  2.1276 -1.1481  0.3899
  943MOL0     H27264  11.945   0.798   4.289 -1.4478  0.4025  1.2488
  943MOL0     H27265  12.104   1.086   4.243 -1.2212  0.2002 -0.0890
  943MOL0     H27266  12.329   1.077   4.188 -0.6025 -3.1998  3.1859
  943MOL0     H27267  12.694   1.200   4.114 -0.6627  0.5068 -1.2628
  943MOL0     H27268  12.922   1.214   4.113 -2.9109  0.6848  1.9605
  943MOL0     H27269  13.201   1.188   4.040  0.3840  0.1168  1.5776
  943MOL0     H27270  13.154   1.078   4.180 -2.4749 -0.4781 -0.8907
  943MOL0     H27271  13.382   1.053   3.989  0.7188  1.0998  0.4851
  943MOL0     H27272  13.403   1.096   4.155  2.2542 -0.5134 -1.8574
  943MOL0     H27273  13.294   0.867   4.226  1.2614 -0.2730  0.6686
  943MOL0     H27274  13.302   0.822   4.051  1.7987 -2.4263  0.7547
  943MOL0     H27275  13.549   0.943   4.104 -0.7146  2.3715  2.5866
  943MOL0     H27276  13.524   0.775   4.064  0.8756 -0.1617  1.7891
  943MOL0     H27277  13.490   0.726   4.301 -1.2293 -0.1952 -2.6009
  943MOL0     H27278  13.500   0.892   4.341  1.0450  1.6533 -0.8017
  943MOL0     H27279  13.730   0.730   4.197  2.3024  2.4215 -1.5690
  943MOL0     H27280  13.754   0.896   4.252  1.3333  0.1731  1.4123
  943MOL0     H27281  13.716   0.644   4.427  2.5576 -1.0643 -1.2131
  943MOL0     H27282  13.728   0.809   4.500 -0.6238 -1.8830  1.4422
  943MOL0     H27283  13.929   0.658   4.324 -0.7880  0.9456 -2.3658
  943MOL0     H27284  13.962   0.819   4.384  1.1733 -2.3548 -0.5674
  943MOL0     H27285  12.943   0.825   3.933 -0.0293  1.0797 -0.6291
  943MOL0     H27286  12.716   0.805   3.960 -0.1295 -0.6028 -0.9156
  943MOL0     H27287  12.259   0.797   3.868  0.7185  0.0338 -1.3104
  943MOL0     H27288  12.017   0.798   3.925  1.2087 -0.7027 -0.2057
  943MOL0     H27289  10.488   1.591   4.473  0.1478 -0.9289 -0.7241
  943MOL0     H27290  10.251   1.580   4.493  0.5287  1.1751  1.7552
  943MOL0     H27291   9.850   1.760   4.357 -1.8385 -1.6357 -1.4454
  943MOL0     H27292   9.608   1.725   4.365  1.4425  0.5111 -1.1172
  943MOL0     H27293   9.444   1.671   4.785  3.1331  0.1220  0.0344
  943MOL0     H27294   9.433   1.514   4.704 -1.2908  0.2003  0.8323
  943MOL0     H27295   9.223   1.733   4.685 -2.0629 -0.6543 -0.6956
  943MOL0     H27296   9.223   1.571   4.759  1.5564 -0.5496  0.5627
  943MOL0     H27297   9.219   1.455   4.564  0.1349 -1.1265 -0.3021
  943MOL0     H27298   9.276   1.596   4.469 -0.0884  0.7880  1.5982
  943MOL0     H27299   9.045   1.700   4.532  0.8566  1.1243 -0.1921
  943MOL0     H27300   9.051   1.571   4.401  0.4363 -1.4856  0.9995
  943MOL0     H27301   8.847   1.359   4.693  0.3056 -1.6393 -3.4649
  943MOL0     H27302   9.650   1.681   4.797 -3.7973 -0.5864 -1.2688
  943MOL0     H27303   9.977   1.677   4.825  0.6299  1.3433  0.0424
  943MOL0     H27304   9.917   1.841   4.857  1.1786  0.0360  0.7729
  943MOL0     H27305   9.821   1.694   4.904 -1.0468 -1.6402 -2.1075
  944MOL0     O27306   6.938   9.997   0.991 -0.2562  0.9196  0.2296
  944MOL0     C27307   6.901  10.071   0.900 -0.4896 -0.3119 -0.0811
  944MOL0     O27308   6.985  10.152   0.831 -0.2248  0.0224 -0.2177
  944MOL0     C27309   7.123  10.133   0.844 -0.8771  0.2167  0.0130
  944MOL0     C27310   7.199  10.150   0.726 -0.8564 -0.6287 -0.4373
  944MOL0     C27311   7.340  10.160   0.726  0.0411 -0.1207  0.1035
  944MOL0     C27312   7.410  10.147   0.847 -0.5498  0.6907  0.0216
  944MOL0     O27313   7.546  10.145   0.835  0.0162 -0.2625 -0.2202
  944MOL0     C27314   7.624  10.084   0.941 -0.2234 -0.1450 -0.1923
  944MOL0     C27315   7.773  10.065   0.910  0.1026  0.3045 -0.3586
  944MOL0     C27316   7.849  10.032   1.036 -0.3688 -0.8123 -0.0175
  944MOL0     C27317   7.991   9.986   1.003 -0.9582  0.2003  1.2755
  944MOL0     C27318   8.067  10.105   0.936 -0.2611  0.2251  0.1181
  944MOL0     C27319   8.208  10.074   0.901  0.3113 -0.7190 -0.0027
  944MOL0     C27320   8.296  10.195   0.860 -0.0830  0.8502  0.5191
  944MOL0     C27321   8.436  10.147   0.822 -0.1650  0.0550  0.3341
  944MOL0     N27322   8.530  10.260   0.788 -0.4344  0.0217 -0.1815
  944MOL0     C27323   8.645  10.251   0.722 -0.4793  0.3205  0.2391
  944MOL0     C27324   8.701  10.375   0.715 -0.4463  0.0808 -0.3488
  944MOL0     C27325   8.811  10.414   0.620 -0.6892 -0.5204 -0.2250
  944MOL0     C27326   8.960  10.418   0.688  0.2670  0.5935 -0.0817
  944MOL0     C27327   9.003  10.277   0.738 -0.2148  0.2738  0.1908
  944MOL0     C27328   9.152  10.247   0.728  0.0171 -0.6629  0.2031
  944MOL0     O27329   9.244  10.344   0.772  0.2709 -0.3824 -1.1797
  944MOL0     C27330   9.381  10.308   0.751 -0.1381 -0.1870 -0.5482
  944MOL0     C27331   9.426  10.199   0.681 -0.3375  0.2435  0.3368
  944MOL0     C27332   9.568  10.185   0.653  0.8982 -0.3552 -0.1556
  944MOL0     C27333   9.667  10.262   0.712 -0.1823 -0.2858 -0.2464
  944MOL0     C27334   9.809  10.238   0.698  1.1078 -0.4741  0.9612
  944MOL0     O27335   9.884  10.334   0.756 -0.1094 -0.1612  0.2135
  944MOL0     C27336  10.018  10.326   0.744 -0.4108 -0.1865 -0.4517
  944MOL0     C27337  10.085  10.369   0.628 -0.0178  0.2949 -0.5781
  944MOL0     C27338  10.221  10.350   0.616 -0.9587 -0.2666 -0.3184
  944MOL0     C27339  10.298  10.274   0.710  0.1162  0.4629 -1.0739
  944MOL0     O27340  10.426  10.225   0.715 -0.5634  0.1479  0.1857
  944MOL0     C27341  10.511  10.245   0.605  0.0006 -0.5013 -0.0762
  944MOL0     C27342  10.664  10.215   0.637  0.1144 -1.0850  0.1938
  944MOL0     C27343  10.753  10.229   0.512 -0.2099 -0.2755 -0.5042
  944MOL0     C27344  10.899  10.248   0.565  0.1740 -0.1123 -0.1772
  944MOL0     C27345  10.930  10.390   0.597 -0.5023 -0.1160 -0.1612
  944MOL0     C27346  11.051  10.412   0.682 -0.3603 -0.1749 -0.1453
  944MOL0     C27347  11.186  10.383   0.608  0.4558 -0.6244  0.1788
  944MOL0     C27348  11.314  10.420   0.682 -0.0194 -0.4965  0.0811
  944MOL0    Cl27349  11.356  10.293   0.800  0.1877 -0.5985 -0.1635
  944MOL0     C27350  10.225  10.242   0.831 -0.7754 -0.2616  0.3878
  944MOL0     C27351  10.091  10.265   0.847  0.2030 -0.2029  0.5607
  944MOL0     O27352   9.839  10.150   0.622 -0.3347 -0.3114  0.6497
  944MOL0     C27353   9.620  10.375   0.781  0.4965 -0.1816 -0.4108
  944MOL0     C27354   9.477  10.394   0.807 -0.3557 -0.5943  0.5589
  944MOL0     N27355   8.615  10.453   0.790 -0.2818 -0.2234  1.3542
  944MOL0     N27356   8.521  10.390   0.837  0.0151 -0.0424 -0.2968
  944MOL0     C27357   7.329  10.141   0.968  0.2610 -0.2113 -0.1537
  944MOL0     C27358   7.190  10.144   0.958 -1.1693 -0.4221 -1.1285
  944MOL0     C27359   6.752  10.084   0.872 -0.5538 -0.7896  0.3291
  944MOL0     C27360   6.718  10.179   0.762 -0.4302  0.0780  0.0673
  944MOL0     C27361   6.586  10.186   0.717  0.2073 -0.0326  0.5431
  944MOL0     C27362   6.478  10.113   0.766 -0.4518 -0.6246  0.6659
  944MOL0     O27363   6.357  10.147   0.708  0.0801  0.0759 -0.2495
  944MOL0     C27364   6.239  10.079   0.758 -0.7530  0.1913  0.2978
  944MOL0     C27365   6.107  10.123   0.685  0.0882 -0.0418  0.3554
  944MOL0     C27366   5.975  10.093   0.747  0.6664  0.4106 -0.1575
  944MOL0     C27367   5.962   9.947   0.803 -0.5335 -0.5985  0.4756
  944MOL0     C27368   5.827   9.903   0.842 -0.3065  0.4368 -0.0417
  944MOL0     C27369   5.716   9.859   0.860 -0.3354  0.0269 -0.3877
  944MOL0     C27370   6.515  10.022   0.866 -0.7049  0.5827 -0.9833
  944MOL0     C27371   6.642  10.008   0.921  0.0625 -0.2068 -0.0899
  944MOL0     C27372   6.662   9.902   1.026 -0.2024 -0.3821 -0.3323
  944MOL0     H27373   7.146  10.152   0.631 -1.0802 -0.1077 -0.3063
  944MOL0     H27374   7.392  10.187   0.635 -0.5762  1.0857  0.0820
  944MOL0     H27375   7.620  10.152   1.026 -0.8815  1.2091 -1.2619
  944MOL0     H27376   7.582   9.986   0.967  3.2545 -1.4814  0.9826
  944MOL0     H27377   7.800  10.162   0.865 -0.9823 -0.0444 -1.8534
  944MOL0     H27378   7.791   9.985   0.837  0.1634 -2.5882  2.6203
  944MOL0     H27379   7.796   9.962   1.100 -0.0178  0.9021  2.2844
  944MOL0     H27380   7.852  10.125   1.094 -2.7895  0.1060 -1.2287
  944MOL0     H27381   8.040   9.954   1.095 -2.6245 -0.7297  1.8888
  944MOL0     H27382   7.982   9.906   0.929 -1.2863 -0.4903  2.0607
  944MOL0     H27383   8.016  10.137   0.845  1.1149  3.0807  0.2292
  944MOL0     H27384   8.062  10.188   1.007 -0.1718  0.7999 -0.5366
  944MOL0     H27385   8.250  10.035   0.995  0.0286 -0.1460  0.3677
  944MOL0     H27386   8.204   9.995   0.825  0.6296 -1.3095  0.5822
  944MOL0     H27387   8.311  10.269   0.938  3.6460 -0.9578  1.7470
  944MOL0     H27388   8.255  10.251   0.776  0.1940  0.4604  0.1202
  944MOL0     H27389   8.474  10.073   0.893  1.6021  2.8842  2.5819
  944MOL0     H27390   8.435  10.086   0.732  0.2971 -0.7848  0.8811
  944MOL0     H27391   8.684  10.172   0.658 -0.4857  1.2636 -0.9579
  944MOL0     H27392   8.814  10.362   0.524  0.9534 -0.0752 -0.4511
  944MOL0     H27393   8.789  10.519   0.597 -1.9919 -0.5929  0.5620
  944MOL0     H27394   9.038  10.453   0.619  2.6158  0.1622  2.2129
  944MOL0     H27395   8.957  10.489   0.771 -0.9002 -0.2875  0.6729
  944MOL0     H27396   8.955  10.199   0.678  0.6375  0.1788 -0.3733
  944MOL0     H27397   8.973  10.259   0.842 -2.1104 -0.6429 -0.4646
  944MOL0     H27398   9.163  10.218   0.623 -3.0259 -0.9745 -0.0966
  944MOL0     H27399   9.165  10.157   0.789 -0.2614 -0.2008  0.9591
  944MOL0     H27400   9.362  10.122   0.638  0.6427  0.3314 -1.3991
  944MOL0     H27401   9.603  10.102   0.593  3.8035 -1.0229  2.1795
  944MOL0     H27402  10.022  10.417   0.555 -0.9679  1.0665  0.7116
  944MOL0     H27403  10.265  10.378   0.521 -0.3181 -0.4136 -0.0698
  944MOL0     H27404  10.484  10.177   0.524  0.8435 -0.4204 -0.4369
  944MOL0     H27405  10.500  10.349   0.572  1.1023  0.5353  2.5278
  944MOL0     H27406  10.691  10.292   0.709 -0.8162 -2.0286  1.6015
  944MOL0     H27407  10.678  10.114   0.677  0.8483 -1.1571 -0.2289
  944MOL0     H27408  10.760  10.141   0.446  0.7246 -2.0844  1.8691
  944MOL0     H27409  10.730  10.319   0.454  1.4118  0.1230 -0.5625
  944MOL0     H27410  10.975  10.208   0.497  0.2873  0.4751 -0.4059
  944MOL0     H27411  10.906  10.189   0.656 -0.0099 -0.4454 -0.3740
  944MOL0     H27412  10.848  10.443   0.648  1.3319  0.1035  2.8143
  944MOL0     H27413  10.952  10.442   0.503 -0.3863 -1.8865 -1.1416
  944MOL0     H27414  11.060  10.519   0.705 -1.0939  0.8158 -3.6910
  944MOL0     H27415  11.048  10.357   0.776  1.6038 -0.5184 -0.2311
  944MOL0     H27416  11.185  10.441   0.516  4.1335  0.0847  0.4417
  944MOL0     H27417  11.193  10.277   0.579 -1.8545 -0.5921 -0.7504
  944MOL0     H27418  11.390  10.443   0.608  0.8880  0.9440  1.3992
  944MOL0     H27419  11.300  10.518   0.728  0.3488  1.4431 -3.5917
  944MOL0     H27420  10.274  10.200   0.918  0.7659 -1.0912 -0.8232
  944MOL0     H27421  10.040  10.243   0.940  0.8248 -0.4100  0.8550
  944MOL0     H27422   9.687  10.439   0.838  0.8696  2.1563 -3.2692
  944MOL0     H27423   9.448  10.478   0.869 -3.4733 -2.1066  1.3487
  944MOL0     H27424   7.376  10.138   1.066 -2.6476 -0.9149  1.3245
  944MOL0     H27425   7.132  10.162   1.048 -1.6256 -0.5827 -1.3852
  944MOL0     H27426   6.796  10.241   0.720  1.7930 -0.7679  2.6257
  944MOL0     H27427   6.560  10.262   0.644 -1.6818  0.3464  1.5389
  944MOL0     H27428   6.230  10.097   0.865  0.6415 -0.0558  0.4747
  944MOL0     H27429   6.256   9.974   0.732 -1.3826  0.0366  0.4925
  944MOL0     H27430   6.090  10.071   0.590 -0.6111 -0.3388  0.6378
  944MOL0     H27431   6.105  10.229   0.656 -2.6399 -0.1739 -0.2578
  944MOL0     H27432   5.893  10.102   0.675 -1.4677  0.6858  2.1993
  944MOL0     H27433   5.960  10.169   0.824  2.2825 -0.8560  1.5021
  944MOL0     H27434   6.021   9.880   0.740  1.8833  0.4214  1.5326
  944MOL0     H27435   6.019   9.945   0.897 -0.0355 -2.4554  0.1624
  944MOL0     H27436   5.629   9.801   0.882  0.6038 -0.3746  2.5784
  944MOL0     H27437   6.443   9.958   0.917 -0.8424 -0.1847 -2.1125
  944MOL0     H27438   6.708   9.958   1.107 -1.4120  2.6121 -1.5792
  944MOL0     H27439   6.570   9.853   1.061 -0.0152 -0.5261 -0.0370
  944MOL0     H27440   6.734   9.827   0.991 -2.6111 -1.7893 -2.6777
  945MOL0     O27441   1.216   7.925   8.542 -0.1871  0.1151  0.7102
  945MOL0     C27442   1.134   7.999   8.584 -0.3131 -0.3459  0.0437
  945MOL0     O27443   1.109   8.015   8.714 -0.0675 -0.3213  0.4907
  945MOL0     C27444   1.170   7.926   8.798 -0.1961  0.0146  0.2540
  945MOL0     C27445   1.281   7.962   8.865 -0.7268  0.4488  0.2394
  945MOL0     C27446   1.344   7.866   8.944 -0.4156 -0.5249 -0.2349
  945MOL0     C27447   1.298   7.734   8.972  0.5469  0.3385 -1.1946
  945MOL0     O27448   1.377   7.655   9.050 -0.0821  0.4470  0.1651
  945MOL0     C27449   1.347   7.514   9.072 -0.7126  0.2868 -0.3122
  945MOL0     C27450   1.468   7.416   9.125  0.5929 -0.1653  0.5244
  945MOL0     C27451   1.536   7.483   9.247  1.3792  0.5523 -0.9428
  945MOL0     C27452   1.623   7.380   9.322  0.4685  0.3156 -0.5014
  945MOL0     C27453   1.689   7.436   9.442 -0.5236  0.6001 -0.3439
  945MOL0     C27454   1.784   7.552   9.406 -0.1065 -0.0847 -0.6552
  945MOL0     C27455   1.888   7.572   9.513  0.4941  0.8952  0.6062
  945MOL0     C27456   1.974   7.695   9.478 -0.1988 -1.2199 -0.9088
  945MOL0     N27457   2.076   7.708   9.581  0.6956  0.8292  0.6302
  945MOL0     C27458   2.170   7.807   9.579  0.6342 -0.0046 -0.0124
  945MOL0     C27459   2.244   7.776   9.693  0.2950 -0.1901  0.5460
  945MOL0     C27460   2.380   7.832   9.732  0.0517 -0.1123  0.3463
  945MOL0     C27461   2.383   7.887   9.875  0.6596 -0.8465  0.5098
  945MOL0     C27462   2.515   7.957   9.909 -0.0442  0.3711 -0.1436
  945MOL0     C27463   2.523   8.025  10.044  0.9529  0.0231  0.0311
  945MOL0     O27464   2.646   7.998  10.106 -0.0787 -0.0226  0.1178
  945MOL0     C27465   2.685   8.060  10.226 -0.7366  0.1306  0.4839
  945MOL0     C27466   2.592   8.145  10.293  0.5725  0.1284 -0.7106
  945MOL0     C27467   2.628   8.192  10.421 -0.9185  0.3321 -0.6155
  945MOL0     C27468   2.752   8.159  10.480  0.3434  0.4237  0.9028
  945MOL0     C27469   2.796   8.226  10.602 -1.0417  0.2913  0.2004
  945MOL0     O27470   2.925   8.205  10.654 -0.6020 -0.5339  0.9562
  945MOL0     C27471   2.966   8.293  10.757 -0.2740  0.1173  0.6138
  945MOL0     C27472   3.056   8.405  10.733  0.3415  0.1982  0.8376
  945MOL0     C27473   3.097   8.485  10.837 -1.1203  0.4757 -0.2871
  945MOL0     C27474   3.051   8.471  10.967 -0.6141  0.1918 -0.5092
  945MOL0     O27475   3.102   8.557  11.060 -0.4444  0.1604 -0.0559
  945MOL0     C27476   3.107   8.527  11.200 -0.4513  0.1704 -0.0738
  945MOL0     C27477   3.194   8.407  11.233  0.5055 -0.2761 -0.1021
  945MOL0     C27478   3.123   8.305  11.331  0.0865 -0.2200 -0.1036
  945MOL0     C27479   3.082   8.359  11.467 -0.5996  0.2638 -0.5425
  945MOL0     C27480   2.935   8.322  11.509  0.3836  0.5322 -0.6179
  945MOL0     C27481   2.828   8.397  11.433  0.9144 -0.9375  0.6256
  945MOL0     C27482   2.696   8.401  11.505 -0.4709 -0.1648 -0.8297
  945MOL0     C27483   2.579   8.470  11.425 -0.0112 -0.2632 -0.4870
  945MOL0    Cl27484   2.573   8.409  11.256 -0.3553  0.0322 -0.0322
  945MOL0     C27485   2.969   8.361  10.992 -0.9429 -0.2069  0.6691
  945MOL0     C27486   2.936   8.270  10.888  0.5454 -0.0447 -0.8691
  945MOL0     O27487   2.710   8.296  10.650 -0.0918 -0.3281 -0.2371
  945MOL0     C27488   2.828   8.063  10.414  0.0564  0.6682 -1.0702
  945MOL0     C27489   2.792   8.009  10.297  0.7369  0.2134 -0.4527
  945MOL0     N27490   2.177   7.670   9.761  0.1387 -0.2639 -0.6701
  945MOL0     N27491   2.080   7.632   9.693  0.2606  0.4784 -0.7161
  945MOL0     C27492   1.171   7.697   8.915 -0.1268  0.3960  0.2528
  945MOL0     C27493   1.106   7.800   8.835 -1.0765 -0.1682  0.2518
  945MOL0     C27494   1.071   8.104   8.502 -0.5920  0.1283  0.2747
  945MOL0     C27495   0.933   8.108   8.498  0.6288 -0.1691 -0.7025
  945MOL0     C27496   0.868   8.176   8.400 -0.3609  0.1283  0.5335
  945MOL0     C27497   0.933   8.260   8.310  0.4526 -0.4334  0.2492
  945MOL0     O27498   0.879   8.307   8.195  0.0049 -0.1857 -0.1821
  945MOL0     C27499   0.736   8.328   8.184  0.2654  0.5442 -0.1845
  945MOL0     C27500   0.671   8.223   8.103 -0.1086  0.4484  0.2730
  945MOL0     C27501   0.517   8.253   8.102 -0.4048 -0.1421  0.3360
  945MOL0     C27502   0.444   8.133   8.043  0.0327  0.6407 -0.4203
  945MOL0     C27503   0.303   8.171   8.041  0.5254 -0.1203  1.1449
  945MOL0     C27504   0.185   8.203   8.044 -0.1567  0.7797  0.5519
  945MOL0     C27505   1.067   8.246   8.304  0.0625  0.2956  0.7157
  945MOL0     C27506   1.141   8.174   8.396 -0.3791  0.0425  0.0687
  945MOL0     C27507   1.287   8.163   8.382  0.4065 -0.3456 -0.0394
  945MOL0     H27508   1.338   8.055   8.856  1.3637 -0.5204  2.5625
  945MOL0     H27509   1.439   7.891   8.991  0.0995 -1.2771 -0.8478
  945MOL0     H27510   1.266   7.499   9.144  0.1485  2.5782  1.2207
  945MOL0     H27511   1.327   7.466   8.976  0.3857 -0.5188 -0.1567
  945MOL0     H27512   1.537   7.387   9.046  0.8893 -3.7197  1.8984
  945MOL0     H27513   1.419   7.325   9.162  1.2574 -0.7746 -0.0763
  945MOL0     H27514   1.453   7.518   9.309  0.0376 -1.8174 -1.3053
  945MOL0     H27515   1.593   7.572   9.218  2.7461  0.1373  0.3330
  945MOL0     H27516   1.555   7.300   9.354 -0.9711  1.3665 -0.8509
  945MOL0     H27517   1.696   7.331   9.257  0.3372 -3.2760  1.7751
  945MOL0     H27518   1.615   7.460   9.520  1.5214  0.8797  1.6075
  945MOL0     H27519   1.748   7.354   9.486  0.5620  1.3107 -0.4447
  945MOL0     H27520   1.833   7.527   9.311 -2.3252  1.1855 -2.2122
  945MOL0     H27521   1.725   7.640   9.378 -0.0567 -1.0001 -4.1135
  945MOL0     H27522   1.945   7.479   9.514  1.3448  1.3306 -1.6063
  945MOL0     H27523   1.851   7.594   9.614  3.7903 -2.7571  2.8581
  945MOL0     H27524   2.024   7.683   9.382 -0.4053  1.5442 -1.4495
  945MOL0     H27525   1.916   7.787   9.468  2.1541  0.4660  0.2251
  945MOL0     H27526   2.194   7.887   9.510 -1.0241  2.0359  1.6558
  945MOL0     H27527   2.457   7.755   9.736 -0.3862 -0.5001  1.3879
  945MOL0     H27528   2.417   7.917   9.673 -2.1179  1.4324  1.0521
  945MOL0     H27529   2.296   7.951   9.888  0.2634 -1.1218 -0.6316
  945MOL0     H27530   2.376   7.805   9.947 -0.1279  0.6440  2.2178
  945MOL0     H27531   2.546   8.026   9.830  0.5736  1.4582  0.9954
  945MOL0     H27532   2.598   7.886   9.901  1.4340  1.8199  1.4532
  945MOL0     H27533   2.443   7.985  10.106  0.6729 -0.5230 -0.6718
  945MOL0     H27534   2.509   8.132  10.028  2.9555  0.2535 -0.4819
  945MOL0     H27535   2.494   8.175  10.256 -1.7190 -0.9761  3.8029
  945MOL0     H27536   2.563   8.263  10.471  1.8224  2.4558  0.1874
  945MOL0     H27537   3.099   8.421  10.635  1.9551 -1.4671  1.2126
  945MOL0     H27538   3.160   8.568  10.809 -2.4676  2.1992  1.5198
  945MOL0     H27539   3.147   8.618  11.248 -0.8315 -0.6389  1.8679
  945MOL0     H27540   3.006   8.513  11.240 -0.2492  0.8623  0.7296
  945MOL0     H27541   3.230   8.361  11.141 -1.4578 -2.1909  0.0060
  945MOL0     H27542   3.287   8.437  11.282  0.3287 -0.4492  0.3479
  945MOL0     H27543   3.043   8.253  11.278 -0.6578  2.9975 -2.4680
  945MOL0     H27544   3.202   8.231  11.348  0.6121 -0.7885 -3.9646
  945MOL0     H27545   3.094   8.468  11.471 -1.1746  0.3079  1.7351
  945MOL0     H27546   3.156   8.321  11.539 -0.5967  2.1537  0.5362
  945MOL0     H27547   2.930   8.351  11.614  3.1206  0.9441 -0.5350
  945MOL0     H27548   2.915   8.214  11.518 -5.0458  1.4239  2.3079
  945MOL0     H27549   2.868   8.498  11.420  0.2003 -0.3819  2.4318
  945MOL0     H27550   2.811   8.338  11.342  0.3497  0.9352 -0.5493
  945MOL0     H27551   2.712   8.448  11.603 -3.3362 -0.7665  0.0093
  945MOL0     H27552   2.660   8.299  11.521 -2.0516  0.6171  1.0615
  945MOL0     H27553   2.483   8.450  11.474  2.1286 -3.4545  3.0232
  945MOL0     H27554   2.595   8.578  11.426 -0.2151 -0.2382  0.2467
  945MOL0     H27555   2.917   8.340  11.085 -3.2016 -1.0295 -0.6977
  945MOL0     H27556   2.869   8.188  10.910 -0.5926  1.1519  0.3491
  945MOL0     H27557   2.921   8.022  10.452 -1.8920 -1.0600  2.2965
  945MOL0     H27558   2.841   7.931  10.240 -0.0356  1.9100 -3.6483
  945MOL0     H27559   1.124   7.601   8.934  0.3702  0.0287 -0.3264
  945MOL0     H27560   1.008   7.783   8.791 -0.8135 -2.6324  0.4838
  945MOL0     H27561   0.883   8.059   8.581  2.3622 -0.3995  0.2569
  945MOL0     H27562   0.760   8.169   8.407 -0.3865  1.3457  1.7113
  945MOL0     H27563   0.715   8.420   8.129 -0.0904 -0.3751 -1.6426
  945MOL0     H27564   0.681   8.338   8.278  0.9672 -1.1051  0.4466
  945MOL0     H27565   0.681   8.131   8.160 -0.5923 -0.5971 -1.2511
  945MOL0     H27566   0.727   8.210   8.010  0.0040  0.3169  0.3605
  945MOL0     H27567   0.512   8.343   8.040  0.9047  0.6497  1.3092
  945MOL0     H27568   0.476   8.278   8.200  0.8850  1.1277  0.5937
  945MOL0     H27569   0.486   8.097   7.949  2.3836  0.9174  0.4511
  945MOL0     H27570   0.452   8.047   8.110  0.5426 -0.9007 -2.3931
  945MOL0     H27571   0.081   8.227   8.043 -0.4343 -0.1203 -2.2787
  945MOL0     H27572   1.113   8.287   8.214  2.4859  1.9682  2.5545
  945MOL0     H27573   1.333   8.254   8.344 -0.6239  0.9223  1.6139
  945MOL0     H27574   1.330   8.146   8.481 -0.5653 -1.3296  0.2373
  945MOL0     H27575   1.298   8.076   8.317 -4.2275 -1.2850  0.1355
  946MOL0     O27576   4.428   1.606   4.178  0.0421  0.5621  0.2467
  946MOL0     C27577   4.441   1.587   4.059  0.5402  0.5628 -0.3662
  946MOL0     O27578   4.558   1.562   3.997 -0.0110  0.7430 -0.2035
  946MOL0     C27579   4.664   1.510   4.067 -0.5980 -0.3473  0.3184
  946MOL0     C27580   4.683   1.376   4.109  0.7804  0.3870  1.2526
  946MOL0     C27581   4.806   1.334   4.168  0.0651 -0.1557 -0.3051
  946MOL0     C27582   4.914   1.425   4.186  0.8367 -0.3433  0.4780
  946MOL0     O27583   5.039   1.396   4.238 -0.1337  0.6762  0.0040
  946MOL0     C27584   5.043   1.292   4.341 -0.1597  0.4649  0.2656
  946MOL0     C27585   5.181   1.273   4.403  0.2799 -0.3651  0.3152
  946MOL0     C27586   5.305   1.256   4.308  0.7910  0.5920 -0.0691
  946MOL0     C27587   5.426   1.209   4.392 -0.7630 -0.6015 -0.3563
  946MOL0     C27588   5.414   1.066   4.439  0.4422  0.8568  0.6195
  946MOL0     C27589   5.538   1.009   4.505  0.9003  0.0976  0.6097
  946MOL0     C27590   5.501   0.867   4.569 -0.0320  0.3365 -0.3996
  946MOL0     C27591   5.612   0.803   4.651 -0.3882  0.4304  0.4566
  946MOL0     N27592   5.740   0.793   4.569  0.2729 -0.3462 -0.2536
  946MOL0     C27593   5.874   0.798   4.615 -0.2288  0.0584 -0.8600
  946MOL0     C27594   5.948   0.796   4.503 -0.2733  0.4660 -0.2504
  946MOL0     C27595   6.098   0.818   4.497 -0.4977  0.1765 -0.5421
  946MOL0     C27596   6.187   0.705   4.440  0.3620 -0.0625 -0.1125
  946MOL0     C27597   6.239   0.627   4.557  0.2746 -0.1527  0.0345
  946MOL0     C27598   6.336   0.525   4.512  0.0338  1.2822 -0.4994
  946MOL0     O27599   6.466   0.592   4.508  0.6336 -0.2555 -0.1994
  946MOL0     C27600   6.561   0.567   4.418 -0.5804 -0.0540  0.6389
  946MOL0     C27601   6.684   0.602   4.459 -0.6595  0.5337 -0.0658
  946MOL0     C27602   6.794   0.593   4.371  0.2241 -0.1438 -0.2391
  946MOL0     C27603   6.781   0.521   4.249 -0.2445  0.5945 -0.3100
  946MOL0     C27604   6.888   0.488   4.149 -0.2356  0.6100  0.3492
  946MOL0     O27605   7.014   0.542   4.177 -0.4297 -0.2331  0.4835
  946MOL0     C27606   7.117   0.475   4.113  0.1094 -0.4894  0.0310
  946MOL0     C27607   7.176   0.363   4.173  0.3537  0.5649  0.1096
  946MOL0     C27608   7.276   0.294   4.110 -0.0102 -0.1538  0.7420
  946MOL0     C27609   7.342   0.347   3.990 -0.1144  0.3176  0.6040
  946MOL0     O27610   7.456   0.297   3.939  0.0543  0.0671  0.8153
  946MOL0     C27611   7.542   0.225   4.024  0.1316 -0.0941  0.2351
  946MOL0     C27612   7.661   0.193   3.935  0.4769  0.2777 -1.0134
  946MOL0     C27613   7.780   0.129   4.003  0.7323  0.2103 -0.5857
  946MOL0     C27614   7.879   0.098   3.894 -0.1248  0.3605  0.1119
  946MOL0     C27615   7.992   0.015   3.951  0.2539 -0.2860  0.3516
  946MOL0     C27616   8.090  -0.010   3.841  0.2150 -0.1099  0.4956
  946MOL0     C27617   8.208  -0.092   3.885 -0.7058  0.3656 -0.3268
  946MOL0     C27618   8.168  -0.227   3.935 -0.6776  0.3383 -0.8450
  946MOL0    Cl27619   8.292  -0.343   3.906  0.1110 -0.1810  0.2097
  946MOL0     C27620   7.285   0.457   3.923  0.1464 -0.4535  0.4710
  946MOL0     C27621   7.177   0.522   3.992 -0.0412 -0.0669 -1.1761
  946MOL0     O27622   6.872   0.397   4.064  0.2552 -0.0194 -0.5496
  946MOL0     C27623   6.652   0.469   4.214 -0.1357 -0.2578  0.0614
  946MOL0     C27624   6.542   0.503   4.292  0.5972  1.0451 -0.7320
  946MOL0     N27625   5.864   0.769   4.397 -0.8636  0.0798  0.3750
  946MOL0     N27626   5.745   0.766   4.439  0.1986  0.2804  0.9743
  946MOL0     C27627   4.891   1.561   4.140  0.0628 -0.2932 -1.6647
  946MOL0     C27628   4.772   1.603   4.086  0.5080 -0.0302  0.4535
  946MOL0     C27629   4.322   1.578   3.967  1.0349 -0.2638  0.4659
  946MOL0     C27630   4.341   1.560   3.833 -0.7005 -0.4643  0.1640
  946MOL0     C27631   4.231   1.534   3.752  0.0052  0.6304  0.6245
  946MOL0     C27632   4.097   1.533   3.790 -0.2017  0.3727 -0.7812
  946MOL0     O27633   3.994   1.514   3.701 -0.8863 -0.0115  0.3129
  946MOL0     C27634   3.901   1.624   3.698 -0.1406  0.4072  0.2312
  946MOL0     C27635   3.876   1.672   3.560 -0.2271  1.1696 -0.1988
  946MOL0     C27636   3.991   1.751   3.491  0.3678 -0.2842  0.1630
  946MOL0     C27637   4.020   1.884   3.564  0.0823  0.3542  0.0626
  946MOL0     C27638   4.120   1.872   3.666 -0.3838  0.7963  0.2284
  946MOL0     C27639   4.184   1.864   3.768  0.2387 -0.5075 -0.3970
  946MOL0     C27640   4.075   1.555   3.926 -0.6386 -0.0900 -0.8589
  946MOL0     C27641   4.182   1.586   4.019 -0.1061  0.0338  0.2689
  946MOL0     C27642   4.152   1.598   4.155 -0.5853  0.0493  0.5883
  946MOL0     H27643   4.608   1.302   4.081  3.1727 -2.4722  1.9636
  946MOL0     H27644   4.819   1.229   4.192 -2.8862 -0.7300 -0.8153
  946MOL0     H27645   4.978   1.322   4.423  0.5786 -1.3607  1.5972
  946MOL0     H27646   5.022   1.195   4.296 -3.5000  1.3373 -0.2875
  946MOL0     H27647   5.173   1.185   4.468 -0.5737  0.2385  1.0529
  946MOL0     H27648   5.219   1.353   4.467  1.5890 -0.5254 -0.2350
  946MOL0     H27649   5.338   1.354   4.270  2.8184  0.5813  1.5224
  946MOL0     H27650   5.286   1.174   4.239  2.0901 -0.0412  0.3094
  946MOL0     H27651   5.517   1.218   4.333  0.6523 -3.3266  1.2554
  946MOL0     H27652   5.434   1.275   4.479 -1.5791 -1.0403  0.0628
  946MOL0     H27653   5.331   1.065   4.510  0.9689 -0.9246  1.2991
  946MOL0     H27654   5.382   1.002   4.357  0.2641  1.4026  0.2645
  946MOL0     H27655   5.622   1.005   4.435  0.1508  0.0108 -0.2880
  946MOL0     H27656   5.563   1.078   4.587  0.4072  0.2393  0.6418
  946MOL0     H27657   5.493   0.792   4.489  4.0559 -0.8168  0.0520
  946MOL0     H27658   5.406   0.867   4.624  0.1460  0.5920 -0.0879
  946MOL0     H27659   5.636   0.862   4.740  0.4860 -1.8340  1.8019
  946MOL0     H27660   5.584   0.703   4.686  1.3333 -0.7160 -1.2465
  946MOL0     H27661   5.914   0.804   4.716  2.4232 -0.6450 -1.7698
  946MOL0     H27662   6.111   0.910   4.439  0.8503  1.5905  1.8701
  946MOL0     H27663   6.131   0.841   4.599  0.2886 -1.0519 -0.5038
  946MOL0     H27664   6.132   0.639   4.373  0.9726 -0.1179 -0.5679
  946MOL0     H27665   6.272   0.746   4.385  0.1981  0.4216 -0.0108
  946MOL0     H27666   6.151   0.575   4.596  0.8538 -2.6021 -1.6859
  946MOL0     H27667   6.286   0.689   4.633  3.2886 -1.6606 -0.4594
  946MOL0     H27668   6.308   0.476   4.419 -1.2852 -2.8813  1.8192
  946MOL0     H27669   6.342   0.435   4.574  0.0590 -0.4368 -2.8692
  946MOL0     H27670   6.706   0.630   4.561  0.6123 -1.4914  0.2796
  946MOL0     H27671   6.890   0.633   4.401 -0.9150  1.3833  1.5791
  946MOL0     H27672   7.136   0.322   4.265 -0.0648 -1.0836 -0.7527
  946MOL0     H27673   7.328   0.217   4.167  0.3128 -0.9912 -0.6341
  946MOL0     H27674   7.569   0.288   4.109  0.0241 -0.2908  0.4163
  946MOL0     H27675   7.491   0.135   4.058 -1.6353  0.0770 -1.7527
  946MOL0     H27676   7.624   0.110   3.875  0.1574 -0.3695  0.0433
  946MOL0     H27677   7.688   0.281   3.875  1.0906  0.0161 -1.1286
  946MOL0     H27678   7.830   0.192   4.077  1.8054 -0.5775 -0.6308
  946MOL0     H27679   7.753   0.043   4.065  1.0969  0.0852 -0.5993
  946MOL0     H27680   7.920   0.183   3.838  1.2893 -1.5789 -1.9482
  946MOL0     H27681   7.830   0.037   3.818  1.9498 -1.6926  0.3401
  946MOL0     H27682   7.955  -0.082   3.986  1.1805 -1.3190 -1.4049
  946MOL0     H27683   8.021   0.067   4.043 -2.1891  0.3346  0.8278
  946MOL0     H27684   8.041  -0.064   3.760  0.2108  0.4856  0.0942
  946MOL0     H27685   8.123   0.085   3.798  2.1343 -1.5372 -1.3622
  946MOL0     H27686   8.277  -0.032   3.945 -0.0414 -0.7269  0.0434
  946MOL0     H27687   8.266  -0.104   3.793  1.5616  0.7433  0.9776
  946MOL0     H27688   8.157  -0.218   4.044  0.6760 -2.4810 -0.3651
  946MOL0     H27689   8.079  -0.255   3.879 -0.1343  2.0173 -2.6381
  946MOL0     H27690   7.327   0.483   3.827  0.6503 -1.4504  0.4105
  946MOL0     H27691   7.121   0.609   3.958  3.1104  3.3640  1.6103
  946MOL0     H27692   6.638   0.390   4.142 -0.8942  0.6292 -0.7814
  946MOL0     H27693   6.450   0.452   4.265 -0.3735  3.1303 -1.6030
  946MOL0     H27694   4.971   1.633   4.132 -1.7253  1.7588 -1.8189
  946MOL0     H27695   4.765   1.705   4.050  0.6201 -0.4306 -0.7418
  946MOL0     H27696   4.436   1.555   3.782 -0.6518  2.0076 -0.0975
  946MOL0     H27697   4.256   1.518   3.647  1.6929 -0.9494  1.2106
  946MOL0     H27698   3.923   1.702   3.771  0.1306 -0.4771  1.1153
  946MOL0     H27699   3.801   1.590   3.728  0.0104  0.8736  1.3055
  946MOL0     H27700   3.792   1.742   3.556  0.4840  1.9957 -1.3703
  946MOL0     H27701   3.854   1.578   3.509  0.1922  0.6547  0.5405
  946MOL0     H27702   3.968   1.774   3.387  1.8840 -0.9537 -0.3587
  946MOL0     H27703   4.088   1.702   3.474  1.5091  1.4465  1.4217
  946MOL0     H27704   4.058   1.961   3.496  2.7944 -1.3473 -0.4990
  946MOL0     H27705   3.923   1.915   3.603 -1.2569  0.5531 -3.0875
  946MOL0     H27706   4.244   1.870   3.856  0.1223  0.6961 -0.3842
  946MOL0     H27707   3.977   1.561   3.971  0.0271 -0.0025  0.6338
  946MOL0     H27708   4.206   1.522   4.211  0.8427  1.3312  1.0346
  946MOL0     H27709   4.201   1.691   4.187  1.9441 -1.8432  2.6584
  946MOL0     H27710   4.045   1.592   4.175 -0.8396  2.9103  0.5560
  947MOL0     O27711  10.470   1.789   0.184 -0.3709 -0.3178  0.0456
  947MOL0     C27712  10.378   1.722   0.145  0.5907 -0.0571  0.3978
  947MOL0     O27713  10.388   1.597   0.085  0.8132 -0.1063 -0.2374
  947MOL0     C27714  10.510   1.528   0.089  0.1347 -0.4157  0.7910
  947MOL0     C27715  10.607   1.534  -0.017 -0.2542  0.2000 -1.4052
  947MOL0     C27716  10.731   1.464   0.001  0.5102 -0.1597 -0.1416
  947MOL0     C27717  10.760   1.391   0.105  0.2369  0.0447 -0.5105
  947MOL0     O27718  10.876   1.314   0.103 -0.0387 -0.6855  0.4378
  947MOL0     C27719  11.000   1.376   0.129  0.9954  0.0726 -0.3254
  947MOL0     C27720  11.101   1.254   0.142 -0.2247 -0.9183  0.0331
  947MOL0     C27721  11.248   1.299   0.140  0.1756 -0.0993 -0.1022
  947MOL0     C27722  11.344   1.182   0.185 -0.1759  0.1080  0.0541
  947MOL0     C27723  11.488   1.209   0.149 -0.4450 -0.0523 -0.6599
  947MOL0     C27724  11.588   1.100   0.219  0.4039 -0.1886 -0.3667
  947MOL0     C27725  11.587   0.964   0.156  0.0007 -0.5611  0.5734
  947MOL0     C27726  11.665   0.862   0.237 -0.2345  0.2690 -0.5088
  947MOL0     N27727  11.806   0.862   0.190 -0.2654  0.3170  0.9123
  947MOL0     C27728  11.902   0.954   0.213 -0.3253 -0.0875  0.1163
  947MOL0     C27729  12.005   0.923   0.129  0.6050 -0.0478  0.1033
  947MOL0     C27730  12.140   0.987   0.112 -0.8816  0.4531  0.4887
  947MOL0     C27731  12.231   0.875   0.082 -0.2451  0.4056 -0.3163
  947MOL0     C27732  12.385   0.926   0.082 -0.5337 -0.5477  0.2826
  947MOL0     C27733  12.487   0.833   0.022  0.6848  0.3483 -0.0843
  947MOL0     O27734  12.625   0.866   0.049  0.3551  0.4171 -0.4473
  947MOL0     C27735  12.723   0.777   0.011  0.4416 -0.1887 -0.4618
  947MOL0     C27736  12.693   0.653  -0.048  1.0996  0.5882 -0.2604
  947MOL0     C27737  12.792   0.574  -0.104 -0.6789  0.2669 -0.0067
  947MOL0     C27738  12.929   0.619  -0.101 -0.8080 -0.3122  0.1299
  947MOL0     C27739  13.051   0.550  -0.168 -0.7493 -0.1048 -0.8685
  947MOL0     O27740  13.173   0.605  -0.141  0.0312  0.5978  0.2830
  947MOL0     C27741  13.290   0.568  -0.208 -0.1447 -0.0982  0.8130
  947MOL0     C27742  13.414   0.619  -0.155  0.5932 -0.4388  0.5569
  947MOL0     C27743  13.533   0.604  -0.227  1.0425 -0.3663  0.0899
  947MOL0     C27744  13.536   0.531  -0.346 -0.3691 -0.7736 -0.0328
  947MOL0     O27745  13.647   0.496  -0.414 -0.1186  0.1457  0.1082
  947MOL0     C27746  13.774   0.553  -0.378 -0.4810  0.3979  0.1517
  947MOL0     C27747  13.880   0.519  -0.483 -0.8737  0.0789  0.2840
  947MOL0     C27748  13.844   0.581  -0.620  0.4694 -0.4785  0.4448
  947MOL0     C27749  13.946   0.575  -0.730 -0.8479 -0.2343  0.1251
  947MOL0     C27750  14.072   0.652  -0.694  0.9357 -0.3151 -0.6934
  947MOL0     C27751  14.180   0.644  -0.801  0.3242 -0.2383 -0.4771
  947MOL0     C27752  14.270   0.770  -0.791  0.1131  0.1938 -0.6989
  947MOL0     C27753  14.371   0.762  -0.903  0.6776  0.0469 -0.4212
  947MOL0    Cl27754  14.432   0.928  -0.955 -0.0635  0.3488 -0.0171
  947MOL0     C27755  13.420   0.467  -0.385 -0.8640 -0.0010 -0.2588
  947MOL0     C27756  13.302   0.490  -0.321 -0.2147  1.1351  0.1426
  947MOL0     O27757  13.029   0.451  -0.233 -0.0208 -0.4487 -0.3211
  947MOL0     C27758  12.950   0.741  -0.038 -0.6329 -0.4141  0.8281
  947MOL0     C27759  12.847   0.820   0.022 -0.1222 -0.6418  0.4596
  947MOL0     N27760  11.967   0.823   0.041 -0.4455  0.3226 -0.6515
  947MOL0     N27761  11.845   0.783   0.075 -0.5264 -0.7878 -0.5244
  947MOL0     C27762  10.663   1.394   0.209 -0.1506  0.2593 -0.9818
  947MOL0     C27763  10.548   1.469   0.212  0.5370  1.1776  0.0275
  947MOL0     C27764  10.245   1.791   0.156  0.1171  0.5491 -0.9625
  947MOL0     C27765  10.134   1.718   0.112 -0.3719  0.0984  0.2236
  947MOL0     C27766  10.005   1.770   0.098  0.4081  0.3485 -0.1331
  947MOL0     C27767   9.982   1.903   0.138  1.1045  0.1413  0.5183
  947MOL0     O27768   9.858   1.960   0.129 -0.2165 -0.1356  0.0781
  947MOL0     C27769   9.757   1.896   0.056 -0.1439 -0.9574  0.4720
  947MOL0     C27770   9.641   1.993   0.058  0.0384 -0.9760  0.2114
  947MOL0     C27771   9.508   1.930   0.056  1.0647  0.0649  0.1243
  947MOL0     C27772   9.402   2.036   0.064  0.4769  0.3037 -0.2903
  947MOL0     C27773   9.274   1.980   0.015 -0.3962 -0.4753 -0.0114
  947MOL0     C27774   9.167   1.953  -0.030  0.2438 -0.1774 -0.0061
  947MOL0     C27775  10.081   1.981   0.197  0.5173  0.4783 -0.4935
  947MOL0     C27776  10.215   1.923   0.208 -0.2018 -0.5623  0.5357
  947MOL0     C27777  10.315   2.005   0.278 -0.1138  0.2907 -0.4901
  947MOL0     H27778  10.591   1.575  -0.116  0.7586  0.5953 -1.4110
  947MOL0     H27779  10.804   1.453  -0.079  2.4416  2.6260  1.0888
  947MOL0     H27780  11.034   1.439   0.047  0.8807 -0.1058 -0.5109
  947MOL0     H27781  10.991   1.427   0.225 -1.0559 -1.8022  0.5671
  947MOL0     H27782  11.084   1.177   0.066 -0.0884 -2.7789  1.8114
  947MOL0     H27783  11.087   1.195   0.232 -0.3461 -1.1281 -0.1218
  947MOL0     H27784  11.248   1.393   0.195  1.6470  1.1959 -2.1902
  947MOL0     H27785  11.277   1.328   0.039  2.4898 -2.3141 -0.1988
  947MOL0     H27786  11.333   1.179   0.294 -0.6419  0.4665  0.0195
  947MOL0     H27787  11.313   1.083   0.151 -0.3565 -0.4446  1.7243
  947MOL0     H27788  11.501   1.197   0.041  2.2262 -1.6359 -0.2522
  947MOL0     H27789  11.515   1.309   0.184  2.1701 -0.5092 -1.1629
  947MOL0     H27790  11.691   1.137   0.224 -0.7224  3.2504  0.7038
  947MOL0     H27791  11.564   1.088   0.325 -0.8792  1.2066 -0.4610
  947MOL0     H27792  11.620   0.979   0.052 -0.9886  1.6426  0.5210
  947MOL0     H27793  11.483   0.932   0.151  0.0916 -0.8202  0.3166
  947MOL0     H27794  11.664   0.867   0.347  0.7814 -2.4685 -0.2975
  947MOL0     H27795  11.625   0.765   0.208 -1.2408 -0.3054  2.4715
  947MOL0     H27796  11.899   1.038   0.282 -2.4468  0.0781 -0.1203
  947MOL0     H27797  12.135   1.059   0.030  1.9186 -1.1561 -1.2278
  947MOL0     H27798  12.180   1.035   0.202 -0.6307 -2.5697  2.1021
  947MOL0     H27799  12.216   0.795   0.155 -0.5816 -0.0760 -0.8994
  947MOL0     H27800  12.205   0.832  -0.016  0.8730  1.4481 -1.1044
  947MOL0     H27801  12.414   0.939   0.187 -1.6132 -2.7169  0.9037
  947MOL0     H27802  12.395   1.022   0.031  1.4113  0.1062  1.7617
  947MOL0     H27803  12.474   0.832  -0.086  1.5220  1.3831 -0.2127
  947MOL0     H27804  12.470   0.735   0.066  0.4868  1.2710  2.0269
  947MOL0     H27805  12.591   0.617  -0.048  1.2850 -0.0010  1.3122
  947MOL0     H27806  12.765   0.482  -0.154 -0.1336  0.5475 -0.8517
  947MOL0     H27807  13.414   0.671  -0.060  2.4031 -0.0948  0.4008
  947MOL0     H27808  13.626   0.641  -0.186  0.4032  0.6907  0.6267
  947MOL0     H27809  13.765   0.661  -0.368 -2.5456  0.2073  0.7411
  947MOL0     H27810  13.814   0.514  -0.283 -0.3610  0.4675  0.1307
  947MOL0     H27811  13.976   0.552  -0.443 -0.2870 -1.1389 -0.1021
  947MOL0     H27812  13.883   0.411  -0.498 -0.5067  0.2461 -0.9642
  947MOL0     H27813  13.746   0.540  -0.645  0.6462 -0.8551  0.3471
  947MOL0     H27814  13.823   0.688  -0.610  0.9580 -0.3142 -0.2313
  947MOL0     H27815  13.899   0.622  -0.818 -0.3068  0.7258  0.3306
  947MOL0     H27816  13.967   0.468  -0.731 -1.9526 -0.4946  1.4245
  947MOL0     H27817  14.113   0.620  -0.598 -3.3485 -1.4406  0.9818
  947MOL0     H27818  14.049   0.758  -0.679  0.7533 -0.3514 -0.7215
  947MOL0     H27819  14.237   0.551  -0.791 -0.5906 -0.5858  2.1076
  947MOL0     H27820  14.123   0.639  -0.895  2.2112  2.0634 -1.8601
  947MOL0     H27821  14.313   0.788  -0.692  1.3686  0.7920 -1.3225
  947MOL0     H27822  14.203   0.853  -0.815 -1.2822 -0.7209 -0.1481
  947MOL0     H27823  14.455   0.701  -0.868  0.4496  1.7122  3.5577
  947MOL0     H27824  14.323   0.719  -0.992 -2.4514  1.8766  0.2385
  947MOL0     H27825  13.434   0.402  -0.472  1.7337 -0.4206  0.3997
  947MOL0     H27826  13.221   0.439  -0.373  1.7313 -1.0007 -0.9644
  947MOL0     H27827  13.052   0.773  -0.018 -1.2645  0.7542  2.3533
  947MOL0     H27828  12.867   0.914   0.072 -1.4195  1.3967 -2.5609
  947MOL0     H27829  10.690   1.349   0.304  2.8018  0.6284 -1.5174
  947MOL0     H27830  10.478   1.468   0.294 -0.1938 -1.7979 -0.5121
  947MOL0     H27831  10.142   1.615   0.080  1.7929  0.1691  0.3487
  947MOL0     H27832   9.928   1.703   0.062 -0.8254  2.1573 -1.0610
  947MOL0     H27833   9.725   1.801   0.099 -1.8835 -0.7619 -0.3093
  947MOL0     H27834   9.797   1.879  -0.044 -0.2183  0.4148  0.1891
  947MOL0     H27835   9.655   2.056  -0.030  2.6051 -2.8885 -0.8737
  947MOL0     H27836   9.646   2.055   0.149  3.1884 -0.0315 -0.4675
  947MOL0     H27837   9.496   1.863   0.142 -2.1833  0.2189 -0.0894
  947MOL0     H27838   9.494   1.874  -0.037 -0.7850 -0.8189  0.8742
  947MOL0     H27839   9.390   2.079   0.164  3.9409  1.0381 -0.0627
  947MOL0     H27840   9.423   2.121  -0.002  0.4307 -0.1808 -0.9405
  947MOL0     H27841   9.071   1.948  -0.078  0.4236  2.0073 -0.7114
  947MOL0     H27842  10.044   2.081   0.221  0.7738  0.7200 -1.0744
  947MOL0     H27843  10.398   2.015   0.208 -1.2314  0.0726 -1.8975
  947MOL0     H27844  10.265   2.101   0.293  0.1846  0.4204 -0.3177
  947MOL0     H27845  10.332   1.958   0.376 -2.7596 -0.8267 -0.4745
  948MOL0     O27846   8.043   9.561   1.594  0.7483  0.1720  0.9054
  948MOL0     C27847   7.945   9.613   1.543  0.0926 -0.1840 -0.5214
  948MOL0     O27848   7.955   9.712   1.448 -0.0704  0.5201 -0.4510
  948MOL0     C27849   8.079   9.772   1.427 -0.9327  0.1316 -0.2396
  948MOL0     C27850   8.152   9.854   1.514 -1.1222  0.5336 -0.6358
  948MOL0     C27851   8.281   9.899   1.469  1.4107 -0.5467  0.0683
  948MOL0     C27852   8.337   9.871   1.337  0.1494 -0.2883  0.6085
  948MOL0     O27853   8.463   9.920   1.287  0.4802  0.1267  0.3725
  948MOL0     C27854   8.543   9.991   1.384  0.8482  0.2307  0.8706
  948MOL0     C27855   8.674  10.040   1.327 -0.0622 -0.5536  1.0365
  948MOL0     C27856   8.665  10.139   1.208  0.1220 -0.0197 -0.2564
  948MOL0     C27857   8.574  10.260   1.255 -0.6467  0.3987  0.0608
  948MOL0     C27858   8.622  10.393   1.193  0.2502  0.8175 -0.2898
  948MOL0     C27859   8.508  10.490   1.163  0.2495 -0.9347 -1.1069
  948MOL0     C27860   8.557  10.636   1.118  0.6306 -0.0077 -0.2031
  948MOL0     C27861   8.444  10.736   1.115 -0.2823  0.1970 -1.4429
  948MOL0     N27862   8.503  10.860   1.066  0.7903  0.0324 -0.5504
  948MOL0     C27863   8.496  10.906   0.936  0.0608  0.3811 -0.3320
  948MOL0     C27864   8.536  11.036   0.951 -0.4003 -0.0107  0.5860
  948MOL0     C27865   8.559  11.152   0.853 -0.0416  0.1210 -0.5759
  948MOL0     C27866   8.664  11.126   0.747 -0.2329  0.0713 -0.4409
  948MOL0     C27867   8.654  11.231   0.637  0.3132 -0.2333 -0.8805
  948MOL0     C27868   8.782  11.216   0.541 -0.5392 -0.1765  0.0361
  948MOL0     O27869   8.898  11.234   0.620 -0.4997 -0.7139 -0.6768
  948MOL0     C27870   9.024  11.207   0.561 -0.9469  0.3876 -0.6958
  948MOL0     C27871   9.054  11.177   0.427  0.3233  0.8541  1.2273
  948MOL0     C27872   9.181  11.146   0.385 -0.2183 -0.3650 -0.3599
  948MOL0     C27873   9.284  11.132   0.479 -0.5157  0.0026 -0.3955
  948MOL0     C27874   9.426  11.101   0.445  0.4405  0.0756  0.2027
  948MOL0     O27875   9.514  11.097   0.545  0.5957 -0.4048 -0.3329
  948MOL0     C27876   9.643  11.059   0.532  0.2302 -0.9590 -0.5807
  948MOL0     C27877   9.721  11.075   0.418 -0.5463  0.0765  0.0655
  948MOL0     C27878   9.858  11.043   0.420  0.6718  0.9427  0.1996
  948MOL0     C27879   9.917  10.996   0.535  0.1716  0.5417 -0.3120
  948MOL0     O27880  10.044  10.939   0.540  0.0791 -0.4580  0.5943
  948MOL0     C27881  10.119  10.929   0.419  0.4153  0.7395  0.2472
  948MOL0     C27882  10.258  10.874   0.447 -0.2823  0.3082 -0.8515
  948MOL0     C27883  10.337  10.840   0.319  0.5251 -0.0355 -0.8676
  948MOL0     C27884  10.476  10.782   0.339 -0.2871 -0.9267 -0.8820
  948MOL0     C27885  10.543  10.765   0.204 -0.6966  0.4624  0.7779
  948MOL0     C27886  10.684  10.711   0.215  0.4827 -0.0006 -0.2798
  948MOL0     C27887  10.746  10.674   0.081  0.3661  0.4807 -0.7203
  948MOL0     C27888  10.886  10.624   0.102  0.0062 -0.4704  0.0836
  948MOL0    Cl27889  10.894  10.506   0.252 -0.0328  0.2809  0.3181
  948MOL0     C27890   9.845  11.000   0.645 -0.9511  0.1039 -0.8296
  948MOL0     C27891   9.715  11.035   0.647  0.5560  0.1844  0.1623
  948MOL0     O27892   9.454  11.067   0.328  0.1582  0.2176  0.3996
  948MOL0     C27893   9.251  11.159   0.613  0.2661  0.4444  0.2694
  948MOL0     C27894   9.122  11.193   0.653  0.3364 -0.3978  0.5202
  948MOL0     N27895   8.567  11.056   1.090 -0.5153 -0.6434  0.2179
  948MOL0     N27896   8.541  10.952   1.154 -0.3065 -0.0142 -0.0858
  948MOL0     C27897   8.264   9.785   1.255  0.0293  0.6206  0.0005
  948MOL0     C27898   8.136   9.736   1.305 -0.2263  0.8238 -0.3489
  948MOL0     C27899   7.815   9.579   1.597 -0.8825 -0.0814  0.3951
  948MOL0     C27900   7.716   9.676   1.571  0.6894 -1.0271  0.3232
  948MOL0     C27901   7.586   9.666   1.623 -1.0203  0.1903 -0.0216
  948MOL0     C27902   7.553   9.552   1.706 -0.2997 -0.6079 -1.4772
  948MOL0     O27903   7.437   9.517   1.766 -0.8727  0.5187 -0.1967
  948MOL0     C27904   7.356   9.622   1.810  0.4006 -0.8680 -0.2561
  948MOL0     C27905   7.228   9.630   1.726 -0.3277  0.1684  0.1607
  948MOL0     C27906   7.126   9.522   1.768 -0.0627 -0.0669 -0.3939
  948MOL0     C27907   7.021   9.463   1.672 -0.3137  0.1150  0.1064
  948MOL0     C27908   6.954   9.570   1.599 -0.0858  0.3311 -0.2209
  948MOL0     C27909   6.886   9.653   1.551 -0.3950 -0.8250  0.1376
  948MOL0     C27910   7.651   9.461   1.731  0.6047 -0.3089  0.6191
  948MOL0     C27911   7.784   9.471   1.683  0.0433  0.1890 -0.0275
  948MOL0     C27912   7.874   9.363   1.732  0.0959  0.8385 -0.2715
  948MOL0     H27913   8.104   9.865   1.610 -2.0642  0.6300 -1.1073
  948MOL0     H27914   8.320   9.969   1.542  1.4416 -1.9634  1.4736
  948MOL0     H27915   8.491  10.079   1.422 -0.2460  0.4560 -1.0104
  948MOL0     H27916   8.566   9.915   1.459 -2.3064 -3.5296 -1.5427
  948MOL0     H27917   8.736   9.957   1.292  0.3133  0.7389 -1.6160
  948MOL0     H27918   8.724  10.097   1.405  2.1076  2.2770 -2.1531
  948MOL0     H27919   8.617  10.100   1.117  1.9476 -0.3844 -1.1071
  948MOL0     H27920   8.766  10.166   1.178  0.4834 -1.1206 -0.0919
  948MOL0     H27921   8.476  10.247   1.209 -0.5837  0.8782 -0.2161
  948MOL0     H27922   8.570  10.280   1.363  0.0580 -1.1341  0.4022
  948MOL0     H27923   8.678  10.436   1.277 -0.2775  0.6974  0.1287
  948MOL0     H27924   8.683  10.370   1.105 -1.1509 -0.4617 -0.9577
  948MOL0     H27925   8.447  10.450   1.081  0.4942  1.4829 -2.5536
  948MOL0     H27926   8.447  10.507   1.252  3.4882  2.7704  0.6662
  948MOL0     H27927   8.607  10.621   1.022 -1.1718 -1.2242 -0.9974
  948MOL0     H27928   8.640  10.664   1.184  1.2401 -1.4899 -0.3175
  948MOL0     H27929   8.366  10.708   1.043 -3.8676  1.6851  1.5373
  948MOL0     H27930   8.398  10.747   1.213 -0.7796  2.8414 -1.8901
  948MOL0     H27931   8.456  10.847   0.854 -2.0208 -0.8466  1.4253
  948MOL0     H27932   8.462  11.180   0.810 -0.0969  2.0299  0.6422
  948MOL0     H27933   8.593  11.238   0.912  1.6794 -0.9760  0.1082
  948MOL0     H27934   8.764  11.135   0.791 -0.5427  0.6533  0.1759
  948MOL0     H27935   8.653  11.029   0.698 -0.9124  0.0791 -0.3183
  948MOL0     H27936   8.662  11.327   0.689 -0.0633 -0.9730  0.5919
  948MOL0     H27937   8.557  11.219   0.586 -1.0289  1.5445  1.0995
  948MOL0     H27938   8.775  11.294   0.464  0.8301  2.3969  2.3373
  948MOL0     H27939   8.773  11.118   0.494 -0.8522 -0.0715 -0.1252
  948MOL0     H27940   8.976  11.173   0.352  1.1468  0.2007  0.3890
  948MOL0     H27941   9.211  11.131   0.281 -3.2693  0.6337 -1.5086
  948MOL0     H27942   9.676  11.112   0.327 -2.6570  2.4572  1.9222
  948MOL0     H27943   9.907  11.048   0.323  0.0954  0.1904 -0.1452
  948MOL0     H27944  10.072  10.861   0.347 -0.6155  2.8344 -1.1692
  948MOL0     H27945  10.121  11.024   0.366  1.8650  1.2572  1.1706
  948MOL0     H27946  10.311  10.946   0.511  0.5708 -2.1544  1.3759
  948MOL0     H27947  10.254  10.782   0.505  3.6368  1.2200  1.2812
  948MOL0     H27948  10.274  10.773   0.259  0.3175  0.8756 -1.6942
  948MOL0     H27949  10.340  10.929   0.255 -0.7780  2.3207  2.0860
  948MOL0     H27950  10.485  10.684   0.388 -0.2189 -0.9282 -0.8974
  948MOL0     H27951  10.533  10.853   0.400 -0.0947 -0.4840 -1.5688
  948MOL0     H27952  10.546  10.859   0.148  2.6501  0.0391  0.0662
  948MOL0     H27953  10.485  10.694   0.145  0.4582 -0.0530  0.2300
  948MOL0     H27954  10.747  10.785   0.265 -0.0594  2.3469 -2.8622
  948MOL0     H27955  10.677  10.615   0.268 -3.1491 -0.6438 -1.6289
  948MOL0     H27956  10.731  10.758   0.012  0.2757  0.1896 -1.0535
  948MOL0     H27957  10.691  10.589   0.040  2.9825 -1.8580  0.3271
  948MOL0     H27958  10.936  10.583   0.014  0.3943  1.8367 -0.8421
  948MOL0     H27959  10.951  10.704   0.140 -1.9953  0.3184  2.0873
  948MOL0     H27960   9.899  10.974   0.737 -2.4065 -0.2118 -0.0321
  948MOL0     H27961   9.663  11.046   0.741  2.3942 -0.7689  1.3358
  948MOL0     H27962   9.332  11.157   0.685  1.0337 -1.0104 -0.5859
  948MOL0     H27963   9.103  11.213   0.758 -0.3616  1.4319  0.0891
  948MOL0     H27964   8.305   9.740   1.165 -2.2332 -2.0025  0.1530
  948MOL0     H27965   8.086   9.659   1.247  0.3806  0.7863 -0.8411
  948MOL0     H27966   7.744   9.763   1.513 -1.3041 -1.4815 -1.4858
  948MOL0     H27967   7.523   9.743   1.580 -0.8535  1.4805  1.9469
  948MOL0     H27968   7.407   9.719   1.807  2.3396 -1.8440 -0.4689
  948MOL0     H27969   7.330   9.612   1.916  0.4922 -0.9992 -0.2456
  948MOL0     H27970   7.250   9.608   1.621  0.5038 -3.9049  1.0007
  948MOL0     H27971   7.174   9.725   1.730  0.7475  0.7440  1.3087
  948MOL0     H27972   7.083   9.554   1.863 -0.3708 -0.8149 -0.2727
  948MOL0     H27973   7.188   9.436   1.795  1.7369  0.7548 -1.6940
  948MOL0     H27974   7.080   9.402   1.603 -1.5055  2.0077 -2.7849
  948MOL0     H27975   6.947   9.407   1.731  0.7138  0.6838  2.0205
  948MOL0     H27976   6.823   9.730   1.510  2.5303  1.6199 -0.0814
  948MOL0     H27977   7.625   9.373   1.790  0.9461  0.2887  1.7000
  948MOL0     H27978   7.946   9.337   1.654  1.5501 -0.4072  1.3851
  948MOL0     H27979   7.917   9.394   1.828  0.4617 -0.0912 -0.1168
  948MOL0     H27980   7.822   9.270   1.756 -0.2505  1.2170  0.4904
  949MOL0     O27981   4.845   3.518   9.299 -0.3498 -0.0037 -0.4617
  949MOL0     C27982   4.740   3.551   9.365 -0.1297  0.3259 -0.6909
  949MOL0     O27983   4.752   3.627   9.488 -0.6766  0.4126  0.3124
  949MOL0     C27984   4.878   3.655   9.540  0.8781  0.2512  0.4303
  949MOL0     C27985   4.924   3.597   9.656  0.3951  0.1079  0.3134
  949MOL0     C27986   5.053   3.612   9.707 -0.7447  0.0610 -0.7288
  949MOL0     C27987   5.143   3.686   9.635 -0.4427 -0.1988 -0.4747
  949MOL0     O27988   5.271   3.713   9.669 -0.1950  0.2518  0.1646
  949MOL0     C27989   5.363   3.599   9.684 -0.3010 -0.3845 -0.2722
  949MOL0     C27990   5.502   3.664   9.666  0.2649  0.1502 -0.4739
  949MOL0     C27991   5.599   3.577   9.743 -0.2596 -0.2545 -0.2033
  949MOL0     C27992   5.748   3.619   9.723 -0.7647 -0.5602  0.2555
  949MOL0     C27993   5.775   3.733   9.814 -0.1091 -0.5883  0.8680
  949MOL0     C27994   5.934   3.766   9.794  0.3132 -0.2137 -0.6899
  949MOL0     C27995   5.983   3.856   9.910  0.3686 -0.7422  1.0318
  949MOL0     C27996   6.134   3.857   9.920  0.4906 -0.2192  0.1527
  949MOL0     N27997   6.170   3.940  10.041  0.5535 -0.0709 -0.0439
  949MOL0     C27998   6.147   4.079  10.048  0.2794 -0.1183  0.0511
  949MOL0     C27999   6.160   4.094  10.181 -0.1269 -0.2032 -0.6309
  949MOL0     C28000   6.148   4.228  10.256  0.7298 -0.5051 -0.0956
  949MOL0     C28001   6.292   4.284  10.291 -0.0318  0.1184  0.2859
  949MOL0     C28002   6.287   4.426  10.343  0.1998 -0.0727  0.4869
  949MOL0     C28003   6.239   4.528  10.234 -0.1508  0.5763 -0.5771
  949MOL0     O28004   6.306   4.526  10.108 -0.2308 -0.5504 -1.2124
  949MOL0     C28005   6.432   4.571  10.095 -0.9221  0.0897 -0.7288
  949MOL0     C28006   6.507   4.559   9.974  0.4353 -0.2886 -1.0386
  949MOL0     C28007   6.638   4.610   9.951 -0.0223 -0.5059  0.3779
  949MOL0     C28008   6.705   4.656  10.069  0.4515  0.0164  0.3857
  949MOL0     C28009   6.838   4.713  10.060  0.4243 -0.3192  0.5409
  949MOL0     O28010   6.860   4.794   9.949 -0.0346 -0.6037 -0.7223
  949MOL0     C28011   6.978   4.851   9.918  0.1539 -0.5549  0.0806
  949MOL0     C28012   7.096   4.855   9.992  0.1239  0.7103  0.2371
  949MOL0     C28013   7.213   4.917   9.937  0.4484  1.1194 -0.5229
  949MOL0     C28014   7.213   4.992   9.819  0.8837  0.3438 -0.0282
  949MOL0     O28015   7.323   5.063   9.774  0.0015 -0.3939  0.2186
  949MOL0     C28016   7.318   5.112   9.642 -0.2782  0.4520 -0.2547
  949MOL0     C28017   7.448   5.192   9.624 -0.7463 -0.9968  0.0074
  949MOL0     C28018   7.572   5.111   9.625  0.1194  1.1035  0.0711
  949MOL0     C28019   7.579   5.005   9.512 -0.5285 -0.4961 -0.3207
  949MOL0     C28020   7.713   4.918   9.526  0.1084  0.4974  1.1738
  949MOL0     C28021   7.726   4.802   9.426 -0.6752 -0.0146  0.6365
  949MOL0     C28022   7.712   4.851   9.286  0.1070  1.3627  0.4082
  949MOL0     C28023   7.783   4.765   9.182  0.4665  0.0788  0.0178
  949MOL0    Cl28024   7.784   4.865   9.047 -0.0753 -0.1420 -0.1605
  949MOL0     C28025   7.092   4.993   9.753  0.0545 -0.5285 -0.5560
  949MOL0     C28026   6.980   4.920   9.796  0.1650  0.1837  0.0155
  949MOL0     O28027   6.915   4.687  10.144 -0.0379 -0.0372 -0.5208
  949MOL0     C28028   6.649   4.644  10.193  0.2972 -0.0115 -0.3613
  949MOL0     C28029   6.513   4.612  10.203 -0.2439  0.3045  0.1932
  949MOL0     N28030   6.195   3.979  10.252 -0.6651 -0.5288 -0.1526
  949MOL0     N28031   6.199   3.884  10.162  0.1421  1.4869 -0.5133
  949MOL0     C28032   5.102   3.745   9.515 -0.4635  0.1791 -0.1971
  949MOL0     C28033   4.968   3.728   9.468 -0.8038  0.3864 -0.2635
  949MOL0     C28034   4.604   3.506   9.315  0.4216 -0.8011  0.0751
  949MOL0     C28035   4.485   3.578   9.357  0.6203 -0.0430  0.5888
  949MOL0     C28036   4.357   3.545   9.299  0.1717  0.3515  0.3606
  949MOL0     C28037   4.340   3.445   9.205  0.3701  0.2493 -0.0980
  949MOL0     O28038   4.221   3.430   9.143  0.3661 -0.5263  0.5260
  949MOL0     C28039   4.104   3.474   9.223 -0.1997  0.3940  0.5125
  949MOL0     C28040   3.981   3.384   9.189  0.4998  0.3060 -0.5835
  949MOL0     C28041   3.864   3.438   9.270  0.2680  0.1643 -0.6906
  949MOL0     C28042   3.734   3.360   9.241  0.2818  0.6423  0.3368
  949MOL0     C28043   3.676   3.390   9.113 -0.3440  0.8038 -0.2753
  949MOL0     C28044   3.630   3.414   9.003 -0.1527 -0.2008 -0.3306
  949MOL0     C28045   4.446   3.361   9.181 -0.2019 -0.2203 -0.1810
  949MOL0     C28046   4.576   3.387   9.238 -0.0299 -0.6626  0.8868
  949MOL0     C28047   4.675   3.284   9.220 -0.6419 -0.0847  0.2362
  949MOL0     H28048   4.848   3.536   9.702  0.9324 -3.0386 -2.5439
  949MOL0     H28049   5.080   3.559   9.799 -0.3381 -0.4622 -1.1422
  949MOL0     H28050   5.356   3.544   9.778 -2.2091 -1.3809 -0.9262
  949MOL0     H28051   5.349   3.529   9.601  0.2460  0.8545 -1.4533
  949MOL0     H28052   5.508   3.769   9.696  1.4765 -0.3035  0.9840
  949MOL0     H28053   5.538   3.658   9.563  1.7762  1.4212 -0.0574
  949MOL0     H28054   5.579   3.474   9.715 -1.2340 -0.4887  1.1847
  949MOL0     H28055   5.575   3.586   9.850  2.8161  1.5363  0.4547
  949MOL0     H28056   5.827   3.549   9.747  0.1980  0.6420  0.7122
  949MOL0     H28057   5.768   3.641   9.618 -2.0177  0.6218  0.2311
  949MOL0     H28058   5.706   3.816   9.794 -0.5445 -1.1527 -0.0332
  949MOL0     H28059   5.752   3.702   9.916  0.1469  1.9700  1.7648
  949MOL0     H28060   5.997   3.677   9.793  1.0589  0.2814 -3.1588
  949MOL0     H28061   5.947   3.809   9.694 -2.0821 -0.2134 -1.0571
  949MOL0     H28062   5.946   3.816  10.004 -2.9046 -0.2239  0.0961
  949MOL0     H28063   5.934   3.954   9.903  0.3320 -0.8662 -1.3840
  949MOL0     H28064   6.182   3.759   9.922 -1.3493 -1.1420  1.4768
  949MOL0     H28065   6.172   3.912   9.833  0.7379 -1.6656 -0.6781
  949MOL0     H28066   6.117   4.150   9.972 -1.1686  2.2664  2.6863
  949MOL0     H28067   6.084   4.293  10.196 -1.4683 -1.4163  1.1484
  949MOL0     H28068   6.098   4.205  10.350  2.0986  1.2646  1.1455
  949MOL0     H28069   6.318   4.221  10.375 -0.2548 -2.3668 -1.4077
  949MOL0     H28070   6.354   4.274  10.201 -0.1127 -1.3622  0.3757
  949MOL0     H28071   6.384   4.462  10.380 -0.0868 -0.0041  1.1642
  949MOL0     H28072   6.214   4.427  10.423 -0.5861  2.1176 -0.1829
  949MOL0     H28073   6.232   4.629  10.276 -3.7510  0.1645  0.1415
  949MOL0     H28074   6.134   4.503  10.218 -0.4987  1.4946  0.2132
  949MOL0     H28075   6.463   4.519   9.884 -3.2078  0.5436  0.2062
  949MOL0     H28076   6.675   4.613   9.849 -2.9506 -0.7225 -0.8165
  949MOL0     H28077   7.111   4.809  10.090 -0.8564  0.3271  0.2127
  949MOL0     H28078   7.302   4.919  10.000  0.1748  1.0844 -0.1277
  949MOL0     H28079   7.314   5.024   9.577 -1.6047  0.0131  0.3920
  949MOL0     H28080   7.234   5.180   9.626  0.3614  1.6512  1.2320
  949MOL0     H28081   7.440   5.237   9.525 -1.1282 -3.1623 -1.0068
  949MOL0     H28082   7.464   5.258   9.710 -0.7565  0.5979 -1.1830
  949MOL0     H28083   7.660   5.175   9.621  0.4402  0.7040  0.6248
  949MOL0     H28084   7.579   5.053   9.717  1.9592  0.0844 -0.6531
  949MOL0     H28085   7.588   5.057   9.416  1.6369  0.1198  0.1748
  949MOL0     H28086   7.489   4.942   9.510 -1.0974  0.2348 -3.1645
  949MOL0     H28087   7.718   4.875   9.627  1.6195 -1.4080  0.3545
  949MOL0     H28088   7.802   4.980   9.513  0.9382 -1.2403 -2.9299
  949MOL0     H28089   7.821   4.752   9.447 -2.1543 -1.5387  4.6020
  949MOL0     H28090   7.658   4.717   9.438 -0.5403 -0.0208  1.4307
  949MOL0     H28091   7.756   4.952   9.282  0.3378  1.3371  1.6901
  949MOL0     H28092   7.608   4.864   9.257 -0.0722 -0.4946  0.1425
  949MOL0     H28093   7.890   4.757   9.204  0.7916 -1.3232 -1.8548
  949MOL0     H28094   7.730   4.670   9.170 -2.4150  1.4992  0.7007
  949MOL0     H28095   7.081   5.035   9.654  0.5808  0.4119 -0.2290
  949MOL0     H28096   6.887   4.920   9.741 -0.5940 -2.0518  1.1668
  949MOL0     H28097   6.694   4.679  10.286 -1.2073  1.9983 -0.3125
  949MOL0     H28098   6.473   4.618  10.304 -1.3574  1.1586 -0.2840
  949MOL0     H28099   5.181   3.793   9.457 -0.2353  3.5261  2.5404
  949MOL0     H28100   4.945   3.754   9.365 -1.0714 -0.2033 -0.3553
  949MOL0     H28101   4.495   3.656   9.432  0.6311 -0.7405  1.3392
  949MOL0     H28102   4.277   3.616   9.320  0.1304  0.2621  0.5095
  949MOL0     H28103   4.087   3.580   9.202  0.7899  0.3585 -0.5868
  949MOL0     H28104   4.121   3.471   9.331  1.6515  0.3792  0.2593
  949MOL0     H28105   4.014   3.286   9.226  0.6260  0.4983 -0.1817
  949MOL0     H28106   3.960   3.375   9.082  3.0471 -2.0753 -0.9924
  949MOL0     H28107   3.847   3.542   9.241  1.3745  1.1914  2.0279
  949MOL0     H28108   3.895   3.421   9.374  1.6206 -0.0367 -1.1056
  949MOL0     H28109   3.740   3.255   9.268  1.6008  0.3292 -1.0340
  949MOL0     H28110   3.657   3.389   9.312 -0.6520 -1.0679  0.0720
  949MOL0     H28111   3.607   3.438   8.901  1.9915 -0.5750 -0.9550
  949MOL0     H28112   4.433   3.269   9.125  1.3531  1.2853 -3.2477
  949MOL0     H28113   4.630   3.189   9.251 -2.3309 -0.0859 -1.9626
  949MOL0     H28114   4.707   3.268   9.117 -1.4300 -0.3408  0.0223
  949MOL0     H28115   4.773   3.296   9.267 -0.5475 -0.9910  0.2868
  950MOL0     O28116   3.111   4.020   9.876  0.7830  0.7476  0.1094
  950MOL0     C28117   3.046   4.076   9.967  0.2667 -0.4682 -0.0458
  950MOL0     O28118   3.092   4.133  10.079 -0.5419 -0.5292  0.5528
  950MOL0     C28119   3.229   4.144  10.078 -0.3180 -0.7066 -0.4381
  950MOL0     C28120   3.304   4.064  10.169  0.3541 -0.1234 -0.2838
  950MOL0     C28121   3.438   4.075  10.169 -0.5608  1.1366  0.1552
  950MOL0     C28122   3.500   4.172  10.090  0.1102 -0.5777 -0.9135
  950MOL0     O28123   3.630   4.194  10.079 -0.9917 -0.2186 -0.1270
  950MOL0     C28124   3.714   4.183  10.196 -0.5646  0.5642  0.5358
  950MOL0     C28125   3.863   4.144  10.153  0.0562  0.6407  0.9146
  950MOL0     C28126   3.961   4.206  10.252  0.2467 -0.2684  0.2235
  950MOL0     C28127   4.037   4.322  10.190 -0.8163  0.4785 -0.8964
  950MOL0     C28128   4.155   4.372  10.278 -0.2964  0.2637  0.6384
  950MOL0     C28129   4.238   4.476  10.210 -0.8016 -0.4540 -0.2478
  950MOL0     C28130   4.381   4.483  10.275 -0.2507  0.2114  0.1507
  950MOL0     C28131   4.483   4.371  10.257 -0.2824 -0.1263 -0.2049
  950MOL0     N28132   4.620   4.405  10.297 -0.0486  0.1961  0.6993
  950MOL0     C28133   4.647   4.456  10.421 -0.6998  0.1104  0.2582
  950MOL0     C28134   4.783   4.482  10.416 -0.1542  1.2185 -0.1919
  950MOL0     C28135   4.864   4.524  10.525  0.6978  0.1958 -0.6923
  950MOL0     C28136   5.015   4.531  10.489  0.4749  0.1038  0.5496
  950MOL0     C28137   5.103   4.597  10.594  0.0201  0.0382 -0.1231
  950MOL0     C28138   5.247   4.620  10.542  0.0853 -0.6225 -0.2853
  950MOL0     O28139   5.318   4.721  10.620  1.0102  0.1487  0.6247
  950MOL0     C28140   5.447   4.755  10.587  0.5368 -0.1294  0.2271
  950MOL0     C28141   5.514   4.836  10.677  0.4004  0.3328  0.1113
  950MOL0     C28142   5.640   4.874  10.652 -1.1444  0.2042 -0.2629
  950MOL0     C28143   5.714   4.839  10.539 -0.0239 -0.3910 -0.2868
  950MOL0     C28144   5.861   4.882  10.531 -0.0780  0.3386 -0.8959
  950MOL0     O28145   5.939   4.812  10.445 -0.2527 -0.6860  0.3568
  950MOL0     C28146   6.069   4.841  10.427 -1.3149  0.3210  0.7924
  950MOL0     C28147   6.163   4.845  10.524  1.2148  0.2437  0.4406
  950MOL0     C28148   6.297   4.874  10.491 -0.2011  0.1567  0.2158
  950MOL0     C28149   6.335   4.904  10.361  0.6571  0.3306  0.1387
  950MOL0     O28150   6.463   4.932  10.346 -0.3503 -0.8774  0.2498
  950MOL0     C28151   6.513   4.978  10.218  0.4568  0.0069  0.6417
  950MOL0     C28152   6.653   5.036  10.235 -0.8979  0.0615  1.2156
  950MOL0     C28153   6.689   5.111  10.106 -0.1658 -0.2771 -0.2673
  950MOL0     C28154   6.831   5.173  10.126  0.1342 -0.7237 -0.6675
  950MOL0     C28155   6.884   5.256  10.007 -0.0080 -0.2813 -0.0457
  950MOL0     C28156   7.017   5.321  10.057 -0.0304  0.2846  0.8812
  950MOL0     C28157   7.083   5.394   9.947  0.1475 -0.1494  0.2457
  950MOL0     C28158   7.228   5.424   9.990  0.5338  0.5858  0.6462
  950MOL0    Cl28159   7.312   5.511   9.862  0.0447 -0.2335 -0.4859
  950MOL0     C28160   6.235   4.901  10.259  0.0060 -0.7340 -0.3870
  950MOL0     C28161   6.098   4.874  10.297  0.0229  0.0843 -0.5867
  950MOL0     O28162   5.905   4.959  10.615 -0.1907 -0.0557  0.8096
  950MOL0     C28163   5.652   4.756  10.444  0.0485  1.2387 -0.3077
  950MOL0     C28164   5.517   4.709  10.474  0.0732 -0.4702 -0.2797
  950MOL0     N28165   4.824   4.449  10.288  1.1022 -0.9209 -0.0765
  950MOL0     N28166   4.730   4.404  10.216 -0.2368  0.2717 -0.2278
  950MOL0     C28167   3.427   4.263  10.019  0.1191 -0.0110  0.2819
  950MOL0     C28168   3.295   4.243  10.007  0.5791 -0.2213 -0.2960
  950MOL0     C28169   2.896   4.075   9.945  0.4431 -0.2474 -0.1925
  950MOL0     C28170   2.819   4.121  10.056  0.6097 -0.3057 -0.4346
  950MOL0     C28171   2.680   4.113  10.057  0.6583  0.0502 -0.0012
  950MOL0     C28172   2.619   4.068   9.945  0.8639 -0.0632  0.0577
  950MOL0     O28173   2.480   4.073   9.962 -0.5468 -0.3877  0.2888
  950MOL0     C28174   2.400   4.052   9.847 -0.4638  0.1899  0.2281
  950MOL0     C28175   2.350   3.910   9.847 -0.1038  0.6679 -0.4688
  950MOL0     C28176   2.268   3.866   9.973 -0.2434  0.6301  0.4121
  950MOL0     C28177   2.252   3.718   9.977 -0.1512  0.4864  0.1066
  950MOL0     C28178   2.360   3.644  10.039  0.2992 -1.2321  0.3620
  950MOL0     C28179   2.436   3.572  10.097 -0.6887  0.1751  0.7115
  950MOL0     C28180   2.690   4.021   9.834 -0.0781 -0.1370  0.1420
  950MOL0     C28181   2.829   4.025   9.830 -0.1223  0.2703 -0.1207
  950MOL0     C28182   2.891   3.997   9.698 -0.1071 -0.7520  0.2306
  950MOL0     H28183   3.252   3.995  10.235  0.0218  0.0392 -0.3721
  950MOL0     H28184   3.492   3.996  10.219 -1.3943 -0.6447 -1.6325
  950MOL0     H28185   3.708   4.275  10.255 -0.4868 -0.5670  2.3770
  950MOL0     H28186   3.683   4.110  10.271 -2.9855  1.9872  1.0250
  950MOL0     H28187   3.880   4.162  10.047 -1.1405  0.0564  0.6114
  950MOL0     H28188   3.864   4.035  10.162  0.0887  0.6627  1.1867
  950MOL0     H28189   4.044   4.136  10.267 -0.1435 -0.7282  0.2337
  950MOL0     H28190   3.909   4.236  10.343 -1.4061 -1.0778 -0.4155
  950MOL0     H28191   4.074   4.287  10.093  0.1559 -0.5454 -0.1821
  950MOL0     H28192   3.958   4.396  10.175 -1.8394 -0.6040 -1.0240
  950MOL0     H28193   4.112   4.405  10.373  0.7672 -1.0539  1.6208
  950MOL0     H28194   4.223   4.287  10.289 -1.9717 -1.0550  1.2110
  950MOL0     H28195   4.251   4.443  10.107 -0.0183  0.8794 -0.5991
  950MOL0     H28196   4.195   4.576  10.218 -2.2903 -0.9810 -1.1767
  950MOL0     H28197   4.374   4.508  10.381  1.5044  1.1457  0.0688
  950MOL0     H28198   4.427   4.570  10.229 -0.9131  0.2532 -0.4620
  950MOL0     H28199   4.446   4.289  10.320 -3.2789  2.9575  2.4017
  950MOL0     H28200   4.482   4.338  10.153  0.0833  2.1551 -0.9797
  950MOL0     H28201   4.589   4.478  10.510 -3.6074  3.4755 -2.1727
  950MOL0     H28202   4.826   4.622  10.553 -1.7538 -0.3170 -2.0258
  950MOL0     H28203   4.854   4.450  10.605 -0.8272  0.6406 -0.4441
  950MOL0     H28204   5.056   4.430  10.475  1.9910  0.5570  1.4542
  950MOL0     H28205   5.029   4.592  10.399  1.0444  0.9218  1.1811
  950MOL0     H28206   5.111   4.515  10.667  2.2296  0.5827  0.3296
  950MOL0     H28207   5.067   4.692  10.634  2.0950  0.4849  0.8550
  950MOL0     H28208   5.246   4.661  10.440  0.2640  0.2532  0.0597
  950MOL0     H28209   5.294   4.521  10.535 -0.6354 -0.9971 -0.0084
  950MOL0     H28210   5.459   4.861  10.767 -0.7366 -0.6824 -0.2839
  950MOL0     H28211   5.685   4.923  10.738  0.2035  1.1880 -1.4851
  950MOL0     H28212   6.135   4.822  10.626  2.8332  1.0249  1.0926
  950MOL0     H28213   6.374   4.883  10.567  1.3052  1.3797 -1.3495
  950MOL0     H28214   6.515   4.898  10.144  0.5364  2.0337 -1.6887
  950MOL0     H28215   6.444   5.053  10.178  0.7914 -0.7630 -1.4625
  950MOL0     H28216   6.650   5.099  10.325  2.7390 -3.0838  3.8752
  950MOL0     H28217   6.725   4.955  10.251 -1.4582 -0.5013  0.9234
  950MOL0     H28218   6.683   5.055  10.012 -1.2087  0.3265 -0.5735
  950MOL0     H28219   6.626   5.199  10.090 -0.2253  0.0233  1.4076
  950MOL0     H28220   6.910   5.105  10.160  0.9642  1.3823  1.9502
  950MOL0     H28221   6.816   5.243  10.209 -1.5622 -0.5814 -1.0693
  950MOL0     H28222   6.809   5.334   9.991  1.3402  1.1722  0.4715
  950MOL0     H28223   6.904   5.200   9.915  2.3845  1.8060 -0.9023
  950MOL0     H28224   6.987   5.388  10.138 -0.7019  1.7459 -0.5197
  950MOL0     H28225   7.080   5.239  10.093 -0.2201  0.3183  1.2966
  950MOL0     H28226   7.031   5.488   9.928 -3.5250 -1.6244  2.0381
  950MOL0     H28227   7.104   5.326   9.863  1.7391  0.7856 -0.1686
  950MOL0     H28228   7.228   5.473  10.088  3.2269  1.2939  0.3711
  950MOL0     H28229   7.268   5.324  10.011 -1.3414  0.4640  4.5439
  950MOL0     H28230   6.259   4.918  10.154 -1.5317  1.9795 -0.3789
  950MOL0     H28231   6.018   4.875  10.224 -1.4613  3.7944  0.8728
  950MOL0     H28232   5.704   4.734  10.351  2.5787  2.5127  0.7085
  950MOL0     H28233   5.455   4.649  10.408 -0.4362 -0.1551 -0.0942
  950MOL0     H28234   3.470   4.348   9.966  1.9645 -0.6266  0.6878
  950MOL0     H28235   3.240   4.307   9.939  1.6176  0.7789 -0.2250
  950MOL0     H28236   2.856   4.160  10.151 -0.4221  0.6668 -0.4132
  950MOL0     H28237   2.625   4.147  10.145 -2.2104 -0.6991 -1.3620
  950MOL0     H28238   2.454   4.075   9.754 -4.2127  4.7252 -1.2355
  950MOL0     H28239   2.311   4.114   9.862  1.7946  3.7105  0.2918
  950MOL0     H28240   2.449   3.864   9.843  0.3793  1.5761  0.5579
  950MOL0     H28241   2.292   3.891   9.756  0.8031  2.7680 -1.5532
  950MOL0     H28242   2.165   3.899   9.964 -0.4012  0.5254  1.6500
  950MOL0     H28243   2.310   3.888  10.072 -0.4337  0.9728  0.4174
  950MOL0     H28244   2.159   3.689  10.027  0.6954  0.1688  1.5683
  950MOL0     H28245   2.231   3.681   9.876  0.7981  3.9717 -1.5138
  950MOL0     H28246   2.508   3.511  10.147 -0.4308  1.0488  1.4226
  950MOL0     H28247   2.637   3.987   9.745  1.2016 -3.0478  0.3853
  950MOL0     H28248   2.935   4.087   9.654 -4.2153  0.5318 -1.7582
  950MOL0     H28249   2.966   3.918   9.706 -0.8263 -1.3391  1.4539
  950MOL0     H28250   2.815   3.966   9.625 -0.5622 -3.2003  1.6134
  951MOL0     O28251   5.585   1.747   3.408 -0.2876  0.2143  0.1897
  951MOL0     C28252   5.558   1.817   3.503 -0.3366 -0.1988 -0.1010
  951MOL0     O28253   5.653   1.870   3.580 -0.5489 -0.1939 -0.2261
  951MOL0     C28254   5.792   1.848   3.556 -0.7009  0.9218  0.1391
  951MOL0     C28255   5.872   1.826   3.669  1.0619 -0.0619  0.1441
  951MOL0     C28256   6.010   1.784   3.656 -0.4653 -1.3185  0.0361
  951MOL0     C28257   6.060   1.753   3.529 -0.1046  0.3306 -0.4662
  951MOL0     O28258   6.189   1.705   3.515  0.3062 -0.1472  0.7174
  951MOL0     C28259   6.227   1.579   3.575  0.2580 -0.4822  1.0254
  951MOL0     C28260   6.362   1.599   3.654  0.5794 -0.3195  0.4653
  951MOL0     C28261   6.435   1.482   3.711 -0.7273 -0.5612 -0.2222
  951MOL0     C28262   6.560   1.521   3.797  0.3247  0.6123 -0.2244
  951MOL0     C28263   6.637   1.397   3.833  0.3287  0.1451  0.0322
  951MOL0     C28264   6.740   1.423   3.941 -1.0968 -0.1925  0.0959
  951MOL0     C28265   6.822   1.304   3.988 -0.5834 -0.5020  0.1588
  951MOL0     C28266   6.942   1.279   3.903  0.2727  0.0323 -0.0919
  951MOL0     N28267   6.993   1.147   3.948 -0.5513  0.3459 -0.2373
  951MOL0     C28268   7.034   1.114   4.073  0.1560  0.3399 -1.1292
  951MOL0     C28269   7.062   0.984   4.063 -0.2749  1.0987  0.2157
  951MOL0     C28270   7.088   0.896   4.180 -0.1159 -0.1282 -0.3466
  951MOL0     C28271   7.231   0.842   4.140  0.4840 -0.2531  0.7499
  951MOL0     C28272   7.277   0.743   4.252 -0.1114  0.4721 -0.3793
  951MOL0     C28273   7.433   0.741   4.255  0.0709  0.2027  0.2880
  951MOL0     O28274   7.482   0.664   4.139  0.5817  0.1014 -0.7242
  951MOL0     C28275   7.602   0.609   4.144 -0.6213  0.1428 -0.6514
  951MOL0     C28276   7.660   0.593   4.018 -0.0192 -0.1166 -0.2240
  951MOL0     C28277   7.793   0.538   4.014 -0.8186 -0.7057  0.0010
  951MOL0     C28278   7.866   0.500   4.130 -0.1830  0.0528  0.9656
  951MOL0     C28279   8.004   0.433   4.121 -0.2720 -0.8835  0.2636
  951MOL0     O28280   8.066   0.444   3.996  0.0331  0.4305  0.6241
  951MOL0     C28281   8.185   0.374   3.968 -0.6805  0.2737 -0.6855
  951MOL0     C28282   8.218   0.360   3.837 -0.7041 -0.9700  0.7376
  951MOL0     C28283   8.335   0.292   3.793  0.5022  0.8274 -0.0111
  951MOL0     C28284   8.419   0.238   3.889 -0.5774 -0.1355  0.8228
  951MOL0     O28285   8.529   0.171   3.842  0.3321  0.7587  0.2060
  951MOL0     C28286   8.619   0.106   3.936  0.3449 -0.7354  0.5855
  951MOL0     C28287   8.727   0.041   3.847 -0.3202  0.0085  0.3693
  951MOL0     C28288   8.677  -0.044   3.719 -0.1292 -0.3144  0.5898
  951MOL0     C28289   8.613  -0.173   3.768  0.3160  0.3239 -0.3605
  951MOL0     C28290   8.598  -0.278   3.671 -0.6864  0.7672  0.1083
  951MOL0     C28291   8.475  -0.263   3.580 -1.1086  0.3671  0.4376
  951MOL0     C28292   8.448  -0.398   3.514  0.3063 -0.6295  0.1303
  951MOL0     C28293   8.381  -0.370   3.373 -0.5315 -0.4955  0.4901
  951MOL0    Cl28294   8.202  -0.325   3.406  0.2070 -0.0229 -0.4287
  951MOL0     C28295   8.385   0.232   4.026 -0.2109 -1.0954  0.3568
  951MOL0     C28296   8.268   0.301   4.062 -1.3500 -0.0494  0.8951
  951MOL0     O28297   8.060   0.396   4.222  0.6942 -0.9039  0.1232
  951MOL0     C28298   7.803   0.515   4.251  0.4106  0.3743 -0.2029
  951MOL0     C28299   7.668   0.561   4.262 -0.2249 -0.0859  0.5903
  951MOL0     N28300   7.047   0.944   3.928  0.3039 -0.0089 -0.6271
  951MOL0     N28301   7.005   1.043   3.863  0.7980  0.8431 -0.0675
  951MOL0     C28302   5.986   1.778   3.415  0.0609 -0.1521 -0.5782
  951MOL0     C28303   5.855   1.832   3.430 -0.1079 -0.0178 -0.8409
  951MOL0     C28304   5.413   1.823   3.540  0.0349 -0.0231  0.0950
  951MOL0     C28305   5.319   1.751   3.461  0.2468 -0.3650 -0.2049
  951MOL0     C28306   5.183   1.758   3.499 -0.6747 -0.2372 -0.7727
  951MOL0     C28307   5.134   1.814   3.611  0.4339 -0.0344  0.3159
  951MOL0     O28308   5.002   1.815   3.646 -0.2637 -0.3930  0.0723
  951MOL0     C28309   4.923   1.915   3.576 -0.6429  1.1051 -0.5643
  951MOL0     C28310   4.802   1.953   3.670  0.5224  0.4097  0.2166
  951MOL0     C28311   4.685   1.848   3.648  0.0869 -0.2393  0.1542
  951MOL0     C28312   4.550   1.906   3.698 -0.6119 -0.1905 -0.2885
  951MOL0     C28313   4.548   1.937   3.843 -0.1704 -0.2276  0.1606
  951MOL0     C28314   4.544   1.966   3.960  0.1637  0.0271  0.5495
  951MOL0     C28315   5.228   1.882   3.693 -0.3575  0.0539  0.1442
  951MOL0     C28316   5.365   1.893   3.652  0.1469  0.4263 -0.1660
  951MOL0     C28317   5.460   1.972   3.747 -0.7118 -0.1215 -0.6175
  951MOL0     H28318   5.825   1.824   3.767 -0.8413  2.6429 -0.5827
  951MOL0     H28319   6.066   1.746   3.741 -2.0842 -0.8761  1.3544
  951MOL0     H28320   6.150   1.552   3.648 -0.7102  3.0487  1.4836
  951MOL0     H28321   6.229   1.505   3.494 -0.7383  1.4794 -0.8758
  951MOL0     H28322   6.350   1.657   3.747  1.1666 -1.4784  1.2858
  951MOL0     H28323   6.433   1.641   3.582 -1.7160  0.6788 -1.3292
  951MOL0     H28324   6.476   1.429   3.624  0.2848  0.9330 -0.6973
  951MOL0     H28325   6.360   1.428   3.769 -2.1271  0.0306 -1.4331
  951MOL0     H28326   6.625   1.591   3.743  4.6810 -2.1887  0.8403
  951MOL0     H28327   6.515   1.569   3.884  0.5917  0.8987 -0.2423
  951MOL0     H28328   6.563   1.330   3.877  0.0667  1.0270  0.9794
  951MOL0     H28329   6.681   1.360   3.739 -0.2890  0.0117 -0.2090
  951MOL0     H28330   6.811   1.497   3.903 -1.7786 -0.0301 -0.8989
  951MOL0     H28331   6.690   1.471   4.026  1.5459  0.9132  1.1362
  951MOL0     H28332   6.756   1.218   3.976 -0.3659 -0.5356 -0.9455
  951MOL0     H28333   6.848   1.309   4.094  0.1670  0.9336 -0.0589
  951MOL0     H28334   6.921   1.284   3.796 -2.1801  1.1740  0.3692
  951MOL0     H28335   7.016   1.358   3.913  0.3480  0.4280 -2.9697
  951MOL0     H28336   7.040   1.175   4.163 -0.2104  0.6932 -1.3355
  951MOL0     H28337   7.088   0.945   4.278  0.1711  0.9055 -0.8500
  951MOL0     H28338   7.012   0.818   4.185 -0.4306  0.2343  2.7296
  951MOL0     H28339   7.221   0.790   4.044 -2.5407 -0.4991  1.1113
  951MOL0     H28340   7.303   0.924   4.134  2.5304 -2.0245 -0.2219
  951MOL0     H28341   7.229   0.645   4.243 -1.5451  1.2000 -1.0974
  951MOL0     H28342   7.237   0.785   4.344  1.3982 -0.0212  0.5440
  951MOL0     H28343   7.458   0.685   4.346 -0.9130  0.6612  0.8587
  951MOL0     H28344   7.483   0.838   4.255  3.9527 -1.5818  0.6324
  951MOL0     H28345   7.597   0.628   3.937  0.1129 -1.4514 -0.9175
  951MOL0     H28346   7.833   0.522   3.914 -1.4352 -0.2192 -0.3353
  951MOL0     H28347   8.154   0.409   3.764  1.5626 -1.3759 -1.6663
  951MOL0     H28348   8.367   0.289   3.690 -1.5332 -0.9565 -0.6682
  951MOL0     H28349   8.675   0.181   3.992  1.3931 -0.1560 -1.1713
  951MOL0     H28350   8.584   0.024   4.000  0.3633 -3.7785 -2.8996
  951MOL0     H28351   8.775   0.130   3.806 -0.9984  1.3359  2.3279
  951MOL0     H28352   8.795  -0.023   3.904 -0.4288 -3.5464 -3.0223
  951MOL0     H28353   8.606   0.016   3.662  0.6589  2.3557  2.2305
  951MOL0     H28354   8.757  -0.080   3.655  0.0135 -0.7156  0.9835
  951MOL0     H28355   8.515  -0.148   3.809  0.2046 -0.4828 -0.1198
  951MOL0     H28356   8.664  -0.218   3.854 -1.0093 -0.5950 -0.0397
  951MOL0     H28357   8.573  -0.364   3.735 -0.9283  0.6397 -0.1561
  951MOL0     H28358   8.690  -0.302   3.617 -1.2753  0.4341 -0.7670
  951MOL0     H28359   8.388  -0.258   3.647  0.9628 -0.5941  3.4042
  951MOL0     H28360   8.476  -0.183   3.506  0.0908 -0.0481 -0.0225
  951MOL0     H28361   8.382  -0.459   3.576  1.4066 -2.7793 -0.6846
  951MOL0     H28362   8.540  -0.452   3.489  1.0321  0.8400 -0.5008
  951MOL0     H28363   8.429  -0.290   3.316 -1.3079  0.0393  0.5779
  951MOL0     H28364   8.384  -0.467   3.321 -0.0293 -0.0659 -0.3005
  951MOL0     H28365   8.447   0.193   4.106 -0.3825 -1.2928  0.3941
  951MOL0     H28366   8.255   0.318   4.168  1.2526  2.1111  0.9568
  951MOL0     H28367   7.862   0.477   4.333  2.2071  0.4032 -1.4282
  951MOL0     H28368   7.632   0.574   4.363 -1.1033 -0.1369  0.2870
  951MOL0     H28369   6.026   1.753   3.318 -0.3820 -1.5462 -0.4333
  951MOL0     H28370   5.797   1.849   3.340  2.7216  0.5986 -2.6727
  951MOL0     H28371   5.334   1.686   3.375 -2.5027 -0.3618 -0.7925
  951MOL0     H28372   5.109   1.700   3.444  1.0052 -2.1062 -1.2197
  951MOL0     H28373   4.884   1.873   3.483  1.9606 -0.5324 -1.0161
  951MOL0     H28374   4.990   1.998   3.558 -0.5828  0.4937 -3.7908
  951MOL0     H28375   4.773   2.051   3.631  1.3226 -0.3310 -2.4192
  951MOL0     H28376   4.835   1.962   3.774  1.7684  1.9391 -0.2683
  951MOL0     H28377   4.711   1.755   3.699 -0.0729 -0.5444 -0.3013
  951MOL0     H28378   4.682   1.823   3.541  0.9332  2.6654 -0.6503
  951MOL0     H28379   4.514   1.998   3.651 -2.1689 -0.2923  0.6384
  951MOL0     H28380   4.465   1.840   3.678 -2.1108  0.8656  2.0804
  951MOL0     H28381   4.567   2.003   4.058  0.8066  0.3672  0.2745
  951MOL0     H28382   5.180   1.923   3.782  0.1848 -1.5144  1.2031
  951MOL0     H28383   5.520   1.892   3.792  2.1121  1.7781 -0.7733
  951MOL0     H28384   5.525   2.045   3.699 -1.9565  2.0813  0.9127
  951MOL0     H28385   5.403   2.028   3.821  1.7161  0.1551  1.1926
  952MOL0     O28386   1.178   2.147   0.223 -0.0535  0.1954 -0.2908
  952MOL0     C28387   1.142   2.081   0.122 -0.0115 -0.1153  0.7554
  952MOL0     O28388   1.225   2.042   0.019 -0.6081 -0.2430 -0.6045
  952MOL0     C28389   1.364   2.053   0.023 -0.2501 -0.9328  0.7016
  952MOL0     C28390   1.425   2.164   0.086 -0.3130  0.1984 -0.4745
  952MOL0     C28391   1.561   2.170   0.095  0.2703 -0.6318  0.2269
  952MOL0     C28392   1.640   2.073   0.039  0.1680  0.6103  0.4347
  952MOL0     O28393   1.769   2.071   0.038  0.2190  0.0255  0.0329
  952MOL0     C28394   1.844   2.192   0.055 -0.2394  0.2214 -0.6441
  952MOL0     C28395   1.990   2.151   0.062 -0.2854 -0.7926 -0.6234
  952MOL0     C28396   2.078   2.274   0.101  0.2025 -0.3612 -0.3316
  952MOL0     C28397   2.218   2.237   0.053  0.5709 -0.0392  0.1763
  952MOL0     C28398   2.319   2.354   0.072 -0.3625  0.0867 -0.3221
  952MOL0     C28399   2.467   2.315   0.062 -0.0844  0.2697 -0.2219
  952MOL0     C28400   2.512   2.238  -0.063 -0.1290 -0.0093  1.0474
  952MOL0     C28401   2.662   2.207  -0.063  0.1774  0.6068  0.8000
  952MOL0     N28402   2.750   2.330  -0.042  0.7111 -0.6252  0.1329
  952MOL0     C28403   2.792   2.437  -0.125  0.4300 -0.4996 -0.3070
  952MOL0     C28404   2.848   2.536  -0.052 -0.7289 -0.4784 -0.0984
  952MOL0     C28405   2.896   2.666  -0.102  0.9919  0.9477  0.7825
  952MOL0     C28406   3.037   2.654  -0.158 -0.4473 -0.4994  0.6551
  952MOL0     C28407   3.109   2.790  -0.167  0.2186  0.1378  0.9124
  952MOL0     C28408   3.070   2.874  -0.282  0.1948  1.0140 -0.1687
  952MOL0     O28409   3.066   2.792  -0.399 -0.6241  0.6214  0.5555
  952MOL0     C28410   3.182   2.787  -0.481  0.4174  0.0239  0.1749
  952MOL0     C28411   3.160   2.746  -0.611  0.3890 -0.1231  0.2483
  952MOL0     C28412   3.258   2.728  -0.702 -0.0435  0.3947  0.7792
  952MOL0     C28413   3.383   2.776  -0.677 -0.0626  0.3635 -0.6614
  952MOL0     C28414   3.496   2.752  -0.766 -0.2743  0.4332  0.3373
  952MOL0     O28415   3.610   2.724  -0.712  0.4682  0.4201  0.0088
  952MOL0     C28416   3.715   2.674  -0.790  0.2665  0.0217 -0.4880
  952MOL0     C28417   3.842   2.735  -0.766  0.4826  0.1328 -0.6231
  952MOL0     C28418   3.956   2.698  -0.838 -0.1197  0.0306 -0.6628
  952MOL0     C28419   3.952   2.603  -0.941  0.8155  0.2394  0.2480
  952MOL0     O28420   4.052   2.577  -1.029 -0.5998  0.0159 -0.3333
  952MOL0     C28421   4.156   2.680  -1.057  0.5223 -0.3202  0.2186
  952MOL0     C28422   4.236   2.650  -1.176  0.4236  0.3769  0.3318
  952MOL0     C28423   4.332   2.534  -1.170 -0.1860 -0.1530 -0.6296
  952MOL0     C28424   4.487   2.576  -1.147  0.0522 -0.3195 -0.1980
  952MOL0     C28425   4.509   2.652  -1.014 -0.4192  0.4731 -0.5198
  952MOL0     C28426   4.472   2.572  -0.883 -0.1876 -0.3059 -0.1928
  952MOL0     C28427   4.525   2.436  -0.874  0.5163  0.7298  0.5491
  952MOL0     C28428   4.682   2.434  -0.876  0.6198  0.4841 -0.3002
  952MOL0    Cl28429   4.765   2.559  -0.767  0.3701 -0.1025  0.5125
  952MOL0     C28430   3.834   2.537  -0.956  0.5920  0.5045 -0.5816
  952MOL0     C28431   3.715   2.567  -0.884  0.1561  0.1442 -0.1996
  952MOL0     O28432   3.481   2.764  -0.887  0.1562 -0.2704  0.7188
  952MOL0     C28433   3.411   2.830  -0.546 -0.4403  1.1335 -0.0479
  952MOL0     C28434   3.315   2.827  -0.452  0.2301  0.5156  0.3438
  952MOL0     N28435   2.845   2.486   0.078  0.8285 -0.0261 -0.8528
  952MOL0     N28436   2.787   2.372   0.083  0.8441  0.3516 -0.6837
  952MOL0     C28437   1.579   1.964  -0.027  0.4589  0.0870  0.1198
  952MOL0     C28438   1.439   1.952  -0.027 -0.4690  0.3792 -0.3280
  952MOL0     C28439   0.999   2.036   0.118 -0.6298 -0.0013  0.4515
  952MOL0     C28440   0.959   2.000  -0.012  0.5675  0.4928 -0.1048
  952MOL0     C28441   0.823   1.972  -0.029 -0.5256  0.0084  0.4876
  952MOL0     C28442   0.733   1.969   0.076 -0.0377 -0.1570 -0.6811
  952MOL0     O28443   0.606   1.913   0.044  0.4956  0.5574  0.1599
  952MOL0     C28444   0.505   1.879   0.153  0.5717 -0.4343  0.1844
  952MOL0     C28445   0.382   1.809   0.094  0.1271 -0.3487  0.3401
  952MOL0     C28446   0.405   1.664   0.064  0.5239  0.4040  0.3759
  952MOL0     C28447   0.277   1.582   0.103 -0.2809  0.3849 -0.4283
  952MOL0     C28448   0.249   1.582   0.249  0.0080 -0.1664  0.2296
  952MOL0     C28449   0.218   1.603   0.371 -0.1183 -0.0888 -0.3984
  952MOL0     C28450   0.771   1.996   0.207  0.4843 -0.1644  1.1181
  952MOL0     C28451   0.909   2.032   0.231  0.2553 -0.7460  0.3451
  952MOL0     C28452   0.952   2.066   0.367 -0.0876 -0.2761 -0.0796
  952MOL0     H28453   1.370   2.256   0.108  1.0623  0.4195  2.4102
  952MOL0     H28454   1.604   2.262   0.133 -2.1928  1.4055 -1.5106
  952MOL0     H28455   1.821   2.263  -0.025  2.5497  4.5020  1.9973
  952MOL0     H28456   1.807   2.247   0.141 -3.1734 -0.3858 -1.3805
  952MOL0     H28457   2.018   2.109  -0.035 -0.7670  0.3201 -1.2606
  952MOL0     H28458   2.002   2.084   0.148  0.8000  3.4045  2.8522
  952MOL0     H28459   2.058   2.291   0.207  1.5703 -0.5387 -0.0340
  952MOL0     H28460   2.048   2.365   0.049  0.5543 -0.9541 -1.6227
  952MOL0     H28461   2.261   2.148   0.099 -1.5418 -0.6054  1.2256
  952MOL0     H28462   2.216   2.225  -0.056  1.7624  1.5867 -0.0534
  952MOL0     H28463   2.287   2.423  -0.006 -1.3797  0.6960  0.6051
  952MOL0     H28464   2.312   2.408   0.167 -3.1508 -0.7466  0.0403
  952MOL0     H28465   2.506   2.417   0.062 -0.3302  0.3872  1.3140
  952MOL0     H28466   2.514   2.269   0.150 -1.4683  3.0475  2.1490
  952MOL0     H28467   2.481   2.299  -0.149  0.0146  2.9517  2.9484
  952MOL0     H28468   2.466   2.139  -0.072  1.4574 -0.6930 -0.0259
  952MOL0     H28469   2.686   2.134   0.015 -1.6928 -1.5092 -0.4874
  952MOL0     H28470   2.685   2.150  -0.154  0.0119 -0.0438  1.1592
  952MOL0     H28471   2.768   2.443  -0.231 -3.6731  1.7196  0.5344
  952MOL0     H28472   2.826   2.698  -0.180  0.0760 -1.4177  0.5226
  952MOL0     H28473   2.899   2.731  -0.014  1.4967  1.9782  0.0101
  952MOL0     H28474   3.102   2.596  -0.093  1.1568  0.9618  0.4249
  952MOL0     H28475   3.036   2.606  -0.256 -2.8619  1.8917 -0.6359
  952MOL0     H28476   3.218   2.778  -0.175  0.0703 -0.0991 -1.4785
  952MOL0     H28477   3.089   2.843  -0.074 -0.0322  1.4323  0.1373
  952MOL0     H28478   3.139   2.959  -0.287 -2.5617  3.4476  0.4883
  952MOL0     H28479   2.975   2.924  -0.264 -0.7292 -0.9907  0.8313
  952MOL0     H28480   3.056   2.735  -0.641  0.1482 -1.5562  1.4738
  952MOL0     H28481   3.238   2.687  -0.800  1.9304 -0.2780  0.6257
  952MOL0     H28482   3.841   2.815  -0.693 -0.0717 -2.2041  2.1252
  952MOL0     H28483   4.049   2.741  -0.801 -0.2091  1.4954 -2.0172
  952MOL0     H28484   4.104   2.775  -1.074 -1.1980 -1.2927 -0.1727
  952MOL0     H28485   4.214   2.695  -0.966 -1.3950  1.3011  1.2556
  952MOL0     H28486   4.157   2.622  -1.247 -0.0265 -0.4207  1.1362
  952MOL0     H28487   4.295   2.737  -1.206  0.0937  0.1164 -1.1838
  952MOL0     H28488   4.306   2.468  -1.087 -1.2803  1.1445  0.0826
  952MOL0     H28489   4.324   2.476  -1.263 -1.5808  1.3577 -1.5195
  952MOL0     H28490   4.509   2.643  -1.230  3.7336 -0.6016  0.3964
  952MOL0     H28491   4.545   2.484  -1.154  0.0382 -0.2589 -1.3542
  952MOL0     H28492   4.449   2.743  -1.023 -0.7710  0.4819  1.4996
  952MOL0     H28493   4.612   2.690  -1.009 -0.7707  1.2868  2.3475
  952MOL0     H28494   4.503   2.629  -0.794  0.2621 -2.8083  1.3450
  952MOL0     H28495   4.363   2.573  -0.882 -0.3464 -0.7870  4.2678
  952MOL0     H28496   4.478   2.370  -0.948  1.7176  0.8707 -0.3851
  952MOL0     H28497   4.489   2.413  -0.774 -1.9794  4.0012  0.5583
  952MOL0     H28498   4.717   2.334  -0.848 -0.7577 -0.6806 -2.4608
  952MOL0     H28499   4.715   2.436  -0.981  2.2826 -3.3172 -0.0172
  952MOL0     H28500   3.823   2.456  -1.027 -3.2735 -1.5590  1.9602
  952MOL0     H28501   3.626   2.508  -0.903  1.1184 -1.8752  1.2040
  952MOL0     H28502   3.508   2.864  -0.511  1.3193 -1.4685 -2.0591
  952MOL0     H28503   3.348   2.847  -0.351  0.8116  1.0988  0.0487
  952MOL0     H28504   1.639   1.886  -0.072 -2.0660 -0.5630 -2.4073
  952MOL0     H28505   1.406   1.862  -0.078 -0.6424  0.6421 -0.6881
  952MOL0     H28506   1.014   2.003  -0.106 -0.6619  4.6395 -0.9123
  952MOL0     H28507   0.790   1.922  -0.120 -2.1242 -0.0176  1.0449
  952MOL0     H28508   0.470   1.973   0.197 -2.2474 -1.2260 -0.1580
  952MOL0     H28509   0.549   1.816   0.231  0.9313 -0.8961 -0.3762
  952MOL0     H28510   0.372   1.861  -0.002  0.8225 -0.1208  0.3874
  952MOL0     H28511   0.300   1.829   0.163 -0.6500  3.0302 -1.3359
  952MOL0     H28512   0.500   1.632   0.108  0.5747  0.9562  0.6769
  952MOL0     H28513   0.425   1.643  -0.041 -1.2474 -0.7610  0.2300
  952MOL0     H28514   0.194   1.630   0.050 -0.2639  1.8527  0.8186
  952MOL0     H28515   0.279   1.478   0.069 -1.7152 -0.1831  1.1063
  952MOL0     H28516   0.183   1.624   0.471 -1.1343  0.6319 -0.8879
  952MOL0     H28517   0.695   1.987   0.284  0.6290 -2.4005  1.0651
  952MOL0     H28518   1.055   2.042   0.397  0.5535  0.6065 -1.4476
  952MOL0     H28519   0.933   2.172   0.388  1.6727  0.4546 -1.8387
  952MOL0     H28520   0.885   2.013   0.435  0.2327 -0.1343  0.3523
  953MOL0     O28521  10.971   5.274   3.673  0.5773  0.4570 -0.3026
  953MOL0     C28522  10.935   5.357   3.590  0.1861 -0.7945  0.9228
  953MOL0     O28523  11.019   5.426   3.513  0.7832  0.2701 -1.2445
  953MOL0     C28524  11.148   5.391   3.511 -0.5604  0.5418 -0.2747
  953MOL0     C28525  11.246   5.465   3.580 -0.5254  0.5283  0.6197
  953MOL0     C28526  11.382   5.427   3.568  1.1049 -0.7803  0.0754
  953MOL0     C28527  11.419   5.328   3.476 -0.5676 -0.4593 -0.7039
  953MOL0     O28528  11.554   5.317   3.467 -0.5379 -0.1319 -0.0506
  953MOL0     C28529  11.610   5.192   3.469 -0.1084  0.1965 -0.0593
  953MOL0     C28530  11.769   5.196   3.480  0.0382  0.1163 -0.7222
  953MOL0     C28531  11.829   5.274   3.599 -0.4982  0.3822  1.2701
  953MOL0     C28532  11.798   5.211   3.744  0.4997  0.1414  0.0473
  953MOL0     C28533  11.819   5.319   3.852  0.2798 -0.4088  0.2512
  953MOL0     C28534  11.967   5.371   3.874  0.2438  0.4711  0.2014
  953MOL0     C28535  12.079   5.262   3.857 -0.8286  0.7322 -0.5039
  953MOL0     C28536  12.085   5.153   3.974  0.0656  0.4374  0.0057
  953MOL0     N28537  12.101   5.205   4.109 -0.6111 -0.0730  0.6244
  953MOL0     C28538  12.205   5.285   4.152  0.2268  0.2619 -1.0182
  953MOL0     C28539  12.165   5.348   4.267 -0.3123  1.0248  0.4092
  953MOL0     C28540  12.235   5.441   4.371  0.4474 -0.5237  0.9279
  953MOL0     C28541  12.293   5.564   4.295 -0.1346 -0.5805  0.2697
  953MOL0     C28542  12.431   5.614   4.346  0.2506  0.0910 -0.1167
  953MOL0     C28543  12.494   5.726   4.255 -0.6586 -0.8960 -0.2341
  953MOL0     O28544  12.632   5.756   4.279  0.0353 -0.0030  0.1016
  953MOL0     C28545  12.723   5.660   4.326  0.2156 -0.3293 -0.6786
  953MOL0     C28546  12.732   5.521   4.284  0.0893 -0.9003  0.5050
  953MOL0     C28547  12.849   5.447   4.316  0.0147  0.1760 -0.0283
  953MOL0     C28548  12.956   5.499   4.393 -0.0889 -0.2710 -0.7214
  953MOL0     C28549  13.079   5.419   4.415 -1.2298 -0.1155 -1.1176
  953MOL0     O28550  13.167   5.474   4.510 -0.2629 -0.4042 -0.5786
  953MOL0     C28551  13.279   5.416   4.570 -0.7396  0.2219  0.9311
  953MOL0     C28552  13.333   5.490   4.677 -0.4501  0.4056 -0.0841
  953MOL0     C28553  13.443   5.428   4.744  0.2395 -0.1486 -0.7046
  953MOL0     C28554  13.493   5.301   4.711 -1.0826  0.2290 -0.6185
  953MOL0     O28555  13.591   5.257   4.795 -0.3008 -0.0153  0.0600
  953MOL0     C28556  13.643   5.126   4.789  0.8081 -0.1162  0.6808
  953MOL0     C28557  13.757   5.118   4.880 -0.1833 -0.0108 -0.5232
  953MOL0     C28558  13.783   4.970   4.919  0.4633 -0.0203 -0.7784
  953MOL0     C28559  13.864   4.888   4.817  0.0447  0.9177 -0.2078
  953MOL0     C28560  13.867   4.736   4.848  0.0938  0.0128 -0.3783
  953MOL0     C28561  13.979   4.655   4.778  0.4635 -0.4114  0.0766
  953MOL0     C28562  14.008   4.521   4.847 -0.3049 -0.6173  0.0021
  953MOL0     C28563  14.115   4.440   4.783 -0.7275  0.4382  0.0615
  953MOL0    Cl28564  14.284   4.521   4.785  0.0293  0.0171 -0.1263
  953MOL0     C28565  13.435   5.231   4.598 -0.4971 -0.3224 -1.3293
  953MOL0     C28566  13.331   5.293   4.528  0.5017 -0.3245  0.5788
  953MOL0     O28567  13.086   5.312   4.369  0.6514  0.3425  0.3739
  953MOL0     C28568  12.939   5.631   4.434  0.2635  0.3519  0.5397
  953MOL0     C28569  12.825   5.709   4.404  0.4904 -0.9059 -0.0282
  953MOL0     N28570  12.044   5.288   4.297  0.1984  0.0050  0.3171
  953MOL0     N28571  12.010   5.201   4.207  0.5147  0.3704 -0.0002
  953MOL0     C28572  11.320   5.249   3.415 -0.5334 -0.0248  0.1043
  953MOL0     C28573  11.189   5.285   3.426  0.2059 -0.4104  0.1859
  953MOL0     C28574  10.791   5.366   3.552  0.1390  0.1657 -0.8830
  953MOL0     C28575  10.742   5.487   3.513  0.2347  0.1199  0.3686
  953MOL0     C28576  10.615   5.501   3.457 -0.0849 -0.3702  0.4567
  953MOL0     C28577  10.531   5.391   3.446  0.5741 -0.4595  0.4090
  953MOL0     O28578  10.401   5.395   3.398  0.6316 -0.0662 -0.2094
  953MOL0     C28579  10.332   5.519   3.407  0.6749 -0.3009 -0.1919
  953MOL0     C28580  10.185   5.504   3.401 -0.3652  0.0679  0.6531
  953MOL0     C28581  10.128   5.645   3.361  0.3738  0.5488  0.0820
  953MOL0     C28582   9.978   5.676   3.379  0.2621 -0.1571 -0.3570
  953MOL0     C28583   9.897   5.622   3.260 -0.4632 -0.2010  0.0654
  953MOL0     C28584   9.832   5.564   3.173 -0.4680  0.1707 -0.2808
  953MOL0     C28585  10.583   5.273   3.482  0.6981 -0.1092 -0.5229
  953MOL0     C28586  10.709   5.256   3.532 -0.7392  0.7119  0.3506
  953MOL0     C28587  10.753   5.116   3.571  0.7813  0.2852  0.1960
  953MOL0     H28588  11.214   5.554   3.633 -0.5882  1.2798 -0.6436
  953MOL0     H28589  11.455   5.479   3.630  0.3761 -1.7360  1.8068
  953MOL0     H28590  11.574   5.142   3.560  2.7548  0.9303  1.6233
  953MOL0     H28591  11.574   5.156   3.372 -3.6879  0.6445  0.9609
  953MOL0     H28592  11.803   5.250   3.391 -0.0523 -0.2576 -0.9901
  953MOL0     H28593  11.810   5.094   3.475  0.9836  0.5166 -1.5453
  953MOL0     H28594  11.796   5.378   3.602  1.5052  1.0423  3.2896
  953MOL0     H28595  11.935   5.274   3.572 -1.3486 -0.1724 -2.6920
  953MOL0     H28596  11.693   5.179   3.741  0.3438  0.6584 -2.2785
  953MOL0     H28597  11.859   5.121   3.754 -1.6264 -2.1340 -4.4737
  953MOL0     H28598  11.762   5.405   3.816 -1.3152 -2.4778 -2.5690
  953MOL0     H28599  11.772   5.282   3.944 -0.2577  0.1025  0.1915
  953MOL0     H28600  11.979   5.449   3.798  1.8829 -0.7655 -0.9017
  953MOL0     H28601  11.968   5.425   3.969 -2.9163  1.5752 -0.2658
  953MOL0     H28602  12.176   5.312   3.870 -0.2009 -0.7606  0.9888
  953MOL0     H28603  12.074   5.203   3.765 -1.3467 -0.8047  0.4803
  953MOL0     H28604  11.990   5.101   3.958 -1.0139  2.2446  0.2068
  953MOL0     H28605  12.163   5.082   3.946 -0.7185 -0.4423  0.0065
  953MOL0     H28606  12.298   5.300   4.099  0.8848  2.3979  0.5800
  953MOL0     H28607  12.169   5.485   4.446 -1.1019  2.0877 -1.7449
  953MOL0     H28608  12.320   5.394   4.422  0.4778 -0.2070  1.1778
  953MOL0     H28609  12.314   5.529   4.194  1.7127 -1.2491  0.8345
  953MOL0     H28610  12.220   5.645   4.302  0.7553  0.2602 -0.0083
  953MOL0     H28611  12.488   5.521   4.344 -3.3824 -2.3963 -2.9540
  953MOL0     H28612  12.422   5.643   4.451  0.4207  0.2235 -0.1390
  953MOL0     H28613  12.434   5.817   4.265  0.4329 -0.3659  2.3561
  953MOL0     H28614  12.485   5.696   4.150  0.4424  2.3155 -1.3571
  953MOL0     H28615  12.657   5.473   4.223 -0.7587  1.1099 -0.1030
  953MOL0     H28616  12.868   5.347   4.280  2.6387  0.7689 -0.5198
  953MOL0     H28617  13.293   5.584   4.713 -0.5998  0.4208 -0.2880
  953MOL0     H28618  13.477   5.489   4.827 -1.9979  0.2768 -0.0280
  953MOL0     H28619  13.561   5.063   4.823  3.0646 -2.4876  2.0175
  953MOL0     H28620  13.673   5.102   4.686  0.6285  0.9129  0.3759
  953MOL0     H28621  13.848   5.153   4.830 -1.2571  2.0131 -1.1475
  953MOL0     H28622  13.746   5.175   4.972 -1.9451 -0.9674 -0.0947
  953MOL0     H28623  13.834   4.974   5.016 -0.2276  0.2904 -0.4196
  953MOL0     H28624  13.685   4.929   4.946  1.0513  0.8257  3.4321
  953MOL0     H28625  13.957   4.944   4.805  0.2653  0.5679 -0.1517
  953MOL0     H28626  13.808   4.889   4.723 -2.1077 -0.8035  0.9558
  953MOL0     H28627  13.772   4.689   4.823  0.5734 -0.6413 -1.0084
  953MOL0     H28628  13.879   4.728   4.956  1.3885  2.0011 -0.3226
  953MOL0     H28629  13.953   4.647   4.672 -2.2187 -0.1307  0.6465
  953MOL0     H28630  14.067   4.718   4.794 -1.1147  1.7807  0.6174
  953MOL0     H28631  13.912   4.468   4.839 -0.1418 -1.2992  2.0650
  953MOL0     H28632  14.033   4.517   4.953  0.1708 -3.1158 -0.1476
  953MOL0     H28633  14.116   4.350   4.846 -0.4759  0.1492 -0.3488
  953MOL0     H28634  14.102   4.403   4.681  0.6780  0.6437 -0.2077
  953MOL0     H28635  13.472   5.135   4.562 -0.3515 -0.8458  0.1298
  953MOL0     H28636  13.287   5.232   4.449 -0.4151  1.1992 -0.1239
  953MOL0     H28637  13.019   5.678   4.492  1.8122  1.0837 -2.0225
  953MOL0     H28638  12.818   5.815   4.429 -0.6185 -1.1685  0.8870
  953MOL0     H28639  11.346   5.170   3.345  0.9482  2.1294 -1.9263
  953MOL0     H28640  11.110   5.223   3.384 -0.3686  0.2896  0.2175
  953MOL0     H28641  10.804   5.576   3.515 -1.9402  1.7378  0.2338
  953MOL0     H28642  10.585   5.597   3.415  1.6446 -0.1556 -0.3607
  953MOL0     H28643  10.372   5.585   3.330 -0.1447  0.9876  0.4452
  953MOL0     H28644  10.349   5.557   3.509  2.1130 -3.4662  0.8719
  953MOL0     H28645  10.146   5.481   3.500  1.9057 -0.6909  1.4255
  953MOL0     H28646  10.141   5.424   3.340 -0.8361  1.9115 -1.5512
  953MOL0     H28647  10.150   5.672   3.257  1.7507  2.0887  0.7320
  953MOL0     H28648  10.182   5.707   3.433  3.1065  0.4824 -1.7464
  953MOL0     H28649   9.937   5.621   3.464 -1.6175  0.7662 -0.6373
  953MOL0     H28650   9.961   5.781   3.401 -1.8007 -0.2638 -1.2470
  953MOL0     H28651   9.772   5.515   3.100 -1.9334  1.0134  0.3175
  953MOL0     H28652  10.529   5.183   3.452  0.4965 -0.3840  0.6315
  953MOL0     H28653  10.752   5.101   3.679 -0.1338 -4.2551 -0.2651
  953MOL0     H28654  10.692   5.039   3.524  1.3180 -0.5594  0.8542
  953MOL0     H28655  10.853   5.098   3.529  0.5086  1.3651 -0.9872
  954MOL0     O28656   1.852   8.692   9.642  0.5215  0.0841  0.4373
  954MOL0     C28657   1.950   8.624   9.625 -0.0113  0.0889  0.4450
  954MOL0     O28658   1.990   8.520   9.701  0.0915  0.8754 -0.0963
  954MOL0     C28659   1.902   8.441   9.758  0.7621  0.7402  0.0845
  954MOL0     C28660   1.936   8.378   9.880 -0.1939 -0.3706 -0.0233
  954MOL0     C28661   1.853   8.282   9.925 -0.1620  0.0729  0.2429
  954MOL0     C28662   1.729   8.256   9.878  1.1120 -0.5911  0.3887
  954MOL0     O28663   1.637   8.168   9.940  0.1404  0.3240 -0.1081
  954MOL0     C28664   1.611   8.193  10.081 -0.0121  0.0395 -0.7265
  954MOL0     C28665   1.502   8.105  10.138 -1.0834 -0.1021  0.5302
  954MOL0     C28666   1.531   8.080  10.290  0.5243  1.5612 -0.2776
  954MOL0     C28667   1.642   7.963  10.306 -0.2200  0.3382  0.2056
  954MOL0     C28668   1.696   7.953  10.452  0.2866 -0.1577 -0.0036
  954MOL0     C28669   1.793   7.832  10.462  0.8441  0.3112  0.2535
  954MOL0     C28670   1.863   7.800  10.592 -0.2613 -0.1973 -1.3302
  954MOL0     C28671   1.954   7.674  10.599 -0.0451 -0.2809  0.4236
  954MOL0     N28672   2.072   7.671  10.512  0.6376  0.5190 -0.0575
  954MOL0     C28673   2.155   7.777  10.485  0.1708  0.2241 -0.3347
  954MOL0     C28674   2.230   7.729  10.377 -0.4486 -0.7518  0.5338
  954MOL0     C28675   2.352   7.800  10.313  0.2418  0.3432  1.0751
  954MOL0     C28676   2.481   7.726  10.338  0.0136 -0.6102  0.0008
  954MOL0     C28677   2.509   7.683  10.481  0.9115 -0.3284  0.3229
  954MOL0     C28678   2.611   7.579  10.487 -0.6863  1.0431 -0.8235
  954MOL0     O28679   2.670   7.546  10.613 -0.5638 -0.0490 -0.1461
  954MOL0     C28680   2.767   7.623  10.675 -0.8151  0.6647  0.0242
  954MOL0     C28681   2.821   7.578  10.801 -0.6800 -0.4994  0.0014
  954MOL0     C28682   2.901   7.654  10.886  0.0617 -0.3176 -0.1674
  954MOL0     C28683   2.941   7.782  10.841 -0.9259  0.2366 -0.2955
  954MOL0     C28684   3.011   7.871  10.938 -0.8767  0.4792  0.3117
  954MOL0     O28685   3.066   7.820  11.055 -0.2757  0.2330 -0.2779
  954MOL0     C28686   3.160   7.892  11.126  0.6288  0.5740  0.1654
  954MOL0     C28687   3.241   8.005  11.088  0.9726 -0.2618 -0.1418
  954MOL0     C28688   3.330   8.064  11.176  0.7103  0.6795 -0.6525
  954MOL0     C28689   3.360   8.005  11.298  0.4525 -0.2236 -0.6291
  954MOL0     O28690   3.457   8.058  11.371  0.0333  0.4224  0.2077
  954MOL0     C28691   3.416   8.078  11.506  1.0084  0.6100 -0.1287
  954MOL0     C28692   3.529   8.129  11.598  0.3595 -0.1113  0.0970
  954MOL0     C28693   3.495   8.170  11.748  1.0401  0.4039  0.8664
  954MOL0     C28694   3.611   8.178  11.844 -0.0127  0.2415  0.3809
  954MOL0     C28695   3.702   8.298  11.817  0.2226 -0.2409 -0.6204
  954MOL0     C28696   3.802   8.306  11.934 -0.5527 -0.4252 -0.0661
  954MOL0     C28697   3.887   8.434  11.908 -0.0060  0.7624 -0.1461
  954MOL0     C28698   4.020   8.420  11.986  0.0210  0.3846  0.7104
  954MOL0    Cl28699   4.128   8.555  11.960  0.2055 -0.2472  0.0757
  954MOL0     C28700   3.289   7.885  11.335  0.8392  0.7198 -0.1821
  954MOL0     C28701   3.190   7.835  11.244  0.4115 -0.9923 -1.3463
  954MOL0     O28702   3.013   7.990  10.913 -0.4896  0.2740 -0.6853
  954MOL0     C28703   2.903   7.828  10.713 -0.0008  0.0958 -0.3104
  954MOL0     C28704   2.818   7.749  10.633  0.4992  0.5202  0.2982
  954MOL0     N28705   2.172   7.606  10.339 -0.6342  0.0304 -0.2724
  954MOL0     N28706   2.072   7.569  10.419  0.5211  0.0285  0.1776
  954MOL0     C28707   1.697   8.313   9.754  0.7486  0.5554 -0.0076
  954MOL0     C28708   1.788   8.394   9.689 -0.1539 -0.6729 -0.1200
  954MOL0     C28709   2.048   8.666   9.526 -0.2968  0.2288  0.5232
  954MOL0     C28710   2.159   8.585   9.506  0.1630  0.3201  0.8077
  954MOL0     C28711   2.250   8.611   9.407 -0.2938 -0.2678  0.5792
  954MOL0     C28712   2.241   8.716   9.323  0.1137 -0.8446 -0.9995
  954MOL0     O28713   2.333   8.708   9.216 -0.4197 -1.0267  1.1747
  954MOL0     C28714   2.319   8.814   9.114 -0.0749 -0.4420  0.9662
  954MOL0     C28715   2.351   8.766   8.977 -0.3265  0.1835  0.1486
  954MOL0     C28716   2.370   8.876   8.870  0.7362 -0.1339  0.5206
  954MOL0     C28717   2.492   8.970   8.888 -0.3730  0.2916 -0.1725
  954MOL0     C28718   2.497   9.076   8.788  0.5523  0.5346  0.6629
  954MOL0     C28719   2.497   9.170   8.718  0.1786  0.1110  0.5251
  954MOL0     C28720   2.143   8.820   9.354  0.6643  0.8933 -0.0046
  954MOL0     C28721   2.049   8.791   9.452  0.6255 -0.0713  0.6063
  954MOL0     C28722   1.947   8.901   9.470  0.5820  0.1620  0.6510
  954MOL0     H28723   2.040   8.385   9.911  0.0917 -0.2854 -0.9656
  954MOL0     H28724   1.889   8.220  10.006  0.1109  0.0761  0.1237
  954MOL0     H28725   1.709   8.177  10.126  0.2466 -0.6003 -1.4923
  954MOL0     H28726   1.580   8.296  10.100  1.4186 -0.1811  3.8812
  954MOL0     H28727   1.489   8.008  10.088  0.7318 -0.2874  0.3602
  954MOL0     H28728   1.405   8.154  10.126 -0.7360  0.7862  1.2897
  954MOL0     H28729   1.439   8.036  10.330 -0.4937 -0.2551 -4.0709
  954MOL0     H28730   1.553   8.168  10.351  3.1420 -0.5570  2.1419
  954MOL0     H28731   1.591   7.872  10.272  0.4951  0.5007 -1.3576
  954MOL0     H28732   1.730   7.975  10.242 -0.9282 -1.4725 -1.1862
  954MOL0     H28733   1.752   8.043  10.476 -1.7452  0.7294  1.7211
  954MOL0     H28734   1.620   7.928  10.526  0.1759 -2.8574 -0.9064
  954MOL0     H28735   1.742   7.738  10.439  2.7889 -0.3301 -1.7786
  954MOL0     H28736   1.870   7.839  10.386 -0.1446 -2.2029 -1.1233
  954MOL0     H28737   1.786   7.783  10.667  0.9313 -0.1984 -0.0746
  954MOL0     H28738   1.912   7.894  10.621  0.3844 -1.3580  1.7292
  954MOL0     H28739   1.997   7.666  10.700  1.4753 -0.6661 -0.2250
  954MOL0     H28740   1.898   7.583  10.579  1.0810 -0.8251 -0.3497
  954MOL0     H28741   2.178   7.869  10.538  2.9094  0.7762 -2.2714
  954MOL0     H28742   2.333   7.821  10.208  1.5541 -0.3656  0.6695
  954MOL0     H28743   2.365   7.901  10.355  1.2662  1.1668 -1.0393
  954MOL0     H28744   2.480   7.641  10.269  0.1104 -2.0824  1.7163
  954MOL0     H28745   2.559   7.790  10.296  0.6777 -2.4337 -1.7067
  954MOL0     H28746   2.423   7.628  10.520 -0.1454  0.2402 -1.1221
  954MOL0     H28747   2.540   7.768  10.542  1.1378  1.5504 -2.2376
  954MOL0     H28748   2.692   7.598  10.416 -0.3515 -2.4769 -1.5950
  954MOL0     H28749   2.565   7.493  10.438 -1.3420  0.7764  0.2335
  954MOL0     H28750   2.786   7.485  10.845  0.8829  0.4325  3.5337
  954MOL0     H28751   2.929   7.610  10.982 -0.6263 -4.7153 -1.7495
  954MOL0     H28752   3.212   8.059  10.999 -2.2232  0.8122  1.4171
  954MOL0     H28753   3.380   8.158  11.157 -1.9345  2.2991 -0.1365
  954MOL0     H28754   3.334   8.150  11.516 -0.0704 -0.4226 -1.1138
  954MOL0     H28755   3.383   7.985  11.554  0.7274  0.3207 -0.8695
  954MOL0     H28756   3.604   8.049  11.606  3.4547  2.6061  0.5040
  954MOL0     H28757   3.585   8.212  11.554 -0.2168  1.0121  1.4306
  954MOL0     H28758   3.447   8.269  11.746  0.0164  0.0514  3.6237
  954MOL0     H28759   3.428   8.094  11.789 -1.1111  1.1691 -0.9849
  954MOL0     H28760   3.674   8.089  11.839 -1.6367 -0.8846 -2.3599
  954MOL0     H28761   3.569   8.180  11.945  1.3325  1.5214  0.9582
  954MOL0     H28762   3.645   8.392  11.818 -0.0633 -0.4160 -0.1269
  954MOL0     H28763   3.738   8.290  11.714 -3.1949  1.3214 -2.1040
  954MOL0     H28764   3.745   8.314  12.027  0.4198 -2.3640  0.7623
  954MOL0     H28765   3.872   8.222  11.930  0.4865  0.3994  0.1990
  954MOL0     H28766   3.834   8.526  11.936 -2.7954 -0.3463 -1.3271
  954MOL0     H28767   3.918   8.445  11.803  0.7570  2.7740  0.2340
  954MOL0     H28768   4.007   8.408  12.094  0.7417  1.2967  0.9129
  954MOL0     H28769   4.069   8.334  11.939 -2.4165  0.8261 -3.0838
  954MOL0     H28770   3.307   7.831  11.427 -1.1972 -1.1846 -0.8001
  954MOL0     H28771   3.140   7.750  11.289  1.4823 -1.3295 -0.7414
  954MOL0     H28772   2.945   7.922  10.679 -0.3188 -0.0823 -1.2295
  954MOL0     H28773   2.779   7.790  10.539  2.4740  1.8180 -0.0057
  954MOL0     H28774   1.607   8.288   9.699 -0.2172  0.2702  1.6206
  954MOL0     H28775   1.751   8.419   9.590 -3.8814 -1.5057  0.8901
  954MOL0     H28776   2.163   8.491   9.561 -1.1371 -1.7987 -2.4161
  954MOL0     H28777   2.321   8.532   9.387  0.1504  0.9312 -3.5344
  954MOL0     H28778   2.387   8.895   9.143  0.4262 -0.6221  0.3107
  954MOL0     H28779   2.223   8.865   9.112  0.4997  0.6475 -0.5882
  954MOL0     H28780   2.264   8.710   8.940 -0.0059  0.2759 -0.7753
  954MOL0     H28781   2.442   8.706   8.970 -1.4187 -1.9799  2.5299
  954MOL0     H28782   2.277   8.935   8.877  2.0145  1.8425  1.9172
  954MOL0     H28783   2.374   8.824   8.774 -1.6090  0.2543  0.1377
  954MOL0     H28784   2.485   9.016   8.987 -2.2114  0.8444 -0.5147
  954MOL0     H28785   2.587   8.917   8.885  0.7491  2.2170 -3.5152
  954MOL0     H28786   2.499   9.256   8.654 -0.3016  0.9074  1.5418
  954MOL0     H28787   2.130   8.902   9.284 -1.4730 -1.2029 -2.2501
  954MOL0     H28788   1.974   8.998   9.427 -0.4011 -1.1330 -3.3433
  954MOL0     H28789   1.875   8.874   9.392  1.4245  3.4810 -1.4725
  954MOL0     H28790   1.903   8.916   9.569 -0.9844  1.6939 -0.2307
  955MOL0     O28791   9.107  10.901   3.087  0.0874  0.2290 -0.1038
  955MOL0     C28792   9.212  10.921   3.033 -0.3495 -0.1572 -0.9766
  955MOL0     O28793   9.250  10.859   2.917  0.3516  0.6100  0.2992
  955MOL0     C28794   9.374  10.874   2.871 -0.4731  0.1672 -0.2481
  955MOL0     C28795   9.407  10.992   2.798  0.2359 -0.2342 -0.2900
  955MOL0     C28796   9.536  11.004   2.747 -0.2942  0.2384  0.0369
  955MOL0     C28797   9.624  10.897   2.758  0.1199 -0.5749 -0.1917
  955MOL0     O28798   9.744  10.921   2.700 -0.4187 -0.2175  0.4947
  955MOL0     C28799   9.833  10.809   2.669  0.3644 -0.1540  0.1770
  955MOL0     C28800   9.953  10.854   2.590  0.2585 -0.0682  0.0024
  955MOL0     C28801  10.062  10.742   2.583 -0.1361 -0.3596  0.3365
  955MOL0     C28802  10.178  10.800   2.498 -1.0022 -0.2424 -0.6873
  955MOL0     C28803  10.298  10.710   2.515 -0.4088  0.2848  1.3103
  955MOL0     C28804  10.430  10.783   2.463  0.0219  0.0857 -0.1933
  955MOL0     C28805  10.548  10.687   2.496 -0.0043 -0.3779  0.1326
  955MOL0     C28806  10.682  10.748   2.474 -0.6959 -0.3874  0.3069
  955MOL0     N28807  10.701  10.853   2.572  0.3631  0.4212 -0.3076
  955MOL0     C28808  10.675  10.989   2.560 -0.1648 -0.6533  0.9517
  955MOL0     C28809  10.732  11.042   2.672  0.1000  0.1142  0.2597
  955MOL0     C28810  10.689  11.173   2.718  0.4112 -0.6600 -0.1798
  955MOL0     C28811  10.743  11.221   2.851 -0.5747 -0.2770  0.1325
  955MOL0     C28812  10.903  11.248   2.850  1.1275  0.4840 -0.0938
  955MOL0     C28813  10.943  11.365   2.762 -0.1602  0.4044  0.3854
  955MOL0     O28814  11.088  11.378   2.779  0.2951 -0.2808 -0.3061
  955MOL0     C28815  11.151  11.497   2.749  0.4673  0.3652  0.4803
  955MOL0     C28816  11.096  11.591   2.660  0.3863  0.2603 -0.1961
  955MOL0     C28817  11.176  11.704   2.623  0.7226 -1.2316  0.9181
  955MOL0     C28818  11.303  11.718   2.683 -0.2849 -0.3126  0.3983
  955MOL0     C28819  11.383  11.834   2.655 -1.2373  0.8267  0.6025
  955MOL0     O28820  11.505  11.854   2.724  0.1641 -0.1287 -0.1849
  955MOL0     C28821  11.594  11.946   2.686  0.3507 -0.2770  0.0543
  955MOL0     C28822  11.726  11.918   2.698 -0.2774 -0.8659 -0.6291
  955MOL0     C28823  11.824  12.004   2.649 -0.9520  0.8276 -0.3203
  955MOL0     C28824  11.798  12.122   2.587  0.0236 -0.4744  0.3278
  955MOL0     O28825  11.885  12.214   2.553 -0.0790 -0.3904  0.3912
  955MOL0     C28826  12.016  12.169   2.531 -0.1516  0.7656  0.0246
  955MOL0     C28827  12.021  12.075   2.408  0.6899 -0.8976 -0.6010
  955MOL0     C28828  12.165  12.034   2.378 -0.1521 -0.2205 -0.3902
  955MOL0     C28829  12.238  11.965   2.496  0.5569 -0.3723 -0.5577
  955MOL0     C28830  12.398  11.975   2.496  0.8562 -0.7668  0.0617
  955MOL0     C28831  12.461  11.933   2.622 -0.0576  0.4638 -0.0511
  955MOL0     C28832  12.601  11.970   2.624  0.3131  0.0319 -0.0126
  955MOL0     C28833  12.682  11.905   2.729  0.0173 -0.3892  0.2367
  955MOL0    Cl28834  12.849  11.964   2.724 -0.4596  0.4281  0.4011
  955MOL0     C28835  11.663  12.160   2.591  0.1995  0.0486  0.6643
  955MOL0     C28836  11.561  12.074   2.634  0.0874 -0.4628 -0.1487
  955MOL0     O28837  11.351  11.902   2.551  0.5047  0.3522 -0.6158
  955MOL0     C28838  11.345  11.644   2.790  0.0541 -0.5551  0.1797
  955MOL0     C28839  11.275  11.530   2.806 -0.5033  0.2487  1.0389
  955MOL0     N28840  10.780  10.942   2.746 -0.4046  0.1037 -0.0005
  955MOL0     N28841  10.756  10.826   2.688 -0.3607 -0.6170  0.6581
  955MOL0     C28842   9.594  10.788   2.828 -0.5780  0.1880 -0.2901
  955MOL0     C28843   9.472  10.769   2.885  0.0286  1.0942  0.2061
  955MOL0     C28844   9.301  11.024   3.101  0.3906  0.5483 -0.2346
  955MOL0     C28845   9.429  10.993   3.138 -0.1301  0.3814 -0.6692
  955MOL0     C28846   9.517  11.090   3.181 -0.8655  1.3424 -0.6447
  955MOL0     C28847   9.471  11.221   3.207 -0.5013  0.0629 -0.2988
  955MOL0     O28848   9.551  11.321   3.256 -0.1317  0.1275 -0.1920
  955MOL0     C28849   9.658  11.279   3.338 -0.2528 -0.3786  0.6363
  955MOL0     C28850   9.733  11.408   3.386 -0.2141 -0.1934 -0.1415
  955MOL0     C28851   9.874  11.363   3.437  0.6689  0.3324  0.3252
  955MOL0     C28852   9.956  11.491   3.464 -0.4235 -0.6738  0.1536
  955MOL0     C28853   9.908  11.559   3.582  0.5214  1.0207  0.0843
  955MOL0     C28854   9.862  11.627   3.675  0.4607  0.1103 -0.3249
  955MOL0     C28855   9.341  11.258   3.172  0.3150  0.7887 -0.0587
  955MOL0     C28856   9.256  11.160   3.115 -0.4545  0.0103  0.0945
  955MOL0     C28857   9.112  11.199   3.081  0.1007 -0.8461  0.5951
  955MOL0     H28858   9.341  11.074   2.771  0.1525 -0.2742 -0.2110
  955MOL0     H28859   9.564  11.090   2.687  2.7095  0.2529  1.3045
  955MOL0     H28860   9.861  10.746   2.753  2.4008 -0.8303 -0.9355
  955MOL0     H28861   9.782  10.742   2.598  2.3633 -0.7252 -0.8060
  955MOL0     H28862   9.991  10.943   2.640 -1.3020  0.2412  0.6815
  955MOL0     H28863   9.927  10.885   2.488  1.6459  0.2413 -0.2791
  955MOL0     H28864  10.030  10.655   2.525 -2.1191  1.1568 -0.9998
  955MOL0     H28865  10.088  10.710   2.684 -0.5774  0.1425  0.6116
  955MOL0     H28866  10.148  10.800   2.393 -1.2507 -2.9163 -0.6804
  955MOL0     H28867  10.197  10.905   2.522 -2.0135 -0.4065  1.0157
  955MOL0     H28868  10.306  10.695   2.623 -0.6992  1.0567  1.4461
  955MOL0     H28869  10.285  10.615   2.463  1.6429  1.5901 -1.8249
  955MOL0     H28870  10.412  10.801   2.357  2.6565 -2.0501 -1.1136
  955MOL0     H28871  10.444  10.878   2.516 -1.6672  1.7624 -2.5541
  955MOL0     H28872  10.531  10.604   2.427 -0.5043 -0.0737 -0.1132
  955MOL0     H28873  10.539  10.660   2.602  1.4603  0.2192  0.4386
  955MOL0     H28874  10.770  10.683   2.473  1.5107  2.4227 -0.3964
  955MOL0     H28875  10.682  10.790   2.374  0.2591 -0.9201  0.0666
  955MOL0     H28876  10.617  11.047   2.489  2.1120  0.4942 -0.0578
  955MOL0     H28877  10.717  11.254   2.649  2.1222  0.8241  2.1248
  955MOL0     H28878  10.582  11.175   2.740  0.5332 -1.3629  0.4910
  955MOL0     H28879  10.698  11.317   2.878  1.4335  1.3120 -1.7354
  955MOL0     H28880  10.715  11.158   2.936 -1.3296  1.6142  1.3766
  955MOL0     H28881  10.959  11.163   2.809 -1.5377  0.4574 -4.3762
  955MOL0     H28882  10.921  11.259   2.957 -0.0191 -0.2519  0.1953
  955MOL0     H28883  10.876  11.449   2.780 -0.7337 -0.2440  1.3564
  955MOL0     H28884  10.934  11.342   2.655  1.3751  0.1860  0.2799
  955MOL0     H28885  11.001  11.576   2.610 -0.2639  0.6686  0.9119
  955MOL0     H28886  11.137  11.770   2.546  1.1770  0.6601  2.2467
  955MOL0     H28887  11.755  11.828   2.752  3.2408  1.2709  1.3880
  955MOL0     H28888  11.922  11.966   2.675 -1.6910 -0.1295  1.1717
  955MOL0     H28889  12.084  12.253   2.518  2.7859 -0.6297  4.3050
  955MOL0     H28890  12.054  12.129   2.625  0.5631  0.6362 -0.3184
  955MOL0     H28891  11.961  11.986   2.427 -2.0299  0.4497 -2.2033
  955MOL0     H28892  11.984  12.131   2.321 -1.1237  0.2116  0.8157
  955MOL0     H28893  12.161  11.960   2.297 -2.2151  0.4927 -1.0083
  955MOL0     H28894  12.227  12.114   2.337  0.7725 -0.7458 -0.0479
  955MOL0     H28895  12.210  11.859   2.492  0.2628 -0.3025 -0.4035
  955MOL0     H28896  12.205  11.987   2.599  1.5212  0.4729 -0.4108
  955MOL0     H28897  12.425  12.077   2.470 -1.9968  0.3510  1.0247
  955MOL0     H28898  12.433  11.905   2.420  1.0198 -1.3232  0.6436
  955MOL0     H28899  12.417  11.982   2.709  0.0955 -0.9138  0.8517
  955MOL0     H28900  12.449  11.825   2.636  2.6601  0.2238  1.2050
  955MOL0     H28901  12.596  12.078   2.642 -1.6677 -0.6232  5.0581
  955MOL0     H28902  12.644  11.948   2.526  2.2027 -3.2499  1.3846
  955MOL0     H28903  12.638  11.922   2.828 -0.7728 -1.5009  0.0933
  955MOL0     H28904  12.683  11.796   2.719  0.8665 -0.4144  0.5272
  955MOL0     H28905  11.647  12.264   2.564  1.9236  0.0713 -0.3893
  955MOL0     H28906  11.463  12.119   2.637 -0.8249 -1.9467 -3.3095
  955MOL0     H28907  11.434  11.665   2.848 -0.2531  2.7542 -0.3746
  955MOL0     H28908  11.320  11.451   2.867  1.4067 -0.2556 -0.8982
  955MOL0     H28909   9.660  10.701   2.826 -0.8229 -0.0125 -2.1305
  955MOL0     H28910   9.438  10.673   2.922 -0.0858  0.4892 -1.3968
  955MOL0     H28911   9.446  10.886   3.136 -0.2545  0.3003  0.9687
  955MOL0     H28912   9.618  11.062   3.210 -1.5930 -3.7513 -2.1316
  955MOL0     H28913   9.738  11.225   3.286  1.1962  0.5530  1.7896
  955MOL0     H28914   9.620  11.229   3.428 -0.5314 -0.1519  0.6453
  955MOL0     H28915   9.669  11.448   3.465 -0.2108 -3.4011  1.6532
  955MOL0     H28916   9.737  11.483   3.307 -0.6784 -0.4093 -0.3780
  955MOL0     H28917   9.922  11.301   3.361  1.6104  1.4207  0.0007
  955MOL0     H28918   9.854  11.303   3.527 -3.0513  2.2854  1.0305
  955MOL0     H28919  10.059  11.457   3.475  0.3491  1.9080  1.9986
  955MOL0     H28920   9.961  11.566   3.385  0.8443 -0.0317  0.8181
  955MOL0     H28921   9.820  11.689   3.752 -2.5449 -2.5970  0.4505
  955MOL0     H28922   9.296  11.355   3.193 -0.9049  0.3328 -0.5118
  955MOL0     H28923   9.098  11.306   3.059 -0.0914 -1.2173 -1.2736
  955MOL0     H28924   9.059  11.141   3.006 -1.6744  1.8930 -0.4031
  955MOL0     H28925   9.052  11.188   3.171 -1.6173 -0.2781 -0.4350
  956MOL0     O28926   3.619  10.009   4.669  0.1877  0.3382 -0.3323
  956MOL0     C28927   3.550   9.907   4.662  0.1263  0.2452 -0.3013
  956MOL0     O28928   3.551   9.809   4.748  0.0997 -0.4081 -0.1767
  956MOL0     C28929   3.632   9.824   4.862 -0.7474  0.2530  0.8638
  956MOL0     C28930   3.749   9.751   4.873 -0.7351  0.4605 -0.0648
  956MOL0     C28931   3.834   9.768   4.988  0.5134  0.2037  0.8387
  956MOL0     C28932   3.807   9.861   5.089 -0.4633 -0.6221 -0.1685
  956MOL0     O28933   3.885   9.884   5.198  0.3344  0.3405  0.2900
  956MOL0     C28934   4.016   9.826   5.201  0.3866  0.4847 -0.7815
  956MOL0     C28935   4.107   9.875   5.306  0.8059  0.5821 -0.1350
  956MOL0     C28936   4.239   9.793   5.305  1.4815 -0.5731  0.5344
  956MOL0     C28937   4.337   9.840   5.414 -0.5489  0.1357  0.1117
  956MOL0     C28938   4.481   9.789   5.377  0.5451  0.4827 -0.3114
  956MOL0     C28939   4.569   9.851   5.474  0.3076  0.8334 -0.5779
  956MOL0     C28940   4.718   9.797   5.469  0.5323  0.1246  0.8069
  956MOL0     C28941   4.770   9.797   5.321 -0.1888 -0.0757 -0.3758
  956MOL0     N28942   4.917   9.778   5.329 -0.6536  0.6481  0.7556
  956MOL0     C28943   4.978   9.659   5.334 -0.3214 -0.1452  0.0543
  956MOL0     C28944   5.111   9.684   5.326 -0.1817 -0.0041  0.3859
  956MOL0     C28945   5.215   9.576   5.339  0.7188  0.2334  0.0730
  956MOL0     C28946   5.340   9.616   5.266 -0.0677 -0.8014 -0.9110
  956MOL0     C28947   5.402   9.733   5.334  0.1380 -1.1214  0.3614
  956MOL0     C28948   5.549   9.726   5.336 -0.0019  0.3367 -0.0749
  956MOL0     O28949   5.600   9.711   5.201 -0.3077  0.2716 -0.0456
  956MOL0     C28950   5.735   9.702   5.175  0.0761  0.5723 -0.0941
  956MOL0     C28951   5.766   9.646   5.055 -0.4684  0.2124 -0.0172
  956MOL0     C28952   5.904   9.642   5.004 -0.7673 -0.4805  0.2492
  956MOL0     C28953   6.013   9.680   5.093  0.5390 -0.5008  0.3324
  956MOL0     C28954   6.145   9.674   5.045 -0.4427  0.6844  0.6526
  956MOL0     O28955   6.246   9.650   5.130 -0.5834  0.4056 -0.2768
  956MOL0     C28956   6.369   9.647   5.073 -0.4424  0.0485 -0.3384
  956MOL0     C28957   6.437   9.522   5.069  0.3579  0.4846  0.9565
  956MOL0     C28958   6.565   9.509   5.020  0.2576 -0.2383 -0.1683
  956MOL0     C28959   6.645   9.613   4.980  0.1902 -0.0848  0.0140
  956MOL0     O28960   6.774   9.581   4.955 -0.0463 -0.1006  0.8444
  956MOL0     C28961   6.868   9.685   4.953  0.3640 -0.0547  0.6687
  956MOL0     C28962   7.008   9.619   4.957 -0.1410 -0.3120 -0.0230
  956MOL0     C28963   7.122   9.721   4.938  0.1772 -0.0445 -0.8997
  956MOL0     C28964   7.254   9.647   4.973 -0.1716  0.0314 -0.5884
  956MOL0     C28965   7.390   9.713   4.940  0.1915 -0.3602 -0.0911
  956MOL0     C28966   7.513   9.624   4.960 -0.1462 -0.1810  0.1265
  956MOL0     C28967   7.641   9.693   4.925  0.2831  0.1795  0.1201
  956MOL0     C28968   7.745   9.583   4.909 -0.1152  0.2296 -0.7639
  956MOL0    Cl28969   7.908   9.643   4.875 -0.2506  0.1798  0.1448
  956MOL0     C28970   6.583   9.736   4.986 -0.2471 -0.0760 -0.4149
  956MOL0     C28971   6.453   9.752   5.037  0.2400 -0.0806  0.8222
  956MOL0     O28972   6.157   9.676   4.923  0.3707  0.5228  0.0689
  956MOL0     C28973   5.972   9.745   5.209  0.2902  0.0467 -0.1721
  956MOL0     C28974   5.838   9.761   5.245  0.2081 -0.1068 -0.0999
  956MOL0     N28975   5.125   9.817   5.307 -0.3612 -0.0278 -0.2675
  956MOL0     N28976   5.012   9.877   5.316 -0.6804 -0.6535  0.4884
  956MOL0     C28977   3.692   9.940   5.067 -0.0178  0.7584  0.3513
  956MOL0     C28978   3.601   9.923   4.960  0.9042  0.1079 -0.0254
  956MOL0     C28979   3.447   9.899   4.553 -0.4604  0.3679  0.0006
  956MOL0     C28980   3.431  10.012   4.472 -0.2432 -0.2002 -0.5014
  956MOL0     C28981   3.332  10.011   4.375 -0.6204 -0.0533  0.6054
  956MOL0     C28982   3.255   9.905   4.338 -0.5169  0.5444  0.3348
  956MOL0     O28983   3.155   9.897   4.243  0.0814 -0.0187 -1.1697
  956MOL0     C28984   3.085  10.016   4.205  0.4005 -0.2116 -0.1786
  956MOL0     C28985   2.989   9.984   4.096  0.5801  0.7429  0.6748
  956MOL0     C28986   2.879   9.892   4.154 -1.1049 -0.0190  0.3432
  956MOL0     C28987   2.766   9.873   4.058  0.6443 -0.5117  0.0717
  956MOL0     C28988   2.644   9.832   4.128  0.0079 -0.6416  0.2946
  956MOL0     C28989   2.543   9.786   4.180 -0.3001  0.4311  0.1899
  956MOL0     C28990   3.282   9.787   4.404 -0.1364 -0.1766 -0.6203
  956MOL0     C28991   3.371   9.778   4.514 -0.0741 -0.4201 -1.0556
  956MOL0     C28992   3.376   9.648   4.590 -0.2940  0.4084 -0.0064
  956MOL0     H28993   3.772   9.667   4.808 -1.0922 -0.6453  1.2021
  956MOL0     H28994   3.908   9.688   4.995 -2.5888 -2.9635  0.3070
  956MOL0     H28995   4.000   9.719   5.218 -0.1270  0.9389  1.9531
  956MOL0     H28996   4.065   9.852   5.107  1.6603  0.8663 -0.0323
  956MOL0     H28997   4.054   9.860   5.401 -0.2490 -1.6845 -1.0012
  956MOL0     H28998   4.116   9.983   5.292 -1.3909  0.6316 -1.7288
  956MOL0     H28999   4.288   9.811   5.209  1.0486  1.1717  0.5925
  956MOL0     H29000   4.227   9.685   5.311 -0.3478 -0.3982  0.4383
  956MOL0     H29001   4.345   9.949   5.414  0.4336  0.0726  1.0568
  956MOL0     H29002   4.303   9.809   5.513  0.2251 -1.4695 -0.0985
  956MOL0     H29003   4.481   9.680   5.389 -0.0233  0.5006 -0.1026
  956MOL0     H29004   4.504   9.818   5.274 -2.6290  1.3597 -0.8844
  956MOL0     H29005   4.579   9.958   5.453  2.7696  1.1772  1.8018
  956MOL0     H29006   4.531   9.832   5.574 -0.8032 -0.8498 -1.2836
  956MOL0     H29007   4.702   9.697   5.510 -1.6633  0.2435  0.3550
  956MOL0     H29008   4.777   9.860   5.536 -1.4805  1.3612  1.4905
  956MOL0     H29009   4.733   9.706   5.273 -1.2577 -2.1084  3.8059
  956MOL0     H29010   4.739   9.884   5.263 -0.5115  1.4298  1.9004
  956MOL0     H29011   4.922   9.567   5.347 -1.6493  0.9501  2.7425
  956MOL0     H29012   5.241   9.559   5.444 -0.5110  0.1087  0.3726
  956MOL0     H29013   5.175   9.483   5.296  0.0069  1.2988 -1.6715
  956MOL0     H29014   5.406   9.529   5.259  1.0653  0.1428 -4.3178
  956MOL0     H29015   5.319   9.645   5.162  3.2957 -3.0380 -2.4096
  956MOL0     H29016   5.366   9.734   5.438 -0.2152 -0.1413  0.2417
  956MOL0     H29017   5.368   9.825   5.286  0.5095 -0.2430  1.6940
  956MOL0     H29018   5.576   9.640   5.398  0.7096  0.2379 -0.5066
  956MOL0     H29019   5.585   9.817   5.387 -0.2702  0.5255 -0.2209
  956MOL0     H29020   5.691   9.612   4.985 -1.6646  1.1452  0.7942
  956MOL0     H29021   5.927   9.617   4.901  1.8531 -0.7299  0.8128
  956MOL0     H29022   6.385   9.433   5.105 -1.1341  0.3185 -1.3747
  956MOL0     H29023   6.613   9.411   5.017  0.3664 -0.1668 -2.5272
  956MOL0     H29024   6.861   9.746   4.863  1.1400 -0.4652  0.3214
  956MOL0     H29025   6.869   9.754   5.038  3.4929 -0.9831  1.5285
  956MOL0     H29026   7.015   9.575   5.057 -3.2704  0.7687  0.7711
  956MOL0     H29027   7.015   9.547   4.874 -0.1225 -0.2327 -0.0903
  956MOL0     H29028   7.123   9.769   4.840 -0.7620  0.4047 -0.7097
  956MOL0     H29029   7.104   9.793   5.019 -0.7781  0.1004 -1.2295
  956MOL0     H29030   7.264   9.553   4.917 -0.2612  0.9619 -2.2393
  956MOL0     H29031   7.256   9.632   5.081  4.7423  2.9411  0.0540
  956MOL0     H29032   7.414   9.800   5.003  1.4021  0.0765 -1.1243
  956MOL0     H29033   7.381   9.747   4.837 -0.3264 -1.5260 -0.4413
  956MOL0     H29034   7.514   9.595   5.066  0.8890 -0.1636  0.1359
  956MOL0     H29035   7.502   9.538   4.893 -1.5838  0.0233  0.0814
  956MOL0     H29036   7.667   9.777   4.989  0.2035  0.9174 -0.7893
  956MOL0     H29037   7.625   9.753   4.835 -0.0552 -0.0747  0.0058
  956MOL0     H29038   7.753   9.524   5.000 -1.0902  0.0653 -0.7768
  956MOL0     H29039   7.723   9.506   4.834 -0.1717  0.5363 -1.0657
  956MOL0     H29040   6.644   9.823   4.963  0.1674 -0.4766 -0.8537
  956MOL0     H29041   6.426   9.857   5.048  2.1875  0.5254  0.2864
  956MOL0     H29042   6.050   9.779   5.276  0.1022 -2.5109  1.4503
  956MOL0     H29043   5.828   9.813   5.340  0.7510  0.2802 -0.2491
  956MOL0     H29044   3.682  10.017   5.143  2.1481  1.0650  0.3742
  956MOL0     H29045   3.514   9.987   4.962 -1.2104 -2.5162 -1.5590
  956MOL0     H29046   3.494  10.099   4.489  0.4529 -1.0253  1.3759
  956MOL0     H29047   3.315  10.110   4.334  0.8211  1.1464  2.7070
  956MOL0     H29048   3.160  10.089   4.175  2.7360 -2.5695 -0.4908
  956MOL0     H29049   3.038  10.061   4.293  1.6574  0.4368  0.1970
  956MOL0     H29050   3.033   9.940   4.007 -1.1137 -2.1997  1.1687
  956MOL0     H29051   2.947  10.080   4.064 -0.3749 -0.1332 -0.8186
  956MOL0     H29052   2.836   9.947   4.239 -0.3918  1.4796 -0.2386
  956MOL0     H29053   2.922   9.797   4.185  0.1519 -0.9502 -3.7706
  956MOL0     H29054   2.741   9.967   4.007  0.3609 -0.2999  0.5918
  956MOL0     H29055   2.792   9.800   3.981  1.0681  0.7902 -1.0589
  956MOL0     H29056   2.448   9.743   4.204 -0.7586  0.3806 -1.5537
  956MOL0     H29057   3.231   9.695   4.375 -2.0462  0.1680  1.3849
  956MOL0     H29058   3.303   9.577   4.550  0.7422 -1.2289  0.8931
  956MOL0     H29059   3.475   9.601   4.594 -0.3655  0.2610  0.0603
  956MOL0     H29060   3.341   9.650   4.693  0.9412 -0.5990  0.4670
  957MOL0     O29061   4.013   3.224   7.425  0.9081  1.3985  0.0705
  957MOL0     C29062   3.938   3.291   7.495 -0.4222 -0.4551 -0.2970
  957MOL0     O29063   3.969   3.407   7.557 -0.7689  0.3946  0.2604
  957MOL0     C29064   4.093   3.467   7.546 -0.1738  0.1398  0.0602
  957MOL0     C29065   4.175   3.496   7.661 -0.0323  0.6592  1.3455
  957MOL0     C29066   4.301   3.569   7.636  0.8032  0.0671 -0.2232
  957MOL0     C29067   4.335   3.622   7.508 -0.2783  0.5597 -0.0840
  957MOL0     O29068   4.457   3.683   7.483 -0.0246  0.4602  0.0610
  957MOL0     C29069   4.495   3.726   7.353  0.5174 -0.1065 -0.4092
  957MOL0     C29070   4.545   3.608   7.274  0.0013  0.3287  0.3947
  957MOL0     C29071   4.647   3.532   7.353 -0.0265 -0.9764 -0.6240
  957MOL0     C29072   4.693   3.414   7.273 -0.6496 -0.6430  0.4686
  957MOL0     C29073   4.824   3.351   7.327  0.1547  0.5122  0.1735
  957MOL0     C29074   4.943   3.443   7.297  0.1521  0.6319  0.3426
  957MOL0     C29075   5.062   3.385   7.375 -0.0054  1.2676  0.1222
  957MOL0     C29076   5.102   3.473   7.487  0.3426 -0.3632 -0.0493
  957MOL0     N29077   5.193   3.407   7.578  0.0898 -0.1130 -0.8471
  957MOL0     C29078   5.158   3.330   7.686  0.1151  0.3013  0.2383
  957MOL0     C29079   5.267   3.280   7.736 -0.2320  0.1779 -0.2454
  957MOL0     C29080   5.266   3.201   7.868  0.0270  0.3972  0.1230
  957MOL0     C29081   5.405   3.171   7.924  0.1324 -0.6441 -0.1782
  957MOL0     C29082   5.393   3.151   8.077 -0.3934  0.6645  0.1295
  957MOL0     C29083   5.536   3.125   8.124  0.5233 -0.9949  0.1026
  957MOL0     O29084   5.626   3.236   8.089 -0.1732 -0.2886 -0.1256
  957MOL0     C29085   5.753   3.245   8.141 -1.1275  0.3220 -0.1159
  957MOL0     C29086   5.811   3.366   8.179 -0.2408 -0.0314 -0.0810
  957MOL0     C29087   5.942   3.364   8.217 -0.1079 -0.1078 -0.4519
  957MOL0     C29088   6.019   3.243   8.229  0.6787 -0.0249  0.4680
  957MOL0     C29089   6.156   3.251   8.276  0.6522  0.4049  0.1902
  957MOL0     O29090   6.237   3.165   8.222  0.4960  0.0773 -0.2108
  957MOL0     C29091   6.373   3.172   8.244  0.0449  0.9680  0.5400
  957MOL0     C29092   6.424   3.170   8.373  0.1722 -0.1912 -0.3033
  957MOL0     C29093   6.561   3.185   8.393  0.5055  0.3029 -0.0512
  957MOL0     C29094   6.652   3.190   8.286 -0.4029 -1.2483 -0.2089
  957MOL0     O29095   6.782   3.207   8.326 -0.6337  0.5296  0.8461
  957MOL0     C29096   6.873   3.165   8.224 -0.1737  0.8490  0.1794
  957MOL0     C29097   6.934   3.285   8.139  0.0538 -0.2877  0.2421
  957MOL0     C29098   7.061   3.250   8.062  0.0244 -1.1073 -0.3842
  957MOL0     C29099   7.048   3.114   7.985  1.1779 -0.0973  0.7002
  957MOL0     C29100   7.182   3.068   7.933  0.6027  0.2418  0.6240
  957MOL0     C29101   7.168   2.944   7.849  0.6444 -0.5536  0.1462
  957MOL0     C29102   7.297   2.872   7.817  0.2359 -0.8317 -0.5464
  957MOL0     C29103   7.277   2.801   7.686  0.3979 -0.1924 -0.2091
  957MOL0    Cl29104   7.175   2.648   7.724 -0.0361  0.0357 -0.0340
  957MOL0     C29105   6.595   3.185   8.149 -0.8608  0.5739 -0.4027
  957MOL0     C29106   6.461   3.183   8.137 -0.5190  0.2813 -0.2004
  957MOL0     O29107   6.177   3.331   8.367 -0.3489  0.6509 -1.0173
  957MOL0     C29108   5.956   3.123   8.197  0.0639  0.2525  0.2307
  957MOL0     C29109   5.827   3.120   8.147 -0.1509 -0.1270 -0.4114
  957MOL0     N29110   5.378   3.324   7.658 -0.0125 -0.0542  0.1560
  957MOL0     N29111   5.327   3.404   7.566 -0.3216 -0.3211  0.0632
  957MOL0     C29112   4.241   3.589   7.409  0.7513 -0.1085  0.5000
  957MOL0     C29113   4.125   3.520   7.423  0.5331  0.1838 -0.4388
  957MOL0     C29114   3.789   3.265   7.499 -0.2804  0.1737  0.4145
  957MOL0     C29115   3.714   3.354   7.574 -0.3041 -0.2627 -0.6090
  957MOL0     C29116   3.577   3.346   7.580 -0.2105  0.1374 -0.6507
  957MOL0     C29117   3.500   3.255   7.516 -0.3113  0.5684  0.4962
  957MOL0     O29118   3.364   3.260   7.526 -0.1698 -0.3561  0.0060
  957MOL0     C29119   3.306   3.389   7.507  0.1129  0.0120  1.0418
  957MOL0     C29120   3.157   3.376   7.482 -0.4132  0.4865  0.0170
  957MOL0     C29121   3.114   3.285   7.359  0.0136  0.1238 -0.3750
  957MOL0     C29122   3.142   3.348   7.217 -0.2874  0.0230 -0.4110
  957MOL0     C29123   3.287   3.361   7.182  0.8386  1.2232  0.1378
  957MOL0     C29124   3.396   3.376   7.147 -0.4843  0.5684 -0.4916
  957MOL0     C29125   3.570   3.162   7.440  0.1957  0.1882 -0.3353
  957MOL0     C29126   3.712   3.163   7.430 -0.1939 -0.6217 -0.4896
  957MOL0     C29127   3.777   3.049   7.364 -0.9572  0.3095 -0.0083
  957MOL0     H29128   4.150   3.454   7.758 -2.6958  2.3126  1.4523
  957MOL0     H29129   4.370   3.582   7.719 -1.4905 -0.8415  1.9565
  957MOL0     H29130   4.422   3.786   7.300 -0.3560 -0.6793  0.1234
  957MOL0     H29131   4.578   3.795   7.370  2.6819 -2.7737  0.7327
  957MOL0     H29132   4.587   3.635   7.176  0.2442 -1.2577  0.0339
  957MOL0     H29133   4.462   3.541   7.247  2.4761 -2.6882 -0.2469
  957MOL0     H29134   4.593   3.486   7.436 -0.2107  1.5777  0.7924
  957MOL0     H29135   4.714   3.600   7.407 -0.1884 -1.1594 -0.1841
  957MOL0     H29136   4.616   3.337   7.267 -1.3892  0.1330 -0.3811
  957MOL0     H29137   4.709   3.459   7.175 -1.0912  2.1168  1.5682
  957MOL0     H29138   4.812   3.309   7.427 -0.3212 -0.5109 -0.2964
  957MOL0     H29139   4.850   3.260   7.272 -0.6428 -1.9933  3.6016
  957MOL0     H29140   4.945   3.443   7.187 -2.6734 -2.8345  0.0720
  957MOL0     H29141   4.922   3.545   7.328 -0.5597 -0.4675  3.9570
  957MOL0     H29142   5.140   3.366   7.301 -2.4134  1.2517 -2.5933
  957MOL0     H29143   5.036   3.285   7.412  3.5413  0.7583  1.6957
  957MOL0     H29144   5.144   3.566   7.448 -3.7826  1.5332 -0.5609
  957MOL0     H29145   5.010   3.506   7.537 -0.1914  1.3796 -2.0380
  957MOL0     H29146   5.056   3.314   7.720  1.3695 -1.6136  3.5845
  957MOL0     H29147   5.202   3.251   7.941  1.4361  0.8280  1.1008
  957MOL0     H29148   5.203   3.113   7.852  1.2069 -0.5455  0.5408
  957MOL0     H29149   5.444   3.083   7.871 -0.3881 -1.9881  1.5486
  957MOL0     H29150   5.471   3.255   7.901  1.6149 -1.9120 -0.7531
  957MOL0     H29151   5.320   3.074   8.104 -1.1570  0.6853 -1.6825
  957MOL0     H29152   5.363   3.247   8.121 -0.0023  2.0140 -2.3474
  957MOL0     H29153   5.572   3.030   8.084 -2.6177 -2.0339 -0.4990
  957MOL0     H29154   5.516   3.120   8.231 -0.7431  1.4189  0.0600
  957MOL0     H29155   5.748   3.454   8.173 -1.1430 -0.6173  0.4142
  957MOL0     H29156   5.985   3.459   8.245 -1.0464 -0.4010  2.2621
  957MOL0     H29157   6.354   3.162   8.455  0.6558 -1.6338 -0.0062
  957MOL0     H29158   6.594   3.200   8.495  0.7950  4.6198 -0.5801
  957MOL0     H29159   6.957   3.120   8.278 -0.9897 -1.6873 -0.5323
  957MOL0     H29160   6.831   3.090   8.157 -1.1870  1.7483 -0.2215
  957MOL0     H29161   6.860   3.327   8.071  0.1852 -0.5102 -0.0396
  957MOL0     H29162   6.955   3.373   8.201 -0.9748  0.2081 -0.1012
  957MOL0     H29163   7.088   3.336   8.000 -0.5506 -0.2275  0.5501
  957MOL0     H29164   7.144   3.240   8.133  1.7720  0.2661 -2.1243
  957MOL0     H29165   6.981   3.138   7.901  2.5761  1.9043  0.0713
  957MOL0     H29166   7.008   3.043   8.057 -0.2817  1.2506  1.2864
  957MOL0     H29167   7.247   3.046   8.018  0.6380  0.7520  0.7311
  957MOL0     H29168   7.229   3.152   7.880  0.1374  1.0105  1.4039
  957MOL0     H29169   7.098   2.873   7.895 -0.3994  0.2837 -0.0962
  957MOL0     H29170   7.116   2.973   7.758  1.1355  1.1762  0.3847
  957MOL0     H29171   7.326   2.796   7.890 -2.7579 -0.1421  1.5564
  957MOL0     H29172   7.380   2.942   7.803  0.8178 -1.7808 -2.0593
  957MOL0     H29173   7.243   2.865   7.604  1.1365 -1.2634 -1.3731
  957MOL0     H29174   7.367   2.754   7.645  1.7608  1.4215  0.7540
  957MOL0     H29175   6.658   3.209   8.064 -2.2775  1.1997 -1.3236
  957MOL0     H29176   6.424   3.195   8.036  1.8524  1.5501 -1.0000
  957MOL0     H29177   6.023   3.038   8.203  0.3776  0.5320  0.7846
  957MOL0     H29178   5.779   3.035   8.101  1.5446 -0.0964 -2.3782
  957MOL0     H29179   4.249   3.630   7.309 -0.9839 -0.6740  0.0913
  957MOL0     H29180   4.054   3.489   7.347 -1.4800  1.8346  0.6523
  957MOL0     H29181   3.769   3.430   7.628  2.1794 -1.0089 -1.9440
  957MOL0     H29182   3.533   3.421   7.646 -0.9528  0.2550 -1.2558
  957MOL0     H29183   3.360   3.436   7.425  3.3783 -4.0084  0.5550
  957MOL0     H29184   3.321   3.457   7.591  0.0528 -2.0050  2.7709
  957MOL0     H29185   3.111   3.474   7.469  0.4296  0.8256 -0.4999
  957MOL0     H29186   3.119   3.331   7.574 -0.2911 -2.1906 -1.1437
  957MOL0     H29187   3.006   3.272   7.371  0.3575 -1.8808  1.0409
  957MOL0     H29188   3.166   3.189   7.364  0.4116  0.3354 -0.3445
  957MOL0     H29189   3.099   3.286   7.137  0.2696  0.0555 -0.7411
  957MOL0     H29190   3.096   3.447   7.214 -0.8521 -0.2596 -2.1864
  957MOL0     H29191   3.497   3.392   7.114 -0.3784 -1.3241 -1.2031
  957MOL0     H29192   3.514   3.089   7.383  1.4381 -0.1967 -1.0840
  957MOL0     H29193   3.868   3.021   7.417 -0.5924  1.3635 -0.0589
  957MOL0     H29194   3.714   2.959   7.360 -1.2160  0.4611  0.5374
  957MOL0     H29195   3.815   3.077   7.266 -2.3839 -0.2283 -0.7464
  958MOL0     O29196   5.945   3.952   8.222  0.3282 -0.1399  0.6501
  958MOL0     C29197   6.035   3.904   8.288 -0.5901 -0.3604  0.2799
  958MOL0     O29198   6.029   3.797   8.370  0.4726  1.1144  0.2638
  958MOL0     C29199   5.916   3.721   8.388 -0.1660 -0.4465  0.4571
  958MOL0     C29200   5.922   3.613   8.473 -0.1078  0.4018  0.0969
  958MOL0     C29201   5.828   3.518   8.515  1.0121 -0.0080 -0.2876
  958MOL0     C29202   5.700   3.540   8.474 -0.2017  0.2071 -0.5617
  958MOL0     O29203   5.609   3.446   8.519 -0.7854 -0.4225 -0.4573
  958MOL0     C29204   5.533   3.377   8.418  0.1266 -0.0763  0.2934
  958MOL0     C29205   5.396   3.433   8.386 -0.2014 -0.1771 -0.1562
  958MOL0     C29206   5.324   3.491   8.508  0.5951  0.3759 -0.2317
  958MOL0     C29207   5.171   3.509   8.491 -0.0701  0.9882  0.1622
  958MOL0     C29208   5.105   3.573   8.607 -0.0965 -0.3251 -0.3130
  958MOL0     C29209   5.147   3.503   8.746  0.7617  0.0559  0.4432
  958MOL0     C29210   5.061   3.554   8.853 -0.0056 -0.1649  0.8364
  958MOL0     C29211   5.062   3.466   8.985 -0.7614 -0.6065 -0.3291
  958MOL0     N29212   5.189   3.453   9.062 -0.2160  0.1133 -0.6353
  958MOL0     C29213   5.225   3.540   9.163  0.0854  0.3038  0.6674
  958MOL0     C29214   5.340   3.498   9.213 -0.2151 -0.9117 -0.5795
  958MOL0     C29215   5.423   3.562   9.321  0.5912  0.1681 -0.3361
  958MOL0     C29216   5.552   3.627   9.282  0.2333 -0.5546  0.1224
  958MOL0     C29217   5.526   3.757   9.207 -0.0478  0.0052 -0.1920
  958MOL0     C29218   5.516   3.878   9.306 -0.4891  0.1207 -0.8632
  958MOL0     O29219   5.634   3.875   9.383  0.5062 -0.1210  0.0453
  958MOL0     C29220   5.762   3.919   9.339  0.3227 -0.3259  1.1695
  958MOL0     C29221   5.793   3.993   9.222  0.1715  0.1288  0.7583
  958MOL0     C29222   5.923   4.042   9.197  0.5469  0.4494 -0.1108
  958MOL0     C29223   6.030   4.019   9.287 -0.3612 -0.4723 -0.9560
  958MOL0     C29224   6.166   4.055   9.256 -0.7851  0.4051 -1.4594
  958MOL0     O29225   6.195   4.106   9.131  1.1052 -0.5248 -0.4841
  958MOL0     C29226   6.325   4.103   9.095 -0.6085 -0.9386  0.6904
  958MOL0     C29227   6.390   4.227   9.067 -0.2630  0.1676  0.3617
  958MOL0     C29228   6.528   4.226   9.021  0.7492  0.0576  0.6824
  958MOL0     C29229   6.600   4.102   9.013  0.3230  0.6319 -0.0381
  958MOL0     O29230   6.726   4.077   8.965 -0.5458  0.1503  1.6090
  958MOL0     C29231   6.805   4.187   8.913 -0.5628 -0.3375 -0.1980
  958MOL0     C29232   6.956   4.142   8.922  0.3958  0.6191  0.9448
  958MOL0     C29233   7.045   4.204   8.817 -0.3673  0.0555 -0.0949
  958MOL0     C29234   7.190   4.187   8.854 -1.0392  0.5064  1.0572
  958MOL0     C29235   7.287   4.235   8.748 -0.4764 -0.3009 -0.5887
  958MOL0     C29236   7.426   4.160   8.761 -0.3317 -0.1023  0.0728
  958MOL0     C29237   7.525   4.183   8.642  0.5978 -0.1895  0.4067
  958MOL0     C29238   7.648   4.094   8.680  0.4069 -0.0680  0.7177
  958MOL0    Cl29239   7.750   4.200   8.808  0.4410  0.1914  0.1551
  958MOL0     C29240   6.526   3.986   9.037  0.3131 -0.6529 -0.6216
  958MOL0     C29241   6.394   3.982   9.077 -0.2911  0.1467 -0.6634
  958MOL0     O29242   6.256   4.025   9.342  0.8014 -0.5097 -0.4332
  958MOL0     C29243   6.005   3.943   9.399 -0.2845  0.9517  0.0616
  958MOL0     C29244   5.876   3.892   9.419 -0.4051  0.9650 -0.2022
  958MOL0     N29245   5.374   3.378   9.148 -0.4909  1.2370 -0.9790
  958MOL0     N29246   5.283   3.357   9.057  0.7170 -0.2868  0.3345
  958MOL0     C29247   5.679   3.651   8.390  0.4292  0.6414  0.4251
  958MOL0     C29248   5.787   3.741   8.346 -0.4498  0.3000  0.2983
  958MOL0     C29249   6.173   3.967   8.267 -0.0039  0.8939  0.9099
  958MOL0     C29250   6.273   3.920   8.346 -0.6316  0.2785 -0.0622
  958MOL0     C29251   6.409   3.962   8.336  0.8589 -0.3369  0.6377
  958MOL0     C29252   6.443   4.056   8.234 -0.3454  0.2050  0.4187
  958MOL0     O29253   6.576   4.072   8.206  0.0912 -0.4013 -0.5272
  958MOL0     C29254   6.611   4.181   8.123 -0.4081  0.0449 -0.6507
  958MOL0     C29255   6.593   4.143   7.977  0.1663  0.4443  0.8930
  958MOL0     C29256   6.709   4.070   7.919  0.2260 -0.3791  0.3795
  958MOL0     C29257   6.690   4.014   7.772 -0.2895 -0.5437  0.6010
  958MOL0     C29258   6.598   3.896   7.760 -0.2664 -0.0637 -0.0952
  958MOL0     C29259   6.516   3.811   7.753  0.6376  0.8177 -0.4059
  958MOL0     C29260   6.341   4.110   8.155  0.0668 -0.1021  0.6703
  958MOL0     C29261   6.212   4.059   8.167 -0.0410  0.8500  0.1319
  958MOL0     C29262   6.106   4.113   8.067  0.7436  1.0142 -0.4699
  958MOL0     H29263   6.018   3.596   8.523 -0.3073  1.4217  0.8719
  958MOL0     H29264   5.852   3.433   8.578  0.4360 -0.8041 -1.1115
  958MOL0     H29265   5.597   3.383   8.329  2.5587  0.5637  1.9984
  958MOL0     H29266   5.519   3.274   8.453  1.2337  0.4521  2.4710
  958MOL0     H29267   5.347   3.341   8.353  0.4074 -0.3373 -0.6291
  958MOL0     H29268   5.388   3.505   8.304 -0.2047 -0.8544 -0.7569
  958MOL0     H29269   5.378   3.584   8.527  0.1754  0.5741  0.0018
  958MOL0     H29270   5.347   3.430   8.595  2.2487 -0.4696 -1.2204
  958MOL0     H29271   5.159   3.565   8.398  1.0736 -1.0105 -1.2752
  958MOL0     H29272   5.130   3.409   8.477  1.2546  0.4661 -0.1786
  958MOL0     H29273   5.125   3.680   8.608  0.0632 -0.3511  0.9082
  958MOL0     H29274   4.998   3.560   8.592 -0.0430 -2.5737  0.7847
  958MOL0     H29275   5.110   3.400   8.745  1.7924 -0.3341 -0.6717
  958MOL0     H29276   5.254   3.506   8.769  0.8606  0.1270 -0.0095
  958MOL0     H29277   4.961   3.568   8.811  1.0307 -1.3759 -2.3026
  958MOL0     H29278   5.095   3.654   8.882  1.0200 -0.8472  2.0779
  958MOL0     H29279   4.987   3.510   9.052  1.6556  3.3904  0.0647
  958MOL0     H29280   5.024   3.369   8.953 -0.1608 -0.6851 -0.8253
  958MOL0     H29281   5.161   3.624   9.188  1.6648  1.2110  1.8471
  958MOL0     H29282   5.349   3.621   9.376 -1.7016 -2.6479 -0.1100
  958MOL0     H29283   5.441   3.484   9.396  0.7883  0.2824 -0.2643
  958MOL0     H29284   5.624   3.645   9.362  1.8353  1.6788 -1.6884
  958MOL0     H29285   5.601   3.561   9.210  0.0669 -0.0056 -0.5085
  958MOL0     H29286   5.449   3.756   9.129 -0.5597 -0.1425  0.3113
  958MOL0     H29287   5.617   3.773   9.148  0.5329  0.2326  0.7421
  958MOL0     H29288   5.434   3.868   9.378  0.1736 -0.0655 -0.1196
  958MOL0     H29289   5.498   3.972   9.253  0.3353  0.5672 -0.3723
  958MOL0     H29290   5.708   3.997   9.156  0.7132  2.1381  0.1185
  958MOL0     H29291   5.932   4.095   9.102  0.2407  0.8094  0.0578
  958MOL0     H29292   6.339   4.321   9.082 -0.9532 -0.1940  0.3169
  958MOL0     H29293   6.569   4.321   8.991 -1.6683  1.2584  0.9487
  958MOL0     H29294   6.773   4.217   8.813 -1.6162  0.0159  0.2290
  958MOL0     H29295   6.799   4.279   8.972  4.4896  0.6822 -0.8685
  958MOL0     H29296   6.984   4.169   9.024  3.2591 -0.1208  0.4296
  958MOL0     H29297   6.960   4.033   8.918  0.4491  0.6597 -0.9793
  958MOL0     H29298   7.025   4.148   8.724 -2.8526 -0.1337  0.4786
  958MOL0     H29299   7.013   4.307   8.802 -1.3558 -0.3765 -1.2108
  958MOL0     H29300   7.201   4.079   8.869  0.5759  0.1889 -1.7071
  958MOL0     H29301   7.204   4.248   8.943 -1.7473  2.1072  0.1198
  958MOL0     H29302   7.306   4.343   8.754 -1.7825 -0.0545 -0.5709
  958MOL0     H29303   7.248   4.212   8.649 -1.0491 -0.9534 -0.2130
  958MOL0     H29304   7.475   4.191   8.854 -0.8004 -3.3634  1.5605
  958MOL0     H29305   7.410   4.052   8.768  0.9377 -0.2307  1.6353
  958MOL0     H29306   7.546   4.289   8.626 -1.6080  0.2376 -0.0280
  958MOL0     H29307   7.475   4.149   8.551 -2.3580  4.9234 -0.2350
  958MOL0     H29308   7.603   4.005   8.725  1.6756  1.0141  4.4843
  958MOL0     H29309   7.713   4.072   8.595  1.7324  0.1353  1.6552
  958MOL0     H29310   6.583   3.897   9.011  0.8643 -0.2600 -0.7845
  958MOL0     H29311   6.340   3.890   9.098  1.9397 -0.9220  0.7571
  958MOL0     H29312   6.078   3.929   9.479  0.0385 -2.4338 -0.6686
  958MOL0     H29313   5.856   3.832   9.507 -2.5263  1.2503 -0.4439
  958MOL0     H29314   5.584   3.657   8.339  0.2442  1.2204  0.8286
  958MOL0     H29315   5.754   3.821   8.279  1.3671 -0.9800 -2.3092
  958MOL0     H29316   6.247   3.861   8.433 -0.2244 -0.8042 -0.6535
  958MOL0     H29317   6.490   3.930   8.400  0.5155  0.1193  1.3071
  958MOL0     H29318   6.713   4.208   8.151 -1.0129 -0.0528  1.8601
  958MOL0     H29319   6.545   4.266   8.145 -3.5184 -2.0126 -1.2790
  958MOL0     H29320   6.584   4.242   7.933  0.2161  1.3202  2.7759
  958MOL0     H29321   6.499   4.088   7.965  0.2527  0.7157 -1.2716
  958MOL0     H29322   6.735   3.992   7.991  1.2782  0.5478  1.0297
  958MOL0     H29323   6.804   4.125   7.920  1.2095 -2.0321  1.6298
  958MOL0     H29324   6.644   4.097   7.718  0.0557 -1.2542 -0.8310
  958MOL0     H29325   6.778   3.987   7.714 -1.5038 -0.7282 -1.2177
  958MOL0     H29326   6.432   3.746   7.754  0.1195  1.4709  0.3378
  958MOL0     H29327   6.351   4.184   8.076  0.5877  1.6045  2.2649
  958MOL0     H29328   6.031   4.175   8.117 -0.2502  0.1981 -0.9025
  958MOL0     H29329   6.155   4.185   8.001 -0.9281  2.3114 -0.3610
  958MOL0     H29330   6.060   4.027   8.017  1.5174 -0.2374  0.8735
  959MOL0     O29331   7.212  11.062   4.105 -0.1265 -0.1021  0.1838
  959MOL0     C29332   7.262  11.153   4.169  0.2800  0.3215 -0.4289
  959MOL0     O29333   7.398  11.161   4.205 -0.6714  0.2168  0.5013
  959MOL0     C29334   7.487  11.081   4.132  0.0068  0.4476 -0.4242
  959MOL0     C29335   7.480  11.072   3.993 -1.3215  0.0320 -0.5115
  959MOL0     C29336   7.576  10.986   3.934 -0.4361 -0.0072 -0.3531
  959MOL0     C29337   7.677  10.920   4.009 -0.7709  0.5908 -0.8539
  959MOL0     O29338   7.778  10.840   3.964  0.6609  0.1939  0.5825
  959MOL0     C29339   7.805  10.845   3.821 -0.2585  0.6391  0.0926
  959MOL0     C29340   7.925  10.753   3.807 -0.0775  0.6291 -0.3788
  959MOL0     C29341   7.953  10.735   3.656 -0.4683  0.3302  0.3014
  959MOL0     C29342   8.073  10.638   3.644 -0.0362 -0.2396  1.3467
  959MOL0     C29343   8.082  10.620   3.491  0.6913  0.2784 -0.7127
  959MOL0     C29344   8.199  10.548   3.446  0.5021  0.4721 -0.3222
  959MOL0     C29345   8.206  10.549   3.291 -0.2825  0.0947  0.3710
  959MOL0     C29346   8.120  10.436   3.238 -0.0958 -0.0740 -0.8295
  959MOL0     N29347   8.120  10.415   3.093  0.6273  0.2921  0.6536
  959MOL0     C29348   8.226  10.440   3.007  1.0016  0.0877 -0.2992
  959MOL0     C29349   8.182  10.402   2.881 -0.2508  0.8807 -0.5889
  959MOL0     C29350   8.267  10.413   2.760 -0.8020  0.8118 -0.6339
  959MOL0     C29351   8.255  10.283   2.670  0.1114 -0.6701  0.4166
  959MOL0     C29352   8.272  10.157   2.751  0.5930 -0.0743  0.8974
  959MOL0     C29353   8.406  10.158   2.829  0.6279 -0.0850 -0.2777
  959MOL0     O29354   8.506  10.172   2.722  0.0312 -0.6714 -0.1957
  959MOL0     C29355   8.632  10.141   2.761 -0.1759  0.1820  0.2466
  959MOL0     C29356   8.673  10.012   2.767 -0.9477  0.0606 -0.6680
  959MOL0     C29357   8.800   9.976   2.820 -0.8551 -0.5650  0.3694
  959MOL0     C29358   8.903  10.069   2.832 -0.4152 -0.2298 -0.1453
  959MOL0     C29359   9.041  10.035   2.852 -1.0817 -0.5276 -0.2589
  959MOL0     O29360   9.128  10.142   2.869 -0.1577 -0.3811  0.1314
  959MOL0     C29361   9.262  10.122   2.889 -0.2329  0.3253 -0.3093
  959MOL0     C29362   9.308  10.158   3.021  0.0563  1.1015  1.4179
  959MOL0     C29363   9.446  10.144   3.054  0.2158  0.5156  1.2390
  959MOL0     C29364   9.539  10.097   2.956 -0.2097  0.5482 -0.3854
  959MOL0     O29365   9.672  10.092   2.998  1.0906  0.0991  0.0058
  959MOL0     C29366   9.771  10.032   2.919  0.2144  0.1595 -0.0849
  959MOL0     C29367   9.899  10.022   3.010 -0.0265 -0.3843  0.6741
  959MOL0     C29368  10.036   9.991   2.943 -0.7535  0.2491  0.1245
  959MOL0     C29369  10.152   9.966   3.038  0.2269 -0.1376 -0.1602
  959MOL0     C29370  10.273   9.923   2.959 -0.1307 -0.0117  0.0934
  959MOL0     C29371  10.392   9.880   3.050 -0.4393 -0.3332  0.1635
  959MOL0     C29372  10.504   9.823   2.958  0.2590 -0.6736  0.2017
  959MOL0     C29373  10.631   9.820   3.037  0.1786 -0.0813  0.5829
  959MOL0    Cl29374  10.699   9.987   3.056 -0.4881 -0.4276 -0.2412
  959MOL0     C29375   9.486  10.045   2.835  0.3157  0.7600 -0.3719
  959MOL0     C29376   9.347  10.055   2.805  0.1926 -0.1914  0.6292
  959MOL0     O29377   9.066   9.920   2.880  0.1528  0.6646  0.3900
  959MOL0     C29378   8.864  10.203   2.828  0.7827  0.8931  0.1823
  959MOL0     C29379   8.733  10.237   2.790 -0.3766 -0.1014  0.3693
  959MOL0     N29380   8.051  10.358   2.888 -0.3675 -0.5710  0.3696
  959MOL0     N29381   8.018  10.366   3.018  0.0703 -0.0651  0.0090
  959MOL0     C29382   7.677  10.932   4.153 -0.2592 -0.3191  0.2146
  959MOL0     C29383   7.578  11.010   4.210 -0.0203  0.9487  0.4175
  959MOL0     C29384   7.172  11.247   4.230 -0.0089 -0.3870  0.5651
  959MOL0     C29385   7.176  11.263   4.365  0.0883 -0.1935  0.3269
  959MOL0     C29386   7.078  11.340   4.432 -0.1586  0.2291  0.1330
  959MOL0     C29387   6.978  11.394   4.370  0.7150  0.5499  0.3592
  959MOL0     O29388   6.877  11.463   4.443 -0.5126 -0.1665 -0.1929
  959MOL0     C29389   6.762  11.390   4.479  0.7879  0.0066  0.4830
  959MOL0     C29390   6.642  11.450   4.410 -0.6822 -0.0084 -0.2445
  959MOL0     C29391   6.524  11.369   4.451  0.4500  0.0326  0.1283
  959MOL0     C29392   6.410  11.372   4.350 -0.1040 -0.4019  0.3740
  959MOL0     C29393   6.287  11.311   4.398  0.1881 -0.1539 -0.6574
  959MOL0     C29394   6.184  11.252   4.423 -0.5729 -0.8484  0.4126
  959MOL0     C29395   6.968  11.374   4.229 -0.0690 -0.3830 -0.5817
  959MOL0     C29396   7.063  11.299   4.155 -1.1929 -0.5600  0.0137
  959MOL0     C29397   7.051  11.295   4.005  0.7082 -1.0976  0.9006
  959MOL0     H29398   7.390  11.112   3.946 -1.7763  2.1949  1.9624
  959MOL0     H29399   7.589  10.969   3.828  1.1366 -0.1635 -0.1627
  959MOL0     H29400   7.717  10.811   3.764  0.2515 -0.6900  0.0651
  959MOL0     H29401   7.834  10.946   3.791  0.1309  0.3828 -0.4059
  959MOL0     H29402   7.896  10.668   3.870  1.8959  0.5148  0.4215
  959MOL0     H29403   8.011  10.801   3.854 -0.5242  0.5819  0.5059
  959MOL0     H29404   7.974  10.837   3.622 -0.7511  0.2962  0.0163
  959MOL0     H29405   7.856  10.706   3.613 -1.1272  0.2317  1.7884
  959MOL0     H29406   8.158  10.695   3.682 -0.5728  1.0703  0.6379
  959MOL0     H29407   8.056  10.542   3.694 -1.7083 -0.6429  0.0904
  959MOL0     H29408   7.996  10.564   3.451  0.8933 -2.0981  1.8919
  959MOL0     H29409   8.086  10.719   3.444  2.3606  0.1866 -0.8474
  959MOL0     H29410   8.288  10.595   3.490 -0.5761  1.5897  0.7221
  959MOL0     H29411   8.201  10.449   3.492 -0.6702  1.0556  1.0347
  959MOL0     H29412   8.308  10.524   3.261 -0.1822  0.4375  0.4217
  959MOL0     H29413   8.182  10.646   3.246  2.9554  1.2190  0.7615
  959MOL0     H29414   8.148  10.339   3.279  3.8214  0.0865 -2.6649
  959MOL0     H29415   8.019  10.445   3.280  0.6917 -1.5151  1.5523
  959MOL0     H29416   8.328  10.469   3.029  1.0157  1.3488 -1.8306
  959MOL0     H29417   8.234  10.499   2.701 -0.3192  0.7778 -0.9625
  959MOL0     H29418   8.369  10.438   2.790 -1.5292  5.8349 -1.4089
  959MOL0     H29419   8.153  10.291   2.630  0.3646  0.1281 -0.0900
  959MOL0     H29420   8.331  10.288   2.592  2.4667 -0.6345  2.5775
  959MOL0     H29421   8.277  10.077   2.677  1.0558 -2.4412  3.3101
  959MOL0     H29422   8.182  10.145   2.812  0.3335 -4.1980 -0.0387
  959MOL0     H29423   8.416  10.058   2.872  0.7094 -0.1500 -0.4515
  959MOL0     H29424   8.403  10.247   2.893 -0.5599  0.9182 -1.6594
  959MOL0     H29425   8.600   9.939   2.735  0.4049 -1.2433 -0.8925
  959MOL0     H29426   8.818   9.871   2.841 -2.9864 -0.8504  1.0889
  959MOL0     H29427   9.233  10.193   3.091 -0.0068  1.0240  1.3888
  959MOL0     H29428   9.476  10.173   3.154 -0.8350 -0.4642  1.8584
  959MOL0     H29429   9.739   9.935   2.880 -1.5096  1.4993 -2.2093
  959MOL0     H29430   9.799  10.099   2.838 -1.3988 -1.6510 -2.2809
  959MOL0     H29431   9.916  10.117   3.062  0.6848  0.1885 -0.5424
  959MOL0     H29432   9.891   9.942   3.084  3.0419  0.1406  1.7278
  959MOL0     H29433  10.020   9.900   2.885 -0.2007  0.6404 -0.6613
  959MOL0     H29434  10.063  10.070   2.873  0.3207 -0.7175 -0.5777
  959MOL0     H29435  10.132   9.886   3.110  0.9048  0.0368  0.2204
  959MOL0     H29436  10.170  10.058   3.095 -0.1255 -0.4424  0.4552
  959MOL0     H29437  10.303  10.008   2.896 -1.1194 -0.3995 -0.9326
  959MOL0     H29438  10.246   9.838   2.896 -1.0278  1.1417 -1.1202
  959MOL0     H29439  10.429   9.968   3.103  0.4826 -0.3202 -0.4845
  959MOL0     H29440  10.367   9.808   3.128 -2.1675  0.8646  0.7701
  959MOL0     H29441  10.512   9.895   2.876  0.0054  3.2483  3.3011
  959MOL0     H29442  10.484   9.721   2.924  2.7387 -1.7417  1.7023
  959MOL0     H29443  10.593   9.776   3.130 -3.8171 -0.0963 -0.8225
  959MOL0     H29444  10.701   9.757   2.982 -0.4091  0.4271 -0.8090
  959MOL0     H29445   9.554  10.003   2.762  0.2631  0.8400 -0.4663
  959MOL0     H29446   9.321  10.018   2.707 -0.0605  2.0002 -0.1786
  959MOL0     H29447   8.931  10.288   2.840 -0.5032  1.6587  2.9339
  959MOL0     H29448   8.718  10.344   2.777  1.3382  0.1366  0.1341
  959MOL0     H29449   7.760  10.902   4.215 -0.8760 -1.8977  0.3470
  959MOL0     H29450   7.583  11.012   4.318  1.3020 -2.4776  0.5461
  959MOL0     H29451   7.259  11.224   4.423 -0.4201  2.3968  3.0593
  959MOL0     H29452   7.087  11.349   4.540 -0.4587  3.1510  0.0048
  959MOL0     H29453   6.745  11.394   4.587 -0.5362 -0.8140  0.3208
  959MOL0     H29454   6.775  11.286   4.448 -1.0360  0.4134 -1.8905
  959MOL0     H29455   6.651  11.451   4.301 -0.0147  1.6749 -0.2135
  959MOL0     H29456   6.640  11.556   4.437  0.7736  0.6149 -2.3194
  959MOL0     H29457   6.483  11.414   4.542 -1.1430  0.4371 -0.7721
  959MOL0     H29458   6.544  11.263   4.473 -0.3550 -0.2015 -0.2649
  959MOL0     H29459   6.385  11.476   4.325 -0.7916 -0.2059  1.7316
  959MOL0     H29460   6.439  11.340   4.250 -1.3813  1.6570 -0.7388
  959MOL0     H29461   6.092  11.199   4.438 -0.3997 -1.9197 -1.9430
  959MOL0     H29462   6.891  11.425   4.172 -1.2399 -0.1315  1.1703
  959MOL0     H29463   6.958  11.335   3.962  0.5496  0.0270  2.2219
  959MOL0     H29464   7.124  11.370   3.975 -1.3887 -0.2656 -2.8877
  959MOL0     H29465   7.077  11.197   3.964 -0.9133 -0.5711 -1.6181
  960MOL0     O29466   4.323   5.394   6.526  0.4157 -0.4669  0.1391
  960MOL0     C29467   4.331   5.481   6.441  0.2983  0.0360  0.8877
  960MOL0     O29468   4.451   5.508   6.386  0.2362 -0.0952 -0.3235
  960MOL0     C29469   4.573   5.496   6.458  0.4138 -0.5576  0.5074
  960MOL0     C29470   4.697   5.493   6.385  0.0446  0.5683 -0.6181
  960MOL0     C29471   4.822   5.487   6.448  0.1828 -0.7496  0.0172
  960MOL0     C29472   4.837   5.486   6.587  0.1243 -0.4592 -0.2254
  960MOL0     O29473   4.965   5.478   6.636  0.2340 -0.0728 -0.4104
  960MOL0     C29474   4.981   5.478   6.774 -0.0682 -0.4303  0.5980
  960MOL0     C29475   5.135   5.484   6.815 -0.3157  0.0971 -0.1101
  960MOL0     C29476   5.215   5.610   6.770 -0.8262 -0.9188 -0.3224
  960MOL0     C29477   5.343   5.645   6.857  0.4707  0.4820  0.5228
  960MOL0     C29478   5.409   5.770   6.803 -0.1868  0.9242  0.2032
  960MOL0     C29479   5.552   5.774   6.864  0.3780 -0.2353  0.4100
  960MOL0     C29480   5.638   5.898   6.842  0.7647  0.5231 -0.6499
  960MOL0     C29481   5.693   5.891   6.703 -0.2444  0.4464  0.0778
  960MOL0     N29482   5.785   6.007   6.689 -0.0945  0.3857  1.2803
  960MOL0     C29483   5.897   6.031   6.767  0.1545  0.3937 -0.1641
  960MOL0     C29484   5.954   6.138   6.717  0.7062  0.1872 -0.5463
  960MOL0     C29485   6.082   6.191   6.769 -0.2924 -0.4361 -0.2450
  960MOL0     C29486   6.212   6.144   6.702 -0.5977 -0.7386 -0.4384
  960MOL0     C29487   6.333   6.165   6.809  0.0966 -0.3969 -0.2778
  960MOL0     C29488   6.462   6.118   6.745 -1.4531  0.5199 -0.7335
  960MOL0     O29489   6.562   6.102   6.849 -0.0668 -0.6384  0.2716
  960MOL0     C29490   6.694   6.077   6.817 -0.9376  1.0685  0.3919
  960MOL0     C29491   6.784   6.039   6.920 -0.0338  0.7667 -0.0357
  960MOL0     C29492   6.926   6.031   6.888  0.1094 -0.6665  0.5881
  960MOL0     C29493   6.984   6.070   6.764  0.4114 -1.3603  0.2577
  960MOL0     C29494   7.124   6.096   6.756 -0.5335 -0.2214  0.4675
  960MOL0     O29495   7.168   6.149   6.633  0.3639  0.4863  0.0722
  960MOL0     C29496   7.305   6.162   6.608  0.2951 -0.2702 -0.4734
  960MOL0     C29497   7.390   6.215   6.701 -0.6738  0.5142  0.3115
  960MOL0     C29498   7.524   6.246   6.663 -0.4091  0.4855 -0.4897
  960MOL0     C29499   7.567   6.213   6.539 -0.0366 -0.4379  0.6595
  960MOL0     O29500   7.692   6.240   6.490  0.1957 -0.2987 -0.2492
  960MOL0     C29501   7.805   6.202   6.579 -0.1908  0.2712  0.0061
  960MOL0     C29502   7.933   6.179   6.501 -0.2463  0.2311  0.3337
  960MOL0     C29503   8.047   6.149   6.602  0.2332 -0.5070 -0.0850
  960MOL0     C29504   8.165   6.096   6.530  0.5601  0.0861  0.0970
  960MOL0     C29505   8.271   6.042   6.629 -0.4045 -0.3238 -0.0510
  960MOL0     C29506   8.389   5.980   6.547 -0.4279 -0.0181 -0.7604
  960MOL0     C29507   8.497   5.928   6.635 -0.3522  0.8874 -0.4593
  960MOL0     C29508   8.457   5.791   6.710 -0.5683  0.0214  0.4416
  960MOL0    Cl29509   8.585   5.744   6.827  0.1004 -0.1020 -0.0665
  960MOL0     C29510   7.485   6.155   6.450 -0.4900  0.2878  0.4667
  960MOL0     C29511   7.357   6.129   6.481 -0.2726  1.0880 -1.2941
  960MOL0     O29512   7.192   6.082   6.853 -0.5605  0.1066 -0.0332
  960MOL0     C29513   6.893   6.102   6.659  0.2101  1.0980 -0.8477
  960MOL0     C29514   6.756   6.106   6.687  0.2262  0.1968 -0.5746
  960MOL0     N29515   5.865   6.196   6.624  1.6593 -0.5524  0.8513
  960MOL0     N29516   5.777   6.105   6.595  0.0586 -0.1727 -0.4082
  960MOL0     C29517   4.708   5.486   6.663 -1.1497 -0.3791  0.1549
  960MOL0     C29518   4.587   5.492   6.598 -0.7553  0.6569  0.5534
  960MOL0     C29519   4.209   5.545   6.384  0.5617  0.4641  0.2385
  960MOL0     C29520   4.229   5.627   6.269 -1.0274  0.2255 -0.1794
  960MOL0     C29521   4.123   5.713   6.214 -0.2576  0.4004  0.5701
  960MOL0     C29522   3.993   5.705   6.269 -0.0185  0.0265 -0.4494
  960MOL0     O29523   3.874   5.750   6.213 -0.4507  0.3001 -0.2059
  960MOL0     C29524   3.890   5.832   6.096 -0.4238  0.1653  0.1961
  960MOL0     C29525   3.763   5.904   6.051  0.4587 -0.4505  0.1583
  960MOL0     C29526   3.668   5.807   5.982  0.0660 -0.1507  0.1849
  960MOL0     C29527   3.550   5.874   5.904 -0.0025  0.1917 -0.2780
  960MOL0     C29528   3.592   5.957   5.790 -0.2720  0.4541  0.7254
  960MOL0     C29529   3.644   6.022   5.695  0.8161  0.5097  0.3438
  960MOL0     C29530   3.978   5.620   6.378 -0.1564 -0.2984  0.7070
  960MOL0     C29531   4.079   5.542   6.437  0.6329 -0.4278  0.2928
  960MOL0     C29532   4.044   5.450   6.554 -0.3915 -0.2555  0.8710
  960MOL0     H29533   4.693   5.493   6.277 -0.1843 -0.9673 -0.6396
  960MOL0     H29534   4.913   5.492   6.389 -0.2397 -0.5997 -0.6288
  960MOL0     H29535   4.929   5.561   6.823 -0.0929 -0.9684  1.5251
  960MOL0     H29536   4.930   5.391   6.818  1.7764 -1.4225  0.8634
  960MOL0     H29537   5.190   5.399   6.772  1.7539  0.5129  1.5502
  960MOL0     H29538   5.146   5.477   6.923 -0.7956 -0.9000 -0.1135
  960MOL0     H29539   5.149   5.697   6.779  0.2078  0.0244 -1.5867
  960MOL0     H29540   5.235   5.607   6.663  1.4876  0.8203 -0.0152
  960MOL0     H29541   5.300   5.653   6.957 -2.4333 -1.1642 -0.4409
  960MOL0     H29542   5.418   5.567   6.873 -0.3739 -0.6008 -0.5446
  960MOL0     H29543   5.417   5.760   6.694 -0.4642  0.2061  0.2431
  960MOL0     H29544   5.352   5.861   6.825  0.2666  0.8980  1.5986
  960MOL0     H29545   5.549   5.751   6.971  0.9617  1.0536  0.7319
  960MOL0     H29546   5.612   5.692   6.825  1.0650  0.5246 -0.1606
  960MOL0     H29547   5.712   5.898   6.922  0.4425 -4.2569 -0.0433
  960MOL0     H29548   5.570   5.982   6.855  0.7100  0.2688  0.9983
  960MOL0     H29549   5.746   5.797   6.683 -0.9259 -0.3855  1.9527
  960MOL0     H29550   5.616   5.909   6.628  0.4068 -1.1760 -1.0252
  960MOL0     H29551   5.939   5.957   6.834 -0.8350 -0.3398 -0.3184
  960MOL0     H29552   6.077   6.300   6.757  0.0730 -0.6954 -3.6332
  960MOL0     H29553   6.083   6.166   6.876  2.6622  1.1671  0.2187
  960MOL0     H29554   6.207   6.041   6.667  3.2471 -1.0902 -0.3754
  960MOL0     H29555   6.227   6.214   6.619 -2.4468  2.4768  1.7263
  960MOL0     H29556   6.296   6.104   6.891 -0.1721 -1.6980 -1.3244
  960MOL0     H29557   6.343   6.270   6.837 -1.1096  0.5562 -3.0197
  960MOL0     H29558   6.494   6.186   6.665  2.9426  1.3943  1.4376
  960MOL0     H29559   6.460   6.018   6.699  2.2790  1.0126 -2.3866
  960MOL0     H29560   6.748   6.016   7.019  0.8010  0.6550  0.2479
  960MOL0     H29561   6.992   6.004   6.970  1.1503  1.2252  0.4088
  960MOL0     H29562   7.356   6.236   6.801  2.5724  0.5344  1.5378
  960MOL0     H29563   7.585   6.302   6.733  0.7684 -2.5980  1.1249
  960MOL0     H29564   7.828   6.283   6.649 -0.1018  0.7733 -0.5918
  960MOL0     H29565   7.773   6.121   6.645 -1.1967  2.9039  2.9905
  960MOL0     H29566   7.922   6.092   6.436  0.7636  0.3053  0.0587
  960MOL0     H29567   7.940   6.263   6.432  1.3711 -1.3623 -1.5762
  960MOL0     H29568   8.075   6.235   6.664  0.9223 -0.0014 -1.0694
  960MOL0     H29569   8.008   6.077   6.675 -1.5678 -1.4196 -1.8310
  960MOL0     H29570   8.202   6.163   6.453  0.0960  0.2668  0.0247
  960MOL0     H29571   8.132   6.007   6.475  0.2281  0.6759 -0.6684
  960MOL0     H29572   8.232   5.953   6.680 -0.3418  0.0371  0.6257
  960MOL0     H29573   8.304   6.110   6.708  0.2047 -2.8946  2.0392
  960MOL0     H29574   8.346   5.903   6.483  0.9194  0.3316 -2.1653
  960MOL0     H29575   8.432   6.063   6.490  0.5767  0.4156  0.5935
  960MOL0     H29576   8.542   5.997   6.707  1.8171  0.0028 -0.9074
  960MOL0     H29577   8.581   5.890   6.577  0.1499  0.8901  0.2564
  960MOL0     H29578   8.371   5.807   6.775  1.8687  0.1924  3.9149
  960MOL0     H29579   8.453   5.708   6.639  2.2624 -0.2162  0.4264
  960MOL0     H29580   7.522   6.122   6.353  1.1184  1.0705  0.7722
  960MOL0     H29581   7.285   6.068   6.428 -1.7440  2.6569 -1.2117
  960MOL0     H29582   6.929   6.138   6.563 -0.2980  0.4437 -1.2901
  960MOL0     H29583   6.698   6.150   6.607  1.2148  0.8904 -0.9276
  960MOL0     H29584   4.712   5.488   6.771  0.9525  0.6922  0.1061
  960MOL0     H29585   4.502   5.498   6.665 -0.8688  1.8919  0.3293
  960MOL0     H29586   4.324   5.634   6.217 -0.0066  0.5935  1.6859
  960MOL0     H29587   4.151   5.774   6.129  0.4487 -0.7279 -0.0345
  960MOL0     H29588   3.932   5.773   6.014  0.3317 -1.1401  1.4761
  960MOL0     H29589   3.961   5.911   6.125  0.5804  0.0259 -1.7139
  960MOL0     H29590   3.790   5.975   5.972 -1.7524 -3.5749 -3.8399
  960MOL0     H29591   3.725   5.957   6.138  1.4627 -0.5155  0.6482
  960MOL0     H29592   3.624   5.743   6.059  0.7466  1.2876  1.8418
  960MOL0     H29593   3.722   5.740   5.915 -1.8939 -2.7934  1.0541
  960MOL0     H29594   3.482   5.801   5.858 -0.6656 -0.5249  1.7341
  960MOL0     H29595   3.494   5.946   5.965  0.1320  1.1775 -1.2848
  960MOL0     H29596   3.693   6.066   5.611  1.2087  0.1503  0.3804
  960MOL0     H29597   3.879   5.600   6.419 -0.7687  0.0250 -0.5691
  960MOL0     H29598   3.939   5.460   6.582 -0.6321  0.0358 -0.0992
  960MOL0     H29599   4.058   5.345   6.526 -0.5159 -0.3777  1.2593
  960MOL0     H29600   4.103   5.471   6.643  0.3280  0.1883  0.3039
  961MOL0     O29601   0.448   8.126   4.326 -0.4922 -0.2703 -0.0393
  961MOL0     C29602   0.422   8.043   4.417  1.5204 -1.0294  0.0804
  961MOL0     O29603   0.500   7.939   4.462  0.0321 -0.0777 -0.2635
  961MOL0     C29604   0.612   7.928   4.386 -0.2999 -0.1049  0.0144
  961MOL0     C29605   0.621   7.859   4.264 -0.3272  0.1577 -0.0376
  961MOL0     C29606   0.734   7.859   4.183  0.5553  0.3219  0.0569
  961MOL0     C29607   0.843   7.939   4.221  0.8475  0.2014 -0.0436
  961MOL0     O29608   0.965   7.938   4.153 -0.0507 -0.3648  0.0094
  961MOL0     C29609   0.949   7.970   4.019  0.8039  0.4580  0.5831
  961MOL0     C29610   1.068   7.966   3.924 -0.2391 -0.1550 -0.4892
  961MOL0     C29611   1.178   8.058   3.984  0.3144 -0.0344  0.7852
  961MOL0     C29612   1.260   8.110   3.870  0.4697  0.0847  0.1117
  961MOL0     C29613   1.378   8.191   3.929  0.1212  0.1048 -0.0014
  961MOL0     C29614   1.485   8.105   3.995  0.0474 -0.3979 -0.1283
  961MOL0     C29615   1.620   8.161   3.960  0.1372  0.3276  0.2561
  961MOL0     C29616   1.734   8.065   4.013 -0.0260 -0.3500  0.8370
  961MOL0     N29617   1.865   8.095   3.960 -0.4142 -0.3282  1.0939
  961MOL0     C29618   1.916   8.223   3.948 -0.1214 -0.1412 -0.0842
  961MOL0     C29619   2.014   8.215   3.854  0.2908  0.0291 -0.8567
  961MOL0     C29620   2.105   8.317   3.787  0.1600 -0.1701 -1.1064
  961MOL0     C29621   2.253   8.257   3.807 -0.7273  0.0233 -0.4550
  961MOL0     C29622   2.357   8.365   3.776  0.5739  0.9476  0.4678
  961MOL0     C29623   2.503   8.315   3.782  0.5738  0.7311 -0.4019
  961MOL0     O29624   2.540   8.306   3.919  0.0209  0.2945  0.6612
  961MOL0     C29625   2.667   8.274   3.949  0.9531 -0.5974  0.1218
  961MOL0     C29626   2.763   8.244   3.856  0.4929  0.3916  0.3760
  961MOL0     C29627   2.893   8.212   3.896 -0.7339 -1.0449 -0.5171
  961MOL0     C29628   2.928   8.220   4.036  0.0063  0.2974 -0.5154
  961MOL0     C29629   3.066   8.199   4.080 -0.2746  0.1296 -0.1168
  961MOL0     O29630   3.157   8.170   3.993  0.5968  0.8009 -0.0050
  961MOL0     C29631   3.286   8.149   4.037  0.1982  0.4360  0.3663
  961MOL0     C29632   3.320   8.031   4.105  0.5752 -0.7612 -1.3390
  961MOL0     C29633   3.447   8.022   4.153  0.7228 -0.5045 -0.0077
  961MOL0     C29634   3.543   8.123   4.145  0.0785 -0.5903 -0.1006
  961MOL0     O29635   3.652   8.110   4.229  1.1636  0.0307  0.7595
  961MOL0     C29636   3.751   8.210   4.210  0.5450 -0.5415  0.2660
  961MOL0     C29637   3.880   8.199   4.288 -0.5113  0.3174 -0.0027
  961MOL0     C29638   3.985   8.311   4.253 -0.0424  0.0913 -0.0175
  961MOL0     C29639   4.128   8.261   4.285 -0.0634  0.1600 -0.5702
  961MOL0     C29640   4.245   8.348   4.220  0.5937 -0.0797 -0.6091
  961MOL0     C29641   4.276   8.478   4.307 -0.1250 -0.3355  0.4010
  961MOL0     C29642   4.386   8.575   4.229  0.6177 -0.7966  0.4552
  961MOL0     C29643   4.526   8.526   4.266 -0.1432 -0.0290 -0.2644
  961MOL0    Cl29644   4.647   8.626   4.168 -0.2099  0.0599  0.1893
  961MOL0     C29645   3.517   8.240   4.076  0.3408 -0.0727  0.0761
  961MOL0     C29646   3.385   8.248   4.019 -0.3852 -0.8895  0.2188
  961MOL0     O29647   3.093   8.237   4.197 -0.0622  0.0845 -0.3498
  961MOL0     C29648   2.833   8.255   4.127  0.2042  0.2858 -0.1187
  961MOL0     C29649   2.700   8.274   4.084  0.1879  0.1429  0.0336
  961MOL0     N29650   2.018   8.077   3.810  0.0111 -0.5102  0.5192
  961MOL0     N29651   1.934   8.009   3.880 -0.2164  0.3325 -0.3633
  961MOL0     C29652   0.840   8.008   4.348  0.1353  0.1142  0.2696
  961MOL0     C29653   0.727   7.995   4.430  0.3212 -0.0733  0.0022
  961MOL0     C29654   0.297   8.060   4.510 -0.6760  0.0741 -0.6538
  961MOL0     C29655   0.237   7.935   4.540  0.1913  0.2023  0.3114
  961MOL0     C29656   0.116   7.930   4.619  0.1937 -0.5156  0.2607
  961MOL0     C29657   0.062   8.049   4.671  0.0217 -0.7773  0.5549
  961MOL0     O29658  -0.051   8.048   4.751 -0.0361 -0.1816  0.5936
  961MOL0     C29659  -0.095   7.933   4.824  0.0144 -0.9683  0.3839
  961MOL0     C29660  -0.225   7.981   4.893 -0.0944  0.3259  0.1204
  961MOL0     C29661  -0.268   7.882   5.012 -0.0922 -0.1306  1.2020
  961MOL0     C29662  -0.159   7.863   5.125  0.5441  0.5887 -0.1444
  961MOL0     C29663  -0.133   7.979   5.214  0.4205 -0.4180  0.1002
  961MOL0     C29664  -0.096   8.081   5.277 -0.2320  0.4073 -0.8942
  961MOL0     C29665   0.127   8.168   4.639 -0.1739 -0.2480 -0.2951
  961MOL0     C29666   0.245   8.181   4.551  0.0225 -0.2870 -0.5459
  961MOL0     C29667   0.286   8.327   4.516 -0.0920  0.6563  0.0479
  961MOL0     H29668   0.535   7.804   4.227 -0.0951  0.0543 -0.4267
  961MOL0     H29669   0.737   7.796   4.094  1.7714  2.9767 -1.9187
  961MOL0     H29670   0.889   7.892   3.971  0.2747  1.3704 -0.2577
  961MOL0     H29671   0.895   8.063   4.000  0.9999  0.4551 -0.0166
  961MOL0     H29672   1.044   7.993   3.821 -0.0177  1.2947 -0.1840
  961MOL0     H29673   1.097   7.860   3.930 -0.8828 -0.3057  0.1871
  961MOL0     H29674   1.240   8.006   4.057 -0.6058 -0.8865  0.9620
  961MOL0     H29675   1.136   8.147   4.031 -1.2065  0.1992 -0.9035
  961MOL0     H29676   1.308   8.030   3.814  2.1912  2.9342 -2.8562
  961MOL0     H29677   1.199   8.173   3.805  2.0222  0.8016 -0.6893
  961MOL0     H29678   1.428   8.238   3.844  2.1927 -1.2642  0.3840
  961MOL0     H29679   1.347   8.277   3.989 -2.6958 -0.5713 -0.3688
  961MOL0     H29680   1.472   8.099   4.103 -1.2810  1.8944 -0.0878
  961MOL0     H29681   1.469   8.007   3.950 -0.5312  0.3527 -1.6618
  961MOL0     H29682   1.633   8.260   4.005 -2.4803 -0.1326  2.2465
  961MOL0     H29683   1.626   8.184   3.853  0.7360 -0.1378  0.1828
  961MOL0     H29684   1.737   8.072   4.122 -2.2512 -0.1974  0.9511
  961MOL0     H29685   1.710   7.960   3.996  1.2879 -0.7200  1.2197
  961MOL0     H29686   1.888   8.319   3.991 -1.2170 -0.7498  0.6046
  961MOL0     H29687   2.080   8.324   3.680  0.9989 -0.8953 -1.3641
  961MOL0     H29688   2.092   8.414   3.837  1.6926  2.1509 -4.7707
  961MOL0     H29689   2.260   8.213   3.907  1.7656 -0.2969 -0.7039
  961MOL0     H29690   2.269   8.178   3.734  1.7885 -0.0151  0.0492
  961MOL0     H29691   2.349   8.447   3.848 -3.1784  1.5082 -0.3678
  961MOL0     H29692   2.329   8.402   3.677 -1.9227 -2.0646 -0.1199
  961MOL0     H29693   2.571   8.387   3.734  3.9113  0.7827  3.8647
  961MOL0     H29694   2.521   8.216   3.740 -2.6923 -0.3746  0.5545
  961MOL0     H29695   2.746   8.254   3.749 -1.7003 -0.2904  0.6019
  961MOL0     H29696   2.969   8.186   3.823 -0.8382  0.5931 -1.2350
  961MOL0     H29697   3.247   7.956   4.135  1.7147 -2.8651 -3.5004
  961MOL0     H29698   3.472   7.937   4.216  2.6609 -1.3032 -1.7321
  961MOL0     H29699   3.780   8.215   4.105 -2.2086 -0.8049 -0.5793
  961MOL0     H29700   3.713   8.308   4.243  1.3981 -0.7612  2.0141
  961MOL0     H29701   3.859   8.195   4.395  2.2907  1.1399  0.6648
  961MOL0     H29702   3.920   8.100   4.263  2.0865  0.7026  2.1673
  961MOL0     H29703   3.982   8.324   4.144  0.9443 -2.3672 -0.4043
  961MOL0     H29704   3.957   8.402   4.308  1.2615  0.0562  0.7500
  961MOL0     H29705   4.125   8.158   4.247 -2.0871  0.1504 -0.4683
  961MOL0     H29706   4.148   8.265   4.392  1.0416  0.5855 -0.7783
  961MOL0     H29707   4.218   8.383   4.120  0.0217  0.2697 -0.3399
  961MOL0     H29708   4.337   8.289   4.220  0.8729  0.3587 -0.8857
  961MOL0     H29709   4.183   8.534   4.323 -2.1601 -3.1125 -0.8090
  961MOL0     H29710   4.304   8.446   4.408 -0.0745  0.5175  0.6630
  961MOL0     H29711   4.369   8.675   4.269  3.3775 -0.0716  0.0199
  961MOL0     H29712   4.371   8.584   4.121  1.8264 -0.6550  0.2950
  961MOL0     H29713   4.556   8.532   4.371  1.9933 -0.8565 -0.7796
  961MOL0     H29714   4.536   8.419   4.246 -0.6051  0.0414 -0.9050
  961MOL0     H29715   3.592   8.319   4.072  2.5446 -2.0265  0.6424
  961MOL0     H29716   3.357   8.338   3.965  1.7345  0.6011  1.4601
  961MOL0     H29717   2.862   8.264   4.231 -1.2962  0.9217  0.2845
  961MOL0     H29718   2.620   8.315   4.145 -0.9735 -0.6394 -0.9171
  961MOL0     H29719   0.931   8.055   4.383  3.3834 -1.8701 -4.4769
  961MOL0     H29720   0.730   8.022   4.535  2.2153 -1.7586  0.4539
  961MOL0     H29721   0.279   7.837   4.522  0.8580  0.6469 -0.6108
  961MOL0     H29722   0.062   7.836   4.629 -0.8582 -0.1005 -1.2286
  961MOL0     H29723  -0.017   7.923   4.899  1.6188  1.2574 -0.8717
  961MOL0     H29724  -0.123   7.841   4.771  3.0439 -3.6992  3.0723
  961MOL0     H29725  -0.309   7.966   4.824  1.6548  0.8289 -2.2785
  961MOL0     H29726  -0.211   8.085   4.924  2.8222 -0.1790  0.8002
  961MOL0     H29727  -0.279   7.782   4.970  1.3390 -0.4480  1.5320
  961MOL0     H29728  -0.364   7.920   5.050 -1.3135 -2.7373  0.9361
  961MOL0     H29729  -0.199   7.788   5.193 -1.0726  1.5745  0.0204
  961MOL0     H29730  -0.064   7.825   5.086  0.3723  0.4688 -0.4499
  961MOL0     H29731  -0.084   8.178   5.323  0.0184  0.7656 -1.6922
  961MOL0     H29732   0.085   8.262   4.674 -0.8207 -0.9205  0.8111
  961MOL0     H29733   0.331   8.389   4.595  3.0045 -0.1425 -0.9609
  961MOL0     H29734   0.373   8.317   4.451 -0.9019  1.0577 -1.1397
  961MOL0     H29735   0.199   8.364   4.462 -1.6056 -1.4401  0.8994
  962MOL0     O29736   3.140  10.903   6.315  0.7915 -0.0939  0.0115
  962MOL0     C29737   3.098  10.800   6.263  0.2605  0.1921  0.1608
  962MOL0     O29738   3.181  10.696   6.228 -0.7332  0.1899  0.2730
  962MOL0     C29739   3.315  10.713   6.256  0.8709 -0.1182  0.0962
  962MOL0     C29740   3.371  10.676   6.382 -0.1514 -0.3051 -0.6751
  962MOL0     C29741   3.509  10.673   6.403 -0.0179 -1.2014  0.3409
  962MOL0     C29742   3.597  10.713   6.294 -0.3671 -0.1123 -0.8000
  962MOL0     O29743   3.733  10.705   6.302  0.4493 -0.3750  0.7856
  962MOL0     C29744   3.800  10.695   6.434  1.0500  0.2342  0.1941
  962MOL0     C29745   3.954  10.722   6.411  0.2276  0.7298 -0.4798
  962MOL0     C29746   4.020  10.628   6.312 -0.6367  0.2364 -0.3039
  962MOL0     C29747   4.166  10.616   6.358  0.0704  0.1085 -0.3285
  962MOL0     C29748   4.243  10.508   6.296 -0.0840 -0.2210  0.7105
  962MOL0     C29749   4.372  10.477   6.375 -0.2457  0.5240  0.5587
  962MOL0     C29750   4.469  10.376   6.306  0.1937 -0.7083  0.1465
  962MOL0     C29751   4.592  10.337   6.390 -0.7050  0.6921 -0.0507
  962MOL0     N29752   4.675  10.239   6.321  0.2856  0.1375 -0.3813
  962MOL0     C29753   4.754  10.266   6.210  0.5418  0.2493  0.1943
  962MOL0     C29754   4.825  10.149   6.193 -0.8489 -0.4392 -0.2881
  962MOL0     C29755   4.923  10.134   6.078 -0.2592  0.2554 -0.4740
  962MOL0     C29756   5.064  10.180   6.129  0.1374  0.0920  0.0842
  962MOL0     C29757   5.064  10.335   6.157 -0.1051  0.5799  0.6556
  962MOL0     C29758   5.211  10.392   6.158 -0.2539 -0.2758  1.1297
  962MOL0     O29759   5.197  10.535   6.209  0.5174  0.2920  0.2952
  962MOL0     C29760   5.307  10.612   6.218  0.5957  0.3827  0.6640
  962MOL0     C29761   5.429  10.559   6.265 -0.9037  0.0339  0.2952
  962MOL0     C29762   5.549  10.636   6.265 -0.7717  1.0062  0.4492
  962MOL0     C29763   5.546  10.774   6.231 -0.9215  0.1236 -0.3314
  962MOL0     C29764   5.669  10.853   6.242  0.4275  0.0768 -0.4694
  962MOL0     O29765   5.783  10.799   6.301  0.7542  0.5198  0.0505
  962MOL0     C29766   5.894  10.874   6.320  0.2957 -0.3632  0.1037
  962MOL0     C29767   6.017  10.814   6.297  0.1498  0.5962  0.4259
  962MOL0     C29768   6.145  10.883   6.324  0.2549 -0.4315 -0.6974
  962MOL0     C29769   6.138  11.020   6.360  1.0941 -0.6385  0.1866
  962MOL0     O29770   6.247  11.093   6.397 -0.4720 -0.0149  0.4834
  962MOL0     C29771   6.332  11.129   6.285 -0.1831 -0.5803  1.2702
  962MOL0     C29772   6.471  11.154   6.347  0.8261  0.6518  0.4801
  962MOL0     C29773   6.563  11.145   6.229 -0.1679  0.1247 -0.0981
  962MOL0     C29774   6.709  11.173   6.272  0.1066  0.2208 -0.0568
  962MOL0     C29775   6.801  11.176   6.153  1.1266 -0.8201 -0.2201
  962MOL0     C29776   6.769  11.292   6.060  0.2886 -0.0669 -0.4390
  962MOL0     C29777   6.883  11.340   5.980 -0.9019  0.6608 -0.0766
  962MOL0     C29778   6.995  11.416   6.058  0.6013 -0.4382  0.4065
  962MOL0    Cl29779   7.115  11.484   5.946  0.2166 -0.1327  0.1942
  962MOL0     C29780   6.010  11.090   6.362 -0.2334 -0.3787 -0.4332
  962MOL0     C29781   5.893  11.014   6.340  0.0720 -0.3898  0.0299
  962MOL0     O29782   5.664  10.961   6.189 -0.8822 -0.7029  1.4978
  962MOL0     C29783   5.421  10.823   6.186  0.0198 -0.4186  0.5876
  962MOL0     C29784   5.299  10.746   6.177 -1.0865 -0.2957  0.1674
  962MOL0     N29785   4.794  10.060   6.285 -0.2359 -0.0246  0.1561
  962MOL0     N29786   4.705  10.113   6.370 -0.3115  0.7559 -0.2386
  962MOL0     C29787   3.539  10.745   6.175 -0.1966 -0.3299 -0.1453
  962MOL0     C29788   3.402  10.753   6.158 -0.4513 -0.5295  0.7691
  962MOL0     C29789   2.957  10.782   6.266  1.3365 -0.2781  0.1319
  962MOL0     C29790   2.914  10.658   6.223 -0.1437  0.4156 -0.3593
  962MOL0     C29791   2.781  10.630   6.213 -0.5461 -0.1529  0.9876
  962MOL0     C29792   2.681  10.723   6.242  0.2232  0.0851 -0.1181
  962MOL0     O29793   2.542  10.699   6.250  0.7335  0.0388  0.0506
  962MOL0     C29794   2.486  10.600   6.160  0.0738  0.3731 -0.5672
  962MOL0     C29795   2.335  10.623   6.172 -1.3831  0.0649 -0.2830
  962MOL0     C29796   2.259  10.501   6.106  0.4191  0.2765 -0.7026
  962MOL0     C29797   2.258  10.504   5.953  0.2204 -0.1088  0.2554
  962MOL0     C29798   2.385  10.498   5.874  0.2980  0.1243  0.0398
  962MOL0     C29799   2.484  10.516   5.801  0.4819 -0.0564  0.2661
  962MOL0     C29800   2.717  10.843   6.300  0.2518  0.3529 -0.1678
  962MOL0     C29801   2.857  10.877   6.305 -0.4684  0.7493 -0.7237
  962MOL0     C29802   2.888  11.015   6.362 -0.5587 -0.7609  0.2159
  962MOL0     H29803   3.303  10.637   6.457  1.1154 -1.2486  0.0059
  962MOL0     H29804   3.557  10.641   6.494  4.3266  1.7655 -0.6235
  962MOL0     H29805   3.761  10.764   6.509 -0.3000 -1.3685  1.0195
  962MOL0     H29806   3.775  10.595   6.471 -2.8491 -0.3142 -3.2017
  962MOL0     H29807   3.998  10.715   6.511 -0.0738 -1.1289 -0.4430
  962MOL0     H29808   3.966  10.827   6.382 -0.0056  1.3304  1.4058
  962MOL0     H29809   4.003  10.654   6.207  1.0960 -1.2270 -0.9962
  962MOL0     H29810   3.983  10.526   6.326  1.2481 -0.4396  0.0948
  962MOL0     H29811   4.225  10.707   6.341  2.6227 -1.0570  1.5923
  962MOL0     H29812   4.160  10.592   6.464 -1.8619  0.1344 -0.3978
  962MOL0     H29813   4.176  10.421   6.287 -0.3907  0.2075 -2.0746
  962MOL0     H29814   4.267  10.539   6.194 -1.9645  2.9576  1.0862
  962MOL0     H29815   4.427  10.566   6.406 -2.6896  2.8609 -1.4042
  962MOL0     H29816   4.346  10.418   6.464  2.1552 -0.0593  0.9504
  962MOL0     H29817   4.505  10.420   6.213 -0.3965  1.1084  0.7162
  962MOL0     H29818   4.410  10.286   6.286 -1.1116  0.3364 -0.8836
  962MOL0     H29819   4.652  10.428   6.395 -0.7514  0.9548 -2.9663
  962MOL0     H29820   4.562  10.299   6.489 -2.1755  0.0982 -0.6867
  962MOL0     H29821   4.739  10.350   6.144 -0.7591  0.1841  0.3959
  962MOL0     H29822   4.936  10.030   6.049  2.2227  0.3196  0.1429
  962MOL0     H29823   4.877  10.191   5.997 -0.4582 -1.1881 -1.4106
  962MOL0     H29824   5.083  10.139   6.228 -3.3007  0.8923  1.2216
  962MOL0     H29825   5.147  10.158   6.060 -0.2046 -3.3262  0.5763
  962MOL0     H29826   5.007  10.353   6.249 -1.2330  2.5637 -0.3811
  962MOL0     H29827   5.001  10.392   6.088 -1.1731 -1.7603 -0.4205
  962MOL0     H29828   5.257  10.393   6.059  0.4589 -1.2185  1.4487
  962MOL0     H29829   5.267  10.328   6.226  0.5368  1.6917  2.4150
  962MOL0     H29830   5.451  10.459   6.303  0.2445  1.4992  3.9732
  962MOL0     H29831   5.641  10.582   6.280 -2.1000 -0.9886  1.9784
  962MOL0     H29832   6.013  10.715   6.253 -1.4886  1.1248 -0.7332
  962MOL0     H29833   6.241  10.833   6.319 -0.7904 -2.6187 -0.3280
  962MOL0     H29834   6.334  11.040   6.221 -0.8736 -0.2862  0.8350
  962MOL0     H29835   6.302  11.208   6.216 -1.9489 -1.3426  1.1300
  962MOL0     H29836   6.471  11.255   6.387 -0.9278  0.9083 -0.1112
  962MOL0     H29837   6.490  11.074   6.420 -3.0326 -1.3974 -0.4779
  962MOL0     H29838   6.564  11.050   6.175  0.0667  0.8563 -1.4226
  962MOL0     H29839   6.544  11.231   6.164 -0.3869  0.1749  0.0300
  962MOL0     H29840   6.748  11.094   6.337  0.8642  1.8011  1.4750
  962MOL0     H29841   6.713  11.269   6.323 -0.3726  0.8356 -1.1341
  962MOL0     H29842   6.790  11.080   6.102 -2.3462 -0.7470  0.1980
  962MOL0     H29843   6.901  11.194   6.193  0.2320 -0.8960  2.1608
  962MOL0     H29844   6.690  11.245   6.001  2.5637  0.1297 -3.8891
  962MOL0     H29845   6.723  11.373   6.117 -2.0731 -0.3133 -1.8594
  962MOL0     H29846   6.849  11.407   5.900 -0.3533  1.5717  0.4333
  962MOL0     H29847   6.929  11.254   5.931  1.9126  1.5873  0.7139
  962MOL0     H29848   6.947  11.508   6.091 -0.4303  1.2619 -4.8152
  962MOL0     H29849   7.042  11.355   6.135 -1.1187 -1.4727  0.7014
  962MOL0     H29850   6.003  11.196   6.383  1.7708 -0.0556 -1.1736
  962MOL0     H29851   5.802  11.071   6.356  0.1329  0.1304 -1.3607
  962MOL0     H29852   5.408  10.923   6.147  1.1867 -0.7217 -0.6528
  962MOL0     H29853   5.204  10.783   6.138 -0.7541 -0.6936 -1.0467
  962MOL0     H29854   3.595  10.762   6.083 -0.7877  1.5796 -0.1868
  962MOL0     H29855   3.373  10.799   6.064  0.8854  0.2541  0.7144
  962MOL0     H29856   2.992  10.584   6.204  0.5370  1.5311 -2.0551
  962MOL0     H29857   2.760  10.530   6.176  0.0841 -0.0261  0.2782
  962MOL0     H29858   2.516  10.503   6.201 -1.3373 -0.3186 -1.0713
  962MOL0     H29859   2.521  10.615   6.057  1.0255  1.6822 -0.0698
  962MOL0     H29860   2.309  10.719   6.125  0.8578  0.9016  0.0490
  962MOL0     H29861   2.312  10.645   6.277  1.2462  0.2373  0.3200
  962MOL0     H29862   2.153  10.498   6.133 -0.0276  2.4957 -1.9517
  962MOL0     H29863   2.310  10.410   6.139  0.1337  0.0656 -0.8386
  962MOL0     H29864   2.201  10.416   5.923  0.0719  0.2847 -0.6442
  962MOL0     H29865   2.201  10.591   5.916  2.2693  0.7992 -0.9371
  962MOL0     H29866   2.561  10.538   5.730 -1.5935  2.7074 -1.3386
  962MOL0     H29867   2.641  10.917   6.323 -1.2107 -1.4473  1.1929
  962MOL0     H29868   2.793  11.065   6.385 -0.5934 -0.8777  0.3299
  962MOL0     H29869   2.947  11.013   6.454 -0.7797  0.5829  0.4129
  962MOL0     H29870   2.937  11.077   6.286 -0.1264 -1.1668  0.1631
  963MOL0     O29871  11.184   0.152  10.838 -0.2303  0.3397 -0.7260
  963MOL0     C29872  11.126   0.088  10.748  0.0447  0.3562 -0.3532
  963MOL0     O29873  11.148   0.114  10.612  0.1920  0.2519 -0.1744
  963MOL0     C29874  11.272   0.145  10.559  0.9596 -0.4114 -0.0930
  963MOL0     C29875  11.274   0.176  10.428 -0.1730 -0.8696  0.6875
  963MOL0     C29876  11.393   0.211  10.360  0.3660 -0.7348 -0.8140
  963MOL0     C29877  11.518   0.199  10.420 -0.3251  0.0829 -0.1667
  963MOL0     O29878  11.633   0.225  10.349 -0.2692 -0.1422  0.3171
  963MOL0     C29879  11.759   0.174  10.397 -0.4703 -0.5124  0.0861
  963MOL0     C29880  11.828   0.274  10.485  0.4188 -0.3472 -0.5918
  963MOL0     C29881  11.880   0.396  10.402  0.8838 -0.0824 -0.2295
  963MOL0     C29882  11.933   0.503  10.499 -0.6475 -0.3210  0.1202
  963MOL0     C29883  11.995   0.628  10.421 -0.0931  0.2178  0.2205
  963MOL0     C29884  12.076   0.728  10.505  0.1620 -0.6949 -0.0541
  963MOL0     C29885  12.174   0.807  10.415  0.3816  0.2314  0.3551
  963MOL0     C29886  12.268   0.893  10.495 -0.9807 -0.0056 -0.0208
  963MOL0     N29887  12.344   0.978  10.411  0.0585 -0.7318 -0.0927
  963MOL0     C29888  12.452   0.942  10.332  0.7803 -0.2588 -0.1465
  963MOL0     C29889  12.487   1.060  10.269  0.5376  0.1141 -1.0095
  963MOL0     C29890  12.601   1.082  10.171 -0.0176 -0.8236  0.1951
  963MOL0     C29891  12.693   1.195  10.225  0.1082 -0.0329 -0.2423
  963MOL0     C29892  12.827   1.197  10.149  0.1781  0.1601 -0.1213
  963MOL0     C29893  12.932   1.296  10.205  0.0948  0.3143 -0.1612
  963MOL0     O29894  13.052   1.281  10.132  0.5743 -0.4271  0.1528
  963MOL0     C29895  13.157   1.347  10.172 -1.0192  0.0254  0.3550
  963MOL0     C29896  13.170   1.422  10.291  0.5143 -0.4470  0.4179
  963MOL0     C29897  13.284   1.508  10.310 -0.2137  0.1462 -0.0879
  963MOL0     C29898  13.395   1.505  10.222  0.4511  0.1087 -0.2743
  963MOL0     C29899  13.518   1.572  10.248  1.1159 -0.6303  0.2985
  963MOL0     O29900  13.555   1.554  10.373  0.1458  0.0674 -0.0421
  963MOL0     C29901  13.687   1.569  10.406 -0.6021 -0.5637 -0.3127
  963MOL0     C29902  13.718   1.615  10.537 -0.1970 -0.2917 -0.5448
  963MOL0     C29903  13.850   1.605  10.585  0.1134 -0.0267  0.3078
  963MOL0     C29904  13.950   1.553  10.504 -0.3108 -0.4152 -0.1922
  963MOL0     O29905  14.084   1.544  10.533 -0.7547  0.1081 -0.2045
  963MOL0     C29906  14.132   1.577  10.666  1.2344  1.2468  0.8944
  963MOL0     C29907  14.290   1.571  10.677 -0.1649  0.3823  0.0382
  963MOL0     C29908  14.351   1.451  10.602 -0.1232  0.1775 -0.7474
  963MOL0     C29909  14.491   1.411  10.651  0.2490  0.1345 -0.4003
  963MOL0     C29910  14.570   1.334  10.542 -0.5252  0.4721 -0.1458
  963MOL0     C29911  14.712   1.286  10.598  0.2718 -0.2048 -0.3171
  963MOL0     C29912  14.825   1.390  10.598  0.1755  0.6262  0.5361
  963MOL0     C29913  14.947   1.329  10.625  0.2978  0.7239 -0.2920
  963MOL0    Cl29914  15.026   1.227  10.491  0.4216  0.4202  0.0759
  963MOL0     C29915  13.911   1.498  10.378 -0.5063  0.3392  0.0776
  963MOL0     C29916  13.785   1.506  10.330  0.7936 -0.2255 -0.9929
  963MOL0     O29917  13.583   1.624  10.159 -0.6464  0.6416 -0.1631
  963MOL0     C29918  13.385   1.416  10.112 -0.3754 -0.2755  0.1862
  963MOL0     C29919  13.269   1.350  10.089  0.6842  0.1310  0.2180
  963MOL0     N29920  12.405   1.157  10.328  0.1595  0.5534  0.7051
  963MOL0     N29921  12.331   1.114  10.415  1.0927  0.9115 -0.2508
  963MOL0     C29922  11.522   0.151  10.550 -0.4357  0.8742 -0.4580
  963MOL0     C29923  11.399   0.131  10.623 -0.3599 -0.0904  0.5291
  963MOL0     C29924  11.000   0.008  10.791 -0.8271 -2.0288 -0.4587
  963MOL0     C29925  10.897  -0.013  10.702 -0.5349  0.2267  0.3564
  963MOL0     C29926  10.792  -0.096  10.734  0.0485 -0.0274  0.6432
  963MOL0     C29927  10.786  -0.164  10.853 -0.0001  0.7286  0.0725
  963MOL0     O29928  10.694  -0.257  10.877  0.7285  0.4105 -0.2443
  963MOL0     C29929  10.635  -0.264  11.008 -0.0847  0.3367 -0.0612
  963MOL0     C29930  10.514  -0.350  10.996 -0.8840 -0.8247 -0.3098
  963MOL0     C29931  10.431  -0.350  11.122  0.0454  0.2556  0.6155
  963MOL0     C29932  10.290  -0.409  11.110 -0.0034  0.3548  0.0543
  963MOL0     C29933  10.204  -0.359  11.219 -0.3259 -0.0114 -1.0972
  963MOL0     C29934  10.129  -0.324  11.302  0.7964  0.6750 -0.0230
  963MOL0     C29935  10.881  -0.132  10.951  0.0661 -0.3309 -0.1700
  963MOL0     C29936  10.992  -0.056  10.926 -0.1010 -0.1168  0.1696
  963MOL0     C29937  11.113  -0.056  11.019  0.0428  0.0520 -0.1308
  963MOL0     H29938  11.176   0.173  10.381  0.3795 -0.3962 -0.5249
  963MOL0     H29939  11.399   0.226  10.253  0.3709  0.6229 -0.6325
  963MOL0     H29940  11.742   0.076  10.441 -3.0766 -0.5053 -0.7496
  963MOL0     H29941  11.829   0.152  10.316 -0.4760  2.3336 -0.7799
  963MOL0     H29942  11.903   0.222  10.545 -2.0087 -1.9662  1.2364
  963MOL0     H29943  11.756   0.311  10.558  1.2947 -0.2012  0.2167
  963MOL0     H29944  11.790   0.424  10.345  0.2623 -3.7521 -1.2618
  963MOL0     H29945  11.957   0.371  10.329 -0.1446  0.0167 -1.3834
  963MOL0     H29946  11.844   0.525  10.557 -1.6091  2.7823 -2.2488
  963MOL0     H29947  12.010   0.457  10.562 -0.3703 -0.3337 -0.2209
  963MOL0     H29948  12.061   0.592  10.342  0.4171 -0.2793  0.8584
  963MOL0     H29949  11.921   0.687  10.367  0.8025 -0.5393 -1.9391
  963MOL0     H29950  12.013   0.793  10.567 -1.5224 -1.2281 -1.1359
  963MOL0     H29951  12.127   0.662  10.576  1.2959  0.0132 -0.2093
  963MOL0     H29952  12.116   0.870  10.347  0.3670 -1.5033 -1.2996
  963MOL0     H29953  12.224   0.730  10.356  0.9385 -0.3141  1.5072
  963MOL0     H29954  12.201   0.949  10.561  0.2638  0.4316  0.9106
  963MOL0     H29955  12.318   0.820  10.558 -0.0636 -1.3945 -2.2443
  963MOL0     H29956  12.491   0.841  10.319  0.3044 -0.2481 -1.8162
  963MOL0     H29957  12.652   0.985  10.164 -2.0854 -1.8339 -2.8435
  963MOL0     H29958  12.554   1.108  10.075 -3.3613 -1.6173  1.4910
  963MOL0     H29959  12.640   1.290  10.214  1.7611  0.8567 -0.9777
  963MOL0     H29960  12.717   1.171  10.329 -0.9291  2.2436  0.5805
  963MOL0     H29961  12.798   1.224  10.046 -2.6200 -1.1537  0.2184
  963MOL0     H29962  12.877   1.100  10.144  2.9854  1.5532 -1.0071
  963MOL0     H29963  12.942   1.269  10.310 -2.6665 -0.8335 -0.1145
  963MOL0     H29964  12.883   1.393  10.192  1.2993  0.7447 -1.9468
  963MOL0     H29965  13.089   1.431  10.363  1.5946  2.2127  1.4086
  963MOL0     H29966  13.279   1.558  10.406 -0.7628  1.3736 -0.7382
  963MOL0     H29967  13.636   1.641  10.602  0.4260 -0.6284  0.4089
  963MOL0     H29968  13.869   1.644  10.684 -0.0563 -0.0524  0.3521
  963MOL0     H29969  14.100   1.680  10.685  1.7193  1.4906  0.4105
  963MOL0     H29970  14.081   1.520  10.745  1.8143  0.5524  0.7808
  963MOL0     H29971  14.335   1.664  10.642 -1.3384  1.5485  1.4703
  963MOL0     H29972  14.313   1.571  10.784 -1.1575  0.2995  0.2645
  963MOL0     H29973  14.278   1.371  10.593 -0.3322 -0.0595  2.1525
  963MOL0     H29974  14.361   1.484  10.498 -0.8445  0.8651 -0.6098
  963MOL0     H29975  14.485   1.350  10.742 -1.2997  1.2861  0.3123
  963MOL0     H29976  14.548   1.499  10.682  0.1420 -0.7098  2.4083
  963MOL0     H29977  14.604   1.404  10.465 -0.5828  1.6949  0.9005
  963MOL0     H29978  14.505   1.253  10.510 -0.1911 -0.0870  0.5675
  963MOL0     H29979  14.719   1.239  10.696  1.5946 -1.4570 -0.9603
  963MOL0     H29980  14.732   1.216  10.516 -0.1090  0.8540 -1.3439
  963MOL0     H29981  14.800   1.475  10.662 -1.0784  0.8982 -0.2701
  963MOL0     H29982  14.835   1.438  10.500  4.1094 -0.2821  0.3284
  963MOL0     H29983  15.017   1.402  10.666  0.2791  0.7130 -0.2408
  963MOL0     H29984  14.931   1.249  10.699  1.7387 -0.2846 -1.0197
  963MOL0     H29985  13.989   1.443  10.325 -0.2821  0.1881  0.5573
  963MOL0     H29986  13.761   1.461  10.234  0.5859 -2.0243 -0.1373
  963MOL0     H29987  13.472   1.406  10.048 -1.0697  1.7812 -1.1756
  963MOL0     H29988  13.263   1.294   9.996  0.0817  3.0306 -1.6170
  963MOL0     H29989  11.616   0.142  10.604 -0.8095  0.7160  0.1759
  963MOL0     H29990  11.396   0.100  10.727  0.8018  0.3247  0.7014
  963MOL0     H29991  10.881   0.038  10.607 -0.5573  3.3880  1.9089
  963MOL0     H29992  10.710  -0.107  10.663  1.3839  2.2202 -1.4351
  963MOL0     H29993  10.607  -0.164  11.042  0.2632  0.3103  0.3119
  963MOL0     H29994  10.700  -0.313  11.081 -1.1907  0.5777  1.1189
  963MOL0     H29995  10.535  -0.454  10.970  0.2124 -0.5391 -0.6270
  963MOL0     H29996  10.459  -0.308  10.911 -0.9928  0.4084  0.3431
  963MOL0     H29997  10.404  -0.248  11.151 -1.1755 -0.3337  1.6458
  963MOL0     H29998  10.487  -0.414  11.191  0.7961  0.4486  0.1898
  963MOL0     H29999  10.248  -0.387  11.012  1.3475  0.1941 -0.5882
  963MOL0     H30000  10.295  -0.519  11.106 -0.9096  0.3500 -2.4292
  963MOL0     H30001  10.060  -0.297  11.379 -0.7519  0.8626 -1.4012
  963MOL0     H30002  10.868  -0.185  11.045 -2.6114 -0.8221 -0.7214
  963MOL0     H30003  11.112   0.044  11.063 -2.6692  0.2483 -0.4327
  963MOL0     H30004  11.096  -0.133  11.095  0.6321 -0.2282 -0.2808
  963MOL0     H30005  11.209  -0.069  10.968  0.2633  0.9295  0.0427
  964MOL0     O30006   8.753   3.212   7.733  0.1538 -0.6653  0.4921
  964MOL0     C30007   8.761   3.202   7.855  0.1060  1.0617 -1.2833
  964MOL0     O30008   8.777   3.309   7.939  0.4760  0.2201 -0.3462
  964MOL0     C30009   8.816   3.425   7.879 -0.3194  0.5575  0.6184
  964MOL0     C30010   8.952   3.469   7.892  0.7057  0.4908 -0.2266
  964MOL0     C30011   8.995   3.592   7.847  0.5588 -0.3215  0.5971
  964MOL0     C30012   8.905   3.677   7.776  0.6323 -1.0532  0.0650
  964MOL0     O30013   8.925   3.808   7.739 -0.2938  0.0580  0.1998
  964MOL0     C30014   9.059   3.863   7.740 -0.0994  0.1797  0.2774
  964MOL0     C30015   9.045   4.009   7.708 -0.4172 -0.3904 -0.1984
  964MOL0     C30016   9.179   4.087   7.728  0.0807 -0.8971 -0.8112
  964MOL0     C30017   9.153   4.242   7.727 -1.2727 -0.9635  0.3333
  964MOL0     C30018   9.286   4.311   7.737 -0.0315  0.2224 -0.1690
  964MOL0     C30019   9.273   4.457   7.781  0.3033 -0.1910  0.8290
  964MOL0     C30020   9.236   4.488   7.929 -0.1307 -0.7528 -0.1124
  964MOL0     C30021   9.341   4.448   8.021 -0.6207  0.9433 -0.1281
  964MOL0     N30022   9.472   4.487   7.990  0.2674 -0.0818 -0.3083
  964MOL0     C30023   9.518   4.625   7.978 -0.0302  0.6003  0.5843
  964MOL0     C30024   9.634   4.619   7.911 -0.0673 -1.6751 -0.0929
  964MOL0     C30025   9.706   4.749   7.868 -0.2407  0.2535  0.5327
  964MOL0     C30026   9.858   4.723   7.901  0.0723 -0.4754  0.0547
  964MOL0     C30027   9.895   4.778   8.039 -0.1686 -0.1324 -0.3392
  964MOL0     C30028  10.033   4.742   8.082  0.8390 -0.7062  0.5842
  964MOL0     O30029  10.126   4.787   7.981 -0.0711 -0.0749 -0.2825
  964MOL0     C30030  10.255   4.808   8.018 -0.2097 -0.3352 -0.4400
  964MOL0     C30031  10.323   4.722   8.104  0.2498 -0.4301  0.5179
  964MOL0     C30032  10.449   4.750   8.137 -0.3919  0.7086 -0.1535
  964MOL0     C30033  10.526   4.856   8.089  0.6826  0.1783  0.4555
  964MOL0     C30034  10.662   4.868   8.130 -0.2353  0.4340 -0.1858
  964MOL0     O30035  10.709   4.754   8.192  0.0632  0.2039  0.6660
  964MOL0     C30036  10.818   4.751   8.276  0.7278  0.0312 -0.4326
  964MOL0     C30037  10.835   4.641   8.354 -0.2946 -0.5036  0.6488
  964MOL0     C30038  10.951   4.617   8.430  0.2806 -0.6745 -0.4064
  964MOL0     C30039  11.057   4.711   8.434  0.4955 -0.4234 -0.2267
  964MOL0     O30040  11.174   4.683   8.510 -0.2385  0.3201  0.1186
  964MOL0     C30041  11.223   4.786   8.594 -0.1036  0.1050  0.2413
  964MOL0     C30042  11.358   4.849   8.559  0.0807 -0.8744  0.3471
  964MOL0     C30043  11.462   4.748   8.576  0.1214  0.1461  0.8015
  964MOL0     C30044  11.612   4.803   8.561  0.4611 -0.0758  0.6089
  964MOL0     C30045  11.661   4.882   8.680 -0.3210 -1.3329  0.3487
  964MOL0     C30046  11.807   4.923   8.668 -0.4198  0.8574 -0.3379
  964MOL0     C30047  11.909   4.806   8.685  0.4254 -1.0108  0.8028
  964MOL0     C30048  12.044   4.862   8.727  0.1482  0.2611  0.4209
  964MOL0    Cl30049  12.131   4.926   8.587 -0.0606 -0.5394  0.0745
  964MOL0     C30050  11.034   4.831   8.356 -0.0848  0.4426 -0.5053
  964MOL0     C30051  10.926   4.847   8.276  0.1397  0.5376  0.3800
  964MOL0     O30052  10.702   4.983   8.152  0.9123  0.2586  0.2085
  964MOL0     C30053  10.466   4.942   7.994 -0.3483  0.6874  0.3775
  964MOL0     C30054  10.330   4.920   7.967  0.1719  0.3195 -0.0399
  964MOL0     N30055   9.668   4.491   7.888  0.4195 -0.3896  0.0087
  964MOL0     N30056   9.572   4.416   7.928  0.2890  0.0894 -0.0997
  964MOL0     C30057   8.771   3.636   7.759 -0.2353 -0.1236  0.0255
  964MOL0     C30058   8.729   3.508   7.804 -0.0572 -0.0830 -0.3248
  964MOL0     C30059   8.728   3.066   7.904  0.0325  0.3940 -0.7273
  964MOL0     C30060   8.715   3.053   8.046 -0.1373  0.2827 -0.0511
  964MOL0     C30061   8.667   2.938   8.106  0.3555  0.0507  0.5625
  964MOL0     C30062   8.637   2.827   8.025 -0.1262 -0.9044 -1.0723
  964MOL0     O30063   8.584   2.718   8.092  0.2097 -0.4957  0.3126
  964MOL0     C30064   8.578   2.590   8.035  0.2877 -0.3600  0.0677
  964MOL0     C30065   8.704   2.512   8.081 -0.4667  0.4894 -0.6214
  964MOL0     C30066   8.845   2.588   8.052  0.2739  0.6439  0.3114
  964MOL0     C30067   8.972   2.503   8.090  1.2000 -1.2198  0.0661
  964MOL0     C30068   8.982   2.381   8.008  0.3778 -0.0576  0.2940
  964MOL0     C30069   8.969   2.277   7.946  0.4402  0.7724 -0.9370
  964MOL0     C30070   8.645   2.840   7.891  0.6970  1.0546  0.4156
  964MOL0     C30071   8.694   2.952   7.824  0.2583 -0.0611 -0.1937
  964MOL0     C30072   8.690   2.947   7.674 -0.3203 -0.0980 -0.1624
  964MOL0     H30073   9.018   3.409   7.954  2.4228  3.0397  0.5846
  964MOL0     H30074   9.091   3.641   7.859 -0.4601  1.7297  0.8724
  964MOL0     H30075   9.110   3.850   7.836 -1.5493  0.9249  1.1824
  964MOL0     H30076   9.118   3.810   7.665  0.1744 -0.2147  0.7654
  964MOL0     H30077   8.974   4.051   7.780  0.4340 -0.2788  0.6092
  964MOL0     H30078   9.000   4.019   7.609 -1.7624 -1.2434  0.3057
  964MOL0     H30079   9.244   4.060   7.644  1.5539 -1.6990  0.5355
  964MOL0     H30080   9.229   4.058   7.821  0.0797  1.7770  0.1085
  964MOL0     H30081   9.104   4.270   7.634 -0.3434 -3.2120 -0.9204
  964MOL0     H30082   9.097   4.271   7.817  0.5028 -2.2034  1.9454
  964MOL0     H30083   9.351   4.261   7.808 -0.3900 -0.9164 -0.6253
  964MOL0     H30084   9.335   4.317   7.639  1.3210  0.9524  0.5253
  964MOL0     H30085   9.361   4.518   7.759 -1.2740  2.3963  1.2695
  964MOL0     H30086   9.192   4.505   7.724 -0.1723 -0.4859  1.2475
  964MOL0     H30087   9.138   4.449   7.959 -0.7795  1.8269  1.4087
  964MOL0     H30088   9.224   4.596   7.938  2.6019 -0.3785 -0.2164
  964MOL0     H30089   9.319   4.479   8.124  1.5531 -0.0770  0.7343
  964MOL0     H30090   9.339   4.338   8.022 -1.0579  0.9473 -0.6343
  964MOL0     H30091   9.454   4.708   8.004 -0.7171 -0.0305  0.9593
  964MOL0     H30092   9.691   4.788   7.768  1.4909  1.6408  0.7603
  964MOL0     H30093   9.669   4.837   7.921  1.6319  1.9126 -0.7593
  964MOL0     H30094   9.887   4.619   7.885 -0.0062 -0.5708  0.5431
  964MOL0     H30095   9.905   4.786   7.825 -1.5906 -0.9671 -1.4642
  964MOL0     H30096   9.824   4.738   8.112 -1.9923  3.2442 -0.0508
  964MOL0     H30097   9.883   4.886   8.033 -3.3967 -0.3273  1.0039
  964MOL0     H30098  10.037   4.633   8.089  0.0800 -0.7867 -0.1683
  964MOL0     H30099  10.062   4.782   8.180  3.6377 -2.6060  0.6584
  964MOL0     H30100  10.274   4.633   8.143 -1.5381  0.8711  1.3930
  964MOL0     H30101  10.504   4.685   8.205 -0.6053  0.1080 -0.5430
  964MOL0     H30102  10.754   4.570   8.365 -2.8765  2.5522  3.6594
  964MOL0     H30103  10.958   4.527   8.490 -0.1667  0.4836  1.4915
  964MOL0     H30104  11.153   4.870   8.603 -0.7960 -0.6687  3.2789
  964MOL0     H30105  11.233   4.741   8.693  0.6958 -3.0163 -1.1451
  964MOL0     H30106  11.339   4.858   8.451 -1.6790  1.0028  0.7567
  964MOL0     H30107  11.383   4.942   8.609 -1.3108 -0.2962  0.0226
  964MOL0     H30108  11.444   4.708   8.676  0.0160  0.8513  1.0632
  964MOL0     H30109  11.445   4.679   8.492 -1.7079  2.9995 -1.3789
  964MOL0     H30110  11.615   4.873   8.476 -2.3989 -0.3386  0.2008
  964MOL0     H30111  11.680   4.719   8.547  3.0310  1.7475  1.4058
  964MOL0     H30112  11.647   4.819   8.768 -2.6957 -0.4675  0.6608
  964MOL0     H30113  11.603   4.973   8.697  2.4800  0.4994  0.8025
  964MOL0     H30114  11.815   4.962   8.566 -1.4357  0.2434 -0.6705
  964MOL0     H30115  11.840   5.004   8.734 -1.2967  2.0679 -1.3537
  964MOL0     H30116  11.921   4.747   8.593 -1.9744 -2.5008  1.3663
  964MOL0     H30117  11.887   4.725   8.755 -0.8045 -2.7711 -1.4633
  964MOL0     H30118  12.021   4.935   8.805  0.2763 -1.6463  2.3248
  964MOL0     H30119  12.102   4.780   8.771  0.1271 -0.0864 -0.1845
  964MOL0     H30120  11.107   4.911   8.360  2.2431 -1.6002  0.2890
  964MOL0     H30121  10.921   4.938   8.218  0.0568 -0.5038 -1.3173
  964MOL0     H30122  10.527   5.022   7.954  1.0513  0.1339  1.3296
  964MOL0     H30123  10.267   4.966   7.891 -2.4057 -2.3398  0.3079
  964MOL0     H30124   8.689   3.689   7.711 -0.6960 -2.0821 -1.4440
  964MOL0     H30125   8.627   3.477   7.784  0.2097 -1.0297 -0.2569
  964MOL0     H30126   8.739   3.138   8.109 -2.3849  1.5541 -0.8323
  964MOL0     H30127   8.661   2.931   8.214 -3.0883  5.7190  1.1154
  964MOL0     H30128   8.567   2.600   7.927 -1.1656 -0.2723  0.2034
  964MOL0     H30129   8.493   2.534   8.076  0.0355  0.5661  0.8549
  964MOL0     H30130   8.703   2.411   8.039 -1.1383  0.2196  0.0350
  964MOL0     H30131   8.693   2.508   8.190  1.4744  2.7409 -0.2491
  964MOL0     H30132   8.857   2.685   8.101  1.5713  1.5456 -1.6520
  964MOL0     H30133   8.855   2.613   7.946 -2.5473 -1.2663 -0.5224
  964MOL0     H30134   9.063   2.562   8.080  0.2208  0.7339  1.7679
  964MOL0     H30135   8.962   2.472   8.195 -1.6163  2.3029  1.0262
  964MOL0     H30136   8.941   2.181   7.906 -1.1174  1.5189 -1.7017
  964MOL0     H30137   8.615   2.758   7.826  1.0608  0.3982  1.0660
  964MOL0     H30138   8.597   2.987   7.635  0.6036  1.3601 -0.9374
  964MOL0     H30139   8.777   2.998   7.632 -0.1971 -0.0748  0.1203
  964MOL0     H30140   8.690   2.847   7.628  0.4195  0.0754 -0.5685
  965MOL0     O30141   5.892   0.801   3.279  1.0278  0.2740  0.3674
  965MOL0     C30142   5.788   0.734   3.296 -0.0984 -0.7332  0.2076
  965MOL0     O30143   5.716   0.727   3.411  0.6757  0.1178  0.6307
  965MOL0     C30144   5.765   0.797   3.517  0.4098 -0.7292  0.6923
  965MOL0     C30145   5.686   0.886   3.581 -0.2244  0.0322 -0.3425
  965MOL0     C30146   5.725   0.927   3.708  0.0022  0.4043 -0.2213
  965MOL0     C30147   5.857   0.899   3.763  0.7501  0.0099  1.4370
  965MOL0     O30148   5.923   0.962   3.871  0.1250 -0.6720 -0.4667
  965MOL0     C30149   5.844   1.048   3.957 -0.3210 -0.7204  0.0257
  965MOL0     C30150   5.891   1.038   4.096 -0.3245 -0.0356  0.0517
  965MOL0     C30151   5.812   1.127   4.193 -0.0720  0.3059 -0.1087
  965MOL0     C30152   5.891   1.167   4.320 -0.5150 -0.0934 -0.8049
  965MOL0     C30153   5.836   1.282   4.408  0.0887  0.2234 -0.5209
  965MOL0     C30154   5.804   1.422   4.351 -0.9576  0.3088  0.1430
  965MOL0     C30155   5.736   1.507   4.463  0.1886 -0.1738 -0.2354
  965MOL0     C30156   5.830   1.559   4.576 -0.7688 -0.1558 -0.1157
  965MOL0     N30157   5.956   1.616   4.525  0.5854  0.2735  0.4800
  965MOL0     C30158   5.983   1.730   4.447 -0.3564 -0.3783  0.1101
  965MOL0     C30159   6.119   1.753   4.448  0.5544  0.5551 -0.7911
  965MOL0     C30160   6.193   1.868   4.401 -0.3627  0.0475 -0.8494
  965MOL0     C30161   6.322   1.828   4.333  0.1851  0.3354 -0.6172
  965MOL0     C30162   6.387   1.955   4.254 -0.1812  0.5360  0.3521
  965MOL0     C30163   6.523   1.929   4.204 -0.4717  0.2323  0.3104
  965MOL0     O30164   6.608   1.910   4.317 -0.2557 -0.7941  1.1367
  965MOL0     C30165   6.750   1.909   4.312 -0.5564 -0.3388  0.6432
  965MOL0     C30166   6.818   1.903   4.436 -0.0788 -0.6234  0.5432
  965MOL0     C30167   6.958   1.907   4.441 -1.2460 -0.3701 -0.5173
  965MOL0     C30168   7.032   1.934   4.326 -0.5354 -0.0131  0.7342
  965MOL0     C30169   7.176   1.924   4.322 -0.0327 -0.9014 -0.4510
  965MOL0     O30170   7.251   1.962   4.211  0.6435 -0.0985 -0.4636
  965MOL0     C30171   7.387   1.938   4.212 -0.1898 -0.0097 -0.6675
  965MOL0     C30172   7.436   1.909   4.081  0.3462  0.5729 -0.2015
  965MOL0     C30173   7.574   1.888   4.066  0.6414  0.1290  0.1610
  965MOL0     C30174   7.662   1.878   4.173 -0.1975 -0.0424 -0.2854
  965MOL0     O30175   7.791   1.841   4.143 -0.0487  0.4477  0.2030
  965MOL0     C30176   7.898   1.870   4.234 -0.6479 -0.6366  0.0322
  965MOL0     C30177   8.016   1.784   4.185 -0.0030 -0.2694  0.3871
  965MOL0     C30178   8.140   1.806   4.277 -0.2609 -0.2301 -0.4141
  965MOL0     C30179   8.256   1.718   4.228 -1.1167 -0.3779 -0.0098
  965MOL0     C30180   8.396   1.737   4.306 -0.0178 -0.3965 -0.9354
  965MOL0     C30181   8.499   1.628   4.257 -0.5819  0.1709 -0.5697
  965MOL0     C30182   8.635   1.668   4.316 -0.6622 -0.0715 -0.5065
  965MOL0     C30183   8.688   1.822   4.312 -0.5907  0.3735  0.2721
  965MOL0    Cl30184   8.854   1.818   4.368  0.6586 -0.2284  0.0965
  965MOL0     C30185   7.617   1.913   4.301  0.7713 -0.6946  0.2934
  965MOL0     C30186   7.482   1.941   4.324 -1.1389  0.1877  0.0146
  965MOL0     O30187   7.223   1.883   4.428  0.2086  0.3261 -0.0180
  965MOL0     C30188   6.968   1.941   4.200 -0.6488  0.0496 -0.3012
  965MOL0     C30189   6.829   1.916   4.195 -0.6713 -0.3615  0.2457
  965MOL0     N30190   6.174   1.646   4.518  0.3617 -0.5324 -0.2208
  965MOL0     N30191   6.077   1.562   4.560  0.4463  0.7868 -0.6787
  965MOL0     C30192   5.940   0.812   3.690  0.7503 -0.0493  0.1692
  965MOL0     C30193   5.885   0.752   3.572 -0.2023  0.1411  0.2995
  965MOL0     C30194   5.722   0.671   3.177  0.0553  0.0195  0.1884
  965MOL0     C30195   5.587   0.628   3.192  0.2432  0.6322  0.5808
  965MOL0     C30196   5.512   0.605   3.080  0.3950  0.2171  0.0465
  965MOL0     C30197   5.571   0.608   2.950  0.4526  0.6948  0.6800
  965MOL0     O30198   5.511   0.596   2.834  0.7063 -0.1268  0.4105
  965MOL0     C30199   5.378   0.648   2.831 -0.8303 -0.6896  0.9765
  965MOL0     C30200   5.316   0.667   2.686  0.3854  0.7562  0.3528
  965MOL0     C30201   5.294   0.524   2.626  0.7451 -0.3008  0.2038
  965MOL0     C30202   5.153   0.471   2.657  0.0433  0.9535 -1.1138
  965MOL0     C30203   5.036   0.544   2.608  0.6658  0.3436 -0.4315
  965MOL0     C30204   4.936   0.606   2.566 -0.4125 -0.2964  0.2585
  965MOL0     C30205   5.709   0.629   2.942  1.0478  0.9518  1.0859
  965MOL0     C30206   5.787   0.654   3.054  0.2950 -0.2977  0.1291
  965MOL0     C30207   5.934   0.679   3.033 -0.5916 -0.5343  0.2523
  965MOL0     H30208   5.586   0.916   3.551 -0.3988  1.0555  1.1291
  965MOL0     H30209   5.656   0.986   3.768 -0.1181  0.4889 -0.4407
  965MOL0     H30210   5.855   1.154   3.931  0.8072 -0.4107  1.6030
  965MOL0     H30211   5.737   1.027   3.962 -0.7729  1.4818  0.9647
  965MOL0     H30212   5.997   1.061   4.093 -0.2443 -0.3780  0.2160
  965MOL0     H30213   5.879   0.934   4.127 -0.5512 -0.7068 -2.1623
  965MOL0     H30214   5.719   1.074   4.216 -1.3844  2.2680 -0.6398
  965MOL0     H30215   5.778   1.220   4.147 -0.5506 -0.6352 -1.7273
  965MOL0     H30216   5.903   1.078   4.382  0.0861  0.4821 -0.0716
  965MOL0     H30217   5.988   1.207   4.290  0.0664 -0.7441  0.1816
  965MOL0     H30218   5.750   1.242   4.463  2.2419 -2.3564  1.1960
  965MOL0     H30219   5.914   1.282   4.484  2.6689  0.4011 -2.9777
  965MOL0     H30220   5.894   1.473   4.314  0.7748 -3.2605 -0.9547
  965MOL0     H30221   5.731   1.407   4.271  1.3443 -2.1892 -1.6642
  965MOL0     H30222   5.661   1.440   4.505 -0.9397 -0.4956 -2.5741
  965MOL0     H30223   5.682   1.592   4.419 -2.5093 -1.2718  0.7667
  965MOL0     H30224   5.777   1.642   4.624 -2.4576 -0.0798 -1.9765
  965MOL0     H30225   5.854   1.487   4.655  0.8677  2.3249  1.8047
  965MOL0     H30226   5.900   1.792   4.416 -0.4764 -0.5605  0.0660
  965MOL0     H30227   6.138   1.928   4.328  0.8377  0.2512 -1.6274
  965MOL0     H30228   6.220   1.928   4.488 -1.2130  0.9142 -1.1625
  965MOL0     H30229   6.382   1.795   4.418 -0.5356  1.4575  0.3591
  965MOL0     H30230   6.310   1.746   4.262  3.0916  0.5873 -1.5569
  965MOL0     H30231   6.394   2.049   4.310 -2.0718  1.2693 -0.5804
  965MOL0     H30232   6.315   1.960   4.172 -1.2018  0.9029  1.2546
  965MOL0     H30233   6.558   2.011   4.141 -1.3750  0.5850  0.2501
  965MOL0     H30234   6.520   1.840   4.140 -0.0420  0.3263  0.1585
  965MOL0     H30235   6.759   1.908   4.527  3.3953  1.7328  2.9565
  965MOL0     H30236   7.007   1.908   4.539  0.3453 -1.9655 -1.2275
  965MOL0     H30237   7.378   1.909   3.989  0.9755 -1.1811 -0.6406
  965MOL0     H30238   7.605   1.856   3.967  0.2208 -0.4693  0.2130
  965MOL0     H30239   7.921   1.977   4.241  0.6325 -0.9635  1.3874
  965MOL0     H30240   7.861   1.840   4.333 -3.8687 -1.6788 -1.3323
  965MOL0     H30241   7.979   1.681   4.183 -0.3156 -0.1944  1.5162
  965MOL0     H30242   8.047   1.809   4.084  1.5050  1.6200  1.2466
  965MOL0     H30243   8.179   1.907   4.259  1.0900 -0.9820 -2.0700
  965MOL0     H30244   8.118   1.784   4.381  0.3366  2.0234  0.2412
  965MOL0     H30245   8.282   1.743   4.125 -1.7039  2.8738  0.5455
  965MOL0     H30246   8.224   1.615   4.250  2.7778 -1.3873  1.9816
  965MOL0     H30247   8.372   1.736   4.413 -3.7711 -1.3937 -1.6758
  965MOL0     H30248   8.442   1.835   4.288  1.2178 -0.8461 -0.3533
  965MOL0     H30249   8.472   1.533   4.304 -1.4979  0.3210 -0.7843
  965MOL0     H30250   8.494   1.616   4.148  2.0000  0.4185 -0.7918
  965MOL0     H30251   8.702   1.614   4.248 -0.8282  0.2151 -0.9095
  965MOL0     H30252   8.635   1.621   4.414  2.6877  0.9303  0.1251
  965MOL0     H30253   8.682   1.859   4.209 -1.1315  1.4278  0.6562
  965MOL0     H30254   8.626   1.882   4.381  0.4548  3.3350 -1.1798
  965MOL0     H30255   7.691   1.933   4.378  1.1660 -2.4089  0.4068
  965MOL0     H30256   7.449   1.976   4.422  1.2710  1.5549  0.4191
  965MOL0     H30257   7.039   1.937   4.118  1.8665 -1.8460  1.7955
  965MOL0     H30258   6.778   1.894   4.101 -0.3990 -4.8598  0.9395
  965MOL0     H30259   6.036   0.786   3.733 -0.7725 -2.3436  2.4667
  965MOL0     H30260   5.938   0.678   3.513 -0.8603  0.4435 -0.7044
  965MOL0     H30261   5.539   0.626   3.290 -0.3309  3.4101  0.4184
  965MOL0     H30262   5.406   0.586   3.097  0.1067  0.8871 -0.9244
  965MOL0     H30263   5.383   0.748   2.876  0.6816 -0.5438  0.5514
  965MOL0     H30264   5.307   0.591   2.891 -1.7098 -1.5760 -0.8423
  965MOL0     H30265   5.381   0.725   2.620 -0.4336 -1.2278 -2.3617
  965MOL0     H30266   5.217   0.714   2.692  0.0924  0.2892 -0.6765
  965MOL0     H30267   5.379   0.465   2.663  2.6204  1.8329 -0.5028
  965MOL0     H30268   5.310   0.529   2.518  1.7010  1.2284  0.3835
  965MOL0     H30269   5.142   0.369   2.620  0.0506  1.2377 -1.9199
  965MOL0     H30270   5.145   0.465   2.766  1.6836  2.1888 -0.8742
  965MOL0     H30271   4.843   0.639   2.524 -0.2409 -0.9716 -0.6817
  965MOL0     H30272   5.755   0.628   2.843 -1.1925 -3.4256 -0.1532
  965MOL0     H30273   5.955   0.783   3.007  2.2708 -1.1885 -0.4513
  965MOL0     H30274   6.000   0.639   3.111 -0.3356 -1.4825 -0.4372
  965MOL0     H30275   5.971   0.624   2.946 -0.0736  0.6891 -0.3229
  966MOL0     O30276   5.679   5.638   9.181  0.0871 -0.0548  0.1778
  966MOL0     C30277   5.614   5.672   9.279  0.4615  0.5023  0.0128
  966MOL0     O30278   5.634   5.786   9.353 -0.2411  0.4529  0.6441
  966MOL0     C30279   5.757   5.843   9.346 -0.4113 -0.3055 -0.0553
  966MOL0     C30280   5.754   5.981   9.353 -0.5899 -0.1728  0.2665
  966MOL0     C30281   5.871   6.058   9.321 -0.3211 -0.6609 -0.6850
  966MOL0     C30282   5.993   5.992   9.300 -0.6734  0.4486 -0.0738
  966MOL0     O30283   6.097   6.069   9.260  0.6009  1.0441  0.1481
  966MOL0     C30284   6.220   6.009   9.242 -1.0392  0.3418  0.1266
  966MOL0     C30285   6.313   6.109   9.183 -0.6136 -0.5051 -0.5035
  966MOL0     C30286   6.441   6.047   9.127 -0.3119  0.3002  0.7952
  966MOL0     C30287   6.545   6.151   9.123 -0.2712 -0.2713  0.5153
  966MOL0     C30288   6.676   6.104   9.057 -0.3623  0.2762  0.9106
  966MOL0     C30289   6.761   6.234   9.027  0.1621  0.0126 -0.9386
  966MOL0     C30290   6.903   6.202   8.981 -0.3365 -0.2569  0.1667
  966MOL0     C30291   6.963   6.335   8.931  0.1064  0.3803 -0.3832
  966MOL0     N30292   7.110   6.332   8.921 -0.0215 -0.1137  0.4743
  966MOL0     C30293   7.174   6.282   8.813 -0.1226 -0.1822 -0.0795
  966MOL0     C30294   7.307   6.279   8.845  0.6799 -0.1223 -0.0591
  966MOL0     C30295   7.413   6.247   8.742 -0.8054 -0.0363 -0.3470
  966MOL0     C30296   7.553   6.244   8.809  0.2634  0.4077 -0.1895
  966MOL0     C30297   7.651   6.180   8.718  0.3645 -0.4478 -0.6619
  966MOL0     C30298   7.797   6.203   8.764 -0.2902  0.0138 -0.3548
  966MOL0     O30299   7.890   6.144   8.674 -0.2392  0.7194  0.1455
  966MOL0     C30300   8.021   6.140   8.704 -0.0688  0.0653  0.1322
  966MOL0     C30301   8.095   6.063   8.618 -0.4910 -0.4277 -0.4245
  966MOL0     C30302   8.230   6.039   8.634 -0.2248 -0.0008 -0.6815
  966MOL0     C30303   8.298   6.098   8.747  0.4888 -0.9670  0.3387
  966MOL0     C30304   8.446   6.059   8.766 -0.2605 -0.1639 -1.0547
  966MOL0     O30305   8.517   6.142   8.859  0.2686 -0.0346 -0.8357
  966MOL0     C30306   8.650   6.135   8.868  0.4478  0.0690 -0.1582
  966MOL0     C30307   8.711   6.260   8.855 -0.7655  0.3975 -0.0658
  966MOL0     C30308   8.845   6.273   8.856  0.3196 -0.2032  0.0065
  966MOL0     C30309   8.925   6.168   8.886  1.0399 -0.0766  1.1363
  966MOL0     O30310   9.055   6.199   8.893 -0.7090  0.7272  0.3287
  966MOL0     C30311   9.128   6.148   9.008 -0.1364 -0.1741  0.3006
  966MOL0     C30312   9.243   6.243   9.044 -0.0731 -0.1352 -0.2039
  966MOL0     C30313   9.339   6.280   8.930 -0.1373 -1.0478 -0.3058
  966MOL0     C30314   9.439   6.172   8.905  0.4705 -0.2464  0.3273
  966MOL0     C30315   9.538   6.205   8.798  0.3708 -0.4680 -0.1585
  966MOL0     C30316   9.649   6.097   8.809 -0.0241  0.3616 -1.1799
  966MOL0     C30317   9.757   6.102   8.694 -0.4697  0.3067 -0.0957
  966MOL0     C30318   9.881   6.025   8.735  0.4362 -0.0069 -0.8779
  966MOL0    Cl30319  10.018   6.044   8.615  0.2320  0.1581 -0.3024
  966MOL0     C30320   8.871   6.039   8.892  0.0829 -0.3531 -0.0896
  966MOL0     C30321   8.731   6.027   8.882 -0.5086 -0.4046  0.0305
  966MOL0     O30322   8.496   5.964   8.710 -0.0090  0.0843  0.9826
  966MOL0     C30323   8.231   6.192   8.824  0.4701  0.2465 -0.5293
  966MOL0     C30324   8.089   6.202   8.815  1.3318  0.0482 -0.1220
  966MOL0     N30325   7.324   6.345   8.967  0.2932 -0.2214 -0.0672
  966MOL0     N30326   7.204   6.379   9.010 -0.1922 -0.4490 -0.7855
  966MOL0     C30327   5.994   5.852   9.312 -0.7073 -1.1529  0.5043
  966MOL0     C30328   5.884   5.779   9.333  0.4504  0.0424  0.1675
  966MOL0     C30329   5.480   5.603   9.307 -0.4506  0.6601  0.0793
  966MOL0     C30330   5.380   5.675   9.379 -0.6748  0.2917 -0.6965
  966MOL0     C30331   5.255   5.617   9.407  0.1690  0.4097  0.2689
  966MOL0     C30332   5.224   5.490   9.373  0.0457  0.3577 -0.2404
  966MOL0     O30333   5.106   5.424   9.411 -0.5550 -0.8380 -0.1499
  966MOL0     C30334   5.099   5.306   9.484  0.7514 -0.0966  0.5844
  966MOL0     C30335   5.169   5.321   9.622  0.5469  0.7850  0.0307
  966MOL0     C30336   5.123   5.445   9.699  0.2394 -0.0105 -0.1720
  966MOL0     C30337   5.190   5.471   9.837  0.2606 -0.2963 -0.3658
  966MOL0     C30338   5.132   5.386   9.942 -0.2147  0.6237  0.6138
  966MOL0     C30339   5.073   5.304  10.004  1.2727 -0.6805 -0.9568
  966MOL0     C30340   5.328   5.419   9.316 -0.4228  0.2399 -0.1887
  966MOL0     C30341   5.451   5.471   9.278 -0.8895  0.5087 -0.0162
  966MOL0     C30342   5.547   5.373   9.207 -0.2589 -0.3562 -0.2415
  966MOL0     H30343   5.660   6.030   9.378  0.1567  0.1535  2.6420
  966MOL0     H30344   5.869   6.166   9.311  1.3433 -0.4064  1.1801
  966MOL0     H30345   6.254   5.970   9.339 -1.8298 -0.6097  0.0352
  966MOL0     H30346   6.207   5.934   9.164  2.4242  0.7115 -0.9452
  966MOL0     H30347   6.340   6.180   9.262 -0.0819  2.3725 -3.0429
  966MOL0     H30348   6.263   6.167   9.104  0.8716 -0.0211 -1.1299
  966MOL0     H30349   6.428   6.009   9.026 -0.8162  1.5065  0.3848
  966MOL0     H30350   6.480   5.970   9.193  0.5599  1.0947  1.2454
  966MOL0     H30351   6.502   6.228   9.058  1.9275 -0.7058 -1.6296
  966MOL0     H30352   6.564   6.195   9.221  0.7105 -1.1181  0.7300
  966MOL0     H30353   6.729   6.035   9.123  2.5598  0.2718 -1.2745
  966MOL0     H30354   6.667   6.043   8.967 -0.4367  1.0356  0.3927
  966MOL0     H30355   6.717   6.283   8.939  0.2662  1.2701 -0.3027
  966MOL0     H30356   6.760   6.301   9.113 -1.5967  0.8803 -1.5944
  966MOL0     H30357   6.903   6.125   8.904  0.3680 -0.9386  0.8327
  966MOL0     H30358   6.963   6.169   9.066  0.8855 -1.0026 -0.9539
  966MOL0     H30359   6.909   6.359   8.839  0.4106 -3.4845 -1.7483
  966MOL0     H30360   6.941   6.404   9.014  1.3784 -1.1308  1.2887
  966MOL0     H30361   7.126   6.255   8.719 -2.4957  0.9428  0.7498
  966MOL0     H30362   7.398   6.149   8.697 -0.2608 -1.1914  1.8616
  966MOL0     H30363   7.412   6.319   8.659  1.5243  0.9788  0.4391
  966MOL0     H30364   7.592   6.342   8.840  1.9561 -1.0211  2.5140
  966MOL0     H30365   7.561   6.183   8.899  2.2809 -0.1750 -0.7118
  966MOL0     H30366   7.641   6.244   8.629 -0.0549  0.4109 -0.0137
  966MOL0     H30367   7.619   6.078   8.694 -1.4072  0.0054 -0.3745
  966MOL0     H30368   7.818   6.157   8.862 -0.0505 -1.1307 -0.9256
  966MOL0     H30369   7.805   6.312   8.758  0.6005 -0.1271 -3.0465
  966MOL0     H30370   8.037   6.021   8.536  0.0227 -1.2208 -0.3956
  966MOL0     H30371   8.282   5.979   8.559 -0.5806 -3.4263  1.6076
  966MOL0     H30372   8.658   6.354   8.842 -2.2386 -0.6203 -1.9272
  966MOL0     H30373   8.893   6.369   8.841  2.3377 -0.9178  1.4854
  966MOL0     H30374   9.069   6.138   9.100  1.7538 -0.5834  1.5241
  966MOL0     H30375   9.169   6.049   8.985 -0.8603 -0.8443  1.7751
  966MOL0     H30376   9.202   6.339   9.077 -1.6078 -0.5204 -0.9101
  966MOL0     H30377   9.310   6.194   9.115 -0.2402  1.9708  1.4987
  966MOL0     H30378   9.286   6.302   8.837  0.1485 -1.8147 -0.6623
  966MOL0     H30379   9.407   6.361   8.959 -1.0666 -1.2180  2.7249
  966MOL0     H30380   9.389   6.079   8.875  0.8669 -0.9408  1.7209
  966MOL0     H30381   9.482   6.140   9.000 -1.8740  1.2650  2.0187
  966MOL0     H30382   9.578   6.306   8.815 -2.3933  0.9060 -1.1968
  966MOL0     H30383   9.499   6.208   8.696  0.1004 -1.1527 -0.0799
  966MOL0     H30384   9.705   6.090   8.903  1.5198 -0.5599 -2.1083
  966MOL0     H30385   9.595   6.003   8.798  0.0492  0.3518 -1.4774
  966MOL0     H30386   9.783   6.206   8.668  1.1176  0.5450  2.1807
  966MOL0     H30387   9.712   6.062   8.603  1.3935 -2.2741  0.0169
  966MOL0     H30388   9.921   6.052   8.833 -0.8403  1.6647 -0.7669
  966MOL0     H30389   9.866   5.917   8.736  3.2910 -0.5367  2.3937
  966MOL0     H30390   8.949   5.965   8.905  2.4185  1.6866 -1.5447
  966MOL0     H30391   8.693   5.926   8.880 -0.0393 -0.6022 -2.3188
  966MOL0     H30392   8.279   6.259   8.895  1.4810  0.6181 -1.5376
  966MOL0     H30393   8.029   6.267   8.878 -2.9789 -0.1015 -3.6487
  966MOL0     H30394   6.091   5.804   9.298  0.8686  1.5356  1.5058
  966MOL0     H30395   5.886   5.670   9.333  0.1493  0.0260 -0.6977
  966MOL0     H30396   5.406   5.777   9.408 -4.1761  0.7775  1.3205
  966MOL0     H30397   5.184   5.684   9.454 -0.5811  1.4401 -2.1710
  966MOL0     H30398   5.135   5.220   9.427 -3.3093 -1.6337  0.0092
  966MOL0     H30399   4.994   5.282   9.503 -0.1572  2.4299 -0.7808
  966MOL0     H30400   5.276   5.337   9.605  0.4236  0.1558 -1.4319
  966MOL0     H30401   5.168   5.225   9.675  1.8153  0.6109 -0.2330
  966MOL0     H30402   5.015   5.451   9.710  0.2812  0.0780  0.2255
  966MOL0     H30403   5.154   5.535   9.645  1.0529  0.4306  0.9803
  966MOL0     H30404   5.295   5.438   9.837 -0.0194 -1.2002 -0.6276
  966MOL0     H30405   5.177   5.576   9.865 -0.2837 -0.5452  0.3335
  966MOL0     H30406   5.019   5.232  10.061 -1.0498  1.3274 -0.4537
  966MOL0     H30407   5.300   5.316   9.295 -0.7154  0.3972 -0.5939
  966MOL0     H30408   5.635   5.399   9.267 -1.7824 -2.4367  3.2162
  966MOL0     H30409   5.523   5.268   9.227 -0.1139 -0.0649  1.6042
  966MOL0     H30410   5.558   5.384   9.099 -0.1820 -0.2496 -0.2235
  967MOL0     O30411   1.590   6.630   1.702  0.2379 -0.7092  0.0548
  967MOL0     C30412   1.572   6.586   1.589  0.0859  0.3410 -0.5939
  967MOL0     O30413   1.675   6.574   1.501 -0.8485  0.1610  0.2097
  967MOL0     C30414   1.800   6.622   1.534 -0.1892 -0.1758  0.0657
  967MOL0     C30415   1.898   6.532   1.579 -0.6113 -0.0316  0.0762
  967MOL0     C30416   2.032   6.573   1.612 -0.2647 -0.2417  0.6899
  967MOL0     C30417   2.066   6.704   1.577 -0.6822  0.5152  0.1676
  967MOL0     O30418   2.192   6.751   1.591 -1.1134 -0.0878  0.8263
  967MOL0     C30419   2.306   6.667   1.619 -0.1511  0.0802  0.9339
  967MOL0     C30420   2.421   6.756   1.642  0.3078  0.5741 -0.1725
  967MOL0     C30421   2.552   6.691   1.681 -0.4226 -0.2401 -0.2401
  967MOL0     C30422   2.645   6.810   1.709  0.0872  0.1104  0.7766
  967MOL0     C30423   2.796   6.778   1.734  0.5784 -1.0295 -0.2877
  967MOL0     C30424   2.862   6.902   1.785  0.1982 -0.7514 -0.1881
  967MOL0     C30425   3.020   6.882   1.776 -0.4760 -0.1472 -0.0059
  967MOL0     C30426   3.104   7.011   1.820 -0.0488  0.4333 -0.5460
  967MOL0     N30427   3.248   6.997   1.795  0.2696 -1.0624  0.1406
  967MOL0     C30428   3.323   6.896   1.848  0.4344 -0.2840 -0.3013
  967MOL0     C30429   3.435   6.902   1.773 -0.4626 -0.3959  0.9098
  967MOL0     C30430   3.554   6.806   1.785  1.3507 -0.4329 -0.0866
  967MOL0     C30431   3.567   6.706   1.663 -0.7446 -0.3987 -0.2287
  967MOL0     C30432   3.506   6.565   1.664 -0.2830  0.1818 -1.0378
  967MOL0     C30433   3.347   6.573   1.668 -0.0784  0.3981 -0.3371
  967MOL0     O30434   3.305   6.446   1.622  0.2784  0.6219 -0.4089
  967MOL0     C30435   3.172   6.424   1.627  0.4022 -0.8876 -0.6150
  967MOL0     C30436   3.131   6.312   1.691  0.3743 -0.0002  0.0993
  967MOL0     C30437   2.997   6.274   1.690 -0.6754 -0.5404  1.6974
  967MOL0     C30438   2.901   6.338   1.610  0.0854 -0.0330  1.1743
  967MOL0     C30439   2.768   6.283   1.603 -0.3707 -0.5455  1.0402
  967MOL0     O30440   2.671   6.370   1.564 -0.3261  0.3562 -1.3882
  967MOL0     C30441   2.547   6.328   1.545  0.6011  0.6406  0.3090
  967MOL0     C30442   2.457   6.304   1.647 -0.2028  0.2975 -0.7221
  967MOL0     C30443   2.321   6.280   1.621 -0.1806 -0.1241  0.0362
  967MOL0     C30444   2.275   6.262   1.492 -0.3710 -1.5431  0.8735
  967MOL0     O30445   2.141   6.235   1.459  0.6526 -0.3459  0.2400
  967MOL0     C30446   2.065   6.162   1.554 -0.1994  0.4708  0.6955
  967MOL0     C30447   1.962   6.074   1.483 -0.2317 -0.0605 -0.0427
  967MOL0     C30448   1.850   6.140   1.405  0.1802  0.1173  0.4094
  967MOL0     C30449   1.751   6.038   1.341  0.3951  0.1706 -0.3849
  967MOL0     C30450   1.672   6.119   1.235  0.7110  0.0359  0.1471
  967MOL0     C30451   1.583   6.034   1.133 -0.1251 -1.3339 -0.5113
  967MOL0     C30452   1.452   5.984   1.189  0.3539 -0.6002 -0.9591
  967MOL0     C30453   1.361   5.924   1.092  0.5848 -0.8509  0.4499
  967MOL0    Cl30454   1.254   6.045   1.015  0.1464  0.0300 -0.1314
  967MOL0     C30455   2.372   6.257   1.390  0.0024  1.1109 -0.3026
  967MOL0     C30456   2.510   6.289   1.421  1.0914 -0.2996  0.3868
  967MOL0     O30457   2.760   6.162   1.607  0.4936  0.1528  0.8108
  967MOL0     C30458   2.946   6.457   1.544 -0.1790  0.9517 -0.0849
  967MOL0     C30459   3.079   6.499   1.555 -0.0285  0.7337 -0.0559
  967MOL0     N30460   3.424   7.015   1.691  0.4249 -0.0599 -0.5941
  967MOL0     N30461   3.312   7.075   1.700 -0.8783 -0.0398  0.8775
  967MOL0     C30462   1.967   6.794   1.531  0.2440  0.0953 -0.2863
  967MOL0     C30463   1.835   6.759   1.516  0.0360  0.8989  0.1333
  967MOL0     C30464   1.436   6.536   1.534  0.3455  0.4253  0.4714
  967MOL0     C30465   1.439   6.473   1.404 -0.3689 -0.2191  0.6401
  967MOL0     C30466   1.319   6.423   1.349 -0.0991 -0.2144 -0.4530
  967MOL0     C30467   1.203   6.428   1.425  0.4732 -0.0724 -1.1020
  967MOL0     O30468   1.086   6.374   1.377 -0.4793 -0.3617 -0.6531
  967MOL0     C30469   0.982   6.467   1.345 -0.7106 -0.1584  0.4341
  967MOL0     C30470   0.851   6.395   1.308 -0.4530  0.2897 -0.0770
  967MOL0     C30471   0.855   6.284   1.202 -0.4998 -0.3766  0.6207
  967MOL0     C30472   0.883   6.337   1.053 -0.9830 -0.1411 -0.3627
  967MOL0     C30473   0.905   6.224   0.964  0.2186 -0.1901  0.6850
  967MOL0     C30474   0.912   6.118   0.902 -0.8576  0.0529 -0.5960
  967MOL0     C30475   1.205   6.486   1.553 -0.5311  0.3454 -0.8444
  967MOL0     C30476   1.318   6.541   1.611  0.6955 -1.0319  0.1873
  967MOL0     C30477   1.316   6.580   1.759 -0.7411  0.0863 -0.2423
  967MOL0     H30478   1.880   6.426   1.585  1.0638 -0.4077 -0.7495
  967MOL0     H30479   2.101   6.497   1.649  3.1056  1.5229 -1.5252
  967MOL0     H30480   2.290   6.602   1.706 -1.5537 -3.7711 -1.9101
  967MOL0     H30481   2.323   6.602   1.533 -0.9220  2.6279 -1.2737
  967MOL0     H30482   2.380   6.820   1.720 -0.1755  1.2021 -0.9193
  967MOL0     H30483   2.433   6.816   1.552  0.7996 -1.1218 -1.2910
  967MOL0     H30484   2.591   6.620   1.607  0.1282 -0.7893  0.5543
  967MOL0     H30485   2.541   6.639   1.777  0.2618  1.2845  0.7172
  967MOL0     H30486   2.652   6.866   1.615 -3.3502 -1.4747 -0.5987
  967MOL0     H30487   2.597   6.872   1.785  2.5001  4.6495 -1.0083
  967MOL0     H30488   2.810   6.702   1.812  1.1322  1.5888  2.3518
  967MOL0     H30489   2.840   6.760   1.635  1.9253 -2.9845  0.5970
  967MOL0     H30490   2.834   6.993   1.730 -0.0042  0.6472  2.0594
  967MOL0     H30491   2.823   6.917   1.886  0.5390  0.7206 -0.2493
  967MOL0     H30492   3.043   6.866   1.670  1.1588  0.5475  0.2157
  967MOL0     H30493   3.049   6.791   1.830  1.2111 -0.2388 -0.9897
  967MOL0     H30494   3.064   7.104   1.779 -2.4386  0.6738  2.0396
  967MOL0     H30495   3.094   7.018   1.929 -0.0865 -1.5474 -0.3934
  967MOL0     H30496   3.282   6.823   1.917 -4.6119  2.0353 -0.3692
  967MOL0     H30497   3.641   6.872   1.791  0.1089  1.2564  0.0122
  967MOL0     H30498   3.541   6.751   1.879 -1.4272  1.2256  0.5974
  967MOL0     H30499   3.537   6.759   1.572 -1.3648 -1.0674 -0.4225
  967MOL0     H30500   3.673   6.690   1.642 -0.8620 -0.9641 -0.4100
  967MOL0     H30501   3.535   6.514   1.756  0.9278  1.9170 -0.4057
  967MOL0     H30502   3.547   6.510   1.579  3.0491 -1.1698  1.2457
  967MOL0     H30503   3.314   6.645   1.593 -1.2823 -0.1938 -0.4049
  967MOL0     H30504   3.314   6.597   1.770  0.0958  0.9643 -0.4136
  967MOL0     H30505   3.201   6.256   1.752  0.5252  0.7813  0.6628
  967MOL0     H30506   2.977   6.179   1.738  0.6805 -0.8314  1.7191
  967MOL0     H30507   2.486   6.315   1.751 -1.8508 -3.2972  0.2572
  967MOL0     H30508   2.259   6.278   1.709  2.5743  0.4090  2.1335
  967MOL0     H30509   2.126   6.099   1.619  0.6747  1.2410  0.6423
  967MOL0     H30510   2.007   6.242   1.602 -2.8310 -1.2412  0.5657
  967MOL0     H30511   2.010   6.003   1.416 -0.7240  1.5621 -2.2381
  967MOL0     H30512   1.917   6.008   1.557 -3.0511  1.1752 -0.5101
  967MOL0     H30513   1.783   6.204   1.463  0.2006  0.8588 -0.3697
  967MOL0     H30514   1.899   6.193   1.323  1.7183 -2.2574 -0.3018
  967MOL0     H30515   1.682   5.994   1.414 -2.6493  0.1533 -3.0478
  967MOL0     H30516   1.795   5.952   1.289 -0.8988 -2.0401  1.9208
  967MOL0     H30517   1.750   6.168   1.176  0.7670  0.6786  0.7429
  967MOL0     H30518   1.613   6.194   1.288  0.7498  0.1612  0.0150
  967MOL0     H30519   1.553   6.111   1.062 -1.1259 -0.2780  1.0077
  967MOL0     H30520   1.648   5.952   1.101  0.7050 -1.9325  2.4070
  967MOL0     H30521   1.400   6.065   1.242  1.8202 -0.8407  0.9852
  967MOL0     H30522   1.481   5.921   1.273 -1.9146 -1.3921 -0.6873
  967MOL0     H30523   1.429   5.877   1.020  1.0486  2.8472 -1.7933
  967MOL0     H30524   1.297   5.843   1.127 -2.2693  1.6350  1.4285
  967MOL0     H30525   2.344   6.243   1.286  1.1455 -0.7581 -0.4057
  967MOL0     H30526   2.588   6.291   1.346  1.8958 -3.1099  1.0132
  967MOL0     H30527   2.883   6.508   1.472 -0.8554  0.2181 -0.0265
  967MOL0     H30528   3.116   6.586   1.501  1.9255 -0.6774 -1.1045
  967MOL0     H30529   1.989   6.897   1.505  2.9127 -0.1968  0.5790
  967MOL0     H30530   1.764   6.839   1.494  1.8396  2.2361 -1.0680
  967MOL0     H30531   1.531   6.457   1.349  0.0473  0.7387  1.0348
  967MOL0     H30532   1.317   6.378   1.250  0.7308 -0.8892 -0.1757
  967MOL0     H30533   1.005   6.519   1.252 -2.0975 -1.3394 -0.6185
  967MOL0     H30534   0.962   6.538   1.425  0.2884  0.8390 -0.1826
  967MOL0     H30535   0.773   6.469   1.287 -1.0962  0.0452  1.2781
  967MOL0     H30536   0.815   6.355   1.404 -1.7116  0.0541 -0.6192
  967MOL0     H30537   0.760   6.232   1.185 -1.3475  2.2440 -4.9377
  967MOL0     H30538   0.925   6.208   1.240 -1.1262 -0.8544  0.8459
  967MOL0     H30539   0.805   6.403   1.013  0.4878  1.9517  0.0787
  967MOL0     H30540   0.986   6.372   1.043  0.4719 -3.9475 -0.3624
  967MOL0     H30541   0.920   6.014   0.877  2.3946 -0.3539  1.6334
  967MOL0     H30542   1.110   6.488   1.606 -0.5697 -0.8300 -0.8348
  967MOL0     H30543   1.388   6.514   1.808  1.9373  2.9646  0.0428
  967MOL0     H30544   1.343   6.682   1.789  5.0497 -1.1744  0.0335
  967MOL0     H30545   1.210   6.566   1.783 -0.8476  0.9728 -0.1609
  968MOL0     O30546   6.274   6.482   8.244 -0.0591 -0.2814  0.8548
  968MOL0     C30547   6.209   6.503   8.144  0.0163 -0.4370  0.6914
  968MOL0     O30548   6.227   6.608   8.061  0.1613  0.2635 -0.0968
  968MOL0     C30549   6.319   6.702   8.091 -0.1852  0.2909 -0.2566
  968MOL0     C30550   6.282   6.825   8.146  0.7877  0.0488  0.1938
  968MOL0     C30551   6.381   6.921   8.157  0.6189 -0.0387  0.8763
  968MOL0     C30552   6.512   6.890   8.119 -0.6694 -0.3351 -0.2579
  968MOL0     O30553   6.599   6.992   8.131  0.0157  0.1526  0.2833
  968MOL0     C30554   6.727   7.002   8.055  0.1829 -0.3583 -0.9167
  968MOL0     C30555   6.849   6.931   8.117  0.0703  0.1578  0.4315
  968MOL0     C30556   6.872   6.963   8.268 -0.3035  0.1021 -0.6646
  968MOL0     C30557   6.989   6.875   8.329 -0.1964 -0.6527  0.7973
  968MOL0     C30558   7.119   6.948   8.298  0.0869 -0.1390  0.4600
  968MOL0     C30559   7.247   6.881   8.353 -0.4133 -0.3334 -0.6517
  968MOL0     C30560   7.382   6.932   8.295 -0.0980  0.1256  0.0619
  968MOL0     C30561   7.502   6.853   8.355  0.2853  0.1878 -0.0426
  968MOL0     N30562   7.633   6.906   8.311  0.7211 -0.3683  0.7631
  968MOL0     C30563   7.754   6.856   8.345 -0.4225  0.3032 -0.1416
  968MOL0     C30564   7.844   6.945   8.290  0.6932  0.7078  0.3849
  968MOL0     C30565   7.991   6.931   8.307 -0.3864 -0.1319 -0.4414
  968MOL0     C30566   8.048   6.795   8.271  0.0167 -1.5863  0.7435
  968MOL0     C30567   8.193   6.791   8.304 -0.1019 -0.3241 -0.2656
  968MOL0     C30568   8.256   6.665   8.248 -0.5637 -0.2536 -0.0336
  968MOL0     O30569   8.400   6.685   8.254  0.4599 -0.3507 -0.2739
  968MOL0     C30570   8.492   6.596   8.206  1.4185 -0.7090  0.2806
  968MOL0     C30571   8.632   6.628   8.218 -0.2758 -0.9503  0.1492
  968MOL0     C30572   8.738   6.559   8.157  0.6867  0.6366 -1.1246
  968MOL0     C30573   8.710   6.440   8.097 -0.3466 -0.5004  0.3853
  968MOL0     C30574   8.822   6.366   8.038 -0.5923  0.2610  0.3972
  968MOL0     O30575   8.944   6.416   8.065 -0.3931  0.5060  0.3647
  968MOL0     C30576   9.053   6.352   8.017 -0.4393 -0.4424 -0.1440
  968MOL0     C30577   9.111   6.255   8.090  0.1700  0.2855 -0.6340
  968MOL0     C30578   9.233   6.191   8.060 -0.2446 -0.1894 -0.0153
  968MOL0     C30579   9.284   6.224   7.933 -1.5455 -0.0776  0.0762
  968MOL0     O30580   9.396   6.160   7.878  0.0943 -0.4240 -0.5643
  968MOL0     C30581   9.451   6.038   7.935  0.8759 -0.4351 -0.5193
  968MOL0     C30582   9.538   5.965   7.838  0.1908  0.1967  0.0949
  968MOL0     C30583   9.618   6.054   7.749 -0.7440 -0.3018  0.3453
  968MOL0     C30584   9.758   5.980   7.719 -0.6585 -0.4993  0.4977
  968MOL0     C30585   9.856   6.085   7.664 -0.4298  0.0169 -0.5535
  968MOL0     C30586   9.996   6.033   7.671 -0.3360 -0.0842 -0.8550
  968MOL0     C30587  10.087   6.138   7.605  0.4052 -0.3481 -0.1785
  968MOL0     C30588  10.216   6.065   7.561 -1.0251 -0.2079 -0.4166
  968MOL0    Cl30589  10.348   6.193   7.540 -0.4062 -0.3225 -0.1859
  968MOL0     C30590   9.232   6.319   7.850  0.4738  0.5687 -0.8500
  968MOL0     C30591   9.124   6.395   7.903  0.8772  0.1411 -0.8122
  968MOL0     O30592   8.794   6.269   7.977  0.5436 -0.3667 -0.0424
  968MOL0     C30593   8.581   6.391   8.088 -0.3626 -0.6680  0.4318
  968MOL0     C30594   8.476   6.468   8.145  0.1804 -0.5841  0.7749
  968MOL0     N30595   7.776   7.034   8.211 -1.3445  0.1429 -0.3920
  968MOL0     N30596   7.647   7.005   8.213  0.5001 -0.0729  0.1336
  968MOL0     C30597   6.549   6.768   8.063  0.5386  1.3699  0.3820
  968MOL0     C30598   6.449   6.679   8.045  0.0560  0.0087  0.1029
  968MOL0     C30599   6.102   6.403   8.094  0.7957  0.0813  0.4100
  968MOL0     C30600   6.052   6.432   7.966 -0.1019 -0.5894  0.0731
  968MOL0     C30601   5.942   6.351   7.921  0.0229 -0.1404  0.1640
  968MOL0     C30602   5.893   6.238   7.994 -0.5250 -0.4915  0.6812
  968MOL0     O30603   5.772   6.165   7.954  0.1289 -0.4318  0.0775
  968MOL0     C30604   5.757   6.142   7.813  0.4846  0.7066  0.4521
  968MOL0     C30605   5.643   6.034   7.791 -0.3120  0.4842 -0.0284
  968MOL0     C30606   5.519   6.103   7.861  0.6387  0.1254  1.0034
  968MOL0     C30607   5.379   6.035   7.845  0.3696 -1.1219 -0.3997
  968MOL0     C30608   5.331   6.013   7.706  1.1620  0.5914  0.0740
  968MOL0     C30609   5.297   6.012   7.593 -0.3870 -0.7197 -0.4606
  968MOL0     C30610   5.953   6.203   8.108 -0.5173  0.1498 -0.3383
  968MOL0     C30611   6.058   6.283   8.164  0.2345 -0.6806  0.1637
  968MOL0     C30612   6.111   6.245   8.304  0.8054  0.0805 -0.1467
  968MOL0     H30613   6.178   6.843   8.169  0.5071 -2.6622  1.3481
  968MOL0     H30614   6.347   7.020   8.185 -1.6080  0.1479 -2.0572
  968MOL0     H30615   6.710   6.978   7.950  1.2941 -0.9003 -0.9795
  968MOL0     H30616   6.749   7.109   8.057 -1.6355  0.0773 -1.6666
  968MOL0     H30617   6.937   6.964   8.061 -1.6187  0.5672 -2.1768
  968MOL0     H30618   6.846   6.824   8.092  0.3153 -0.6560  3.4889
  968MOL0     H30619   6.785   6.948   8.332 -1.1169  4.0083 -0.6662
  968MOL0     H30620   6.887   7.070   8.285  0.4105  0.4075 -2.8195
  968MOL0     H30621   6.984   6.864   8.438  2.0107  2.6065  1.3838
  968MOL0     H30622   6.986   6.775   8.287  0.0041 -0.6925  0.8757
  968MOL0     H30623   7.140   6.963   8.192 -1.5572  1.4805  0.3047
  968MOL0     H30624   7.102   7.046   8.343 -1.0375  1.9160 -3.9252
  968MOL0     H30625   7.254   6.894   8.461  3.6955  1.1904 -0.9188
  968MOL0     H30626   7.242   6.774   8.331  1.7798 -0.5670 -0.1937
  968MOL0     H30627   7.394   7.040   8.313  0.7810  0.1156 -0.3851
  968MOL0     H30628   7.377   6.919   8.186  1.8388  3.5021 -0.5923
  968MOL0     H30629   7.500   6.865   8.464  0.5787  0.2803 -0.0475
  968MOL0     H30630   7.490   6.746   8.334  0.4529  0.0539  0.5253
  968MOL0     H30631   7.773   6.772   8.412 -2.6995  0.2515  0.5176
  968MOL0     H30632   8.044   7.010   8.253  0.8996  0.8049  2.0491
  968MOL0     H30633   8.018   6.941   8.413  2.8790  2.2803 -1.3486
  968MOL0     H30634   7.993   6.721   8.331 -1.2376  0.8544  2.7984
  968MOL0     H30635   8.026   6.786   8.164 -0.0552  0.6789  0.5333
  968MOL0     H30636   8.216   6.788   8.411  2.1829 -0.6934 -0.7064
  968MOL0     H30637   8.241   6.883   8.268 -1.9709  0.2954 -1.3239
  968MOL0     H30638   8.216   6.646   8.147 -1.7798  1.9162 -0.0333
  968MOL0     H30639   8.225   6.586   8.317  0.1623 -0.3108  0.2284
  968MOL0     H30640   8.661   6.716   8.273  0.6514 -1.0149 -0.2256
  968MOL0     H30641   8.836   6.603   8.168 -0.7686  3.7861  0.8824
  968MOL0     H30642   9.064   6.225   8.183  2.5298  0.7839  0.7977
  968MOL0     H30643   9.273   6.119   8.131 -2.1403 -0.9124  0.3773
  968MOL0     H30644   9.509   6.070   8.022 -1.8732 -0.1966  1.3802
  968MOL0     H30645   9.385   5.965   7.983  1.0578  0.3026  0.9129
  968MOL0     H30646   9.606   5.906   7.899 -0.6457  1.1256  2.0112
  968MOL0     H30647   9.470   5.908   7.775  0.7836  0.3029 -0.6556
  968MOL0     H30648   9.553   6.077   7.664  1.8833 -1.3832 -2.1344
  968MOL0     H30649   9.634   6.149   7.801  0.5224  0.2301 -0.9248
  968MOL0     H30650   9.753   5.905   7.639  3.1291 -0.0455 -0.3881
  968MOL0     H30651   9.796   5.926   7.806 -0.3131 -0.6122  0.2800
  968MOL0     H30652   9.852   6.176   7.724  2.5227  0.1221 -0.3447
  968MOL0     H30653   9.819   6.115   7.566 -0.2607  3.0148  0.1893
  968MOL0     H30654  10.020   6.022   7.777  2.1890  2.8968 -0.9587
  968MOL0     H30655  10.000   5.937   7.620 -0.3104 -0.5980  0.1035
  968MOL0     H30656  10.108   6.223   7.670 -0.1201  0.4226 -0.9975
  968MOL0     H30657  10.041   6.186   7.518  1.8421 -0.5008 -1.0509
  968MOL0     H30658  10.245   6.001   7.645  0.5245 -0.6170 -1.2400
  968MOL0     H30659  10.215   6.007   7.469 -0.9665 -0.0368 -0.5260
  968MOL0     H30660   9.291   6.341   7.761  3.6400 -1.6304  0.5290
  968MOL0     H30661   9.074   6.477   7.851 -2.3512  0.8530  2.9503
  968MOL0     H30662   8.560   6.294   8.043  1.9903 -0.9785 -0.1205
  968MOL0     H30663   8.381   6.419   8.130  0.5262 -0.8653 -0.7003
  968MOL0     H30664   6.653   6.741   8.050  0.1274 -1.4974  2.1399
  968MOL0     H30665   6.477   6.586   7.997  0.7341  0.2679 -0.0151
  968MOL0     H30666   6.084   6.514   7.902 -0.8159  1.0611  1.7469
  968MOL0     H30667   5.886   6.373   7.831 -1.2676  0.8188  1.1557
  968MOL0     H30668   5.845   6.100   7.765 -0.2002 -2.3557  1.6626
  968MOL0     H30669   5.735   6.239   7.766  0.9457 -0.0411 -1.3704
  968MOL0     H30670   5.660   5.943   7.849  1.6530  1.8242  1.6142
  968MOL0     H30671   5.628   6.008   7.686  0.8194  0.2359 -0.1395
  968MOL0     H30672   5.507   6.206   7.824 -0.0192  0.1461  1.2570
  968MOL0     H30673   5.535   6.121   7.967  0.1610 -0.2578  1.1465
  968MOL0     H30674   5.369   5.943   7.902  0.0627  0.2980  1.9579
  968MOL0     H30675   5.312   6.101   7.900 -0.4085 -4.7920  3.5376
  968MOL0     H30676   5.278   6.006   7.488  1.5876  0.6836 -0.9476
  968MOL0     H30677   5.916   6.118   8.165 -1.4192  0.2867 -0.6981
  968MOL0     H30678   6.055   6.159   8.342  1.8496 -1.6973 -2.3406
  968MOL0     H30679   6.217   6.216   8.307  1.3187  1.6780  4.2554
  968MOL0     H30680   6.100   6.334   8.366  0.6189 -0.3567  0.4596
  969MOL0     O30681  10.627   4.074   7.255  0.5280 -0.0602 -0.2867
  969MOL0     C30682  10.633   3.974   7.319  0.5406 -0.5785 -0.1038
  969MOL0     O30683  10.727   3.947   7.397  0.3328 -0.4455 -0.1965
  969MOL0     C30684  10.810   4.042   7.450  0.6720 -1.1521  0.1493
  969MOL0     C30685  10.758   4.140   7.536 -0.4484  0.1920  0.4263
  969MOL0     C30686  10.846   4.238   7.586  0.9795 -0.5035  0.0352
  969MOL0     C30687  10.979   4.245   7.550  0.3529 -0.0512  0.6172
  969MOL0     O30688  11.072   4.329   7.606  0.2200 -0.4259  0.0472
  969MOL0     C30689  11.038   4.465   7.635  0.0304  0.2529  0.0516
  969MOL0     C30690  11.164   4.535   7.695  0.3455  0.6084 -0.5042
  969MOL0     C30691  11.292   4.471   7.655  0.5158 -0.0094 -0.3402
  969MOL0     C30692  11.405   4.568   7.705 -0.1983  0.1391  0.3334
  969MOL0     C30693  11.544   4.503   7.709 -0.0204 -0.0409  0.4714
  969MOL0     C30694  11.655   4.602   7.718  0.2342  0.1242 -0.6042
  969MOL0     C30695  11.798   4.568   7.703 -0.8352  0.4732 -0.0720
  969MOL0     C30696  11.846   4.485   7.826 -0.3327 -0.5606 -0.7499
  969MOL0     N30697  11.988   4.467   7.820 -0.2612  1.2120  0.2836
  969MOL0     C30698  12.073   4.558   7.771 -0.5753  0.3238  0.8434
  969MOL0     C30699  12.195   4.526   7.821  0.1347 -0.3576  0.3969
  969MOL0     C30700  12.322   4.604   7.789  0.2018 -0.3597  0.3994
  969MOL0     C30701  12.443   4.540   7.847  0.5542  0.4651  0.5074
  969MOL0     C30702  12.563   4.609   7.807 -0.5888  0.0360 -0.3015
  969MOL0     C30703  12.687   4.567   7.899  0.1224  0.1348 -0.1296
  969MOL0     O30704  12.685   4.662   8.011 -0.2322  0.6558 -0.2648
  969MOL0     C30705  12.804   4.661   8.085  0.1175 -1.3314  0.3982
  969MOL0     C30706  12.813   4.770   8.178  0.7200 -0.5288  0.7681
  969MOL0     C30707  12.914   4.779   8.268 -0.3149  0.4624  1.0600
  969MOL0     C30708  13.030   4.684   8.250  0.5254 -0.8518 -0.1506
  969MOL0     C30709  13.149   4.698   8.341  0.4740 -0.0296 -0.0219
  969MOL0     O30710  13.266   4.637   8.295 -0.1282  0.4227  0.6203
  969MOL0     C30711  13.388   4.647   8.361  0.0147 -0.7276  0.1199
  969MOL0     C30712  13.459   4.526   8.379 -1.0444 -0.0724 -0.5379
  969MOL0     C30713  13.597   4.527   8.408 -0.3049 -0.0904  0.1741
  969MOL0     C30714  13.664   4.648   8.436 -0.2265  0.9908 -0.4701
  969MOL0     O30715  13.799   4.651   8.466  0.3945  0.3012 -0.7041
  969MOL0     C30716  13.878   4.546   8.525 -0.4505  0.2316  0.0350
  969MOL0     C30717  14.012   4.604   8.573  0.6146  0.1624  0.0790
  969MOL0     C30718  14.086   4.507   8.651  0.0496  0.1853 -0.2506
  969MOL0     C30719  14.224   4.560   8.689 -0.3931  1.0466  0.5579
  969MOL0     C30720  14.299   4.439   8.739  0.2862 -0.1665  0.4274
  969MOL0     C30721  14.431   4.488   8.804  1.1261 -0.0025  0.0751
  969MOL0     C30722  14.495   4.365   8.857  0.5752  0.3669  0.1974
  969MOL0     C30723  14.625   4.398   8.926  0.3731  0.2543 -0.1954
  969MOL0    Cl30724  14.581   4.495   9.075 -0.1518  0.1026  0.2926
  969MOL0     C30725  13.584   4.762   8.426  0.5811  0.1536  0.8248
  969MOL0     C30726  13.454   4.765   8.382 -0.4155  0.7355  0.0787
  969MOL0     O30727  13.146   4.765   8.443  0.2271  0.0499 -0.6356
  969MOL0     C30728  13.024   4.585   8.150  0.5582  0.8273 -0.0631
  969MOL0     C30729  12.898   4.569   8.074 -0.8301 -0.1566  0.0268
  969MOL0     N30730  12.188   4.419   7.907  0.6111 -0.6354  0.2202
  969MOL0     N30731  12.058   4.384   7.903 -0.6450  0.0212  0.5859
  969MOL0     C30732  11.031   4.148   7.465  0.3976  0.3443  0.2409
  969MOL0     C30733  10.947   4.044   7.416 -0.4183 -0.1494 -0.0763
  969MOL0     C30734  10.517   3.880   7.304  0.0546  0.5514  0.1167
  969MOL0     C30735  10.537   3.744   7.329 -0.2886 -0.4864 -0.1399
  969MOL0     C30736  10.443   3.638   7.303 -0.3777 -0.7333 -0.1201
  969MOL0     C30737  10.311   3.679   7.270 -0.3194 -0.0790 -0.3289
  969MOL0     O30738  10.211   3.581   7.260 -0.2146  0.6005 -0.0038
  969MOL0     C30739  10.080   3.608   7.223 -0.0517 -0.8662  0.9242
  969MOL0     C30740   9.976   3.632   7.325  0.3204 -0.2054 -0.1484
  969MOL0     C30741   9.837   3.606   7.255  0.4624 -0.2461 -0.2398
  969MOL0     C30742   9.724   3.626   7.359 -0.8262 -0.5861  0.9557
  969MOL0     C30743   9.593   3.577   7.303  0.8658 -0.0632  0.1928
  969MOL0     C30744   9.495   3.537   7.241  0.0220  0.0632  0.3042
  969MOL0     C30745  10.287   3.817   7.256  0.1734 -0.6771  0.0347
  969MOL0     C30746  10.384   3.918   7.267 -0.1745 -0.3917  0.0147
  969MOL0     C30747  10.340   4.054   7.247  1.5436 -0.5127 -0.2764
  969MOL0     H30748  10.652   4.135   7.559 -0.6058 -1.0705 -0.4419
  969MOL0     H30749  10.809   4.309   7.660  1.7385 -2.1311  2.0622
  969MOL0     H30750  11.022   4.507   7.535  3.8138 -2.4297 -1.9532
  969MOL0     H30751  10.958   4.477   7.709  0.9201  2.2633  0.7494
  969MOL0     H30752  11.148   4.528   7.803 -1.5541  2.3023 -0.6177
  969MOL0     H30753  11.160   4.643   7.677  0.3394  0.9493  1.4095
  969MOL0     H30754  11.311   4.466   7.548 -2.7252  3.7459 -1.3317
  969MOL0     H30755  11.302   4.376   7.707 -3.0800  0.1487  0.9822
  969MOL0     H30756  11.406   4.649   7.631 -3.0248 -1.0816 -1.1965
  969MOL0     H30757  11.382   4.610   7.803  0.5527  2.4156 -0.3846
  969MOL0     H30758  11.544   4.430   7.790  2.1266 -0.1824  0.4230
  969MOL0     H30759  11.565   4.451   7.615 -0.4978  2.0159 -0.8363
  969MOL0     H30760  11.640   4.669   7.633 -1.6736  1.5567  0.7836
  969MOL0     H30761  11.647   4.659   7.811  0.7128  0.6790 -0.9011
  969MOL0     H30762  11.836   4.671   7.707 -1.2340  0.5966  0.7558
  969MOL0     H30763  11.828   4.511   7.615 -0.1742 -0.5089  0.7682
  969MOL0     H30764  11.826   4.525   7.926  1.7157 -1.2497 -0.0166
  969MOL0     H30765  11.794   4.389   7.830 -1.4611  0.0770  1.0802
  969MOL0     H30766  12.064   4.647   7.709 -0.0463  1.6554  2.6028
  969MOL0     H30767  12.331   4.607   7.680 -0.1974  0.3539  0.3844
  969MOL0     H30768  12.314   4.708   7.821 -1.2645 -1.2927  3.3905
  969MOL0     H30769  12.433   4.545   7.956 -0.6795  2.3304  0.3509
  969MOL0     H30770  12.457   4.435   7.819  3.3088  0.6801  0.7891
  969MOL0     H30771  12.560   4.717   7.825  1.2465 -0.0737  0.9060
  969MOL0     H30772  12.580   4.591   7.701 -0.1295 -1.4238  0.0035
  969MOL0     H30773  12.773   4.572   7.831  2.0239  0.3960  2.1697
  969MOL0     H30774  12.665   4.467   7.935  1.4520 -0.3976 -0.7286
  969MOL0     H30775  12.736   4.845   8.164  2.0986  0.6944 -0.6999
  969MOL0     H30776  12.902   4.862   8.336 -2.1989  1.2925 -0.1870
  969MOL0     H30777  13.427   4.428   8.347 -1.6620  0.2310 -0.8729
  969MOL0     H30778  13.641   4.427   8.412 -3.2250 -1.5018 -0.2404
  969MOL0     H30779  13.827   4.505   8.613 -0.2881  0.0957  0.0663
  969MOL0     H30780  13.900   4.466   8.454  2.7894  1.9237 -1.1130
  969MOL0     H30781  14.070   4.633   8.485  2.6522 -1.9404  0.5966
  969MOL0     H30782  13.989   4.689   8.638  0.4650 -0.7240  1.2166
  969MOL0     H30783  14.032   4.478   8.742 -0.7175 -0.3728 -0.8697
  969MOL0     H30784  14.088   4.417   8.589 -1.7238 -1.0710  1.3914
  969MOL0     H30785  14.216   4.636   8.767  0.0510  2.5803 -0.8417
  969MOL0     H30786  14.263   4.607   8.599  0.8355  0.7317  0.9045
  969MOL0     H30787  14.309   4.377   8.650  2.1926  1.3513 -0.4789
  969MOL0     H30788  14.241   4.381   8.811 -2.7897 -0.7239 -2.2699
  969MOL0     H30789  14.496   4.527   8.725 -0.3636 -0.5866 -1.4983
  969MOL0     H30790  14.416   4.566   8.880 -3.8446 -0.2293 -0.3766
  969MOL0     H30791  14.509   4.290   8.778  4.1351  1.9039 -0.8384
  969MOL0     H30792  14.423   4.321   8.927  1.8630 -4.1584 -0.9434
  969MOL0     H30793  14.665   4.300   8.955  0.5763  0.1837 -0.6943
  969MOL0     H30794  14.686   4.451   8.852  0.1321 -2.2504 -2.3602
  969MOL0     H30795  13.625   4.862   8.438  2.3915 -0.2217 -1.5254
  969MOL0     H30796  13.399   4.858   8.378 -0.2805  0.8115 -3.7109
  969MOL0     H30797  13.113   4.525   8.135 -0.1408 -0.4075  0.6281
  969MOL0     H30798  12.897   4.486   8.005 -0.7335 -0.2404  0.1255
  969MOL0     H30799  11.136   4.153   7.438  1.4014  4.7353  3.5924
  969MOL0     H30800  10.997   3.968   7.358  1.7044  0.4248  0.8829
  969MOL0     H30801  10.628   3.701   7.371 -1.1768 -3.1346 -0.7165
  969MOL0     H30802  10.469   3.535   7.326  0.5197 -0.3770  0.5058
  969MOL0     H30803  10.068   3.513   7.170  1.6409 -0.2055 -0.7773
  969MOL0     H30804  10.066   3.680   7.141 -0.5926 -0.4110  1.4108
  969MOL0     H30805   9.978   3.734   7.363 -0.3755 -0.5578  0.8793
  969MOL0     H30806   9.992   3.560   7.406 -3.6379 -1.1079  0.0541
  969MOL0     H30807   9.823   3.514   7.197 -5.1361  0.2083 -0.1712
  969MOL0     H30808   9.815   3.677   7.174 -0.8268 -0.0973  0.2191
  969MOL0     H30809   9.745   3.566   7.449  3.2249  0.5001  0.8864
  969MOL0     H30810   9.715   3.729   7.393 -0.4722 -0.1827 -0.1426
  969MOL0     H30811   9.403   3.506   7.197  0.6935 -2.2661  0.4316
  969MOL0     H30812  10.189   3.844   7.220  0.7577 -1.3076 -2.1569
  969MOL0     H30813  10.366   4.105   7.153 -0.6188  0.4945 -0.3788
  969MOL0     H30814  10.233   4.057   7.268  1.4049 -0.7564 -0.9254
  969MOL0     H30815  10.390   4.113   7.324 -0.2057  0.3493  0.2429
  970MOL0     O30816   5.092   0.412   2.990 -0.4530 -0.2126  0.5493
  970MOL0     C30817   4.999   0.424   3.074 -0.9002 -0.1767  0.2434
  970MOL0     O30818   5.019   0.407   3.206  0.4422  0.7127 -0.2636
  970MOL0     C30819   5.145   0.399   3.253 -0.8734  0.3093 -0.1910
  970MOL0     C30820   5.225   0.283   3.234 -0.2961  0.9943 -0.7654
  970MOL0     C30821   5.357   0.278   3.288 -0.7354  0.4430 -0.0313
  970MOL0     C30822   5.414   0.392   3.350  0.4221  0.2047  0.5305
  970MOL0     O30823   5.534   0.399   3.411  0.1328 -0.2455  0.5657
  970MOL0     C30824   5.635   0.315   3.347  1.0500 -0.3217 -0.6254
  970MOL0     C30825   5.771   0.370   3.388  0.6967 -0.4666 -0.1608
  970MOL0     C30826   5.905   0.327   3.328 -0.0988 -0.3460 -0.5044
  970MOL0     C30827   6.033   0.349   3.418 -0.0760 -0.7712 -0.1615
  970MOL0     C30828   6.157   0.280   3.369 -0.6243 -0.0249 -0.1837
  970MOL0     C30829   6.276   0.296   3.455 -1.2949  0.5206  0.2625
  970MOL0     C30830   6.387   0.183   3.433  0.2473 -0.4618 -0.2993
  970MOL0     C30831   6.381   0.079   3.551  0.6125 -0.5579  0.2738
  970MOL0     N30832   6.491  -0.022   3.531 -0.1350  0.0557  0.4617
  970MOL0     C30833   6.624  -0.019   3.576  0.2073 -0.1178 -0.2268
  970MOL0     C30834   6.684  -0.120   3.510 -0.4856  0.9931  1.4003
  970MOL0     C30835   6.835  -0.154   3.516  0.4806  0.0946  0.0607
  970MOL0     C30836   6.855  -0.308   3.498 -0.5888 -0.7624  0.0411
  970MOL0     C30837   6.980  -0.353   3.563 -0.1858 -0.1936  0.0228
  970MOL0     C30838   7.108  -0.312   3.479 -0.0268  0.8738  0.2738
  970MOL0     O30839   7.153  -0.441   3.423 -0.3488 -0.0361 -0.1236
  970MOL0     C30840   7.251  -0.514   3.484  0.2641  0.6329 -0.3323
  970MOL0     C30841   7.296  -0.491   3.617  0.1073  0.4034  0.7460
  970MOL0     C30842   7.403  -0.581   3.664 -0.8786  0.0670 -0.1968
  970MOL0     C30843   7.460  -0.680   3.586  0.8995  0.5444  0.4944
  970MOL0     C30844   7.573  -0.750   3.634  0.3077 -0.4522 -0.9559
  970MOL0     O30845   7.628  -0.856   3.563 -0.1957 -0.6474  0.0382
  970MOL0     C30846   7.758  -0.902   3.584 -0.1192 -0.0482 -0.4257
  970MOL0     C30847   7.821  -0.931   3.707  0.0440 -0.0612  0.6837
  970MOL0     C30848   7.944  -0.996   3.713 -0.9714 -0.1289  0.0102
  970MOL0     C30849   8.003  -1.054   3.593  0.4975  0.0330 -1.0305
  970MOL0     O30850   8.125  -1.116   3.588  0.7065  0.4128  0.2889
  970MOL0     C30851   8.199  -1.159   3.702  0.4613 -0.1163  0.5304
  970MOL0     C30852   8.344  -1.196   3.664  0.1503  0.7599  0.2387
  970MOL0     C30853   8.427  -1.094   3.592 -0.1990 -0.1821  0.1216
  970MOL0     C30854   8.493  -0.993   3.689  0.6058 -0.4796 -0.0114
  970MOL0     C30855   8.587  -0.891   3.619 -0.4942 -0.8351  0.0391
  970MOL0     C30856   8.711  -0.860   3.712 -0.3541  0.3511 -0.0511
  970MOL0     C30857   8.782  -0.729   3.671 -0.6266  0.7918 -0.1312
  970MOL0     C30858   8.728  -0.598   3.728  0.7333  0.3317 -0.3680
  970MOL0    Cl30859   8.723  -0.603   3.906 -0.5206  0.1208  0.1055
  970MOL0     C30860   7.932  -1.035   3.476  0.1544  0.2669  0.1459
  970MOL0     C30861   7.814  -0.963   3.471  0.2924  0.3891  0.2665
  970MOL0     O30862   7.601  -0.730   3.752 -0.2966 -0.2098 -0.2904
  970MOL0     C30863   7.404  -0.700   3.460  0.5680  0.4600 -0.2463
  970MOL0     C30864   7.304  -0.622   3.404  0.2690 -0.1420  0.4023
  970MOL0     N30865   6.594  -0.187   3.429 -0.7195  0.1550  1.2138
  970MOL0     N30866   6.475  -0.131   3.444 -0.5990  0.1019  0.4299
  970MOL0     C30867   5.326   0.500   3.384 -0.1632  0.4617 -0.2356
  970MOL0     C30868   5.196   0.505   3.331  0.2862  0.3364 -0.4078
  970MOL0     C30869   4.858   0.435   3.033 -0.9457  0.5922  0.1339
  970MOL0     C30870   4.835   0.417   2.893 -0.2515  0.3175 -0.9301
  970MOL0     C30871   4.709   0.423   2.835 -0.0770  0.1157 -0.5326
  970MOL0     C30872   4.601   0.451   2.916  0.3081  0.4724  0.1468
  970MOL0     O30873   4.479   0.443   2.847 -0.5134  0.2981 -0.4460
  970MOL0     C30874   4.368   0.484   2.929  0.3869 -0.6849 -0.4011
  970MOL0     C30875   4.241   0.467   2.848  0.0523  0.8672 -0.2197
  970MOL0     C30876   4.227   0.552   2.726  0.4024  0.3213  0.5830
  970MOL0     C30877   4.114   0.516   2.628  0.3849  0.7903  0.4364
  970MOL0     C30878   3.987   0.481   2.699 -0.3044  0.2010 -0.5062
  970MOL0     C30879   3.885   0.440   2.752  0.2515  0.2321 -0.9227
  970MOL0     C30880   4.624   0.476   3.057 -0.0029 -0.7451 -1.1726
  970MOL0     C30881   4.750   0.465   3.116 -0.5916 -0.0704  0.8549
  970MOL0     C30882   4.766   0.507   3.262 -0.1030 -0.0033 -0.3632
  970MOL0     H30883   5.185   0.193   3.190 -1.0282  0.6639  0.5200
  970MOL0     H30884   5.411   0.185   3.273  0.1041  1.0625 -0.9867
  970MOL0     H30885   5.621   0.213   3.383  1.3120 -0.7183 -1.6252
  970MOL0     H30886   5.632   0.320   3.238  0.2886  0.2459 -0.5861
  970MOL0     H30887   5.778   0.355   3.496 -1.9863 -0.2840  0.1084
  970MOL0     H30888   5.781   0.478   3.383  2.3170 -0.4981  1.5441
  970MOL0     H30889   5.924   0.388   3.239  1.3684  0.4269  0.2900
  970MOL0     H30890   5.900   0.224   3.293 -3.2439  0.3136 -2.2914
  970MOL0     H30891   6.050   0.454   3.392 -0.5634 -0.6709 -0.0798
  970MOL0     H30892   6.017   0.324   3.523 -1.5496  0.4430 -0.0662
  970MOL0     H30893   6.129   0.174   3.361  0.1658 -0.3976  1.5826
  970MOL0     H30894   6.178   0.315   3.267 -1.4449 -0.8938 -0.6693
  970MOL0     H30895   6.329   0.386   3.424  0.7868 -0.3029  1.2797
  970MOL0     H30896   6.246   0.306   3.560  0.0564  1.3584  0.5969
  970MOL0     H30897   6.484   0.232   3.440 -0.2221  0.3833  0.6493
  970MOL0     H30898   6.375   0.129   3.339  1.8608 -1.4927  0.0430
  970MOL0     H30899   6.407   0.130   3.644  3.3071 -0.2763 -0.5409
  970MOL0     H30900   6.286   0.025   3.551 -0.2348  0.8979  0.9074
  970MOL0     H30901   6.664   0.054   3.645  1.1908  0.3595 -1.2736
  970MOL0     H30902   6.888  -0.103   3.434 -1.7327 -0.0502 -1.5576
  970MOL0     H30903   6.864  -0.119   3.615 -2.1913  0.6236  0.7498
  970MOL0     H30904   6.779  -0.370   3.547  0.8071 -2.1351  0.5292
  970MOL0     H30905   6.854  -0.317   3.389  0.5595 -1.2951  0.0609
  970MOL0     H30906   6.976  -0.462   3.570  1.4060 -0.2158  1.2085
  970MOL0     H30907   6.996  -0.315   3.665  0.0015  3.3229 -1.2056
  970MOL0     H30908   7.189  -0.257   3.527  0.9139 -0.6071  0.4406
  970MOL0     H30909   7.077  -0.247   3.397  0.1227 -1.9385 -2.1902
  970MOL0     H30910   7.255  -0.406   3.669  0.6543  1.6181 -0.7400
  970MOL0     H30911   7.431  -0.560   3.767  0.4464  1.5659 -0.8327
  970MOL0     H30912   7.782  -0.882   3.796 -0.5421 -1.0373  0.9711
  970MOL0     H30913   7.991  -1.012   3.809 -0.8984  0.2506  0.0392
  970MOL0     H30914   8.191  -1.085   3.782  2.1251 -0.9726  1.5414
  970MOL0     H30915   8.148  -1.249   3.737  2.2709 -1.2082  0.4678
  970MOL0     H30916   8.403  -1.214   3.755  2.7063  2.5335 -0.9648
  970MOL0     H30917   8.338  -1.287   3.604  2.6127 -1.3929  2.9461
  970MOL0     H30918   8.509  -1.141   3.536 -0.2203  0.9116 -0.8904
  970MOL0     H30919   8.367  -1.046   3.513 -0.1874 -1.8049 -0.9191
  970MOL0     H30920   8.543  -1.046   3.771  0.4549 -0.7054 -0.0634
  970MOL0     H30921   8.409  -0.936   3.729  0.3945 -1.0125  0.3262
  970MOL0     H30922   8.543  -0.791   3.604  0.7670 -0.1730  0.6184
  970MOL0     H30923   8.620  -0.920   3.519 -2.0705 -1.1703 -0.4130
  970MOL0     H30924   8.669  -0.858   3.813  0.5332 -0.4997  0.3500
  970MOL0     H30925   8.772  -0.951   3.719 -1.3043 -0.3493 -0.6301
  970MOL0     H30926   8.810  -0.724   3.566  0.5775 -1.3658  0.0452
  970MOL0     H30927   8.878  -0.747   3.719 -1.3732 -1.4245  0.6569
  970MOL0     H30928   8.795  -0.523   3.685  1.6313 -0.2593 -0.0336
  970MOL0     H30929   8.624  -0.589   3.694  1.0185  0.4110 -1.2325
  970MOL0     H30930   7.962  -1.079   3.382  0.4585  0.2737  0.2400
  970MOL0     H30931   7.763  -0.949   3.377  1.7541  0.7094 -0.5019
  970MOL0     H30932   7.457  -0.774   3.401  0.0271 -0.3677  0.2767
  970MOL0     H30933   7.268  -0.649   3.306  0.9635 -1.8937  0.5946
  970MOL0     H30934   5.360   0.596   3.421 -0.9952  1.6881 -2.4477
  970MOL0     H30935   5.126   0.587   3.341  0.2476  0.1685  0.9300
  970MOL0     H30936   4.918   0.399   2.825 -2.0278  1.0381 -3.4226
  970MOL0     H30937   4.693   0.402   2.730 -0.4478 -3.6829  0.1346
  970MOL0     H30938   4.370   0.589   2.960  1.1262 -0.3996 -1.3736
  970MOL0     H30939   4.350   0.435   3.025 -1.7258  1.0018  0.1511
  970MOL0     H30940   4.155   0.468   2.915  1.1440 -2.0860  1.4297
  970MOL0     H30941   4.258   0.364   2.815 -0.1082  1.2870 -1.6867
  970MOL0     H30942   4.322   0.557   2.671 -0.7535  0.4984 -1.5167
  970MOL0     H30943   4.212   0.649   2.774 -1.8097 -0.3295  1.3411
  970MOL0     H30944   4.106   0.591   2.549  1.7319 -0.9901 -1.5032
  970MOL0     H30945   4.148   0.432   2.566  1.0885  0.4194  1.3090
  970MOL0     H30946   3.793   0.408   2.797 -1.4569  3.4117 -1.8350
  970MOL0     H30947   4.535   0.494   3.116 -0.3816 -4.1792 -0.4987
  970MOL0     H30948   4.672   0.526   3.314 -0.4375  0.7326 -1.2159
  970MOL0     H30949   4.812   0.419   3.308  1.9609 -0.4161 -2.9630
  970MOL0     H30950   4.831   0.594   3.275 -0.4728  0.3742 -1.0132
  971MOL0     O30951   5.793   1.575   2.368 -0.3638  0.4960  0.4225
  971MOL0     C30952   5.755   1.491   2.452  0.2162 -1.2813  0.9594
  971MOL0     O30953   5.836   1.417   2.526  0.3214 -0.1876  0.3466
  971MOL0     C30954   5.974   1.432   2.499  0.0736  0.1394  0.4202
  971MOL0     C30955   6.055   1.481   2.599 -0.0251  0.1920 -0.1906
  971MOL0     C30956   6.194   1.497   2.588 -0.4845 -0.4220  0.1332
  971MOL0     C30957   6.255   1.463   2.465 -0.3995  0.1548 -0.0264
  971MOL0     O30958   6.376   1.499   2.434 -0.3909 -0.0554  0.0088
  971MOL0     C30959   6.480   1.534   2.532  0.4021 -0.8054 -0.0405
  971MOL0     C30960   6.614   1.555   2.460  0.1773  0.7596 -0.3024
  971MOL0     C30961   6.720   1.621   2.549  0.2857  0.6991  0.6214
  971MOL0     C30962   6.748   1.773   2.533  0.0562 -0.2537  0.0040
  971MOL0     C30963   6.866   1.832   2.609 -0.0887 -0.2106  0.1100
  971MOL0     C30964   6.992   1.780   2.555 -0.7358 -0.7318  0.4611
  971MOL0     C30965   7.117   1.879   2.592 -0.1601  0.5834  0.7575
  971MOL0     C30966   7.181   1.862   2.731 -0.5012  0.2950 -1.1328
  971MOL0     N30967   7.317   1.909   2.742 -0.0410 -0.1067 -0.2295
  971MOL0     C30968   7.411   1.919   2.638 -0.1191  0.3537  0.8328
  971MOL0     C30969   7.523   1.937   2.706  1.2922  0.3564  0.6099
  971MOL0     C30970   7.668   1.936   2.669 -1.0121  0.2446  0.2486
  971MOL0     C30971   7.709   1.797   2.618 -0.4561  0.0612 -0.5652
  971MOL0     C30972   7.855   1.771   2.578 -0.4280 -0.0671 -0.7152
  971MOL0     C30973   7.966   1.799   2.683  0.0780 -0.1365  0.1173
  971MOL0     O30974   8.092   1.761   2.630  0.1161 -0.3760 -0.0214
  971MOL0     C30975   8.202   1.798   2.701 -0.4602 -0.4542 -0.0984
  971MOL0     C30976   8.326   1.775   2.633  0.2253  0.0010 -0.1381
  971MOL0     C30977   8.440   1.833   2.694 -0.0153 -0.1902  0.1982
  971MOL0     C30978   8.447   1.904   2.813  0.2281  0.3054 -0.0821
  971MOL0     C30979   8.563   1.963   2.868 -0.2448 -0.0313 -0.5173
  971MOL0     O30980   8.557   2.024   2.989 -0.1821 -0.5898 -0.7312
  971MOL0     C30981   8.658   2.108   3.021 -0.1714 -0.9486 -0.2534
  971MOL0     C30982   8.618   2.240   3.047  0.5356  0.7493  0.3526
  971MOL0     C30983   8.710   2.329   3.102  0.0218  0.1506  0.2511
  971MOL0     C30984   8.837   2.289   3.145 -0.5763  0.5146  0.2295
  971MOL0     O30985   8.927   2.377   3.202  0.0078  0.0126  0.1889
  971MOL0     C30986   9.062   2.336   3.236  0.1609 -0.9912  0.3072
  971MOL0     C30987   9.151   2.449   3.289  0.4439 -0.6147  0.0030
  971MOL0     C30988   9.244   2.403   3.395  0.0487  0.1491 -0.4217
  971MOL0     C30989   9.355   2.507   3.425 -0.6424  0.2923 -0.2468
  971MOL0     C30990   9.455   2.451   3.517 -0.1617 -0.0494  0.7076
  971MOL0     C30991   9.553   2.556   3.580  0.2778 -0.0743  0.3129
  971MOL0     C30992   9.501   2.655   3.685 -0.2823  0.6911  0.7517
  971MOL0     C30993   9.609   2.754   3.719  0.1864  0.7514  0.1490
  971MOL0    Cl30994   9.751   2.670   3.790  0.2722  0.1872 -0.1746
  971MOL0     C30995   8.870   2.155   3.132 -0.2983  0.2207  0.0783
  971MOL0     C30996   8.784   2.058   3.071  0.5623 -0.6783 -0.5029
  971MOL0     O30997   8.655   1.970   2.790 -0.1964  0.0719 -0.6129
  971MOL0     C30998   8.324   1.918   2.876 -0.3127 -1.2699 -0.2454
  971MOL0     C30999   8.207   1.868   2.827  0.4277  0.0281 -0.0766
  971MOL0     N31000   7.500   1.949   2.842  0.5038  0.6086  0.4349
  971MOL0     N31001   7.377   1.930   2.863 -0.2157  0.0868 -0.0638
  971MOL0     C31002   6.175   1.409   2.366  0.2658  0.1467 -0.1947
  971MOL0     C31003   6.039   1.400   2.383  0.1417  1.2399 -0.0191
  971MOL0     C31004   5.610   1.481   2.477  0.5913 -0.6831 -0.0052
  971MOL0     C31005   5.546   1.497   2.603  0.1688  0.5516  0.7707
  971MOL0     C31006   5.409   1.495   2.624 -0.3249 -0.3583 -1.2174
  971MOL0     C31007   5.321   1.473   2.513 -0.6718 -0.1543 -0.8709
  971MOL0     O31008   5.184   1.478   2.513 -0.1351 -0.0485 -0.2220
  971MOL0     C31009   5.119   1.494   2.632  0.6921 -0.9776 -1.1139
  971MOL0     C31010   4.969   1.505   2.601 -0.1997  0.6847 -0.1391
  971MOL0     C31011   4.908   1.370   2.639 -0.8368  0.0773  0.4509
  971MOL0     C31012   4.949   1.242   2.546 -0.1012 -1.3042 -0.0037
  971MOL0     C31013   4.841   1.135   2.570  0.3988  0.1618 -0.3511
  971MOL0     C31014   4.771   1.033   2.592  0.4104  0.2060 -0.3899
  971MOL0     C31015   5.385   1.451   2.388  0.3761  0.0520  0.4137
  971MOL0     C31016   5.525   1.449   2.361 -0.5975 -0.4168  0.4882
  971MOL0     C31017   5.579   1.431   2.225 -0.6900 -0.1723  0.2870
  971MOL0     H31018   6.015   1.509   2.696 -1.0913  1.3690 -0.9252
  971MOL0     H31019   6.243   1.527   2.680  0.6317  1.2482 -0.9538
  971MOL0     H31020   6.452   1.627   2.582 -1.2525 -0.1987 -1.9724
  971MOL0     H31021   6.487   1.460   2.613 -1.4200 -0.5631  0.3997
  971MOL0     H31022   6.592   1.616   2.371 -1.5875  0.3472 -0.1795
  971MOL0     H31023   6.653   1.457   2.432  1.8638  0.3747  2.9431
  971MOL0     H31024   6.811   1.573   2.510 -1.4211 -0.9529 -1.5245
  971MOL0     H31025   6.717   1.602   2.657  0.7830 -0.8332  0.3964
  971MOL0     H31026   6.750   1.805   2.428  0.5844  2.4802  0.7777
  971MOL0     H31027   6.662   1.830   2.570  0.0980  1.4322 -2.2791
  971MOL0     H31028   6.865   1.941   2.599  1.4673 -0.2758 -1.1912
  971MOL0     H31029   6.867   1.830   2.718 -0.7357  0.6653  0.1420
  971MOL0     H31030   6.989   1.682   2.604 -1.5637  0.9259  4.0560
  971MOL0     H31031   6.982   1.767   2.447 -2.5734 -1.6320  0.7005
  971MOL0     H31032   7.094   1.985   2.576  5.4074  2.1856  1.2210
  971MOL0     H31033   7.199   1.843   2.530  0.7073 -0.1084  2.2573
  971MOL0     H31034   7.123   1.922   2.802  3.0735  1.0754  1.3695
  971MOL0     H31035   7.184   1.757   2.761 -0.3866 -0.0681 -2.3729
  971MOL0     H31036   7.400   1.913   2.530 -2.4353  1.9584  0.8995
  971MOL0     H31037   7.685   2.017   2.598  1.6895 -0.2038  0.2797
  971MOL0     H31038   7.733   1.961   2.754 -1.3158  1.5122  0.1283
  971MOL0     H31039   7.676   1.726   2.695  0.3420  0.0673 -0.2059
  971MOL0     H31040   7.654   1.772   2.527 -0.6157  0.4831 -0.5875
  971MOL0     H31041   7.873   1.820   2.482  3.5534  0.5063  0.1711
  971MOL0     H31042   7.864   1.665   2.555 -0.6406 -0.2104 -0.1657
  971MOL0     H31043   7.940   1.748   2.777  1.6008 -3.7642 -1.2338
  971MOL0     H31044   7.964   1.907   2.700  0.6251 -0.2075  0.6431
  971MOL0     H31045   8.333   1.737   2.532 -3.3899  0.9848 -0.8813
  971MOL0     H31046   8.528   1.835   2.630  1.4029  1.6052  2.0398
  971MOL0     H31047   8.517   2.274   3.028  0.4593  0.6582  0.5913
  971MOL0     H31048   8.685   2.434   3.105  1.9302  0.6848 -0.6239
  971MOL0     H31049   9.057   2.255   3.309 -1.1128 -0.8011  0.4425
  971MOL0     H31050   9.115   2.296   3.149  2.3942 -1.4206  1.7707
  971MOL0     H31051   9.207   2.494   3.206 -0.4402  0.4067 -0.0740
  971MOL0     H31052   9.090   2.535   3.319  1.7742  0.5435 -0.5091
  971MOL0     H31053   9.184   2.402   3.486  0.0159 -0.9921 -0.4474
  971MOL0     H31054   9.294   2.309   3.370 -0.7897 -0.2141 -0.7394
  971MOL0     H31055   9.310   2.597   3.469 -0.1314  0.4733 -0.0837
  971MOL0     H31056   9.411   2.537   3.336  1.1865 -0.3109  0.6536
  971MOL0     H31057   9.516   2.371   3.475 -3.3723 -2.6285  0.5432
  971MOL0     H31058   9.407   2.407   3.605 -0.3030  0.4271  0.8703
  971MOL0     H31059   9.632   2.495   3.624  0.2412 -0.8740 -0.6815
  971MOL0     H31060   9.611   2.604   3.500  1.8314 -1.8851  0.2856
  971MOL0     H31061   9.460   2.604   3.773 -2.9732  2.6151  0.7179
  971MOL0     H31062   9.424   2.718   3.640  0.7220  0.7380 -0.9893
  971MOL0     H31063   9.647   2.807   3.631  0.7573 -3.3007 -2.2915
  971MOL0     H31064   9.567   2.831   3.783  0.1567 -1.0888  2.4712
  971MOL0     H31065   8.964   2.116   3.169  2.2429  4.4101 -1.3083
  971MOL0     H31066   8.816   1.954   3.065 -2.9493 -1.9376 -0.0273
  971MOL0     H31067   8.316   1.968   2.972  0.7714 -0.7770 -0.3998
  971MOL0     H31068   8.117   1.874   2.887  0.7981 -2.5412  0.8623
  971MOL0     H31069   6.210   1.383   2.266  1.0032 -1.2306  0.3796
  971MOL0     H31070   5.981   1.375   2.294  1.4750  2.3977 -1.2672
  971MOL0     H31071   5.606   1.525   2.689 -0.5812  1.3005  1.0650
  971MOL0     H31072   5.373   1.506   2.726  2.0371  0.8872 -0.4374
  971MOL0     H31073   5.149   1.588   2.681 -1.4475 -0.8406  0.0389
  971MOL0     H31074   5.148   1.418   2.705 -0.3155 -0.5806 -0.2619
  971MOL0     H31075   4.950   1.540   2.499 -0.1294  2.8416  0.5427
  971MOL0     H31076   4.926   1.580   2.668  1.8092  1.9635 -0.1795
  971MOL0     H31077   4.800   1.379   2.628 -0.7257  0.4731 -0.4516
  971MOL0     H31078   4.918   1.345   2.745 -2.6480  1.3696  0.9647
  971MOL0     H31079   4.950   1.265   2.439 -0.8267 -1.5884 -0.0749
  971MOL0     H31080   5.051   1.215   2.575 -0.0607 -0.7055  0.4387
  971MOL0     H31081   4.718   0.941   2.612 -0.3119  0.5736 -0.5776
  971MOL0     H31082   5.310   1.437   2.312 -0.1237 -0.1587  0.9391
  971MOL0     H31083   5.679   1.387   2.216 -2.5003 -4.2803 -3.2972
  971MOL0     H31084   5.513   1.364   2.169 -0.8196  0.4094 -0.2798
  971MOL0     H31085   5.574   1.524   2.166  0.1837 -0.5555 -0.4135
  972MOL0     O31086   9.553   7.687   0.247  0.0223 -0.5451  0.7931
  972MOL0     C31087   9.481   7.626   0.177  0.8174  0.3198  0.1277
  972MOL0     O31088   9.507   7.600   0.040  0.0040 -0.4920 -0.3813
  972MOL0     C31089   9.612   7.677  -0.019  0.7516 -0.2259 -1.1075
  972MOL0     C31090   9.708   7.615  -0.100  0.4734 -0.4457 -0.8270
  972MOL0     C31091   9.806   7.697  -0.152 -0.5870  0.8045  0.3071
  972MOL0     C31092   9.807   7.839  -0.139 -0.1229 -0.2016 -0.3800
  972MOL0     O31093   9.899   7.920  -0.195  0.1137 -0.1802 -0.1894
  972MOL0     C31094   9.951   8.034  -0.118 -0.3072 -0.1985  0.0743
  972MOL0     C31095  10.053   8.116  -0.194 -0.3780  0.6024 -0.2546
  972MOL0     C31096  10.169   8.034  -0.237 -0.6742 -0.0645 -0.1396
  972MOL0     C31097  10.297   8.122  -0.262  0.2510  0.7930 -0.4346
  972MOL0     C31098  10.402   8.039  -0.337 -0.2955  0.2222  0.3357
  972MOL0     C31099  10.518   8.125  -0.379  0.1358  0.2444  0.4268
  972MOL0     C31100  10.620   8.051  -0.470 -0.6349 -0.0953  0.4690
  972MOL0     C31101  10.729   8.152  -0.507 -0.2751 -0.0529  0.1709
  972MOL0     N31102  10.807   8.189  -0.385 -0.4520 -0.0911 -0.6554
  972MOL0     C31103  10.890   8.111  -0.307 -0.0483 -0.7895 -0.4268
  972MOL0     C31104  10.934   8.182  -0.205  1.3000 -0.4140  0.0860
  972MOL0     C31105  11.064   8.126  -0.132  0.9817 -0.7659 -0.3047
  972MOL0     C31106  11.017   8.072   0.002 -0.5174 -0.0461  0.1211
  972MOL0     C31107  11.110   7.957   0.051  0.0033 -0.7137 -0.0461
  972MOL0     C31108  11.259   7.994   0.061 -0.3351  0.2233  0.0456
  972MOL0     O31109  11.320   8.014  -0.067  1.1007  0.1963 -0.1211
  972MOL0     C31110  11.436   8.077  -0.083  0.0375 -0.0194 -0.2455
  972MOL0     C31111  11.541   8.084   0.012 -0.2153  0.3692  0.1831
  972MOL0     C31112  11.661   8.131  -0.012 -0.1181  0.0800  0.4604
  972MOL0     C31113  11.693   8.166  -0.145 -0.2251 -0.0982 -0.9480
  972MOL0     C31114  11.834   8.208  -0.175  0.4794 -0.5620  0.0560
  972MOL0     O31115  11.929   8.160  -0.092  0.1649 -0.0021  0.2623
  972MOL0     C31116  12.058   8.203  -0.109 -0.1300  0.4084  0.8815
  972MOL0     C31117  12.096   8.339  -0.097  0.0280 -1.3057  0.6982
  972MOL0     C31118  12.234   8.369  -0.100  0.1615  0.0984  0.5520
  972MOL0     C31119  12.332   8.268  -0.119 -0.1157  0.6994 -0.6723
  972MOL0     O31120  12.467   8.286  -0.149  0.2287 -0.3409  0.5055
  972MOL0     C31121  12.527   8.355  -0.044 -0.9336 -0.4208 -0.1043
  972MOL0     C31122  12.681   8.317  -0.036 -0.3284 -0.8668 -0.1049
  972MOL0     C31123  12.762   8.409   0.054  0.4086 -0.9108 -0.3164
  972MOL0     C31124  12.904   8.348   0.057 -1.0557  0.9370 -0.3998
  972MOL0     C31125  13.000   8.431   0.150 -0.7336 -0.3290  0.9089
  972MOL0     C31126  13.149   8.392   0.123  0.8803 -0.2372 -0.4521
  972MOL0     C31127  13.257   8.489   0.191  0.1696  0.0198 -0.5280
  972MOL0     C31128  13.396   8.461   0.131  0.5551 -0.4816 -0.0425
  972MOL0    Cl31129  13.499   8.593   0.186 -0.0423  0.1090 -0.1795
  972MOL0     C31130  12.287   8.139  -0.140 -0.6050 -0.0252  1.0759
  972MOL0     C31131  12.155   8.100  -0.133 -1.1588  0.0616  0.7133
  972MOL0     O31132  11.849   8.282  -0.268 -0.0023  0.1888 -0.2573
  972MOL0     C31133  11.594   8.165  -0.245 -0.1327 -0.1847  0.2210
  972MOL0     C31134  11.465   8.122  -0.215  0.1117  0.8224 -0.0848
  972MOL0     N31135  10.870   8.308  -0.221 -1.0487 -0.0297  0.1393
  972MOL0     N31136  10.813   8.317  -0.335  0.3524  0.0538 -0.3033
  972MOL0     C31137   9.703   7.894  -0.061 -0.3577 -0.0836 -0.0851
  972MOL0     C31138   9.612   7.811  -0.004  0.0307  0.7523  0.4469
  972MOL0     C31139   9.357   7.575   0.227  0.0589 -0.0577  0.1310
  972MOL0     C31140   9.244   7.618   0.155  0.2497  0.4966  0.1984
  972MOL0     C31141   9.112   7.603   0.201 -0.6521 -0.6399  0.7325
  972MOL0     C31142   9.090   7.530   0.320 -0.7591  0.4909  0.4020
  972MOL0     O31143   8.971   7.498   0.369 -0.1475 -0.2569 -0.3323
  972MOL0     C31144   8.852   7.534   0.294  0.0076  0.3989  0.0704
  972MOL0     C31145   8.740   7.463   0.360  1.4581  0.4481 -0.0948
  972MOL0     C31146   8.593   7.487   0.319 -0.2903  0.3518  0.5419
  972MOL0     C31147   8.552   7.630   0.289  0.3599  0.2110 -0.9399
  972MOL0     C31148   8.406   7.639   0.282  0.0919 -0.4678 -0.0257
  972MOL0     C31149   8.293   7.672   0.294  0.0547  0.0311  0.0596
  972MOL0     C31150   9.198   7.486   0.389  0.4428 -1.4494 -0.6176
  972MOL0     C31151   9.327   7.516   0.354 -0.1085  0.0571 -0.4150
  972MOL0     C31152   9.439   7.476   0.445  0.2401  1.2456  0.1203
  972MOL0     H31153   9.694   7.508  -0.116  0.0015 -0.4841 -0.1683
  972MOL0     H31154   9.888   7.646  -0.201 -2.0399 -0.2791 -1.1114
  972MOL0     H31155   9.872   8.105  -0.093 -1.1791 -0.2777 -2.2346
  972MOL0     H31156   9.999   7.987  -0.031 -2.6008 -3.3949 -0.1953
  972MOL0     H31157  10.081   8.191  -0.119 -0.6018 -0.9065  1.4055
  972MOL0     H31158  10.013   8.170  -0.280  0.0653 -1.6333 -1.9604
  972MOL0     H31159  10.148   7.985  -0.332 -1.8721 -2.8228  1.4333
  972MOL0     H31160  10.198   7.953  -0.169  0.8741 -0.9473 -1.7528
  972MOL0     H31161  10.281   8.223  -0.301  2.0305  0.7101 -1.5235
  972MOL0     H31162  10.338   8.136  -0.161 -0.1499 -2.1230  0.2232
  972MOL0     H31163  10.442   7.962  -0.271 -0.0915  1.1660  1.3333
  972MOL0     H31164  10.352   7.992  -0.423  0.0729  1.9769 -0.9066
  972MOL0     H31165  10.478   8.205  -0.441  1.9395 -0.0202 -1.1464
  972MOL0     H31166  10.566   8.173  -0.293  1.6994  0.8196 -0.7390
  972MOL0     H31167  10.566   8.019  -0.560  1.1136 -0.3521 -0.5391
  972MOL0     H31168  10.665   7.960  -0.429  0.8271  0.9449  1.2595
  972MOL0     H31169  10.796   8.105  -0.580  0.1607  0.5201  0.1899
  972MOL0     H31170  10.690   8.247  -0.547 -0.1507 -0.6927 -1.5698
  972MOL0     H31171  10.913   8.009  -0.337  1.3653 -1.0923  1.4629
  972MOL0     H31172  11.105   8.048  -0.196  0.9271 -1.0464  0.0061
  972MOL0     H31173  11.143   8.201  -0.127 -0.1566  0.4064  1.4230
  972MOL0     H31174  11.003   8.158   0.068  0.1802  1.5010 -1.6511
  972MOL0     H31175  10.918   8.028  -0.014 -0.0371 -0.3928 -2.3716
  972MOL0     H31176  11.098   7.880  -0.026  2.7712  1.2167 -2.6401
  972MOL0     H31177  11.080   7.920   0.149 -1.5416  0.5401 -0.0119
  972MOL0     H31178  11.323   7.912   0.096  0.8020  0.7171 -0.8078
  972MOL0     H31179  11.251   8.077   0.132 -0.5354  2.0615 -2.0209
  972MOL0     H31180  11.510   8.057   0.112  0.7397  3.1802  1.3119
  972MOL0     H31181  11.734   8.136   0.068  0.6762 -0.7305 -0.1879
  972MOL0     H31182  12.020   8.410  -0.066  1.7713  1.9282 -1.7392
  972MOL0     H31183  12.264   8.473  -0.095 -1.3283  0.5047  1.7294
  972MOL0     H31184  12.524   8.462  -0.067 -1.4670 -1.0425 -3.5039
  972MOL0     H31185  12.480   8.342   0.054 -1.0914  0.7964  0.0001
  972MOL0     H31186  12.691   8.215   0.001 -0.4090 -1.7104 -2.3019
  972MOL0     H31187  12.721   8.325  -0.137 -0.5370 -2.6255 -0.3616
  972MOL0     H31188  12.753   8.513   0.024 -2.7432 -0.3472  2.0399
  972MOL0     H31189  12.717   8.406   0.154 -1.3416  2.5510 -0.8419
  972MOL0     H31190  12.947   8.345  -0.043  0.6374 -2.5363  0.2546
  972MOL0     H31191  12.892   8.243   0.087  0.1297  0.8893 -0.0482
  972MOL0     H31192  12.970   8.417   0.255  0.1051  0.3780  1.2517
  972MOL0     H31193  12.972   8.533   0.123 -2.2448 -0.5366  1.5749
  972MOL0     H31194  13.159   8.288   0.157 -1.5332  0.0129  1.3037
  972MOL0     H31195  13.156   8.391   0.014  0.0314 -0.6533 -0.5054
  972MOL0     H31196  13.253   8.462   0.297 -2.1716 -0.5623 -0.6997
  972MOL0     H31197  13.217   8.591   0.186  1.8249  0.8374  1.5696
  972MOL0     H31198  13.435   8.363   0.161  0.3802 -0.6267 -0.2894
  972MOL0     H31199  13.397   8.457   0.022 -0.6263  2.1059 -0.2251
  972MOL0     H31200  12.364   8.069  -0.171 -1.8917 -0.6179 -0.9354
  972MOL0     H31201  12.136   7.995  -0.153  0.6427 -0.0014 -0.9570
  972MOL0     H31202  11.604   8.197  -0.348  1.6811 -1.1120  0.0792
  972MOL0     H31203  11.383   8.113  -0.285 -0.0707  0.9795  0.1070
  972MOL0     H31204   9.704   8.001  -0.045 -0.2347 -0.2670  1.2411
  972MOL0     H31205   9.531   7.851   0.056 -1.5212  1.0271 -1.6985
  972MOL0     H31206   9.261   7.674   0.063  1.2674 -1.3969 -0.8231
  972MOL0     H31207   9.037   7.630   0.128  0.4008  2.5695  0.6855
  972MOL0     H31208   8.859   7.518   0.186 -3.3574  2.9231 -0.7186
  972MOL0     H31209   8.857   7.643   0.301  0.6122  0.4969 -1.5275
  972MOL0     H31210   8.750   7.476   0.468  0.1176  2.6059 -0.1769
  972MOL0     H31211   8.753   7.358   0.334  0.6466  0.3504 -0.1119
  972MOL0     H31212   8.528   7.455   0.402 -0.9598 -0.3714 -0.2465
  972MOL0     H31213   8.572   7.421   0.235  1.1465 -1.9476  1.8677
  972MOL0     H31214   8.588   7.698   0.367 -3.7385  1.8154 -0.2171
  972MOL0     H31215   8.603   7.666   0.199  1.6454 -2.1235 -1.2289
  972MOL0     H31216   8.195   7.710   0.311 -0.4100 -1.0635 -0.0923
  972MOL0     H31217   9.174   7.433   0.481 -0.4043 -3.0716 -1.7149
  972MOL0     H31218   9.541   7.500   0.413  1.0162 -2.0780 -0.2990
  972MOL0     H31219   9.426   7.532   0.538  0.6157  1.2024  0.2010
  972MOL0     H31220   9.435   7.368   0.457 -1.4543  1.5064  2.4246
  973MOL0     O31221   6.734   4.697   1.715  0.8928  0.5213  0.5955
  973MOL0     C31222   6.673   4.732   1.612 -0.1142 -0.7347  0.2785
  973MOL0     O31223   6.733   4.758   1.494  0.2154  0.6035 -0.0748
  973MOL0     C31224   6.872   4.731   1.485  0.2426 -0.2977 -0.6112
  973MOL0     C31225   6.961   4.843   1.473  0.2302  0.3745  0.4185
  973MOL0     C31226   7.095   4.816   1.437 -0.1395 -1.0351  0.9547
  973MOL0     C31227   7.152   4.689   1.423  0.9138 -0.0793  0.4123
  973MOL0     O31228   7.279   4.687   1.381  0.4428  0.3532 -0.1183
  973MOL0     C31229   7.345   4.563   1.369 -0.3179  0.0510  0.4570
  973MOL0     C31230   7.484   4.579   1.309  0.0129 -0.3915 -0.8610
  973MOL0     C31231   7.536   4.442   1.258 -0.5355  0.3809  0.2720
  973MOL0     C31232   7.676   4.440   1.207 -0.4117  0.0360 -0.1096
  973MOL0     C31233   7.716   4.522   1.077  0.4915 -0.0102  0.7080
  973MOL0     C31234   7.849   4.469   1.020 -0.6362  0.5415  0.6267
  973MOL0     C31235   7.887   4.575   0.917  0.2064  0.6433 -0.2271
  973MOL0     C31236   8.017   4.520   0.856  0.0650 -0.7529  1.3656
  973MOL0     N31237   8.102   4.631   0.802  0.5430  0.9686  0.6540
  973MOL0     C31238   8.140   4.671   0.673 -0.3972  0.9465 -0.4585
  973MOL0     C31239   8.222   4.770   0.682 -0.7534  0.1215  0.4947
  973MOL0     C31240   8.302   4.839   0.578 -0.0630  0.1259  0.4892
  973MOL0     C31241   8.212   4.893   0.464 -0.4446 -0.3896  0.3527
  973MOL0     C31242   8.300   4.979   0.381 -0.8020 -0.1958 -0.0042
  973MOL0     C31243   8.220   5.025   0.256 -0.0437 -0.6627  0.0827
  973MOL0     O31244   8.213   4.916   0.166  0.3023 -0.1490  0.5708
  973MOL0     C31245   8.331   4.897   0.090  0.8524 -0.2382  0.2922
  973MOL0     C31246   8.383   4.993  -0.004 -0.9850  0.5735  0.1149
  973MOL0     C31247   8.491   4.963  -0.089  0.2581 -0.4970  0.1203
  973MOL0     C31248   8.548   4.839  -0.086  1.0557 -0.6182  0.8072
  973MOL0     C31249   8.651   4.813  -0.181  0.2531 -1.1206 -0.4336
  973MOL0     O31250   8.685   4.688  -0.197  0.0513  0.8308  0.0539
  973MOL0     C31251   8.763   4.636  -0.298  1.1974  0.5210 -0.2817
  973MOL0     C31252   8.814   4.706  -0.406  0.3264  0.2629  0.4922
  973MOL0     C31253   8.885   4.629  -0.504 -0.5998 -0.4618 -0.2834
  973MOL0     C31254   8.882   4.485  -0.506  0.3650  0.3263 -0.0737
  973MOL0     O31255   8.954   4.418  -0.600  0.1896  0.3417 -0.9063
  973MOL0     C31256   8.872   4.375  -0.710 -0.1676  1.6189 -0.8916
  973MOL0     C31257   8.861   4.484  -0.814 -0.1322 -0.4847  0.0236
  973MOL0     C31258   8.849   4.424  -0.951  0.2788  0.1808  0.1261
  973MOL0     C31259   8.815   4.525  -1.059  0.1028 -0.8425  0.5292
  973MOL0     C31260   8.791   4.460  -1.195  0.5059 -0.1724  0.4867
  973MOL0     C31261   8.730   4.565  -1.286 -0.1423 -0.8111 -0.1949
  973MOL0     C31262   8.644   4.512  -1.397 -0.8400 -0.0265  0.6024
  973MOL0     C31263   8.614   4.626  -1.500  0.5418 -0.2056  0.4737
  973MOL0    Cl31264   8.755   4.694  -1.596  0.0083  0.1506  0.0920
  973MOL0     C31265   8.828   4.419  -0.391  0.2354 -0.0469  0.5014
  973MOL0     C31266   8.762   4.496  -0.295 -0.6784  0.5086 -0.1532
  973MOL0     O31267   8.707   4.910  -0.228  0.6749  0.3780  0.4853
  973MOL0     C31268   8.500   4.742   0.001  0.7441  0.4734  0.2096
  973MOL0     C31269   8.391   4.769   0.090 -0.1792  1.5040 -0.2936
  973MOL0     N31270   8.233   4.804   0.819 -0.4489 -0.9924  0.9205
  973MOL0     N31271   8.159   4.718   0.882 -0.3901  0.1359  0.4857
  973MOL0     C31272   7.061   4.578   1.442  0.8147 -0.3023  0.2635
  973MOL0     C31273   6.925   4.604   1.470 -0.3095  0.2034  0.0615
  973MOL0     C31274   6.532   4.788   1.632  1.1530  0.0558  0.1361
  973MOL0     C31275   6.485   4.825   1.762 -0.8301 -0.6086  0.5517
  973MOL0     C31276   6.352   4.858   1.786 -0.0379 -1.3903 -0.0980
  973MOL0     C31277   6.257   4.862   1.675 -0.2647 -0.7623  0.2341
  973MOL0     O31278   6.129   4.885   1.682 -0.2101  0.8179  0.2723
  973MOL0     C31279   6.080   4.939   1.810  0.5253  0.0551  0.3790
  973MOL0     C31280   5.924   4.973   1.798 -0.4968  0.5546  0.1888
  973MOL0     C31281   5.833   4.881   1.715 -0.1501  0.9216  0.1874
  973MOL0     C31282   5.873   4.734   1.740  0.8239  0.1340 -0.1336
  973MOL0     C31283   5.837   4.683   1.875 -0.4178 -0.8390  0.4008
  973MOL0     C31284   5.802   4.658   1.988  0.0975 -0.0528 -0.1962
  973MOL0     C31285   6.302   4.827   1.547 -0.0912  0.3468 -0.2791
  973MOL0     C31286   6.434   4.802   1.524  0.3235  0.0792  0.0884
  973MOL0     C31287   6.476   4.791   1.381 -0.5879 -0.4064  0.3513
  973MOL0     H31288   6.928   4.945   1.460 -0.6272 -0.1768 -2.4407
  973MOL0     H31289   7.167   4.897   1.428 -0.4642 -0.8706 -0.3382
  973MOL0     H31290   7.360   4.501   1.458  2.2615 -0.1446 -0.0184
  973MOL0     H31291   7.285   4.498   1.304 -1.3105  0.4896  0.9174
  973MOL0     H31292   7.541   4.620   1.393 -1.1155 -3.4611  1.5875
  973MOL0     H31293   7.479   4.646   1.222  3.2549  1.1299 -0.0190
  973MOL0     H31294   7.480   4.403   1.173  1.2760 -0.1977 -0.7052
  973MOL0     H31295   7.519   4.365   1.334 -2.4596 -0.4658 -0.9376
  973MOL0     H31296   7.746   4.469   1.286  0.9828  1.4610 -1.7947
  973MOL0     H31297   7.705   4.338   1.182  0.5977  0.9480 -3.0571
  973MOL0     H31298   7.638   4.517   1.001 -0.5140  3.0607  1.3944
  973MOL0     H31299   7.719   4.627   1.110 -1.7735  0.1450  0.5861
  973MOL0     H31300   7.929   4.452   1.092 -0.3985 -3.1863 -0.2825
  973MOL0     H31301   7.828   4.372   0.974  0.3477  0.8380 -0.4973
  973MOL0     H31302   7.916   4.661   0.977  1.0510 -0.4747  1.0283
  973MOL0     H31303   7.802   4.603   0.853  1.6309  4.6200 -0.6417
  973MOL0     H31304   8.075   4.464   0.930  1.9380 -1.0304 -0.2214
  973MOL0     H31305   7.988   4.448   0.778  0.7057 -0.0054  0.4150
  973MOL0     H31306   8.103   4.625   0.581 -1.3509 -0.3417  0.5315
  973MOL0     H31307   8.361   4.921   0.620  1.6158  1.0710 -3.3456
  973MOL0     H31308   8.367   4.765   0.530 -0.5664 -0.5882  0.8938
  973MOL0     H31309   8.175   4.810   0.404  1.2506  0.2061 -1.6337
  973MOL0     H31310   8.135   4.959   0.504  2.0240  1.7130  1.9719
  973MOL0     H31311   8.390   4.927   0.348  0.0610  1.2301  0.0490
  973MOL0     H31312   8.338   5.065   0.436 -0.3370 -1.0663  1.0813
  973MOL0     H31313   8.264   5.118   0.219 -3.8266  1.7478  0.9962
  973MOL0     H31314   8.115   5.050   0.276  0.1289  1.9548 -1.7842
  973MOL0     H31315   8.340   5.093   0.002 -0.6841  0.6725  0.8111
  973MOL0     H31316   8.522   5.040  -0.159 -2.0176 -0.0745 -0.4920
  973MOL0     H31317   8.817   4.815  -0.403  1.6863  0.2257  0.9084
  973MOL0     H31318   8.948   4.675  -0.579  3.5488 -2.2686  1.7462
  973MOL0     H31319   8.924   4.290  -0.755 -1.6561  0.7443 -1.0343
  973MOL0     H31320   8.776   4.330  -0.684  0.7060  1.0766  1.6954
  973MOL0     H31321   8.785   4.560  -0.794 -1.0607 -0.8161 -2.0018
  973MOL0     H31322   8.956   4.537  -0.823 -1.2457  1.6831  0.2459
  973MOL0     H31323   8.939   4.376  -0.991 -0.0227  1.1785 -1.9210
  973MOL0     H31324   8.780   4.339  -0.947 -0.1125  0.5118  0.5045
  973MOL0     H31325   8.888   4.606  -1.052 -1.1493  0.2953  1.0506
  973MOL0     H31326   8.724   4.577  -1.025  0.5913  0.9921 -0.8179
  973MOL0     H31327   8.716   4.382  -1.180  2.2344 -1.9244  0.4493
  973MOL0     H31328   8.877   4.416  -1.247 -0.4250  0.3980 -1.6778
  973MOL0     H31329   8.660   4.624  -1.227 -1.3580 -1.0026 -1.3861
  973MOL0     H31330   8.813   4.625  -1.324 -0.3168 -0.2324  0.3224
  973MOL0     H31331   8.554   4.461  -1.365 -0.9069  0.9643  2.0529
  973MOL0     H31332   8.698   4.443  -1.464 -2.3401  0.8220 -1.6171
  973MOL0     H31333   8.543   4.593  -1.576  2.0507 -0.1052 -1.0292
  973MOL0     H31334   8.552   4.702  -1.450 -1.4601  0.8951 -3.3085
  973MOL0     H31335   8.835   4.311  -0.386  0.7757 -0.2455 -2.3459
  973MOL0     H31336   8.706   4.442  -0.220 -0.7576 -2.0726 -1.9313
  973MOL0     H31337   8.537   4.640   0.005  0.0245  0.2158  0.4995
  973MOL0     H31338   8.345   4.698   0.158  0.4730  0.8040 -0.5704
  973MOL0     H31339   7.088   4.473   1.439 -2.3457 -1.1859 -2.1532
  973MOL0     H31340   6.863   4.515   1.481  1.4245 -1.1932 -0.9278
  973MOL0     H31341   6.555   4.812   1.844 -0.0093 -0.1566 -0.0637
  973MOL0     H31342   6.314   4.898   1.880  1.4256  2.2964 -0.9163
  973MOL0     H31343   6.119   5.040   1.827 -0.6919  1.0268 -2.1702
  973MOL0     H31344   6.109   4.876   1.895 -1.2733 -0.1184  0.9168
  973MOL0     H31345   5.902   5.073   1.758 -4.3488 -0.3064 -0.2594
  973MOL0     H31346   5.875   4.966   1.896 -0.4465 -0.8163  0.1328
  973MOL0     H31347   5.844   4.898   1.607 -2.0881 -0.4696 -0.3013
  973MOL0     H31348   5.727   4.902   1.734 -0.8196  0.1405 -2.3025
  973MOL0     H31349   5.818   4.678   1.664  0.1247  1.4925 -0.6454
  973MOL0     H31350   5.977   4.716   1.708  0.5225  0.6904 -1.5049
  973MOL0     H31351   5.790   4.670   2.093 -0.3310 -0.2701 -0.2157
  973MOL0     H31352   6.231   4.833   1.466  0.0321  2.0320 -0.3152
  973MOL0     H31353   6.391   4.799   1.313 -0.8597 -1.5675  0.5297
  973MOL0     H31354   6.550   4.867   1.354 -0.8433  0.0470  0.9280
  973MOL0     H31355   6.529   4.697   1.365  1.0486  0.8689 -2.5693
  974MOL0     O31356  11.262   1.591   5.097 -0.4444  0.0783  0.3473
  974MOL0     C31357  11.247   1.583   5.218 -0.5262  0.6653  0.0569
  974MOL0     O31358  11.342   1.550   5.306 -0.7522 -0.1975  0.5137
  974MOL0     C31359  11.470   1.520   5.262 -0.3287 -0.1793 -0.3983
  974MOL0     C31360  11.531   1.407   5.316 -0.0223  0.5604 -0.3726
  974MOL0     C31361  11.663   1.374   5.273  0.0630  1.3382  0.2220
  974MOL0     C31362  11.732   1.446   5.175 -0.7400 -0.7084  0.9121
  974MOL0     O31363  11.849   1.404   5.127 -0.6625  0.2708 -0.2951
  974MOL0     C31364  11.923   1.462   5.015  0.5855  0.5507  0.0220
  974MOL0     C31365  12.059   1.386   5.013 -0.1133  0.5098 -0.3351
  974MOL0     C31366  12.136   1.410   4.884 -0.7530 -0.0514 -0.5492
  974MOL0     C31367  12.283   1.418   4.913  0.2247  0.5695  0.1447
  974MOL0     C31368  12.374   1.413   4.788 -0.1820  0.9319  0.5399
  974MOL0     C31369  12.522   1.423   4.829  0.1135  0.1914  0.8132
  974MOL0     C31370  12.624   1.380   4.721  0.3832  0.0758 -0.2318
  974MOL0     C31371  12.760   1.363   4.778 -0.2028  0.6294  0.4535
  974MOL0     N31372  12.868   1.364   4.676 -0.1990 -0.2817  0.0010
  974MOL0     C31373  12.904   1.258   4.605  0.3625  0.0763 -0.0358
  974MOL0     C31374  13.008   1.305   4.523  1.4744 -0.5280  0.5854
  974MOL0     C31375  13.085   1.218   4.427  0.0997 -0.1159 -0.3638
  974MOL0     C31376  13.234   1.256   4.418 -0.3778  0.3429 -0.7525
  974MOL0     C31377  13.312   1.232   4.547 -0.3470 -0.2235  0.8769
  974MOL0     C31378  13.468   1.196   4.530  1.0220  0.2287 -0.2938
  974MOL0     O31379  13.531   1.308   4.458 -0.0504 -0.3188 -0.1065
  974MOL0     C31380  13.668   1.289   4.436  0.4211  0.0951 -0.9753
  974MOL0     C31381  13.744   1.404   4.453 -0.1788 -0.1319 -0.5124
  974MOL0     C31382  13.878   1.410   4.419  0.6556  1.1083 -0.0979
  974MOL0     C31383  13.947   1.288   4.378  0.2219  0.0594  0.5741
  974MOL0     C31384  14.094   1.291   4.345 -0.3764 -0.4259 -0.0176
  974MOL0     O31385  14.148   1.415   4.323 -0.2365 -0.1452 -0.7424
  974MOL0     C31386  14.281   1.438   4.305  0.3906 -0.1568 -0.8243
  974MOL0     C31387  14.382   1.360   4.363 -0.6306 -0.3971  0.9192
  974MOL0     C31388  14.519   1.379   4.317 -0.1168  0.6918  0.6961
  974MOL0     C31389  14.557   1.477   4.227  0.6136  1.5252  0.8586
  974MOL0     O31390  14.678   1.494   4.172 -0.7748 -0.0044  0.1538
  974MOL0     C31391  14.780   1.393   4.174 -0.5303  0.0055  1.0440
  974MOL0     C31392  14.900   1.436   4.266  0.2827 -0.3217  0.0431
  974MOL0     C31393  14.870   1.427   4.411  0.4032  0.4256 -0.6473
  974MOL0     C31394  14.976   1.496   4.484 -0.4117 -0.1568 -0.2021
  974MOL0     C31395  15.099   1.406   4.505 -0.0251  0.1532  0.2735
  974MOL0     C31396  15.225   1.469   4.558 -0.0708 -0.4621 -0.4242
  974MOL0     C31397  15.341   1.361   4.551  0.5617 -0.5153  0.1117
  974MOL0     C31398  15.444   1.389   4.660 -0.4335  0.4937 -0.2028
  974MOL0    Cl31399  15.383   1.364   4.824 -0.0175 -0.4528  0.0586
  974MOL0     C31400  14.455   1.569   4.178 -0.3246  0.1817 -0.3824
  974MOL0     C31401  14.324   1.553   4.227  0.3070 -0.2742  0.3446
  974MOL0     O31402  14.144   1.186   4.320 -0.2036 -0.9327  0.4757
  974MOL0     C31403  13.868   1.173   4.356  0.3982  0.1121  0.1558
  974MOL0     C31404  13.728   1.174   4.390 -1.1911 -0.3769 -0.2260
  974MOL0     N31405  13.025   1.438   4.547  0.1428  0.0921  0.2639
  974MOL0     N31406  12.946   1.469   4.641  0.0538 -0.0818 -0.2305
  974MOL0     C31407  11.672   1.566   5.127  0.6375  0.3304  1.0496
  974MOL0     C31408  11.539   1.601   5.168  0.0764  0.8843 -0.1844
  974MOL0     C31409  11.111   1.602   5.281 -0.2064  0.5462 -0.6757
  974MOL0     C31410  11.080   1.538   5.392 -0.2350 -0.0543  0.1820
  974MOL0     C31411  10.948   1.540   5.433 -0.2071  0.1217 -0.4880
  974MOL0     C31412  10.842   1.617   5.372 -0.6758  0.9284  0.3627
  974MOL0     O31413  10.712   1.632   5.414 -0.1783  0.5852 -0.4381
  974MOL0     C31414  10.655   1.563   5.525  0.7579 -0.5376 -0.9664
  974MOL0     C31415  10.628   1.422   5.492 -0.0519 -0.3588  0.3790
  974MOL0     C31416  10.622   1.336   5.614 -0.4358  0.2379  0.2391
  974MOL0     C31417  10.498   1.360   5.697 -0.6383 -0.3168  0.0252
  974MOL0     C31418  10.372   1.337   5.630  0.1364  0.1693 -0.3036
  974MOL0     C31419  10.260   1.317   5.589  0.3796  0.7166 -0.3150
  974MOL0     C31420  10.885   1.695   5.266 -0.1648  0.0169  0.2994
  974MOL0     C31421  11.018   1.685   5.219  0.3369  0.5555 -0.4447
  974MOL0     C31422  11.045   1.778   5.111 -0.6163  0.0418 -0.1152
  974MOL0     H31423  11.478   1.346   5.388 -0.2558  0.3546 -0.7152
  974MOL0     H31424  11.710   1.282   5.306 -0.5952  1.7521  2.4754
  974MOL0     H31425  11.874   1.431   4.922 -1.9547 -2.4498  2.1429
  974MOL0     H31426  11.934   1.571   5.015  0.5537  0.6216 -2.8895
  974MOL0     H31427  12.049   1.277   5.017  0.1219  0.5300  1.1564
  974MOL0     H31428  12.115   1.421   5.100 -0.2517 -1.7505  0.7334
  974MOL0     H31429  12.113   1.502   4.829  1.4151  0.4246 -0.7369
  974MOL0     H31430  12.116   1.326   4.817  0.4363 -3.3449  2.8561
  974MOL0     H31431  12.317   1.501   4.975 -0.8816  1.5054 -0.4601
  974MOL0     H31432  12.310   1.328   4.970 -0.2536  0.8915  0.8950
  974MOL0     H31433  12.365   1.317   4.737  0.7510  0.2543  1.6084
  974MOL0     H31434  12.350   1.491   4.715  1.4133  0.8539 -0.1163
  974MOL0     H31435  12.547   1.525   4.858  2.9163 -0.6694  1.7954
  974MOL0     H31436  12.545   1.366   4.920  3.5272  0.1841  0.1024
  974MOL0     H31437  12.627   1.454   4.641 -3.9758 -2.2020 -2.9038
  974MOL0     H31438  12.582   1.287   4.681  0.3074  0.3670 -0.8346
  974MOL0     H31439  12.781   1.449   4.842  2.9751  0.3240 -0.0327
  974MOL0     H31440  12.757   1.270   4.836  2.4279 -0.6677 -1.2673
  974MOL0     H31441  12.859   1.159   4.612  0.0545  0.2168 -0.0586
  974MOL0     H31442  13.075   1.113   4.457 -2.4930  0.4831  1.1340
  974MOL0     H31443  13.039   1.229   4.328  0.6653 -1.0461 -0.7479
  974MOL0     H31444  13.285   1.214   4.331 -0.0385 -0.3776 -0.2128
  974MOL0     H31445  13.236   1.362   4.389  1.1050  0.9896  1.4015
  974MOL0     H31446  13.247   1.172   4.612 -0.7845 -1.5883 -0.7592
  974MOL0     H31447  13.319   1.330   4.594  1.5811  1.2649 -2.1933
  974MOL0     H31448  13.483   1.096   4.488  0.5632  0.5896 -1.3404
  974MOL0     H31449  13.512   1.205   4.630 -0.1731  1.3456  0.1636
  974MOL0     H31450  13.686   1.488   4.489  3.3726  2.0665  0.5329
  974MOL0     H31451  13.937   1.499   4.442  2.5656 -0.4945  1.6659
  974MOL0     H31452  14.355   1.284   4.436  0.9498 -0.5289  1.4058
  974MOL0     H31453  14.594   1.317   4.366 -0.8714 -0.2148  0.7297
  974MOL0     H31454  14.741   1.293   4.198 -1.1764  0.3769  1.5646
  974MOL0     H31455  14.813   1.388   4.069 -0.7122  0.1896  0.9764
  974MOL0     H31456  14.987   1.372   4.248  1.4219  0.7604  1.5260
  974MOL0     H31457  14.926   1.539   4.241  1.2297 -0.6207 -0.2505
  974MOL0     H31458  14.775   1.478   4.431  1.8904  3.5424 -0.9134
  974MOL0     H31459  14.863   1.321   4.438 -3.6103  0.0991 -2.2939
  974MOL0     H31460  14.943   1.540   4.579  0.2598  0.0306 -0.0499
  974MOL0     H31461  15.014   1.579   4.424  4.4776 -1.4906  0.6443
  974MOL0     H31462  15.131   1.366   4.408 -0.3719  2.9410 -1.0859
  974MOL0     H31463  15.086   1.323   4.576 -0.7956 -0.8197 -0.9596
  974MOL0     H31464  15.253   1.556   4.498 -0.8630 -0.4845 -0.8464
  974MOL0     H31465  15.213   1.500   4.662  1.5364 -1.3385  0.0569
  974MOL0     H31466  15.390   1.373   4.454  0.3629  0.9290  0.1716
  974MOL0     H31467  15.294   1.266   4.578  0.2298 -0.5695 -0.6215
  974MOL0     H31468  15.525   1.321   4.631 -0.2287  1.7286 -2.8537
  974MOL0     H31469  15.482   1.491   4.651 -0.2253  0.3866 -0.5523
  974MOL0     H31470  14.480   1.650   4.110  0.8541  1.2541  1.2585
  974MOL0     H31471  14.257   1.628   4.186 -1.6759 -2.1448 -0.0381
  974MOL0     H31472  13.909   1.085   4.308 -1.2011 -1.8632  2.2266
  974MOL0     H31473  13.664   1.088   4.375 -0.2951 -0.6017 -3.3711
  974MOL0     H31474  11.718   1.623   5.047  0.1637  0.6020  0.9662
  974MOL0     H31475  11.486   1.683   5.120 -1.0829  1.4041  1.8824
  974MOL0     H31476  11.155   1.473   5.437  1.8795  1.9802 -0.2202
  974MOL0     H31477  10.909   1.477   5.512  0.4290 -2.7094 -2.3225
  974MOL0     H31478  10.558   1.603   5.556  0.9081 -1.2523  0.5389
  974MOL0     H31479  10.725   1.560   5.609  0.9267 -3.4252 -1.0841
  974MOL0     H31480  10.708   1.388   5.427 -0.8952 -1.0678 -0.3039
  974MOL0     H31481  10.530   1.427   5.444 -1.2476 -1.3018  2.5504
  974MOL0     H31482  10.718   1.353   5.665  0.9398  0.2197 -2.1940
  974MOL0     H31483  10.637   1.230   5.590  3.2860  0.4467  1.0082
  974MOL0     H31484  10.505   1.289   5.780  2.1862 -0.2847 -0.0848
  974MOL0     H31485  10.498   1.461   5.740  0.6957 -0.1582 -0.3056
  974MOL0     H31486  10.159   1.311   5.555  0.8610  0.1125 -1.7329
  974MOL0     H31487  10.815   1.765   5.222 -1.0209 -0.5288  0.7640
  974MOL0     H31488  11.037   1.722   5.018 -2.2186 -1.8514  1.0888
  974MOL0     H31489  10.984   1.868   5.097 -0.5535 -0.0335 -0.9476
  974MOL0     H31490  11.152   1.803   5.120 -0.6864 -0.3319  2.3398
  975MOL0     O31491   8.271   5.878   1.536  0.4171  0.9788  0.1860
  975MOL0     C31492   8.216   5.800   1.609  0.4090  0.1659  0.0003
  975MOL0     O31493   8.269   5.694   1.678  0.3211 -0.1983 -0.0504
  975MOL0     C31494   8.385   5.637   1.643 -0.0046  0.8656  0.0446
  975MOL0     C31495   8.491   5.702   1.585  1.0257  0.3182 -0.1395
  975MOL0     C31496   8.612   5.640   1.552  0.5314  1.0942  0.7894
  975MOL0     C31497   8.626   5.504   1.562  0.0892 -0.1248 -0.4862
  975MOL0     O31498   8.730   5.434   1.497 -0.1675 -0.3507  0.0754
  975MOL0     C31499   8.845   5.395   1.566  0.4475  0.5047 -0.0856
  975MOL0     C31500   8.956   5.353   1.467  0.1600  0.8888  0.9156
  975MOL0     C31501   9.034   5.463   1.392 -0.8167 -0.7880  0.1813
  975MOL0     C31502   9.115   5.404   1.273  0.6969  0.3167 -0.3120
  975MOL0     C31503   9.195   5.512   1.199 -0.1202  0.2798 -0.1716
  975MOL0     C31504   9.261   5.465   1.070 -0.1201 -0.4251  0.0242
  975MOL0     C31505   9.314   5.317   1.076 -0.1857 -0.7297  0.3814
  975MOL0     C31506   9.391   5.286   0.944  0.6287  0.1519  0.0843
  975MOL0     N31507   9.517   5.357   0.941  0.2738 -0.4634 -0.2779
  975MOL0     C31508   9.531   5.488   0.890  0.2878  0.2690 -0.0671
  975MOL0     C31509   9.650   5.525   0.930 -0.7229  0.9425  0.4940
  975MOL0     C31510   9.721   5.648   0.880 -1.0967 -0.0754 -0.4388
  975MOL0     C31511   9.768   5.627   0.729  0.2241 -1.0839 -0.6719
  975MOL0     C31512   9.831   5.761   0.680  0.8778 -0.2549  0.1228
  975MOL0     C31513   9.976   5.777   0.725  0.1407  0.3498 -0.3611
  975MOL0     O31514   9.986   5.808   0.865 -0.4544 -0.2211  0.5685
  975MOL0     C31515  10.108   5.840   0.928 -0.4204 -0.6826  0.2973
  975MOL0     C31516  10.236   5.819   0.870 -0.1510 -0.2617 -0.5681
  975MOL0     C31517  10.352   5.850   0.949  0.2947 -0.5382  0.3263
  975MOL0     C31518  10.336   5.895   1.081  0.4655  0.1626  0.1633
  975MOL0     C31519  10.456   5.934   1.163  0.6462  1.4440  0.4585
  975MOL0     O31520  10.439   5.955   1.303 -0.6483  0.9380  0.0390
  975MOL0     C31521  10.547   6.005   1.368  0.3608  0.4425 -0.4935
  975MOL0     C31522  10.669   5.937   1.363  0.9373  0.0460  0.2797
  975MOL0     C31523  10.777   6.011   1.411  0.7470 -0.1547 -0.1438
  975MOL0     C31524  10.761   6.124   1.495 -0.0329 -0.3918 -0.6971
  975MOL0     O31525  10.855   6.180   1.584  0.9046 -0.4069 -0.1143
  975MOL0     C31526  10.989   6.169   1.546 -0.9268  0.3215 -0.1467
  975MOL0     C31527  11.053   6.307   1.576  0.1554  0.3686 -0.5738
  975MOL0     C31528  10.991   6.438   1.519  0.4567  0.5572 -0.4595
  975MOL0     C31529  10.957   6.432   1.369 -0.8877  0.8431  0.9603
  975MOL0     C31530  10.874   6.553   1.316  0.0479 -0.3744  0.0011
  975MOL0     C31531  10.721   6.548   1.313  0.0531 -0.2383  0.3150
  975MOL0     C31532  10.673   6.430   1.220 -0.1233 -0.0631 -0.0937
  975MOL0     C31533  10.524   6.419   1.210 -0.0316 -0.7390  0.0828
  975MOL0    Cl31534  10.441   6.514   1.093 -0.0297 -0.2778  0.1445
  975MOL0     C31535  10.635   6.172   1.513  0.0886 -0.0511  0.0427
  975MOL0     C31536  10.527   6.119   1.442 -1.4241 -0.2195  0.2487
  975MOL0     O31537  10.553   5.959   1.096  0.4858  0.2268  0.0123
  975MOL0     C31538  10.207   5.907   1.133  0.9753  0.0494 -0.3434
  975MOL0     C31539  10.096   5.877   1.057  1.2073  0.2697 -0.1448
  975MOL0     N31540   9.715   5.425   1.013  0.2240 -0.4852  0.4164
  975MOL0     N31541   9.632   5.325   1.019 -0.8965 -0.5200  0.1659
  975MOL0     C31542   8.522   5.432   1.620 -0.0287  0.4300 -0.3008
  975MOL0     C31543   8.407   5.499   1.673 -0.5455 -0.3972  0.3549
  975MOL0     C31544   8.070   5.819   1.632 -0.0448 -0.0927  0.0269
  975MOL0     C31545   8.005   5.941   1.596  0.2600 -0.0394 -0.0391
  975MOL0     C31546   7.868   5.958   1.600  0.3401 -0.5989 -0.7732
  975MOL0     C31547   7.787   5.865   1.668 -0.2654 -0.3428 -0.4207
  975MOL0     O31548   7.651   5.896   1.683  0.3644  0.9442 -0.1353
  975MOL0     C31549   7.593   5.821   1.789 -0.0961  0.5281  0.5695
  975MOL0     C31550   7.445   5.879   1.819 -0.1835 -1.0610  0.3329
  975MOL0     C31551   7.367   5.912   1.689  0.8742 -0.1132  0.5116
  975MOL0     C31552   7.232   5.975   1.709  0.4873  0.1172  0.1230
  975MOL0     C31553   7.144   5.974   1.582 -0.1464 -0.1646 -0.3935
  975MOL0     C31554   7.080   5.977   1.482 -0.2693  0.9123  0.0402
  975MOL0     C31555   7.851   5.749   1.707 -0.1713 -0.6745 -0.1310
  975MOL0     C31556   7.983   5.724   1.681 -0.3142  0.0704 -0.8572
  975MOL0     C31557   8.017   5.580   1.708 -0.2636  0.3955  0.0168
  975MOL0     H31558   8.476   5.807   1.562 -0.2395 -0.5772 -4.2247
  975MOL0     H31559   8.689   5.701   1.506 -0.2241  1.1313 -0.4711
  975MOL0     H31560   8.871   5.474   1.637  0.8450 -0.2299  0.6100
  975MOL0     H31561   8.819   5.310   1.630  2.4671  2.3847  3.5755
  975MOL0     H31562   8.918   5.284   1.390 -2.0018  1.2825  1.5656
  975MOL0     H31563   9.029   5.292   1.520 -1.5726 -4.2556 -1.8345
  975MOL0     H31564   9.095   5.521   1.462 -2.4831  2.0326 -0.5485
  975MOL0     H31565   8.951   5.525   1.357  0.0360 -1.3420 -3.1009
  975MOL0     H31566   9.190   5.330   1.301  1.8998  0.2986 -3.2859
  975MOL0     H31567   9.036   5.375   1.203  0.1037  2.1775 -0.4876
  975MOL0     H31568   9.137   5.604   1.186  1.6585  1.9646  2.7294
  975MOL0     H31569   9.276   5.543   1.266  1.0166 -2.2143 -0.2587
  975MOL0     H31570   9.193   5.462   0.985  2.3913  0.2546 -2.1322
  975MOL0     H31571   9.338   5.539   1.048  0.4173 -1.1750 -0.7032
  975MOL0     H31572   9.235   5.244   1.097 -2.6660  1.2430 -1.4728
  975MOL0     H31573   9.391   5.303   1.153  1.2111  0.7176 -0.6706
  975MOL0     H31574   9.405   5.178   0.930  0.7329  0.2768 -0.8180
  975MOL0     H31575   9.329   5.320   0.861 -0.3122  1.1552  1.1807
  975MOL0     H31576   9.471   5.539   0.815 -3.1151 -1.8274  0.9644
  975MOL0     H31577   9.655   5.731   0.905  0.5523  1.1212  0.1241
  975MOL0     H31578   9.815   5.663   0.934 -0.0494  0.4065 -2.2918
  975MOL0     H31579   9.844   5.548   0.722  3.9600  1.6335  3.7941
  975MOL0     H31580   9.674   5.610   0.675 -1.2502  1.4134  0.9362
  975MOL0     H31581   9.770   5.849   0.702 -1.3252 -1.5599 -0.3944
  975MOL0     H31582   9.821   5.761   0.571 -1.7458  0.4755  0.3011
  975MOL0     H31583  10.019   5.853   0.659 -0.3951  0.7327 -0.2718
  975MOL0     H31584  10.039   5.691   0.700  2.8898  2.8138 -2.6254
  975MOL0     H31585  10.230   5.797   0.764 -0.2794  1.2951 -0.9209
  975MOL0     H31586  10.444   5.831   0.894 -1.2898 -2.5758 -1.8305
  975MOL0     H31587  10.683   5.845   1.306  1.2459  1.7328 -2.5909
  975MOL0     H31588  10.874   5.960   1.410  1.9671  1.8632 -3.8528
  975MOL0     H31589  11.038   6.098   1.613  0.8010  1.8796  0.3240
  975MOL0     H31590  11.011   6.133   1.445  2.6472  2.0201 -0.1200
  975MOL0     H31591  11.047   6.300   1.685 -2.2643 -3.4701 -0.7828
  975MOL0     H31592  11.160   6.307   1.553  1.0801 -0.9763  2.9890
  975MOL0     H31593  10.904   6.472   1.577 -0.9350 -2.5334 -0.5671
  975MOL0     H31594  11.068   6.516   1.528  2.4231 -1.4461  1.0667
  975MOL0     H31595  10.911   6.335   1.345 -0.7402  0.6971  1.2609
  975MOL0     H31596  11.055   6.422   1.322 -0.1838 -0.2457  2.5663
  975MOL0     H31597  10.921   6.576   1.220  0.6789  0.1706  0.4251
  975MOL0     H31598  10.906   6.637   1.379 -2.9643  0.3530  0.7511
  975MOL0     H31599  10.690   6.523   1.415  1.3399 -2.0051  0.3252
  975MOL0     H31600  10.680   6.642   1.275 -1.2086 -0.8017  0.2400
  975MOL0     H31601  10.724   6.342   1.262  2.6468  2.2228  1.6775
  975MOL0     H31602  10.703   6.454   1.118  2.0703  3.5647  1.2216
  975MOL0     H31603  10.495   6.314   1.197 -1.1509 -0.5128  0.6934
  975MOL0     H31604  10.479   6.444   1.306  0.9211  0.6057  0.2030
  975MOL0     H31605  10.620   6.248   1.589 -1.9135 -0.4164  0.0785
  975MOL0     H31606  10.432   6.173   1.443 -1.8958 -0.9937  2.3841
  975MOL0     H31607  10.181   5.935   1.234  0.5716 -1.2831 -0.0611
  975MOL0     H31608   9.999   5.877   1.107  2.0246 -1.2992  1.5364
  975MOL0     H31609   8.535   5.325   1.629  1.6244  0.5341 -1.1043
  975MOL0     H31610   8.326   5.439   1.713 -1.4837  0.5957 -0.0118
  975MOL0     H31611   8.063   6.015   1.542 -1.3982 -0.5469 -2.6796
  975MOL0     H31612   7.817   6.045   1.560  2.5101  0.6767 -0.8832
  975MOL0     H31613   7.648   5.825   1.883  1.5267 -1.3402 -0.2236
  975MOL0     H31614   7.574   5.717   1.758 -0.8091  1.1570 -1.2448
  975MOL0     H31615   7.450   5.964   1.888 -2.5801  0.0195 -0.7048
  975MOL0     H31616   7.388   5.808   1.879  2.0123 -2.1557  1.1925
  975MOL0     H31617   7.354   5.823   1.628  2.5811  1.5258 -2.5093
  975MOL0     H31618   7.424   5.983   1.627 -0.5911  0.6463 -0.0059
  975MOL0     H31619   7.179   5.909   1.779  1.1442 -3.2543 -2.2978
  975MOL0     H31620   7.228   6.077   1.747  1.7583  0.7156 -1.2669
  975MOL0     H31621   7.026   5.958   1.391  1.7141 -0.8124 -0.8530
  975MOL0     H31622   7.792   5.674   1.759 -0.3132  0.1071  0.8517
  975MOL0     H31623   7.930   5.519   1.736  0.4190 -0.6594 -0.1050
  975MOL0     H31624   8.051   5.528   1.618  2.0329  0.6154  0.7050
  975MOL0     H31625   8.087   5.560   1.789  1.3479  0.0623 -1.4030
  976MOL0     O31626   7.084   5.721   1.036 -0.0647  0.1564 -0.1255
  976MOL0     C31627   7.067   5.691   1.147  0.4213  0.2190 -0.5699
  976MOL0     O31628   7.160   5.621   1.226 -0.6872 -0.2699  0.1914
  976MOL0     C31629   7.287   5.606   1.171  0.0052  0.1445 -0.8490
  976MOL0     C31630   7.364   5.704   1.112 -0.4203  0.5939 -0.3906
  976MOL0     C31631   7.491   5.685   1.054 -0.0473 -0.4618  0.0206
  976MOL0     C31632   7.552   5.557   1.067  0.9992 -0.1376 -0.1111
  976MOL0     O31633   7.682   5.532   1.009  0.1276  0.6330  0.0688
  976MOL0     C31634   7.717   5.614   0.898 -0.4089 -0.6189  0.0724
  976MOL0     C31635   7.833   5.551   0.823 -0.4748  0.6599 -0.5929
  976MOL0     C31636   7.903   5.644   0.719 -0.4354  0.9941  0.1444
  976MOL0     C31637   8.011   5.571   0.633 -0.6746  0.1138 -0.3932
  976MOL0     C31638   8.077   5.673   0.537  0.0432 -0.7483  0.5252
  976MOL0     C31639   8.230   5.683   0.555 -0.5593  0.0015 -0.6184
  976MOL0     C31640   8.294   5.796   0.469 -0.4188  0.4259  0.3045
  976MOL0     C31641   8.445   5.781   0.456  0.7358 -0.2389  0.3454
  976MOL0     N31642   8.515   5.779   0.587  0.7493  0.4572 -0.0753
  976MOL0     C31643   8.475   5.860   0.687 -0.0773  0.6491 -0.0793
  976MOL0     C31644   8.536   5.803   0.796  0.0700 -0.3384 -0.4819
  976MOL0     C31645   8.529   5.853   0.942  0.6472 -0.5710  0.4870
  976MOL0     C31646   8.485   5.996   0.964  1.1258 -0.3395 -0.1195
  976MOL0     C31647   8.577   6.109   0.925  0.0333  0.3901 -0.3517
  976MOL0     C31648   8.698   6.116   1.016  0.0517 -0.2574  0.4585
  976MOL0     O31649   8.791   6.199   0.963  0.5049  0.2015 -0.3476
  976MOL0     C31650   8.920   6.205   1.022 -0.5630  0.2948 -0.0827
  976MOL0     C31651   8.955   6.152   1.147 -0.9119  0.7327  0.2985
  976MOL0     C31652   9.087   6.166   1.197 -0.1163 -0.3567 -0.0008
  976MOL0     C31653   9.180   6.248   1.128 -0.2658  0.9934 -0.0807
  976MOL0     C31654   9.309   6.280   1.186  0.5135  0.5345  0.6923
  976MOL0     O31655   9.331   6.238   1.312 -0.0183  0.4619 -0.7227
  976MOL0     C31656   9.444   6.279   1.379  0.5200  0.3556  0.2187
  976MOL0     C31657   9.571   6.234   1.340 -0.9092 -0.4772  0.6441
  976MOL0     C31658   9.685   6.284   1.403 -0.3224 -0.0730 -0.8444
  976MOL0     C31659   9.680   6.352   1.516  0.5608 -0.1840 -0.1634
  976MOL0     O31660   9.793   6.376   1.586  0.0565 -0.4429  0.8485
  976MOL0     C31661   9.835   6.517   1.570 -0.1913 -0.4420 -0.3930
  976MOL0     C31662   9.977   6.522   1.591  0.2911 -0.2255 -0.3862
  976MOL0     C31663  10.038   6.665   1.562  0.4119  0.4587  0.0777
  976MOL0     C31664  10.042   6.750   1.679  0.2319 -0.6618 -0.6379
  976MOL0     C31665  10.115   6.877   1.651 -0.5396 -0.4950  0.1335
  976MOL0     C31666  10.139   6.962   1.776 -0.1644  0.3093  0.0911
  976MOL0     C31667  10.184   7.100   1.729 -0.0327  0.3814  0.4366
  976MOL0     C31668  10.153   7.208   1.828 -0.0848 -0.1721  0.3676
  976MOL0    Cl31669   9.976   7.261   1.814  0.1783 -0.2513  0.0158
  976MOL0     C31670   9.548   6.405   1.559  0.2522  0.7549  0.1807
  976MOL0     C31671   9.433   6.368   1.481  0.5108 -0.6455 -0.6678
  976MOL0     O31672   9.385   6.339   1.118 -0.3381  0.1422 -0.2865
  976MOL0     C31673   9.146   6.295   1.002  1.1754  0.2500 -0.3644
  976MOL0     C31674   9.017   6.279   0.955 -0.1580 -0.6661 -0.2040
  976MOL0     N31675   8.614   5.691   0.759 -0.8584  0.9432 -0.1706
  976MOL0     N31676   8.601   5.682   0.629 -0.0827 -0.1326  0.3261
  976MOL0     C31677   7.486   5.459   1.144 -0.6104  0.1265  0.1434
  976MOL0     C31678   7.349   5.476   1.187 -0.7160  0.4360  0.0660
  976MOL0     C31679   6.935   5.726   1.210 -0.5152 -0.2881  0.6487
  976MOL0     C31680   6.922   5.718   1.353  0.1456  0.7999  0.1925
  976MOL0     C31681   6.804   5.742   1.418  1.0349 -0.3052 -0.7186
  976MOL0     C31682   6.687   5.788   1.355  0.7457  0.0716  0.4013
  976MOL0     O31683   6.563   5.803   1.406  0.6318 -0.4554  0.7423
  976MOL0     C31684   6.528   5.726   1.520  0.0826  0.2451 -0.5075
  976MOL0     C31685   6.556   5.798   1.662  0.1269 -0.8158 -0.6154
  976MOL0     C31686   6.514   5.946   1.669  0.6075  0.0880 -0.3224
  976MOL0     C31687   6.573   6.027   1.782  0.0639  0.4142 -1.0371
  976MOL0     C31688   6.717   6.027   1.777  0.5669  0.8609 -0.9014
  976MOL0     C31689   6.842   6.027   1.785 -0.2536  0.2423  1.1885
  976MOL0     C31690   6.700   5.793   1.212 -0.6518 -0.5553 -0.0935
  976MOL0     C31691   6.818   5.763   1.143 -0.2290  0.0083 -0.4661
  976MOL0     C31692   6.813   5.787   0.998 -0.3034  0.5753 -0.0888
  976MOL0     H31693   7.312   5.799   1.105 -0.7590  0.4243 -0.1709
  976MOL0     H31694   7.543   5.770   1.010  0.8078  0.2501  2.2445
  976MOL0     H31695   7.630   5.628   0.833 -0.8416  0.1507  0.7946
  976MOL0     H31696   7.745   5.711   0.943 -1.3716 -1.0500  1.6875
  976MOL0     H31697   7.802   5.460   0.770 -0.1310  2.0980 -3.4746
  976MOL0     H31698   7.904   5.513   0.897 -0.2430 -4.1423 -2.8433
  976MOL0     H31699   7.960   5.719   0.775  0.4847  2.4446 -2.5722
  976MOL0     H31700   7.830   5.692   0.654 -1.9804  0.1559  1.2003
  976MOL0     H31701   8.082   5.543   0.711 -0.6646 -1.0486 -0.7951
  976MOL0     H31702   7.974   5.484   0.578  0.6618 -0.1346 -0.9279
  976MOL0     H31703   8.053   5.638   0.436 -1.4834 -1.0002  0.9648
  976MOL0     H31704   8.034   5.771   0.560  2.4798  0.2511  1.1441
  976MOL0     H31705   8.264   5.688   0.659  2.0270  1.6781 -1.4488
  976MOL0     H31706   8.276   5.589   0.523  1.3929  0.8287 -0.3771
  976MOL0     H31707   8.279   5.895   0.514 -1.2861  0.0764  0.8101
  976MOL0     H31708   8.254   5.797   0.367  0.4448 -0.0311 -0.0452
  976MOL0     H31709   8.465   5.698   0.387 -0.7508 -0.0317 -0.3673
  976MOL0     H31710   8.488   5.864   0.400 -1.6906 -0.0771 -1.4299
  976MOL0     H31711   8.423   5.955   0.693  0.2366  1.0963 -2.8869
  976MOL0     H31712   8.470   5.779   0.997 -0.1337  0.5229  1.1558
  976MOL0     H31713   8.627   5.850   0.991 -0.4728  0.8853  2.9426
  976MOL0     H31714   8.392   6.008   0.907  0.0796 -2.1236  1.0852
  976MOL0     H31715   8.466   6.006   1.071  0.4202 -2.4079 -0.0070
  976MOL0     H31716   8.529   6.207   0.920 -0.1876  0.7477  4.5377
  976MOL0     H31717   8.613   6.097   0.822  1.5874 -0.9224  0.3015
  976MOL0     H31718   8.736   6.016   1.037  3.3975  1.4479  3.6276
  976MOL0     H31719   8.663   6.161   1.109  0.8097 -0.3887  0.8125
  976MOL0     H31720   8.896   6.079   1.200  0.2485  0.1198  0.7935
  976MOL0     H31721   9.135   6.110   1.276  1.9794 -0.5655 -1.3383
  976MOL0     H31722   9.587   6.162   1.260 -0.7222  0.4576 -0.1771
  976MOL0     H31723   9.782   6.255   1.365 -0.0042  0.8473 -0.7539
  976MOL0     H31724   9.811   6.563   1.473 -0.4161 -1.7224 -0.9732
  976MOL0     H31725   9.789   6.571   1.652 -1.0053  1.5271 -2.0532
  976MOL0     H31726   9.987   6.488   1.694 -1.1443  0.3286 -0.0385
  976MOL0     H31727  10.030   6.467   1.513  2.5462  2.1727 -0.7056
  976MOL0     H31728  10.135   6.636   1.520 -1.6842 -3.0972 -2.9905
  976MOL0     H31729   9.980   6.710   1.481  2.1067  2.2947 -0.1735
  976MOL0     H31730  10.081   6.705   1.771 -1.8542  1.4033  1.4446
  976MOL0     H31731   9.941   6.769   1.718  0.3873 -0.6895 -0.2136
  976MOL0     H31732  10.065   6.943   1.578  2.4926  1.0958 -0.6771
  976MOL0     H31733  10.212   6.848   1.612 -1.2299 -0.5976 -1.6152
  976MOL0     H31734  10.049   6.985   1.834  0.4866  0.1794  1.1856
  976MOL0     H31735  10.206   6.909   1.844 -0.3345  0.0425  0.0527
  976MOL0     H31736  10.150   7.132   1.631 -0.2856 -0.3372  0.2834
  976MOL0     H31737  10.292   7.086   1.713 -0.4571 -1.6581 -0.9620
  976MOL0     H31738  10.172   7.182   1.932 -0.3980  3.3087  1.4242
  976MOL0     H31739  10.217   7.296   1.814 -0.8098  0.1418 -1.1917
  976MOL0     H31740   9.527   6.474   1.640 -1.2591  0.6135 -0.0570
  976MOL0     H31741   9.332   6.402   1.502  0.7976  0.5684 -1.2253
  976MOL0     H31742   9.221   6.328   0.931  0.0239 -2.5965 -3.1692
  976MOL0     H31743   8.989   6.321   0.858 -2.3854 -1.0911  0.2148
  976MOL0     H31744   7.542   5.369   1.170  1.8941  1.6925  0.5110
  976MOL0     H31745   7.297   5.395   1.237  1.1452 -0.2240  1.0364
  976MOL0     H31746   7.010   5.687   1.408 -1.2150 -0.2978  1.8831
  976MOL0     H31747   6.799   5.716   1.524  0.7966  2.7140  0.1056
  976MOL0     H31748   6.578   5.629   1.511  0.7368  0.0441  3.6165
  976MOL0     H31749   6.419   5.712   1.520 -0.1305  1.0779 -3.6254
  976MOL0     H31750   6.662   5.774   1.681  0.5554 -1.8150 -3.7254
  976MOL0     H31751   6.498   5.747   1.740  1.2180  1.7343  2.0431
  976MOL0     H31752   6.405   5.946   1.676  0.5659 -0.8429 -0.8219
  976MOL0     H31753   6.547   5.994   1.576  0.9779  1.0178  0.2744
  976MOL0     H31754   6.552   6.134   1.769 -1.3249  0.5210  1.5677
  976MOL0     H31755   6.539   5.990   1.879  1.0295  0.8483 -0.5158
  976MOL0     H31756   6.949   6.029   1.784 -0.1584 -1.9757  1.9344
  976MOL0     H31757   6.616   5.826   1.151  0.7763  1.3240 -1.1504
  976MOL0     H31758   6.712   5.772   0.959  0.3018 -2.0748 -0.8363
  976MOL0     H31759   6.859   5.884   0.980  1.5824 -0.1830  0.4729
  976MOL0     H31760   6.872   5.707   0.952  0.9744 -0.0014  2.3550
  977MOL0     O31761  10.100   0.995   2.340  0.2876 -0.0184  0.3028
  977MOL0     C31762  10.090   1.115   2.354  0.1544 -0.7719  0.6199
  977MOL0     O31763  10.188   1.202   2.321 -0.3507 -0.0596  1.1965
  977MOL0     C31764  10.322   1.176   2.301  0.8018  0.1153 -0.2774
  977MOL0     C31765  10.387   1.068   2.358  0.3329  0.4059 -0.1371
  977MOL0     C31766  10.528   1.059   2.342  0.4805 -0.2784 -0.0958
  977MOL0     C31767  10.600   1.155   2.258  0.2551 -0.3394  0.0887
  977MOL0     O31768  10.739   1.141   2.258  0.0978 -0.5674  0.4469
  977MOL0     C31769  10.822   1.205   2.156  1.1803  0.4864 -1.1034
  977MOL0     C31770  10.967   1.158   2.167 -0.0998  0.3422 -0.4626
  977MOL0     C31771  10.990   1.014   2.117  0.9415 -0.1950 -0.8063
  977MOL0     C31772  11.133   0.976   2.147 -0.1400  0.2182  0.6269
  977MOL0     C31773  11.163   0.823   2.100 -0.5049  0.6457  0.4207
  977MOL0     C31774  11.213   0.809   1.959 -0.1987 -0.5897  0.7569
  977MOL0     C31775  11.239   0.668   1.905  0.5195  0.4282  0.3330
  977MOL0     C31776  11.108   0.607   1.857  0.5391 -1.1588  0.2703
  977MOL0     N31777  11.116   0.488   1.779 -0.4834 -0.2929 -0.3026
  977MOL0     C31778  11.092   0.478   1.646 -0.3156 -0.5151  0.4034
  977MOL0     C31779  11.084   0.347   1.610 -0.3041 -0.1766 -0.4322
  977MOL0     C31780  11.054   0.303   1.473 -0.2583  0.1060 -0.0542
  977MOL0     C31781  10.912   0.330   1.435 -0.3114  0.0589 -0.3549
  977MOL0     C31782  10.809   0.254   1.525 -0.1000 -0.2890 -0.0973
  977MOL0     C31783  10.769   0.127   1.457 -0.3663  0.1772 -0.0091
  977MOL0     O31784  10.688   0.145   1.333 -0.1417 -0.3881  0.0127
  977MOL0     C31785  10.551   0.170   1.337 -0.2960  0.0901 -0.4631
  977MOL0     C31786  10.490   0.178   1.209 -0.8378  0.3264  0.7143
  977MOL0     C31787  10.353   0.196   1.195  0.1605  0.0837  0.0640
  977MOL0     C31788  10.271   0.206   1.307 -0.3165 -0.0143 -0.4320
  977MOL0     C31789  10.133   0.239   1.294 -0.6549  1.2592 -0.6233
  977MOL0     O31790  10.058   0.229   1.408 -0.0429 -0.1509  0.0669
  977MOL0     C31791   9.926   0.268   1.416 -0.0153  0.3303 -0.2105
  977MOL0     C31792   9.851   0.207   1.516 -0.0498  0.2071 -0.2032
  977MOL0     C31793   9.708   0.219   1.523 -0.0846 -0.2035 -0.1171
  977MOL0     C31794   9.638   0.296   1.427  0.5365 -0.5067  0.1088
  977MOL0     O31795   9.500   0.304   1.449  0.5453  0.6237  0.0865
  977MOL0     C31796   9.416   0.394   1.372 -0.7961 -0.0155 -0.0827
  977MOL0     C31797   9.280   0.346   1.393  0.4784  0.0790  0.4309
  977MOL0     C31798   9.244   0.220   1.312 -0.5262 -0.3845  0.2877
  977MOL0     C31799   9.231   0.244   1.162  0.9728  0.7134  0.2392
  977MOL0     C31800   9.194   0.113   1.082  0.2312 -0.7203 -0.4788
  977MOL0     C31801   9.059   0.112   1.009 -0.2592 -0.1290  0.6326
  977MOL0     C31802   8.944   0.123   1.116  0.8190  0.2866  0.4108
  977MOL0     C31803   8.805   0.117   1.049  0.3063 -0.7203 -0.2027
  977MOL0    Cl31804   8.796   0.241   0.918  0.5862 -0.0541 -0.9738
  977MOL0     C31805   9.716   0.355   1.331 -0.1330  0.0454  0.8867
  977MOL0     C31806   9.859   0.344   1.319  0.4764 -0.7408 -0.5186
  977MOL0     O31807  10.091   0.271   1.181  0.0779  0.0366 -0.1071
  977MOL0     C31808  10.328   0.171   1.436  1.0635 -0.0068  0.9011
  977MOL0     C31809  10.465   0.168   1.451  0.4521 -0.8926  0.0533
  977MOL0     N31810  11.106   0.277   1.729  0.1729 -0.5717 -0.2398
  977MOL0     N31811  11.112   0.361   1.826  0.0043  0.0226 -0.5044
  977MOL0     C31812  10.528   1.258   2.200  1.0187 -0.2500  0.1040
  977MOL0     C31813  10.391   1.267   2.220  0.4252  0.4423 -0.8305
  977MOL0     C31814   9.959   1.157   2.398  0.2621 -0.0510 -0.8247
  977MOL0     C31815   9.857   1.059   2.403 -0.1052  0.5840  0.0049
  977MOL0     C31816   9.731   1.088   2.459 -0.8277  0.6553 -0.6073
  977MOL0     C31817   9.693   1.220   2.486  0.6284  0.3477 -0.1683
  977MOL0     O31818   9.565   1.259   2.535 -0.6451  0.3221 -0.3930
  977MOL0     C31819   9.453   1.173   2.519  0.6726 -0.0220 -0.0761
  977MOL0     C31820   9.327   1.267   2.534 -0.2235  0.4982  0.3105
  977MOL0     C31821   9.303   1.323   2.677 -0.3519 -0.0955  0.1807
  977MOL0     C31822   9.191   1.238   2.748 -0.7219 -0.2982 -0.1264
  977MOL0     C31823   9.056   1.272   2.708 -0.1446  0.1694  0.2823
  977MOL0     C31824   8.942   1.283   2.663 -0.3423 -0.0835  0.8574
  977MOL0     C31825   9.790   1.319   2.477  0.2525 -0.2507  0.1081
  977MOL0     C31826   9.922   1.290   2.440  0.7150 -0.3840 -0.1017
  977MOL0     C31827  10.007   1.415   2.438  0.5705  0.3172 -0.8787
  977MOL0     H31828  10.336   0.988   2.409  1.4472 -0.9632 -1.0605
  977MOL0     H31829  10.589   0.983   2.391  1.7022 -0.0713 -1.2136
  977MOL0     H31830  10.788   1.171   2.058  2.2300  0.6707 -1.5493
  977MOL0     H31831  10.814   1.314   2.163  1.0142  0.3539  2.0635
  977MOL0     H31832  10.995   1.171   2.272 -0.8317 -0.0081 -0.2132
  977MOL0     H31833  11.023   1.234   2.111 -0.1081 -0.3673 -1.4495
  977MOL0     H31834  10.978   1.009   2.008  1.4572  2.1032 -1.0228
  977MOL0     H31835  10.921   0.955   2.177  1.2499  1.2417  1.0434
  977MOL0     H31836  11.197   1.043   2.089  0.8081 -2.6883 -1.9585
  977MOL0     H31837  11.143   0.969   2.256 -0.3272  0.4038  0.6545
  977MOL0     H31838  11.243   0.787   2.164 -0.0901 -0.8774 -0.8959
  977MOL0     H31839  11.075   0.761   2.121  0.4601 -0.5119  1.1911
  977MOL0     H31840  11.141   0.861   1.895  0.4457  0.6084  0.9858
  977MOL0     H31841  11.306   0.866   1.954 -1.1167  0.9214 -3.0307
  977MOL0     H31842  11.294   0.616   1.984  2.0892  2.7506  0.8772
  977MOL0     H31843  11.296   0.667   1.811 -2.2877 -1.1421 -1.4912
  977MOL0     H31844  11.036   0.601   1.939 -0.3610  0.2785 -0.3724
  977MOL0     H31845  11.052   0.669   1.787  0.3963 -0.2720  1.1526
  977MOL0     H31846  11.079   0.568   1.586 -0.2929 -1.6026 -1.3093
  977MOL0     H31847  11.122   0.360   1.409 -0.0197  1.5685  1.4535
  977MOL0     H31848  11.078   0.197   1.458  2.4496  0.8538 -1.8016
  977MOL0     H31849  10.892   0.437   1.436  0.4677  0.2543  2.4417
  977MOL0     H31850  10.909   0.293   1.332 -0.1646 -1.4166  0.1454
  977MOL0     H31851  10.728   0.321   1.554  2.2035  2.0102  1.5456
  977MOL0     H31852  10.856   0.223   1.619  1.2979  0.8781 -0.3699
  977MOL0     H31853  10.711   0.065   1.527 -3.8911  1.0446 -1.9105
  977MOL0     H31854  10.855   0.070   1.422 -0.6949 -0.6745  0.5488
  977MOL0     H31855  10.552   0.174   1.121 -1.3036  1.7877  0.2822
  977MOL0     H31856  10.310   0.210   1.096 -0.0819 -0.0945  0.1449
  977MOL0     H31857   9.903   0.151   1.593  1.1824 -1.8257 -2.3559
  977MOL0     H31858   9.664   0.167   1.607  1.7746 -0.3127  0.8388
  977MOL0     H31859   9.432   0.493   1.415 -0.6267 -1.2731  3.0343
  977MOL0     H31860   9.443   0.388   1.267  0.4389 -2.5898  0.2895
  977MOL0     H31861   9.256   0.347   1.500  0.4070  1.0852  0.4191
  977MOL0     H31862   9.211   0.423   1.359  0.7396  0.0630 -0.1500
  977MOL0     H31863   9.322   0.143   1.309 -0.0801 -0.0660  2.2767
  977MOL0     H31864   9.151   0.177   1.350 -0.3859  2.3935  4.4463
  977MOL0     H31865   9.332   0.270   1.132  0.2624  2.1682 -1.0217
  977MOL0     H31866   9.155   0.318   1.135 -1.1961 -1.5321 -0.1606
  977MOL0     H31867   9.194   0.030   1.154 -0.0603 -0.3326 -0.0263
  977MOL0     H31868   9.284   0.093   1.023  0.6201  0.0146 -0.1385
  977MOL0     H31869   9.066   0.208   0.957  2.8332  1.2812  3.3011
  977MOL0     H31870   9.045   0.034   0.933  1.3570  1.2269 -1.1605
  977MOL0     H31871   8.946   0.201   1.192 -0.6061 -0.2723  1.0439
  977MOL0     H31872   8.959   0.031   1.173  1.3352  0.1738  0.1010
  977MOL0     H31873   8.802   0.023   0.993  1.3094 -1.3315  0.7306
  977MOL0     H31874   8.731   0.115   1.130  0.4218  2.9035  0.1292
  977MOL0     H31875   9.661   0.417   1.261  1.5575  0.6459  0.0297
  977MOL0     H31876   9.912   0.399   1.242  0.5374  0.0167  0.0556
  977MOL0     H31877  10.272   0.182   1.528  0.6233  4.2570  0.3069
  977MOL0     H31878  10.515   0.141   1.544  0.9481 -1.8165 -0.4696
  977MOL0     H31879  10.575   1.333   2.137 -0.8199  1.1218  0.2785
  977MOL0     H31880  10.338   1.348   2.171 -2.5209 -0.5031  0.5523
  977MOL0     H31881   9.880   0.954   2.392 -0.3885  0.5490 -0.2433
  977MOL0     H31882   9.663   1.005   2.475 -0.4350  0.3050 -0.7297
  977MOL0     H31883   9.446   1.102   2.602  1.1544  2.0269  1.8126
  977MOL0     H31884   9.453   1.115   2.426  2.7126 -0.7624  0.3370
  977MOL0     H31885   9.236   1.217   2.500 -0.4288  0.7531  0.4803
  977MOL0     H31886   9.349   1.353   2.470  1.6067 -0.9514 -1.1387
  977MOL0     H31887   9.272   1.428   2.671  0.8365  0.1952 -2.6898
  977MOL0     H31888   9.388   1.306   2.742 -0.0807 -0.5364 -0.2805
  977MOL0     H31889   9.214   1.132   2.737  1.0175 -0.3619  2.9220
  977MOL0     H31890   9.213   1.259   2.853 -3.7943 -0.0272  0.5623
  977MOL0     H31891   8.844   1.303   2.625  0.5295  2.1876 -0.4292
  977MOL0     H31892   9.765   1.421   2.505 -0.2129 -0.3687  0.1357
  977MOL0     H31893   9.977   1.472   2.350 -1.6554  0.5118 -0.0571
  977MOL0     H31894   9.986   1.473   2.528 -0.3964 -0.0850 -0.8298
  977MOL0     H31895  10.115   1.396   2.435  0.6223  0.7113 -1.9744
  978MOL0     O31896   8.705   8.853   8.540 -0.4262 -0.0648 -0.5834
  978MOL0     C31897   8.677   8.866   8.658  0.2579 -0.1528  0.4852
  978MOL0     O31898   8.780   8.896   8.758  0.3325  0.7473 -0.0784
  978MOL0     C31899   8.905   8.919   8.702 -0.6614  0.2219  1.1948
  978MOL0     C31900   8.970   9.047   8.719  1.2462  0.1619  0.4780
  978MOL0     C31901   9.096   9.071   8.677  0.0117  0.8387 -0.4011
  978MOL0     C31902   9.163   8.965   8.607 -0.8994 -0.4037 -0.1286
  978MOL0     O31903   9.283   9.004   8.548 -0.1084 -0.1695 -0.1302
  978MOL0     C31904   9.373   8.914   8.491  1.0773  0.4797 -0.0404
  978MOL0     C31905   9.498   8.987   8.443 -0.1714 -1.0425  0.1619
  978MOL0     C31906   9.619   8.900   8.442  0.5111  0.1310  0.8828
  978MOL0     C31907   9.741   8.975   8.389 -0.9833  0.1930 -0.3110
  978MOL0     C31908   9.861   8.872   8.381 -0.0688  0.6255  0.6027
  978MOL0     C31909   9.994   8.942   8.352  0.7559 -0.3566 -0.5546
  978MOL0     C31910  10.108   8.845   8.334 -0.3613  0.3489  0.0219
  978MOL0     C31911  10.231   8.904   8.258  0.1546 -0.1140 -0.4437
  978MOL0     N31912  10.342   8.802   8.258 -0.3710  0.4974 -0.3661
  978MOL0     C31913  10.382   8.727   8.369  0.2390 -0.5955 -0.2140
  978MOL0     C31914  10.484   8.646   8.326 -0.0852 -0.3719 -0.2983
  978MOL0     C31915  10.554   8.543   8.411 -0.2844  0.9270 -0.5469
  978MOL0     C31916  10.689   8.596   8.478 -0.5772 -0.1948  0.5248
  978MOL0     C31917  10.798   8.637   8.380 -0.7475 -0.7512 -0.2364
  978MOL0     C31918  10.840   8.527   8.275  0.2647 -0.8305 -0.4129
  978MOL0     O31919  10.868   8.410   8.352 -0.3016  0.4595 -0.0383
  978MOL0     C31920  10.998   8.390   8.384 -0.9103 -0.0156 -0.5986
  978MOL0     C31921  11.038   8.368   8.521  0.7065 -0.6328  0.7917
  978MOL0     C31922  11.164   8.359   8.564  0.0566 -0.8403 -0.0887
  978MOL0     C31923  11.272   8.370   8.472 -0.1622  0.6041  0.1639
  978MOL0     C31924  11.419   8.372   8.506 -0.1081 -1.2127 -0.0556
  978MOL0     O31925  11.518   8.368   8.401  0.1473  0.5247 -0.7177
  978MOL0     C31926  11.649   8.396   8.441 -0.1357 -0.4286 -0.2154
  978MOL0     C31927  11.725   8.294   8.493  0.5195  0.1940 -1.0143
  978MOL0     C31928  11.848   8.328   8.557 -0.1949 -1.0551  0.1080
  978MOL0     C31929  11.898   8.464   8.550 -0.2884  0.1182  1.1411
  978MOL0     O31930  12.029   8.482   8.601  0.3102  0.0412 -0.2211
  978MOL0     C31931  12.112   8.568   8.518  0.1507  0.5610 -0.0009
  978MOL0     C31932  12.258   8.569   8.559  0.2832 -0.0969 -0.2126
  978MOL0     C31933  12.339   8.667   8.470  0.7051  0.1538 -0.6764
  978MOL0     C31934  12.374   8.605   8.337 -0.1289 -1.0119  0.2671
  978MOL0     C31935  12.441   8.710   8.246 -0.4259  0.2630 -0.0533
  978MOL0     C31936  12.597   8.684   8.272 -1.0455  0.0201  0.3426
  978MOL0     C31937  12.691   8.746   8.170  0.0918  0.0780 -0.4088
  978MOL0     C31938  12.836   8.700   8.164 -0.1282 -0.5755  0.2809
  978MOL0    Cl31939  12.916   8.719   8.324 -0.1606 -0.1323  0.1569
  978MOL0     C31940  11.827   8.568   8.482  0.5175  0.2856  1.1863
  978MOL0     C31941  11.695   8.534   8.437 -0.4345  0.1817 -0.4469
  978MOL0     O31942  11.440   8.388   8.629  0.4749  0.0100 -0.5175
  978MOL0     C31943  11.234   8.379   8.333  0.2470 -0.3936  0.5577
  978MOL0     C31944  11.108   8.398   8.292  0.4509  0.2390  0.0567
  978MOL0     N31945  10.502   8.679   8.192  0.5494  0.2855  0.0143
  978MOL0     N31946  10.429   8.778   8.150 -0.0685 -0.4251  0.3023
  978MOL0     C31947   9.101   8.835   8.586  0.4457 -1.0249 -0.1618
  978MOL0     C31948   8.977   8.815   8.646  0.3448  0.2335  0.8010
  978MOL0     C31949   8.533   8.870   8.703 -0.3218 -0.4035 -0.5032
  978MOL0     C31950   8.505   8.941   8.822  0.0096  0.9664 -0.1065
  978MOL0     C31951   8.382   8.946   8.879 -0.0708 -0.3538 -1.5898
  978MOL0     C31952   8.273   8.899   8.800  0.0986 -0.8414  0.3148
  978MOL0     O31953   8.144   8.924   8.847 -0.1981  0.2409 -0.2694
  978MOL0     C31954   8.037   8.904   8.753 -0.3967 -0.0654 -0.0691
  978MOL0     C31955   7.969   8.756   8.755 -0.9586 -0.0128  0.6006
  978MOL0     C31956   7.908   8.725   8.896  0.4508 -0.0704  0.1019
  978MOL0     C31957   7.846   8.585   8.891 -0.4552 -0.3039 -0.1107
  978MOL0     C31958   7.726   8.576   8.808 -0.0678 -0.1458 -0.4732
  978MOL0     C31959   7.632   8.593   8.730 -0.5812 -0.6164  0.3196
  978MOL0     C31960   8.302   8.824   8.686  0.1478 -1.0768 -0.3433
  978MOL0     C31961   8.433   8.806   8.639 -0.5785  0.0290  0.2297
  978MOL0     C31962   8.463   8.710   8.532  0.1602 -0.2925  0.2464
  978MOL0     H31963   8.907   9.121   8.769 -1.2976  0.2310 -2.5348
  978MOL0     H31964   9.134   9.172   8.694  1.1826  0.3124  0.1961
  978MOL0     H31965   9.399   8.829   8.555 -0.5082 -0.2657 -0.3094
  978MOL0     H31966   9.311   8.862   8.417 -0.2060 -1.3701  2.2208
  978MOL0     H31967   9.514   9.078   8.502  2.3611 -0.3653 -1.4570
  978MOL0     H31968   9.483   9.019   8.340  1.3464 -1.2391 -0.1299
  978MOL0     H31969   9.604   8.823   8.366  0.8765  0.2779  0.6633
  978MOL0     H31970   9.649   8.862   8.540  4.2139 -2.2824 -0.9552
  978MOL0     H31971   9.727   9.031   8.297 -0.3550  2.4250  0.8937
  978MOL0     H31972   9.773   9.048   8.463 -1.8546 -0.2711  0.5537
  978MOL0     H31973   9.866   8.815   8.474 -0.2933  0.4903  0.5317
  978MOL0     H31974   9.851   8.793   8.306 -1.0909 -0.6044  1.9808
  978MOL0     H31975   9.980   9.000   8.260  0.3882 -1.6182 -1.3256
  978MOL0     H31976  10.007   9.014   8.433 -3.1313  0.7430 -0.7168
  978MOL0     H31977  10.081   8.754   8.280  2.4048 -1.1986  1.0486
  978MOL0     H31978  10.138   8.816   8.436  0.7432  0.6566 -0.2070
  978MOL0     H31979  10.204   8.923   8.154  2.5543 -2.6261 -1.6956
  978MOL0     H31980  10.256   8.998   8.308 -2.5180 -1.3465  3.7510
  978MOL0     H31981  10.326   8.720   8.462 -2.2595  1.8605 -1.4114
  978MOL0     H31982  10.488   8.508   8.492  1.4724  0.8761  0.9153
  978MOL0     H31983  10.579   8.457   8.347  0.1764  0.3467  0.3863
  978MOL0     H31984  10.674   8.682   8.544  0.9643  0.5098  0.0088
  978MOL0     H31985  10.725   8.519   8.546  1.9220  1.5747  1.3798
  978MOL0     H31986  10.888   8.663   8.437 -1.0121  0.8635 -0.4993
  978MOL0     H31987  10.765   8.731   8.333  1.3538  0.9193  1.4175
  978MOL0     H31988  10.921   8.560   8.209 -0.6750  1.0617 -0.6889
  978MOL0     H31989  10.751   8.516   8.212 -0.0741  0.7075 -0.2627
  978MOL0     H31990  10.960   8.370   8.596 -0.7531 -0.0166 -0.6944
  978MOL0     H31991  11.177   8.348   8.672 -2.4343  0.0236  0.3608
  978MOL0     H31992  11.682   8.194   8.497  0.6826  0.1489 -0.2657
  978MOL0     H31993  11.913   8.249   8.594  1.6617 -0.1698 -1.1065
  978MOL0     H31994  12.101   8.531   8.416  0.5017  0.1179  0.1171
  978MOL0     H31995  12.073   8.669   8.533 -2.9134 -0.2321 -1.7257
  978MOL0     H31996  12.261   8.602   8.663 -0.3677 -0.2275 -0.1449
  978MOL0     H31997  12.287   8.464   8.549  1.3342  0.2457 -0.8734
  978MOL0     H31998  12.285   8.759   8.445 -0.6346 -0.3398  0.2623
  978MOL0     H31999  12.428   8.697   8.525  0.4976 -0.2970 -0.0839
  978MOL0     H32000  12.284   8.592   8.274  0.8862  1.4006 -1.8563
  978MOL0     H32001  12.432   8.515   8.359  1.1638  0.0818  1.5056
  978MOL0     H32002  12.414   8.809   8.282  1.2230  0.7724 -0.1428
  978MOL0     H32003  12.422   8.694   8.139  2.4361 -0.3393 -0.5523
  978MOL0     H32004  12.619   8.707   8.376  0.8865  1.5186 -0.3279
  978MOL0     H32005  12.602   8.576   8.259 -2.8781 -0.3118  1.9832
  978MOL0     H32006  12.697   8.855   8.171  4.6406  0.0063  0.5381
  978MOL0     H32007  12.644   8.707   8.080 -1.6873 -3.5543  1.8573
  978MOL0     H32008  12.835   8.594   8.139 -0.8644 -0.1733 -1.6474
  978MOL0     H32009  12.883   8.750   8.079 -1.4947  0.9380  0.3620
  978MOL0     H32010  11.858   8.672   8.481 -0.2793  0.5467  2.1996
  978MOL0     H32011  11.634   8.617   8.403 -0.8717  0.8670  1.7931
  978MOL0     H32012  11.313   8.379   8.259  0.5253  1.6311  0.8040
  978MOL0     H32013  11.089   8.409   8.186  2.0207 -1.5862 -0.4808
  978MOL0     H32014   9.132   8.754   8.522 -2.9532 -2.6618  0.0714
  978MOL0     H32015   8.929   8.719   8.626 -0.7009  1.1546 -1.5050
  978MOL0     H32016   8.588   8.999   8.862  2.3520  0.0905 -3.2371
  978MOL0     H32017   8.368   8.997   8.974  1.5040  0.2502 -1.6562
  978MOL0     H32018   8.051   8.921   8.646 -2.7362 -0.0201 -0.4181
  978MOL0     H32019   7.962   8.972   8.793 -1.8813 -2.2018  1.0046
  978MOL0     H32020   8.050   8.690   8.723  1.0561  2.6460 -0.1543
  978MOL0     H32021   7.887   8.757   8.683 -0.0384  1.9611 -0.5023
  978MOL0     H32022   7.832   8.798   8.927 -0.8056 -0.6012 -1.6164
  978MOL0     H32023   7.995   8.725   8.962 -1.2449  1.5439  2.5089
  978MOL0     H32024   7.924   8.515   8.860  0.4764 -0.1449  1.7656
  978MOL0     H32025   7.824   8.551   8.993  0.5449  1.7222  0.8349
  978MOL0     H32026   7.565   8.628   8.654  1.8621  0.7164 -1.3621
  978MOL0     H32027   8.224   8.771   8.632 -0.1863 -1.7072  0.7172
  978MOL0     H32028   8.462   8.761   8.436 -0.4675  0.3690  0.5964
  978MOL0     H32029   8.558   8.659   8.552  0.7444  1.1848  1.4260
  978MOL0     H32030   8.379   8.640   8.534 -0.0764 -0.0673 -1.0563
  979MOL0     O32031  10.661   7.914   2.810 -0.1712  0.4644  1.1352
  979MOL0     C32032  10.591   7.980   2.893  0.2205  0.0648 -0.3116
  979MOL0     O32033  10.645   8.082   2.968 -0.0514 -0.0365 -0.7373
  979MOL0     C32034  10.778   8.113   2.958  0.4472  0.4298  0.3217
  979MOL0     C32035  10.820   8.204   2.853 -0.6991 -0.0871 -0.4213
  979MOL0     C32036  10.958   8.227   2.839  0.3667 -0.4699 -0.6501
  979MOL0     C32037  11.054   8.170   2.919  0.0709  0.2091  0.1562
  979MOL0     O32038  11.188   8.198   2.920 -0.7435 -0.5147  0.3729
  979MOL0     C32039  11.252   8.262   2.807 -0.1903  0.4578 -0.0502
  979MOL0     C32040  11.400   8.229   2.824 -0.5644 -0.2594 -0.4940
  979MOL0     C32041  11.486   8.279   2.708 -0.4555 -0.2872  0.1170
  979MOL0     C32042  11.626   8.218   2.737 -0.1244 -0.1801 -0.0130
  979MOL0     C32043  11.713   8.228   2.606 -0.1884  0.1543 -0.1778
  979MOL0     C32044  11.797   8.105   2.600 -0.1199  0.2387  0.3774
  979MOL0     C32045  11.901   8.129   2.478  0.0881  0.1363  0.1234
  979MOL0     C32046  11.975   7.993   2.446 -0.0343 -0.2047  0.2331
  979MOL0     N32047  12.059   7.949   2.551 -0.4057  0.0797 -0.4442
  979MOL0     C32048  12.170   8.004   2.591  0.1881 -0.4212 -0.2130
  979MOL0     C32049  12.197   7.971   2.723  0.2931  0.4213 -0.0561
  979MOL0     C32050  12.322   8.002   2.800  0.8608 -0.3831 -0.4968
  979MOL0     C32051  12.422   7.886   2.801  1.5031  0.2058  0.5291
  979MOL0     C32052  12.567   7.940   2.798  0.1058  0.1428  0.4690
  979MOL0     C32053  12.606   7.975   2.940 -0.6469 -0.6051 -0.5374
  979MOL0     O32054  12.715   8.062   2.929 -0.1874 -1.0030 -0.1740
  979MOL0     C32055  12.847   8.015   2.931 -0.3409 -0.5540  0.6755
  979MOL0     C32056  12.943   8.114   2.969  0.6847  0.3902  0.4959
  979MOL0     C32057  13.071   8.076   2.998  0.2731 -0.8932 -0.0909
  979MOL0     C32058  13.113   7.942   2.983 -0.5443  0.0407 -0.1608
  979MOL0     C32059  13.254   7.911   3.008 -0.1018 -0.1341 -0.2543
  979MOL0     O32060  13.280   7.779   3.009  0.1423  0.1686 -0.0984
  979MOL0     C32061  13.404   7.731   3.053 -0.1712  0.1164  0.2832
  979MOL0     C32062  13.530   7.782   3.006  0.6191 -0.0683 -0.4871
  979MOL0     C32063  13.651   7.728   3.042 -0.5509 -0.5514 -0.0405
  979MOL0     C32064  13.660   7.622   3.134 -0.5245 -0.1182 -0.6985
  979MOL0     O32065  13.780   7.575   3.173  0.1424 -0.6072  0.8128
  979MOL0     C32066  13.816   7.620   3.308 -0.4560  0.1417  0.5673
  979MOL0     C32067  13.962   7.622   3.320 -0.3053 -0.3351 -0.2633
  979MOL0     C32068  14.030   7.736   3.250 -0.6466 -0.2848 -0.5438
  979MOL0     C32069  14.180   7.704   3.233 -1.0813 -0.0252  1.0219
  979MOL0     C32070  14.259   7.826   3.170 -0.0850  1.2088 -0.6881
  979MOL0     C32071  14.413   7.806   3.190  0.1576  0.4784 -0.4889
  979MOL0     C32072  14.464   7.681   3.122 -0.1504 -0.3934  0.2623
  979MOL0     C32073  14.613   7.646   3.140 -0.5634 -0.7631 -0.7850
  979MOL0    Cl32074  14.726   7.746   3.038  0.3637 -0.0712  0.0597
  979MOL0     C32075  13.540   7.572   3.182  0.1795  0.3179  0.8465
  979MOL0     C32076  13.417   7.624   3.137 -0.0524  1.4776  0.0703
  979MOL0     O32077  13.333   7.998   3.035  0.1766 -0.1537 -0.1069
  979MOL0     C32078  13.013   7.848   2.939 -0.1822  0.0665 -1.0103
  979MOL0     C32079  12.886   7.882   2.913  0.5235  0.3578 -1.1583
  979MOL0     N32080  12.088   7.889   2.760 -0.2870  0.4778  0.7454
  979MOL0     N32081  12.016   7.869   2.653 -0.2472 -0.5336  0.0272
  979MOL0     C32082  11.009   8.087   3.028 -0.3131  0.1576  0.7192
  979MOL0     C32083  10.872   8.063   3.044  0.3929  0.4059  0.6093
  979MOL0     C32084  10.442   7.935   2.913 -0.0216 -0.0721 -0.5426
  979MOL0     C32085  10.364   8.003   3.004  0.1363  1.3641  0.0294
  979MOL0     C32086  10.236   7.960   3.043 -0.4772  0.8722  0.3999
  979MOL0     C32087  10.174   7.858   2.973 -0.1475 -1.0878  0.0410
  979MOL0     O32088  10.045   7.824   3.001  0.5019  0.2547 -0.7542
  979MOL0     C32089   9.955   7.851   2.888 -0.1474  0.1386  0.4566
  979MOL0     C32090   9.834   7.939   2.934 -0.7757  0.1006  0.1317
  979MOL0     C32091   9.735   7.846   3.015  0.0027 -0.1599  0.1389
  979MOL0     C32092   9.626   7.933   3.075  0.3845 -0.0134 -0.0394
  979MOL0     C32093   9.524   7.856   3.142 -0.2061 -0.4814 -0.5465
  979MOL0     C32094   9.441   7.784   3.196  0.2855  0.1563 -0.1522
  979MOL0     C32095  10.242   7.792   2.871  0.4626  0.6908  0.4117
  979MOL0     C32096  10.379   7.821   2.849  0.4616 -0.5866  0.1583
  979MOL0     C32097  10.453   7.725   2.751  0.4132 -0.8016 -0.3898
  979MOL0     H32098  10.748   8.241   2.781 -1.6345  2.4178  1.6575
  979MOL0     H32099  10.987   8.298   2.763 -2.7519  1.5694 -0.1318
  979MOL0     H32100  11.218   8.226   2.710 -1.5839  0.6500  0.3526
  979MOL0     H32101  11.245   8.371   2.803  0.8502  0.6294  1.7861
  979MOL0     H32102  11.411   8.120   2.827  4.0580 -0.1244 -3.3862
  979MOL0     H32103  11.434   8.282   2.913  0.9744  1.0425 -1.8006
  979MOL0     H32104  11.484   8.388   2.712 -1.0341 -0.3454  2.4619
  979MOL0     H32105  11.449   8.245   2.611  2.0163 -3.9555  0.2476
  979MOL0     H32106  11.672   8.262   2.826 -3.0054 -2.3606  2.7965
  979MOL0     H32107  11.604   8.117   2.771 -0.8808  0.0290  0.1437
  979MOL0     H32108  11.641   8.222   2.523 -2.0631 -1.5096  1.4517
  979MOL0     H32109  11.755   8.329   2.602 -0.8662  0.5223  1.3691
  979MOL0     H32110  11.850   8.090   2.695  1.0748 -0.3850 -0.3568
  979MOL0     H32111  11.736   8.019   2.571  0.5206 -0.0245 -0.2286
  979MOL0     H32112  11.966   8.211   2.510 -0.2748  0.6621 -0.4525
  979MOL0     H32113  11.837   8.159   2.394 -1.0958  0.8571  1.2570
  979MOL0     H32114  11.893   7.924   2.425 -0.9279  1.0450 -0.4877
  979MOL0     H32115  12.037   8.001   2.356 -1.1014  2.8679 -0.3407
  979MOL0     H32116  12.233   8.069   2.531 -1.0904 -0.5486 -1.7681
  979MOL0     H32117  12.365   8.095   2.760 -3.7417  2.1343 -0.2857
  979MOL0     H32118  12.295   8.031   2.903 -0.8001 -2.6339 -0.2090
  979MOL0     H32119  12.409   7.815   2.883  0.9003 -2.3253 -1.6502
  979MOL0     H32120  12.409   7.831   2.708 -0.1207 -0.1906  0.9522
  979MOL0     H32121  12.582   8.022   2.727 -0.6566 -1.3285 -1.4897
  979MOL0     H32122  12.636   7.864   2.762 -1.3781  0.2603 -3.0913
  979MOL0     H32123  12.624   7.882   2.995 -1.1077 -1.9893 -2.6217
  979MOL0     H32124  12.526   8.029   2.992  1.8110  0.0603  2.8588
  979MOL0     H32125  12.918   8.219   2.977  2.2469  0.9408 -1.2091
  979MOL0     H32126  13.142   8.155   3.018  1.9595 -2.9287  2.6632
  979MOL0     H32127  13.525   7.859   2.930  2.2282  0.9454  0.3788
  979MOL0     H32128  13.742   7.769   3.000  0.4997 -0.0546  2.5257
  979MOL0     H32129  13.771   7.718   3.328 -1.9079 -0.6833  1.4795
  979MOL0     H32130  13.770   7.546   3.374  0.3044 -1.4900 -0.6732
  979MOL0     H32131  13.985   7.630   3.426 -0.8265 -1.7426 -0.0190
  979MOL0     H32132  14.009   7.528   3.290  1.5097  0.3900  0.2083
  979MOL0     H32133  13.988   7.760   3.152  1.8198 -1.7915 -2.0833
  979MOL0     H32134  14.022   7.821   3.318 -1.3391  0.7124 -1.8366
  979MOL0     H32135  14.191   7.614   3.172  1.8794 -1.0432  2.8520
  979MOL0     H32136  14.237   7.676   3.323  2.6109  2.1974 -0.3860
  979MOL0     H32137  14.233   7.918   3.223  0.0016  0.1346  1.3021
  979MOL0     H32138  14.236   7.841   3.064  0.8451 -3.1692 -1.6923
  979MOL0     H32139  14.459   7.898   3.152 -0.7329  1.6312  1.1223
  979MOL0     H32140  14.443   7.810   3.295  1.6681  1.1553 -0.9178
  979MOL0     H32141  14.456   7.711   3.017 -0.0240 -2.2223 -0.2966
  979MOL0     H32142  14.399   7.596   3.143 -0.5520 -0.0504  0.4294
  979MOL0     H32143  14.643   7.648   3.245 -0.0870  3.1229 -0.8714
  979MOL0     H32144  14.623   7.543   3.103  1.1740  0.2844 -3.4754
  979MOL0     H32145  13.539   7.486   3.248  2.3806 -0.5505 -0.1425
  979MOL0     H32146  13.328   7.585   3.186  0.7959  0.6311  0.9811
  979MOL0     H32147  13.047   7.744   2.943 -3.1908 -0.9954 -0.7840
  979MOL0     H32148  12.823   7.796   2.898 -0.4959  0.7928  0.3566
  979MOL0     H32149  11.089   8.051   3.091  0.2935 -1.0463 -0.6903
  979MOL0     H32150  10.839   8.007   3.131 -1.2927 -0.5468 -0.5705
  979MOL0     H32151  10.411   8.088   3.052 -0.6394  1.4912  0.5714
  979MOL0     H32152  10.182   8.009   3.124 -2.4839  1.2809 -1.0940
  979MOL0     H32153   9.916   7.758   2.847  0.4709  0.9278 -2.0651
  979MOL0     H32154  10.008   7.903   2.808 -0.5149 -1.9343 -1.1973
  979MOL0     H32155   9.782   7.982   2.847  1.5364  0.2136 -1.2730
  979MOL0     H32156   9.872   8.019   2.997 -0.5889 -1.4458  2.0815
  979MOL0     H32157   9.786   7.786   3.091  1.3161 -0.6857 -1.1164
  979MOL0     H32158   9.688   7.779   2.943  0.7310  0.3099 -0.7978
  979MOL0     H32159   9.661   7.999   3.154 -1.3717  1.9293 -0.8012
  979MOL0     H32160   9.573   7.990   2.998  0.2105  1.9530  1.4748
  979MOL0     H32161   9.361   7.725   3.237  1.3917  0.5052  2.7627
  979MOL0     H32162  10.200   7.706   2.820  2.2541 -0.5919  1.0140
  979MOL0     H32163  10.395   7.634   2.734 -1.2689  0.3220 -0.9873
  979MOL0     H32164  10.465   7.771   2.652 -1.3458  0.7714  0.0480
  979MOL0     H32165  10.555   7.701   2.782  2.1213  4.8773 -0.4623
  980MOL0     O32166   8.964   7.576   6.187  0.1422 -0.2200 -0.0249
  980MOL0     C32167   8.883   7.483   6.205 -0.1516  0.9226  0.1822
  980MOL0     O32168   8.910   7.349   6.213  0.2680 -0.5333  0.1799
  980MOL0     C32169   9.037   7.319   6.245  0.1293 -0.2392 -0.5387
  980MOL0     C32170   9.064   7.311   6.373 -0.4356 -0.1962 -1.1398
  980MOL0     C32171   9.199   7.292   6.417  0.7568 -0.5785  0.2929
  980MOL0     C32172   9.301   7.265   6.316 -0.1177  0.2218  0.2062
  980MOL0     O32173   9.437   7.242   6.345  0.0308 -0.8055 -0.3671
  980MOL0     C32174   9.483   7.232   6.484  0.2397  0.4008  0.0371
  980MOL0     C32175   9.633   7.247   6.492  0.2214  0.0826 -0.0796
  980MOL0     C32176   9.728   7.140   6.425 -0.0987 -0.0957 -0.4016
  980MOL0     C32177   9.872   7.147   6.476  0.8365 -0.0806 -0.9613
  980MOL0     C32178   9.957   7.016   6.482 -0.7547 -0.4317 -0.1105
  980MOL0     C32179  10.012   6.989   6.339 -0.3643 -0.0074 -0.4700
  980MOL0     C32180  10.113   6.875   6.334 -0.0285  0.6213 -0.3284
  980MOL0     C32181  10.133   6.812   6.195 -0.5392 -0.3987  0.1475
  980MOL0     N32182  10.273   6.754   6.193 -0.2113  0.3532  0.4921
  980MOL0     C32183  10.312   6.647   6.265  0.3609 -0.3459 -0.7974
  980MOL0     C32184  10.435   6.611   6.219 -0.0364 -0.7021 -0.4970
  980MOL0     C32185  10.532   6.513   6.272  0.7417  0.1177 -0.4377
  980MOL0     C32186  10.672   6.525   6.209 -0.1821 -0.1044 -0.4588
  980MOL0     C32187  10.762   6.434   6.291 -0.3302  0.7987  0.4555
  980MOL0     C32188  10.906   6.452   6.255 -0.0510  0.6794  0.0277
  980MOL0     O32189  10.916   6.366   6.142  0.2275  0.3192  0.4837
  980MOL0     C32190  11.039   6.330   6.093 -0.3631  0.1194 -0.4348
  980MOL0     C32191  11.166   6.374   6.142 -0.0153 -0.4160  0.1081
  980MOL0     C32192  11.288   6.335   6.091  0.6582  0.2879  0.0403
  980MOL0     C32193  11.281   6.240   5.986 -0.0031 -0.0736 -0.6947
  980MOL0     C32194  11.399   6.187   5.931 -0.1281 -0.0920  0.9964
  980MOL0     O32195  11.506   6.272   5.926  0.2051 -0.0231 -0.1597
  980MOL0     C32196  11.609   6.229   5.843 -1.2845  0.1491  0.0702
  980MOL0     C32197  11.596   6.237   5.707 -0.0328 -0.2062  0.6393
  980MOL0     C32198  11.703   6.206   5.621 -0.5965 -0.0167  0.1386
  980MOL0     C32199  11.820   6.153   5.677 -0.3462 -0.7934  0.2839
  980MOL0     O32200  11.917   6.111   5.592  0.7996  0.2944  0.5098
  980MOL0     C32201  12.044   6.099   5.646 -0.1501  1.1278  0.6592
  980MOL0     C32202  12.163   6.100   5.542 -0.2942 -0.0691  0.4589
  980MOL0     C32203  12.290   6.058   5.609  0.0591  0.5578 -0.7317
  980MOL0     C32204  12.423   6.057   5.541  0.0919 -0.8223 -1.0994
  980MOL0     C32205  12.536   6.029   5.638 -0.0625 -0.1794 -0.1610
  980MOL0     C32206  12.667   6.013   5.553  0.1230 -0.0192 -0.6714
  980MOL0     C32207  12.795   5.986   5.645  0.4235  0.6429 -0.9970
  980MOL0     C32208  12.925   6.006   5.570 -0.4488 -0.7237  0.7309
  980MOL0    Cl32209  13.037   6.092   5.680  0.1816 -0.3908  0.4275
  980MOL0     C32210  11.826   6.131   5.814  0.4587 -0.1364  0.5041
  980MOL0     C32211  11.719   6.165   5.898 -0.2323  0.2101 -0.1044
  980MOL0     O32212  11.409   6.076   5.879  0.6936 -0.0364  0.5069
  980MOL0     C32213  11.157   6.189   5.932 -0.1644 -0.0946  0.2873
  980MOL0     C32214  11.041   6.238   5.985 -0.4618 -0.9284 -0.9400
  980MOL0     N32215  10.460   6.703   6.118 -0.5318 -0.4842  0.5034
  980MOL0     N32216  10.366   6.778   6.096 -0.0869  0.1931 -0.1311
  980MOL0     C32217   9.260   7.266   6.182 -0.6513  0.4768 -0.4253
  980MOL0     C32218   9.132   7.287   6.149 -0.2814 -0.1517 -0.1318
  980MOL0     C32219   8.738   7.517   6.233 -0.2679 -0.1095  0.7336
  980MOL0     C32220   8.707   7.658   6.224  0.7716 -0.5625  0.1036
  980MOL0     C32221   8.568   7.697   6.236  0.5216 -0.9400  0.5390
  980MOL0     C32222   8.465   7.607   6.260  0.1112  1.1229  0.9927
  980MOL0     O32223   8.343   7.653   6.278 -0.1125 -0.5050 -0.7629
  980MOL0     C32224   8.242   7.596   6.197  0.0382  0.1051  0.6871
  980MOL0     C32225   8.143   7.522   6.285 -0.7477  0.5370 -0.6597
  980MOL0     C32226   8.026   7.602   6.312  0.4911  0.5055 -0.9720
  980MOL0     C32227   7.936   7.523   6.408 -0.3521 -0.0139  0.2178
  980MOL0     C32228   7.807   7.589   6.404 -0.0387  0.0674  0.2981
  980MOL0     C32229   7.699   7.645   6.398 -0.3032 -0.1897  0.2348
  980MOL0     C32230   8.493   7.473   6.271  0.2900 -0.7052 -0.2834
  980MOL0     C32231   8.629   7.428   6.265  0.5939  0.7938  0.4953
  980MOL0     C32232   8.642   7.288   6.289 -0.6233  0.0868 -0.9092
  980MOL0     H32233   8.991   7.340   6.448  0.0616 -1.0965 -0.2895
  980MOL0     H32234   9.229   7.289   6.521  1.4105  3.5432  0.3713
  980MOL0     H32235   9.445   7.308   6.552  1.2255  1.5170 -0.6229
  980MOL0     H32236   9.458   7.137   6.532 -2.8816  0.8416 -0.5030
  980MOL0     H32237   9.662   7.252   6.598 -1.1226  0.0442  0.3048
  980MOL0     H32238   9.660   7.345   6.450 -2.1214  0.2722 -1.2630
  980MOL0     H32239   9.720   7.149   6.316  2.2242  0.0574 -0.5994
  980MOL0     H32240   9.693   7.038   6.442  1.2225 -0.0850  3.2462
  980MOL0     H32241   9.916   7.222   6.410 -2.6448  0.2852 -3.1292
  980MOL0     H32242   9.875   7.189   6.576 -1.0574 -0.1781 -0.8342
  980MOL0     H32243  10.038   7.041   6.552 -1.5712  0.3941  0.5694
  980MOL0     H32244   9.905   6.928   6.521  1.7235 -3.2629 -2.6682
  980MOL0     H32245   9.928   6.973   6.270 -2.1075 -1.6694  1.8542
  980MOL0     H32246  10.062   7.076   6.295 -0.2590 -0.0984 -0.5290
  980MOL0     H32247  10.085   6.799   6.407 -1.7439 -0.3878 -1.9285
  980MOL0     H32248  10.211   6.911   6.364  1.2960 -3.2377  0.6280
  980MOL0     H32249  10.062   6.732   6.177  0.0433 -0.9333  0.1836
  980MOL0     H32250  10.125   6.887   6.116  2.4328  2.9234  2.6406
  980MOL0     H32251  10.256   6.591   6.339  0.6953 -0.0924 -0.3475
  980MOL0     H32252  10.535   6.533   6.380 -1.7348  2.1824 -0.6498
  980MOL0     H32253  10.497   6.413   6.244 -3.4757  0.7675  1.6917
  980MOL0     H32254  10.684   6.491   6.106  3.4390  3.8210 -1.6217
  980MOL0     H32255  10.704   6.628   6.223 -0.8121  0.0604 -0.2206
  980MOL0     H32256  10.726   6.331   6.281  0.7732  0.4509 -0.0231
  980MOL0     H32257  10.751   6.455   6.397 -0.8782 -3.4287  1.4354
  980MOL0     H32258  10.974   6.428   6.338 -1.1214 -0.5880  0.5790
  980MOL0     H32259  10.936   6.555   6.237 -2.0390  1.8711  2.7570
  980MOL0     H32260  11.163   6.433   6.233 -0.0234  2.0011 -1.3628
  980MOL0     H32261  11.383   6.365   6.135 -0.2442  2.4179  0.6544
  980MOL0     H32262  11.511   6.293   5.668 -0.5450 -0.2345  1.6892
  980MOL0     H32263  11.698   6.212   5.512  3.1570  2.4032 -0.0987
  980MOL0     H32264  12.079   6.171   5.720  0.4872  0.7398  0.7497
  980MOL0     H32265  12.038   6.000   5.693 -4.5766  1.8041  1.9478
  980MOL0     H32266  12.142   6.028   5.462  1.9300 -0.3388  0.0432
  980MOL0     H32267  12.184   6.201   5.508  2.1750 -0.5494  0.3606
  980MOL0     H32268  12.304   6.117   5.700  0.5276  1.6675 -1.4901
  980MOL0     H32269  12.269   5.959   5.649  0.9437 -0.2059 -2.0333
  980MOL0     H32270  12.429   6.159   5.503 -0.7092  0.5048  1.9821
  980MOL0     H32271  12.421   5.989   5.455  3.8858 -0.1366 -1.8960
  980MOL0     H32272  12.512   5.938   5.694 -0.3012  1.4294  2.4931
  980MOL0     H32273  12.546   6.102   5.719  1.0154  0.2410 -0.6420
  980MOL0     H32274  12.646   5.925   5.491 -3.9694  0.6391 -0.5186
  980MOL0     H32275  12.674   6.105   5.495  0.7874  0.9330  0.8640
  980MOL0     H32276  12.787   5.883   5.680 -0.8225 -1.7390 -7.0603
  980MOL0     H32277  12.782   6.060   5.725  2.1962 -0.8104  0.7286
  980MOL0     H32278  12.968   5.915   5.526 -0.3759 -0.3686  0.0482
  980MOL0     H32279  12.905   6.078   5.490 -1.1425 -1.2186  0.4549
  980MOL0     H32280  11.907   6.085   5.869 -0.5706 -0.5281  1.7323
  980MOL0     H32281  11.719   6.139   6.003  1.5864 -0.6969 -0.2911
  980MOL0     H32282  11.174   6.110   5.859 -0.1218  0.2240 -0.0490
  980MOL0     H32283  10.948   6.202   5.943 -0.2158 -2.3182 -0.3455
  980MOL0     H32284   9.335   7.237   6.110  1.5747  2.2959  0.9841
  980MOL0     H32285   9.109   7.290   6.043  0.1177 -1.1215 -0.2566
  980MOL0     H32286   8.785   7.732   6.206 -0.5064  0.6431 -0.6468
  980MOL0     H32287   8.537   7.800   6.243  2.0818 -0.5252  2.0372
  980MOL0     H32288   8.277   7.512   6.137 -0.0359  0.2196  0.4820
  980MOL0     H32289   8.191   7.666   6.130 -0.1503 -1.8713 -1.3276
  980MOL0     H32290   8.181   7.486   6.381 -1.0107  0.9015 -0.4175
  980MOL0     H32291   8.117   7.428   6.236  0.0852  0.1994 -0.4645
  980MOL0     H32292   7.968   7.619   6.221 -1.8627 -5.1781 -0.9357
  980MOL0     H32293   8.063   7.691   6.365 -0.4751 -1.2485  3.0131
  980MOL0     H32294   7.921   7.420   6.374 -0.0212  0.0419 -0.1050
  980MOL0     H32295   7.976   7.515   6.510  2.3369 -4.1581 -0.8899
  980MOL0     H32296   7.609   7.701   6.411 -1.9346 -2.7944  1.0794
  980MOL0     H32297   8.409   7.404   6.276  1.0760 -2.0182 -3.2164
  980MOL0     H32298   8.549   7.248   6.331 -0.3230 -1.8689 -1.9575
  980MOL0     H32299   8.680   7.230   6.204 -0.8594 -2.4043  0.5899
  980MOL0     H32300   8.723   7.282   6.362 -0.3138 -3.3579 -1.3813
  981MOL0     O32301   3.688   9.946   9.834 -0.0167 -0.8557 -0.2623
  981MOL0     C32302   3.635  10.029   9.762  0.3280  0.1283 -0.5392
  981MOL0     O32303   3.669  10.160   9.756  0.0186  0.3037 -0.3446
  981MOL0     C32304   3.765  10.221   9.829 -1.2032 -0.2614  1.1186
  981MOL0     C32305   3.848  10.315   9.765  0.1420 -0.0122 -0.0544
  981MOL0     C32306   3.960  10.373   9.822 -0.0299 -0.2096  0.6211
  981MOL0     C32307   3.989  10.337   9.955  0.0216 -0.3735 -0.4598
  981MOL0     O32308   4.098  10.387  10.036  0.0417  0.1173  0.3912
  981MOL0     C32309   4.107  10.523  10.019 -0.6757 -1.3237 -0.5207
  981MOL0     C32310   4.189  10.594  10.131 -0.3896 -1.0692 -0.1547
  981MOL0     C32311   4.333  10.581  10.098  0.6480  0.4378 -0.3120
  981MOL0     C32312   4.421  10.666  10.194 -0.3476  1.2716  0.8184
  981MOL0     C32313   4.564  10.690  10.151 -0.1994  0.0987 -0.5312
  981MOL0     C32314   4.649  10.567  10.195  0.0013  0.1276 -0.6496
  981MOL0     C32315   4.800  10.593  10.191 -0.0007  0.1811  0.3961
  981MOL0     C32316   4.849  10.677  10.312  0.2519 -0.0077  0.3142
  981MOL0     N32317   4.978  10.730  10.297 -0.7984  0.0385  0.1842
  981MOL0     C32318   5.043  10.785  10.405  0.6072  0.4161  0.0011
  981MOL0     C32319   5.161  10.826  10.358  0.1442 -0.8088  0.4664
  981MOL0     C32320   5.281  10.868  10.440 -0.2265  0.9657  0.9598
  981MOL0     C32321   5.414  10.827  10.380  1.0173  0.0751 -0.3483
  981MOL0     C32322   5.534  10.872  10.449 -0.6274  0.5097  0.7305
  981MOL0     C32323   5.656  10.820  10.373 -0.2522  0.0088 -0.4437
  981MOL0     O32324   5.780  10.850  10.426  0.1980 -0.4611 -0.2791
  981MOL0     C32325   5.877  10.869  10.336 -0.5301 -0.2953  0.1940
  981MOL0     C32326   5.984  10.942  10.385 -0.4632 -0.3524  0.2980
  981MOL0     C32327   6.095  10.973  10.306 -0.7447  0.0877  0.3327
  981MOL0     C32328   6.099  10.935  10.166  0.2289 -0.0101  0.3295
  981MOL0     C32329   6.209  10.972  10.080  0.0491 -0.6546 -0.3731
  981MOL0     O32330   6.196  10.961   9.946  0.0759 -0.6365  0.1668
  981MOL0     C32331   6.304  10.994   9.865 -0.5097  0.5416  1.1173
  981MOL0     C32332   6.399  10.894   9.828 -0.5136  0.0539  0.1728
  981MOL0     C32333   6.503  10.918   9.742 -0.4174 -0.2988 -0.1737
  981MOL0     C32334   6.526  11.044   9.689 -0.5830  0.4735 -0.3636
  981MOL0     O32335   6.643  11.079   9.627  0.8245  0.7067 -0.4546
  981MOL0     C32336   6.678  10.990   9.523  0.3720  0.9230  0.4936
  981MOL0     C32337   6.781  11.048   9.426 -0.1093  0.0651 -0.9899
  981MOL0     C32338   6.921  11.054   9.500 -0.6092 -0.3942 -0.0597
  981MOL0     C32339   7.028  11.114   9.406  0.5026  0.1570  0.4800
  981MOL0     C32340   7.173  11.105   9.438  0.7270 -0.0277 -0.6650
  981MOL0     C32341   7.228  11.188   9.553 -0.7451 -0.1706 -0.2405
  981MOL0     C32342   7.221  11.113   9.687  0.2465  0.2653 -0.1106
  981MOL0     C32343   7.251  11.220   9.811 -0.1889 -0.1261  0.7684
  981MOL0    Cl32344   7.213  11.154   9.967 -0.1150  0.0787 -0.1787
  981MOL0     C32345   6.440  11.142   9.726 -0.0466 -0.3097 -0.0914
  981MOL0     C32346   6.325  11.115   9.811 -0.4784  0.1105  0.4323
  981MOL0     O32347   6.306  11.015  10.139 -0.1950 -0.7823  0.2086
  981MOL0     C32348   5.988  10.849  10.126  0.1421  0.0404  0.5633
  981MOL0     C32349   5.883  10.821  10.208  0.4551  0.6648 -0.9961
  981MOL0     N32350   5.162  10.803  10.222 -0.8605 -0.0688 -0.1119
  981MOL0     N32351   5.050  10.747  10.187 -0.3952 -0.0458  0.3828
  981MOL0     C32352   3.905  10.251  10.029  0.2183 -0.5286  0.2265
  981MOL0     C32353   3.792  10.190   9.962 -1.1303  1.2163  0.5316
  981MOL0     C32354   3.519   9.988   9.672  0.3482  0.1463  0.0607
  981MOL0     C32355   3.474  10.077   9.566  0.4871  0.0880 -0.1712
  981MOL0     C32356   3.358  10.040   9.493 -0.2232 -0.3997  0.3145
  981MOL0     C32357   3.286   9.926   9.522 -0.3704 -0.1300  0.8263
  981MOL0     O32358   3.167   9.901   9.452 -0.4665 -0.4921  0.1253
  981MOL0     C32359   3.074   9.808   9.511 -0.0889 -0.2067  0.2152
  981MOL0     C32360   2.939   9.836   9.444  0.9692  0.2090 -0.4868
  981MOL0     C32361   2.842   9.732   9.498 -0.1229  0.4887  0.2144
  981MOL0     C32362   2.715   9.729   9.413  0.4662 -0.4695  0.5928
  981MOL0     C32363   2.624   9.615   9.454  0.4077  0.3132  0.1896
  981MOL0     C32364   2.541   9.530   9.480 -0.2538 -0.7036  0.0198
  981MOL0     C32365   3.335   9.831   9.611 -0.3187 -0.8606 -0.2943
  981MOL0     C32366   3.450   9.864   9.693 -0.5965 -0.0378 -0.6689
  981MOL0     C32367   3.478   9.748   9.790 -0.2558  0.5178  0.3664
  981MOL0     H32368   3.812  10.331   9.663 -0.8564 -1.4044  0.0569
  981MOL0     H32369   4.019  10.445   9.766  0.4761  0.4467  1.9276
  981MOL0     H32370   4.153  10.549   9.924  1.7933  1.1844  1.2078
  981MOL0     H32371   4.007  10.567  10.019  0.2639  0.9692 -2.0877
  981MOL0     H32372   4.156  10.539  10.219  3.3713 -0.9929  1.5139
  981MOL0     H32373   4.172  10.702  10.136  0.0438 -0.6635 -3.9528
  981MOL0     H32374   4.356  10.614   9.996  0.8531  2.7796  0.4226
  981MOL0     H32375   4.351  10.475  10.113 -2.7199 -0.5600 -2.3608
  981MOL0     H32376   4.379  10.766  10.206 -2.1228  0.4863  1.4681
  981MOL0     H32377   4.422  10.615  10.290  0.1027  0.1097  0.2251
  981MOL0     H32378   4.587  10.716  10.047 -0.9994  0.6162 -0.5932
  981MOL0     H32379   4.597  10.777  10.207  1.7872 -0.3693 -0.8938
  981MOL0     H32380   4.631  10.548  10.301  1.3470  0.4881 -0.3349
  981MOL0     H32381   4.623  10.471  10.149 -2.7422  0.5777 -0.2083
  981MOL0     H32382   4.819  10.642  10.095  0.4622 -0.2795  0.2456
  981MOL0     H32383   4.863  10.504  10.180 -0.9577 -0.3492 -1.1576
  981MOL0     H32384   4.782  10.764  10.316  1.4597  0.8804  2.5005
  981MOL0     H32385   4.831  10.621  10.404 -0.4736 -1.8881 -0.9052
  981MOL0     H32386   5.004  10.781  10.506 -0.0998 -1.0475 -0.2939
  981MOL0     H32387   5.284  10.978  10.444  0.3213  0.9446  1.2584
  981MOL0     H32388   5.279  10.819  10.538  4.3557 -0.3860  0.5932
  981MOL0     H32389   5.418  10.718  10.380  0.7736  0.0542  1.1402
  981MOL0     H32390   5.414  10.866  10.277 -2.8177  0.6724 -0.2789
  981MOL0     H32391   5.539  10.836  10.552  0.7247 -3.3553 -0.5377
  981MOL0     H32392   5.549  10.981  10.453  1.6726  0.5312 -3.3749
  981MOL0     H32393   5.648  10.866  10.274  0.3116  2.4001  0.5545
  981MOL0     H32394   5.658  10.712  10.354  0.5801  0.2663 -1.9817
  981MOL0     H32395   5.989  10.979  10.487 -1.2316  0.1447  0.1565
  981MOL0     H32396   6.172  11.034  10.351 -0.5462  0.2517 -0.2132
  981MOL0     H32397   6.379  10.793   9.864 -0.9508 -0.2560 -0.8938
  981MOL0     H32398   6.582  10.844   9.731 -1.2238 -1.3837  0.9833
  981MOL0     H32399   6.718  10.898   9.565  0.6911 -0.0795 -1.8320
  981MOL0     H32400   6.597  10.960   9.456 -0.6428  1.5660  1.4089
  981MOL0     H32401   6.780  10.975   9.345  0.6139 -1.1623  0.0775
  981MOL0     H32402   6.753  11.151   9.401 -0.0938  0.1834 -0.5385
  981MOL0     H32403   6.919  11.119   9.587 -1.2703  0.4599 -0.6962
  981MOL0     H32404   6.954  10.957   9.538  0.7945  0.2876  0.5366
  981MOL0     H32405   7.006  11.220   9.390 -1.5361 -0.3711 -0.6588
  981MOL0     H32406   7.000  11.072   9.309 -2.1862  1.0454  0.7795
  981MOL0     H32407   7.222  11.131   9.344 -1.0516  3.9095 -0.7058
  981MOL0     H32408   7.198  11.002   9.464 -2.1271  0.1802  4.0424
  981MOL0     H32409   7.334  11.204   9.531 -1.0308  2.0126 -0.1564
  981MOL0     H32410   7.176  11.283   9.566  0.7633  0.8844 -1.5790
  981MOL0     H32411   7.293  11.031   9.680 -0.5149 -0.2964 -2.0972
  981MOL0     H32412   7.123  11.070   9.710  0.4412  0.4619  1.2088
  981MOL0     H32413   7.353  11.258   9.815 -0.4370  1.0238 -1.9075
  981MOL0     H32414   7.193  11.311   9.792  1.6626  0.9250 -0.0611
  981MOL0     H32415   6.476  11.236   9.684  2.3587 -0.9180  0.4381
  981MOL0     H32416   6.261  11.199   9.836 -1.2302 -0.0051 -0.9847
  981MOL0     H32417   5.981  10.811  10.024 -0.2960 -0.6223  0.8347
  981MOL0     H32418   5.817  10.742  10.172  1.5365 -0.6049 -0.2763
  981MOL0     H32419   3.925  10.229  10.133  0.6157 -0.4046  0.1778
  981MOL0     H32420   3.745  10.111  10.019  1.4602 -0.5216  0.4331
  981MOL0     H32421   3.529  10.169   9.552  0.4798  0.0262 -0.5989
  981MOL0     H32422   3.310  10.108   9.424  0.5834 -0.7593 -0.6211
  981MOL0     H32423   3.052   9.823   9.617  1.0001  0.4169  0.3742
  981MOL0     H32424   3.115   9.706   9.505  4.3202  1.2090  2.0193
  981MOL0     H32425   2.955   9.818   9.337  1.0668  0.4053 -0.5062
  981MOL0     H32426   2.884   9.929   9.457 -0.6591 -0.8514  0.4747
  981MOL0     H32427   2.827   9.758   9.603 -4.6325 -0.2353 -0.0807
  981MOL0     H32428   2.889   9.634   9.497 -2.1220 -0.5480 -2.0885
  981MOL0     H32429   2.659   9.820   9.437 -1.3841 -1.9772  2.3744
  981MOL0     H32430   2.736   9.720   9.307 -1.3180 -1.8929  0.3164
  981MOL0     H32431   2.462   9.463   9.507  0.4390 -0.5651  2.7538
  981MOL0     H32432   3.296   9.730   9.625 -0.1551 -0.8009  0.6333
  981MOL0     H32433   3.422   9.656   9.771 -0.8564  0.5414  1.8382
  981MOL0     H32434   3.585   9.726   9.786 -0.4768 -1.2700  2.2652
  981MOL0     H32435   3.466   9.777   9.895  0.3388 -2.2886  1.3010
  982MOL0     O32436   5.978   4.848   3.329 -0.4651  0.0687  0.4063
  982MOL0     C32437   5.884   4.830   3.249  0.2592  0.4892  0.8517
  982MOL0     O32438   5.901   4.826   3.116  0.6340 -0.4407  0.1421
  982MOL0     C32439   6.019   4.834   3.049 -0.2370 -0.0978  0.5441
  982MOL0     C32440   6.019   4.900   2.919  0.1075  0.5181 -0.0127
  982MOL0     C32441   6.140   4.912   2.847 -0.2135 -0.6214  0.2402
  982MOL0     C32442   6.258   4.863   2.894  0.3374  0.2908 -0.1774
  982MOL0     O32443   6.386   4.889   2.850 -0.6348 -0.1030 -0.0612
  982MOL0     C32444   6.401   4.955   2.720 -0.5405  0.0459  0.0834
  982MOL0     C32445   6.543   4.934   2.673  0.4118  0.3144  0.9856
  982MOL0     C32446   6.658   5.006   2.748  0.6001  0.0981  0.1857
  982MOL0     C32447   6.788   4.984   2.670 -0.4038 -0.3410  0.0774
  982MOL0     C32448   6.920   5.018   2.748  0.6573  0.6522  0.2793
  982MOL0     C32449   7.024   5.031   2.633  0.7785  0.6793  0.1602
  982MOL0     C32450   7.163   5.057   2.690  0.1116  0.2989  0.3104
  982MOL0     C32451   7.190   5.203   2.716  0.4087 -0.5418 -0.4595
  982MOL0     N32452   7.335   5.222   2.719 -0.2643 -0.2051 -0.0867
  982MOL0     C32453   7.412   5.267   2.617 -0.7129  0.6239 -0.2188
  982MOL0     C32454   7.537   5.255   2.669 -0.9398 -0.5101  0.1526
  982MOL0     C32455   7.668   5.280   2.597  1.5365  0.9436 -0.0156
  982MOL0     C32456   7.750   5.155   2.556 -0.0717  0.3160  0.2119
  982MOL0     C32457   7.864   5.201   2.452  0.0611  0.8433 -0.2515
  982MOL0     C32458   7.945   5.079   2.406 -0.0817  0.4192  0.2195
  982MOL0     O32459   8.041   5.121   2.303 -0.4845  0.6176  0.8661
  982MOL0     C32460   8.178   5.099   2.321  0.9355 -0.2952  0.5416
  982MOL0     C32461   8.254   5.169   2.420  0.0404  0.6440  0.3678
  982MOL0     C32462   8.394   5.157   2.425 -0.3315 -1.2668 -0.1575
  982MOL0     C32463   8.470   5.092   2.328  0.2736  0.0768 -0.0755
  982MOL0     C32464   8.618   5.104   2.324 -0.4844 -0.4600  0.1436
  982MOL0     O32465   8.686   4.985   2.281 -0.1515  0.7355 -0.2551
  982MOL0     C32466   8.825   4.992   2.267 -0.3850 -0.3540  0.5392
  982MOL0     C32467   8.879   4.941   2.145 -0.1580 -0.0451  0.5403
  982MOL0     C32468   9.017   4.934   2.124 -0.5201 -0.1808 -0.1615
  982MOL0     C32469   9.112   4.960   2.222 -0.5650 -0.1371  0.5588
  982MOL0     O32470   9.247   4.930   2.194 -0.3367  0.1575 -0.1143
  982MOL0     C32471   9.352   4.985   2.280  1.0557 -0.5165 -0.3555
  982MOL0     C32472   9.489   4.949   2.209  0.6313  0.1193 -0.0033
  982MOL0     C32473   9.608   5.002   2.292 -0.1503 -0.6179 -0.5057
  982MOL0     C32474   9.743   4.939   2.260  0.3170  1.0140 -0.5741
  982MOL0     C32475   9.858   5.000   2.345 -0.6847 -0.1358 -0.5792
  982MOL0     C32476   9.992   5.008   2.267 -0.2312  0.5668 -0.2160
  982MOL0     C32477  10.114   5.045   2.368  0.6859 -0.3187 -0.1533
  982MOL0     C32478  10.240   5.065   2.286 -0.0714  0.0428  0.2146
  982MOL0    Cl32479  10.341   5.159   2.388  0.3886  0.1944  0.2413
  982MOL0     C32480   9.064   5.007   2.346  0.0390 -1.2600 -0.4982
  982MOL0     C32481   8.922   5.030   2.366 -0.0342  0.9480 -0.2680
  982MOL0     O32482   8.676   5.212   2.346  0.1713  1.1990 -0.6154
  982MOL0     C32483   8.395   5.027   2.223 -0.6439 -0.0845 -0.0778
  982MOL0     C32484   8.256   5.025   2.223 -0.6279 -1.1219  0.6131
  982MOL0     N32485   7.535   5.208   2.800 -0.6846 -0.0126  0.2140
  982MOL0     N32486   7.409   5.189   2.825 -0.1028  0.0432 -0.2516
  982MOL0     C32487   6.258   4.793   3.015 -0.0397 -0.6476 -0.2996
  982MOL0     C32488   6.143   4.782   3.099  0.2049  0.0736  0.4104
  982MOL0     C32489   5.738   4.819   3.290  0.2825 -0.3244  0.0257
  982MOL0     C32490   5.650   4.791   3.189 -0.0450  0.2181 -0.2779
  982MOL0     C32491   5.513   4.771   3.213  0.1892 -0.7518  0.3524
  982MOL0     C32492   5.463   4.776   3.340  0.0564  1.0591  0.5766
  982MOL0     O32493   5.324   4.762   3.354 -0.0741 -0.1370 -0.4014
  982MOL0     C32494   5.257   4.773   3.481 -0.0852 -0.0459  0.0184
  982MOL0     C32495   5.107   4.770   3.470 -0.6652 -0.3719  0.8270
  982MOL0     C32496   5.044   4.771   3.607 -0.4968 -0.0077  0.7089
  982MOL0     C32497   4.900   4.730   3.593 -0.1633  0.7181  0.4388
  982MOL0     C32498   4.826   4.785   3.712 -0.1392  0.7528  0.4458
  982MOL0     C32499   4.762   4.818   3.809 -0.1003 -0.1793 -0.0309
  982MOL0     C32500   5.552   4.800   3.445 -0.0225 -0.4159 -0.0341
  982MOL0     C32501   5.687   4.825   3.420  0.0292  1.2376 -0.8685
  982MOL0     C32502   5.770   4.852   3.531 -0.3268 -0.2184  0.1175
  982MOL0     H32503   5.931   4.940   2.870 -0.6223  1.4515  1.9486
  982MOL0     H32504   6.144   4.954   2.747 -0.6009  0.1804  0.5533
  982MOL0     H32505   6.346   4.901   2.643  2.1404  0.7285 -2.4822
  982MOL0     H32506   6.381   5.061   2.733  1.2637  0.2180  2.0490
  982MOL0     H32507   6.549   4.960   2.567  1.8227  0.5153  1.0971
  982MOL0     H32508   6.551   4.825   2.680  0.1416  0.2775  0.7360
  982MOL0     H32509   6.677   4.953   2.842 -0.8148 -0.2562  0.2932
  982MOL0     H32510   6.639   5.112   2.765  0.3879  0.1664 -0.4306
  982MOL0     H32511   6.798   4.881   2.636 -0.2257  0.4906 -2.5701
  982MOL0     H32512   6.781   5.044   2.579  0.2919 -1.4350 -0.7230
  982MOL0     H32513   6.906   5.108   2.810 -0.6174  0.5832  0.1251
  982MOL0     H32514   6.956   4.947   2.823  0.7638  0.3205 -0.0873
  982MOL0     H32515   7.023   4.931   2.588  0.5529 -1.2613  4.0386
  982MOL0     H32516   7.000   5.109   2.560  1.4198 -1.2934 -2.2682
  982MOL0     H32517   7.233   5.017   2.616  0.6873 -0.0702  1.0363
  982MOL0     H32518   7.164   5.006   2.787  0.0811  0.9069  0.6315
  982MOL0     H32519   7.133   5.259   2.641  1.7481  0.2100 -0.9467
  982MOL0     H32520   7.145   5.225   2.813  0.0009 -0.6907 -0.6109
  982MOL0     H32521   7.378   5.284   2.515  0.8796  0.6808 -0.7630
  982MOL0     H32522   7.639   5.319   2.499 -1.0782  1.4356  0.8788
  982MOL0     H32523   7.738   5.349   2.645  1.8449  0.7074 -0.1205
  982MOL0     H32524   7.794   5.110   2.646  1.6803 -1.1297 -1.2987
  982MOL0     H32525   7.675   5.086   2.518  1.1979  0.7908 -3.5263
  982MOL0     H32526   7.920   5.275   2.511 -1.1726 -0.4695  2.7875
  982MOL0     H32527   7.816   5.239   2.362  2.9379  0.0941 -2.2445
  982MOL0     H32528   7.884   5.003   2.357  2.6974 -0.0147 -2.8787
  982MOL0     H32529   7.998   5.032   2.489  2.9535 -0.7038 -2.1609
  982MOL0     H32530   8.193   5.237   2.478  0.6261  1.1050  0.4553
  982MOL0     H32531   8.450   5.226   2.488 -2.2300  1.9943 -1.7876
  982MOL0     H32532   8.809   4.912   2.067 -1.0506  0.1528  1.2487
  982MOL0     H32533   9.063   4.911   2.029 -0.2797 -1.4694  0.2514
  982MOL0     H32534   9.341   5.094   2.287  0.3553 -0.6227  0.2805
  982MOL0     H32535   9.338   4.950   2.382  0.9544  1.4904  0.3619
  982MOL0     H32536   9.502   4.841   2.202  3.0836  0.4551 -2.1626
  982MOL0     H32537   9.502   4.997   2.111 -1.0950 -1.7155 -1.2108
  982MOL0     H32538   9.618   5.107   2.264  1.4784  0.0846  2.3655
  982MOL0     H32539   9.587   4.996   2.399 -0.1545  1.2118 -0.3807
  982MOL0     H32540   9.749   4.961   2.154  1.5220 -1.4329 -1.0929
  982MOL0     H32541   9.756   4.831   2.268  3.8972  1.2308 -1.7112
  982MOL0     H32542   9.872   4.946   2.439  2.6424 -0.5826 -1.2227
  982MOL0     H32543   9.830   5.102   2.372 -3.0329 -0.9319  0.2151
  982MOL0     H32544  10.018   4.916   2.213  1.4157  2.1306 -2.2610
  982MOL0     H32545   9.979   5.087   2.192 -1.1763  0.4314 -0.2065
  982MOL0     H32546  10.132   4.972   2.448  0.6645 -0.2458 -0.0821
  982MOL0     H32547  10.079   5.135   2.418 -0.4138 -0.5490 -0.4679
  982MOL0     H32548  10.286   4.966   2.274  0.2536  0.1253  0.7525
  982MOL0     H32549  10.223   5.115   2.190 -1.5769  2.8783  1.8508
  982MOL0     H32550   9.138   5.020   2.425 -0.1191  1.4589 -0.6922
  982MOL0     H32551   8.904   5.059   2.469  1.0330 -4.3418  1.7341
  982MOL0     H32552   8.453   4.966   2.154  1.0098  0.7938  0.4888
  982MOL0     H32553   8.194   4.978   2.147 -0.9081  0.6874 -0.3445
  982MOL0     H32554   6.360   4.773   3.046 -0.3794 -1.1571  0.5263
  982MOL0     H32555   6.146   4.725   3.191 -2.3451 -0.1507  0.4310
  982MOL0     H32556   5.677   4.782   3.085  1.4041 -0.4505  0.1304
  982MOL0     H32557   5.434   4.749   3.142  0.3250 -2.2876  0.6419
  982MOL0     H32558   5.295   4.861   3.535  1.6585 -0.8310  0.1578
  982MOL0     H32559   5.297   4.689   3.538  0.9327  0.5606  0.2296
  982MOL0     H32560   5.067   4.687   3.412 -3.1401  2.3893 -1.8008
  982MOL0     H32561   5.080   4.860   3.414 -0.4190 -0.4066  0.6519
  982MOL0     H32562   5.041   4.878   3.630 -0.6484  0.5178 -1.5408
  982MOL0     H32563   5.099   4.717   3.685 -2.8060  0.1969  2.5847
  982MOL0     H32564   4.860   4.771   3.500  0.5703  1.5110  0.4669
  982MOL0     H32565   4.889   4.621   3.588  1.4946  0.5651 -1.1967
  982MOL0     H32566   4.716   4.852   3.900  2.2261 -1.8917  1.8940
  982MOL0     H32567   5.518   4.803   3.548  0.3873  1.7853  0.0720
  982MOL0     H32568   5.706   4.880   3.615 -1.1723  2.7560 -1.3510
  982MOL0     H32569   5.832   4.764   3.549 -1.3808 -1.1163 -0.5345
  982MOL0     H32570   5.837   4.938   3.514  0.7624 -1.1200 -0.3064
  983MOL0     O32571   1.307  11.151  10.929  0.0412  0.5012  0.6303
  983MOL0     C32572   1.210  11.206  10.968  0.1195 -0.1149 -0.0945
  983MOL0     O32573   1.208  11.343  10.975 -0.7138  0.1771  0.0125
  983MOL0     C32574   1.293  11.405  10.891  0.2999 -0.4014 -0.4640
  983MOL0     C32575   1.299  11.372  10.757  0.0904 -0.3675  1.1023
  983MOL0     C32576   1.394  11.436  10.672 -0.9022  0.9631 -0.3008
  983MOL0     C32577   1.485  11.534  10.725 -0.3779  0.4076 -0.6937
  983MOL0     O32578   1.586  11.592  10.652 -0.0078 -0.8111  0.6225
  983MOL0     C32579   1.713  11.580  10.714  0.7120 -0.1396 -0.2854
  983MOL0     C32580   1.812  11.564  10.595  1.0989  1.1576 -1.1547
  983MOL0     C32581   1.955  11.539  10.645 -0.3452 -0.6041 -0.1806
  983MOL0     C32582   2.037  11.470  10.533  0.1649 -0.1851 -0.1389
  983MOL0     C32583   2.183  11.441  10.577 -0.4330 -0.6515 -0.5355
  983MOL0     C32584   2.194  11.343  10.693 -0.4695 -0.0661  0.1082
  983MOL0     C32585   2.336  11.320  10.741  0.4546 -0.1654  0.4388
  983MOL0     C32586   2.425  11.258  10.634 -0.1492 -0.4811  0.4968
  983MOL0     N32587   2.556  11.255  10.694 -0.4545  0.1137  0.2108
  983MOL0     C32588   2.665  11.332  10.664 -0.5054  0.6451  0.4921
  983MOL0     C32589   2.768  11.289  10.748  0.5136  0.4492  0.0441
  983MOL0     C32590   2.896  11.362  10.752  0.3501  0.0413 -0.7394
  983MOL0     C32591   2.998  11.292  10.843 -0.0821  0.5976 -0.7654
  983MOL0     C32592   2.962  11.281  10.995 -0.2080 -0.1613  0.4935
  983MOL0     C32593   3.083  11.232  11.073 -0.0535 -0.1532 -0.0367
  983MOL0     O32594   3.183  11.335  11.065  0.0348  0.3913 -0.6624
  983MOL0     C32595   3.302  11.320  11.130 -0.6318  1.2443  0.2701
  983MOL0     C32596   3.346  11.197  11.198  1.0630  0.7041  0.4207
  983MOL0     C32597   3.471  11.199  11.261  0.0525  0.2384  0.2708
  983MOL0     C32598   3.541  11.321  11.260  0.4313 -0.2815  0.5255
  983MOL0     C32599   3.675  11.320  11.317  0.1896  0.6938  1.3240
  983MOL0     O32600   3.710  11.222  11.410 -0.3612 -0.1054 -0.4253
  983MOL0     C32601   3.837  11.231  11.461 -0.2458 -0.4998 -1.0140
  983MOL0     C32602   3.893  11.350  11.522 -0.4419 -0.7230 -0.2689
  983MOL0     C32603   4.019  11.337  11.584 -0.3451  0.0349 -0.0587
  983MOL0     C32604   4.088  11.218  11.588  0.7956  0.1354 -0.9529
  983MOL0     O32605   4.211  11.213  11.649 -0.1789  0.1431  0.9439
  983MOL0     C32606   4.199  11.197  11.790 -0.1376 -0.7103 -0.1990
  983MOL0     C32607   4.329  11.140  11.848 -0.3075 -0.0463  0.6739
  983MOL0     C32608   4.328  11.110  11.999 -0.0265  0.7298  0.9349
  983MOL0     C32609   4.307  11.245  12.085  0.6130 -0.9291  0.3274
  983MOL0     C32610   4.317  11.234  12.238  1.0464  0.5141  1.2077
  983MOL0     C32611   4.326  11.371  12.295  0.3450 -0.2523  0.6602
  983MOL0     C32612   4.354  11.396  12.445  0.0823  0.5400  0.3787
  983MOL0     C32613   4.493  11.431  12.467 -0.1417 -0.1906 -0.4869
  983MOL0    Cl32614   4.542  11.430  12.632 -0.1519 -0.1514 -0.3130
  983MOL0     C32615   4.035  11.105  11.521  0.3500 -0.1549  0.3092
  983MOL0     C32616   3.908  11.106  11.462 -0.4620  0.4670  0.0326
  983MOL0     O32617   3.747  11.407  11.270 -0.4781  0.1249 -0.0092
  983MOL0     C32618   3.502  11.434  11.189  0.2799  0.8141  1.0115
  983MOL0     C32619   3.382  11.430  11.126 -0.1233  0.6778 -0.2483
  983MOL0     N32620   2.715  11.183  10.827 -0.3291 -0.7948 -0.8039
  983MOL0     N32621   2.596  11.167  10.788  0.6543  0.3707  0.3759
  983MOL0     C32622   1.472  11.557  10.862  0.1587 -0.4895 -0.1940
  983MOL0     C32623   1.380  11.495  10.943  0.0307 -1.5448  0.3791
  983MOL0     C32624   1.081  11.137  11.003  0.2913 -0.1381  0.3837
  983MOL0     C32625   1.047  11.035  10.913 -0.3323  0.3244  0.1315
  983MOL0     C32626   0.933  10.951  10.937 -0.1530 -0.1038  0.3095
  983MOL0     C32627   0.841  10.988  11.035 -0.9078 -0.3434 -0.0322
  983MOL0     O32628   0.718  10.928  11.033 -0.0987 -0.3099  0.3291
  983MOL0     C32629   0.635  10.937  11.149  0.1573 -0.9038 -0.3635
  983MOL0     C32630   0.510  10.850  11.127 -0.6872  0.7960  0.4753
  983MOL0     C32631   0.548  10.702  11.114 -0.2672 -0.7201 -0.8392
  983MOL0     C32632   0.454  10.624  11.016 -0.7693 -0.1970 -0.4782
  983MOL0     C32633   0.330  10.580  11.081  0.9310 -0.4879 -0.8735
  983MOL0     C32634   0.227  10.538  11.137 -0.1177  0.1730  0.3965
  983MOL0     C32635   0.879  11.087  11.124 -0.2945 -0.1721  0.2667
  983MOL0     C32636   0.996  11.158  11.111 -0.6574 -0.6757  0.0694
  983MOL0     C32637   1.024  11.272  11.217 -0.2213 -0.6787 -0.6772
  983MOL0     H32638   1.231  11.302  10.708 -1.3089  2.0603 -0.6464
  983MOL0     H32639   1.409  11.411  10.568 -2.2195  3.5185 -1.1795
  983MOL0     H32640   1.739  11.663  10.781  1.4424 -1.5863  1.2918
  983MOL0     H32641   1.722  11.488  10.773  2.6003 -0.5318 -1.1166
  983MOL0     H32642   1.811  11.655  10.535  4.2800  0.5822 -2.2937
  983MOL0     H32643   1.773  11.485  10.530 -0.0423  0.9793 -0.2649
  983MOL0     H32644   1.953  11.472  10.732  0.0044 -1.4492 -0.8009
  983MOL0     H32645   2.003  11.631  10.678 -0.4689  0.6468 -3.1775
  983MOL0     H32646   1.989  11.375  10.506  0.5029 -0.9990  1.9525
  983MOL0     H32647   2.029  11.541  10.450 -0.3646 -0.2689 -0.1665
  983MOL0     H32648   2.239  11.411  10.488 -0.4951  0.1209 -0.8432
  983MOL0     H32649   2.232  11.533  10.611 -3.4780  0.8952  0.0028
  983MOL0     H32650   2.137  11.375  10.781 -2.3297 -2.9656  0.0706
  983MOL0     H32651   2.144  11.250  10.666  1.0197 -0.5801 -1.0164
  983MOL0     H32652   2.340  11.258  10.832 -3.0089 -0.6935  0.3356
  983MOL0     H32653   2.375  11.416  10.775  0.8801  0.2098 -1.0470
  983MOL0     H32654   2.399  11.152  10.623  1.4897 -0.8456 -0.1072
  983MOL0     H32655   2.425  11.302  10.533 -1.3801 -2.2916 -0.3418
  983MOL0     H32656   2.655  11.404  10.584  1.1236 -0.7787 -1.0945
  983MOL0     H32657   2.932  11.351  10.650 -0.3938 -0.1833 -0.9852
  983MOL0     H32658   2.881  11.462  10.794 -2.5219 -0.9380  0.9134
  983MOL0     H32659   3.022  11.194  10.801  0.7617  1.3010 -1.9807
  983MOL0     H32660   3.091  11.350  10.837  0.0537  0.5680  0.6573
  983MOL0     H32661   2.877  11.213  11.001 -1.6786  1.4660 -1.0158
  983MOL0     H32662   2.944  11.383  11.030 -2.6655 -0.9503  1.7351
  983MOL0     H32663   3.116  11.143  11.018  1.0911  0.6495 -0.6863
  983MOL0     H32664   3.070  11.216  11.180 -1.2104  0.2898 -0.0902
  983MOL0     H32665   3.290  11.105  11.188  2.7584 -0.2162 -1.6106
  983MOL0     H32666   3.512  11.108  11.303  0.4926 -0.4245 -1.4959
  983MOL0     H32667   3.843  11.446  11.511  0.3871 -0.3413 -0.7881
  983MOL0     H32668   4.064  11.421  11.636 -0.1683 -1.0534  1.6545
  983MOL0     H32669   4.175  11.295  11.834  1.7474  0.4233 -1.5376
  983MOL0     H32670   4.117  11.132  11.818 -0.3196 -0.4716 -0.1743
  983MOL0     H32671   4.351  11.046  11.797 -0.0061 -0.7124  1.9806
  983MOL0     H32672   4.405  11.214  11.823 -0.5112 -0.0925 -0.1002
  983MOL0     H32673   4.252  11.039  12.035 -1.4381  1.8131  0.2189
  983MOL0     H32674   4.425  11.061  12.011 -1.4816 -2.4852  0.6351
  983MOL0     H32675   4.207  11.284  12.065  0.6761 -0.9272  0.0087
  983MOL0     H32676   4.375  11.326  12.057 -0.8651  0.7089  1.2451
  983MOL0     H32677   4.402  11.167  12.256 -1.2882 -3.6100 -1.4996
  983MOL0     H32678   4.231  11.187  12.287  0.2862  1.1215  0.4774
  983MOL0     H32679   4.407  11.427  12.248 -1.5942  1.4324 -0.8111
  983MOL0     H32680   4.231  11.421  12.274 -0.5225 -0.2954  3.9510
  983MOL0     H32681   4.321  11.313  12.509  0.2348 -0.1921 -0.4680
  983MOL0     H32682   4.297  11.486  12.468  0.4939  0.9035 -0.0052
  983MOL0     H32683   4.550  11.355  12.414 -0.9437 -1.0108 -0.1903
  983MOL0     H32684   4.516  11.533  12.435 -0.6111  1.0283  2.6911
  983MOL0     H32685   4.096  11.016  11.528  1.3311  0.4160 -0.6192
  983MOL0     H32686   3.871  11.011  11.425  0.7885 -0.4635  1.0967
  983MOL0     H32687   3.573  11.514  11.175  0.1823  0.5266 -1.5789
  983MOL0     H32688   3.351  11.511  11.061  0.3953  0.6855 -0.4926
  983MOL0     H32689   1.532  11.636  10.904 -0.6197 -1.5555  3.2313
  983MOL0     H32690   1.374  11.521  11.049  0.0814 -0.0688  0.0415
  983MOL0     H32691   1.112  11.012  10.829  0.7223 -0.7646  1.1964
  983MOL0     H32692   0.920  10.859  10.882 -1.4949  0.9750 -1.2624
  983MOL0     H32693   0.593  11.034  11.178  0.1470 -1.4961  1.7082
  983MOL0     H32694   0.700  10.902  11.229  2.6648  1.4059 -1.2149
  983MOL0     H32695   0.472  10.891  11.032 -0.4440  0.6611  0.3171
  983MOL0     H32696   0.442  10.860  11.211  0.3872  0.1678  1.4428
  983MOL0     H32697   0.543  10.661  11.215 -1.3828 -1.2475 -1.0988
  983MOL0     H32698   0.650  10.693  11.074 -0.0377 -1.7890 -0.0652
  983MOL0     H32699   0.427  10.692  10.934  1.3012 -0.1282 -1.1572
  983MOL0     H32700   0.513  10.538  10.984 -1.5871 -0.6093 -0.8984
  983MOL0     H32701   0.129  10.519  11.177  0.7979  0.5248  3.0015
  983MOL0     H32702   0.814  11.110  11.208 -2.5921  1.3263 -1.7841
  983MOL0     H32703   1.011  11.366  11.164 -1.5273 -0.0689  0.6833
  983MOL0     H32704   0.950  11.268  11.297 -2.3226  2.2372 -2.3027
  983MOL0     H32705   1.128  11.266  11.252  0.2785 -0.0312 -1.9878
  984MOL0     O32706   4.046   2.943   4.375  0.3968  0.1642 -0.1788
  984MOL0     C32707   4.026   2.831   4.333 -0.1151  0.0282  0.6617
  984MOL0     O32708   4.057   2.717   4.396  0.7597  0.2697 -0.2087
  984MOL0     C32709   4.097   2.741   4.522 -0.4288 -0.0534  0.2843
  984MOL0     C32710   4.234   2.739   4.562  0.5717  0.0842 -0.9587
  984MOL0     C32711   4.270   2.756   4.702 -0.1580 -0.2468 -0.0630
  984MOL0     C32712   4.169   2.771   4.798  0.1833  1.2644  0.7692
  984MOL0     O32713   4.209   2.791   4.926  0.2843  0.3281  0.0716
  984MOL0     C32714   4.121   2.838   5.025  0.9310  0.2088 -0.7426
  984MOL0     C32715   4.156   2.790   5.168  0.0529  0.3377 -0.3859
  984MOL0     C32716   4.301   2.832   5.197 -0.2198  0.1743 -0.3163
  984MOL0     C32717   4.360   2.771   5.315  0.4283 -0.1214 -0.5209
  984MOL0     C32718   4.511   2.831   5.326  0.1800 -0.2082  0.4280
  984MOL0     C32719   4.575   2.767   5.446  0.0407  0.4111  0.1745
  984MOL0     C32720   4.720   2.819   5.459  0.4642 -0.8486 -0.0776
  984MOL0     C32721   4.822   2.718   5.426  0.1503  0.1107  0.1079
  984MOL0     N32722   4.953   2.770   5.460 -0.1876  0.5535 -0.0862
  984MOL0     C32723   5.025   2.870   5.392  0.0785  0.7435 -0.7368
  984MOL0     C32724   5.138   2.893   5.473 -0.2085  0.3705  0.2630
  984MOL0     C32725   5.247   2.990   5.449  0.2220 -0.5307  0.3831
  984MOL0     C32726   5.359   2.925   5.374 -0.4789 -1.0867 -0.1401
  984MOL0     C32727   5.341   2.872   5.231  0.2563  0.0491  0.0916
  984MOL0     C32728   5.459   2.781   5.184  0.0059  0.1582  0.7461
  984MOL0     O32729   5.577   2.859   5.194 -0.8019 -0.5163 -0.4643
  984MOL0     C32730   5.692   2.804   5.158 -0.6407  0.0643 -0.2047
  984MOL0     C32731   5.783   2.904   5.119  0.2476 -0.0316 -0.2035
  984MOL0     C32732   5.904   2.864   5.065 -0.8843  1.5227  0.6093
  984MOL0     C32733   5.947   2.726   5.057  0.5860  0.3478 -0.1216
  984MOL0     C32734   6.084   2.684   5.015  0.0536 -0.0518  0.1482
  984MOL0     O32735   6.172   2.782   4.977 -0.0603  0.2158 -0.5281
  984MOL0     C32736   6.302   2.751   4.934 -0.1848  0.1120  0.1844
  984MOL0     C32737   6.373   2.869   4.905 -0.1098  0.2389 -0.5435
  984MOL0     C32738   6.509   2.872   4.884 -0.2938 -0.4412  0.2686
  984MOL0     C32739   6.577   2.750   4.878 -0.2875  0.2527 -0.2420
  984MOL0     O32740   6.707   2.723   4.850  0.5542 -0.8959  0.0296
  984MOL0     C32741   6.803   2.827   4.825  0.1293 -0.0501 -0.4668
  984MOL0     C32742   6.937   2.772   4.870 -0.7852 -0.3145  0.3900
  984MOL0     C32743   7.043   2.884   4.848  0.7647  0.0020  0.3571
  984MOL0     C32744   7.182   2.826   4.877  0.2781  0.0344  0.0557
  984MOL0     C32745   7.284   2.922   4.819 -0.1710  0.2984 -0.2399
  984MOL0     C32746   7.420   2.887   4.867 -0.5819  0.4574  0.4553
  984MOL0     C32747   7.537   2.944   4.779 -0.2849  0.3965  0.2648
  984MOL0     C32748   7.664   2.869   4.785 -0.7353 -0.2426 -0.2259
  984MOL0    Cl32749   7.772   2.957   4.681  0.0412 -0.3969  0.0469
  984MOL0     C32750   6.512   2.630   4.900 -0.0255 -0.3622  1.3549
  984MOL0     C32751   6.373   2.628   4.933  0.1892 -0.8319  0.0951
  984MOL0     O32752   6.106   2.566   5.018 -0.3254  0.2944 -0.0549
  984MOL0     C32753   5.857   2.632   5.124  0.0319  0.4618 -0.0200
  984MOL0     C32754   5.729   2.669   5.165 -0.3236  0.6163  0.2201
  984MOL0     N32755   5.142   2.797   5.570 -0.3771 -0.0015 -0.3529
  984MOL0     N32756   5.033   2.735   5.569 -0.3423 -0.9991 -0.0607
  984MOL0     C32757   4.038   2.773   4.750 -0.1168  0.1363 -0.0682
  984MOL0     C32758   4.002   2.752   4.618  0.4238 -0.7610 -0.3394
  984MOL0     C32759   3.951   2.821   4.203 -0.1925 -0.4261  0.2557
  984MOL0     C32760   3.854   2.717   4.198 -0.2320 -0.2410  0.2822
  984MOL0     C32761   3.774   2.704   4.084 -0.0169 -0.2644 -0.6142
  984MOL0     C32762   3.802   2.779   3.971  0.1862 -0.0295  0.1224
  984MOL0     O32763   3.727   2.787   3.852  0.5197 -0.0514 -0.2841
  984MOL0     C32764   3.615   2.698   3.815 -0.4008  0.2812 -0.7450
  984MOL0     C32765   3.529   2.760   3.711 -0.2122  0.9518  0.3814
  984MOL0     C32766   3.598   2.780   3.581  0.5449 -0.0477  0.0842
  984MOL0     C32767   3.568   2.910   3.510  0.3130  0.4674 -0.7257
  984MOL0     C32768   3.613   2.893   3.369  0.9431  0.5570 -0.1477
  984MOL0     C32769   3.667   2.868   3.261 -0.2498 -0.1877 -0.2309
  984MOL0     C32770   3.895   2.878   3.972  0.2235 -0.1743  0.1373
  984MOL0     C32771   3.964   2.907   4.089  0.7260  0.0077 -0.5258
  984MOL0     C32772   4.071   3.017   4.094 -0.0929  0.4734 -0.6046
  984MOL0     H32773   4.316   2.730   4.490  0.4823  0.0811 -1.0608
  984MOL0     H32774   4.373   2.752   4.736 -0.5082  5.0488  2.7222
  984MOL0     H32775   4.111   2.946   5.015  0.8072  0.2846  0.1462
  984MOL0     H32776   4.023   2.791   5.013  0.5411  0.8449 -0.1188
  984MOL0     H32777   4.139   2.682   5.176 -0.2093  0.5249  3.9069
  984MOL0     H32778   4.099   2.831   5.252 -0.6841  1.7480 -1.5422
  984MOL0     H32779   4.287   2.939   5.214 -2.0677  0.0265 -0.7025
  984MOL0     H32780   4.370   2.822   5.113  0.4901  0.4711  0.2162
  984MOL0     H32781   4.287   2.789   5.395 -2.1937 -2.2809 -2.2388
  984MOL0     H32782   4.373   2.663   5.311  1.7189  0.0304 -0.9131
  984MOL0     H32783   4.571   2.805   5.238 -0.7374  4.5716 -1.9131
  984MOL0     H32784   4.521   2.939   5.323  1.6403 -0.3396 -1.5386
  984MOL0     H32785   4.509   2.797   5.527 -2.4491  0.2144 -1.6524
  984MOL0     H32786   4.577   2.658   5.436  0.2619  0.3277  1.0736
  984MOL0     H32787   4.729   2.853   5.563 -0.1431 -0.6021 -0.1050
  984MOL0     H32788   4.737   2.911   5.403  0.0863 -0.3562  0.5935
  984MOL0     H32789   4.799   2.624   5.477 -0.5065  0.1351 -0.1379
  984MOL0     H32790   4.815   2.703   5.317  1.5530  2.0717 -0.2944
  984MOL0     H32791   4.993   2.924   5.304  1.1543 -0.9579 -2.2329
  984MOL0     H32792   5.218   3.078   5.390  1.4749  1.2006  2.2370
  984MOL0     H32793   5.284   3.013   5.549 -0.4435 -2.2596  1.0557
  984MOL0     H32794   5.443   2.995   5.370 -2.0633  0.9683  0.7544
  984MOL0     H32795   5.388   2.838   5.434  0.0177  0.2347  1.6068
  984MOL0     H32796   5.337   2.965   5.173 -1.9775  1.3567  2.1736
  984MOL0     H32797   5.254   2.807   5.217  2.2769 -2.6623 -0.6822
  984MOL0     H32798   5.427   2.752   5.083 -0.7695  0.7814  0.8094
  984MOL0     H32799   5.458   2.699   5.256 -1.7188  0.3587  0.9903
  984MOL0     H32800   5.762   3.009   5.104 -1.2858  0.3242  3.4419
  984MOL0     H32801   5.975   2.941   5.037  1.4858 -0.4516  0.8345
  984MOL0     H32802   6.314   2.960   4.903 -2.5413 -1.2667 -1.4599
  984MOL0     H32803   6.557   2.968   4.864  0.5158 -0.9257 -0.1657
  984MOL0     H32804   6.794   2.862   4.722 -1.4965  0.3939 -0.1996
  984MOL0     H32805   6.789   2.919   4.884  3.2933  1.5857 -2.0397
  984MOL0     H32806   6.935   2.746   4.976  0.3945  1.8985  1.0342
  984MOL0     H32807   6.963   2.688   4.806 -0.9495 -0.1875  0.1545
  984MOL0     H32808   7.043   2.900   4.740 -2.2483 -0.1462  0.2501
  984MOL0     H32809   7.016   2.980   4.893  1.7361  0.1402  0.6734
  984MOL0     H32810   7.197   2.728   4.831 -0.8241 -0.1119 -0.0312
  984MOL0     H32811   7.186   2.825   4.986 -4.4984  1.4788  0.4704
  984MOL0     H32812   7.272   3.025   4.853  0.2974  1.3011 -2.8677
  984MOL0     H32813   7.275   2.922   4.710  1.4025 -1.5782 -0.4226
  984MOL0     H32814   7.423   2.918   4.972 -0.4323  1.6631  0.1138
  984MOL0     H32815   7.414   2.779   4.851 -1.5880  0.5956 -0.1777
  984MOL0     H32816   7.566   3.041   4.820  1.4965 -1.1178  2.9030
  984MOL0     H32817   7.509   2.949   4.674  1.1576  1.1608 -0.1109
  984MOL0     H32818   7.707   2.873   4.886 -0.8231 -2.1536 -0.0722
  984MOL0     H32819   7.656   2.765   4.751  5.1920 -1.5769  1.2183
  984MOL0     H32820   6.550   2.530   4.885 -2.1910 -0.9145 -1.3198
  984MOL0     H32821   6.326   2.533   4.955  0.7549 -0.9727  0.7007
  984MOL0     H32822   5.881   2.526   5.135 -4.7306 -0.6946  2.4255
  984MOL0     H32823   5.653   2.597   5.196  0.7253 -1.0152 -0.8600
  984MOL0     H32824   3.949   2.798   4.807 -1.7296  0.7234 -2.6502
  984MOL0     H32825   3.896   2.742   4.596 -0.0271  1.0067  0.7977
  984MOL0     H32826   3.851   2.644   4.278  3.6371 -0.5364  0.3252
  984MOL0     H32827   3.689   2.636   4.088 -1.0668  0.9731 -1.1408
  984MOL0     H32828   3.557   2.681   3.906 -1.5925  3.1899 -0.8700
  984MOL0     H32829   3.659   2.603   3.782  0.4839  0.0470  1.0137
  984MOL0     H32830   3.498   2.858   3.747 -1.6880  1.0736 -1.1683
  984MOL0     H32831   3.437   2.702   3.701  0.9067 -0.8025 -0.2981
  984MOL0     H32832   3.574   2.689   3.527 -2.5300  0.4628  0.4437
  984MOL0     H32833   3.708   2.784   3.585  0.6138 -0.5268 -1.0338
  984MOL0     H32834   3.464   2.936   3.532  0.7890 -0.0700  2.6812
  984MOL0     H32835   3.621   2.995   3.554 -2.6841  2.2469 -0.2443
  984MOL0     H32836   3.715   2.854   3.166 -0.0720 -0.2453 -0.1331
  984MOL0     H32837   3.908   2.942   3.885 -1.0697 -0.6457 -0.4226
  984MOL0     H32838   4.065   3.085   4.009 -2.6947  1.8775  0.5861
  984MOL0     H32839   4.055   3.089   4.175  0.1632  0.8326 -0.8703
  984MOL0     H32840   4.165   2.962   4.100  1.0241  2.2504 -1.1324
  985MOL0     O32841   6.228  11.234   6.787 -0.5534  0.0176  1.1613
  985MOL0     C32842   6.155  11.322   6.738 -0.0284 -1.3972 -0.7786
  985MOL0     O32843   6.192  11.453   6.704 -0.3169 -0.1076  0.1068
  985MOL0     C32844   6.318  11.490   6.682  0.0521  0.0464 -0.0204
  985MOL0     C32845   6.403  11.417   6.595  0.0432  1.2978 -0.1832
  985MOL0     C32846   6.543  11.455   6.592  0.0808 -0.1907 -0.2235
  985MOL0     C32847   6.586  11.572   6.657 -0.3236  0.5198 -0.4756
  985MOL0     O32848   6.716  11.593   6.688 -0.4615 -0.1074  0.1487
  985MOL0     C32849   6.812  11.603   6.576  0.0090 -0.7759  0.9939
  985MOL0     C32850   6.887  11.472   6.568 -0.0416 -0.5243  0.0101
  985MOL0     C32851   7.012  11.496   6.480  0.0884 -0.8291 -0.0517
  985MOL0     C32852   7.079  11.366   6.440  0.0210 -1.0813  0.1630
  985MOL0     C32853   7.209  11.371   6.371  0.7757  0.3211 -0.8501
  985MOL0     C32854   7.323  11.376   6.470 -0.1384  0.3169 -0.0985
  985MOL0     C32855   7.458  11.371   6.395 -0.2816 -0.2274  0.1090
  985MOL0     C32856   7.496  11.494   6.320  0.0652 -0.2278  1.3061
  985MOL0     N32857   7.639  11.507   6.299 -0.3751 -0.5168  1.0282
  985MOL0     C32858   7.736  11.573   6.369  0.0402  0.8071  0.1656
  985MOL0     C32859   7.847  11.553   6.301  0.1958 -0.9677  0.0306
  985MOL0     C32860   7.989  11.611   6.331 -0.1257 -0.4490  0.2979
  985MOL0     C32861   8.057  11.538   6.453 -0.4059  0.6780 -0.1862
  985MOL0     C32862   8.180  11.611   6.500 -0.3358  0.2945 -0.4863
  985MOL0     C32863   8.292  11.601   6.394 -0.4824  0.9357 -0.7767
  985MOL0     O32864   8.412  11.665   6.432  0.0061  0.0793 -0.1286
  985MOL0     C32865   8.535  11.638   6.380 -0.1316 -0.2416 -0.0756
  985MOL0     C32866   8.562  11.591   6.259 -0.3838  0.2261  0.2806
  985MOL0     C32867   8.688  11.565   6.205  0.3454  0.0514 -0.0049
  985MOL0     C32868   8.804  11.585   6.286  0.1823  0.8594 -0.9450
  985MOL0     C32869   8.941  11.569   6.242 -0.2654  0.3097 -0.0531
  985MOL0     O32870   9.031  11.525   6.339  0.4151 -0.0350 -0.0045
  985MOL0     C32871   9.159  11.511   6.305 -1.0286  0.7145 -1.1871
  985MOL0     C32872   9.237  11.583   6.214  0.1537  0.7785  0.0280
  985MOL0     C32873   9.372  11.551   6.194 -1.0735 -0.7263  0.7858
  985MOL0     C32874   9.439  11.447   6.262 -0.2547 -0.4310  0.4657
  985MOL0     O32875   9.572  11.434   6.239  0.1485  0.3830  0.2630
  985MOL0     C32876   9.649  11.367   6.342  0.7493 -0.6982  0.3320
  985MOL0     C32877   9.796  11.406   6.329  0.1328 -0.1382  0.8931
  985MOL0     C32878   9.874  11.355   6.199  0.5098 -0.1091 -0.0021
  985MOL0     C32879   9.875  11.201   6.195  0.0037  0.4633 -0.1834
  985MOL0     C32880   9.994  11.148   6.112 -0.3866 -0.3667  0.4036
  985MOL0     C32881  10.120  11.127   6.201 -0.8763  0.4537  0.8291
  985MOL0     C32882  10.260  11.113   6.126  0.2204 -0.4754  1.1145
  985MOL0     C32883  10.371  11.063   6.210 -0.7305 -0.1849 -0.4691
  985MOL0    Cl32884  10.508  11.024   6.096 -0.2671 -0.1834  0.3093
  985MOL0     C32885   9.358  11.374   6.350 -0.0114 -0.6023 -0.2566
  985MOL0     C32886   9.221  11.407   6.369  0.0079  0.6079  0.6314
  985MOL0     O32887   8.961  11.576   6.116 -0.7280 -0.2780 -0.2766
  985MOL0     C32888   8.782  11.647   6.412  0.4422  0.2367 -0.0856
  985MOL0     C32889   8.648  11.678   6.455 -0.3392 -0.1867 -0.1443
  985MOL0     N32890   7.820  11.463   6.191 -0.2506 -0.2724  0.4232
  985MOL0     N32891   7.695  11.442   6.192  0.8034  0.5454 -0.0051
  985MOL0     C32892   6.500  11.651   6.735  0.3233  1.2740  0.0673
  985MOL0     C32893   6.365  11.614   6.744 -0.9453  0.7806 -0.3053
  985MOL0     C32894   6.015  11.286   6.708  0.5452 -0.5050  0.4273
  985MOL0     C32895   5.953  11.358   6.606 -0.4588 -0.1463 -0.5131
  985MOL0     C32896   5.822  11.322   6.562 -0.0911 -0.9751 -0.3418
  985MOL0     C32897   5.754  11.214   6.623 -0.0442 -0.2533  0.5299
  985MOL0     O32898   5.634  11.181   6.567  0.2808 -0.6505  0.5459
  985MOL0     C32899   5.579  11.045   6.596  0.4375  0.0882  0.7249
  985MOL0     C32900   5.452  11.010   6.511 -0.1539 -0.5982 -0.4160
  985MOL0     C32901   5.327  11.092   6.555  0.5304 -0.9572  0.6303
  985MOL0     C32902   5.199  11.055   6.473 -0.0900  0.2026 -0.7022
  985MOL0     C32903   5.078  11.107   6.535  0.4491 -0.9970  0.1345
  985MOL0     C32904   4.969  11.146   6.560  0.7513  0.2864  0.0462
  985MOL0     C32905   5.818  11.144   6.720 -0.6496 -0.3423 -0.5093
  985MOL0     C32906   5.949  11.176   6.766  0.1090 -0.2435  0.5202
  985MOL0     C32907   6.000  11.103   6.889  0.4276 -0.2387  0.8301
  985MOL0     H32908   6.368  11.329   6.543  1.4487  0.4495  0.2394
  985MOL0     H32909   6.605  11.388   6.534 -0.3038  0.6574 -1.6656
  985MOL0     H32910   6.762  11.631   6.483 -1.7765  1.1218  2.4323
  985MOL0     H32911   6.891  11.677   6.592 -0.6455  0.1292  0.1808
  985MOL0     H32912   6.814  11.403   6.524 -0.6955  0.8129 -1.0712
  985MOL0     H32913   6.910  11.447   6.672  1.5673 -2.3343 -0.7214
  985MOL0     H32914   7.079  11.561   6.537  0.3476 -1.9831  1.0172
  985MOL0     H32915   6.975  11.550   6.393  1.7185  0.3184 -0.0865
  985MOL0     H32916   7.098  11.314   6.534 -1.6338  0.3554  1.3632
  985MOL0     H32917   7.008  11.306   6.381  0.0772  1.0181 -2.1944
  985MOL0     H32918   7.208  11.277   6.315  1.1922  1.1695 -2.3565
  985MOL0     H32919   7.221  11.455   6.301  1.5582  0.2454 -0.8141
  985MOL0     H32920   7.321  11.463   6.536 -1.0781 -1.7747  2.8439
  985MOL0     H32921   7.316  11.288   6.535  0.5232  0.1275 -0.2722
  985MOL0     H32922   7.468  11.282   6.332  1.3713  0.7450 -1.0674
  985MOL0     H32923   7.531  11.365   6.477 -2.1622 -1.1960  1.8094
  985MOL0     H32924   7.451  11.489   6.220  2.0990  0.7133  0.2867
  985MOL0     H32925   7.452  11.583   6.367 -0.8379  0.1224 -0.1354
  985MOL0     H32926   7.717  11.630   6.459  0.3669  0.0594  0.7194
  985MOL0     H32927   8.049  11.601   6.241 -0.4907 -1.8248  0.1864
  985MOL0     H32928   7.971  11.717   6.349 -1.7240 -0.8703  1.4100
  985MOL0     H32929   7.984  11.534   6.535 -0.3092  0.1710 -0.1233
  985MOL0     H32930   8.082  11.434   6.431  0.1180  0.0748  2.8660
  985MOL0     H32931   8.225  11.578   6.594  0.3140  0.9041 -0.5717
  985MOL0     H32932   8.155  11.717   6.499  1.4085  0.7456 -0.5130
  985MOL0     H32933   8.253  11.634   6.298 -0.3993 -1.6921 -1.8025
  985MOL0     H32934   8.319  11.496   6.380  0.1439  1.2830 -2.3577
  985MOL0     H32935   8.478  11.573   6.193  0.0882 -0.0437 -0.2513
  985MOL0     H32936   8.696  11.523   6.105  0.5170  1.5481 -0.6411
  985MOL0     H32937   9.188  11.661   6.156  0.4369 -0.1024 -1.4748
  985MOL0     H32938   9.423  11.615   6.123 -1.7409 -2.0215 -0.9141
  985MOL0     H32939   9.621  11.401   6.442 -0.1287 -0.2116 -0.0707
  985MOL0     H32940   9.614  11.265   6.321 -2.9287  0.1480  1.5891
  985MOL0     H32941   9.802  11.515   6.326 -0.1019 -0.1038  1.5945
  985MOL0     H32942   9.853  11.368   6.414  1.5301 -1.0692 -0.4005
  985MOL0     H32943   9.835  11.399   6.107 -0.1892 -0.6699  0.0234
  985MOL0     H32944   9.975  11.398   6.200  0.1302  1.1877 -3.7102
  985MOL0     H32945   9.781  11.178   6.145 -0.4065  1.5372  0.0750
  985MOL0     H32946   9.882  11.170   6.300 -0.8732  2.1230  0.3999
  985MOL0     H32947  10.019  11.210   6.025 -0.7923 -0.6671  0.0734
  985MOL0     H32948   9.961  11.051   6.077 -3.0259  0.1338  1.2725
  985MOL0     H32949  10.128  11.215   6.265 -2.0253  0.4373  1.0034
  985MOL0     H32950  10.118  11.035   6.259 -0.7372  0.3744  0.7104
  985MOL0     H32951  10.268  11.215   6.087 -3.7631  0.2529  1.7493
  985MOL0     H32952  10.250  11.037   6.048 -3.5194  1.8829 -0.9739
  985MOL0     H32953  10.406  11.146   6.272 -0.7376 -0.4857 -0.0516
  985MOL0     H32954  10.338  10.972   6.262  0.2388  0.2066  0.8820
  985MOL0     H32955   9.404  11.293   6.405 -0.6221 -1.9761 -1.6779
  985MOL0     H32956   9.158  11.364   6.446 -1.0967  1.3175  0.1543
  985MOL0     H32957   8.863  11.669   6.480  0.2873  0.8282 -0.0902
  985MOL0     H32958   8.636  11.705   6.560 -0.2113 -0.4677 -0.0554
  985MOL0     H32959   6.528  11.737   6.795  1.5004  0.2488  1.0419
  985MOL0     H32960   6.305  11.671   6.814  2.1823 -0.5201  3.8875
  985MOL0     H32961   5.997  11.449   6.565  3.0215 -1.7836 -0.8128
  985MOL0     H32962   5.771  11.387   6.493 -1.9980  0.2538  2.0518
  985MOL0     H32963   5.552  11.039   6.701  0.1953  1.5713  0.7686
  985MOL0     H32964   5.661  10.974   6.579 -1.0007 -1.4048 -0.3485
  985MOL0     H32965   5.430  10.905   6.534 -0.1564  0.0999  3.4280
  985MOL0     H32966   5.459  11.035   6.405 -1.4143  0.1294 -0.3477
  985MOL0     H32967   5.347  11.198   6.544  1.7128 -1.3521 -1.3337
  985MOL0     H32968   5.307  11.071   6.661  0.3603 -1.0893  0.5733
  985MOL0     H32969   5.215  11.090   6.371  2.1225  1.8529  0.1390
  985MOL0     H32970   5.182  10.947   6.469  0.8377  0.0113  0.1101
  985MOL0     H32971   4.872  11.170   6.598  1.1577  2.0848  0.0302
  985MOL0     H32972   5.767  11.070   6.781 -1.0333 -0.9376 -1.5155
  985MOL0     H32973   6.083  11.034   6.870  0.3349  0.3616 -2.3645
  985MOL0     H32974   6.050  11.178   6.951 -1.3846 -0.3273  2.4917
  985MOL0     H32975   5.921  11.048   6.941  0.6591 -1.6716 -0.2722
  986MOL0     O32976   9.579   2.973   6.135  0.5429  0.0315  0.6840
  986MOL0     C32977   9.615   2.860   6.133 -0.0758 -0.2808 -0.7290
  986MOL0     O32978   9.744   2.814   6.128 -0.1232 -0.0652 -0.5895
  986MOL0     C32979   9.846   2.902   6.115  0.7575 -0.1851  0.3450
  986MOL0     C32980   9.841   2.993   6.011 -0.2927 -0.6504  0.6532
  986MOL0     C32981   9.936   3.102   6.016  0.2908  0.7248  0.0334
  986MOL0     C32982  10.019   3.114   6.125 -0.6258  0.1665  0.0000
  986MOL0     O32983  10.119   3.217   6.139  0.1064 -0.0588  0.0207
  986MOL0     C32984  10.119   3.327   6.040  0.1692  0.1377 -0.2612
  986MOL0     C32985  10.230   3.425   6.082 -0.2490  0.1697 -0.0105
  986MOL0     C32986  10.378   3.376   6.094  0.3297 -0.4902  0.3001
  986MOL0     C32987  10.464   3.480   6.169  1.2518  0.0800  0.4863
  986MOL0     C32988  10.610   3.432   6.179  0.0398 -0.1861  0.3613
  986MOL0     C32989  10.679   3.402   6.040 -0.2016 -0.3401  0.7981
  986MOL0     C32990  10.823   3.363   6.054 -0.4892  0.4627  0.0438
  986MOL0     C32991  10.909   3.482   6.118 -0.1290 -0.6717  0.6038
  986MOL0     N32992  11.040   3.430   6.164  0.4317 -1.2572 -0.3917
  986MOL0     C32993  11.116   3.333   6.098  0.0465  0.3594 -0.2061
  986MOL0     C32994  11.226   3.321   6.172  0.2130 -0.0902  0.8463
  986MOL0     C32995  11.328   3.210   6.148  0.4835 -0.3672 -0.1566
  986MOL0     C32996  11.425   3.195   6.259  0.3726  0.2244  0.3433
  986MOL0     C32997  11.522   3.084   6.212  0.1252  0.2115 -0.1967
  986MOL0     C32998  11.648   3.085   6.299 -1.1921  0.2809 -0.1289
  986MOL0     O32999  11.725   3.210   6.294  0.3027  0.4925 -0.3275
  986MOL0     C33000  11.827   3.217   6.201  0.3325 -0.2866 -0.4846
  986MOL0     C33001  11.850   3.131   6.094 -0.6755 -1.0893 -0.2762
  986MOL0     C33002  11.954   3.155   6.002 -0.2447  1.1065 -0.3361
  986MOL0     C33003  12.039   3.264   6.021  0.2609 -0.0062 -0.2090
  986MOL0     C33004  12.146   3.296   5.918  0.4993  0.4316 -0.4725
  986MOL0     O33005  12.170   3.426   5.898  0.1466  0.9415 -0.0111
  986MOL0     C33006  12.266   3.461   5.807  0.4069 -0.1964  0.9152
  986MOL0     C33007  12.237   3.468   5.665  0.5803  0.3159  0.2513
  986MOL0     C33008  12.339   3.487   5.574  1.1822  0.1885  0.4297
  986MOL0     C33009  12.471   3.512   5.615 -1.3471 -0.0103 -0.4864
  986MOL0     O33010  12.576   3.530   5.532  0.5811 -0.5169  0.8526
  986MOL0     C33011  12.583   3.655   5.455 -0.0584  0.9925  0.0224
  986MOL0     C33012  12.719   3.669   5.396 -0.0836  0.3875  0.1275
  986MOL0     C33013  12.826   3.690   5.499  0.2833 -0.2493 -0.2173
  986MOL0     C33014  12.960   3.743   5.438 -0.3159 -0.5345  0.0838
  986MOL0     C33015  13.059   3.796   5.546  0.3569  0.0970  0.2481
  986MOL0     C33016  13.125   3.677   5.608 -0.0542  0.1903  0.7442
  986MOL0     C33017  13.238   3.718   5.704 -0.5929 -0.4866  0.8447
  986MOL0     C33018  13.370   3.745   5.630  0.3105 -0.6506  0.6037
  986MOL0    Cl33019  13.507   3.770   5.752 -0.8732 -0.3195  0.0086
  986MOL0     C33020  12.498   3.499   5.755  0.0289  0.5803  0.6849
  986MOL0     C33021  12.396   3.476   5.846 -0.1623  0.7467  0.7301
  986MOL0     O33022  12.182   3.208   5.841 -0.3386  0.4585  0.6689
  986MOL0     C33023  12.018   3.353   6.129 -0.2231 -1.1069  0.2322
  986MOL0     C33024  11.915   3.329   6.223  0.0537 -0.2576  0.1300
  986MOL0     N33025  11.222   3.416   6.275  0.2090 -0.5239 -0.2972
  986MOL0     N33026  11.107   3.480   6.265 -0.1824 -0.3283 -0.2437
  986MOL0     C33027  10.022   3.018   6.226  0.1923  0.4143 -0.1398
  986MOL0     C33028   9.936   2.906   6.217 -0.4638 -0.6749  0.2579
  986MOL0     C33029   9.515   2.754   6.157  0.9782  0.1802 -0.1619
  986MOL0     C33030   9.542   2.664   6.261  0.3989 -1.2512 -1.0325
  986MOL0     C33031   9.447   2.569   6.310 -1.5475 -0.4426 -0.3511
  986MOL0     C33032   9.327   2.560   6.253  0.9674  0.1712  0.0249
  986MOL0     O33033   9.246   2.467   6.317 -0.0920  0.5160  0.4506
  986MOL0     C33034   9.108   2.464   6.289  0.5762  0.3154 -0.2911
  986MOL0     C33035   9.047   2.364   6.389 -0.3894  0.0272 -0.6009
  986MOL0     C33036   8.897   2.344   6.373  0.0364  0.0887 -0.4729
  986MOL0     C33037   8.874   2.202   6.304 -0.1553  0.3651 -0.6732
  986MOL0     C33038   8.755   2.202   6.224  0.3032  0.8654  0.1614
  986MOL0     C33039   8.648   2.205   6.164 -0.1839  0.4585 -0.6318
  986MOL0     C33040   9.290   2.656   6.151 -0.8839  0.3231  0.0731
  986MOL0     C33041   9.389   2.748   6.098 -0.3177  0.4040 -0.1244
  986MOL0     C33042   9.348   2.841   5.993 -0.3113  0.0913  0.2664
  986MOL0     H33043   9.768   2.983   5.932 -1.5470 -0.6803  1.7751
  986MOL0     H33044   9.930   3.180   5.941  0.0292  2.0714  1.4056
  986MOL0     H33045  10.140   3.276   5.945  0.7680 -1.4299  0.6679
  986MOL0     H33046  10.024   3.381   6.043 -0.7467 -1.2218 -2.2756
  986MOL0     H33047  10.210   3.458   6.184  2.3350  2.5365 -0.1246
  986MOL0     H33048  10.227   3.521   6.028 -1.0812 -0.4634 -1.1250
  986MOL0     H33049  10.410   3.362   5.990 -1.9172  1.3599 -0.7234
  986MOL0     H33050  10.391   3.278   6.141  1.5212 -0.1979  0.6241
  986MOL0     H33051  10.470   3.570   6.106 -0.1753 -1.3210 -1.8077
  986MOL0     H33052  10.423   3.507   6.266  2.0137  3.2446  0.0596
  986MOL0     H33053  10.666   3.502   6.242  1.2657 -2.4439  1.9064
  986MOL0     H33054  10.605   3.345   6.244 -1.1030  0.1961  0.8157
  986MOL0     H33055  10.618   3.321   6.001  0.0838  0.0238 -0.4620
  986MOL0     H33056  10.676   3.487   5.971 -1.9159 -0.6913  0.3933
  986MOL0     H33057  10.884   3.333   5.968  1.5626  4.2622 -0.0661
  986MOL0     H33058  10.826   3.275   6.119  1.0409 -0.3117 -1.0039
  986MOL0     H33059  10.923   3.565   6.047  1.0809 -1.4818 -0.1473
  986MOL0     H33060  10.854   3.524   6.203 -0.3541 -0.4754  0.3622
  986MOL0     H33061  11.082   3.270   6.016 -0.8894 -1.0122  1.1715
  986MOL0     H33062  11.285   3.111   6.131  2.4168 -1.4740  1.0129
  986MOL0     H33063  11.387   3.235   6.059 -0.7140  1.3812 -0.4907
  986MOL0     H33064  11.489   3.283   6.274 -0.2395  0.4357  1.8419
  986MOL0     H33065  11.376   3.171   6.353 -3.5653 -1.1991 -1.8151
  986MOL0     H33066  11.549   3.099   6.107  0.3042 -3.4356 -0.8242
  986MOL0     H33067  11.470   2.988   6.226  0.5799  0.1540  1.3579
  986MOL0     H33068  11.706   3.000   6.262 -2.5872 -1.1302  0.8238
  986MOL0     H33069  11.625   3.063   6.404 -0.3885 -2.2620 -0.4158
  986MOL0     H33070  11.783   3.049   6.071 -2.7432  0.2286  0.7365
  986MOL0     H33071  11.953   3.087   5.918  0.4879 -2.6050  2.3990
  986MOL0     H33072  12.134   3.455   5.634  0.1125  0.0768  1.8140
  986MOL0     H33073  12.324   3.471   5.467 -2.9905  0.6492  0.7794
  986MOL0     H33074  12.510   3.650   5.374  2.1209 -3.3380 -2.0334
  986MOL0     H33075  12.562   3.737   5.524  0.9639 -1.5129  3.5691
  986MOL0     H33076  12.741   3.579   5.338  0.7093  0.4017  0.3968
  986MOL0     H33077  12.713   3.753   5.326  0.0734 -1.0713 -1.7389
  986MOL0     H33078  12.790   3.754   5.581 -1.0409 -1.4759  0.2118
  986MOL0     H33079  12.838   3.590   5.542  1.4265  0.7396  1.9351
  986MOL0     H33080  12.944   3.826   5.370 -0.7685 -0.6966 -0.0108
  986MOL0     H33081  12.997   3.659   5.378 -2.1058 -0.9663 -0.4635
  986MOL0     H33082  12.995   3.855   5.613  0.9213  1.2547 -0.1967
  986MOL0     H33083  13.137   3.856   5.499  0.2695  1.4301  1.6932
  986MOL0     H33084  13.056   3.616   5.668 -1.6468  0.3436 -0.8384
  986MOL0     H33085  13.155   3.607   5.529 -3.1239  1.3088 -1.6447
  986MOL0     H33086  13.260   3.627   5.762  1.8553 -0.8276 -0.4685
  986MOL0     H33087  13.208   3.808   5.758  1.0479  0.5590  0.0976
  986MOL0     H33088  13.394   3.661   5.565  1.4025  0.4467 -0.4775
  986MOL0     H33089  13.365   3.832   5.564  1.6355 -0.1554  1.1000
  986MOL0     H33090  12.597   3.514   5.798 -0.8523 -4.1307  5.3610
  986MOL0     H33091  12.412   3.462   5.952 -1.7706 -3.6494  0.5862
  986MOL0     H33092  12.078   3.442   6.139 -0.6330 -0.9214  1.1013
  986MOL0     H33093  11.878   3.408   6.289 -0.1478  1.3244 -1.7633
  986MOL0     H33094  10.095   3.026   6.306  1.0599  3.2703 -1.1166
  986MOL0     H33095   9.937   2.837   6.300  2.6746  3.4674  4.1913
  986MOL0     H33096   9.634   2.669   6.319  0.2214 -1.5526 -0.7166
  986MOL0     H33097   9.476   2.501   6.389 -2.0309 -0.5584 -0.2713
  986MOL0     H33098   9.091   2.427   6.188 -1.0612 -0.0690  0.0892
  986MOL0     H33099   9.060   2.561   6.277 -0.3048  0.2473  2.1274
  986MOL0     H33100   9.073   2.407   6.486 -1.6642 -3.5855  1.5039
  986MOL0     H33101   9.097   2.267   6.384 -0.7721 -0.2468  0.6454
  986MOL0     H33102   8.853   2.425   6.315 -0.7569  1.2547  1.6614
  986MOL0     H33103   8.843   2.338   6.468 -2.8024 -4.2599 -2.0471
  986MOL0     H33104   8.954   2.187   6.231 -0.7404  0.9855 -1.4529
  986MOL0     H33105   8.876   2.125   6.382 -0.4251  0.3833 -0.6487
  986MOL0     H33106   8.570   2.204   6.092 -1.8651 -2.9203  0.9994
  986MOL0     H33107   9.190   2.664   6.111 -1.1241  2.2191  0.9836
  986MOL0     H33108   9.300   2.926   6.043 -1.7788 -2.7425  4.1746
  986MOL0     H33109   9.444   2.875   5.953  1.3388  0.4322  4.0424
  986MOL0     H33110   9.283   2.805   5.913  0.1269 -0.1346  0.0096
  987MOL0     O33111   2.438   1.517   1.280  0.9075 -0.4122 -0.5306
  987MOL0     C33112   2.379   1.452   1.194 -0.5350 -0.0528 -0.3331
  987MOL0     O33113   2.438   1.359   1.113 -0.4601 -0.7158  0.1109
  987MOL0     C33114   2.560   1.307   1.145  0.6481  0.1825 -0.2339
  987MOL0     C33115   2.674   1.390   1.177 -0.4888  0.7906  0.5818
  987MOL0     C33116   2.806   1.328   1.205 -0.0073 -0.9043 -0.3408
  987MOL0     C33117   2.815   1.190   1.210  0.0566  0.7253 -0.1072
  987MOL0     O33118   2.933   1.122   1.219  0.0302  0.7822 -0.2028
  987MOL0     C33119   3.053   1.198   1.187  0.2234 -0.5136  0.4297
  987MOL0     C33120   3.172   1.106   1.170 -0.4144 -0.1131  0.5035
  987MOL0     C33121   3.310   1.180   1.176 -0.8339 -0.2330  0.1838
  987MOL0     C33122   3.422   1.096   1.107 -1.5247 -0.1545 -0.6858
  987MOL0     C33123   3.553   1.183   1.082  0.2053  0.1144  0.4968
  987MOL0     C33124   3.646   1.091   1.001 -0.4293 -0.6569  0.3169
  987MOL0     C33125   3.786   1.155   0.977 -0.2275 -0.2212 -0.2986
  987MOL0     C33126   3.883   1.048   0.917 -0.7867 -0.3111 -0.1091
  987MOL0     N33127   3.955   0.973   1.019  0.2873 -0.4054 -0.9321
  987MOL0     C33128   4.066   1.027   1.080 -0.2588  0.0187  0.4599
  987MOL0     C33129   4.133   0.919   1.130  0.2554  0.3883 -0.0686
  987MOL0     C33130   4.255   0.925   1.213 -0.0954 -0.2112  0.0858
  987MOL0     C33131   4.393   0.882   1.152  0.6475  0.5727 -0.3839
  987MOL0     C33132   4.413   0.729   1.137  0.2311  0.2546 -0.1633
  987MOL0     C33133   4.554   0.690   1.082 -0.1712  0.3200  0.7271
  987MOL0     O33134   4.653   0.662   1.186  0.0371 -0.2990 -0.0337
  987MOL0     C33135   4.785   0.676   1.146 -0.0253 -0.1906  0.0876
  987MOL0     C33136   4.824   0.660   1.012 -1.1507 -0.3526  1.4060
  987MOL0     C33137   4.959   0.663   0.973 -0.3402  0.0109 -0.1998
  987MOL0     C33138   5.063   0.684   1.064 -0.2054 -0.5870  0.7234
  987MOL0     C33139   5.215   0.678   1.030 -0.3362  0.1033 -0.6248
  987MOL0     O33140   5.298   0.727   1.124 -0.6513  0.0111 -0.6352
  987MOL0     C33141   5.423   0.672   1.145  0.1744  0.6546 -0.0063
  987MOL0     C33142   5.526   0.766   1.155  0.2827 -0.1269  0.2721
  987MOL0     C33143   5.661   0.739   1.166 -0.3504  0.2599  0.5410
  987MOL0     C33144   5.701   0.608   1.176  0.4674  0.4176  0.4959
  987MOL0     O33145   5.836   0.589   1.183 -0.1710  0.3311  0.4618
  987MOL0     C33146   5.880   0.449   1.185  0.1578  0.1294  0.2320
  987MOL0     C33147   6.040   0.449   1.205 -0.0730 -0.7211  0.1535
  987MOL0     C33148   6.087   0.521   1.329 -0.0495  0.1437 -0.0135
  987MOL0     C33149   6.245   0.519   1.337  0.1801 -0.2869 -1.0501
  987MOL0     C33150   6.295   0.661   1.306  0.0290  0.4710  0.7220
  987MOL0     C33151   6.442   0.643   1.275 -0.3601  0.3747 -0.6593
  987MOL0     C33152   6.516   0.778   1.266  0.3773 -0.3482 -0.1372
  987MOL0     C33153   6.652   0.766   1.198  0.1364  0.2007  0.2606
  987MOL0    Cl33154   6.761   0.902   1.219  0.1118  0.2706 -0.0513
  987MOL0     C33155   5.602   0.508   1.155  0.6781  0.0454  0.6583
  987MOL0     C33156   5.463   0.540   1.146  0.6490 -0.0778 -0.5040
  987MOL0     O33157   5.242   0.606   0.934 -0.0647 -0.3041 -0.4375
  987MOL0     C33158   5.023   0.694   1.197 -0.1893  0.1113  0.2207
  987MOL0     C33159   4.886   0.688   1.239 -0.1779 -0.9558 -0.0199
  987MOL0     N33160   4.073   0.802   1.101  0.0520  0.9586 -0.2509
  987MOL0     N33161   3.961   0.841   1.046 -0.2230  0.4558  0.1601
  987MOL0     C33162   2.697   1.110   1.189 -1.4608 -0.4307 -0.1614
  987MOL0     C33163   2.576   1.169   1.160 -0.0574  0.1057 -0.2342
  987MOL0     C33164   2.244   1.496   1.151  0.2813 -0.3727 -0.4839
  987MOL0     C33165   2.201   1.464   1.021  0.8069 -0.3409 -0.1024
  987MOL0     C33166   2.077   1.497   0.975  0.7234  0.4303  0.6711
  987MOL0     C33167   1.982   1.548   1.065 -0.8469  0.4383  0.2383
  987MOL0     O33168   1.861   1.578   1.025  0.1531  0.7104  0.4736
  987MOL0     C33169   1.766   1.479   0.997  0.6336 -0.1895  0.4227
  987MOL0     C33170   1.654   1.491   1.098 -0.7386  0.2006  0.4861
  987MOL0     C33171   1.546   1.386   1.073 -0.7842 -0.1476 -1.1514
  987MOL0     C33172   1.455   1.352   1.200  0.6089 -0.5005  0.8928
  987MOL0     C33173   1.399   1.471   1.270  1.3146 -0.0630 -0.3964
  987MOL0     C33174   1.344   1.573   1.320 -0.8594 -0.5896  0.6701
  987MOL0     C33175   2.020   1.576   1.199 -0.1661  0.0497 -0.3961
  987MOL0     C33176   2.152   1.556   1.244  0.6121  0.0529  0.3489
  987MOL0     C33177   2.189   1.584   1.385  0.3757  0.2892 -0.4279
  987MOL0     H33178   2.664   1.498   1.173 -1.6707  0.6527 -1.9466
  987MOL0     H33179   2.891   1.393   1.223  0.3178 -1.9208  2.2102
  987MOL0     H33180   3.036   1.254   1.094 -1.4516 -0.4514  0.7329
  987MOL0     H33181   3.073   1.267   1.270  0.3182  0.7605 -0.6165
  987MOL0     H33182   3.156   1.055   1.075 -0.6805  3.5921 -1.6367
  987MOL0     H33183   3.174   1.028   1.247  0.1745  0.2266  0.8451
  987MOL0     H33184   3.346   1.192   1.279 -1.1363  0.5109  0.2141
  987MOL0     H33185   3.307   1.280   1.132 -0.3619 -0.1681  0.2926
  987MOL0     H33186   3.439   1.009   1.171 -0.7469  0.2531 -0.3280
  987MOL0     H33187   3.388   1.052   1.013 -1.1545 -0.6089 -0.6119
  987MOL0     H33188   3.528   1.271   1.023  1.2159  0.0282 -0.0804
  987MOL0     H33189   3.613   1.218   1.167  1.4222 -1.2658  0.2590
  987MOL0     H33190   3.661   0.996   1.053  2.6606 -2.1475 -2.8679
  987MOL0     H33191   3.588   1.073   0.910 -1.2478  2.7883  0.0218
  987MOL0     H33192   3.832   1.203   1.065  1.2422  1.3450 -1.8494
  987MOL0     H33193   3.771   1.235   0.905  1.7627  0.0411 -0.4972
  987MOL0     H33194   3.818   0.977   0.864 -0.2968 -0.1268 -0.9643
  987MOL0     H33195   3.951   1.081   0.838 -4.1652 -1.0633 -3.6512
  987MOL0     H33196   4.091   1.132   1.091 -1.4041  0.2487  0.9544
  987MOL0     H33197   4.262   1.029   1.247  0.8441 -1.0007  2.5369
  987MOL0     H33198   4.237   0.863   1.301  0.0295 -0.8466 -0.3311
  987MOL0     H33199   4.408   0.935   1.057  2.5392  0.2033 -0.3260
  987MOL0     H33200   4.477   0.912   1.215  1.6886 -1.2819 -0.8260
  987MOL0     H33201   4.333   0.698   1.069 -0.3623  3.0456 -0.8882
  987MOL0     H33202   4.406   0.688   1.238 -1.4319  0.3432 -0.2151
  987MOL0     H33203   4.587   0.772   1.017  0.0140  1.3594  2.0922
  987MOL0     H33204   4.537   0.600   1.022  1.0629  0.5680 -0.0386
  987MOL0     H33205   4.755   0.635   0.932 -1.0581  1.2047  0.8138
  987MOL0     H33206   4.984   0.630   0.872 -0.4153 -2.2897  0.4707
  987MOL0     H33207   5.498   0.868   1.129 -0.8346 -0.6468 -0.6089
  987MOL0     H33208   5.738   0.815   1.158  1.4859 -1.7088 -1.8309
  987MOL0     H33209   5.841   0.404   1.277 -1.3986  2.8141  1.0004
  987MOL0     H33210   5.854   0.406   1.088  1.1705 -0.4332  0.2039
  987MOL0     H33211   6.078   0.346   1.196  1.5521 -0.2182  0.8748
  987MOL0     H33212   6.078   0.499   1.115  0.0715  0.2432  0.7498
  987MOL0     H33213   6.052   0.624   1.330  1.5492  0.8133 -2.6252
  987MOL0     H33214   6.052   0.471   1.419 -1.5364  1.7272  0.3272
  987MOL0     H33215   6.276   0.446   1.262 -0.2328  0.2249 -1.7298
  987MOL0     H33216   6.286   0.492   1.435 -1.7484 -1.5770 -0.5287
  987MOL0     H33217   6.284   0.726   1.393  1.8683  0.0190  1.3263
  987MOL0     H33218   6.249   0.709   1.219 -2.5040 -0.8451  1.2348
  987MOL0     H33219   6.488   0.579   1.351 -1.3752  0.3004 -0.0914
  987MOL0     H33220   6.447   0.598   1.175 -0.5891  1.0009 -0.9583
  987MOL0     H33221   6.509   0.810   1.371 -2.3500 -2.9697  0.6213
  987MOL0     H33222   6.453   0.847   1.209  0.8596 -0.7785 -1.2146
  987MOL0     H33223   6.698   0.674   1.236 -2.6030 -0.6065  1.9722
  987MOL0     H33224   6.638   0.741   1.092 -0.9196  1.2711  0.1215
  987MOL0     H33225   5.629   0.403   1.149 -0.8291 -0.4194  1.3172
  987MOL0     H33226   5.388   0.462   1.139 -1.8164  2.1025  0.1745
  987MOL0     H33227   5.106   0.697   1.267  1.7312 -0.0599 -1.9177
  987MOL0     H33228   4.860   0.692   1.345  0.7982 -2.8355  0.3310
  987MOL0     H33229   2.725   1.005   1.195  1.3481  0.0607 -2.2935
  987MOL0     H33230   2.486   1.114   1.134 -0.8929  0.9022  0.9183
  987MOL0     H33231   2.262   1.415   0.946  1.9444  3.7237 -2.1512
  987MOL0     H33232   2.041   1.467   0.877 -0.0438 -1.1580  1.3995
  987MOL0     H33233   1.804   1.377   1.008  2.5807  0.2237 -1.6878
  987MOL0     H33234   1.740   1.492   0.892 -0.2461  0.5221  0.7189
  987MOL0     H33235   1.618   1.593   1.118  3.8528  2.3306 -0.9185
  987MOL0     H33236   1.703   1.461   1.192 -1.9735 -2.5650  0.3626
  987MOL0     H33237   1.599   1.298   1.038  0.5768 -0.8217  2.2511
  987MOL0     H33238   1.477   1.414   0.992 -1.8328 -0.9705 -0.5620
  987MOL0     H33239   1.380   1.284   1.159  3.7301 -2.3668 -2.2904
  987MOL0     H33240   1.519   1.292   1.266  1.8804 -1.7927 -1.3604
  987MOL0     H33241   1.311   1.665   1.362 -2.5858 -1.8159  2.1635
  987MOL0     H33242   1.944   1.599   1.272  1.0293 -0.0645  0.9172
  987MOL0     H33243   2.201   1.494   1.446  3.8287  0.3196 -0.8481
  987MOL0     H33244   2.277   1.647   1.393  0.7865 -0.2607 -0.5402
  987MOL0     H33245   2.111   1.641   1.435  1.5251  0.7246  0.9141
  988MOL0     O33246   9.884   7.340  11.192  0.2831  0.0763 -0.2218
  988MOL0     C33247   9.848   7.268  11.283  0.0754  0.2018 -0.7561
  988MOL0     O33248   9.929   7.232  11.386  0.7408  0.5941  0.1209
  988MOL0     C33249  10.064   7.229  11.382  0.5666  0.3683 -0.8029
  988MOL0     C33250  10.130   7.227  11.505 -1.2432  0.2299 -0.1048
  988MOL0     C33251  10.267   7.230  11.522  0.0899 -0.1695  0.8266
  988MOL0     C33252  10.345   7.218  11.405  0.1296  0.8113  0.2156
  988MOL0     O33253  10.480   7.224  11.415 -0.2588 -0.0334  0.2944
  988MOL0     C33254  10.563   7.211  11.301  0.3901  0.2549 -0.7624
  988MOL0     C33255  10.704   7.169  11.346 -0.6944 -0.0188 -0.2795
  988MOL0     C33256  10.798   7.145  11.223 -0.4338  0.9398  0.4194
  988MOL0     C33257  10.824   7.267  11.129  0.3581  0.1215 -0.2666
  988MOL0     C33258  10.930   7.242  11.024 -0.5667  0.0999 -0.1561
  988MOL0     C33259  11.079   7.266  11.072  0.7070 -0.2630 -0.1795
  988MOL0     C33260  11.194   7.233  10.971  0.2497 -0.3726  0.3235
  988MOL0     C33261  11.204   7.342  10.861  0.1850 -0.4087 -1.3544
  988MOL0     N33262  11.269   7.468  10.895 -0.0150 -0.1876 -0.3659
  988MOL0     C33263  11.393   7.478  10.960  0.4128 -0.3022  0.3631
  988MOL0     C33264  11.406   7.605  10.995  0.2619 -0.1756  0.0730
  988MOL0     C33265  11.546   7.661  11.043  0.5215 -0.4908 -0.9247
  988MOL0     C33266  11.644   7.649  10.932  0.3424  0.4226  0.2226
  988MOL0     C33267  11.749   7.762  10.932 -0.5647 -1.2993  0.3686
  988MOL0     C33268  11.835   7.753  10.806  0.4616  0.2464  0.1568
  988MOL0     O33269  11.915   7.868  10.784  0.5680 -0.5295  0.4640
  988MOL0     C33270  12.052   7.878  10.807 -0.1215  0.3980 -0.1225
  988MOL0     C33271  12.130   7.767  10.844  0.0705 -1.0050 -0.1839
  988MOL0     C33272  12.267   7.788  10.852 -0.1089  0.0031 -1.1911
  988MOL0     C33273  12.336   7.906  10.830  0.2480  0.3003 -0.5209
  988MOL0     C33274  12.477   7.929  10.870  0.1749 -0.5652 -0.4458
  988MOL0     O33275  12.530   8.062  10.857 -0.9135 -0.6500 -0.0813
  988MOL0     C33276  12.657   8.083  10.905 -0.3188 -0.4430  0.0439
  988MOL0     C33277  12.753   8.122  10.813  0.2593  0.5527  0.5115
  988MOL0     C33278  12.885   8.129  10.850 -0.7484 -0.2704 -0.6287
  988MOL0     C33279  12.928   8.091  10.981 -0.3030 -0.9923  0.3556
  988MOL0     O33280  13.062   8.102  11.013 -0.2698 -0.3398 -0.3981
  988MOL0     C33281  13.157   8.121  10.908 -0.6595 -0.0797  0.2328
  988MOL0     C33282  13.302   8.085  10.957 -0.1630  0.1088 -0.2827
  988MOL0     C33283  13.347   8.112  11.106 -0.1700  0.2970  0.3952
  988MOL0     C33284  13.491   8.074  11.133  0.4167  0.5610  0.8951
  988MOL0     C33285  13.544   8.110  11.269 -0.0318  0.4483 -0.0659
  988MOL0     C33286  13.657   8.035  11.329  0.0243 -0.2890  0.5075
  988MOL0     C33287  13.657   8.036  11.483 -0.0040  0.0963  0.5392
  988MOL0     C33288  13.801   7.997  11.529  0.1823  0.6380 -0.1967
  988MOL0    Cl33289  13.823   7.968  11.709  0.3427 -0.1404 -0.5988
  988MOL0     C33290  12.831   8.058  11.078  0.0153 -0.1301 -0.0767
  988MOL0     C33291  12.697   8.050  11.036 -0.4936  0.2713 -0.5616
  988MOL0     O33292  12.542   7.828  10.888 -0.0701  0.5382 -0.0613
  988MOL0     C33293  12.261   8.014  10.775  0.2111  0.3308  0.6914
  988MOL0     C33294  12.113   7.996  10.763  0.2647 -0.4799 -0.5719
  988MOL0     N33295  11.285   7.679  10.963  0.1742  0.2020 -0.0477
  988MOL0     N33296  11.207   7.587  10.911  0.1745  0.0240  0.5877
  988MOL0     C33297  10.277   7.190  11.282  0.0349  0.6291  0.5061
  988MOL0     C33298  10.143   7.208  11.266  0.2674  0.4411 -0.6351
  988MOL0     C33299   9.701   7.243  11.300 -0.4130 -0.6796  0.4730
  988MOL0     C33300   9.650   7.254  11.424  0.0849  0.0706 -0.2567
  988MOL0     C33301   9.512   7.235  11.451 -0.1519 -0.4623 -0.0148
  988MOL0     C33302   9.432   7.191  11.347  0.0878 -0.0847 -0.0728
  988MOL0     O33303   9.298   7.166  11.357  0.2056 -0.1637 -0.1664
  988MOL0     C33304   9.220   7.238  11.455 -0.5603  0.7731 -0.4026
  988MOL0     C33305   9.073   7.201  11.431  0.3591 -0.1896  0.0933
  988MOL0     C33306   9.022   7.251  11.291  0.6590  0.1284  0.2967
  988MOL0     C33307   8.878   7.199  11.279 -0.0115  0.0590 -0.0848
  988MOL0     C33308   8.875   7.054  11.249  0.1603 -1.5313 -0.1137
  988MOL0     C33309   8.889   6.933  11.233  0.1596 -0.4536 -0.6188
  988MOL0     C33310   9.484   7.177  11.220  0.3441  0.2812  0.2786
  988MOL0     C33311   9.620   7.206  11.192  0.5441  0.0207 -0.0870
  988MOL0     C33312   9.681   7.184  11.061  0.6866 -0.3137 -1.1591
  988MOL0     H33313  10.060   7.244  11.587 -1.4544 -1.7561  0.1886
  988MOL0     H33314  10.315   7.254  11.616  2.7366  3.7200 -1.2372
  988MOL0     H33315  10.536   7.140  11.223  2.4183  1.5140 -2.7525
  988MOL0     H33316  10.568   7.311  11.258 -0.6622 -0.2393 -2.0693
  988MOL0     H33317  10.695   7.071  11.392 -1.6603 -0.3635 -1.1495
  988MOL0     H33318  10.746   7.238  11.420 -1.2876 -0.2602  0.2897
  988MOL0     H33319  10.765   7.054  11.171  1.6407 -0.4819  1.4726
  988MOL0     H33320  10.896   7.108  11.255 -0.5618 -2.3209 -2.2992
  988MOL0     H33321  10.726   7.297  11.089 -0.0112 -0.6023  0.0678
  988MOL0     H33322  10.857   7.349  11.195  0.2446  0.7412 -0.9695
  988MOL0     H33323  10.911   7.148  10.972 -0.9570 -0.7606  1.4637
  988MOL0     H33324  10.907   7.312  10.943 -1.4257 -0.7220 -0.6396
  988MOL0     H33325  11.070   7.373  11.095 -1.1065 -0.1523 -1.1870
  988MOL0     H33326  11.098   7.202  11.158  0.7711 -1.2363 -0.9033
  988MOL0     H33327  11.174   7.138  10.921 -1.5178  1.3995 -2.6065
  988MOL0     H33328  11.285   7.243  11.031 -0.7520  2.0649  1.5742
  988MOL0     H33329  11.278   7.304  10.791  0.0776  1.4206 -2.5148
  988MOL0     H33330  11.107   7.367  10.816  0.1609  0.5505 -0.7972
  988MOL0     H33331  11.464   7.399  10.983  0.1939 -0.6065  0.0150
  988MOL0     H33332  11.529   7.764  11.075 -1.5312 -0.8195 -0.8457
  988MOL0     H33333  11.581   7.601  11.127 -0.0009 -0.9181 -1.0106
  988MOL0     H33334  11.705   7.562  10.957  1.4949  1.2210  0.2575
  988MOL0     H33335  11.600   7.630  10.833  2.1634 -1.4019 -0.3030
  988MOL0     H33336  11.819   7.747  11.015  0.2937  1.1713  0.1976
  988MOL0     H33337  11.707   7.863  10.937  1.4591 -0.4575  1.3053
  988MOL0     H33338  11.770   7.729  10.720  1.8575 -2.5727 -0.2230
  988MOL0     H33339  11.884   7.656  10.796 -0.1382  0.0358 -0.8927
  988MOL0     H33340  12.083   7.671  10.861  0.0835 -1.3624 -1.9597
  988MOL0     H33341  12.326   7.708  10.895 -0.6716  0.8401  1.3801
  988MOL0     H33342  12.725   8.137  10.709 -1.1082 -0.9703  0.6132
  988MOL0     H33343  12.960   8.170  10.783  0.8708  1.4006  1.9876
  988MOL0     H33344  13.134   8.059  10.821  1.0048 -2.1558  1.1728
  988MOL0     H33345  13.161   8.226  10.879  2.9377  0.2733  1.5355
  988MOL0     H33346  13.312   7.978  10.939  2.1522  0.2448  0.0175
  988MOL0     H33347  13.360   8.145  10.887 -1.1699 -1.2402 -2.3858
  988MOL0     H33348  13.347   8.219  11.130  0.3692  0.0221  1.6692
  988MOL0     H33349  13.280   8.058  11.174 -2.2866 -1.6675 -2.9596
  988MOL0     H33350  13.549   8.123  11.054 -1.6888  0.7800 -0.5966
  988MOL0     H33351  13.492   7.965  11.123 -0.9583  0.6999 -1.3879
  988MOL0     H33352  13.463   8.077  11.335  0.6211 -0.7190  0.1735
  988MOL0     H33353  13.567   8.216  11.255 -1.0652  0.2472 -5.9673
  988MOL0     H33354  13.644   7.928  11.310  2.4432 -0.5818  0.2401
  988MOL0     H33355  13.749   8.072  11.284 -0.3035  0.4846  0.4518
  988MOL0     H33356  13.585   7.963  11.520  0.6923 -0.4070  0.9128
  988MOL0     H33357  13.629   8.130  11.533 -2.5759 -1.2177  1.7831
  988MOL0     H33358  13.836   7.916  11.464  1.0383  1.4403 -0.7543
  988MOL0     H33359  13.872   8.076  11.505  0.7812  0.5544  1.1868
  988MOL0     H33360  12.866   8.041  11.179 -0.3719 -1.6193 -0.1688
  988MOL0     H33361  12.625   8.026  11.114  2.7190  3.3759  3.9446
  988MOL0     H33362  12.299   8.110  10.741 -0.2358 -0.3735 -2.0179
  988MOL0     H33363  12.052   8.079  10.728  2.3347  1.5532  0.3611
  988MOL0     H33364  10.337   7.180  11.192  0.0035 -2.0238  0.6890
  988MOL0     H33365  10.104   7.193  11.166  0.9839  0.7368 -0.9698
  988MOL0     H33366   9.708   7.298  11.505  1.1853 -2.0151  0.1475
  988MOL0     H33367   9.480   7.242  11.555  2.8843 -0.5433  1.0292
  988MOL0     H33368   9.230   7.347  11.451  0.7458  0.7165  0.5381
  988MOL0     H33369   9.256   7.201  11.552  0.1657 -1.5066 -1.4900
  988MOL0     H33370   9.010   7.238  11.512 -1.9185 -2.8619 -0.3052
  988MOL0     H33371   9.069   7.092  11.421  1.1509 -0.1247 -1.1805
  988MOL0     H33372   9.079   7.215  11.205 -0.9835 -0.2884 -0.6687
  988MOL0     H33373   9.029   7.360  11.290 -3.8630  0.7582  3.0701
  988MOL0     H33374   8.822   7.211  11.373 -1.3220 -1.2204 -0.6781
  988MOL0     H33375   8.817   7.243  11.200  0.4469  0.7077 -0.0904
  988MOL0     H33376   8.899   6.829  11.211  1.3416 -0.2897 -0.9539
  988MOL0     H33377   9.420   7.125  11.150  1.8284 -0.3093 -0.6908
  988MOL0     H33378   9.709   7.278  11.012 -0.6917  0.5252 -0.4131
  988MOL0     H33379   9.769   7.120  11.058 -0.5382 -2.2355  0.9597
  988MOL0     H33380   9.608   7.135  10.995 -2.9821  3.3842 -0.3112
  989MOL0     O33381   3.296   2.793   1.224  0.8207 -0.5505  0.0673
  989MOL0     C33382   3.270   2.730   1.123 -0.5853  0.1386 -0.5556
  989MOL0     O33383   3.304   2.594   1.108  0.8271  0.0732  0.4283
  989MOL0     C33384   3.397   2.542   1.197 -0.3908 -0.6760  1.6961
  989MOL0     C33385   3.361   2.456   1.292 -0.2316 -0.6766  0.3241
  989MOL0     C33386   3.451   2.401   1.385 -0.3851 -0.2330 -0.4966
  989MOL0     C33387   3.588   2.439   1.379  0.7657 -0.4260 -0.0497
  989MOL0     O33388   3.679   2.396   1.463  0.1075 -0.4963 -0.5703
  989MOL0     C33389   3.751   2.277   1.429  0.0911 -0.0188 -0.6693
  989MOL0     C33390   3.893   2.268   1.480 -0.3089 -0.1433 -0.0239
  989MOL0     C33391   3.968   2.395   1.435  0.0867 -0.7254  0.9395
  989MOL0     C33392   4.120   2.409   1.470  0.2675  0.3340  0.0824
  989MOL0     C33393   4.209   2.332   1.371 -0.2281 -0.2293  0.1232
  989MOL0     C33394   4.353   2.332   1.397 -0.1624  0.1454 -0.1666
  989MOL0     C33395   4.442   2.261   1.299  0.3494  0.1165  0.1069
  989MOL0     C33396   4.591   2.300   1.290 -0.0535  0.0574  0.4971
  989MOL0     N33397   4.674   2.198   1.357 -0.2962  0.7421  0.0856
  989MOL0     C33398   4.802   2.161   1.322 -0.1531  0.0268 -0.6217
  989MOL0     C33399   4.836   2.068   1.408 -0.0266 -0.8415 -0.9410
  989MOL0     C33400   4.966   1.999   1.408 -0.2186  0.1383  0.8038
  989MOL0     C33401   5.090   2.078   1.456 -0.0165 -1.4950  0.2243
  989MOL0     C33402   5.091   2.104   1.612 -0.4700  0.0396  0.5617
  989MOL0     C33403   5.188   2.001   1.675  0.2070  0.1621  0.4445
  989MOL0     O33404   5.127   1.869   1.673  0.9143 -0.0065 -0.1406
  989MOL0     C33405   5.219   1.771   1.688  0.4389 -0.2463 -0.3336
  989MOL0     C33406   5.281   1.747   1.816  0.7218 -0.2109  0.0037
  989MOL0     C33407   5.384   1.663   1.839  0.4115 -0.5923 -0.0367
  989MOL0     C33408   5.434   1.586   1.741  0.1538  0.5968 -0.2122
  989MOL0     C33409   5.540   1.488   1.768  0.1797  0.1635  0.4613
  989MOL0     O33410   5.582   1.470   1.892  0.7675  0.5614  0.2675
  989MOL0     C33411   5.697   1.394   1.915  0.3954  0.1241  0.6507
  989MOL0     C33412   5.821   1.457   1.948 -0.2647  0.2560  0.1256
  989MOL0     C33413   5.927   1.383   1.994  1.3150 -0.3121 -0.5273
  989MOL0     C33414   5.911   1.247   2.011 -0.9061  0.4769 -0.2676
  989MOL0     O33415   6.011   1.168   2.067  0.3297 -0.3124 -0.6093
  989MOL0     C33416   6.145   1.203   2.030 -0.2983  0.1542  0.0249
  989MOL0     C33417   6.173   1.192   1.878  0.7602  0.0059 -0.1596
  989MOL0     C33418   6.130   1.057   1.818 -0.3707  0.3058 -0.7468
  989MOL0     C33419   6.176   1.052   1.676  0.1050  0.0971 -0.9326
  989MOL0     C33420   6.128   0.930   1.603  0.0952 -0.0990  0.7598
  989MOL0     C33421   6.196   0.797   1.640  1.5206  0.0370 -0.3887
  989MOL0     C33422   6.350   0.798   1.672  1.1012  0.4219  0.3075
  989MOL0     C33423   6.382   0.649   1.708  0.4215  0.0581  0.1233
  989MOL0    Cl33424   6.550   0.621   1.755 -0.4019 -0.6574  0.1859
  989MOL0     C33425   5.797   1.184   1.969  0.0352 -0.3868 -0.8144
  989MOL0     C33426   5.685   1.257   1.934  0.0429 -0.3657  0.4973
  989MOL0     O33427   5.578   1.425   1.671  0.1201 -0.6878 -0.3701
  989MOL0     C33428   5.382   1.603   1.609 -0.6960 -0.2372  0.0687
  989MOL0     C33429   5.282   1.697   1.580 -0.1584  0.1187 -0.2579
  989MOL0     N33430   4.738   2.054   1.504 -0.2865 -0.4110  1.1263
  989MOL0     N33431   4.642   2.136   1.475 -0.6285  0.3521  0.1631
  989MOL0     C33432   3.630   2.530   1.272 -0.0530  0.1373 -0.0353
  989MOL0     C33433   3.532   2.578   1.188 -0.3021 -0.1965 -0.1819
  989MOL0     C33434   3.196   2.794   1.020 -0.1384 -0.0247 -1.0758
  989MOL0     C33435   3.107   2.714   0.956 -0.6888  0.1911  0.5403
  989MOL0     C33436   3.022   2.761   0.853 -0.8065  0.1889 -0.0991
  989MOL0     C33437   3.025   2.896   0.824  0.3874  0.6729 -0.3058
  989MOL0     O33438   2.943   2.963   0.737  0.0261 -0.2404 -0.3541
  989MOL0     C33439   2.822   2.896   0.689 -0.3136  0.1926  0.1620
  989MOL0     C33440   2.718   2.880   0.798  0.0098  0.3612  0.1083
  989MOL0     C33441   2.640   3.008   0.821  0.2479  0.6405 -0.4052
  989MOL0     C33442   2.548   3.007   0.955 -0.1004  0.3837  0.7328
  989MOL0     C33443   2.431   2.929   0.912  0.2862  0.0717  0.0520
  989MOL0     C33444   2.322   2.878   0.892  0.0403 -0.8281  0.5459
  989MOL0     C33445   3.123   2.976   0.884  0.2387  0.2186 -0.3313
  989MOL0     C33446   3.204   2.926   0.987 -0.0468 -1.4339  0.7634
  989MOL0     C33447   3.296   3.032   1.056  0.6583 -0.1711  0.1760
  989MOL0     H33448   3.256   2.429   1.293 -0.0297 -1.6210 -0.9225
  989MOL0     H33449   3.418   2.330   1.460 -0.0920 -2.1881 -2.1196
  989MOL0     H33450   3.692   2.191   1.463 -0.5889  1.6311  2.7397
  989MOL0     H33451   3.760   2.271   1.320  2.7760 -2.3208 -0.4388
  989MOL0     H33452   3.950   2.182   1.445  1.3159  1.0891 -0.5272
  989MOL0     H33453   3.888   2.264   1.590  1.6564 -2.6804  0.0594
  989MOL0     H33454   3.913   2.473   1.489 -0.6502  0.6385 -1.6326
  989MOL0     H33455   3.958   2.411   1.328  1.3318  3.2091  1.2821
  989MOL0     H33456   4.140   2.516   1.467 -0.3158  0.4453 -0.0747
  989MOL0     H33457   4.136   2.375   1.572 -0.3568  3.7702  1.4490
  989MOL0     H33458   4.170   2.230   1.364 -1.0195  0.0518  0.3058
  989MOL0     H33459   4.191   2.367   1.268  0.2022  1.1441  0.4994
  989MOL0     H33460   4.380   2.438   1.393 -1.2857  0.5543  1.8991
  989MOL0     H33461   4.374   2.297   1.498  1.4848  1.4340 -0.0149
  989MOL0     H33462   4.399   2.301   1.207  2.7560  1.7237 -0.4274
  989MOL0     H33463   4.423   2.154   1.289  1.3936  0.0331 -1.4064
  989MOL0     H33464   4.620   2.314   1.185 -2.9504 -0.8238 -0.5198
  989MOL0     H33465   4.610   2.396   1.339  3.1754 -0.9679  1.4594
  989MOL0     H33466   4.861   2.194   1.237  0.4250  0.6213 -0.0129
  989MOL0     H33467   4.963   1.900   1.453 -0.9173 -0.0413  0.3707
  989MOL0     H33468   4.981   1.965   1.305  1.7060  3.1352 -0.0387
  989MOL0     H33469   5.183   2.036   1.417  0.6055  1.6982 -2.1853
  989MOL0     H33470   5.079   2.178   1.413 -0.0813 -0.7779  1.8572
  989MOL0     H33471   4.993   2.097   1.660 -0.0423  1.3147  1.6950
  989MOL0     H33472   5.141   2.202   1.613 -1.2919  0.5529 -1.9126
  989MOL0     H33473   5.191   2.043   1.776 -1.0992  0.7162  0.2785
  989MOL0     H33474   5.288   1.999   1.631  0.5625  0.8151  1.2157
  989MOL0     H33475   5.259   1.814   1.899  2.1589 -1.4263  1.4377
  989MOL0     H33476   5.419   1.647   1.941 -0.6335 -0.2271  0.4002
  989MOL0     H33477   5.818   1.563   1.924 -0.0093  0.0554 -0.8612
  989MOL0     H33478   6.020   1.429   2.025 -0.8990  1.7425  4.1863
  989MOL0     H33479   6.176   1.297   2.076  0.8736 -0.8009  1.2521
  989MOL0     H33480   6.217   1.142   2.085 -1.3460  1.5073  3.0642
  989MOL0     H33481   6.122   1.275   1.828  0.3854  2.3106  3.6017
  989MOL0     H33482   6.280   1.211   1.886  2.2278 -6.5203  3.1920
  989MOL0     H33483   6.155   0.964   1.870  0.1527 -0.4892 -2.3624
  989MOL0     H33484   6.021   1.063   1.812 -0.5766  0.0372  1.7068
  989MOL0     H33485   6.285   1.059   1.676  0.2717 -1.6458 -2.4489
  989MOL0     H33486   6.130   1.136   1.623 -0.7666 -1.0348 -2.0458
  989MOL0     H33487   6.142   0.960   1.499 -2.9136 -0.1102  0.2665
  989MOL0     H33488   6.019   0.920   1.606 -0.2276  2.5707  0.2995
  989MOL0     H33489   6.145   0.770   1.733  1.3449  1.5905 -0.0057
  989MOL0     H33490   6.171   0.721   1.566  2.3053 -1.5086  0.8660
  989MOL0     H33491   6.374   0.852   1.764  0.1141 -2.5305  2.4383
  989MOL0     H33492   6.413   0.832   1.589  1.0609  1.4345  0.6805
  989MOL0     H33493   6.313   0.609   1.782  1.8100  1.2570  2.1477
  989MOL0     H33494   6.376   0.587   1.617 -1.1051  0.9245 -0.4057
  989MOL0     H33495   5.781   1.077   1.975  1.4369 -0.6170 -0.8591
  989MOL0     H33496   5.584   1.217   1.922  0.1820 -0.6776  0.3662
  989MOL0     H33497   5.427   1.555   1.523  1.0735  0.0976  0.7515
  989MOL0     H33498   5.243   1.708   1.479 -0.3590 -3.0101 -0.6106
  989MOL0     H33499   3.728   2.575   1.267 -0.1081  0.1922 -0.8627
  989MOL0     H33500   3.558   2.662   1.124  0.4887  0.6086  1.1531
  989MOL0     H33501   3.105   2.608   0.982  5.1181 -0.3779  0.0109
  989MOL0     H33502   2.940   2.705   0.809 -0.9791  0.4806 -0.1551
  989MOL0     H33503   2.860   2.805   0.643  3.1786  1.8306 -0.5298
  989MOL0     H33504   2.784   2.956   0.605  2.1068  1.7379  0.0646
  989MOL0     H33505   2.769   2.862   0.894 -1.4903  1.1393  1.0871
  989MOL0     H33506   2.654   2.795   0.774  0.0635  0.1047  0.8399
  989MOL0     H33507   2.589   3.053   0.735  0.8207  4.0789  0.8732
  989MOL0     H33508   2.721   3.077   0.845  1.5656 -0.7893 -0.6139
  989MOL0     H33509   2.607   2.972   1.040  0.2886  0.0719  0.3435
  989MOL0     H33510   2.518   3.109   0.980 -0.3620 -0.0459  2.2339
  989MOL0     H33511   2.227   2.831   0.875  0.0326  0.0012 -2.1726
  989MOL0     H33512   3.125   3.082   0.858  1.5574  0.0960 -0.8212
  989MOL0     H33513   3.303   3.135   1.018  3.1496 -0.0571  0.7206
  989MOL0     H33514   3.263   3.036   1.160 -0.9749  1.3668 -0.3675
  989MOL0     H33515   3.396   2.989   1.049  0.3917 -0.5905 -1.1981
  990MOL0     O33516   8.261   7.119   1.536  0.0874 -0.4158  0.5076
  990MOL0     C33517   8.159   7.182   1.579  0.0187  0.6836 -0.3253
  990MOL0     O33518   8.130   7.198   1.707  0.1128 -0.9096  0.0651
  990MOL0     C33519   8.215   7.145   1.804 -0.0606 -0.0027 -0.9067
  990MOL0     C33520   8.171   7.030   1.874 -1.0020 -0.5840 -0.0039
  990MOL0     C33521   8.249   6.982   1.981 -0.5396  0.0475 -0.0600
  990MOL0     C33522   8.377   7.042   1.998  0.3601 -0.2744 -0.5831
  990MOL0     O33523   8.448   7.011   2.111  0.3631  0.2232  0.2884
  990MOL0     C33524   8.593   6.992   2.095  0.1377 -0.5724  0.6590
  990MOL0     C33525   8.625   6.856   2.020  0.0604  0.4642  0.7559
  990MOL0     C33526   8.776   6.851   2.011 -0.0397  0.7837 -0.4692
  990MOL0     C33527   8.839   6.761   1.894 -0.6719 -0.3183 -0.1243
  990MOL0     C33528   8.977   6.711   1.930 -0.6749 -0.5726  0.4364
  990MOL0     C33529   9.079   6.822   1.930 -0.3330 -0.3193  0.6858
  990MOL0     C33530   9.221   6.784   1.973 -0.0550  0.1201  0.4576
  990MOL0     C33531   9.237   6.747   2.112 -0.3587 -0.1137 -0.3217
  990MOL0     N33532   9.346   6.819   2.177  0.0731 -0.1136 -0.3020
  990MOL0     C33533   9.481   6.781   2.177  0.3958 -0.9701  0.2791
  990MOL0     C33534   9.551   6.894   2.208  0.7679 -0.4690  0.8801
  990MOL0     C33535   9.701   6.902   2.207 -0.0708 -0.6156  0.1498
  990MOL0     C33536   9.752   7.048   2.211 -0.2059 -0.3935 -0.0798
  990MOL0     C33537   9.901   7.049   2.197  0.4521 -0.0274  0.1627
  990MOL0     C33538   9.961   7.182   2.242 -0.5077  0.1602  0.8481
  990MOL0     O33539  10.091   7.162   2.303 -0.4941  0.6792  0.9001
  990MOL0     C33540  10.198   7.158   2.216 -0.2209 -0.1941 -0.2225
  990MOL0     C33541  10.222   7.039   2.160 -0.3392 -0.0500 -0.3127
  990MOL0     C33542  10.332   7.023   2.070 -0.1844 -0.9280 -0.3381
  990MOL0     C33543  10.415   7.129   2.047 -0.0160  0.1909 -0.6002
  990MOL0     C33544  10.525   7.118   1.950 -0.0899 -0.1536  0.3320
  990MOL0     O33545  10.526   7.013   1.868 -0.4756  0.1723  0.8631
  990MOL0     C33546  10.620   7.008   1.761  0.7096 -0.5399 -0.6182
  990MOL0     C33547  10.756   7.054   1.769 -0.2785  0.1040 -0.9184
  990MOL0     C33548  10.841   7.029   1.667 -0.0290 -0.4902 -0.0958
  990MOL0     C33549  10.805   6.961   1.547 -0.6763 -1.3988  0.6204
  990MOL0     O33550  10.885   6.954   1.438 -0.4303 -0.1081  0.1568
  990MOL0     C33551  11.027   6.970   1.464 -0.3431 -0.9973 -0.1338
  990MOL0     C33552  11.090   6.917   1.338  0.5004  0.5015  0.2994
  990MOL0     C33553  11.241   6.904   1.346 -0.2579 -0.6727 -0.2983
  990MOL0     C33554  11.320   6.837   1.222 -0.2067 -0.4158 -0.7436
  990MOL0     C33555  11.287   6.692   1.182  0.3363 -0.1373 -0.7349
  990MOL0     C33556  11.338   6.578   1.269 -0.0200  0.1287 -0.0874
  990MOL0     C33557  11.497   6.568   1.285  0.3401  0.3927  0.3953
  990MOL0     C33558  11.555   6.546   1.146 -0.6655  0.3602 -0.0432
  990MOL0    Cl33559  11.735   6.489   1.159  0.6128 -0.1251  0.1306
  990MOL0     C33560  10.673   6.941   1.528 -0.9466  0.3026 -0.4131
  990MOL0     C33561  10.588   6.948   1.637  0.9521 -0.0263 -0.5480
  990MOL0     O33562  10.595   7.222   1.932 -0.4843  0.7146 -0.5091
  990MOL0     C33563  10.397   7.252   2.109  0.4455 -0.4482  0.8658
  990MOL0     C33564  10.290   7.266   2.196  0.0563 -0.0242  0.1249
  990MOL0     N33565   9.455   6.994   2.236 -1.0560  0.6982 -0.5884
  990MOL0     N33566   9.341   6.949   2.223  0.4746 -0.3795  0.1959
  990MOL0     C33567   8.424   7.140   1.915  0.4261 -0.1348  0.9029
  990MOL0     C33568   8.343   7.195   1.817 -0.5934  0.2928  0.6286
  990MOL0     C33569   8.071   7.243   1.479  0.1544 -0.5327 -0.7306
  990MOL0     C33570   7.940   7.254   1.521 -0.1599  0.7639  0.1750
  990MOL0     C33571   7.844   7.297   1.436  0.5696  0.1401  0.8761
  990MOL0     C33572   7.880   7.338   1.310  0.5068  0.5562  0.4630
  990MOL0     O33573   7.778   7.392   1.241 -0.2038 -0.3104 -0.2620
  990MOL0     C33574   7.802   7.431   1.104 -0.8015  0.0624 -0.0230
  990MOL0     C33575   7.672   7.492   1.064  0.9513  0.4291  0.5697
  990MOL0     C33576   7.628   7.620   1.126 -0.3018 -0.4049  0.2597
  990MOL0     C33577   7.509   7.686   1.063 -0.5135  0.1783  0.2172
  990MOL0     C33578   7.500   7.810   1.143  0.5806 -0.0799  0.5209
  990MOL0     C33579   7.490   7.919   1.204 -0.4334  0.7430  1.0159
  990MOL0     C33580   8.016   7.332   1.267  0.1536  0.4101 -0.2795
  990MOL0     C33581   8.111   7.283   1.350  0.5331  0.0448 -0.3439
  990MOL0     C33582   8.253   7.267   1.295  0.6379 -0.3784 -0.7993
  990MOL0     H33583   8.069   6.996   1.862 -1.3346  1.0795 -2.7524
  990MOL0     H33584   8.210   6.904   2.046  3.7968 -4.9071 -2.6602
  990MOL0     H33585   8.645   7.079   2.056 -1.1652  0.2571  0.7007
  990MOL0     H33586   8.623   6.976   2.199 -1.1862 -0.1646  1.1200
  990MOL0     H33587   8.584   6.867   1.919 -0.5895  0.6815  1.0409
  990MOL0     H33588   8.594   6.763   2.070 -3.8106  1.3480  0.3421
  990MOL0     H33589   8.829   6.821   2.102 -0.6276  1.1246 -0.0140
  990MOL0     H33590   8.807   6.953   1.989 -1.1433  0.9854 -1.1552
  990MOL0     H33591   8.775   6.672   1.889 -0.6686 -0.4534  1.6407
  990MOL0     H33592   8.837   6.824   1.805  1.7259  1.1446  0.7637
  990MOL0     H33593   8.978   6.656   2.025  4.4488 -0.6601  0.5945
  990MOL0     H33594   9.011   6.631   1.864 -0.2990 -1.4483  1.6521
  990MOL0     H33595   9.082   6.865   1.830  1.3877 -0.1090  0.7843
  990MOL0     H33596   9.044   6.902   1.996 -0.5879  1.2451 -1.2597
  990MOL0     H33597   9.285   6.870   1.953 -0.0748  0.5024  1.9480
  990MOL0     H33598   9.256   6.704   1.907 -1.7262  0.3019 -0.7225
  990MOL0     H33599   9.144   6.770   2.164 -0.6029 -1.4491 -0.1423
  990MOL0     H33600   9.259   6.640   2.122  0.5272 -0.1154 -1.9391
  990MOL0     H33601   9.523   6.686   2.146 -0.8393 -1.2872 -0.5057
  990MOL0     H33602   9.735   6.847   2.295 -0.4097 -0.6957  0.2329
  990MOL0     H33603   9.739   6.857   2.115 -0.8343  0.4979 -0.7426
  990MOL0     H33604   9.722   7.105   2.123  1.8539  1.1338  0.1389
  990MOL0     H33605   9.723   7.102   2.301  2.4193 -0.2234  0.7580
  990MOL0     H33606   9.927   7.042   2.091 -0.3493  1.8948 -0.2071
  990MOL0     H33607   9.956   6.968   2.245 -1.7156 -1.9303 -0.3600
  990MOL0     H33608   9.898   7.218   2.324 -0.8175  4.5730 -1.0893
  990MOL0     H33609   9.954   7.253   2.160  0.0429 -1.8284 -1.0150
  990MOL0     H33610  10.164   6.950   2.183 -0.1964  0.2676  1.4277
  990MOL0     H33611  10.352   6.929   2.020  1.9354 -1.7656  1.8518
  990MOL0     H33612  10.796   7.090   1.863 -2.3183 -2.9443  1.3122
  990MOL0     H33613  10.944   7.054   1.686  0.4174 -1.5535 -0.9716
  990MOL0     H33614  11.056   7.075   1.474 -0.3505 -1.0682  0.6494
  990MOL0     H33615  11.053   6.917   1.556 -0.4062  3.4741  2.7777
  990MOL0     H33616  11.044   6.824   1.302  1.1195  0.1859  0.3131
  990MOL0     H33617  11.071   6.990   1.259  0.5871 -0.8239 -0.9801
  990MOL0     H33618  11.293   7.000   1.357 -0.2908 -0.6165 -0.6284
  990MOL0     H33619  11.275   6.847   1.433  1.5616  1.0267  0.1943
  990MOL0     H33620  11.427   6.852   1.237 -0.4580  2.3165 -1.0722
  990MOL0     H33621  11.287   6.905   1.142  1.1272  3.6161  1.8018
  990MOL0     H33622  11.325   6.685   1.080  2.6260  0.4801  0.0275
  990MOL0     H33623  11.179   6.672   1.182  0.3832 -0.3934 -0.4134
  990MOL0     H33624  11.292   6.590   1.368 -0.7679  3.1168 -0.7152
  990MOL0     H33625  11.306   6.482   1.227 -0.2725 -1.1629  2.7845
  990MOL0     H33626  11.523   6.482   1.346  0.6874  0.2252  0.0120
  990MOL0     H33627  11.532   6.658   1.336 -0.6308 -0.2962  2.3743
  990MOL0     H33628  11.506   6.462   1.097  0.4334 -0.6273  0.5032
  990MOL0     H33629  11.552   6.634   1.080  3.1754  1.7144  1.2651
  990MOL0     H33630  10.640   6.895   1.436  0.3850 -0.7620 -0.3982
  990MOL0     H33631  10.483   6.922   1.627  0.5285  0.4629  1.9951
  990MOL0     H33632  10.471   7.330   2.093  1.4256 -1.0150  2.3770
  990MOL0     H33633  10.261   7.360   2.241 -0.2058  0.3696 -0.8392
  990MOL0     H33634   8.527   7.174   1.916 -0.0973  2.0277 -2.3324
  990MOL0     H33635   8.374   7.273   1.748  0.0817 -0.1286  0.4405
  990MOL0     H33636   7.922   7.219   1.622  2.5866  0.6140  0.6958
  990MOL0     H33637   7.744   7.318   1.472  0.5004  0.8762  0.2874
  990MOL0     H33638   7.846   7.350   1.045  1.1684 -0.6284  2.2352
  990MOL0     H33639   7.882   7.506   1.109 -0.8924  0.1076  0.7549
  990MOL0     H33640   7.593   7.420   1.089  1.5653 -0.3318  0.3653
  990MOL0     H33641   7.684   7.516   0.958  0.7060 -0.3677  0.3487
  990MOL0     H33642   7.708   7.692   1.106 -0.0937 -0.6393  0.2322
  990MOL0     H33643   7.621   7.603   1.234  1.3484  3.0070  1.0100
  990MOL0     H33644   7.531   7.712   0.959  0.8686 -1.9969 -0.1060
  990MOL0     H33645   7.427   7.613   1.061 -1.1191  0.8681 -0.4381
  990MOL0     H33646   7.475   8.009   1.260 -0.7376  2.0477 -1.0353
  990MOL0     H33647   8.040   7.366   1.167  1.7940 -0.5417 -0.2505
  990MOL0     H33648   8.326   7.296   1.371  1.1297 -2.7073 -0.3104
  990MOL0     H33649   8.278   7.165   1.266 -0.1508 -0.6761 -0.4595
  990MOL0     H33650   8.256   7.337   1.211 -1.4601  1.8374  0.8071
  991MOL0     O33651   4.871   5.099   6.294  0.3896  0.0950 -0.1461
  991MOL0     C33652   4.775   5.107   6.374 -0.5380 -0.1845 -0.3743
  991MOL0     O33653   4.795   5.096   6.508 -0.0253  0.8685  0.2724
  991MOL0     C33654   4.922   5.080   6.568  0.3985 -0.2141  0.3442
  991MOL0     C33655   4.938   5.135   6.692 -0.1302 -0.1333 -0.1424
  991MOL0     C33656   5.053   5.116   6.769 -0.6946 -0.7041  0.9684
  991MOL0     C33657   5.158   5.036   6.712  0.2656  0.2038  0.6811
  991MOL0     O33658   5.263   5.005   6.796 -0.3544 -0.5225  0.1642
  991MOL0     C33659   5.392   4.968   6.736  0.0657 -0.4248  0.1761
  991MOL0     C33660   5.504   4.979   6.840  1.1455 -0.0138  1.4677
  991MOL0     C33661   5.648   4.966   6.783  0.3788  0.3218  0.2151
  991MOL0     C33662   5.742   5.084   6.826 -0.1194  0.7410 -0.1650
  991MOL0     C33663   5.881   5.062   6.762  0.4892 -0.7734  0.3977
  991MOL0     C33664   5.981   4.979   6.846 -0.3274 -1.0035  0.8339
  991MOL0     C33665   6.115   4.996   6.776  0.1061 -0.3620 -0.3273
  991MOL0     C33666   6.138   4.894   6.652  0.4189  0.2366 -0.9478
  991MOL0     N33667   6.272   4.897   6.595 -0.2028  0.0369 -0.4260
  991MOL0     C33668   6.312   4.840   6.475  0.2059  0.6262  0.0221
  991MOL0     C33669   6.439   4.862   6.460 -0.7647  0.1198  0.1724
  991MOL0     C33670   6.513   4.805   6.343 -0.2328  0.1613  0.3277
  991MOL0     C33671   6.643   4.880   6.314 -0.7439  0.0986 -0.6301
  991MOL0     C33672   6.707   4.786   6.206 -0.4801  0.1352 -0.1685
  991MOL0     C33673   6.826   4.854   6.143  0.1917 -0.3136  0.9081
  991MOL0     O33674   6.934   4.869   6.239  0.4373  0.7729  0.8027
  991MOL0     C33675   7.051   4.914   6.191 -0.7089  0.3563  0.9097
  991MOL0     C33676   7.085   4.958   6.058  0.4736  0.2694 -0.5668
  991MOL0     C33677   7.211   4.994   6.015  0.1898  0.5329  0.0043
  991MOL0     C33678   7.319   4.992   6.105  0.9286 -0.2695 -0.9485
  991MOL0     C33679   7.466   5.011   6.066  0.1966 -0.1238 -0.4558
  991MOL0     O33680   7.564   5.013   6.159 -0.0738 -0.3863 -0.3361
  991MOL0     C33681   7.697   4.974   6.143 -0.4597 -0.0400 -0.3852
  991MOL0     C33682   7.773   4.993   6.028  0.3495  0.5870 -0.4984
  991MOL0     C33683   7.912   4.959   6.024 -0.6425 -1.3808 -0.4631
  991MOL0     C33684   7.977   4.901   6.139  0.0296  0.9512  0.1055
  991MOL0     O33685   8.105   4.860   6.138  0.2135  0.1319 -0.4886
  991MOL0     C33686   8.119   4.715   6.123  0.9687  0.1950  0.0348
  991MOL0     C33687   8.218   4.650   6.229  0.0882 -0.3368 -0.2586
  991MOL0     C33688   8.363   4.702   6.202 -0.3484  0.5887 -0.1802
  991MOL0     C33689   8.468   4.633   6.291  0.7630  0.4876  0.1065
  991MOL0     C33690   8.603   4.689   6.284  0.1009  0.8420 -0.3936
  991MOL0     C33691   8.698   4.615   6.383  0.6438  0.3420  0.5236
  991MOL0     C33692   8.840   4.654   6.364  0.6444  0.6715 -0.0042
  991MOL0     C33693   8.873   4.798   6.399  0.2853 -0.4246  0.2893
  991MOL0    Cl33694   8.884   4.808   6.580  0.2641 -0.1667  0.6565
  991MOL0     C33695   7.894   4.867   6.246  0.1840  0.7788 -0.3512
  991MOL0     C33696   7.763   4.905   6.245 -0.2074  0.8283 -0.1196
  991MOL0     O33697   7.483   5.005   5.948 -0.2734  0.3414 -0.3942
  991MOL0     C33698   7.278   4.980   6.241  0.1107 -0.7238 -0.1524
  991MOL0     C33699   7.153   4.931   6.282 -0.4243  0.2890 -0.7939
  991MOL0     N33700   6.485   4.920   6.576 -0.6394 -0.0243 -0.2939
  991MOL0     N33701   6.387   4.944   6.658 -0.7295  0.5459  0.2253
  991MOL0     C33702   5.149   4.979   6.587 -0.3026 -0.6554  0.1264
  991MOL0     C33703   5.028   5.003   6.522 -0.4341 -0.0568 -0.4737
  991MOL0     C33704   4.640   5.116   6.315 -0.1031  0.7909  0.0302
  991MOL0     C33705   4.627   5.141   6.180 -0.7525  0.5489  0.1142
  991MOL0     C33706   4.507   5.156   6.110 -0.2442 -0.1529  0.4476
  991MOL0     C33707   4.390   5.155   6.179 -0.2083  0.1233  0.5262
  991MOL0     O33708   4.276   5.182   6.109 -0.3296  0.2982 -0.3048
  991MOL0     C33709   4.151   5.165   6.178 -0.5510  0.4231  0.6701
  991MOL0     C33710   4.032   5.219   6.107  0.7321  0.2155  0.5927
  991MOL0     C33711   4.044   5.374   6.103 -0.3837 -0.3259  0.5095
  991MOL0     C33712   3.985   5.436   5.978  0.0868 -0.5202  0.3598
  991MOL0     C33713   3.844   5.466   6.005  0.3292 -0.6387 -0.0307
  991MOL0     C33714   3.723   5.469   6.027 -0.2144 -0.3582 -0.3817
  991MOL0     C33715   4.402   5.141   6.320  0.2702  0.5524 -0.1102
  991MOL0     C33716   4.518   5.116   6.388  0.1057  0.8651  0.3967
  991MOL0     C33717   4.506   5.112   6.537 -0.0727 -0.0862 -0.4737
  991MOL0     H33718   4.868   5.194   6.750  2.4735  3.6998 -0.6016
  991MOL0     H33719   5.071   5.152   6.870 -0.6920  0.3394  0.6118
  991MOL0     H33720   5.392   4.866   6.697  1.8089  0.6464 -3.0835
  991MOL0     H33721   5.408   5.043   6.657 -0.2607  1.5349  1.8677
  991MOL0     H33722   5.493   4.891   6.903 -0.7992 -0.8010  0.1331
  991MOL0     H33723   5.497   5.076   6.891  2.0376  1.5501 -1.1682
  991MOL0     H33724   5.642   4.953   6.675 -2.2798  0.5000  0.2836
  991MOL0     H33725   5.703   4.878   6.817  3.1008  1.2488 -1.4778
  991MOL0     H33726   5.681   5.172   6.803  0.0327  0.8490 -0.1612
  991MOL0     H33727   5.756   5.070   6.934  3.8938 -1.8297 -0.7935
  991MOL0     H33728   5.875   5.025   6.659 -2.2379  0.8164 -0.1216
  991MOL0     H33729   5.927   5.161   6.759 -0.9409 -0.0769  0.6726
  991MOL0     H33730   5.986   5.031   6.942 -1.0680 -0.8916  0.8162
  991MOL0     H33731   5.945   4.876   6.861 -3.6268  0.1049  1.3543
  991MOL0     H33732   6.194   4.980   6.850  0.3559 -0.3128 -0.5823
  991MOL0     H33733   6.131   5.098   6.741  0.2024  0.0136  0.7474
  991MOL0     H33734   6.105   4.796   6.689 -0.3412  1.5633  2.2462
  991MOL0     H33735   6.071   4.926   6.571  0.3837 -1.7430 -1.7529
  991MOL0     H33736   6.247   4.791   6.403  0.4515  0.4518 -0.0778
  991MOL0     H33737   6.543   4.702   6.365  1.2364  0.4183 -0.3733
  991MOL0     H33738   6.453   4.809   6.252  2.5763 -1.1859 -1.7163
  991MOL0     H33739   6.613   4.977   6.274 -2.7407  1.0030  2.6474
  991MOL0     H33740   6.697   4.895   6.408  0.2275 -2.6049 -0.6687
  991MOL0     H33741   6.637   4.756   6.127  1.4074 -3.5332 -0.6418
  991MOL0     H33742   6.744   4.694   6.252  0.1349  0.0800 -0.7526
  991MOL0     H33743   6.797   4.955   6.114  0.1444 -0.1348  1.5665
  991MOL0     H33744   6.874   4.804   6.058  4.0371 -1.8146  3.7069
  991MOL0     H33745   7.019   4.960   5.972 -0.7013  0.5495  0.3101
  991MOL0     H33746   7.234   5.012   5.910 -0.1090  3.1508  0.3330
  991MOL0     H33747   7.732   5.041   5.940  0.5908  0.6292 -0.5907
  991MOL0     H33748   7.974   4.992   5.941 -0.0437 -0.2605  0.4062
  991MOL0     H33749   8.022   4.663   6.128  0.4914  1.0791  0.1641
  991MOL0     H33750   8.158   4.699   6.023 -2.1140 -1.2981 -1.0853
  991MOL0     H33751   8.189   4.677   6.331  0.9360 -0.2883 -0.0256
  991MOL0     H33752   8.221   4.541   6.224  0.3062 -0.3758  0.6519
  991MOL0     H33753   8.401   4.680   6.102  1.7639 -0.6632  0.8319
  991MOL0     H33754   8.366   4.806   6.236 -0.3865  0.3324  0.6167
  991MOL0     H33755   8.468   4.525   6.273  1.3019  0.8814 -2.8878
  991MOL0     H33756   8.434   4.642   6.394 -0.5263 -0.9871 -0.1495
  991MOL0     H33757   8.598   4.795   6.310  0.4742  0.6500  0.5136
  991MOL0     H33758   8.633   4.674   6.180 -3.5282 -2.8264 -1.1391
  991MOL0     H33759   8.668   4.639   6.486  4.7120 -1.9599  2.4916
  991MOL0     H33760   8.694   4.507   6.371  4.1154  0.2565 -0.9371
  991MOL0     H33761   8.885   4.632   6.266  2.2370 -2.0109  1.1994
  991MOL0     H33762   8.899   4.593   6.433 -0.9333 -2.3720 -1.1643
  991MOL0     H33763   8.971   4.832   6.364  0.3860  1.1182  1.9207
  991MOL0     H33764   8.804   4.873   6.358  1.9357  0.4862 -0.9625
  991MOL0     H33765   7.939   4.805   6.323  0.5297  0.7185 -0.5978
  991MOL0     H33766   7.721   4.896   6.344  4.2706 -2.5542  1.8601
  991MOL0     H33767   7.352   4.975   6.320 -1.9647  0.4306  1.9551
  991MOL0     H33768   7.134   4.916   6.388 -3.6191 -1.6974 -1.5091
  991MOL0     H33769   5.226   4.921   6.537  0.5529  2.7645 -2.9597
  991MOL0     H33770   5.018   4.972   6.418 -0.6552  0.5042 -0.6269
  991MOL0     H33771   4.714   5.127   6.117  0.1770  0.9169  1.2926
  991MOL0     H33772   4.511   5.164   6.002 -3.1027  2.9017  0.3925
  991MOL0     H33773   4.155   5.195   6.283  3.5355  0.9520  0.5320
  991MOL0     H33774   4.139   5.056   6.178 -1.6579  0.5309  0.9550
  991MOL0     H33775   3.941   5.188   6.160 -0.1330  0.6152 -0.6022
  991MOL0     H33776   4.012   5.185   6.005 -0.0366  2.7271 -0.1766
  991MOL0     H33777   4.150   5.400   6.107 -0.2103 -0.6321 -1.2087
  991MOL0     H33778   3.990   5.414   6.189 -3.9320  0.1420 -1.7633
  991MOL0     H33779   4.040   5.529   5.955  0.0933 -0.4168  0.7801
  991MOL0     H33780   3.991   5.378   5.886  1.2757 -1.3729  0.9503
  991MOL0     H33781   3.616   5.469   6.039  0.1085 -0.0728  4.9241
  991MOL0     H33782   4.313   5.130   6.381  0.8035 -1.0305  0.4288
  991MOL0     H33783   4.406   5.130   6.576 -0.0558  0.2471 -0.5812
  991MOL0     H33784   4.535   5.014   6.578  0.0496 -0.1318 -0.6674
  991MOL0     H33785   4.579   5.184   6.577 -0.7434  0.9520 -1.0967
  992MOL0     O33786   7.135   2.594   3.865 -0.2474  0.0570  0.1312
  992MOL0     C33787   7.101   2.479   3.902  0.3217 -0.1061 -0.0213
  992MOL0     O33788   7.185   2.367   3.894 -0.5705  0.0016  0.3073
  992MOL0     C33789   7.315   2.363   3.838 -0.0402 -0.6802 -0.7916
  992MOL0     C33790   7.365   2.461   3.749 -0.0342 -0.3173 -0.3621
  992MOL0     C33791   7.496   2.447   3.702 -0.6193 -0.3196  0.5597
  992MOL0     C33792   7.584   2.345   3.735 -1.1136  0.2531  0.1800
  992MOL0     O33793   7.695   2.343   3.660 -0.6477 -0.0418  0.0222
  992MOL0     C33794   7.798   2.249   3.689 -0.0445 -0.2734 -0.5343
  992MOL0     C33795   7.932   2.296   3.635 -0.1703  0.1193 -0.2802
  992MOL0     C33796   8.016   2.168   3.599 -0.7109 -0.2567  0.1598
  992MOL0     C33797   8.056   2.089   3.730  0.6182 -1.1268 -0.1614
  992MOL0     C33798   8.174   2.001   3.694 -0.1118  0.4177  0.0742
  992MOL0     C33799   8.206   1.901   3.811 -0.1247  1.2150 -0.9617
  992MOL0     C33800   8.271   1.774   3.762 -0.4352 -1.1457 -0.2034
  992MOL0     C33801   8.409   1.809   3.688  0.0628 -0.2241 -0.7138
  992MOL0     N33802   8.518   1.860   3.775  1.0721  0.4705  0.7605
  992MOL0     C33803   8.552   1.988   3.779 -0.0442  0.1629  0.3564
  992MOL0     C33804   8.621   2.000   3.895  0.1036 -0.6670 -0.6432
  992MOL0     C33805   8.668   2.136   3.951 -0.1430 -0.6633 -1.0853
  992MOL0     C33806   8.778   2.109   4.051  0.2720 -0.1438  0.2718
  992MOL0     C33807   8.843   2.244   4.074 -0.4249 -0.0704  0.0562
  992MOL0     C33808   8.952   2.246   4.182 -0.2674  0.1378  0.0024
  992MOL0     O33809   9.015   2.120   4.202  0.2796  0.1370 -0.0683
  992MOL0     C33810   9.087   2.115   4.317  0.3812  0.2647  0.4655
  992MOL0     C33811   9.159   2.002   4.346 -0.4097  0.1421 -0.0182
  992MOL0     C33812   9.239   1.989   4.463  0.6541 -0.5372  0.1379
  992MOL0     C33813   9.263   2.096   4.556 -0.8430  0.4370  0.1789
  992MOL0     C33814   9.349   2.091   4.678 -0.3813  0.1239  0.3688
  992MOL0     O33815   9.448   1.992   4.685 -0.0037 -0.6515 -0.2993
  992MOL0     C33816   9.539   1.990   4.790 -0.6793  0.4162  0.3680
  992MOL0     C33817   9.507   1.922   4.908  0.0380  0.4475 -0.1963
  992MOL0     C33818   9.590   1.938   5.025  0.9266 -0.9549  0.4737
  992MOL0     C33819   9.712   2.009   5.016 -0.5504  0.3798  0.2809
  992MOL0     O33820   9.809   2.024   5.115 -0.7336  0.1954 -1.1795
  992MOL0     C33821   9.821   1.914   5.202 -0.3830  0.9192 -0.2654
  992MOL0     C33822   9.932   1.934   5.308  0.1708 -0.2237  0.1914
  992MOL0     C33823  10.067   1.948   5.240 -0.1215  0.8397  0.2329
  992MOL0     C33824  10.183   1.962   5.337 -0.4245 -0.8337 -0.8199
  992MOL0     C33825  10.313   1.995   5.280  0.0076 -0.3956  1.0392
  992MOL0     C33826  10.440   1.978   5.361 -0.1198 -0.1777  0.2468
  992MOL0     C33827  10.566   2.040   5.292 -0.5415 -1.0609 -1.2576
  992MOL0     C33828  10.605   1.946   5.189 -0.3309 -0.1369 -0.3086
  992MOL0    Cl33829  10.727   2.009   5.074  0.2084  0.4919  0.1557
  992MOL0     C33830   9.740   2.073   4.899  0.0670 -1.0412  0.0023
  992MOL0     C33831   9.654   2.071   4.787 -0.4321  0.9192  0.1993
  992MOL0     O33832   9.341   2.188   4.755 -0.6568  0.1929 -0.4750
  992MOL0     C33833   9.192   2.214   4.526 -0.1743 -0.2783 -0.4074
  992MOL0     C33834   9.108   2.219   4.411  0.0173 -0.6491 -0.1208
  992MOL0     N33835   8.613   1.880   3.967  0.6948 -0.2397  0.1541
  992MOL0     N33836   8.558   1.789   3.887 -0.1126 -0.3566 -0.3758
  992MOL0     C33837   7.531   2.242   3.821 -0.3772 -0.4152 -0.8949
  992MOL0     C33838   7.403   2.260   3.872 -0.0509 -0.1721  0.0608
  992MOL0     C33839   6.953   2.464   3.938 -0.2263 -0.4240 -0.2950
  992MOL0     C33840   6.882   2.579   3.961  0.1695  0.2842 -1.0289
  992MOL0     C33841   6.749   2.576   3.995 -0.8541  0.3595  1.2368
  992MOL0     C33842   6.675   2.452   4.001  0.0174 -0.4138 -0.2277
  992MOL0     O33843   6.546   2.444   4.035  0.1564 -0.4402 -0.3304
  992MOL0     C33844   6.476   2.559   4.086  0.2103  0.2827  0.5179
  992MOL0     C33845   6.334   2.522   4.115 -0.0842 -0.1451 -0.0894
  992MOL0     C33846   6.313   2.385   4.193  0.9003 -0.5692  0.2662
  992MOL0     C33847   6.197   2.298   4.131 -0.0734 -0.1232 -0.5482
  992MOL0     C33848   6.059   2.364   4.143  0.7715 -1.1155  0.3297
  992MOL0     C33849   5.957   2.420   4.180  0.1065  0.3669  0.4225
  992MOL0     C33850   6.744   2.337   3.974  0.6498 -0.7117 -0.0329
  992MOL0     C33851   6.884   2.336   3.956 -0.0649 -0.4815 -0.2290
  992MOL0     C33852   6.963   2.203   3.942  0.8751  0.3384  0.3350
  992MOL0     H33853   7.298   2.530   3.699  0.8664 -0.0054 -1.1790
  992MOL0     H33854   7.527   2.526   3.635 -0.2644  1.1028  2.3408
  992MOL0     H33855   7.805   2.220   3.794  0.5540 -0.1135 -0.5275
  992MOL0     H33856   7.769   2.155   3.641  1.2202 -1.3809  0.7839
  992MOL0     H33857   7.980   2.366   3.703  0.8526  2.3710 -3.0960
  992MOL0     H33858   7.902   2.343   3.540 -3.5601 -2.2853 -0.5844
  992MOL0     H33859   8.104   2.205   3.547 -0.1701  1.3547  2.0960
  992MOL0     H33860   7.953   2.101   3.540  1.0662 -0.6325 -1.3973
  992MOL0     H33861   8.091   2.163   3.802  1.4013 -0.1986 -1.4401
  992MOL0     H33862   7.970   2.041   3.776 -1.6552  0.4826 -2.4227
  992MOL0     H33863   8.136   1.947   3.606  0.3606  0.7390 -0.3304
  992MOL0     H33864   8.261   2.057   3.659  0.8773 -0.7960  0.5044
  992MOL0     H33865   8.272   1.946   3.885 -0.2681 -0.2266  0.0912
  992MOL0     H33866   8.113   1.862   3.855 -0.7380  2.0869 -1.4533
  992MOL0     H33867   8.205   1.719   3.694  0.8415  0.0145 -2.5060
  992MOL0     H33868   8.290   1.709   3.848  3.5395 -1.3896 -1.0855
  992MOL0     H33869   8.444   1.716   3.642  0.5852 -1.0746  1.2795
  992MOL0     H33870   8.390   1.869   3.599 -1.0326  1.8133  0.8215
  992MOL0     H33871   8.515   2.063   3.709  1.2960  0.5094 -0.0116
  992MOL0     H33872   8.702   2.199   3.868  1.3282 -0.3093 -0.2373
  992MOL0     H33873   8.595   2.190   4.012  0.4398 -2.1834  1.0713
  992MOL0     H33874   8.730   2.076   4.144  0.4504  0.1828  0.4828
  992MOL0     H33875   8.843   2.032   4.009  0.7842 -0.6600  1.9221
  992MOL0     H33876   8.761   2.310   4.100 -1.3727 -0.4506 -1.8228
  992MOL0     H33877   8.885   2.284   3.981 -0.5273  1.4180  0.6268
  992MOL0     H33878   8.890   2.274   4.267 -1.3831  1.4146 -1.1757
  992MOL0     H33879   9.028   2.324   4.171 -0.2870 -0.0805 -2.0860
  992MOL0     H33880   9.161   1.919   4.276 -1.4420 -0.5114  0.7005
  992MOL0     H33881   9.283   1.892   4.483  0.1640 -0.6202  0.8980
  992MOL0     H33882   9.416   1.862   4.913  0.3123 -0.0933 -1.5152
  992MOL0     H33883   9.551   1.895   5.117 -1.9008 -0.3740 -0.3583
  992MOL0     H33884   9.725   1.902   5.253 -0.3485 -0.5054 -0.4895
  992MOL0     H33885   9.856   1.825   5.148  0.8811  0.8953  0.5454
  992MOL0     H33886   9.917   2.023   5.369 -0.7218 -1.2042  1.4700
  992MOL0     H33887   9.931   1.843   5.370 -0.0740 -2.1824 -2.5046
  992MOL0     H33888  10.082   1.856   5.182 -1.6848 -0.8515  2.3378
  992MOL0     H33889  10.071   2.028   5.165 -0.7363 -0.2008 -0.9492
  992MOL0     H33890  10.201   1.877   5.402 -2.0257  0.0219  0.8153
  992MOL0     H33891  10.162   2.037   5.414  2.0951 -3.0688  2.2638
  992MOL0     H33892  10.304   2.100   5.251 -1.0562 -1.0742 -1.3560
  992MOL0     H33893  10.321   1.946   5.182  0.0533 -0.5500  1.1204
  992MOL0     H33894  10.429   2.024   5.460 -0.2491 -0.5106  0.3876
  992MOL0     H33895  10.458   1.875   5.394  0.2510  0.2330  1.3786
  992MOL0     H33896  10.661   2.061   5.342 -0.9945  2.2515 -1.5636
  992MOL0     H33897  10.541   2.133   5.241  1.5779 -0.5660 -1.4857
  992MOL0     H33898  10.647   1.861   5.243  0.2428 -0.2075 -0.8450
  992MOL0     H33899  10.521   1.904   5.133 -2.2411  2.2673  0.5935
  992MOL0     H33900   9.833   2.129   4.899 -1.2088  1.3626  2.5146
  992MOL0     H33901   9.674   2.140   4.706  2.5633  0.8005  0.6992
  992MOL0     H33902   9.192   2.308   4.580 -0.2921  0.2657 -1.3347
  992MOL0     H33903   9.058   2.314   4.393  0.7912 -0.3097 -0.5228
  992MOL0     H33904   7.595   2.156   3.841 -0.9049 -0.9358 -1.4009
  992MOL0     H33905   7.364   2.188   3.942 -2.0555 -0.2924 -1.0847
  992MOL0     H33906   6.935   2.673   3.960  1.4455 -0.3982  0.1850
  992MOL0     H33907   6.696   2.669   4.015  0.0502  0.9154  1.0807
  992MOL0     H33908   6.470   2.654   4.032  0.8412  0.6920  1.1468
  992MOL0     H33909   6.524   2.575   4.183  0.2493 -1.1476  0.7574
  992MOL0     H33910   6.282   2.517   4.019  1.8693  0.4431 -1.2305
  992MOL0     H33911   6.284   2.606   4.165  2.2237  0.6247  1.0626
  992MOL0     H33912   6.294   2.407   4.298  1.2619  0.6044  0.0937
  992MOL0     H33913   6.405   2.326   4.191  0.0774 -2.0122  1.8231
  992MOL0     H33914   6.217   2.280   4.025 -2.0665  2.1855 -1.4159
  992MOL0     H33915   6.198   2.203   4.184  0.3579 -1.0139 -2.0880
  992MOL0     H33916   5.864   2.460   4.215 -1.6639 -0.8119 -2.5288
  992MOL0     H33917   6.691   2.245   3.996 -0.2879 -0.4102 -0.9383
  992MOL0     H33918   7.058   2.205   3.996  0.3130 -1.1563  1.4568
  992MOL0     H33919   6.894   2.124   3.972  0.5085 -0.0270 -1.3174
  992MOL0     H33920   6.979   2.175   3.837 -0.4908  0.0679  0.1714
  993MOL0     O33921   7.586   1.600   0.499  0.3582  0.7460  0.4288
  993MOL0     C33922   7.617   1.522   0.594  0.6219  0.2446 -0.3857
  993MOL0     O33923   7.740   1.517   0.650  0.6307 -1.0681 -0.0361
  993MOL0     C33924   7.831   1.613   0.604 -0.6104  0.6973  0.0616
  993MOL0     C33925   7.955   1.571   0.561 -0.0107  1.2399  0.0930
  993MOL0     C33926   8.052   1.660   0.513  0.7478  0.0126  0.2887
  993MOL0     C33927   8.029   1.794   0.525 -0.3779 -0.0202  0.1205
  993MOL0     O33928   8.130   1.883   0.491 -0.7171 -0.1719  0.3341
  993MOL0     C33929   8.170   1.982   0.593 -0.7382  0.6903  0.3162
  993MOL0     C33930   8.271   2.081   0.545 -0.5204  0.5076  1.0215
  993MOL0     C33931   8.406   2.007   0.553  0.2454  0.3252  0.4105
  993MOL0     C33932   8.503   2.079   0.460  0.1325  0.4420 -0.9114
  993MOL0     C33933   8.648   2.022   0.469  0.3104 -1.1578 -0.0942
  993MOL0     C33934   8.734   2.116   0.379 -0.2280  0.2791 -0.3304
  993MOL0     C33935   8.880   2.084   0.383  0.0447 -0.2895  0.4335
  993MOL0     C33936   8.959   2.153   0.493  0.1801 -0.8044  0.9403
  993MOL0     N33937   9.099   2.117   0.482 -0.0983 -0.2310  0.2469
  993MOL0     C33938   9.201   2.185   0.533 -0.0159 -0.2007  0.3495
  993MOL0     C33939   9.310   2.109   0.514 -0.6512 -1.0002  0.2707
  993MOL0     C33940   9.451   2.157   0.501 -0.8592 -0.0794 -0.5694
  993MOL0     C33941   9.557   2.052   0.544 -0.3392  0.1348  0.1335
  993MOL0     C33942   9.702   2.104   0.504 -0.4733  0.4779  0.6492
  993MOL0     C33943   9.815   2.042   0.594  0.0253 -0.2769  0.2763
  993MOL0     O33944   9.932   2.120   0.623 -0.0370  0.0774  0.0148
  993MOL0     C33945  10.049   2.062   0.663  0.8206  0.2799 -0.2067
  993MOL0     C33946  10.054   1.937   0.730 -0.7379 -0.5101 -0.0374
  993MOL0     C33947  10.169   1.884   0.775 -0.2991 -0.2468  0.3807
  993MOL0     C33948  10.290   1.950   0.750 -0.3081  0.4924 -0.8107
  993MOL0     C33949  10.417   1.905   0.809 -0.1351 -0.7274 -0.2797
  993MOL0     O33950  10.528   1.975   0.782  0.6302  0.2017 -0.3283
  993MOL0     C33951  10.661   1.927   0.798 -1.1225 -0.6216  0.1243
  993MOL0     C33952  10.700   1.805   0.853 -0.0124  0.8810 -0.0210
  993MOL0     C33953  10.836   1.764   0.851  0.4057  0.1013 -0.4529
  993MOL0     C33954  10.932   1.846   0.795 -0.2951 -0.3868 -0.4228
  993MOL0     O33955  11.069   1.817   0.809  0.1857 -0.5761  0.0327
  993MOL0     C33956  11.121   1.688   0.791  0.4882 -0.0509 -0.7108
  993MOL0     C33957  11.129   1.657   0.642  0.0884 -0.0898  0.8172
  993MOL0     C33958  11.180   1.521   0.610 -0.1529 -0.3987  0.7539
  993MOL0     C33959  11.070   1.422   0.637  0.6117 -0.1586  0.0508
  993MOL0     C33960  11.106   1.295   0.564 -0.0381 -0.2930  0.2370
  993MOL0     C33961  11.001   1.187   0.582  0.7678 -0.3559  0.9074
  993MOL0     C33962  10.870   1.213   0.512 -0.2337  0.0761 -0.3763
  993MOL0     C33963  10.770   1.098   0.532 -0.6082  0.0314  0.4258
  993MOL0    Cl33964  10.622   1.175   0.488 -0.5242 -0.6740  0.1122
  993MOL0     C33965  10.886   1.968   0.738  0.0675  0.2921  0.0556
  993MOL0     C33966  10.757   2.006   0.749  0.0704 -0.1935 -0.0713
  993MOL0     O33967  10.415   1.795   0.858  0.1096 -0.2653  0.1738
  993MOL0     C33968  10.286   2.062   0.673 -0.7704  0.1412  0.1899
  993MOL0     C33969  10.171   2.113   0.626 -0.1601 -0.2523  0.4288
  993MOL0     N33970   9.274   1.992   0.458 -0.4447  0.2316 -0.4873
  993MOL0     N33971   9.151   1.996   0.440 -0.8159 -0.2078 -0.1409
  993MOL0     C33972   7.914   1.846   0.586 -0.1858  0.8405  0.1206
  993MOL0     C33973   7.814   1.750   0.622  0.3960 -0.0807  0.6749
  993MOL0     C33974   7.507   1.441   0.644  0.6333 -0.8951 -0.5929
  993MOL0     C33975   7.379   1.467   0.597  0.1170  0.4273 -0.0043
  993MOL0     C33976   7.261   1.412   0.648 -0.4227 -0.4648 -0.0021
  993MOL0     C33977   7.267   1.323   0.749 -0.3583  0.7886  0.0776
  993MOL0     O33978   7.147   1.293   0.798 -0.2650  0.0363  0.3913
  993MOL0     C33979   7.136   1.168   0.864 -0.7216  0.1328  0.3945
  993MOL0     C33980   7.013   1.089   0.815  0.2291  0.2482  0.3602
  993MOL0     C33981   6.979   0.971   0.907 -1.1969 -0.1382  0.1068
  993MOL0     C33982   6.879   0.870   0.851  0.1697 -0.0109  0.0820
  993MOL0     C33983   6.753   0.926   0.818  0.3418  0.2595 -0.4817
  993MOL0     C33984   6.652   0.981   0.780 -0.2275 -0.0114  0.3761
  993MOL0     C33985   7.393   1.290   0.799 -0.5955  0.1097 -0.4640
  993MOL0     C33986   7.516   1.352   0.744 -0.3675 -1.0563  0.6933
  993MOL0     C33987   7.649   1.321   0.821  0.7957 -0.3223  1.0139
  993MOL0     H33988   7.973   1.464   0.570 -4.6226  0.2215 -0.5791
  993MOL0     H33989   8.142   1.618   0.468  0.4486  1.0669 -1.4142
  993MOL0     H33990   8.087   2.039   0.637 -1.0800  0.9317 -0.6271
  993MOL0     H33991   8.210   1.931   0.682 -1.8068  0.1531  0.5038
  993MOL0     H33992   8.273   2.169   0.610  0.4769  2.8486 -1.9522
  993MOL0     H33993   8.243   2.119   0.447  1.8847 -0.8201 -0.2778
  993MOL0     H33994   8.406   1.902   0.523  1.1718  0.3759  0.2283
  993MOL0     H33995   8.448   2.017   0.654  3.4094  1.1873 -0.8654
  993MOL0     H33996   8.462   2.074   0.359 -0.9628 -0.4073 -0.4478
  993MOL0     H33997   8.500   2.183   0.495  0.6872 -0.4590  2.1572
  993MOL0     H33998   8.683   2.034   0.572 -2.3422  1.1134  0.6511
  993MOL0     H33999   8.654   1.916   0.443 -0.1582 -0.9083 -1.2858
  993MOL0     H34000   8.700   2.098   0.276 -0.3566 -1.0988 -0.0644
  993MOL0     H34001   8.719   2.219   0.413 -2.2190  0.4025 -1.4326
  993MOL0     H34002   8.925   2.114   0.288 -1.9048 -1.0227 -0.7853
  993MOL0     H34003   8.893   1.976   0.398  1.5832  0.0192  1.6321
  993MOL0     H34004   8.944   2.261   0.494 -0.3726 -0.8680  0.2956
  993MOL0     H34005   8.922   2.098   0.580 -0.8755 -0.6468  0.6030
  993MOL0     H34006   9.204   2.289   0.563 -0.0214 -0.3271  0.7859
  993MOL0     H34007   9.467   2.187   0.397 -2.8557  1.8919 -0.3931
  993MOL0     H34008   9.454   2.247   0.562 -0.5061  0.3492 -1.2163
  993MOL0     H34009   9.551   2.035   0.652 -0.0774 -0.2473  0.0915
  993MOL0     H34010   9.550   1.961   0.484  3.4210 -0.0692 -0.2725
  993MOL0     H34011   9.708   2.213   0.503  1.1337  0.4116 -0.4644
  993MOL0     H34012   9.721   2.070   0.401 -1.1286 -1.4913  1.1327
  993MOL0     H34013   9.864   1.963   0.536 -0.3075 -0.7233  0.6013
  993MOL0     H34014   9.767   2.005   0.684  2.0834 -1.2368  1.0580
  993MOL0     H34015   9.969   1.888   0.777  1.7187 -2.6907  2.5326
  993MOL0     H34016  10.165   1.803   0.847 -0.1816 -0.3706  0.2491
  993MOL0     H34017  10.632   1.728   0.888 -0.6537  0.7665 -1.4509
  993MOL0     H34018  10.855   1.663   0.886 -3.6936 -0.3113  1.0936
  993MOL0     H34019  11.225   1.693   0.825  0.2151 -0.8897  0.2826
  993MOL0     H34020  11.066   1.620   0.856 -1.0327  0.8719 -0.9942
  993MOL0     H34021  11.032   1.691   0.605  0.8686  0.7529 -0.5764
  993MOL0     H34022  11.200   1.726   0.594  0.5679 -0.1337  1.4458
  993MOL0     H34023  11.220   1.512   0.509 -0.9774  1.4521  0.2148
  993MOL0     H34024  11.263   1.493   0.675  0.4353 -2.8353 -0.9226
  993MOL0     H34025  10.974   1.455   0.598  0.1907 -2.2270 -0.8477
  993MOL0     H34026  11.063   1.394   0.742  1.6053  1.0140  0.4456
  993MOL0     H34027  11.198   1.253   0.605  1.1414  0.0032 -1.9797
  993MOL0     H34028  11.123   1.320   0.459  3.2960 -1.9555  0.2754
  993MOL0     H34029  11.053   1.102   0.536 -2.0030 -0.9948 -1.2802
  993MOL0     H34030  10.990   1.159   0.687  1.1380  0.1244  1.0807
  993MOL0     H34031  10.886   1.236   0.406  2.1457  0.4912  0.0273
  993MOL0     H34032  10.814   1.297   0.554  0.6293  1.2899 -1.5760
  993MOL0     H34033  10.801   1.015   0.468  1.5623  1.9092 -1.1175
  993MOL0     H34034  10.763   1.064   0.636 -1.5884  0.1902  0.4207
  993MOL0     H34035  10.966   2.023   0.689 -0.4866  1.4471  0.4307
  993MOL0     H34036  10.727   2.095   0.694 -0.4805 -0.5141 -0.2970
  993MOL0     H34037  10.382   2.108   0.652 -0.3421  0.1010  1.9109
  993MOL0     H34038  10.174   2.205   0.567 -1.3373 -0.0680  0.6362
  993MOL0     H34039   7.899   1.953   0.595  2.1745  1.3842 -1.4981
  993MOL0     H34040   7.723   1.787   0.667  0.0574  1.0203 -0.8459
  993MOL0     H34041   7.366   1.536   0.513  1.3928 -1.7715 -2.1387
  993MOL0     H34042   7.162   1.449   0.624 -1.1583 -1.5159  1.2402
  993MOL0     H34043   7.121   1.186   0.971 -2.6040  0.0444  0.1855
  993MOL0     H34044   7.219   1.102   0.836 -0.0790  1.0361  0.1324
  993MOL0     H34045   7.044   1.038   0.724  1.4202 -0.8911  1.3703
  993MOL0     H34046   6.929   1.159   0.812  1.5850  1.9063 -2.5333
  993MOL0     H34047   6.945   1.014   1.002 -1.8199  2.7557 -1.3334
  993MOL0     H34048   7.077   0.931   0.937 -0.3220  1.8042 -0.0249
  993MOL0     H34049   6.914   0.812   0.766 -1.9889  0.5313 -1.2600
  993MOL0     H34050   6.859   0.796   0.928 -0.9073  0.1231 -0.0559
  993MOL0     H34051   6.552   1.012   0.761  0.3852  1.3831 -0.7206
  993MOL0     H34052   7.407   1.223   0.883 -3.1694 -0.7534 -0.6386
  993MOL0     H34053   7.686   1.418   0.855 -0.2987  0.0249  1.2562
  993MOL0     H34054   7.632   1.251   0.902  2.4361 -0.3690  1.3518
  993MOL0     H34055   7.721   1.283   0.748  0.4664 -0.4905  0.7750
  994MOL0     O34056  10.263   1.221   6.684 -0.4692  0.0316 -1.1774
  994MOL0     C34057  10.232   1.315   6.612  0.1482 -0.2842 -0.1504
  994MOL0     O34058  10.320   1.380   6.528  0.3650  0.4177  0.0196
  994MOL0     C34059  10.450   1.343   6.527 -0.0592  0.1843 -0.0295
  994MOL0     C34060  10.505   1.271   6.421  0.0745 -0.3487  0.3840
  994MOL0     C34061  10.640   1.244   6.401  0.1976  0.6971  0.5334
  994MOL0     C34062  10.728   1.281   6.497  0.5285  0.2540 -0.3931
  994MOL0     O34063  10.867   1.259   6.489  0.1602 -0.5609 -0.2474
  994MOL0     C34064  10.936   1.250   6.368 -0.6645 -0.8820  0.3145
  994MOL0     C34065  10.950   1.105   6.335 -0.5157 -0.1332 -1.2230
  994MOL0     C34066  11.012   1.099   6.197 -0.8516 -0.2169 -0.2731
  994MOL0     C34067  11.032   0.951   6.156  0.5461 -0.1050 -0.3745
  994MOL0     C34068  11.096   0.933   6.015 -0.2859 -0.3599 -0.1912
  994MOL0     C34069  11.235   0.995   6.006  0.4525  0.2449 -0.2765
  994MOL0     C34070  11.345   0.921   6.092 -0.2438 -0.3332  0.0975
  994MOL0     C34071  11.486   0.986   6.070 -0.1274  0.8492 -0.1508
  994MOL0     N34072  11.593   0.919   6.157 -0.2686 -0.1460  0.1247
  994MOL0     C34073  11.577   0.855   6.281  0.2942 -0.0734  0.0224
  994MOL0     C34074  11.699   0.811   6.304 -0.1508  0.2924 -0.2208
  994MOL0     C34075  11.733   0.751   6.434  0.0237  0.7150  0.6611
  994MOL0     C34076  11.767   0.607   6.432 -0.3380 -0.1315  0.1941
  994MOL0     C34077  11.804   0.546   6.567 -0.2233 -0.4470  0.6684
  994MOL0     C34078  11.950   0.571   6.618 -0.0727 -0.1289  0.0051
  994MOL0     O34079  12.047   0.505   6.536  0.8242 -0.1558  0.4715
  994MOL0     C34080  12.179   0.531   6.550  0.1511  0.1634 -1.1056
  994MOL0     C34081  12.231   0.663   6.581  0.5536  0.7424  0.1851
  994MOL0     C34082  12.371   0.681   6.599  0.0345  0.2847  0.4247
  994MOL0     C34083  12.455   0.575   6.565  0.5020  0.7191 -0.0716
  994MOL0     C34084  12.602   0.603   6.566  0.2601 -0.0635 -0.7477
  994MOL0     O34085  12.648   0.731   6.560 -0.2159 -0.8120  0.1071
  994MOL0     C34086  12.767   0.778   6.508  0.6909 -0.2264  0.3952
  994MOL0     C34087  12.858   0.708   6.424  0.3320 -0.2014  0.7385
  994MOL0     C34088  12.981   0.763   6.402  0.2731  0.0255  1.2694
  994MOL0     C34089  13.019   0.895   6.437  0.1134  0.3618  0.0975
  994MOL0     O34090  13.148   0.943   6.416  0.5892  0.2060  0.4246
  994MOL0     C34091  13.186   1.079   6.419  0.6514 -0.0792  0.5074
  994MOL0     C34092  13.331   1.095   6.397 -0.4693  0.6037 -0.0776
  994MOL0     C34093  13.423   1.020   6.500  0.1774 -0.2474  0.2929
  994MOL0     C34094  13.576   1.058   6.489  0.4225  0.3154 -0.5228
  994MOL0     C34095  13.660   0.956   6.569 -0.0204 -0.3347 -0.0738
  994MOL0     C34096  13.804   1.007   6.594 -0.1652  0.6345 -0.0545
  994MOL0     C34097  13.906   0.907   6.548 -0.0427  0.0731 -0.0263
  994MOL0     C34098  13.896   0.776   6.635  0.5829 -0.4646 -0.6145
  994MOL0    Cl34099  14.019   0.786   6.782 -0.4435 -0.1329  0.3881
  994MOL0     C34100  12.923   0.970   6.506 -0.5399  0.2840  0.9755
  994MOL0     C34101  12.797   0.919   6.542  0.2108  0.4393  0.0524
  994MOL0     O34102  12.672   0.508   6.569  0.4665  0.6275 -0.1519
  994MOL0     C34103  12.408   0.447   6.540 -0.4753  0.3976 -0.2952
  994MOL0     C34104  12.269   0.429   6.535  0.4297  0.6385  0.5445
  994MOL0     N34105  11.794   0.846   6.208  0.7312  0.8493 -0.3304
  994MOL0     N34106  11.722   0.901   6.108 -0.2256 -0.1291  0.6833
  994MOL0     C34107  10.674   1.346   6.612  0.5185  0.1181  0.1743
  994MOL0     C34108  10.540   1.381   6.628 -0.3810 -0.8157 -0.1261
  994MOL0     C34109  10.088   1.366   6.615 -0.3613  0.2593  0.3921
  994MOL0     C34110  10.047   1.445   6.509  0.3982 -1.1427 -0.3500
  994MOL0     C34111   9.914   1.498   6.499 -0.7524 -0.8795 -0.3022
  994MOL0     C34112   9.817   1.461   6.593  0.7881 -0.2527 -0.2609
  994MOL0     O34113   9.681   1.489   6.593 -0.8997 -0.8344  0.2413
  994MOL0     C34114   9.649   1.588   6.500  0.3010  0.5038 -0.0330
  994MOL0     C34115   9.516   1.656   6.537 -0.3948 -0.0585 -0.2189
  994MOL0     C34116   9.395   1.564   6.504 -0.2608 -0.0657 -0.0784
  994MOL0     C34117   9.273   1.609   6.576 -0.4502  0.1210  0.5915
  994MOL0     C34118   9.213   1.724   6.509 -0.0332 -0.2369 -0.5844
  994MOL0     C34119   9.151   1.819   6.456 -0.2748  0.1753 -0.6199
  994MOL0     C34120   9.854   1.366   6.688  0.0264  0.6028  0.2859
  994MOL0     C34121   9.991   1.322   6.702  0.4161  0.4400 -0.7614
  994MOL0     C34122  10.011   1.227   6.819  1.0727 -0.7407  0.3094
  994MOL0     H34123  10.429   1.222   6.361  0.7584  0.4687 -1.2273
  994MOL0     H34124  10.664   1.181   6.317  0.8961  0.2782  1.0416
  994MOL0     H34125  10.873   1.307   6.298  1.0718  0.9167  0.1253
  994MOL0     H34126  11.035   1.294   6.377 -0.5932  0.0128 -3.3245
  994MOL0     H34127  10.853   1.054   6.334 -0.5046 -0.1781 -0.4906
  994MOL0     H34128  11.010   1.060   6.414 -0.6881  0.6244 -0.6495
  994MOL0     H34129  11.106   1.155   6.195 -1.1152  0.2491 -2.5322
  994MOL0     H34130  10.944   1.151   6.128 -1.1939 -0.8902 -0.4506
  994MOL0     H34131  11.094   0.902   6.233  0.9539  1.9886  0.6953
  994MOL0     H34132  10.932   0.907   6.150  0.7839 -0.4421 -3.2126
  994MOL0     H34133  11.114   0.825   6.012  2.8053  0.0340  1.0584
  994MOL0     H34134  11.032   0.971   5.935 -0.2870 -1.5283 -0.7702
  994MOL0     H34135  11.268   0.973   5.904  0.5221 -2.3635  0.2420
  994MOL0     H34136  11.244   1.101   6.031  2.3474  0.3103 -1.0603
  994MOL0     H34137  11.363   0.820   6.054 -1.9411 -0.3046 -0.8665
  994MOL0     H34138  11.321   0.912   6.198 -2.2552 -0.3654 -0.3199
  994MOL0     H34139  11.518   0.974   5.966 -2.6240 -0.7862 -0.8217
  994MOL0     H34140  11.486   1.091   6.098  0.7166  1.4934 -2.3728
  994MOL0     H34141  11.500   0.863   6.357  2.7413  2.1143  2.5027
  994MOL0     H34142  11.824   0.799   6.470  0.4027  2.3814 -2.2789
  994MOL0     H34143  11.653   0.764   6.509 -0.4505 -2.6895  0.9440
  994MOL0     H34144  11.680   0.558   6.388  1.8678 -4.1816 -0.1046
  994MOL0     H34145  11.852   0.591   6.366  0.8651  3.9528  0.4485
  994MOL0     H34146  11.779   0.440   6.570  0.0607 -0.4983  1.3691
  994MOL0     H34147  11.734   0.589   6.640 -2.3351  2.1386 -2.5588
  994MOL0     H34148  11.968   0.552   6.724 -1.0010 -0.8352  0.0548
  994MOL0     H34149  11.964   0.679   6.608 -1.6475 -0.0512 -2.0386
  994MOL0     H34150  12.163   0.747   6.591  2.2774  2.0322  1.8881
  994MOL0     H34151  12.401   0.780   6.632 -0.1273  0.5185 -0.1163
  994MOL0     H34152  12.822   0.614   6.383  1.2146 -0.3849  0.3458
  994MOL0     H34153  13.066   0.718   6.350  0.0547  1.2377 -0.2300
  994MOL0     H34154  13.119   1.132   6.350 -0.6462 -1.8465  0.3567
  994MOL0     H34155  13.167   1.120   6.519  1.0306 -0.0013  0.5479
  994MOL0     H34156  13.346   1.057   6.296  0.9464  2.8932 -0.7937
  994MOL0     H34157  13.364   1.199   6.404 -0.2542  0.4513  1.9267
  994MOL0     H34158  13.388   1.038   6.602 -0.6807 -0.2687  0.0112
  994MOL0     H34159  13.398   0.916   6.477 -1.2321  0.1919 -0.2275
  994MOL0     H34160  13.594   1.159   6.528  1.4113 -1.2023  3.4506
  994MOL0     H34161  13.609   1.062   6.385  1.4105  1.3660 -0.1940
  994MOL0     H34162  13.659   0.859   6.519  2.9105 -0.3305 -0.2777
  994MOL0     H34163  13.607   0.940   6.663 -2.1586  3.0083 -0.5126
  994MOL0     H34164  13.814   1.105   6.547  0.1176  1.5862  1.9232
  994MOL0     H34165  13.813   1.018   6.702 -1.1208 -0.1400  0.1209
  994MOL0     H34166  14.002   0.959   6.546 -1.5378  3.2096  1.7776
  994MOL0     H34167  13.873   0.882   6.447 -2.0195  3.0729 -0.2536
  994MOL0     H34168  13.793   0.767   6.668  0.1828 -2.1716 -2.1900
  994MOL0     H34169  13.918   0.690   6.572  1.1400  0.0611 -1.1592
  994MOL0     H34170  12.952   1.063   6.554 -1.1758  0.2850  1.3695
  994MOL0     H34171  12.732   0.978   6.606 -1.5160 -0.9639 -0.3265
  994MOL0     H34172  12.472   0.360   6.536  1.1555  1.4438  1.4130
  994MOL0     H34173  12.228   0.333   6.504  0.6826  0.9041 -0.6872
  994MOL0     H34174  10.744   1.377   6.689 -0.8774  0.3874  1.3608
  994MOL0     H34175  10.501   1.439   6.711  0.5300 -2.1577  1.2893
  994MOL0     H34176  10.121   1.467   6.432 -0.8591 -1.0376 -1.5492
  994MOL0     H34177   9.906   1.573   6.421  0.3679 -0.2427  0.1691
  994MOL0     H34178   9.646   1.551   6.397 -2.8641 -0.8118  0.4087
  994MOL0     H34179   9.728   1.663   6.504 -0.0225  0.8769 -0.5608
  994MOL0     H34180   9.502   1.747   6.479 -1.5293  0.1310  0.3317
  994MOL0     H34181   9.507   1.684   6.642  2.9195  0.5052  0.0129
  994MOL0     H34182   9.415   1.458   6.526 -3.9746 -0.8386  0.3526
  994MOL0     H34183   9.375   1.571   6.397 -0.5226  3.9654  0.0839
  994MOL0     H34184   9.202   1.527   6.566  0.4238 -0.5632 -0.1232
  994MOL0     H34185   9.297   1.636   6.679  0.3128  0.4601  0.3274
  994MOL0     H34186   9.087   1.901   6.429 -0.7518  0.2964  0.7941
  994MOL0     H34187   9.781   1.315   6.750  2.7144 -0.8617  2.4745
  994MOL0     H34188   9.915   1.217   6.872  1.3515 -0.5429  0.8587
  994MOL0     H34189  10.035   1.123   6.793 -2.3849 -1.5666 -0.1854
  994MOL0     H34190  10.080   1.267   6.893 -1.3098  3.1234  0.7023
  995MOL0     O34191   3.594   5.895   9.982  0.0935  0.6004 -0.1968
  995MOL0     C34192   3.546   5.853  10.092 -0.0351  0.3170 -0.0427
  995MOL0     O34193   3.611   5.860  10.216 -0.1723  0.1458  0.3854
  995MOL0     C34194   3.729   5.926  10.227 -0.1887  1.1528 -0.2166
  995MOL0     C34195   3.731   6.069  10.230  0.0008  0.8964  0.1509
  995MOL0     C34196   3.850   6.134  10.239  0.4532 -0.4867 -0.2389
  995MOL0     C34197   3.973   6.071  10.256 -0.3210  0.4911  0.7749
  995MOL0     O34198   4.079   6.164  10.257 -0.1070 -0.4926 -0.4197
  995MOL0     C34199   4.209   6.110  10.258  0.2721  0.7135 -0.2896
  995MOL0     C34200   4.309   6.224  10.275  0.0384 -0.4192 -0.2834
  995MOL0     C34201   4.284   6.315  10.402 -0.4093 -0.5707  0.0918
  995MOL0     C34202   4.398   6.423  10.427 -0.5210 -0.0149 -0.4732
  995MOL0     C34203   4.479   6.377  10.546 -0.9191 -0.7875 -1.1963
  995MOL0     C34204   4.569   6.502  10.585  0.2742 -1.0362 -0.0861
  995MOL0     C34205   4.685   6.476  10.683  1.4014 -0.1155 -0.1550
  995MOL0     C34206   4.787   6.372  10.642  0.0867  0.2375  0.6184
  995MOL0     N34207   4.915   6.384  10.717 -0.5399  0.8225 -0.0227
  995MOL0     C34208   4.921   6.390  10.853  0.0407 -0.2433 -0.5894
  995MOL0     C34209   5.049   6.442  10.872 -0.0701 -0.2540  0.2590
  995MOL0     C34210   5.105   6.495  11.000  0.3132 -0.5497 -0.3412
  995MOL0     C34211   5.238   6.443  11.044  0.1122  0.2467 -0.4049
  995MOL0     C34212   5.315   6.539  11.141 -0.7807  0.2126 -0.2879
  995MOL0     C34213   5.371   6.661  11.076 -0.5292 -1.2558  0.9874
  995MOL0     O34214   5.486   6.625  10.990  0.3719  0.2480 -0.4699
  995MOL0     C34215   5.569   6.730  10.951  0.0609 -0.4349  0.2086
  995MOL0     C34216   5.689   6.684  10.892 -0.0781 -0.3097  0.8743
  995MOL0     C34217   5.787   6.776  10.844  0.1564  0.0188  0.1176
  995MOL0     C34218   5.768   6.918  10.839 -0.0485 -0.0101 -0.9158
  995MOL0     C34219   5.863   7.017  10.783  0.6253 -0.6317  0.3646
  995MOL0     O34220   5.993   6.973  10.764  0.0772 -0.0849  0.3733
  995MOL0     C34221   6.057   7.036  10.659  0.0106  0.4580  0.3011
  995MOL0     C34222   6.120   7.153  10.670  0.0736  0.1496 -0.3591
  995MOL0     C34223   6.185   7.209  10.555 -0.4143  0.1507 -0.8852
  995MOL0     C34224   6.187   7.140  10.431  0.2145  0.0212 -0.9616
  995MOL0     O34225   6.252   7.196  10.334 -0.7799 -0.3540  0.8953
  995MOL0     C34226   6.214   7.155  10.196  0.2334 -0.3056 -0.3583
  995MOL0     C34227   6.248   7.256  10.081 -1.1320  0.6190 -0.4033
  995MOL0     C34228   6.403   7.243  10.071 -0.1605 -1.0738  0.0256
  995MOL0     C34229   6.437   7.123   9.981  0.8410  0.5381 -1.1079
  995MOL0     C34230   6.585   7.084  10.003  0.1575 -0.0303 -0.6234
  995MOL0     C34231   6.677   7.178   9.936  0.0235 -0.1347  0.2509
  995MOL0     C34232   6.815   7.139   9.957  0.3159  0.0141 -0.1350
  995MOL0     C34233   6.916   7.239   9.913 -0.3914  0.2156 -0.5436
  995MOL0    Cl34234   7.088   7.177   9.922  0.3774  0.2744 -0.2156
  995MOL0     C34235   6.119   7.023  10.423 -0.8554 -0.1346 -0.0626
  995MOL0     C34236   6.051   6.970  10.540  0.3844 -0.3264  1.0046
  995MOL0     O34237   5.825   7.132  10.773  0.1158 -0.3785 -0.2370
  995MOL0     C34238   5.649   6.961  10.898  1.2229  0.2953  0.2861
  995MOL0     C34239   5.551   6.875  10.945 -0.6431  0.6349  0.4751
  995MOL0     N34240   5.119   6.432  10.757  0.0087  0.4114  1.1674
  995MOL0     N34241   5.038   6.402  10.664  0.0221  0.1256  0.7505
  995MOL0     C34242   3.976   5.931  10.246  0.6554 -0.1969 -0.6059
  995MOL0     C34243   3.846   5.860  10.247  0.1524  1.3326  0.2446
  995MOL0     C34244   3.417   5.781  10.097  0.6831  0.2157  1.0033
  995MOL0     C34245   3.372   5.747  10.224 -0.1688 -1.4172 -0.0865
  995MOL0     C34246   3.256   5.678  10.242  0.2162 -0.3402 -0.0166
  995MOL0     C34247   3.184   5.614  10.134 -0.7179  0.2223 -0.0644
  995MOL0     O34248   3.068   5.536  10.133  0.1876 -0.3759 -0.3361
  995MOL0     C34249   3.000   5.532  10.262 -0.2044  0.7300 -0.2830
  995MOL0     C34250   2.869   5.455  10.232  0.6013 -0.6120  0.4571
  995MOL0     C34251   2.889   5.298  10.225 -0.2370 -0.3237  0.9796
  995MOL0     C34252   2.946   5.250  10.098 -0.6705 -0.6237  0.0776
  995MOL0     C34253   2.962   5.103  10.094  0.4058  0.2403 -0.0217
  995MOL0     C34254   2.989   4.985  10.105 -0.1233 -0.8472  0.3428
  995MOL0     C34255   3.230   5.637  10.000 -0.1167 -0.3513 -0.6924
  995MOL0     C34256   3.344   5.718   9.984 -0.6725 -0.5674  0.8170
  995MOL0     C34257   3.374   5.743   9.832  0.0713  0.6358  0.0793
  995MOL0     H34258   3.635   6.117  10.212  0.4287  1.9613  0.6850
  995MOL0     H34259   3.856   6.243  10.245 -0.8719 -0.4696  3.3562
  995MOL0     H34260   4.216   6.031  10.333 -1.5016  0.1642 -0.6547
  995MOL0     H34261   4.223   6.061  10.162 -0.2510 -1.7126  0.8071
  995MOL0     H34262   4.295   6.289  10.188 -1.8413  2.6748  2.1195
  995MOL0     H34263   4.416   6.199  10.282  0.7663  2.4894  0.4301
  995MOL0     H34264   4.258   6.255  10.489 -0.2192  1.8052  1.8548
  995MOL0     H34265   4.198   6.372  10.365 -0.3100  1.5919  2.8964
  995MOL0     H34266   4.457   6.440  10.337 -0.0954 -3.0168 -0.8519
  995MOL0     H34267   4.346   6.515  10.457  1.3399  0.2322  2.4516
  995MOL0     H34268   4.418   6.357  10.634 -0.6966  1.1857 -0.5450
  995MOL0     H34269   4.529   6.285  10.513  1.0422 -1.0726  2.1611
  995MOL0     H34270   4.616   6.544  10.496 -2.1085 -0.0030 -0.9285
  995MOL0     H34271   4.512   6.582  10.632 -0.6313 -1.2586 -0.7857
  995MOL0     H34272   4.637   6.436  10.773  0.4224 -2.0137 -1.4608
  995MOL0     H34273   4.731   6.573  10.701 -2.4866  1.9752 -0.3489
  995MOL0     H34274   4.741   6.275  10.662 -1.3401  0.1143 -2.6691
  995MOL0     H34275   4.812   6.388  10.537 -2.0054 -0.6903 -0.0660
  995MOL0     H34276   4.849   6.383  10.934  0.3480 -0.8876 -0.3610
  995MOL0     H34277   5.107   6.601  10.973  0.4124 -1.0312 -2.4396
  995MOL0     H34278   5.028   6.488  11.077  1.2756 -0.5552  0.6324
  995MOL0     H34279   5.219   6.351  11.100  0.7765  1.0569  1.2019
  995MOL0     H34280   5.303   6.422  10.959  1.1015 -1.9347  0.8154
  995MOL0     H34281   5.399   6.485  11.188 -2.4474 -1.2871  1.1425
  995MOL0     H34282   5.246   6.563  11.222 -3.3435  1.9585 -2.8025
  995MOL0     H34283   5.396   6.734  11.153 -0.7904  0.2849 -0.3128
  995MOL0     H34284   5.285   6.707  11.026 -2.9246 -2.0961  4.0363
  995MOL0     H34285   5.704   6.577  10.887  0.8172 -0.1339 -1.2979
  995MOL0     H34286   5.876   6.745  10.790  0.3212  1.0970 -0.2486
  995MOL0     H34287   6.124   7.208  10.764  1.3868 -0.4407 -0.0417
  995MOL0     H34288   6.246   7.299  10.554 -1.1272  0.6586 -2.3538
  995MOL0     H34289   6.271   7.063  10.181  1.4889  0.4354 -0.2130
  995MOL0     H34290   6.105   7.143  10.187 -0.2154  3.2728 -1.2792
  995MOL0     H34291   6.212   7.227   9.982  0.7494 -2.6142 -0.2822
  995MOL0     H34292   6.203   7.350  10.112 -2.1959  0.2915 -0.9152
  995MOL0     H34293   6.434   7.332  10.017 -2.1302 -0.9538 -1.0006
  995MOL0     H34294   6.446   7.235  10.172 -0.8423 -5.4184  0.1695
  995MOL0     H34295   6.422   7.149   9.876 -0.3738 -1.1397 -1.3984
  995MOL0     H34296   6.368   7.041  10.001 -0.1386  1.5690 -0.1153
  995MOL0     H34297   6.589   6.981   9.967 -0.3416 -0.6220  0.9033
  995MOL0     H34298   6.611   7.080  10.110 -0.4274 -0.5073 -0.4942
  995MOL0     H34299   6.654   7.174   9.829  0.6751 -1.8944  0.1424
  995MOL0     H34300   6.670   7.279   9.978  1.3402 -1.2103  3.3598
  995MOL0     H34301   6.832   7.050   9.896 -0.8954 -0.8409  0.7295
  995MOL0     H34302   6.834   7.117  10.063 -0.4410  0.2155  0.0470
  995MOL0     H34303   6.895   7.257   9.808  0.6345 -2.3274 -1.2635
  995MOL0     H34304   6.910   7.337   9.962  0.5688  1.1347 -2.1658
  995MOL0     H34305   6.108   6.965  10.332 -0.1534  1.8115 -1.4515
  995MOL0     H34306   5.992   6.879  10.530 -0.6861  0.5242 -1.1722
  995MOL0     H34307   5.623   7.066  10.906  1.6292  0.3151  1.6365
  995MOL0     H34308   5.462   6.920  10.987 -0.2102  1.6615  0.3008
  995MOL0     H34309   4.072   5.881  10.250 -0.1255 -1.6518  0.9192
  995MOL0     H34310   3.839   5.752  10.246 -1.0492  1.4049  0.1172
  995MOL0     H34311   3.416   5.781  10.318  0.3347 -1.7843 -0.1819
  995MOL0     H34312   3.223   5.658  10.343  0.8226  0.9220  0.4522
  995MOL0     H34313   2.973   5.632  10.298 -2.2485 -0.2410  1.0134
  995MOL0     H34314   3.066   5.482  10.333 -1.1855  1.2318  1.0358
  995MOL0     H34315   2.812   5.483  10.143 -1.1792 -1.3559  1.3004
  995MOL0     H34316   2.798   5.471  10.314  1.3522 -2.0813  1.4402
  995MOL0     H34317   2.790   5.252  10.233 -0.0094 -1.0718 -0.3143
  995MOL0     H34318   2.957   5.268  10.305  2.5912  3.1020  0.1146
  995MOL0     H34319   2.887   5.294  10.016 -2.3784  1.1590  2.1402
  995MOL0     H34320   3.050   5.283  10.092  0.0606 -2.5162  1.3754
  995MOL0     H34321   3.024   4.884  10.115 -2.8854 -1.8598  0.8046
  995MOL0     H34322   3.170   5.600   9.918  0.9910 -1.6594 -0.9604
  995MOL0     H34323   3.447   5.816   9.797 -0.5236  1.3928  0.4172
  995MOL0     H34324   3.397   5.646   9.786 -0.7066  0.7167 -0.5089
  995MOL0     H34325   3.284   5.773   9.777  0.4982 -0.0471 -1.0348
  996MOL0     O34326   1.416   6.735   9.847  0.6312  0.5715  0.4859
  996MOL0     C34327   1.415   6.809   9.748 -0.7129 -0.2638 -0.3057
  996MOL0     O34328   1.524   6.887   9.710 -0.0139  0.5322  0.8526
  996MOL0     C34329   1.635   6.871   9.781 -0.6528  0.7476 -0.6226
  996MOL0     C34330   1.742   6.787   9.745  0.2137 -0.9600 -0.1631
  996MOL0     C34331   1.848   6.764   9.830 -0.3792 -0.4559  0.3046
  996MOL0     C34332   1.856   6.826   9.953 -0.9242 -0.6543  0.2002
  996MOL0     O34333   1.946   6.796  10.046  0.3758 -0.0120  0.2711
  996MOL0     C34334   2.081   6.817  10.018  0.5028  0.2908 -0.3460
  996MOL0     C34335   2.154   6.685   9.997 -0.3009 -0.2083 -0.0722
  996MOL0     C34336   2.300   6.677  10.046  0.6078 -1.1260  0.8320
  996MOL0     C34337   2.380   6.773   9.951 -0.4981 -0.1006  0.3196
  996MOL0     C34338   2.529   6.799   9.989 -0.2375 -0.5557  0.3952
  996MOL0     C34339   2.537   6.879  10.115 -0.1670 -0.0088  0.0294
  996MOL0     C34340   2.685   6.911  10.136 -0.5201 -0.4073  1.1814
  996MOL0     C34341   2.706   7.002  10.255 -0.0973 -0.1226 -0.3114
  996MOL0     N34342   2.850   7.034  10.269  0.1045 -0.1974 -0.0567
  996MOL0     C34343   2.945   6.963  10.338  0.0080  0.1291 -0.3781
  996MOL0     C34344   3.051   7.037  10.343 -0.0126 -0.1098  0.2121
  996MOL0     C34345   3.167   7.008  10.426  0.1402  0.9649  0.1619
  996MOL0     C34346   3.284   7.103  10.406  0.2812 -0.2394  0.1312
  996MOL0     C34347   3.398   7.071  10.491 -1.0726  0.3660 -0.1948
  996MOL0     C34348   3.523   7.155  10.477 -0.1978  0.1139  0.2616
  996MOL0     O34349   3.638   7.105  10.550  0.7222  0.3073  0.5349
  996MOL0     C34350   3.726   7.199  10.595 -0.5626  0.0017 -0.3922
  996MOL0     C34351   3.774   7.183  10.726  0.4951 -0.6757  0.7518
  996MOL0     C34352   3.848   7.282  10.792 -0.7508 -0.5159  0.3411
  996MOL0     C34353   3.904   7.387  10.717 -0.2645  0.6725 -0.0500
  996MOL0     C34354   3.994   7.477  10.785 -0.1947 -0.1437  0.5697
  996MOL0     O34355   3.983   7.502  10.913 -0.0249  0.1054  0.0280
  996MOL0     C34356   4.061   7.597  10.972  0.3020 -0.8368  0.1494
  996MOL0     C34357   4.137   7.558  11.070 -0.8046  0.2766  0.8620
  996MOL0     C34358   4.201   7.655  11.153 -0.2388 -0.1134  0.9026
  996MOL0     C34359   4.173   7.794  11.130 -0.3641 -0.4269 -0.0486
  996MOL0     O34360   4.225   7.876  11.222 -0.3420  0.6378  0.2439
  996MOL0     C34361   4.325   7.967  11.179  0.5572 -0.3516  0.5362
  996MOL0     C34362   4.458   7.903  11.205 -0.2883  0.1821  0.0208
  996MOL0     C34363   4.576   8.006  11.205 -0.1667 -0.7961 -0.2509
  996MOL0     C34364   4.717   7.944  11.228  0.3557  0.2020 -0.3698
  996MOL0     C34365   4.817   8.047  11.173 -1.2579  0.7322  0.8401
  996MOL0     C34366   4.959   7.991  11.183  0.6167 -0.3624 -0.4013
  996MOL0     C34367   5.079   8.089  11.146  0.2727 -0.0367  0.1796
  996MOL0     C34368   5.209   8.020  11.167  0.1561  0.3310 -0.9961
  996MOL0    Cl34369   5.342   8.131  11.141  0.1136 -0.1380 -0.0053
  996MOL0     C34370   4.100   7.838  11.021 -0.6291  0.3915  0.8576
  996MOL0     C34371   4.037   7.742  10.944 -0.3462 -0.5371 -0.2957
  996MOL0     O34372   4.074   7.530  10.710  0.4252 -0.0143  0.2053
  996MOL0     C34373   3.847   7.409  10.591  0.7115 -0.3464  0.6390
  996MOL0     C34374   3.761   7.317  10.527  0.4565 -0.0663 -0.2418
  996MOL0     N34375   3.031   7.143  10.258 -0.0564 -0.6493 -0.0773
  996MOL0     N34376   2.914   7.146  10.221  0.7760 -0.4744  0.4705
  996MOL0     C34377   1.744   6.908   9.992  0.3355  0.3748 -0.4247
  996MOL0     C34378   1.646   6.940   9.903 -0.0805 -0.0355  0.0553
  996MOL0     C34379   1.289   6.830   9.669  0.2640  0.1718  0.1999
  996MOL0     C34380   1.269   6.959   9.614 -0.7782  0.1324 -0.1040
  996MOL0     C34381   1.162   6.992   9.534 -0.5534 -0.9768  0.2122
  996MOL0     C34382   1.063   6.903   9.516  0.1571  0.0101  0.4493
  996MOL0     O34383   0.950   6.955   9.454 -0.0492 -0.3492  0.3562
  996MOL0     C34384   0.858   6.855   9.412 -0.3915  1.1106  0.0056
  996MOL0     C34385   0.741   6.913   9.335  0.9199  0.2036  0.3891
  996MOL0     C34386   0.667   7.013   9.427 -0.4018  0.6302  0.3466
  996MOL0     C34387   0.560   7.073   9.337 -0.2046 -0.0082  0.3458
  996MOL0     C34388   0.495   7.181   9.415 -0.0943  0.4580 -0.0089
  996MOL0     C34389   0.432   7.272   9.465  0.9243 -0.1804  0.0846
  996MOL0     C34390   1.084   6.769   9.559 -0.4582  0.3145 -0.6219
  996MOL0     C34391   1.199   6.730   9.629 -0.5173 -0.0745 -0.5059
  996MOL0     C34392   1.221   6.579   9.648  0.5238 -0.1991 -0.5344
  996MOL0     H34393   1.725   6.738   9.649  0.2452  0.2638 -0.8215
  996MOL0     H34394   1.918   6.688   9.798 -2.2853 -1.8548 -0.7684
  996MOL0     H34395   2.096   6.896   9.945 -2.3566  1.8179  0.5639
  996MOL0     H34396   2.130   6.871  10.100 -0.0183  0.1250  0.0835
  996MOL0     H34397   2.148   6.666   9.890  0.0045 -3.2374  0.3563
  996MOL0     H34398   2.107   6.609  10.060  0.2427  0.0347  0.6413
  996MOL0     H34399   2.323   6.571  10.038 -2.2737 -1.7165 -1.6691
  996MOL0     H34400   2.297   6.716  10.148  2.8776  2.0146 -0.1289
  996MOL0     H34401   2.391   6.718   9.856 -1.6215  1.0218 -0.4934
  996MOL0     H34402   2.332   6.868   9.928  0.6451  0.6859  1.0473
  996MOL0     H34403   2.592   6.709   9.992  0.5247 -0.1549 -1.7895
  996MOL0     H34404   2.567   6.863   9.910 -1.6632  0.0926  0.2080
  996MOL0     H34405   2.481   6.972  10.100  0.3081  0.2868  0.0626
  996MOL0     H34406   2.506   6.821  10.202  0.7448  1.8187  1.6611
  996MOL0     H34407   2.725   6.964  10.049 -1.5810 -1.5599 -0.0405
  996MOL0     H34408   2.749   6.823  10.147  0.0820 -0.1391 -0.0497
  996MOL0     H34409   2.661   7.101  10.240 -2.1759 -0.4816  2.5281
  996MOL0     H34410   2.664   6.963  10.349 -1.0051  3.7242  1.1148
  996MOL0     H34411   2.933   6.866  10.384  1.7550 -1.0176 -2.1407
  996MOL0     H34412   3.134   6.997  10.529 -3.2968  1.1463 -0.8014
  996MOL0     H34413   3.195   6.913  10.380 -0.4841  0.6506  0.4230
  996MOL0     H34414   3.320   7.108  10.303  0.1083  0.3343  0.0979
  996MOL0     H34415   3.251   7.205  10.427 -1.8140 -0.6538 -0.9003
  996MOL0     H34416   3.427   6.972  10.454  1.4640  1.1509 -0.4945
  996MOL0     H34417   3.381   7.064  10.598  0.6664  3.9618  0.4689
  996MOL0     H34418   3.494   7.256  10.505 -0.5522 -0.5661  2.5880
  996MOL0     H34419   3.557   7.153  10.373  0.0164  3.3050  0.1768
  996MOL0     H34420   3.763   7.087  10.777 -0.5640  0.2060  2.2512
  996MOL0     H34421   3.865   7.257  10.897 -2.6863 -0.0013  0.8288
  996MOL0     H34422   4.155   7.453  11.088  2.0265  0.7020  0.9687
  996MOL0     H34423   4.272   7.615  11.225  1.6709  0.5675 -0.5449
  996MOL0     H34424   4.318   7.998  11.074  2.4531  2.0798  1.0276
  996MOL0     H34425   4.314   8.060  11.237 -0.0205 -1.9024  3.0807
  996MOL0     H34426   4.458   7.852  11.301 -2.2132 -0.7603 -0.4340
  996MOL0     H34427   4.476   7.828  11.127 -1.3766 -0.2235  0.1470
  996MOL0     H34428   4.569   8.062  11.111 -2.2576  1.0720  0.9035
  996MOL0     H34429   4.544   8.083  11.277  0.1656  0.4255 -1.3553
  996MOL0     H34430   4.723   7.847  11.179  1.7371  0.3146 -0.4450
  996MOL0     H34431   4.736   7.925  11.334 -0.7994  1.6863  0.1369
  996MOL0     H34432   4.802   8.143  11.223 -0.2785 -0.5104  3.7231
  996MOL0     H34433   4.803   8.057  11.065  0.6492 -0.7156  0.4272
  996MOL0     H34434   4.967   7.953  11.286  1.6765  1.1564  0.1177
  996MOL0     H34435   4.963   7.907  11.113  0.5000 -1.0619  0.4108
  996MOL0     H34436   5.074   8.180  11.206  1.4779 -0.0299  0.2928
  996MOL0     H34437   5.069   8.119  11.041  0.3662 -2.0823 -0.4656
  996MOL0     H34438   5.201   7.983  11.270  0.4271  2.8082 -0.0153
  996MOL0     H34439   5.216   7.938  11.094 -0.7153  0.2180 -0.9637
  996MOL0     H34440   4.077   7.941  10.996  2.3356  0.3893 -2.8643
  996MOL0     H34441   3.959   7.774  10.876 -0.0507  1.0872  0.0935
  996MOL0     H34442   3.877   7.496  10.533  0.6949 -0.8428 -0.1216
  996MOL0     H34443   3.723   7.334  10.427  2.8475  1.2242 -0.9953
  996MOL0     H34444   1.754   6.946  10.094  0.7114  2.7520 -1.2889
  996MOL0     H34445   1.567   7.012   9.924  2.1713  2.1057  1.6685
  996MOL0     H34446   1.340   7.040   9.625 -0.3473  0.8853 -5.4665
  996MOL0     H34447   1.144   7.096   9.506  2.8191 -0.7762 -1.7286
  996MOL0     H34448   0.829   6.803   9.503  2.1873 -1.9667 -0.7403
  996MOL0     H34449   0.888   6.775   9.344 -2.6243 -0.7130  1.0650
  996MOL0     H34450   0.669   6.833   9.318  1.3366 -0.2551  0.7385
  996MOL0     H34451   0.774   6.956   9.240 -1.0371 -0.7028 -0.7383
  996MOL0     H34452   0.732   7.088   9.472  1.9449 -1.5379  0.7481
  996MOL0     H34453   0.616   6.958   9.507 -2.9000  0.2911 -1.3448
  996MOL0     H34454   0.608   7.112   9.246 -1.5171  0.3513 -0.2208
  996MOL0     H34455   0.484   6.999   9.311 -0.0827  0.3253 -1.0788
  996MOL0     H34456   0.367   7.346   9.506 -0.7284 -2.0578  1.0683
  996MOL0     H34457   1.000   6.701   9.554  0.2654 -0.8761  1.7423
  996MOL0     H34458   1.168   6.551   9.739  1.8392 -1.2119 -0.0410
  996MOL0     H34459   1.187   6.529   9.557 -0.3554  1.3681 -1.1066
  996MOL0     H34460   1.326   6.555   9.668  0.6902  1.0987  0.2776
  997MOL0     O34461   1.743   4.440   7.639  0.3300 -0.0184  0.0119
  997MOL0     C34462   1.738   4.527   7.551  0.3607  0.9258 -0.3952
  997MOL0     O34463   1.843   4.602   7.516  0.5292 -0.6032 -0.1462
  997MOL0     C34464   1.972   4.580   7.562  0.5936 -0.0757  0.1755
  997MOL0     C34465   2.057   4.687   7.582 -0.4673  0.2949 -0.2410
  997MOL0     C34466   2.196   4.671   7.611  0.2253 -0.1096  1.8552
  997MOL0     C34467   2.242   4.540   7.623  0.0197  0.6854  0.4116
  997MOL0     O34468   2.376   4.524   7.641  0.1556  0.1998 -0.6105
  997MOL0     C34469   2.419   4.392   7.681  0.0336 -0.7945  0.3736
  997MOL0     C34470   2.568   4.405   7.718  0.3165 -0.4917 -0.2623
  997MOL0     C34471   2.663   4.461   7.613 -0.1532 -0.9164 -0.1932
  997MOL0     C34472   2.684   4.612   7.643  0.3114  0.6763 -0.0967
  997MOL0     C34473   2.752   4.656   7.524  0.2774  0.1867  0.4697
  997MOL0     C34474   2.792   4.806   7.556  0.2269  0.6553 -0.3239
  997MOL0     C34475   2.881   4.869   7.442 -0.3132  0.7568  0.5111
  997MOL0     C34476   2.918   5.016   7.465 -0.2259 -0.7496 -0.8466
  997MOL0     N34477   3.001   5.030   7.590  0.7481  0.1329  0.7419
  997MOL0     C34478   3.137   5.014   7.602  0.4230 -0.5515 -0.5363
  997MOL0     C34479   3.157   5.016   7.730  0.2000  0.7903 -0.8739
  997MOL0     C34480   3.289   4.976   7.780 -0.6592  0.4297  0.2567
  997MOL0     C34481   3.281   4.896   7.903  0.1625  1.0469 -0.1357
  997MOL0     C34482   3.412   4.830   7.931 -0.0317  0.6106 -0.3575
  997MOL0     C34483   3.376   4.756   8.065  0.3412  0.5266  0.3487
  997MOL0     O34484   3.479   4.668   8.110 -0.0969 -0.0794  0.1342
  997MOL0     C34485   3.609   4.698   8.119  0.1429 -0.4554  0.7397
  997MOL0     C34486   3.664   4.827   8.132 -0.2977 -0.6311 -0.4841
  997MOL0     C34487   3.804   4.836   8.139  0.1709 -0.5955 -0.1308
  997MOL0     C34488   3.890   4.725   8.148 -1.2444  0.1007 -0.2055
  997MOL0     C34489   4.039   4.743   8.157 -0.0251  0.5121 -0.3473
  997MOL0     O34490   4.112   4.633   8.124  0.4667 -0.6280  0.0439
  997MOL0     C34491   4.245   4.652   8.156  0.1177  0.0187 -0.1448
  997MOL0     C34492   4.340   4.684   8.053 -0.1990 -1.1956  0.3619
  997MOL0     C34493   4.476   4.683   8.091 -0.2473  0.1558  0.5928
  997MOL0     C34494   4.518   4.662   8.223  0.2581  0.2116  0.1088
  997MOL0     O34495   4.651   4.650   8.258 -0.1531  0.6228 -0.1119
  997MOL0     C34496   4.722   4.540   8.196  0.6769  0.3120  0.5811
  997MOL0     C34497   4.863   4.580   8.151 -0.3667  0.5611  0.2137
  997MOL0     C34498   4.961   4.459   8.137  0.5190 -0.5854 -0.5523
  997MOL0     C34499   5.103   4.508   8.152  0.6359  0.1304 -0.4285
  997MOL0     C34500   5.205   4.404   8.143 -0.0149  0.0832 -0.2309
  997MOL0     C34501   5.350   4.455   8.159 -0.5304 -0.3083 -0.4338
  997MOL0     C34502   5.394   4.543   8.042  0.3376  0.2921 -0.4588
  997MOL0     C34503   5.550   4.529   8.041 -0.7821  0.3984  0.6571
  997MOL0    Cl34504   5.615   4.590   8.199  0.2268 -0.0779 -0.4285
  997MOL0     C34505   4.418   4.637   8.319 -0.1551  0.1487  0.4955
  997MOL0     C34506   4.285   4.640   8.295  0.3854 -0.0392 -0.0276
  997MOL0     O34507   4.081   4.853   8.192  0.2833 -0.5755 -0.2108
  997MOL0     C34508   3.825   4.596   8.145  0.3832 -0.4314  0.3950
  997MOL0     C34509   3.690   4.583   8.117 -0.7641  0.3747  0.2802
  997MOL0     N34510   3.050   5.065   7.801  0.4144 -0.5968  0.7779
  997MOL0     N34511   2.958   5.072   7.715 -0.2052 -0.6631 -0.2538
  997MOL0     C34512   2.161   4.429   7.594 -0.0657  0.9784 -0.0940
  997MOL0     C34513   2.031   4.454   7.557  0.5703 -0.0237 -0.2464
  997MOL0     C34514   1.592   4.546   7.498 -0.1733 -0.0486  0.5403
  997MOL0     C34515   1.490   4.458   7.531 -0.0860  0.4302  0.4737
  997MOL0     C34516   1.365   4.466   7.493  0.3306 -0.2822 -0.0698
  997MOL0     C34517   1.325   4.574   7.404 -0.6917  0.2192 -0.1894
  997MOL0     O34518   1.196   4.597   7.355  0.5692 -0.1442 -0.1328
  997MOL0     C34519   1.109   4.486   7.364  0.2670 -0.0638 -0.6922
  997MOL0     C34520   0.976   4.509   7.293  0.6440 -0.5596  0.8490
  997MOL0     C34521   0.864   4.406   7.323 -0.2840 -0.3108  0.2367
  997MOL0     C34522   0.743   4.455   7.244  0.2603 -0.0600 -0.0129
  997MOL0     C34523   0.619   4.377   7.260 -0.4524 -0.2890 -0.4419
  997MOL0     C34524   0.524   4.306   7.279 -0.0190  0.0002  0.3405
  997MOL0     C34525   1.423   4.671   7.375  0.5588  0.3875  1.1369
  997MOL0     C34526   1.556   4.660   7.425 -0.0596 -0.1534  0.2243
  997MOL0     C34527   1.655   4.773   7.399  0.1874 -0.3905 -0.1636
  997MOL0     H34528   2.019   4.786   7.560  1.8999  1.6734  1.3974
  997MOL0     H34529   2.264   4.755   7.620 -0.6530  0.7152  0.9153
  997MOL0     H34530   2.355   4.357   7.762 -1.5086 -0.5939 -0.7157
  997MOL0     H34531   2.409   4.324   7.597 -0.9460 -1.4788  1.0275
  997MOL0     H34532   2.610   4.307   7.740  0.2450 -0.5029 -0.1774
  997MOL0     H34533   2.580   4.459   7.813  0.6986  2.9576 -2.1055
  997MOL0     H34534   2.628   4.446   7.511  1.1507  3.0524 -1.4079
  997MOL0     H34535   2.759   4.409   7.627  0.0341 -0.5332 -0.0289
  997MOL0     H34536   2.593   4.672   7.645  0.0500  0.3147 -0.8766
  997MOL0     H34537   2.737   4.631   7.737 -0.9004 -1.7375  1.1786
  997MOL0     H34538   2.842   4.596   7.508  1.5594  2.1019  0.2851
  997MOL0     H34539   2.681   4.648   7.441  1.3957 -1.9157 -0.3651
  997MOL0     H34540   2.708   4.873   7.574 -0.5389 -0.1348 -0.8887
  997MOL0     H34541   2.856   4.812   7.645  0.6710  2.0902 -0.7065
  997MOL0     H34542   2.829   4.866   7.346 -1.0955  2.9276  0.8018
  997MOL0     H34543   2.970   4.806   7.436 -0.9204 -0.7753  4.7827
  997MOL0     H34544   2.971   5.053   7.378 -0.2184 -0.0519 -0.5474
  997MOL0     H34545   2.827   5.076   7.471  0.0504 -0.4683  2.0395
  997MOL0     H34546   3.213   4.989   7.529  1.1663  2.3463 -0.8629
  997MOL0     H34547   3.338   4.916   7.703 -1.6714 -0.6281  0.4139
  997MOL0     H34548   3.343   5.067   7.810 -1.5827  0.1584  3.0099
  997MOL0     H34549   3.245   4.955   7.988 -1.7623 -1.0464  0.5833
  997MOL0     H34550   3.206   4.819   7.881  1.2432  0.2930 -1.3298
  997MOL0     H34551   3.485   4.908   7.952 -2.6940  3.1976 -0.0579
  997MOL0     H34552   3.439   4.763   7.849 -1.6090 -1.1220  0.4535
  997MOL0     H34553   3.283   4.700   8.052  0.8445 -1.1380  3.0483
  997MOL0     H34554   3.356   4.827   8.146 -1.8284 -0.5549  0.8499
  997MOL0     H34555   3.611   4.922   8.137  0.4757 -0.1268 -1.5282
  997MOL0     H34556   3.849   4.935   8.146  0.4781 -0.8682  2.6818
  997MOL0     H34557   4.302   4.695   7.952  0.9780  0.5572  0.0655
  997MOL0     H34558   4.554   4.701   8.018 -1.4603  0.0910 -0.7701
  997MOL0     H34559   4.734   4.456   8.266  2.0117 -0.9516 -1.0688
  997MOL0     H34560   4.671   4.501   8.107  2.1536  1.6878 -0.9379
  997MOL0     H34561   4.858   4.642   8.062  2.8357 -0.9938 -1.2192
  997MOL0     H34562   4.899   4.657   8.220 -1.4887  3.8667 -2.6053
  997MOL0     H34563   4.943   4.384   8.214 -0.5677  2.2251  2.1229
  997MOL0     H34564   4.930   4.413   8.042 -3.7203 -2.1450  1.3159
  997MOL0     H34565   5.112   4.557   8.250  0.9124  0.5171 -0.6467
  997MOL0     H34566   5.110   4.581   8.071 -2.3707  0.6020 -0.3829
  997MOL0     H34567   5.193   4.337   8.057  0.5729  0.0395 -0.2841
  997MOL0     H34568   5.171   4.353   8.234 -2.2021  1.3864 -0.2468
  997MOL0     H34569   5.370   4.508   8.252  2.6518 -2.0169  0.0325
  997MOL0     H34570   5.420   4.371   8.169 -0.4626 -0.2857 -0.6972
  997MOL0     H34571   5.369   4.648   8.058 -1.8669 -0.4003  1.1893
  997MOL0     H34572   5.356   4.510   7.944  1.2247 -0.7145 -0.4802
  997MOL0     H34573   5.597   4.432   8.021  0.2645  1.5104 -3.0350
  997MOL0     H34574   5.588   4.594   7.963 -0.8842 -0.1215  0.1677
  997MOL0     H34575   4.441   4.598   8.418  1.7544 -0.4540 -0.1309
  997MOL0     H34576   4.213   4.612   8.371 -0.6569  0.2229 -0.9029
  997MOL0     H34577   3.888   4.508   8.139 -0.5023 -1.1445  1.1741
  997MOL0     H34578   3.645   4.485   8.109 -0.3132  0.2789 -1.5638
  997MOL0     H34579   2.189   4.325   7.580 -3.6797  0.3074 -5.9859
  997MOL0     H34580   1.978   4.364   7.530 -0.0432  0.4063 -0.5008
  997MOL0     H34581   1.513   4.369   7.590 -1.7388 -0.0385  0.4739
  997MOL0     H34582   1.287   4.404   7.538  0.6993  0.2265  1.3383
  997MOL0     H34583   1.091   4.476   7.472  0.6100 -2.2947 -0.7974
  997MOL0     H34584   1.161   4.398   7.327 -1.2706 -0.6804 -1.4841
  997MOL0     H34585   1.000   4.488   7.188  0.4651 -0.2783  0.7496
  997MOL0     H34586   0.938   4.609   7.317 -2.0865 -1.3752  0.2531
  997MOL0     H34587   0.849   4.398   7.431  1.4241  1.2464  0.6518
  997MOL0     H34588   0.890   4.305   7.289 -0.0161  0.0026 -0.5360
  997MOL0     H34589   0.718   4.558   7.273 -3.2876 -0.1347 -2.2580
  997MOL0     H34590   0.764   4.447   7.137 -1.8951  0.5301 -0.5259
  997MOL0     H34591   0.447   4.234   7.294  0.9274 -0.9581  0.7664
  997MOL0     H34592   1.393   4.758   7.318  1.4761  2.2310  3.2908
  997MOL0     H34593   1.728   4.737   7.326  1.8935 -1.0241  1.7661
  997MOL0     H34594   1.601   4.859   7.359 -1.1316 -0.1506  1.9932
  997MOL0     H34595   1.702   4.821   7.485  1.6729 -0.9208 -0.6423
  998MOL0     O34596   6.646   9.337   8.034 -0.2723  0.0907 -0.2227
  998MOL0     C34597   6.637   9.395   7.928  0.2367  0.0459 -1.0179
  998MOL0     O34598   6.734   9.452   7.853  0.7938 -0.9279 -0.6880
  998MOL0     C34599   6.862   9.450   7.903 -0.0890 -0.0099  0.1618
  998MOL0     C34600   6.919   9.577   7.914 -0.1430  0.5226 -0.2373
  998MOL0     C34601   7.058   9.580   7.941  0.5721 -1.0329 -0.2934
  998MOL0     C34602   7.124   9.464   7.980  1.0544  0.0326  0.0505
  998MOL0     O34603   7.252   9.461   8.018 -0.1710 -0.4156 -0.3686
  998MOL0     C34604   7.356   9.469   7.918 -0.2928 -0.1405  0.4266
  998MOL0     C34605   7.493   9.516   7.970 -0.4741 -0.6080 -0.1129
  998MOL0     C34606   7.541   9.416   8.069 -0.6843  0.6146  0.1946
  998MOL0     C34607   7.682   9.444   8.111  0.0251  1.2827  0.1523
  998MOL0     C34608   7.745   9.344   8.220 -0.7179  0.1158 -0.0463
  998MOL0     C34609   7.834   9.235   8.157  0.2204 -0.1186 -0.0776
  998MOL0     C34610   7.889   9.128   8.249  0.5630  0.6897 -0.5288
  998MOL0     C34611   8.003   9.177   8.338 -0.2274 -0.2529  0.4493
  998MOL0     N34612   8.119   9.085   8.340  0.4666  0.8124  0.0793
  998MOL0     C34613   8.210   9.093   8.246  0.5924  0.3513  0.6323
  998MOL0     C34614   8.287   8.981   8.253 -1.6255  0.0529 -0.1878
  998MOL0     C34615   8.403   8.941   8.169 -0.7205 -1.0562  0.4962
  998MOL0     C34616   8.517   9.045   8.193  0.0975  0.4535  0.1336
  998MOL0     C34617   8.639   8.958   8.241 -0.2431 -0.8567 -0.0066
  998MOL0     C34618   8.757   9.039   8.307 -0.2663 -0.2125  0.2295
  998MOL0     O34619   8.831   9.097   8.199  0.6306  0.3605  0.1948
  998MOL0     C34620   8.963   9.129   8.210 -0.5581  0.9174  0.4367
  998MOL0     C34621   9.021   9.175   8.323 -0.0526  0.6124  0.3045
  998MOL0     C34622   9.153   9.213   8.338  0.2887 -0.3804  0.8953
  998MOL0     C34623   9.235   9.206   8.226 -0.5996  0.2546 -0.2197
  998MOL0     C34624   9.379   9.235   8.231  0.0711  0.2082  0.2022
  998MOL0     O34625   9.428   9.316   8.336 -0.4453 -0.1839  0.1463
  998MOL0     C34626   9.563   9.323   8.358  0.2387  0.2319  0.0489
  998MOL0     C34627   9.618   9.321   8.492 -0.2853 -0.8056  0.3078
  998MOL0     C34628   9.745   9.369   8.514  0.4213  0.2119 -1.0112
  998MOL0     C34629   9.823   9.409   8.411 -0.6711 -0.2571 -0.0786
  998MOL0     O34630   9.953   9.453   8.431 -0.0510  0.2822 -0.2127
  998MOL0     C34631  10.023   9.431   8.557 -0.6473  0.4559 -0.2666
  998MOL0     C34632  10.173   9.459   8.514 -0.1411  0.0003  0.1557
  998MOL0     C34633  10.255   9.368   8.422 -0.0110  0.1446 -0.4243
  998MOL0     C34634  10.399   9.356   8.460 -0.5880 -0.1522  0.0309
  998MOL0     C34635  10.457   9.265   8.349 -0.3108 -0.1765  0.6013
  998MOL0     C34636  10.577   9.191   8.401 -0.8179 -1.1564  0.9361
  998MOL0     C34637  10.638   9.098   8.291  0.3615  0.2582  0.1604
  998MOL0     C34638  10.748   9.018   8.340 -0.6538 -0.6635 -0.1628
  998MOL0    Cl34639  10.872   9.123   8.397 -0.4621 -0.0746 -0.0166
  998MOL0     C34640   9.770   9.417   8.285  0.1410  0.0591 -0.4205
  998MOL0     C34641   9.641   9.370   8.258  0.3012  0.3416  0.5360
  998MOL0     O34642   9.441   9.173   8.144  0.1989  0.4954  0.5030
  998MOL0     C34643   9.174   9.165   8.103 -0.5399 -0.2713  0.2458
  998MOL0     C34644   9.038   9.133   8.097 -0.0996  0.7473  0.2079
  998MOL0     N34645   8.254   8.911   8.373 -0.1858  0.6467  0.9053
  998MOL0     N34646   8.154   8.973   8.421  1.1129 -0.4959  0.3213
  998MOL0     C34647   7.055   9.347   7.988  0.1780  1.2242  0.0448
  998MOL0     C34648   6.925   9.338   7.940  0.2456 -0.0305 -0.2507
  998MOL0     C34649   6.501   9.417   7.880 -0.3521 -0.0676  0.3282
  998MOL0     C34650   6.398   9.440   7.966  0.4510 -0.5569  0.2406
  998MOL0     C34651   6.261   9.452   7.933 -0.1595 -0.1467 -0.0970
  998MOL0     C34652   6.226   9.442   7.801 -0.5318  0.1054  0.4917
  998MOL0     O34653   6.095   9.456   7.757 -0.1695  0.2176 -0.6956
  998MOL0     C34654   6.011   9.544   7.830 -0.2160 -0.6798  0.0393
  998MOL0     C34655   5.862   9.509   7.792 -0.4617  0.4804  1.0628
  998MOL0     C34656   5.826   9.365   7.827  0.1899 -0.2861 -0.1241
  998MOL0     C34657   5.674   9.355   7.817  0.2028  0.1932 -0.2385
  998MOL0     C34658   5.612   9.346   7.684 -0.4712  0.1975  0.3835
  998MOL0     C34659   5.562   9.343   7.574  0.5424  0.4117 -0.0076
  998MOL0     C34660   6.327   9.416   7.703  0.0003  0.6135 -0.7630
  998MOL0     C34661   6.463   9.406   7.744 -0.4521  0.2877 -0.4526
  998MOL0     C34662   6.564   9.365   7.640  0.7132  0.0187 -0.3969
  998MOL0     H34663   6.864   9.665   7.882  1.0044  0.0254 -4.1147
  998MOL0     H34664   7.114   9.673   7.946  0.7918 -1.1157 -1.1011
  998MOL0     H34665   7.362   9.369   7.872  2.8770  0.8507 -1.6283
  998MOL0     H34666   7.333   9.540   7.838  1.8103 -0.7647 -0.8131
  998MOL0     H34667   7.472   9.608   8.025  2.6017 -0.1622  0.4668
  998MOL0     H34668   7.565   9.531   7.889 -0.9397 -2.1597 -0.8465
  998MOL0     H34669   7.541   9.318   8.020 -0.0391  0.6293  0.1598
  998MOL0     H34670   7.482   9.414   8.161  0.2091  0.8516  0.7883
  998MOL0     H34671   7.743   9.448   8.020  1.2521  0.9138  0.9388
  998MOL0     H34672   7.680   9.540   8.163 -0.4423  0.1382  2.3487
  998MOL0     H34673   7.812   9.386   8.294 -0.4458 -0.7788  0.2280
  998MOL0     H34674   7.667   9.285   8.269  0.1927  0.3204  1.7104
  998MOL0     H34675   7.772   9.190   8.079  1.7192 -0.6231 -1.0179
  998MOL0     H34676   7.925   9.276   8.111  0.5240 -1.9708 -1.2533
  998MOL0     H34677   7.922   9.040   8.193  2.6582  0.6463  0.6482
  998MOL0     H34678   7.806   9.098   8.313  0.0857  2.9460  0.0182
  998MOL0     H34679   8.029   9.275   8.297 -0.2995 -1.1636 -1.9104
  998MOL0     H34680   7.961   9.211   8.433 -1.0791  0.8447 -0.2958
  998MOL0     H34681   8.208   9.160   8.160 -1.3129 -0.0886  0.2925
  998MOL0     H34682   8.429   8.836   8.185  2.6601 -0.1980  1.4970
  998MOL0     H34683   8.381   8.948   8.062  1.1917  0.2317  0.1310
  998MOL0     H34684   8.534   9.105   8.104 -2.4928  1.9999  0.5867
  998MOL0     H34685   8.495   9.115   8.274  0.6957  2.0124 -1.0047
  998MOL0     H34686   8.678   8.900   8.157  1.1239  0.5660 -0.4170
  998MOL0     H34687   8.602   8.881   8.308 -1.8918 -1.9604 -2.0566
  998MOL0     H34688   8.813   8.959   8.356 -2.0754 -1.8652 -0.2592
  998MOL0     H34689   8.734   9.111   8.386  1.4870 -0.0975  0.6913
  998MOL0     H34690   8.973   9.174   8.421  0.3641  2.5831  0.5632
  998MOL0     H34691   9.202   9.241   8.431  1.5399  2.8573 -0.5713
  998MOL0     H34692   9.553   9.294   8.574 -0.7850  0.9912  0.5600
  998MOL0     H34693   9.776   9.371   8.618 -0.4841 -0.9060 -0.7016
  998MOL0     H34694   9.986   9.503   8.631 -2.9332 -0.9544  0.0621
  998MOL0     H34695  10.007   9.327   8.585 -0.7082 -0.2682 -2.7303
  998MOL0     H34696  10.169   9.549   8.453 -0.2536 -0.1266 -0.0219
  998MOL0     H34697  10.232   9.467   8.606  0.0900 -5.2031  0.7810
  998MOL0     H34698  10.209   9.269   8.428  0.8845 -0.2427  0.2699
  998MOL0     H34699  10.241   9.397   8.317 -0.0361 -1.7813 -0.9904
  998MOL0     H34700  10.414   9.315   8.560  1.0991 -0.8864 -0.4979
  998MOL0     H34701  10.438   9.458   8.446  1.5782 -0.6461  2.0261
  998MOL0     H34702  10.487   9.321   8.261  0.5068 -1.4093  0.0696
  998MOL0     H34703  10.385   9.196   8.304 -0.4704 -0.5677  1.4298
  998MOL0     H34704  10.649   9.269   8.426 -0.0899 -1.5001 -0.0292
  998MOL0     H34705  10.556   9.141   8.496 -2.6755  1.7479  2.1850
  998MOL0     H34706  10.668   9.158   8.204 -0.8185  1.1667  0.3615
  998MOL0     H34707  10.562   9.034   8.246 -0.7333  1.8327 -0.3090
  998MOL0     H34708  10.722   8.951   8.422  0.9072 -0.7805  0.2695
  998MOL0     H34709  10.790   8.966   8.252 -2.3069 -0.1262 -1.3133
  998MOL0     H34710   9.839   9.463   8.215 -0.9700 -0.0753 -1.6504
  998MOL0     H34711   9.587   9.397   8.169  0.4219 -0.6573  0.1448
  998MOL0     H34712   9.228   9.161   8.009 -3.1659  3.7552 -1.7699
  998MOL0     H34713   8.987   9.089   8.013 -1.3841 -0.0821  1.3933
  998MOL0     H34714   7.110   9.256   8.009 -0.6809 -0.1648 -3.0662
  998MOL0     H34715   6.890   9.235   7.940  2.8722 -1.0336  1.5973
  998MOL0     H34716   6.424   9.444   8.072 -0.3478  2.9028  0.4151
  998MOL0     H34717   6.188   9.475   8.010  0.4151  1.0604  0.1105
  998MOL0     H34718   6.023   9.648   7.796  2.9427 -0.1435  2.3764
  998MOL0     H34719   6.029   9.546   7.937  2.3283 -1.3642 -0.3180
  998MOL0     H34720   5.842   9.512   7.684  0.4128 -3.1137  0.6724
  998MOL0     H34721   5.787   9.573   7.839 -2.5768 -0.0239 -1.3846
  998MOL0     H34722   5.861   9.345   7.928 -1.6531  0.7644  0.7642
  998MOL0     H34723   5.881   9.297   7.760 -0.3321 -1.3706  0.5343
  998MOL0     H34724   5.648   9.259   7.864 -1.2738  1.2346  1.1578
  998MOL0     H34725   5.620   9.424   7.882 -0.3822 -1.1616  0.7903
  998MOL0     H34726   5.500   9.333   7.487 -0.7936 -2.2860  1.1512
  998MOL0     H34727   6.296   9.415   7.599 -2.0212  0.4119 -0.1918
  998MOL0     H34728   6.635   9.292   7.681  1.0317 -0.7816 -2.2766
  998MOL0     H34729   6.505   9.326   7.557  0.1748 -2.7801  1.1638
  998MOL0     H34730   6.616   9.457   7.611 -1.6332  2.2158  1.8692
  999MOL0     O34731   6.996  11.029   8.072 -0.3971  0.3807 -0.6579
  999MOL0     C34732   6.933  11.070   8.173 -0.0785 -0.0498 -0.1799
  999MOL0     O34733   6.989  11.107   8.292 -0.1388  0.6049 -1.0310
  999MOL0     C34734   7.116  11.053   8.315 -0.2670  0.0175  1.1269
  999MOL0     C34735   7.132  10.918   8.363 -0.1533 -0.2119  0.4869
  999MOL0     C34736   7.265  10.869   8.390 -0.1884  0.3254  0.1790
  999MOL0     C34737   7.374  10.956   8.379  0.6329  0.2059  0.4350
  999MOL0     O34738   7.500  10.915   8.399  0.0663 -0.3189 -0.4243
  999MOL0     C34739   7.551  10.828   8.301 -0.2043  0.2843  0.9129
  999MOL0     C34740   7.600  10.912   8.181  0.4365 -0.4718  0.5526
  999MOL0     C34741   7.677  10.823   8.081 -0.2220  0.3101 -0.0097
  999MOL0     C34742   7.736  10.917   7.970 -0.4215  0.4318  0.8188
  999MOL0     C34743   7.835  11.023   8.017  0.0054 -0.4746 -0.1716
  999MOL0     C34744   7.969  10.989   7.934  0.5919 -0.0724  0.7271
  999MOL0     C34745   8.096  11.057   7.995 -0.3676 -0.2507 -0.5143
  999MOL0     C34746   8.085  11.212   7.979  0.5277 -0.4421  0.1968
  999MOL0     N34747   8.198  11.276   8.035 -0.1806 -0.7777 -0.2143
  999MOL0     C34748   8.255  11.258   8.154  0.6213 -0.7417 -0.6473
  999MOL0     C34749   8.342  11.365   8.164 -0.2767  0.4358 -0.5205
  999MOL0     C34750   8.449  11.388   8.285  0.3186 -0.2645  0.6893
  999MOL0     C34751   8.525  11.263   8.315 -0.5570  0.1600  0.1484
  999MOL0     C34752   8.652  11.304   8.388 -1.3871 -0.2851  0.3127
  999MOL0     C34753   8.743  11.181   8.394 -0.0383  0.4038 -0.0616
  999MOL0     O34754   8.846  11.195   8.484 -0.2385 -0.1390  0.3818
  999MOL0     C34755   8.977  11.174   8.452 -0.6001 -0.2745 -0.1057
  999MOL0     C34756   9.035  11.210   8.328 -0.8863 -0.0687  1.3465
  999MOL0     C34757   9.168  11.183   8.300 -0.1988  0.2398  0.1651
  999MOL0     C34758   9.251  11.127   8.401  0.1315 -0.7110 -0.1727
  999MOL0     C34759   9.395  11.094   8.375 -0.8790 -0.3010  0.3644
  999MOL0     O34760   9.449  11.142   8.253  0.0791 -0.2775 -0.2762
  999MOL0     C34761   9.580  11.119   8.210 -0.2548  0.2447  0.1462
  999MOL0     C34762   9.609  11.187   8.091  1.0071  0.0900 -0.9821
  999MOL0     C34763   9.733  11.180   8.035 -0.0331  0.6557 -0.0293
  999MOL0     C34764   9.835  11.097   8.090 -0.2751  0.2078 -0.5163
  999MOL0     O34765   9.967  11.082   8.048 -0.5377 -0.1761 -0.1619
  999MOL0     C34766  10.004  11.132   7.923 -0.2801 -0.4223  0.2023
  999MOL0     C34767  10.157  11.115   7.907  0.3979  0.8203 -0.0124
  999MOL0     C34768  10.228  11.241   7.941 -0.5089  0.1147 -0.9836
  999MOL0     C34769  10.377  11.226   7.910 -0.3316 -0.4228 -0.5766
  999MOL0     C34770  10.451  11.333   7.992 -0.3065 -1.1759  0.2307
  999MOL0     C34771  10.604  11.338   7.956  0.1454  1.0744  0.3588
  999MOL0     C34772  10.671  11.430   8.048 -1.0106 -0.1435 -0.4642
  999MOL0     C34773  10.820  11.443   8.045  0.7846 -0.1670  0.4981
  999MOL0    Cl34774  10.904  11.298   8.004  0.1823 -0.1366 -0.1152
  999MOL0     C34775   9.806  11.021   8.207  0.6576 -0.0397  1.1906
  999MOL0     C34776   9.674  11.036   8.268 -0.4215 -0.2883 -0.0606
  999MOL0     O34777   9.457  11.033   8.457  0.0835 -0.8880 -0.4590
  999MOL0     C34778   9.198  11.098   8.527 -0.2049 -0.5244 -0.1377
  999MOL0     C34779   9.060  11.120   8.547  0.5012  0.9241 -1.0845
  999MOL0     N34780   8.334  11.446   8.042 -0.4456 -0.3764 -0.1715
  999MOL0     N34781   8.243  11.390   7.975  0.5996 -0.4662  0.2861
  999MOL0     C34782   7.353  11.082   8.321 -0.0969 -0.5096  0.4052
  999MOL0     C34783   7.229  11.136   8.292 -0.5113 -0.3016 -0.7599
  999MOL0     C34784   6.790  11.098   8.151  0.5429 -0.7101 -0.5096
  999MOL0     C34785   6.744  11.234   8.131  0.2542 -0.0830  0.4878
  999MOL0     C34786   6.608  11.247   8.103 -0.9073  0.2825 -0.2094
  999MOL0     C34787   6.514  11.151   8.123 -1.0445  0.4453 -0.4054
  999MOL0     O34788   6.386  11.186   8.109 -0.0012  0.0617  0.3042
  999MOL0     C34789   6.310  11.184   8.234  0.0458 -0.6382  0.3994
  999MOL0     C34790   6.175  11.254   8.224 -0.4544 -1.2467  0.5449
  999MOL0     C34791   6.197  11.395   8.165  0.6623 -0.5650 -0.3752
  999MOL0     C34792   6.086  11.495   8.207 -1.1808  0.6500 -0.1558
  999MOL0     C34793   5.964  11.461   8.139 -0.4646 -0.1922  0.0892
  999MOL0     C34794   5.852  11.436   8.106 -0.1894 -0.8877  0.4315
  999MOL0     C34795   6.559  11.026   8.149 -0.5628  0.0544  0.5129
  999MOL0     C34796   6.691  10.996   8.158  0.1020  0.5688 -0.4193
  999MOL0     C34797   6.725  10.850   8.198  0.3504 -0.5475  0.0922
  999MOL0     H34798   7.043  10.859   8.381 -0.1581 -1.0565 -1.8673
  999MOL0     H34799   7.277  10.765   8.420  1.5367 -0.3105 -2.3818
  999MOL0     H34800   7.630  10.763   8.340 -0.2640 -1.0053 -0.9865
  999MOL0     H34801   7.472  10.764   8.261 -0.9534  0.5784  1.8621
  999MOL0     H34802   7.677  10.975   8.226 -0.6242  2.1162 -1.0423
  999MOL0     H34803   7.520  10.972   8.137  1.8218 -0.0838 -1.6112
  999MOL0     H34804   7.603  10.752   8.042 -0.5949  0.2626  0.7756
  999MOL0     H34805   7.767  10.773   8.118 -0.1934 -0.0702 -0.5725
  999MOL0     H34806   7.782  10.849   7.898  1.3394 -0.4360  2.6715
  999MOL0     H34807   7.646  10.971   7.938 -1.6695 -0.2976  2.9136
  999MOL0     H34808   7.792  11.120   7.991 -1.2759 -0.4684  1.8189
  999MOL0     H34809   7.850  11.029   8.125  0.9094  2.9967 -0.3645
  999MOL0     H34810   7.990  10.882   7.931 -0.6529 -0.3462  1.4099
  999MOL0     H34811   7.964  11.013   7.827 -0.0368  0.0041  0.7700
  999MOL0     H34812   8.185  11.019   7.944  2.5384  0.2109  3.7156
  999MOL0     H34813   8.112  11.033   8.100  2.3041  0.6021 -0.6480
  999MOL0     H34814   8.067  11.236   7.873  0.1920 -2.2970 -0.2025
  999MOL0     H34815   7.992  11.237   8.031  0.3567  0.5861 -0.5506
  999MOL0     H34816   8.245  11.184   8.233 -0.3410 -1.0943 -1.0827
  999MOL0     H34817   8.508  11.473   8.251 -2.2852  0.5366 -2.2860
  999MOL0     H34818   8.383  11.428   8.362 -1.1048  0.0231 -0.6202
  999MOL0     H34819   8.461  11.207   8.384 -0.1500  2.1576  2.2581
  999MOL0     H34820   8.546  11.206   8.225 -2.7217 -4.6226  2.2868
  999MOL0     H34821   8.636  11.352   8.485 -0.3797  1.6301 -0.4032
  999MOL0     H34822   8.705  11.380   8.329 -0.6583 -0.6801  0.4397
  999MOL0     H34823   8.782  11.157   8.295 -0.2299  4.3474 -1.2661
  999MOL0     H34824   8.684  11.094   8.424 -0.4521  0.5635 -0.4013
  999MOL0     H34825   8.988  11.258   8.243  1.2900 -1.4979 -0.7958
  999MOL0     H34826   9.209  11.206   8.202 -1.9173  0.1939 -0.6066
  999MOL0     H34827   9.520  11.242   8.061 -0.2575 -0.9640  0.6473
  999MOL0     H34828   9.760  11.250   7.956 -1.9893  1.1553 -0.3105
  999MOL0     H34829   9.954  11.088   7.836  3.1395 -1.3569 -1.4612
  999MOL0     H34830  10.001  11.241   7.925 -0.1500 -0.4223  2.9244
  999MOL0     H34831  10.199  11.034   7.967  1.6273  1.6932  0.3403
  999MOL0     H34832  10.171  11.094   7.801 -0.8988 -0.9265  0.1229
  999MOL0     H34833  10.192  11.331   7.888  3.8838  1.5960 -1.8548
  999MOL0     H34834  10.207  11.265   8.046 -1.1617  0.8949 -1.2813
  999MOL0     H34835  10.389  11.240   7.802 -0.8979  0.4437 -0.5464
  999MOL0     H34836  10.426  11.134   7.942 -0.6942 -0.0152  1.3165
  999MOL0     H34837  10.434  11.333   8.100  0.4681  1.6229  0.4469
  999MOL0     H34838  10.407  11.430   7.966  0.8982 -0.3953  0.9810
  999MOL0     H34839  10.634  11.238   7.989 -1.6321  0.7285  1.0628
  999MOL0     H34840  10.623  11.367   7.852  1.5896  0.9895  0.5805
  999MOL0     H34841  10.645  11.403   8.151  0.6791 -1.0563 -0.2355
  999MOL0     H34842  10.635  11.532   8.033 -0.5974 -0.2833 -2.6360
  999MOL0     H34843  10.850  11.518   7.971  2.0948  2.4102  3.4400
  999MOL0     H34844  10.850  11.473   8.146  0.0615 -2.3989  1.4342
  999MOL0     H34845   9.880  10.963   8.262  0.8816 -0.1456  0.7800
  999MOL0     H34846   9.650  10.972   8.352 -1.8953  0.3782  0.0604
  999MOL0     H34847   9.251  11.040   8.601 -1.6062  0.6528  1.8985
  999MOL0     H34848   9.009  11.080   8.635 -0.7176  2.1800 -1.1841
  999MOL0     H34849   7.438  11.150   8.310 -0.2005 -0.1190  1.7566
  999MOL0     H34850   7.222  11.239   8.258  2.6640  0.0921 -0.4939
  999MOL0     H34851   6.810  11.320   8.120 -0.5198  0.1369 -5.0870
  999MOL0     H34852   6.575  11.346   8.076 -0.5652  0.3851 -0.2518
  999MOL0     H34853   6.365  11.242   8.308  1.0539  1.9151 -2.1570
  999MOL0     H34854   6.289  11.080   8.260  2.0112 -1.3820 -0.7799
  999MOL0     H34855   6.116  11.256   8.317  1.1374 -2.2668  1.6212
  999MOL0     H34856   6.103  11.201   8.161  1.1188  0.2754 -2.7945
  999MOL0     H34857   6.196  11.381   8.057 -1.3808  1.0357 -0.6138
  999MOL0     H34858   6.293  11.435   8.200  0.3901 -0.1147 -0.1429
  999MOL0     H34859   6.066  11.500   8.315 -2.5357  1.7302 -0.4179
  999MOL0     H34860   6.116  11.595   8.175 -2.5152  0.8917 -0.7309
  999MOL0     H34861   5.760  11.402   8.065  1.1667 -1.9179 -1.9251
  999MOL0     H34862   6.491  10.944   8.170  0.8769 -0.9606  1.4022
  999MOL0     H34863   6.637  10.788   8.178 -0.0649  0.8432 -3.0684
  999MOL0     H34864   6.796  10.813   8.124  0.9687 -1.6551  1.2060
  999MOL0     H34865   6.768  10.833   8.297  1.3537 -1.5373 -0.5016
 1000MOL0     O34866   2.801   7.703   6.760  0.5326 -0.5351 -0.8479
 1000MOL0     C34867   2.772   7.758   6.651 -0.1903 -0.3479  0.4627
 1000MOL0     O34868   2.859   7.832   6.571 -0.0656  0.1319  0.5125
 1000MOL0     C34869   2.977   7.875   6.626 -0.2123  0.1768 -0.0879
 1000MOL0     C34870   3.000   8.006   6.627 -0.1037 -0.0575  0.5659
 1000MOL0     C34871   3.115   8.055   6.700  0.4507 -0.3801 -0.4287
 1000MOL0     C34872   3.203   7.960   6.760 -0.1735 -0.1532 -0.1635
 1000MOL0     O34873   3.312   7.995   6.836 -0.3575 -0.5500  0.3360
 1000MOL0     C34874   3.341   8.133   6.872 -0.4374 -0.1045  0.2373
 1000MOL0     C34875   3.421   8.141   7.004  0.3154 -0.0877  0.7576
 1000MOL0     C34876   3.325   8.134   7.121 -0.2483  0.8784  0.7092
 1000MOL0     C34877   3.396   8.118   7.257  0.0123 -0.6367  0.4755
 1000MOL0     C34878   3.501   8.214   7.297  0.4336 -0.4874  0.3495
 1000MOL0     C34879   3.547   8.213   7.439  0.0927 -0.8639 -0.7278
 1000MOL0     C34880   3.447   8.228   7.553 -0.1889 -0.3200 -0.6585
 1000MOL0     C34881   3.348   8.347   7.545  0.2344 -0.9065  0.2296
 1000MOL0     N34882   3.410   8.480   7.525 -0.6052  0.6884 -0.3964
 1000MOL0     C34883   3.536   8.523   7.573 -0.1718 -0.2032  0.2344
 1000MOL0     C34884   3.539   8.654   7.521 -0.2417  0.0967 -0.3317
 1000MOL0     C34885   3.646   8.750   7.560 -1.0288 -0.5579  0.4650
 1000MOL0     C34886   3.782   8.725   7.495 -0.8968 -0.0551  0.0644
 1000MOL0     C34887   3.900   8.777   7.587  0.4782 -0.2524 -1.2274
 1000MOL0     C34888   4.044   8.778   7.533  0.4152 -0.2149 -0.2269
 1000MOL0     O34889   4.071   8.867   7.417  0.1796  0.5130 -0.6406
 1000MOL0     C34890   4.196   8.899   7.372  0.0726 -0.4927 -0.7927
 1000MOL0     C34891   4.318   8.836   7.418  0.4036  0.0775 -0.6590
 1000MOL0     C34892   4.441   8.879   7.371 -0.4956 -0.3185  0.8703
 1000MOL0     C34893   4.449   8.958   7.255  0.0141 -0.6606 -0.1614
 1000MOL0     C34894   4.580   8.970   7.191 -0.9623 -0.0820  0.7467
 1000MOL0     O34895   4.687   8.905   7.247  0.0731  0.3191 -0.5318
 1000MOL0     C34896   4.806   8.932   7.181 -0.2813 -0.4267 -0.9168
 1000MOL0     C34897   4.872   9.061   7.216  0.3283  0.5807  0.8339
 1000MOL0     C34898   5.008   9.071   7.182 -0.0610 -0.5089 -0.3998
 1000MOL0     C34899   5.080   8.971   7.111 -0.0604 -0.3797  0.3870
 1000MOL0     O34900   5.216   8.973   7.086  0.7796 -0.0055  0.6526
 1000MOL0     C34901   5.281   9.101   7.079  0.1458  0.4639 -0.3556
 1000MOL0     C34902   5.434   9.089   7.062 -0.6548 -0.0930 -0.3283
 1000MOL0     C34903   5.519   9.204   7.107 -0.1214 -0.3166  0.2071
 1000MOL0     C34904   5.657   9.191   7.045 -0.2949  0.6482 -0.8528
 1000MOL0     C34905   5.750   9.078   7.115 -0.8176 -0.1515  0.6650
 1000MOL0     C34906   5.885   9.062   7.059  0.2864  0.5146  0.1283
 1000MOL0     C34907   5.875   9.027   6.907  0.2645 -0.8737 -0.0101
 1000MOL0     C34908   5.993   8.938   6.871 -0.5435 -0.3472 -0.0011
 1000MOL0    Cl34909   6.043   8.969   6.700  0.0755  0.1134  0.2898
 1000MOL0     C34910   5.014   8.850   7.084 -0.8534 -0.1141  0.2342
 1000MOL0     C34911   4.881   8.830   7.113  0.5046  0.8164 -0.0997
 1000MOL0     O34912   4.593   9.047   7.097 -0.1187  0.1833  0.1970
 1000MOL0     C34913   4.332   9.022   7.207 -0.1385  0.2822 -0.1818
 1000MOL0     C34914   4.206   8.994   7.265 -0.4530 -0.0282  0.2033
 1000MOL0     N34915   3.421   8.688   7.462  0.8055 -0.8790  0.1062
 1000MOL0     N34916   3.348   8.581   7.472  0.0040 -0.5454  0.8322
 1000MOL0     C34917   3.188   7.826   6.736 -0.0194  0.6749  0.0939
 1000MOL0     C34918   3.071   7.778   6.674  0.9981 -0.1153  0.3909
 1000MOL0     C34919   2.632   7.731   6.607 -0.7441 -0.4088 -1.0323
 1000MOL0     C34920   2.578   7.598   6.609 -0.9163  0.5656  0.5953
 1000MOL0     C34921   2.444   7.580   6.589 -0.3211  0.4327 -0.1301
 1000MOL0     C34922   2.360   7.691   6.578 -0.5729 -0.3441 -0.0224
 1000MOL0     O34923   2.227   7.662   6.572 -0.0948 -0.3804 -0.2168
 1000MOL0     C34924   2.135   7.737   6.499  0.8310  0.5194  0.2593
 1000MOL0     C34925   2.072   7.661   6.378 -0.1019  0.2473 -0.5556
 1000MOL0     C34926   1.986   7.540   6.418  0.1804  0.1361  0.3115
 1000MOL0     C34927   1.954   7.454   6.300  0.0350  0.7072 -0.4278
 1000MOL0     C34928   1.819   7.392   6.317  0.0570  0.3094 -1.0435
 1000MOL0     C34929   1.718   7.340   6.359 -0.3485  0.2998 -0.5263
 1000MOL0     C34930   2.414   7.817   6.584  0.2963 -0.2134 -0.3850
 1000MOL0     C34931   2.549   7.845   6.598  0.1778  0.3951  0.7510
 1000MOL0     C34932   2.604   7.987   6.605 -0.6885  0.2050 -0.0748
 1000MOL0     H34933   2.929   8.084   6.601 -0.4749 -0.0167  1.6463
 1000MOL0     H34934   3.131   8.162   6.705 -2.7736  0.2777 -1.5568
 1000MOL0     H34935   3.407   8.181   6.799 -0.2842 -1.0331 -0.2618
 1000MOL0     H34936   3.249   8.191   6.877 -1.3402 -1.4929  0.1367
 1000MOL0     H34937   3.477   8.234   7.020 -1.5748  0.6866  3.6803
 1000MOL0     H34938   3.496   8.062   7.009 -0.1307 -0.4940  1.0590
 1000MOL0     H34939   3.262   8.045   7.105  2.5277 -1.0769 -0.2064
 1000MOL0     H34940   3.257   8.219   7.131 -1.0679  0.2945  0.3176
 1000MOL0     H34941   3.314   8.136   7.327 -0.6057  1.2153 -0.6618
 1000MOL0     H34942   3.422   8.012   7.269 -0.2104 -0.7625 -0.1183
 1000MOL0     H34943   3.584   8.211   7.226  0.2095 -2.1385  0.1324
 1000MOL0     H34944   3.447   8.309   7.286  0.6088 -0.5966 -1.9487
 1000MOL0     H34945   3.602   8.121   7.458  1.6395 -0.2205 -1.7912
 1000MOL0     H34946   3.613   8.301   7.448  1.3851 -1.9000  0.2624
 1000MOL0     H34947   3.497   8.223   7.650 -1.8636 -2.1102  0.1998
 1000MOL0     H34948   3.382   8.140   7.547  0.8996 -1.0957 -1.5211
 1000MOL0     H34949   3.274   8.336   7.465 -0.4476  2.1280  0.3319
 1000MOL0     H34950   3.278   8.350   7.630 -1.7857 -1.7731 -1.3209
 1000MOL0     H34951   3.614   8.469   7.626  1.0911 -0.1407 -1.4850
 1000MOL0     H34952   3.618   8.854   7.542  0.5688  0.3807  2.8878
 1000MOL0     H34953   3.658   8.752   7.669  0.2728 -0.8068  0.3442
 1000MOL0     H34954   3.794   8.617   7.487 -0.1552  0.0787 -0.7192
 1000MOL0     H34955   3.787   8.778   7.399  1.8147 -2.4342 -1.2700
 1000MOL0     H34956   3.891   8.715   7.677 -0.7064 -0.6849 -1.6267
 1000MOL0     H34957   3.861   8.875   7.617 -3.3123 -1.4826 -1.6116
 1000MOL0     H34958   4.064   8.672   7.517 -0.7704 -0.3516 -0.9338
 1000MOL0     H34959   4.114   8.812   7.610  1.2539 -0.1159 -1.0287
 1000MOL0     H34960   4.314   8.770   7.504  0.5347  0.4687 -0.3500
 1000MOL0     H34961   4.530   8.827   7.407  0.2079 -0.1880 -0.6004
 1000MOL0     H34962   4.823   9.143   7.268  2.0874  1.1089  1.7590
 1000MOL0     H34963   5.062   9.162   7.205  0.2909 -0.5858 -0.8957
 1000MOL0     H34964   5.250   9.156   6.989 -1.2176 -1.4025 -1.0944
 1000MOL0     H34965   5.265   9.169   7.164  0.2803  0.4050 -0.2824
 1000MOL0     H34966   5.465   9.004   7.124  0.4356 -1.1403 -2.1735
 1000MOL0     H34967   5.455   9.065   6.957 -0.7338 -0.2077 -0.3184
 1000MOL0     H34968   5.474   9.296   7.069  0.0993  0.7702  2.4169
 1000MOL0     H34969   5.523   9.209   7.216  2.0935 -1.6556  0.2365
 1000MOL0     H34970   5.706   9.285   7.070 -2.4967  1.4824  0.6549
 1000MOL0     H34971   5.654   9.171   6.937 -0.5737 -4.2506 -0.1455
 1000MOL0     H34972   5.696   8.984   7.129 -0.7873 -0.0354  1.6925
 1000MOL0     H34973   5.761   9.108   7.220 -0.5526  1.0336  0.3212
 1000MOL0     H34974   5.934   9.158   7.077 -0.3419  0.6168  1.4325
 1000MOL0     H34975   5.925   8.985   7.125  1.3776  0.4197 -0.6103
 1000MOL0     H34976   5.885   9.117   6.846  0.2574 -0.5186  0.5110
 1000MOL0     H34977   5.790   8.963   6.883  2.6613 -3.9290 -1.0808
 1000MOL0     H34978   6.079   8.969   6.931  0.5134  0.3916 -1.8031
 1000MOL0     H34979   5.976   8.831   6.882  0.0318 -0.3272  1.1572
 1000MOL0     H34980   5.081   8.771   7.050 -0.4399  0.2677  0.1376
 1000MOL0     H34981   4.833   8.733   7.102  1.2617  0.3587  0.4867
 1000MOL0     H34982   4.337   9.081   7.116  0.9087 -2.7369 -2.2117
 1000MOL0     H34983   4.126   9.031   7.203  0.5454  1.3950 -0.3040
 1000MOL0     H34984   3.254   7.748   6.770  0.5346  1.3129  0.5188
 1000MOL0     H34985   3.042   7.673   6.665  0.4385  0.1538 -1.3042
 1000MOL0     H34986   2.651   7.521   6.636 -0.2572  0.6692 -0.7976
 1000MOL0     H34987   2.401   7.482   6.608  0.8565  0.2473  1.8521
 1000MOL0     H34988   2.167   7.832   6.455 -0.8890  0.8086 -0.4390
 1000MOL0     H34989   2.059   7.772   6.569  2.3252 -1.3429  2.9624
 1000MOL0     H34990   2.144   7.624   6.305 -1.0924 -3.0979 -0.0027
 1000MOL0     H34991   2.002   7.726   6.325 -1.7241  0.8993  2.1831
 1000MOL0     H34992   1.892   7.571   6.466 -0.9573 -2.6729  0.0983
 1000MOL0     H34993   2.032   7.472   6.490  1.2985  0.1100 -0.4077
 1000MOL0     H34994   1.954   7.510   6.206 -0.5744  1.8112  0.2014
 1000MOL0     H34995   2.026   7.372   6.299 -1.2095 -0.4269 -0.8356
 1000MOL0     H34996   1.636   7.283   6.397 -0.2302 -0.8303 -1.8726
 1000MOL0     H34997   2.353   7.907   6.575 -0.7396 -1.0571 -2.5202
 1000MOL0     H34998   2.606   8.022   6.708  1.1228 -0.5958  0.2004
 1000MOL0     H34999   2.698   8.002   6.551  0.4691  0.2147  1.8852
 1000MOL0     H35000   2.530   8.048   6.552  0.0854  0.4050 -0.9724
 1001MOL0     O35001   7.517   8.366   2.912 -0.0326 -0.0066 -0.3389
 1001MOL0     C35002   7.444   8.388   2.815 -0.0532 -0.6696 -0.7139
 1001MOL0     O35003   7.494   8.411   2.692  0.1553  0.2398 -0.2729
 1001MOL0     C35004   7.628   8.413   2.659  0.0879  0.3475 -0.3464
 1001MOL0     C35005   7.674   8.337   2.550  0.4113  0.4652 -0.4662
 1001MOL0     C35006   7.810   8.338   2.520  0.3726  0.3516 -0.1865
 1001MOL0     C35007   7.906   8.412   2.587  0.2637 -0.6639  0.1826
 1001MOL0     O35008   8.040   8.412   2.533 -0.2391 -0.2264 -0.1975
 1001MOL0     C35009   8.139   8.483   2.605 -0.1997 -0.0710  0.4622
 1001MOL0     C35010   8.278   8.452   2.546 -0.3026  0.3063 -0.3323
 1001MOL0     C35011   8.375   8.547   2.621 -0.5436 -0.2574 -0.5679
 1001MOL0     C35012   8.420   8.674   2.551 -0.8071 -0.0583  0.2714
 1001MOL0     C35013   8.491   8.774   2.638  0.8005 -0.1969 -0.0692
 1001MOL0     C35014   8.631   8.729   2.686 -0.3583 -1.4657  0.0928
 1001MOL0     C35015   8.704   8.852   2.739 -0.0062  0.1034 -0.5894
 1001MOL0     C35016   8.836   8.826   2.799 -0.3514  0.5142 -0.6335
 1001MOL0     N35017   8.934   8.752   2.719 -0.1855 -0.4005  0.9875
 1001MOL0     C35018   8.975   8.779   2.590 -0.1223 -0.4456 -0.6927
 1001MOL0     C35019   9.072   8.691   2.566  0.3704 -0.5192  0.6615
 1001MOL0     C35020   9.139   8.688   2.436 -0.8814  0.5434  0.2712
 1001MOL0     C35021   9.273   8.754   2.448  0.3609  0.6654 -0.4573
 1001MOL0     C35022   9.353   8.742   2.326  1.0215 -0.3565 -0.3925
 1001MOL0     C35023   9.483   8.814   2.348  0.0604  0.5937 -0.2433
 1001MOL0     O35024   9.553   8.799   2.227  0.5617  0.2765 -0.5519
 1001MOL0     C35025   9.656   8.887   2.203  0.9397 -0.6102 -0.4590
 1001MOL0     C35026   9.743   8.922   2.307  0.2249  0.1709  0.4298
 1001MOL0     C35027   9.852   9.005   2.291 -0.7083  1.0392  0.3855
 1001MOL0     C35028   9.891   9.040   2.161  0.0363 -0.0143  0.4741
 1001MOL0     C35029  10.022   9.094   2.127 -0.0567 -0.4448  0.1335
 1001MOL0     O35030  10.120   9.074   2.222  0.4178  0.3481  0.3067
 1001MOL0     C35031  10.239   9.108   2.186 -0.9958  0.3842  0.4118
 1001MOL0     C35032  10.309   9.217   2.244 -0.3731 -0.3104 -0.0065
 1001MOL0     C35033  10.445   9.241   2.212  0.4986  0.1208  0.2503
 1001MOL0     C35034  10.510   9.160   2.121 -0.5060 -0.5020 -0.4443
 1001MOL0     O35035  10.640   9.198   2.092 -0.5025  0.7602  1.3870
 1001MOL0     C35036  10.719   9.127   1.989  0.2203  0.3311 -0.2415
 1001MOL0     C35037  10.840   9.213   1.953  0.5526  0.1084 -0.2419
 1001MOL0     C35038  10.934   9.271   2.065 -0.1737  0.5129 -0.1743
 1001MOL0     C35039  11.072   9.323   2.021 -0.0153 -1.3665  0.2502
 1001MOL0     C35040  11.178   9.317   2.141 -0.3357  0.2945  0.2472
 1001MOL0     C35041  11.305   9.397   2.110 -0.2573  0.0537  0.7171
 1001MOL0     C35042  11.389   9.364   1.979  0.0327 -0.6576  0.5276
 1001MOL0     C35043  11.523   9.430   1.980 -0.1739 -0.4133 -0.5515
 1001MOL0    Cl35044  11.635   9.365   2.096  0.0627  0.0519  0.0953
 1001MOL0     C35045  10.443   9.054   2.057 -0.3750  0.3225  0.6810
 1001MOL0     C35046  10.309   9.027   2.093 -0.3821  0.4974 -0.1151
 1001MOL0     O35047  10.031   9.160   2.023  0.2493 -0.0808 -0.3394
 1001MOL0     C35048   9.799   9.009   2.057 -1.2349  0.1097  0.6093
 1001MOL0     C35049   9.679   8.932   2.077  0.5195  0.0167  0.2523
 1001MOL0     N35050   9.097   8.611   2.680  1.1563 -0.1692  0.4252
 1001MOL0     N35051   9.004   8.649   2.767 -0.4172  0.8373  0.8647
 1001MOL0     C35052   7.857   8.492   2.686  0.2950  0.5415 -1.2392
 1001MOL0     C35053   7.722   8.497   2.730  0.2855  0.4158 -0.3657
 1001MOL0     C35054   7.293   8.390   2.833  0.0129  0.0674  0.1009
 1001MOL0     C35055   7.247   8.397   2.969 -0.1880  0.6533  0.0221
 1001MOL0     C35056   7.113   8.401   2.998  0.8549  0.0199 -0.3043
 1001MOL0     C35057   7.020   8.412   2.892 -0.5588 -0.4583 -0.3148
 1001MOL0     O35058   6.886   8.415   2.912  0.1269  0.2048  0.4787
 1001MOL0     C35059   6.836   8.469   3.040 -0.7664 -0.1951  0.1243
 1001MOL0     C35060   6.687   8.501   3.048  0.1396  0.5449  0.0663
 1001MOL0     C35061   6.606   8.369   3.016 -0.6649  0.4591  0.4171
 1001MOL0     C35062   6.460   8.386   2.971 -0.4506  0.0645 -0.2637
 1001MOL0     C35063   6.443   8.464   2.852 -0.5782 -0.0925  0.0766
 1001MOL0     C35064   6.430   8.559   2.781  0.1989 -0.4679  0.0352
 1001MOL0     C35065   7.067   8.411   2.760  0.8013 -0.7607  0.2180
 1001MOL0     C35066   7.199   8.396   2.727 -0.0687 -0.3674 -0.2505
 1001MOL0     C35067   7.236   8.365   2.581  0.7478 -0.8593  0.4421
 1001MOL0     H35068   7.607   8.271   2.496  1.3527 -0.6432 -0.3329
 1001MOL0     H35069   7.832   8.286   2.427 -3.5444  0.4302 -1.3334
 1001MOL0     H35070   8.120   8.591   2.604 -1.6161 -0.2385  2.3481
 1001MOL0     H35071   8.130   8.450   2.709  0.3052 -0.1104  0.4943
 1001MOL0     H35072   8.271   8.459   2.437 -1.3793 -2.6546 -0.5712
 1001MOL0     H35073   8.310   8.352   2.577  0.4797  0.0152 -2.0099
 1001MOL0     H35074   8.466   8.488   2.638 -2.0572 -1.7300  3.6044
 1001MOL0     H35075   8.333   8.580   2.716 -1.8072  0.5750 -1.3856
 1001MOL0     H35076   8.487   8.656   2.465 -1.6470  0.3567 -0.4875
 1001MOL0     H35077   8.337   8.730   2.508 -2.3064 -1.6300  1.0034
 1001MOL0     H35078   8.506   8.858   2.570  2.4285 -0.0721  0.4019
 1001MOL0     H35079   8.436   8.795   2.730  0.1846 -0.1265 -0.4514
 1001MOL0     H35080   8.624   8.648   2.759  1.7842 -0.6333  1.3019
 1001MOL0     H35081   8.690   8.696   2.600 -1.8782 -2.2415 -0.6972
 1001MOL0     H35082   8.636   8.881   2.820 -0.3363 -1.4774 -0.2777
 1001MOL0     H35083   8.712   8.924   2.657  0.4875  0.1305 -0.5228
 1001MOL0     H35084   8.873   8.921   2.838 -0.3919 -0.9054  3.3014
 1001MOL0     H35085   8.814   8.754   2.879  1.6767  1.4102  0.8057
 1001MOL0     H35086   8.940   8.867   2.537 -0.7332  0.7975  1.6432
 1001MOL0     H35087   9.159   8.584   2.410  2.8573  0.9865  0.9019
 1001MOL0     H35088   9.077   8.730   2.356 -2.9348 -1.0372  0.9271
 1001MOL0     H35089   9.258   8.858   2.477 -0.7283  0.0295  1.4114
 1001MOL0     H35090   9.330   8.712   2.532  0.8298 -1.1833 -1.6320
 1001MOL0     H35091   9.298   8.800   2.251 -2.5424 -2.1871  0.5961
 1001MOL0     H35092   9.369   8.639   2.292  3.9513 -0.0907 -0.0331
 1001MOL0     H35093   9.531   8.755   2.427 -2.0868 -2.3518 -0.9701
 1001MOL0     H35094   9.469   8.919   2.374 -0.9015 -0.3669  3.7754
 1001MOL0     H35095   9.710   8.888   2.405 -1.4545 -0.4722 -0.3218
 1001MOL0     H35096   9.915   9.022   2.378 -0.8824 -1.9524  1.1978
 1001MOL0     H35097  10.255   9.274   2.319  2.1681  2.1893  0.0881
 1001MOL0     H35098  10.501   9.321   2.261 -1.9609  2.0516  0.1064
 1001MOL0     H35099  10.756   9.026   2.006 -0.1008  0.1291 -0.7269
 1001MOL0     H35100  10.663   9.110   1.896 -0.4585 -0.4287  0.2801
 1001MOL0     H35101  10.902   9.170   1.874  0.4156  2.7916 -1.9579
 1001MOL0     H35102  10.791   9.300   1.908  0.8622 -0.7040 -2.2585
 1001MOL0     H35103  10.887   9.357   2.114  1.2513 -0.2239  2.6987
 1001MOL0     H35104  10.944   9.190   2.138 -1.3183 -1.7706 -2.3898
 1001MOL0     H35105  11.059   9.429   1.999  0.9177 -1.3548 -0.3231
 1001MOL0     H35106  11.109   9.273   1.930  0.6128 -0.3694 -0.0518
 1001MOL0     H35107  11.211   9.214   2.157 -0.3853  0.0856 -0.9027
 1001MOL0     H35108  11.128   9.358   2.230  0.9820 -0.7542  1.5162
 1001MOL0     H35109  11.282   9.504   2.106 -0.5704 -0.0154  0.6780
 1001MOL0     H35110  11.365   9.371   2.198  1.6956 -1.2301 -0.8947
 1001MOL0     H35111  11.346   9.411   1.891  0.4046  3.5983  2.3728
 1001MOL0     H35112  11.420   9.261   1.956 -0.3125 -0.6235 -0.0930
 1001MOL0     H35113  11.578   9.415   1.887  1.9368  1.8849  0.2163
 1001MOL0     H35114  11.506   9.535   2.007 -0.2693 -0.1029 -1.7526
 1001MOL0     H35115  10.493   9.002   1.976 -1.1172 -1.0858  1.1111
 1001MOL0     H35116  10.255   8.939   2.059 -0.1036 -0.0548  0.8368
 1001MOL0     H35117   9.831   9.034   1.956  2.5158 -6.4594 -0.4100
 1001MOL0     H35118   9.621   8.898   1.991  2.1264  0.8935 -1.2382
 1001MOL0     H35119   7.927   8.557   2.737  0.6946 -0.1996 -0.8248
 1001MOL0     H35120   7.685   8.575   2.796 -2.9510 -0.4440 -0.9969
 1001MOL0     H35121   7.321   8.385   3.048 -0.7291 -0.3612  0.3955
 1001MOL0     H35122   7.076   8.383   3.099  0.8758  2.2900  0.1723
 1001MOL0     H35123   6.887   8.566   3.045 -4.4978  1.9753 -0.1675
 1001MOL0     H35124   6.854   8.403   3.125  0.1748 -0.3719 -0.1952
 1001MOL0     H35125   6.659   8.575   2.972  0.0061 -1.9322 -2.4760
 1001MOL0     H35126   6.651   8.534   3.145 -3.6796  0.3857 -1.1280
 1001MOL0     H35127   6.607   8.301   3.102 -0.1546  0.9029  0.7677
 1001MOL0     H35128   6.659   8.308   2.944  1.2054  2.0674  0.3635
 1001MOL0     H35129   6.414   8.289   2.951  1.3301 -0.7103 -0.8232
 1001MOL0     H35130   6.396   8.419   3.054  0.1696  0.0425  0.2293
 1001MOL0     H35131   6.406   8.647   2.726 -1.8445  0.0321  1.5764
 1001MOL0     H35132   6.994   8.425   2.681  1.5141 -0.4624 -0.4129
 1001MOL0     H35133   7.148   8.373   2.516 -0.7051 -3.6803  1.8825
 1001MOL0     H35134   7.310   8.438   2.548 -0.4497 -0.6168 -1.9643
 1001MOL0     H35135   7.276   8.265   2.569 -0.0219 -0.9745 -1.4566
 1002MOL0     O35136   2.927   0.076   7.801 -0.2983 -0.6798  0.1507
 1002MOL0     C35137   2.837   0.134   7.848  0.0882 -0.1554  0.1283
 1002MOL0     O35138   2.838   0.274   7.864  0.3093  0.3514  0.1777
 1002MOL0     C35139   2.943   0.342   7.811  0.4220 -1.0098  0.0947
 1002MOL0     C35140   3.065   0.357   7.878  0.1538  0.0347 -0.3361
 1002MOL0     C35141   3.174   0.436   7.821  0.1782 -0.0347  0.1569
 1002MOL0     C35142   3.158   0.484   7.690 -0.6784  0.1398  0.2471
 1002MOL0     O35143   3.251   0.544   7.614 -0.4187 -0.8089 -0.1471
 1002MOL0     C35144   3.391   0.545   7.662  0.2927 -0.7472  0.6195
 1002MOL0     C35145   3.481   0.590   7.544 -0.0167 -0.2325 -0.4267
 1002MOL0     C35146   3.591   0.667   7.618 -0.0047  0.2909 -0.0554
 1002MOL0     C35147   3.718   0.702   7.532  0.5681 -0.4834 -0.5733
 1002MOL0     C35148   3.837   0.746   7.621  0.3207 -0.2908 -0.3364
 1002MOL0     C35149   3.935   0.824   7.534  0.1210 -0.7271  0.2384
 1002MOL0     C35150   4.061   0.889   7.591  0.4151  0.1873  0.9294
 1002MOL0     C35151   4.153   0.942   7.482  0.3112  0.1233 -0.3535
 1002MOL0     N35152   4.272   1.013   7.532 -0.2846  0.0880  0.6735
 1002MOL0     C35153   4.273   1.141   7.568 -0.1607 -0.7186  0.6350
 1002MOL0     C35154   4.403   1.176   7.581 -0.7211  0.6443 -0.7864
 1002MOL0     C35155   4.462   1.311   7.618  0.9246 -0.8102  0.3873
 1002MOL0     C35156   4.522   1.378   7.488  0.4176  0.5099 -0.5069
 1002MOL0     C35157   4.595   1.515   7.533  0.0128 -0.0093  0.5565
 1002MOL0     C35158   4.659   1.589   7.412  0.0647 -0.1099  0.7319
 1002MOL0     O35159   4.751   1.687   7.469  0.6814  0.3044 -0.0591
 1002MOL0     C35160   4.874   1.644   7.523  0.0184  0.3778 -0.1185
 1002MOL0     C35161   4.932   1.515   7.496 -0.3591 -0.1753  0.2872
 1002MOL0     C35162   5.045   1.473   7.557  0.5043 -0.1182 -0.2091
 1002MOL0     C35163   5.119   1.557   7.631  0.6041  0.0471  0.0256
 1002MOL0     C35164   5.256   1.515   7.678  0.3290 -0.0168 -0.1472
 1002MOL0     O35165   5.327   1.617   7.733  0.4315 -0.0402 -0.8825
 1002MOL0     C35166   5.448   1.589   7.791 -0.1946 -0.0864 -0.6693
 1002MOL0     C35167   5.548   1.673   7.752  0.4384 -0.5361 -0.0023
 1002MOL0     C35168   5.675   1.667   7.818 -0.0378  0.0672 -0.1630
 1002MOL0     C35169   5.703   1.567   7.913 -0.2425 -0.0425  0.4299
 1002MOL0     O35170   5.825   1.578   7.971 -0.2857  0.0704  0.1164
 1002MOL0     C35171   5.821   1.612   8.111 -1.0029 -0.3497  0.4835
 1002MOL0     C35172   5.955   1.573   8.162 -0.3452  0.7859 -0.8655
 1002MOL0     C35173   5.957   1.606   8.310  0.1272 -0.0611  0.4090
 1002MOL0     C35174   6.103   1.624   8.355  0.2831  0.0446 -0.0902
 1002MOL0     C35175   6.116   1.583   8.502 -0.5739  0.7253 -0.1247
 1002MOL0     C35176   6.249   1.616   8.563 -0.3329 -0.1222 -0.4384
 1002MOL0     C35177   6.252   1.595   8.718 -0.0024  0.0456 -0.3502
 1002MOL0     C35178   6.159   1.684   8.798  0.1646  0.0427 -0.2161
 1002MOL0    Cl35179   6.199   1.662   8.976  0.0368  0.2721  0.1094
 1002MOL0     C35180   5.600   1.482   7.956 -0.0359 -0.5714 -0.1845
 1002MOL0     C35181   5.470   1.494   7.889 -0.2368  0.6866  1.1618
 1002MOL0     O35182   5.294   1.396   7.670 -0.0628  0.5982 -0.5629
 1002MOL0     C35183   5.062   1.683   7.661  0.4930 -0.3808  0.1548
 1002MOL0     C35184   4.946   1.732   7.615 -0.0839  0.1348  0.2673
 1002MOL0     N35185   4.484   1.064   7.562 -0.1445  1.1374  0.1398
 1002MOL0     N35186   4.402   0.967   7.540  0.1641  2.1790  0.3153
 1002MOL0     C35187   3.036   0.477   7.632 -0.1550  1.0394  0.5025
 1002MOL0     C35188   2.933   0.411   7.695  0.0103 -0.6161 -0.0179
 1002MOL0     C35189   2.723   0.061   7.912  0.0682 -0.8376 -0.0426
 1002MOL0     C35190   2.629   0.142   7.980 -0.8804  0.7886  0.6529
 1002MOL0     C35191   2.538   0.081   8.067 -1.0488 -0.1532 -0.5340
 1002MOL0     C35192   2.528  -0.059   8.085 -0.2904  0.0189  0.2446
 1002MOL0     O35193   2.444  -0.119   8.167  0.4441 -0.0296 -0.6183
 1002MOL0     C35194   2.353  -0.219   8.118 -0.3513 -0.2013  0.2346
 1002MOL0     C35195   2.266  -0.151   8.006 -0.5625  0.6705 -0.0598
 1002MOL0     C35196   2.134  -0.223   7.999 -0.5320 -0.4502  0.5711
 1002MOL0     C35197   2.017  -0.148   8.065 -0.1759 -0.3548  0.5209
 1002MOL0     C35198   1.900  -0.229   8.065  0.0123 -0.6274 -0.0940
 1002MOL0     C35199   1.792  -0.284   8.062  0.0550  0.5794 -0.3663
 1002MOL0     C35200   2.618  -0.138   8.003 -0.9815  0.3484  0.2409
 1002MOL0     C35201   2.711  -0.076   7.917  0.4797  0.2953  0.2004
 1002MOL0     C35202   2.790  -0.169   7.816 -0.5645  0.4043 -0.3360
 1002MOL0     H35203   3.080   0.299   7.968 -0.0760  0.4078 -0.0486
 1002MOL0     H35204   3.275   0.432   7.862  0.6794  0.7132 -0.9487
 1002MOL0     H35205   3.398   0.614   7.746  1.1180 -0.9940  0.7607
 1002MOL0     H35206   3.429   0.450   7.699 -0.1989 -1.0266  0.4256
 1002MOL0     H35207   3.428   0.650   7.470  2.6091 -0.5270 -2.7042
 1002MOL0     H35208   3.513   0.496   7.499 -0.4959 -0.5650 -0.0887
 1002MOL0     H35209   3.629   0.622   7.710 -2.0762  0.4036  0.8976
 1002MOL0     H35210   3.545   0.764   7.641  1.4756  0.8523  0.6761
 1002MOL0     H35211   3.727   0.603   7.486  0.4270 -1.6153  1.6920
 1002MOL0     H35212   3.692   0.781   7.462  0.1082 -0.2536 -0.1502
 1002MOL0     H35213   3.806   0.801   7.710 -0.6422 -0.3454 -0.6225
 1002MOL0     H35214   3.899   0.661   7.651  1.0323 -0.0954 -1.2119
 1002MOL0     H35215   3.968   0.759   7.453 -0.3451 -0.3417 -0.2665
 1002MOL0     H35216   3.884   0.910   7.489  1.8692 -0.8376 -2.1256
 1002MOL0     H35217   4.110   0.800   7.631 -3.3370 -1.6304  1.9000
 1002MOL0     H35218   4.046   0.967   7.667 -1.2599  2.2833 -1.3977
 1002MOL0     H35219   4.192   0.865   7.415  0.8779  1.0872 -1.1578
 1002MOL0     H35220   4.095   1.011   7.421 -4.8743 -1.3037  2.3871
 1002MOL0     H35221   4.194   1.211   7.592 -1.0780 -2.6005  3.6451
 1002MOL0     H35222   4.379   1.370   7.658  0.7206  0.1218 -1.2904
 1002MOL0     H35223   4.534   1.301   7.699 -0.2332  3.1437  2.1647
 1002MOL0     H35224   4.597   1.313   7.442  1.5858  1.0317  0.5871
 1002MOL0     H35225   4.440   1.389   7.417 -1.5099 -2.1882  1.1249
 1002MOL0     H35226   4.669   1.479   7.606 -4.3557 -1.0731  4.9892
 1002MOL0     H35227   4.537   1.584   7.596  2.8857  0.7499  2.5953
 1002MOL0     H35228   4.585   1.633   7.344  1.3207  1.5410  0.3735
 1002MOL0     H35229   4.713   1.518   7.348 -2.0917 -1.9820  0.8328
 1002MOL0     H35230   4.889   1.450   7.421  0.9299  0.7875 -1.3693
 1002MOL0     H35231   5.092   1.378   7.530  2.7519  0.2742  1.9201
 1002MOL0     H35232   5.546   1.749   7.674  3.3146  0.1600  0.5161
 1002MOL0     H35233   5.756   1.733   7.789 -0.5706 -0.6114 -3.7779
 1002MOL0     H35234   5.790   1.715   8.130  1.1945  0.1750  1.6333
 1002MOL0     H35235   5.752   1.549   8.169  0.7151 -0.0337  3.0057
 1002MOL0     H35236   5.979   1.469   8.138  2.0232  1.6714 -2.6869
 1002MOL0     H35237   6.031   1.637   8.118  1.5720 -0.9948 -0.3122
 1002MOL0     H35238   5.897   1.696   8.323  1.2812  1.4165 -3.1854
 1002MOL0     H35239   5.919   1.519   8.365 -1.7935  1.1923  1.1460
 1002MOL0     H35240   6.144   1.725   8.342  0.4436  0.0311  0.3234
 1002MOL0     H35241   6.172   1.562   8.297 -0.9388 -0.6388 -0.8512
 1002MOL0     H35242   6.100   1.475   8.509  2.3605  0.3068  1.9382
 1002MOL0     H35243   6.044   1.648   8.553 -1.3637  1.2204 -1.7964
 1002MOL0     H35244   6.322   1.548   8.518  0.1581 -0.3542  0.6745
 1002MOL0     H35245   6.278   1.719   8.541 -2.6000  0.4739 -0.9004
 1002MOL0     H35246   6.355   1.620   8.745 -0.2930  0.6583  0.2242
 1002MOL0     H35247   6.231   1.491   8.744 -0.5714  0.8948  2.9484
 1002MOL0     H35248   6.167   1.790   8.772 -2.0717 -0.2697 -2.5338
 1002MOL0     H35249   6.054   1.653   8.795 -0.6838  2.7350 -0.8079
 1002MOL0     H35250   5.612   1.413   8.039 -1.1085 -0.6586 -0.0973
 1002MOL0     H35251   5.396   1.417   7.902  0.6979 -0.5956 -0.6000
 1002MOL0     H35252   5.098   1.755   7.733  0.2234  1.5305 -1.5137
 1002MOL0     H35253   4.929   1.837   7.639  0.1066  0.6451 -1.6429
 1002MOL0     H35254   3.038   0.537   7.541  2.9280 -1.5757 -1.3700
 1002MOL0     H35255   2.835   0.424   7.649  1.4019  3.5348 -2.2811
 1002MOL0     H35256   2.635   0.249   7.968 -0.1595  0.7035  0.1623
 1002MOL0     H35257   2.479   0.155   8.122  1.2349  1.0322  0.4724
 1002MOL0     H35258   2.285  -0.240   8.201 -2.2414  1.7253 -0.7099
 1002MOL0     H35259   2.411  -0.306   8.089  2.4293  1.6365 -0.1415
 1002MOL0     H35260   2.324  -0.149   7.913  0.4968 -0.5494  0.5439
 1002MOL0     H35261   2.247  -0.045   8.026 -5.2543 -0.3945  2.5096
 1002MOL0     H35262   2.145  -0.325   8.036 -3.4977 -0.0349  3.0583
 1002MOL0     H35263   2.108  -0.229   7.893 -0.2482  0.9814  0.3949
 1002MOL0     H35264   2.047  -0.121   8.167  0.0716 -0.0892  0.3790
 1002MOL0     H35265   2.002  -0.054   8.011  3.2060 -1.7090 -3.2628
 1002MOL0     H35266   1.692  -0.322   8.066  0.9683 -1.9136  0.5928
 1002MOL0     H35267   2.610  -0.246   8.010  0.4273  0.2812  1.3054
 1002MOL0     H35268   2.893  -0.159   7.851 -0.5857 -0.4280 -0.0236
 1002MOL0     H35269   2.764  -0.274   7.827 -0.1384  0.5247  2.7959
 1002MOL0     H35270   2.780  -0.123   7.717 -0.6941  2.4110  0.5578
 1003MOL0     O35271   9.039   2.953  11.057 -0.7935  0.7595  0.2134
 1003MOL0     C35272   9.055   2.837  11.027 -0.1096 -0.0540 -0.6848
 1003MOL0     O35273   9.164   2.759  11.064  0.1299 -0.2219 -0.2567
 1003MOL0     C35274   9.263   2.807  11.141 -0.0844 -0.1495 -0.6843
 1003MOL0     C35275   9.369   2.880  11.081  0.4284  0.8117 -0.0989
 1003MOL0     C35276   9.481   2.930  11.150 -0.3983 -0.3901  0.1121
 1003MOL0     C35277   9.470   2.931  11.291 -0.8497 -0.2209  0.5081
 1003MOL0     O35278   9.564   2.996  11.369 -0.1227 -0.2389 -0.4477
 1003MOL0     C35279   9.650   2.902  11.435  0.1683 -0.8854  0.7163
 1003MOL0     C35280   9.765   2.861  11.334 -0.3339 -0.0131  0.7659
 1003MOL0     C35281   9.846   2.750  11.402 -0.2512  0.3312 -0.3617
 1003MOL0     C35282   9.907   2.800  11.538 -0.4948  0.4407  0.1103
 1003MOL0     C35283  10.012   2.704  11.596 -0.8086 -0.4495 -0.2060
 1003MOL0     C35284  10.140   2.717  11.523 -0.7004  0.4122 -0.7864
 1003MOL0     C35285  10.253   2.628  11.587 -0.0949 -0.2777  0.1448
 1003MOL0     C35286  10.227   2.483  11.598 -0.0200  0.2771 -0.9191
 1003MOL0     N35287  10.350   2.408  11.636 -0.5532 -0.2446 -0.3247
 1003MOL0     C35288  10.443   2.360  11.549  0.7915 -1.3948 -0.7848
 1003MOL0     C35289  10.528   2.289  11.627  0.5829  0.0775 -0.4762
 1003MOL0     C35290  10.652   2.220  11.582 -0.7065 -0.1011 -0.0315
 1003MOL0     C35291  10.768   2.241  11.691 -0.3227 -0.0439 -0.0325
 1003MOL0     C35292  10.911   2.211  11.633  0.5830  0.7363 -0.4903
 1003MOL0     C35293  11.018   2.201  11.743 -1.0063 -0.2877  0.7073
 1003MOL0     O35294  11.143   2.212  11.677  0.4415  0.0373  0.4068
 1003MOL0     C35295  11.257   2.235  11.746 -0.0538  0.6655  0.3248
 1003MOL0     C35296  11.370   2.234  11.663  0.0581  0.2680 -0.8730
 1003MOL0     C35297  11.499   2.261  11.715 -0.7730 -0.2392 -0.5253
 1003MOL0     C35298  11.517   2.289  11.850 -1.2392  0.3803 -0.6599
 1003MOL0     C35299  11.652   2.299  11.911 -0.3454 -0.1927 -0.9322
 1003MOL0     O35300  11.750   2.341  11.830 -0.7655 -0.5064  0.4407
 1003MOL0     C35301  11.873   2.402  11.873 -0.0615  0.0553 -0.0845
 1003MOL0     C35302  11.988   2.405  11.793 -0.6919  1.1228 -0.0136
 1003MOL0     C35303  12.108   2.462  11.840  0.3320  0.1079 -0.1432
 1003MOL0     C35304  12.128   2.515  11.970 -0.6591 -0.3157  0.7281
 1003MOL0     O35305  12.253   2.562  12.017 -0.3045  0.4389  0.0393
 1003MOL0     C35306  12.365   2.563  11.927  0.0425  0.0230  0.4807
 1003MOL0     C35307  12.477   2.617  12.010 -0.5502 -0.1327  0.4678
 1003MOL0     C35308  12.597   2.641  11.915  0.5247 -0.8110  0.7343
 1003MOL0     C35309  12.722   2.689  12.005  0.2148 -0.0585 -0.7813
 1003MOL0     C35310  12.838   2.752  11.925 -0.8060  0.8454 -0.0265
 1003MOL0     C35311  12.956   2.814  12.001 -0.4655  0.1873 -0.9806
 1003MOL0     C35312  13.042   2.717  12.092  0.0536 -0.2414 -0.0426
 1003MOL0     C35313  13.171   2.762  12.160  0.2250  0.2683  0.1197
 1003MOL0    Cl35314  13.271   2.829  12.032 -0.1902 -0.1201 -0.0950
 1003MOL0     C35315  12.013   2.516  12.045 -0.0838  0.1749 -0.8973
 1003MOL0     C35316  11.885   2.456  12.001 -0.5840 -0.6266 -0.2294
 1003MOL0     O35317  11.662   2.263  12.034 -1.0849  0.2575  1.0401
 1003MOL0     C35318  11.403   2.282  11.932  0.2020 -0.6540  0.6374
 1003MOL0     C35319  11.275   2.264  11.882  0.2762 -0.4607  0.0992
 1003MOL0     N35320  10.479   2.280  11.754  0.2606  0.3597 -0.3145
 1003MOL0     N35321  10.383   2.367  11.759 -0.1244  0.0739 -0.0109
 1003MOL0     C35322   9.362   2.871  11.350  0.1845  0.2266 -0.6883
 1003MOL0     C35323   9.257   2.805  11.282 -1.0382  0.1000  0.0155
 1003MOL0     C35324   8.940   2.768  10.968 -0.7489  0.5070  0.0251
 1003MOL0     C35325   8.943   2.628  10.942 -0.1957 -0.2812  0.6047
 1003MOL0     C35326   8.842   2.554  10.880 -0.2633  0.2754  0.2475
 1003MOL0     C35327   8.721   2.620  10.841 -0.4028  0.0447 -0.8193
 1003MOL0     O35328   8.621   2.541  10.782  0.3970 -0.0797 -0.0495
 1003MOL0     C35329   8.501   2.612  10.750  0.2397  0.3010  0.1548
 1003MOL0     C35330   8.397   2.504  10.741 -0.4833  0.7776 -0.1115
 1003MOL0     C35331   8.252   2.562  10.738 -0.0420 -0.1450 -1.2714
 1003MOL0     C35332   8.223   2.655  10.619 -0.3652 -0.9575  0.4122
 1003MOL0     C35333   8.097   2.725  10.636 -0.6140  0.0266 -0.2466
 1003MOL0     C35334   8.010   2.795  10.677  0.0753  0.7638  0.1628
 1003MOL0     C35335   8.711   2.759  10.877 -0.3794  0.1340 -0.0697
 1003MOL0     C35336   8.818   2.834  10.928  0.6668  0.1256 -0.8100
 1003MOL0     C35337   8.795   2.978  10.965 -0.4486 -0.1937 -0.6739
 1003MOL0     H35338   9.366   2.892  10.973 -2.6920 -2.7174 -0.6097
 1003MOL0     H35339   9.565   2.974  11.097 -1.3748 -0.4246 -1.5403
 1003MOL0     H35340   9.701   2.941  11.523  1.5322  1.0243 -0.8254
 1003MOL0     H35341   9.602   2.809  11.468 -0.3041 -1.3519 -1.1341
 1003MOL0     H35342   9.834   2.945  11.322  2.8310 -2.6554 -1.5922
 1003MOL0     H35343   9.724   2.832  11.237 -2.4230  0.6082  1.4108
 1003MOL0     H35344   9.924   2.713  11.334  1.5264  3.0789  0.0390
 1003MOL0     H35345   9.791   2.658  11.424  1.8977 -0.8979  0.1448
 1003MOL0     H35346   9.955   2.895  11.512 -2.4950  1.0167 -1.8193
 1003MOL0     H35347   9.832   2.830  11.612 -0.1225 -0.0726  0.7108
 1003MOL0     H35348  10.014   2.729  11.703 -2.0234  4.1544 -1.0443
 1003MOL0     H35349   9.973   2.602  11.590  1.5883 -1.4214 -0.3983
 1003MOL0     H35350  10.132   2.688  11.418  1.8500 -0.3794 -0.8160
 1003MOL0     H35351  10.176   2.820  11.514 -2.1258  0.8226 -2.2702
 1003MOL0     H35352  10.276   2.663  11.688  1.1416  1.2365 -0.6003
 1003MOL0     H35353  10.348   2.631  11.532  0.7443 -1.1459  1.4836
 1003MOL0     H35354  10.151   2.462  11.673 -1.1483  2.2999 -1.4370
 1003MOL0     H35355  10.200   2.443  11.500  0.8140 -0.8237 -0.7163
 1003MOL0     H35356  10.447   2.380  11.442  3.8846 -1.0187 -0.6854
 1003MOL0     H35357  10.627   2.113  11.587  0.2232 -0.2965  3.3710
 1003MOL0     H35358  10.690   2.253  11.485 -0.1949  2.5959  1.0086
 1003MOL0     H35359  10.773   2.340  11.736  2.5877  0.2368 -0.7573
 1003MOL0     H35360  10.748   2.164  11.767  0.0786  0.9626  1.1125
 1003MOL0     H35361  10.943   2.289  11.563 -1.5472  2.5900  0.4779
 1003MOL0     H35362  10.907   2.121  11.571  0.6949 -1.2853  2.2560
 1003MOL0     H35363  11.013   2.106  11.797 -0.9915  0.3067  1.7892
 1003MOL0     H35364  11.010   2.278  11.821 -3.2403  2.5176 -2.0336
 1003MOL0     H35365  11.364   2.200  11.560 -0.6088 -2.1349 -0.0947
 1003MOL0     H35366  11.574   2.262  11.636  0.3588 -0.0414  0.5175
 1003MOL0     H35367  11.982   2.364  11.692  0.3259 -2.1884  1.1430
 1003MOL0     H35368  12.193   2.458  11.774  0.3250  1.4871 -0.2707
 1003MOL0     H35369  12.388   2.465  11.885 -0.1152  0.0134  0.4169
 1003MOL0     H35370  12.344   2.635  11.847 -1.1549  0.6164  1.3041
 1003MOL0     H35371  12.435   2.705  12.060 -3.2722 -1.6425  1.0684
 1003MOL0     H35372  12.510   2.553  12.092  1.0724  0.5401  0.3784
 1003MOL0     H35373  12.628   2.546  11.871  1.2064 -0.5742  0.6861
 1003MOL0     H35374  12.576   2.715  11.837  2.8904 -0.9867 -0.1533
 1003MOL0     H35375  12.756   2.607  12.069 -0.7646 -0.0232 -0.1936
 1003MOL0     H35376  12.686   2.772  12.067  2.8328  2.5782 -2.5179
 1003MOL0     H35377  12.805   2.836  11.863 -0.4456  1.0946  0.1136
 1003MOL0     H35378  12.874   2.675  11.856 -0.0308 -0.2966  1.5977
 1003MOL0     H35379  13.025   2.864  11.932 -0.9221 -0.3215 -1.8170
 1003MOL0     H35380  12.904   2.889  12.061 -2.1203  0.1403 -2.2906
 1003MOL0     H35381  13.064   2.635  12.024 -1.9496 -0.7322 -0.1677
 1003MOL0     H35382  12.984   2.668  12.171  0.6470 -1.7856 -0.5278
 1003MOL0     H35383  13.159   2.837  12.239  0.4817 -0.4635  0.8686
 1003MOL0     H35384  13.218   2.674  12.205 -0.6360  0.2010  0.9194
 1003MOL0     H35385  12.021   2.560  12.143  1.7246 -1.0861 -0.4220
 1003MOL0     H35386  11.792   2.472  12.055 -1.0700 -2.7939 -0.3203
 1003MOL0     H35387  11.411   2.293  12.039 -2.6064  1.9569  0.7173
 1003MOL0     H35388  11.185   2.255  11.942  0.4307 -3.1990  0.0781
 1003MOL0     H35389   9.361   2.884  11.458  1.6981 -0.7169 -0.5239
 1003MOL0     H35390   9.173   2.749  11.320 -1.8466  0.0366 -1.7442
 1003MOL0     H35391   9.029   2.566  10.963  0.8782  0.7763 -0.4853
 1003MOL0     H35392   8.852   2.449  10.856  0.4002  0.6665 -1.2979
 1003MOL0     H35393   8.523   2.658  10.653  1.2847 -4.8155 -2.3675
 1003MOL0     H35394   8.475   2.674  10.836 -0.6793  1.0695 -0.6534
 1003MOL0     H35395   8.409   2.454  10.838  0.2861  2.3038  0.6168
 1003MOL0     H35396   8.417   2.434  10.660  0.8332 -1.4995  2.0123
 1003MOL0     H35397   8.229   2.615  10.830 -0.5571 -2.4356 -0.0002
 1003MOL0     H35398   8.179   2.481  10.747  0.0873  0.0094  2.5364
 1003MOL0     H35399   8.296   2.736  10.608 -2.2215  0.7551  0.1800
 1003MOL0     H35400   8.219   2.601  10.524 -1.0590  0.5557 -0.4615
 1003MOL0     H35401   7.935   2.859  10.720  0.6870  0.5803  1.5830
 1003MOL0     H35402   8.622   2.813  10.845  0.5499  0.1436 -2.9219
 1003MOL0     H35403   8.794   2.988  11.074 -0.8350 -0.3842 -0.6598
 1003MOL0     H35404   8.866   3.051  10.927 -1.9402 -0.0120 -3.3074
 1003MOL0     H35405   8.693   3.000  10.933 -1.0147 -2.7696 -0.8391
 1004MOL0     O35406   9.782   6.161   6.492  0.2051 -0.5825  0.3522
 1004MOL0     C35407   9.718   6.056   6.476 -0.0115  0.3946  0.4369
 1004MOL0     O35408   9.585   6.054   6.441 -0.1481  1.4747 -0.1889
 1004MOL0     C35409   9.495   6.160   6.425  0.8780 -0.1676  0.7097
 1004MOL0     C35410   9.357   6.121   6.441 -0.8292  0.2142 -0.5125
 1004MOL0     C35411   9.258   6.215   6.414  0.3587 -0.1715 -0.7587
 1004MOL0     C35412   9.293   6.341   6.359  0.3735 -0.1735  0.0557
 1004MOL0     O35413   9.201   6.429   6.325  0.0474  0.1433 -0.0088
 1004MOL0     C35414   9.157   6.518   6.430 -0.4333 -0.0591 -0.0682
 1004MOL0     C35415   9.046   6.474   6.525 -0.4877  0.4283 -0.2518
 1004MOL0     C35416   8.907   6.454   6.464 -0.6086 -0.3584  0.5907
 1004MOL0     C35417   8.911   6.388   6.327 -0.3274  0.6402 -0.2013
 1004MOL0     C35418   8.765   6.345   6.287 -0.4772 -0.1185  0.2973
 1004MOL0     C35419   8.722   6.215   6.333 -0.0903 -0.2558 -0.8097
 1004MOL0     C35420   8.784   6.108   6.247 -0.6759  0.4025  0.4694
 1004MOL0     C35421   8.756   5.961   6.291 -0.0780 -1.0073 -0.4299
 1004MOL0     N35422   8.826   5.911   6.415  0.2897 -0.5731 -0.1059
 1004MOL0     C35423   8.919   5.808   6.423  1.1843  0.3231  0.5589
 1004MOL0     C35424   8.931   5.779   6.556  0.3613 -0.6399 -0.3556
 1004MOL0     C35425   9.024   5.679   6.609 -0.4655 -0.2433  0.3281
 1004MOL0     C35426   9.148   5.746   6.659  0.5792 -0.2277  0.0137
 1004MOL0     C35427   9.240   5.780   6.552  0.0885  0.2309  0.0907
 1004MOL0     C35428   9.305   5.667   6.477 -0.3653  0.0356  0.0813
 1004MOL0     O35429   9.353   5.560   6.564 -0.2719 -0.0543 -0.7182
 1004MOL0     C35430   9.460   5.488   6.520 -0.4150  0.3795 -0.1363
 1004MOL0     C35431   9.522   5.495   6.398  0.6576 -0.0268 -0.2635
 1004MOL0     C35432   9.636   5.407   6.370  0.8015 -0.3769  0.4602
 1004MOL0     C35433   9.696   5.332   6.469  0.0949  0.1450 -0.4242
 1004MOL0     C35434   9.820   5.259   6.440 -0.2239 -0.4764 -0.0334
 1004MOL0     O35435   9.890   5.303   6.333 -0.2344  0.0560 -0.6624
 1004MOL0     C35436  10.028   5.310   6.343  0.4648  0.3179  0.4979
 1004MOL0     C35437  10.112   5.197   6.363 -0.3837 -0.1297  0.1597
 1004MOL0     C35438  10.253   5.207   6.352 -0.0393  0.6231  0.1306
 1004MOL0     C35439  10.309   5.324   6.309  0.3509 -0.5933  0.1650
 1004MOL0     O35440  10.440   5.317   6.291 -0.5192 -0.3517  0.1823
 1004MOL0     C35441  10.502   5.411   6.205  0.4042 -0.8673 -0.1902
 1004MOL0     C35442  10.655   5.374   6.176 -0.1679  0.2381  0.0776
 1004MOL0     C35443  10.674   5.258   6.077  0.8750 -0.1381  0.1853
 1004MOL0     C35444  10.821   5.258   6.031  0.5445 -0.6708 -0.3971
 1004MOL0     C35445  10.868   5.123   5.980 -0.5161  0.7905  0.3890
 1004MOL0     C35446  11.012   5.122   5.928 -0.1609 -0.0606 -0.4855
 1004MOL0     C35447  11.116   5.120   6.046  0.7859  0.0809  0.0532
 1004MOL0     C35448  11.242   5.055   6.006 -0.0282 -0.0734  0.4721
 1004MOL0    Cl35449  11.366   5.074   6.129 -0.1407 -0.2716 -0.2354
 1004MOL0     C35450  10.228   5.441   6.290 -0.6761  0.1780 -0.4313
 1004MOL0     C35451  10.089   5.433   6.299  0.5556  0.2695  0.8102
 1004MOL0     O35452   9.863   5.185   6.532  0.7023  0.7365 -0.3312
 1004MOL0     C35453   9.638   5.331   6.596  0.1710 -0.3828 -0.8962
 1004MOL0     C35454   9.523   5.411   6.616 -0.7672  0.1730 -0.2940
 1004MOL0     N35455   8.866   5.876   6.626 -0.2237  0.4237  1.1293
 1004MOL0     N35456   8.804   5.957   6.540  1.3523  0.8480 -0.3165
 1004MOL0     C35457   9.426   6.380   6.345  1.0028  0.5675 -0.6009
 1004MOL0     C35458   9.532   6.291   6.385  0.4572 -0.3939  0.5109
 1004MOL0     C35459   9.781   5.929   6.499 -0.2224 -0.4712  0.0386
 1004MOL0     C35460   9.711   5.829   6.553  0.0195  1.0232  0.4456
 1004MOL0     C35461   9.764   5.704   6.585  0.1890 -0.1280  0.9751
 1004MOL0     C35462   9.894   5.672   6.547  0.0300  0.1848 -0.7266
 1004MOL0     O35463   9.951   5.550   6.574 -0.4309  0.1765  0.4162
 1004MOL0     C35464   9.965   5.514   6.711 -0.8063  0.6037 -0.3674
 1004MOL0     C35465  10.097   5.432   6.738  0.5093 -0.2458  0.1798
 1004MOL0     C35466  10.225   5.512   6.727 -0.0727  0.5095 -0.0144
 1004MOL0     C35467  10.351   5.433   6.763 -0.0002  0.9500  0.1884
 1004MOL0     C35468  10.479   5.510   6.732  1.2461 -0.4295  0.8281
 1004MOL0     C35469  10.576   5.537   6.674  0.0723  0.8171  0.7101
 1004MOL0     C35470   9.973   5.771   6.492 -0.0634 -0.7413 -0.0008
 1004MOL0     C35471   9.917   5.899   6.464 -0.0356  0.4539 -0.6569
 1004MOL0     C35472  10.002   6.006   6.399  0.2461  0.3970 -0.7070
 1004MOL0     H35473   9.331   6.023   6.477 -0.5569 -0.0003 -0.8868
 1004MOL0     H35474   9.152   6.198   6.431  1.0132 -2.4600  1.8913
 1004MOL0     H35475   9.243   6.540   6.494 -1.8385 -1.0913  2.2979
 1004MOL0     H35476   9.130   6.609   6.375  0.6515  1.7918  2.2600
 1004MOL0     H35477   9.034   6.549   6.603 -1.9592 -0.1528  0.1178
 1004MOL0     H35478   9.078   6.378   6.566  1.7922  0.0425 -2.6430
 1004MOL0     H35479   8.871   6.557   6.453 -1.4617 -0.8111 -1.2401
 1004MOL0     H35480   8.843   6.413   6.543  1.7037  2.0201  3.9863
 1004MOL0     H35481   8.948   6.464   6.258 -0.2471 -0.0664 -0.9489
 1004MOL0     H35482   8.977   6.302   6.323 -0.9409 -0.2239  3.6620
 1004MOL0     H35483   8.697   6.420   6.328 -1.7856 -0.1732 -1.6486
 1004MOL0     H35484   8.758   6.351   6.178 -0.6875  0.5849  0.3478
 1004MOL0     H35485   8.766   6.196   6.432  1.7238  0.3349 -1.4840
 1004MOL0     H35486   8.613   6.220   6.335 -0.0954  1.2828  2.3697
 1004MOL0     H35487   8.893   6.120   6.254 -0.8914  2.3201  1.5454
 1004MOL0     H35488   8.754   6.118   6.143 -0.1164 -1.2969  0.1136
 1004MOL0     H35489   8.651   5.965   6.322 -0.7013  1.3512 -2.4383
 1004MOL0     H35490   8.768   5.896   6.204  0.1808 -0.9892 -0.4068
 1004MOL0     H35491   8.966   5.768   6.334 -2.6798 -0.5964 -1.2493
 1004MOL0     H35492   8.971   5.642   6.698 -0.5778  0.3737  0.5269
 1004MOL0     H35493   9.029   5.595   6.539 -3.6085 -0.8314  0.6784
 1004MOL0     H35494   9.125   5.838   6.713  1.2306  0.4336 -0.8039
 1004MOL0     H35495   9.187   5.677   6.734  1.7744 -1.7213 -1.8793
 1004MOL0     H35496   9.322   5.833   6.600  0.1094  0.8982 -0.6609
 1004MOL0     H35497   9.185   5.851   6.489  0.4428  1.2594  0.9120
 1004MOL0     H35498   9.385   5.714   6.418 -0.4117 -2.0925 -1.8370
 1004MOL0     H35499   9.238   5.623   6.403 -0.1467  0.7585 -0.5654
 1004MOL0     H35500   9.473   5.536   6.310  1.7015  0.0323 -0.8364
 1004MOL0     H35501   9.672   5.415   6.269  2.6956  1.4511  1.2075
 1004MOL0     H35502  10.065   5.100   6.378  1.5827 -1.2854 -0.6174
 1004MOL0     H35503  10.311   5.116   6.364 -1.4578 -0.1762  1.3332
 1004MOL0     H35504  10.442   5.420   6.114 -0.0329  2.2584  0.3074
 1004MOL0     H35505  10.510   5.510   6.252  1.3853 -0.6850 -0.7035
 1004MOL0     H35506  10.707   5.465   6.144  2.0398 -0.2533  1.9980
 1004MOL0     H35507  10.702   5.360   6.274 -2.0898  2.4591  1.4206
 1004MOL0     H35508  10.651   5.159   6.116  0.4672  0.0507  0.4260
 1004MOL0     H35509  10.607   5.277   5.993 -1.5095  1.2685  2.2852
 1004MOL0     H35510  10.880   5.301   6.112  0.7462 -0.2437 -0.7629
 1004MOL0     H35511  10.827   5.328   5.946  0.0424  0.5454  0.5363
 1004MOL0     H35512  10.792   5.090   5.908 -2.5646 -0.9625  3.1305
 1004MOL0     H35513  10.853   5.048   6.058 -4.8551  0.4419 -0.5376
 1004MOL0     H35514  11.030   5.026   5.878 -3.6221 -0.3208 -1.4635
 1004MOL0     H35515  11.026   5.206   5.859 -0.9640  1.3128  0.9652
 1004MOL0     H35516  11.081   5.065   6.133  3.3495 -0.0323  1.0895
 1004MOL0     H35517  11.133   5.218   6.090 -0.5512  0.6527 -0.6482
 1004MOL0     H35518  11.230   4.951   5.973 -1.8081  0.0823  0.5107
 1004MOL0     H35519  11.281   5.113   5.922 -4.0265  1.1949 -0.7451
 1004MOL0     H35520  10.281   5.530   6.259 -1.7469  0.4102 -1.6525
 1004MOL0     H35521  10.036   5.526   6.284  0.6370  0.4315  1.4799
 1004MOL0     H35522   9.687   5.282   6.680 -0.5243  1.7982  0.8943
 1004MOL0     H35523   9.488   5.408   6.719  1.3124 -0.7621  0.4402
 1004MOL0     H35524   9.449   6.480   6.311 -2.8327  1.9887  0.5474
 1004MOL0     H35525   9.636   6.325   6.381  0.5950 -0.9096 -1.4230
 1004MOL0     H35526   9.605   5.848   6.569  0.3913  1.5025  2.6748
 1004MOL0     H35527   9.702   5.625   6.627 -0.8328  0.0006 -0.2150
 1004MOL0     H35528   9.885   5.443   6.735  1.8017 -1.9347  1.5071
 1004MOL0     H35529   9.950   5.602   6.774  1.9251  1.2525 -0.5208
 1004MOL0     H35530  10.103   5.358   6.658 -0.0249  1.7538 -1.8042
 1004MOL0     H35531  10.092   5.381   6.835 -0.3551 -1.4067 -0.4449
 1004MOL0     H35532  10.226   5.590   6.805  0.8709  0.5155 -0.0114
 1004MOL0     H35533  10.235   5.561   6.630  0.1221 -0.0680 -0.2913
 1004MOL0     H35534  10.347   5.420   6.871 -0.9863  2.7590  0.4185
 1004MOL0     H35535  10.356   5.335   6.716 -1.6677  0.1202  1.6583
 1004MOL0     H35536  10.667   5.546   6.618 -1.8330  0.6974 -2.7081
 1004MOL0     H35537  10.078   5.756   6.470 -0.1217  0.1011 -0.9303
 1004MOL0     H35538  10.027   6.072   6.483 -0.5805 -0.0212 -0.1193
 1004MOL0     H35539  10.096   5.958   6.370  1.5678  1.8334  0.9459
 1004MOL0     H35540   9.958   6.066   6.319 -0.4993  0.2758 -0.3895
 1005MOL0     O35541   1.348   7.610   2.204 -0.4538 -0.3890  0.5545
 1005MOL0     C35542   1.256   7.672   2.254  0.8375 -0.3325  0.9289
 1005MOL0     O35543   1.268   7.784   2.320  0.3442 -0.3950 -0.3042
 1005MOL0     C35544   1.397   7.826   2.357  0.2591 -0.1899  0.1981
 1005MOL0     C35545   1.420   7.819   2.489 -0.2883 -0.6369 -0.7700
 1005MOL0     C35546   1.543   7.852   2.540 -0.1182 -0.1878 -0.7700
 1005MOL0     C35547   1.644   7.917   2.453  0.3721  0.5263 -0.7791
 1005MOL0     O35548   1.766   7.960   2.498  0.5827 -0.0542 -0.4486
 1005MOL0     C35549   1.796   7.946   2.637  0.3025  0.5421 -0.1771
 1005MOL0     C35550   1.910   8.044   2.657  0.3318  0.7240 -0.3391
 1005MOL0     C35551   2.049   8.018   2.582 -0.2558 -0.1927 -1.2559
 1005MOL0     C35552   2.168   8.080   2.673  0.2048 -0.1823  0.6813
 1005MOL0     C35553   2.298   8.020   2.631  0.8243  0.2920 -0.2248
 1005MOL0     C35554   2.410   8.097   2.693  0.3624  0.2386 -0.6719
 1005MOL0     C35555   2.539   8.080   2.613 -0.8077 -0.9178 -0.1149
 1005MOL0     C35556   2.647   8.150   2.697 -0.0629 -0.8420 -0.3394
 1005MOL0     N35557   2.773   8.154   2.626  0.2871  0.4376 -0.3597
 1005MOL0     C35558   2.835   8.035   2.602  0.4118 -0.8349  0.6243
 1005MOL0     C35559   2.955   8.073   2.550  0.6544  0.2474 -0.6489
 1005MOL0     C35560   3.068   7.977   2.509  0.5643 -0.3977 -0.2797
 1005MOL0     C35561   3.194   8.017   2.587  0.7719  0.0653 -0.3626
 1005MOL0     C35562   3.251   7.894   2.659 -0.3666  0.1597 -0.7015
 1005MOL0     C35563   3.306   7.781   2.560 -0.4696 -0.0252  0.1607
 1005MOL0     O35564   3.411   7.693   2.614  0.3521 -0.6287  0.9550
 1005MOL0     C35565   3.527   7.747   2.652  0.2494  0.5543 -0.7090
 1005MOL0     C35566   3.564   7.874   2.609  0.1675  0.5903 -0.0538
 1005MOL0     C35567   3.686   7.921   2.651  0.0992  0.9551 -0.5633
 1005MOL0     C35568   3.777   7.844   2.731  0.0995  0.5576  0.6812
 1005MOL0     C35569   3.913   7.890   2.758 -0.5886 -0.6360 -0.1827
 1005MOL0     O35570   3.975   7.837   2.869  0.2992 -0.3053 -0.5889
 1005MOL0     C35571   4.107   7.876   2.904  0.9830  0.3421  0.5981
 1005MOL0     C35572   4.170   7.998   2.875  0.2938 -0.7949 -0.0739
 1005MOL0     C35573   4.303   8.017   2.926 -0.0916 -0.7613 -0.6020
 1005MOL0     C35574   4.370   7.927   3.009  1.0793  0.3423  0.2404
 1005MOL0     O35575   4.494   7.968   3.048  0.3000 -0.2633 -0.4834
 1005MOL0     C35576   4.551   7.877   3.145  0.1170 -0.1597 -0.5143
 1005MOL0     C35577   4.659   7.947   3.228  0.5215  0.1030 -0.4334
 1005MOL0     C35578   4.795   7.951   3.165 -1.1579  0.0179  0.4904
 1005MOL0     C35579   4.892   8.011   3.261  0.4874 -0.4750  0.1006
 1005MOL0     C35580   5.022   8.043   3.180 -0.1873  0.4364 -0.4164
 1005MOL0     C35581   5.104   8.161   3.239  1.4059 -0.3555 -0.1899
 1005MOL0     C35582   5.207   8.237   3.151  0.4602  1.1442 -0.2368
 1005MOL0     C35583   5.305   8.147   3.094 -0.8750  0.3755 -0.0311
 1005MOL0    Cl35584   5.431   8.261   3.025 -0.2147  0.0984 -0.1667
 1005MOL0     C35585   4.307   7.799   3.019 -0.4885 -0.4123  1.0751
 1005MOL0     C35586   4.180   7.770   2.969 -0.2446  0.4186 -0.2116
 1005MOL0     O35587   3.972   7.949   2.664  0.0795  0.3400  0.2092
 1005MOL0     C35588   3.727   7.721   2.787  0.3622  0.2954  0.2460
 1005MOL0     C35589   3.602   7.670   2.743  0.1080 -0.5663 -0.0204
 1005MOL0     N35590   2.964   8.211   2.554  0.0677 -0.4010 -0.0518
 1005MOL0     N35591   2.857   8.264   2.593 -0.3730  0.4989 -0.3953
 1005MOL0     C35592   1.609   7.925   2.320  0.3806 -0.4907  0.2274
 1005MOL0     C35593   1.493   7.874   2.267  0.7627 -0.1492 -0.0278
 1005MOL0     C35594   1.113   7.629   2.221  0.4416 -0.6852 -0.1224
 1005MOL0     C35595   1.010   7.689   2.295  0.4635  0.4357 -1.2218
 1005MOL0     C35596   0.886   7.632   2.296  0.1044  0.3067  0.1539
 1005MOL0     C35597   0.850   7.531   2.203 -0.4825 -0.2423  0.5781
 1005MOL0     O35598   0.722   7.479   2.191 -0.2167  0.0463 -0.0809
 1005MOL0     C35599   0.624   7.574   2.147 -0.3887  0.3134 -0.8510
 1005MOL0     C35600   0.641   7.602   1.999  0.7360 -0.0634 -0.0171
 1005MOL0     C35601   0.618   7.477   1.919 -1.1309 -0.8169 -0.0787
 1005MOL0     C35602   0.635   7.492   1.769 -0.1578  0.7403  0.1165
 1005MOL0     C35603   0.751   7.575   1.731 -0.4185  0.1710 -0.7355
 1005MOL0     C35604   0.840   7.653   1.707 -0.5257  0.1623  0.4629
 1005MOL0     C35605   0.946   7.476   2.120  0.4210 -0.2662 -0.0961
 1005MOL0     C35606   1.078   7.523   2.130  1.3558  0.3180 -0.9808
 1005MOL0     C35607   1.175   7.458   2.025  0.7069  0.2604 -0.1576
 1005MOL0     H35608   1.331   7.795   2.547 -0.4212  0.7715 -0.3485
 1005MOL0     H35609   1.570   7.838   2.644  0.8647 -0.0410 -1.0021
 1005MOL0     H35610   1.720   7.976   2.708 -1.8122 -1.5080 -1.4244
 1005MOL0     H35611   1.831   7.846   2.666 -0.0256  0.2831 -0.6453
 1005MOL0     H35612   1.936   8.050   2.763  1.2312  2.7361 -0.6202
 1005MOL0     H35613   1.876   8.141   2.617  2.0206  1.3017 -0.4720
 1005MOL0     H35614   2.050   8.058   2.481 -0.2887  1.1627 -0.7374
 1005MOL0     H35615   2.074   7.912   2.571  2.0559  0.0495  0.6745
 1005MOL0     H35616   2.167   8.189   2.675  3.2419 -0.0829  2.2991
 1005MOL0     H35617   2.157   8.059   2.780 -2.3506  1.7528  0.8839
 1005MOL0     H35618   2.312   7.918   2.669  1.7811  1.7718  4.0030
 1005MOL0     H35619   2.298   8.028   2.522  0.7937  2.0575 -0.1298
 1005MOL0     H35620   2.376   8.201   2.702 -1.5889 -0.5806  3.7000
 1005MOL0     H35621   2.427   8.059   2.794  1.4375 -3.3088 -2.0569
 1005MOL0     H35622   2.541   8.131   2.517  4.9625 -0.7744 -0.2452
 1005MOL0     H35623   2.561   7.973   2.611  0.1150 -0.8163  2.0192
 1005MOL0     H35624   2.613   8.253   2.707 -2.1116 -1.0357 -3.6754
 1005MOL0     H35625   2.660   8.101   2.794 -3.1705 -1.8500 -0.3198
 1005MOL0     H35626   2.801   7.932   2.614  0.5946 -0.8647  0.8907
 1005MOL0     H35627   3.033   7.874   2.524  0.2278 -0.5861 -2.1258
 1005MOL0     H35628   3.102   7.986   2.406  3.8164 -1.3742  0.5778
 1005MOL0     H35629   3.267   8.054   2.515  0.6828 -1.1461 -1.1197
 1005MOL0     H35630   3.169   8.095   2.659  0.5025  0.5798 -0.9982
 1005MOL0     H35631   3.175   7.848   2.722  1.4720 -2.2187 -0.0557
 1005MOL0     H35632   3.330   7.932   2.724  0.0733 -2.0106  0.1415
 1005MOL0     H35633   3.343   7.828   2.469  5.6887 -0.4935  2.0043
 1005MOL0     H35634   3.227   7.715   2.523  1.5193 -1.4011 -1.8753
 1005MOL0     H35635   3.504   7.937   2.544 -0.4117 -0.5514 -0.6469
 1005MOL0     H35636   3.713   8.016   2.606  2.7611  0.1478 -0.8618
 1005MOL0     H35637   4.124   8.072   2.811  2.7991  0.5914 -0.3993
 1005MOL0     H35638   4.349   8.114   2.908  0.2688 -0.9729 -0.8380
 1005MOL0     H35639   4.471   7.850   3.214  1.0872 -0.8999  0.3524
 1005MOL0     H35640   4.596   7.791   3.094  0.9264 -0.6358  0.9550
 1005MOL0     H35641   4.625   8.047   3.260  2.6894  0.0865  2.2529
 1005MOL0     H35642   4.665   7.887   3.319 -1.0065  0.5657  0.0167
 1005MOL0     H35643   4.837   7.851   3.153 -0.3443  0.3245  0.7501
 1005MOL0     H35644   4.784   8.010   3.073 -2.7027  0.9417  1.2121
 1005MOL0     H35645   4.902   7.933   3.337 -2.0203 -1.9725 -1.0007
 1005MOL0     H35646   4.862   8.104   3.310  0.0225 -0.5590 -0.0226
 1005MOL0     H35647   5.000   8.080   3.080  1.8288 -0.5320 -1.2730
 1005MOL0     H35648   5.081   7.952   3.185  1.0827  1.3093  2.0617
 1005MOL0     H35649   5.036   8.238   3.277 -3.7749 -3.5299 -1.9721
 1005MOL0     H35650   5.165   8.114   3.316  0.3517 -2.5142 -0.6170
 1005MOL0     H35651   5.266   8.305   3.212  2.0598  1.2402 -1.8290
 1005MOL0     H35652   5.149   8.283   3.071 -1.0618 -1.5964 -0.8761
 1005MOL0     H35653   5.351   8.080   3.167  0.5836  0.0707 -1.1874
 1005MOL0     H35654   5.252   8.088   3.018  0.7841  0.3335 -1.1985
 1005MOL0     H35655   4.366   7.726   3.072  0.8464  0.0129  0.2367
 1005MOL0     H35656   4.127   7.675   2.974 -2.8368  1.6408 -2.1605
 1005MOL0     H35657   3.777   7.658   2.860 -2.5406  1.3213  3.3691
 1005MOL0     H35658   3.574   7.570   2.773  0.8560 -1.2011 -1.3103
 1005MOL0     H35659   1.679   7.979   2.257  1.5078 -1.8415  0.2478
 1005MOL0     H35660   1.482   7.877   2.160  2.5134 -1.0790 -0.2664
 1005MOL0     H35661   1.036   7.761   2.373  1.9044 -1.8682  0.5490
 1005MOL0     H35662   0.806   7.673   2.355  0.0895 -0.3837  0.6174
 1005MOL0     H35663   0.636   7.671   2.195 -2.4259  0.8659 -1.3664
 1005MOL0     H35664   0.524   7.541   2.175 -0.5250  1.1327 -0.3368
 1005MOL0     H35665   0.732   7.658   1.976 -1.5165  2.8953 -2.6516
 1005MOL0     H35666   0.566   7.673   1.964  0.7855 -0.1893 -0.3812
 1005MOL0     H35667   0.524   7.425   1.939 -1.7210 -0.1193 -0.9416
 1005MOL0     H35668   0.699   7.416   1.960 -1.2221 -1.1187 -0.3482
 1005MOL0     H35669   0.665   7.397   1.723 -1.8894 -0.1117  0.6605
 1005MOL0     H35670   0.550   7.533   1.713  0.9289  2.0328 -0.6557
 1005MOL0     H35671   0.915   7.721   1.671  0.6632 -1.8396 -1.0639
 1005MOL0     H35672   0.921   7.396   2.050  1.8886 -2.0696  1.3498
 1005MOL0     H35673   1.129   7.400   1.945 -2.1958  0.9022  0.9321
 1005MOL0     H35674   1.235   7.535   1.976  0.9558  0.7514  0.8785
 1005MOL0     H35675   1.238   7.386   2.079 -1.6885 -3.3377 -1.7908
 1006MOL0     O35676   1.568   7.619   3.126  0.1514  0.0342  0.4965
 1006MOL0     C35677   1.495   7.680   3.203 -0.3297  0.5583 -0.7688
 1006MOL0     O35678   1.537   7.728   3.334  0.3754  0.0316 -0.3568
 1006MOL0     C35679   1.668   7.706   3.363  0.4954  0.9607 -0.1292
 1006MOL0     C35680   1.759   7.801   3.315 -0.1979  0.3159 -0.5481
 1006MOL0     C35681   1.893   7.798   3.355 -0.3815  0.1690 -0.6283
 1006MOL0     C35682   1.940   7.707   3.452  0.2061  0.6126  0.5375
 1006MOL0     O35683   2.075   7.709   3.482 -0.0911  0.4419  0.1641
 1006MOL0     C35684   2.127   7.600   3.558 -0.9660  0.1699 -0.5869
 1006MOL0     C35685   2.267   7.627   3.620 -0.1945 -0.2803 -0.5692
 1006MOL0     C35686   2.340   7.499   3.660  0.0632 -0.4172  0.6592
 1006MOL0     C35687   2.486   7.521   3.705 -0.0983  0.9886  0.6596
 1006MOL0     C35688   2.562   7.400   3.759 -0.8054  0.2619  0.6018
 1006MOL0     C35689   2.492   7.339   3.886  0.3765 -0.1951  0.0277
 1006MOL0     C35690   2.584   7.230   3.935  0.0576 -0.0499  0.0847
 1006MOL0     C35691   2.509   7.168   4.050  0.6679 -0.2030 -0.6543
 1006MOL0     N35692   2.580   7.068   4.128 -0.8790 -0.3844  0.3471
 1006MOL0     C35693   2.614   6.943   4.085 -0.0148 -0.8628 -0.0101
 1006MOL0     C35694   2.686   6.892   4.189  1.3226 -0.1853 -0.3741
 1006MOL0     C35695   2.736   6.751   4.168  0.4387  0.1471 -0.0052
 1006MOL0     C35696   2.815   6.699   4.286  0.3950 -0.7815  0.1779
 1006MOL0     C35697   2.802   6.554   4.313  0.3814  0.2782 -0.2535
 1006MOL0     C35698   2.879   6.524   4.445 -0.0620 -0.3650 -0.6331
 1006MOL0     O35699   2.896   6.384   4.462  0.6871  0.3130  0.4931
 1006MOL0     C35700   3.018   6.324   4.438  0.4076 -0.7687  0.5025
 1006MOL0     C35701   3.118   6.373   4.347 -0.2943  0.6769 -0.2878
 1006MOL0     C35702   3.245   6.314   4.332  0.0788  0.2708 -0.0327
 1006MOL0     C35703   3.275   6.202   4.399  0.2427 -0.5769  0.3719
 1006MOL0     C35704   3.411   6.139   4.382 -0.7793 -0.1262  0.1734
 1006MOL0     O35705   3.507   6.207   4.303  0.2773  0.1822  0.3376
 1006MOL0     C35706   3.622   6.144   4.287  0.0221  0.8289 -0.2492
 1006MOL0     C35707   3.669   6.092   4.167 -0.2471 -0.0768 -0.6556
 1006MOL0     C35708   3.802   6.035   4.150 -0.7964  0.7234 -0.3610
 1006MOL0     C35709   3.893   6.060   4.254  0.3162 -0.0346  0.6980
 1006MOL0     O35710   4.028   6.026   4.257 -0.0531  0.0456  0.1797
 1006MOL0     C35711   4.078   5.985   4.125  1.0690 -0.0676  0.0351
 1006MOL0     C35712   4.223   5.939   4.129  0.4271 -0.6124  0.2181
 1006MOL0     C35713   4.309   6.059   4.183 -0.0429 -0.4203 -0.4593
 1006MOL0     C35714   4.452   6.010   4.197  0.1869  0.0889  0.0086
 1006MOL0     C35715   4.534   6.097   4.288 -0.2125 -0.8091 -0.2375
 1006MOL0     C35716   4.676   6.046   4.317  0.2375  0.5955  0.1045
 1006MOL0     C35717   4.763   6.017   4.182  1.1847  0.2708 -0.5193
 1006MOL0     C35718   4.904   6.001   4.213 -0.4777  0.7685 -0.6899
 1006MOL0    Cl35719   4.940   5.835   4.288 -0.0692  0.0805 -0.4553
 1006MOL0     C35720   3.848   6.119   4.370  0.2622 -0.8784 -0.9580
 1006MOL0     C35721   3.713   6.157   4.391  0.8874  0.3334  0.6636
 1006MOL0     O35722   3.427   6.031   4.439 -0.6663  0.2169  0.4552
 1006MOL0     C35723   3.166   6.144   4.473  0.3715 -0.4966  1.0262
 1006MOL0     C35724   3.039   6.201   4.486 -0.4706  0.2330  0.3823
 1006MOL0     N35725   2.703   6.982   4.289 -0.5278  0.5923 -0.1438
 1006MOL0     N35726   2.644   7.092   4.251 -0.2175  0.1891 -0.0722
 1006MOL0     C35727   1.844   7.612   3.500  0.1782 -0.8589 -0.0018
 1006MOL0     C35728   1.716   7.607   3.452  0.1032  0.4483  0.3747
 1006MOL0     C35729   1.353   7.690   3.176 -0.1244  0.3852  0.2747
 1006MOL0     C35730   1.289   7.790   3.241  0.0979  0.4135 -1.1884
 1006MOL0     C35731   1.154   7.821   3.218 -0.5799 -0.7001  0.8017
 1006MOL0     C35732   1.081   7.742   3.136  0.3186  0.0192  0.0836
 1006MOL0     O35733   0.942   7.765   3.123 -0.2953 -0.5950 -0.4881
 1006MOL0     C35734   0.861   7.675   3.054 -0.2039 -0.4253  0.1150
 1006MOL0     C35735   0.717   7.686   3.106 -0.7783 -0.1135  0.9152
 1006MOL0     C35736   0.692   7.701   3.263  0.7530  0.9067  0.5301
 1006MOL0     C35737   0.714   7.565   3.335  0.3919  0.5123  0.0895
 1006MOL0     C35738   0.614   7.470   3.289  0.3289  0.0702 -0.4929
 1006MOL0     C35739   0.527   7.386   3.259 -0.8173 -0.6691  1.1978
 1006MOL0     C35740   1.145   7.630   3.074  0.1875 -0.9329 -0.4474
 1006MOL0     C35741   1.284   7.603   3.089  0.1076  0.1412  1.4778
 1006MOL0     C35742   1.334   7.482   3.020 -0.5141  0.2311  0.2417
 1006MOL0     H35743   1.718   7.873   3.245 -2.2032  1.2833  1.4836
 1006MOL0     H35744   1.954   7.873   3.305 -0.0694  0.2628 -0.1207
 1006MOL0     H35745   2.058   7.576   3.639 -1.7878  1.8145 -0.7610
 1006MOL0     H35746   2.150   7.510   3.500  3.3915  1.5818 -1.4359
 1006MOL0     H35747   2.258   7.692   3.707 -0.1681  0.5761 -1.1985
 1006MOL0     H35748   2.332   7.678   3.549  1.6921 -0.1291  1.1584
 1006MOL0     H35749   2.348   7.445   3.565 -0.4998  1.3701 -0.4733
 1006MOL0     H35750   2.273   7.449   3.730  0.3507  0.3700  1.5192
 1006MOL0     H35751   2.540   7.554   3.616 -0.8708 -2.4579 -1.2376
 1006MOL0     H35752   2.480   7.596   3.784  0.0647  0.1788  1.4566
 1006MOL0     H35753   2.572   7.329   3.676 -0.2643 -1.4184  2.0653
 1006MOL0     H35754   2.657   7.443   3.793 -0.9237  0.4685  0.6744
 1006MOL0     H35755   2.485   7.421   3.958  1.1217 -1.0841  1.1482
 1006MOL0     H35756   2.396   7.290   3.869  1.1465 -1.8664  0.3126
 1006MOL0     H35757   2.678   7.272   3.972 -0.9607  0.3477  2.4366
 1006MOL0     H35758   2.611   7.151   3.864 -1.3546 -0.5203  0.0238
 1006MOL0     H35759   2.484   7.254   4.113  3.0393  1.4351 -1.7844
 1006MOL0     H35760   2.414   7.125   4.018 -0.0741 -0.2794  1.5103
 1006MOL0     H35761   2.574   6.898   3.995 -0.6953 -0.1149 -0.0928
 1006MOL0     H35762   2.655   6.680   4.149  0.6491  0.4332 -2.2081
 1006MOL0     H35763   2.787   6.729   4.074  0.6282 -4.5821  0.9601
 1006MOL0     H35764   2.922   6.715   4.270  0.2660  1.0097  0.8978
 1006MOL0     H35765   2.780   6.745   4.378 -0.6915 -2.4244  0.6090
 1006MOL0     H35766   2.831   6.482   4.237  1.6335 -1.1728  1.5166
 1006MOL0     H35767   2.696   6.548   4.339  0.0092  1.5515 -1.3553
 1006MOL0     H35768   2.816   6.561   4.526 -3.1190  0.8977 -3.3452
 1006MOL0     H35769   2.974   6.577   4.455 -0.7269  0.6876  0.3453
 1006MOL0     H35770   3.101   6.470   4.302 -2.5304 -0.4051 -1.9610
 1006MOL0     H35771   3.308   6.356   4.254  0.5644 -0.7545 -0.2091
 1006MOL0     H35772   3.601   6.099   4.083 -0.3289  2.4514 -0.4468
 1006MOL0     H35773   3.819   5.987   4.054 -1.9676  0.6013 -0.5284
 1006MOL0     H35774   4.013   5.901   4.097 -3.3487  3.1449 -0.5455
 1006MOL0     H35775   4.054   6.068   4.058 -0.6312 -0.0388  0.6073
 1006MOL0     H35776   4.232   5.850   4.191  0.6700 -1.1062 -0.5145
 1006MOL0     H35777   4.256   5.920   4.026  0.7061  0.1042  0.1654
 1006MOL0     H35778   4.305   6.137   4.107 -1.6864  1.0440  1.0464
 1006MOL0     H35779   4.261   6.096   4.275  1.3484 -0.2559  0.2235
 1006MOL0     H35780   4.495   6.001   4.096 -0.0629  0.0960 -0.0978
 1006MOL0     H35781   4.451   5.906   4.229  0.1976 -0.5578 -1.9577
 1006MOL0     H35782   4.484   6.104   4.385 -0.5750 -1.7566 -0.3435
 1006MOL0     H35783   4.557   6.194   4.243  2.0307 -1.9057 -1.6430
 1006MOL0     H35784   4.724   6.126   4.373  0.2919  2.6949 -2.7438
 1006MOL0     H35785   4.669   5.949   4.368  1.7042 -0.0231 -0.8251
 1006MOL0     H35786   4.741   6.099   4.114 -1.2963  1.0603  1.1159
 1006MOL0     H35787   4.716   5.927   4.140 -0.5400  1.4376 -1.2054
 1006MOL0     H35788   4.971   6.013   4.127  0.1093  1.4376 -0.1482
 1006MOL0     H35789   4.921   6.081   4.285 -2.4316  1.4777 -0.9379
 1006MOL0     H35790   3.916   6.152   4.448 -0.1685  0.8900 -1.2944
 1006MOL0     H35791   3.687   6.215   4.479 -2.0046  0.0037  0.1136
 1006MOL0     H35792   3.177   6.041   4.505 -1.0126 -0.1818  2.6578
 1006MOL0     H35793   2.962   6.166   4.554 -1.1820  0.8243 -0.0982
 1006MOL0     H35794   1.872   7.530   3.565  0.2356 -0.3407  0.6359
 1006MOL0     H35795   1.647   7.536   3.498  2.3826 -1.3409  1.2316
 1006MOL0     H35796   1.340   7.866   3.300  0.1226  1.8156 -2.9462
 1006MOL0     H35797   1.108   7.902   3.274  1.6686 -0.6140  2.6773
 1006MOL0     H35798   0.878   7.570   3.079 -3.2253 -0.3060  3.3797
 1006MOL0     H35799   0.861   7.698   2.947 -0.4324 -0.7520  0.0421
 1006MOL0     H35800   0.663   7.597   3.072  0.6247 -0.5027 -0.3922
 1006MOL0     H35801   0.662   7.768   3.060  0.8773  1.2088  1.1807
 1006MOL0     H35802   0.592   7.743   3.283  1.0378  2.1258 -0.4539
 1006MOL0     H35803   0.758   7.779   3.301 -1.4027  3.0577  0.1157
 1006MOL0     H35804   0.817   7.532   3.316  0.8118  2.0253 -0.4165
 1006MOL0     H35805   0.699   7.585   3.441 -2.3288  0.6006 -0.2415
 1006MOL0     H35806   0.459   7.304   3.248 -1.4187 -0.2433  1.6461
 1006MOL0     H35807   1.086   7.566   3.009 -2.6567  2.2301 -1.2314
 1006MOL0     H35808   1.255   7.428   2.967 -0.0539  2.1603 -2.6231
 1006MOL0     H35809   1.420   7.512   2.959 -0.6418 -0.5328 -0.3291
 1006MOL0     H35810   1.371   7.426   3.106  1.3807  2.2344  0.8285
 1007MOL0     O35811   8.328   5.001   9.720 -0.2377  0.3105 -0.9101
 1007MOL0     C35812   8.296   5.118   9.734  0.4251  0.6078  0.7080
 1007MOL0     O35813   8.378   5.226   9.703  0.2274 -0.0133 -0.2203
 1007MOL0     C35814   8.511   5.197   9.682 -0.0483  0.6096 -0.0838
 1007MOL0     C35815   8.564   5.106   9.585  0.7296  0.3498  0.3660
 1007MOL0     C35816   8.701   5.071   9.601 -0.1719  1.1397  0.2903
 1007MOL0     C35817   8.786   5.136   9.685 -0.1574  0.8734  0.6099
 1007MOL0     O35818   8.915   5.079   9.683  0.0592  0.3868  0.0814
 1007MOL0     C35819   9.019   5.128   9.761 -0.1419 -0.5355 -0.1143
 1007MOL0     C35820   9.138   5.035   9.730  1.0351  0.1181  0.3488
 1007MOL0     C35821   9.239   5.106   9.639  0.1047 -0.2492  0.6136
 1007MOL0     C35822   9.337   5.012   9.578  0.4473 -0.1551 -0.3151
 1007MOL0     C35823   9.435   5.083   9.481 -0.5279  0.8399 -0.1391
 1007MOL0     C35824   9.571   5.003   9.447 -0.3159 -0.3248  0.6788
 1007MOL0     C35825   9.660   5.091   9.353 -0.6553 -0.7902  0.0143
 1007MOL0     C35826   9.730   5.215   9.426 -1.0694  0.3464 -1.3628
 1007MOL0     N35827   9.805   5.172   9.548  0.4106 -0.5558  0.9999
 1007MOL0     C35828   9.780   5.223   9.672 -0.4667  0.0229  0.6790
 1007MOL0     C35829   9.878   5.164   9.750 -0.3528 -0.1080  0.2835
 1007MOL0     C35830   9.912   5.200   9.895  0.4015 -0.2892  0.0944
 1007MOL0     C35831  10.040   5.282   9.904  0.0926  0.1547 -0.0961
 1007MOL0     C35832  10.049   5.309  10.055 -0.3762  0.5042  0.1299
 1007MOL0     C35833  10.132   5.200  10.129  0.2524 -0.2923  0.2110
 1007MOL0     O35834  10.267   5.192  10.073  0.5135  0.1281 -0.3138
 1007MOL0     C35835  10.369   5.186  10.170  0.4761 -0.3120 -0.0682
 1007MOL0     C35836  10.496   5.242  10.136  0.2486 -0.7304  0.7652
 1007MOL0     C35837  10.607   5.244  10.222 -0.3050  0.4255 -0.1334
 1007MOL0     C35838  10.591   5.200  10.358  0.3337  1.0995  0.4948
 1007MOL0     C35839  10.703   5.176  10.455  0.0893 -0.3208 -0.0373
 1007MOL0     O35840  10.826   5.215  10.394  0.7596 -0.2442  0.7825
 1007MOL0     C35841  10.945   5.196  10.455  0.1936 -0.5978  0.5550
 1007MOL0     C35842  10.977   5.267  10.572  0.1983 -0.0551  0.3645
 1007MOL0     C35843  11.109   5.262  10.621  0.5601 -0.1146 -0.2495
 1007MOL0     C35844  11.204   5.193  10.552  0.1273  0.5301  0.1966
 1007MOL0     O35845  11.331   5.172  10.595 -0.5146 -0.0204 -0.5291
 1007MOL0     C35846  11.354   5.184  10.737 -0.6614  0.0273  0.0225
 1007MOL0     C35847  11.500   5.153  10.763  0.0876 -0.1503  0.2370
 1007MOL0     C35848  11.540   5.123  10.910 -0.1398 -0.0186  0.5293
 1007MOL0     C35849  11.681   5.082  10.906  0.1872 -0.8153 -0.6010
 1007MOL0     C35850  11.736   5.090  11.052 -0.3048 -0.1983 -0.4099
 1007MOL0     C35851  11.864   5.010  11.055 -0.4395  0.8417  0.5251
 1007MOL0     C35852  11.954   5.052  11.186 -0.0073 -0.2067  0.0795
 1007MOL0     C35853  12.102   5.013  11.156  1.0396 -0.7981 -0.1623
 1007MOL0    Cl35854  12.194   5.016  11.307  0.2019 -0.1040  0.0524
 1007MOL0     C35855  11.175   5.125  10.433  0.3447  0.3127 -0.5727
 1007MOL0     C35856  11.046   5.128  10.379 -0.1520  0.1484 -0.1116
 1007MOL0     O35857  10.671   5.152  10.570 -0.9256 -0.0954 -0.2491
 1007MOL0     C35858  10.459   5.155  10.397 -0.2726  0.1056  0.2081
 1007MOL0     C35859  10.358   5.144  10.303 -0.1446  0.5809 -0.1410
 1007MOL0     N35860   9.955   5.085   9.674  0.0801 -0.6839 -0.0648
 1007MOL0     N35861   9.919   5.093   9.549  0.2895  0.7177 -0.7211
 1007MOL0     C35862   8.744   5.246   9.769 -0.2720  0.5092  0.5313
 1007MOL0     C35863   8.604   5.264   9.773 -0.9508 -0.5910  0.3149
 1007MOL0     C35864   8.152   5.138   9.753 -0.1259  0.2427  0.4891
 1007MOL0     C35865   8.061   5.033   9.739 -0.4000  0.1933 -0.6126
 1007MOL0     C35866   7.935   5.046   9.787 -0.1376  0.2031  0.1969
 1007MOL0     C35867   7.881   5.159   9.844 -1.2865  0.7190 -0.5234
 1007MOL0     O35868   7.757   5.150   9.900 -0.0304 -0.3466  0.0293
 1007MOL0     C35869   7.706   5.234  10.009  0.8707 -0.1555 -0.0405
 1007MOL0     C35870   7.571   5.190  10.062 -0.4327  0.5972  0.5950
 1007MOL0     C35871   7.569   5.062  10.146 -1.1384  0.0214 -0.3990
 1007MOL0     C35872   7.588   4.932  10.068 -0.1762 -0.0367  0.6324
 1007MOL0     C35873   7.576   4.810  10.145  0.5696  1.3202  0.0848
 1007MOL0     C35874   7.556   4.709  10.207 -0.6112  0.2263 -0.9402
 1007MOL0     C35875   7.965   5.271   9.847 -0.0926  0.0545 -0.5796
 1007MOL0     C35876   8.104   5.267   9.800  0.0625  0.1361 -0.4875
 1007MOL0     C35877   8.182   5.400   9.812 -0.2349  0.3857  0.3548
 1007MOL0     H35878   8.500   5.045   9.522 -0.2363  0.2448  1.4093
 1007MOL0     H35879   8.757   4.991   9.553 -0.8357 -0.7944  2.5550
 1007MOL0     H35880   9.044   5.233   9.746 -0.8774 -0.7360 -3.4271
 1007MOL0     H35881   8.986   5.119   9.865  2.7999 -0.7831  0.8898
 1007MOL0     H35882   9.104   4.947   9.675 -0.5275  0.3684  0.8765
 1007MOL0     H35883   9.194   5.002   9.817 -2.8410 -4.5714  1.4683
 1007MOL0     H35884   9.285   5.187   9.698  0.0937 -1.0669  1.7722
 1007MOL0     H35885   9.186   5.144   9.552 -1.3434  0.0157  1.5806
 1007MOL0     H35886   9.405   4.972   9.654  1.8225  0.2206 -1.3042
 1007MOL0     H35887   9.281   4.936   9.523  0.9231 -1.3377  0.8124
 1007MOL0     H35888   9.377   5.094   9.389 -2.0204  0.5351  0.7342
 1007MOL0     H35889   9.461   5.179   9.525 -2.8592  0.6147  1.9096
 1007MOL0     H35890   9.630   4.974   9.534  3.2287 -0.7785 -1.6906
 1007MOL0     H35891   9.550   4.913   9.387 -0.6968 -0.0176  0.3486
 1007MOL0     H35892   9.604   5.112   9.261  0.1060 -3.4895 -1.1784
 1007MOL0     H35893   9.745   5.038   9.309  0.6025  1.4555 -0.4489
 1007MOL0     H35894   9.808   5.262   9.366 -0.2224  0.2855 -0.3411
 1007MOL0     H35895   9.651   5.287   9.448  0.8928  2.6848 -1.5863
 1007MOL0     H35896   9.709   5.296   9.710 -2.1409 -2.3415  2.4146
 1007MOL0     H35897   9.828   5.252   9.943  1.1611  1.8262 -0.7826
 1007MOL0     H35898   9.922   5.109   9.955  1.3605  0.7781  1.6404
 1007MOL0     H35899  10.116   5.217   9.861  0.4047  1.2309 -1.2334
 1007MOL0     H35900  10.031   5.377   9.850  1.0891  0.1471 -0.2893
 1007MOL0     H35901   9.951   5.326  10.101 -0.6827 -1.0773  0.1265
 1007MOL0     H35902  10.103   5.402  10.074 -0.5692  0.1023  3.2092
 1007MOL0     H35903  10.082   5.103  10.138  1.9194 -1.5585 -2.5482
 1007MOL0     H35904  10.133   5.244  10.229  0.3861  1.8700 -0.6781
 1007MOL0     H35905  10.487   5.282  10.036 -1.0911 -1.9104  0.3821
 1007MOL0     H35906  10.700   5.274  10.175 -0.0431  0.1009  0.1682
 1007MOL0     H35907  10.894   5.317  10.621 -1.3281 -1.0016 -1.1204
 1007MOL0     H35908  11.116   5.309  10.718  0.4471  0.5153 -0.5421
 1007MOL0     H35909  11.339   5.283  10.782  1.7207 -0.7168  2.7726
 1007MOL0     H35910  11.287   5.114  10.787 -0.3124 -0.7856 -0.6397
 1007MOL0     H35911  11.519   5.060  10.707  0.8526  0.5155 -0.6298
 1007MOL0     H35912  11.563   5.237  10.733 -0.8778 -0.2641 -2.4139
 1007MOL0     H35913  11.531   5.213  10.970  1.5508 -0.1656  1.0589
 1007MOL0     H35914  11.475   5.045  10.951  1.2457 -0.7122  1.4634
 1007MOL0     H35915  11.733   5.155  10.844 -0.3034  2.1553  2.1993
 1007MOL0     H35916  11.693   4.982  10.863  0.4798 -1.7985  1.6242
 1007MOL0     H35917  11.666   5.044  11.122 -0.5704 -0.7459 -1.0204
 1007MOL0     H35918  11.757   5.194  11.080 -1.8632  0.7038 -2.3656
 1007MOL0     H35919  11.845   4.902  11.060  0.5260  0.4980 -2.0427
 1007MOL0     H35920  11.926   5.029  10.968 -1.6481  0.1573 -0.5135
 1007MOL0     H35921  11.903   5.006  11.271 -0.9375 -0.4071 -0.5735
 1007MOL0     H35922  11.962   5.159  11.207 -1.0106 -0.3090  1.0569
 1007MOL0     H35923  12.104   4.906  11.133  1.1256 -1.5887  3.1009
 1007MOL0     H35924  12.151   5.070  11.077 -1.0248 -2.8068 -3.1144
 1007MOL0     H35925  11.246   5.069  10.373 -0.0829  2.8325 -3.6998
 1007MOL0     H35926  11.028   5.080  10.283  2.2651  0.9103 -1.0229
 1007MOL0     H35927  10.435   5.114  10.495 -1.2216  0.2637  0.0511
 1007MOL0     H35928  10.260   5.111  10.337 -0.7394  3.2931  1.0261
 1007MOL0     H35929   8.800   5.310   9.837 -0.4745 -0.1631  1.3484
 1007MOL0     H35930   8.559   5.337   9.839 -0.4880  1.2710 -1.3220
 1007MOL0     H35931   8.092   4.931   9.718  0.1295 -0.3078  2.2181
 1007MOL0     H35932   7.877   4.954   9.790  0.0129  0.1094  0.2801
 1007MOL0     H35933   7.692   5.333   9.966 -0.4878  0.0959  0.9393
 1007MOL0     H35934   7.775   5.233  10.094  0.6415  1.9244  0.2203
 1007MOL0     H35935   7.504   5.168   9.979 -2.0319 -1.6215  2.3443
 1007MOL0     H35936   7.525   5.273  10.115  1.1520  1.9223 -0.0237
 1007MOL0     H35937   7.477   5.048  10.203  0.3689 -2.4914  1.6247
 1007MOL0     H35938   7.648   5.074  10.221 -2.0502  1.5420  0.3818
 1007MOL0     H35939   7.519   4.927   9.984  0.2940  0.2872  0.2197
 1007MOL0     H35940   7.687   4.933  10.020 -1.2820 -1.9540 -1.9486
 1007MOL0     H35941   7.552   4.623  10.271 -1.2614 -0.7732 -2.2913
 1007MOL0     H35942   7.926   5.366   9.880 -0.2426  0.0698 -0.7985
 1007MOL0     H35943   8.126   5.470   9.874 -0.0974 -0.5506  1.5806
 1007MOL0     H35944   8.261   5.364   9.878  0.6578  1.7220  0.0481
 1007MOL0     H35945   8.217   5.443   9.718 -5.0518  2.3994 -0.7869
 1008MOL0     O35946  10.498  10.040  10.996 -0.3152  0.7380  0.5237
 1008MOL0     C35947  10.419  10.069  10.912 -0.6719  0.2426  1.0438
 1008MOL0     O35948  10.443  10.086  10.779 -0.6925 -0.8479 -0.4300
 1008MOL0     C35949  10.569  10.094  10.723 -0.1395  0.4593 -0.5841
 1008MOL0     C35950  10.695  10.103  10.797  0.5197 -0.0581 -0.3431
 1008MOL0     C35951  10.819  10.119  10.732 -0.5868  0.4413 -0.4406
 1008MOL0     C35952  10.821  10.118  10.594 -0.0712  1.3483 -0.3917
 1008MOL0     O35953  10.935  10.136  10.516 -0.4994 -0.3037 -0.3899
 1008MOL0     C35954  11.063  10.172  10.578 -0.2690 -0.1255 -0.6006
 1008MOL0     C35955  11.178  10.159  10.465 -0.4977 -0.0895  0.2871
 1008MOL0     C35956  11.304  10.243  10.490  0.4561 -0.8948 -0.2592
 1008MOL0     C35957  11.422  10.198  10.396  0.4803 -1.5042 -0.1115
 1008MOL0     C35958  11.534  10.306  10.391 -0.1135 -0.2422  1.1597
 1008MOL0     C35959  11.624  10.264  10.273 -0.0194 -0.4222 -0.6181
 1008MOL0     C35960  11.759  10.329  10.296 -0.4287  0.4801 -0.1457
 1008MOL0     C35961  11.855  10.285  10.186  0.5762 -0.8375 -0.0090
 1008MOL0     N35962  11.983  10.343  10.213 -0.2777 -0.1372 -0.6664
 1008MOL0     C35963  12.051  10.330  10.332 -0.6928 -0.5554 -0.1579
 1008MOL0     C35964  12.180  10.355  10.304 -0.4763 -0.2649  0.0372
 1008MOL0     C35965  12.280  10.369  10.415  0.9490 -0.2142 -0.2342
 1008MOL0     C35966  12.422  10.382  10.367  0.1660  1.2592 -0.5928
 1008MOL0     C35967  12.525  10.381  10.473  0.4879 -0.3510 -0.4373
 1008MOL0     C35968  12.667  10.401  10.425 -1.1387 -1.0653  0.5516
 1008MOL0     O35969  12.692  10.334  10.293  0.6587  0.5639 -0.6095
 1008MOL0     C35970  12.793  10.240  10.277  1.1897 -1.1457 -0.9783
 1008MOL0     C35971  12.898  10.215  10.372  0.5093  0.5668  0.0869
 1008MOL0     C35972  13.004  10.141  10.330  0.1667 -0.0388 -0.0728
 1008MOL0     C35973  13.021  10.101  10.202  0.2667 -0.2492 -0.0682
 1008MOL0     C35974  13.146  10.026  10.163 -0.2432  0.5490 -0.0154
 1008MOL0     O35975  13.236  10.012  10.262 -0.3555  0.1053  0.7059
 1008MOL0     C35976  13.366   9.967  10.243  0.1287  0.5217 -0.7473
 1008MOL0     C35977  13.459   9.992  10.350  0.2473  0.4645 -0.4608
 1008MOL0     C35978  13.591   9.959  10.329 -0.3258 -0.1367  0.6022
 1008MOL0     C35979  13.642   9.934  10.208 -0.4098  0.8202 -0.5106
 1008MOL0     O35980  13.777   9.902  10.191  0.2754 -0.6823  0.2133
 1008MOL0     C35981  13.874   9.982  10.255  0.4565 -0.0878  0.8296
 1008MOL0     C35982  13.996   9.997  10.163  0.0035 -0.6146 -0.4875
 1008MOL0     C35983  14.096  10.111  10.213 -0.1554  0.3560 -0.6124
 1008MOL0     C35984  14.224  10.105  10.133  0.3109  0.7689 -0.3679
 1008MOL0     C35985  14.313  10.222  10.171 -1.3268  0.4388 -0.4851
 1008MOL0     C35986  14.464  10.180  10.150 -0.0162 -0.4454 -1.1939
 1008MOL0     C35987  14.501  10.129  10.019 -0.1561 -0.0217  0.1696
 1008MOL0     C35988  14.645  10.126  10.011  1.0648  0.0544  0.3016
 1008MOL0    Cl35989  14.712  10.032  10.151  0.1150  0.1836 -0.0488
 1008MOL0     C35990  13.559   9.911  10.105 -0.5229 -0.3014 -0.3840
 1008MOL0     C35991  13.423   9.928  10.124  0.7888  0.0165  1.4732
 1008MOL0     O35992  13.152   9.987  10.050  0.1885  0.0588 -0.2598
 1008MOL0     C35993  12.919  10.120  10.109  0.3633  0.7863 -0.2337
 1008MOL0     C35994  12.797  10.187  10.149 -0.8022 -0.0784  0.7538
 1008MOL0     N35995  12.187  10.393  10.170 -0.3172 -0.5182 -1.0285
 1008MOL0     N35996  12.065  10.398  10.123 -0.0703 -0.0637 -0.1512
 1008MOL0     C35997  10.705  10.097  10.521  0.1756  1.0782  0.7258
 1008MOL0     C35998  10.580  10.093  10.590 -0.6050 -0.6102  0.4239
 1008MOL0     C35999  10.277  10.043  10.959  0.2210 -0.6997 -0.1600
 1008MOL0     C36000  10.183  10.130  10.898  0.3944 -0.7661 -0.5294
 1008MOL0     C36001  10.047  10.134  10.936  0.0806  0.0869  0.3465
 1008MOL0     C36002  10.003  10.053  11.042  1.2802  0.3662 -0.1306
 1008MOL0     O36003   9.867  10.069  11.073 -0.0554  0.4235  0.0785
 1008MOL0     C36004   9.816   9.967  11.164 -0.1089 -0.4904  0.0537
 1008MOL0     C36005   9.659   9.988  11.170  0.6064  0.0458 -0.6187
 1008MOL0     C36006   9.620  10.119  11.243  0.2927 -0.4845  0.3032
 1008MOL0     C36007   9.470  10.147  11.225  0.2392  0.6839 -0.2883
 1008MOL0     C36008   9.449  10.281  11.284 -0.9894 -0.2056  0.0704
 1008MOL0     C36009   9.435  10.400  11.326 -0.8877  0.4861  0.1571
 1008MOL0     C36010  10.099   9.979  11.104 -0.4923 -0.3245 -0.0604
 1008MOL0     C36011  10.233   9.971  11.073 -0.1726 -0.6529  0.0164
 1008MOL0     C36012  10.316   9.902  11.175 -0.0271 -0.1138 -1.0400
 1008MOL0     H36013  10.702  10.091  10.904  0.2886 -1.2452 -0.4539
 1008MOL0     H36014  10.910  10.126  10.791  0.1428  2.1822 -1.7141
 1008MOL0     H36015  11.063  10.279  10.600 -3.5130 -0.1259 -0.1069
 1008MOL0     H36016  11.087  10.113  10.667  0.9908 -1.6350 -1.8906
 1008MOL0     H36017  11.131  10.175  10.368 -2.8304 -2.9347  0.7974
 1008MOL0     H36018  11.213  10.056  10.475  0.1802  0.2493  1.7513
 1008MOL0     H36019  11.340  10.234  10.592 -2.8028 -0.6039  1.0329
 1008MOL0     H36020  11.283  10.348  10.467 -0.1763 -1.4098 -2.2928
 1008MOL0     H36021  11.466  10.109  10.440  0.1346 -0.8258  1.7016
 1008MOL0     H36022  11.379  10.183  10.297  1.5746  0.0821 -0.8753
 1008MOL0     H36023  11.488  10.401  10.363 -0.5785 -0.8646 -0.2650
 1008MOL0     H36024  11.575  10.318  10.492  0.4154  2.7165  0.6820
 1008MOL0     H36025  11.635  10.155  10.270  1.6734 -0.2647 -2.4819
 1008MOL0     H36026  11.582  10.294  10.178  1.1834  1.8834 -0.4962
 1008MOL0     H36027  11.795  10.299  10.395 -0.5732 -1.7344 -0.7101
 1008MOL0     H36028  11.752  10.438  10.292 -1.0147  0.4502 -0.0003
 1008MOL0     H36029  11.853  10.177  10.169  0.4077 -0.6388 -1.3261
 1008MOL0     H36030  11.804  10.331  10.101  0.0032  2.6048  2.0174
 1008MOL0     H36031  12.012  10.311  10.431  1.9076  0.3761  1.1464
 1008MOL0     H36032  12.254  10.458  10.473 -0.3016 -1.2930  0.9346
 1008MOL0     H36033  12.263  10.281  10.478 -3.0136 -0.5479 -1.4636
 1008MOL0     H36034  12.435  10.288  10.314 -0.0653 -0.1941  1.7903
 1008MOL0     H36035  12.438  10.477  10.315  0.1007  2.2671  1.1674
 1008MOL0     H36036  12.523  10.299  10.546  0.5595  1.3513  1.5815
 1008MOL0     H36037  12.488  10.464  10.533 -0.7730 -1.4437  0.3651
 1008MOL0     H36038  12.742  10.372  10.500  2.0141 -1.7727 -2.5684
 1008MOL0     H36039  12.690  10.505  10.401 -2.0672 -1.4084 -2.2971
 1008MOL0     H36040  12.910  10.264  10.468  1.0878  0.3314  0.1378
 1008MOL0     H36041  13.076  10.131  10.411  0.3349 -0.8171 -0.3067
 1008MOL0     H36042  13.424  10.036  10.443  0.9305  0.0434  0.0087
 1008MOL0     H36043  13.664   9.978  10.408  0.6861 -3.4994  0.6464
 1008MOL0     H36044  13.835  10.083  10.268 -1.4836 -0.8873  1.4700
 1008MOL0     H36045  13.895   9.933  10.351 -1.2150 -1.1778  0.6737
 1008MOL0     H36046  14.045   9.900  10.169  1.5520  0.0866 -1.3191
 1008MOL0     H36047  13.963  10.013  10.060  0.7656  4.0721 -0.2357
 1008MOL0     H36048  14.051  10.209  10.197 -2.6866 -0.7844 -1.0708
 1008MOL0     H36049  14.114  10.097  10.320  1.2054 -2.1010 -1.0691
 1008MOL0     H36050  14.206  10.115  10.025  0.1009 -0.2877 -0.4409
 1008MOL0     H36051  14.274  10.008  10.143 -0.5604  0.5215  2.3925
 1008MOL0     H36052  14.293  10.257  10.273  0.5404  0.5885 -0.1217
 1008MOL0     H36053  14.285  10.298  10.097 -0.6541 -0.5030 -1.7467
 1008MOL0     H36054  14.523  10.260  10.196 -0.3459 -0.9499  0.1347
 1008MOL0     H36055  14.472  10.094  10.217 -0.7515 -1.5285 -2.4371
 1008MOL0     H36056  14.472  10.196   9.938 -0.2650  0.6002  0.7116
 1008MOL0     H36057  14.465  10.027  10.006  3.1384 -1.3565  0.4776
 1008MOL0     H36058  14.674  10.092   9.911 -1.9145  0.4956 -0.8068
 1008MOL0     H36059  14.674  10.231  10.023  1.3392 -0.1506  1.5826
 1008MOL0     H36060  13.608   9.874  10.015 -0.5229 -0.4332 -0.3307
 1008MOL0     H36061  13.370   9.909  10.031  1.4221  1.0773  0.8767
 1008MOL0     H36062  12.921  10.080  10.008 -0.1603  2.4934 -0.9602
 1008MOL0     H36063  12.726  10.222  10.074  1.5953 -1.2552 -2.2758
 1008MOL0     H36064  10.700  10.091  10.413  0.0755  0.0663  0.7712
 1008MOL0     H36065  10.487  10.083  10.534 -0.0142  4.8882 -2.2478
 1008MOL0     H36066  10.203  10.197  10.816  0.6692  1.1831  1.0524
 1008MOL0     H36067   9.981  10.201  10.882 -0.6059  0.7180  1.8968
 1008MOL0     H36068   9.857   9.973  11.265 -2.8196  2.3166  1.1597
 1008MOL0     H36069   9.832   9.869  11.117  0.1960 -0.4902  0.1564
 1008MOL0     H36070   9.614   9.914  11.237  1.1282  3.5225  4.1284
 1008MOL0     H36071   9.618   9.983  11.069  0.4690 -1.3315 -0.5139
 1008MOL0     H36072   9.685  10.195  11.199 -0.8713  0.9115  0.9096
 1008MOL0     H36073   9.635  10.115  11.351 -1.3912 -0.3579  0.5765
 1008MOL0     H36074   9.446  10.137  11.118  0.9422 -0.0675 -0.3856
 1008MOL0     H36075   9.411  10.080  11.288 -0.1740  0.1049 -1.2644
 1008MOL0     H36076   9.421  10.499  11.364 -0.9484  0.9983 -1.1597
 1008MOL0     H36077  10.071   9.945  11.204  3.5631 -0.5140  1.1981
 1008MOL0     H36078  10.365   9.815  11.129  0.4316 -1.5054  1.8467
 1008MOL0     H36079  10.386   9.969  11.226 -0.4519  1.5560 -2.5474
 1008MOL0     H36080  10.255   9.852  11.251  0.1764  1.6740  0.3621
 1009MOL0     O36081   4.772   4.301   8.810  0.2968 -0.6046  0.4449
 1009MOL0     C36082   4.695   4.283   8.712 -0.5897 -0.8659  0.2944
 1009MOL0     O36083   4.727   4.306   8.586 -0.7627 -0.0713 -0.1858
 1009MOL0     C36084   4.840   4.377   8.563 -0.2537  0.5621  0.4251
 1009MOL0     C36085   4.822   4.512   8.512  0.1097 -0.0693  0.2399
 1009MOL0     C36086   4.946   4.589   8.495  0.0883  0.5928  0.0316
 1009MOL0     C36087   5.068   4.536   8.512  0.6231 -0.5991  0.6035
 1009MOL0     O36088   5.176   4.620   8.503  0.3799 -0.6981  0.3926
 1009MOL0     C36089   5.307   4.575   8.539 -0.8194  0.4664  0.0728
 1009MOL0     C36090   5.392   4.690   8.480  0.0412  0.1968 -0.2012
 1009MOL0     C36091   5.536   4.672   8.503 -0.3966  0.4388  0.5925
 1009MOL0     C36092   5.585   4.708   8.642  0.2196  0.2511  0.0021
 1009MOL0     C36093   5.732   4.690   8.663 -0.5898 -0.2238  0.4376
 1009MOL0     C36094   5.768   4.677   8.805  0.2444 -0.0671  0.6907
 1009MOL0     C36095   5.779   4.812   8.875  0.7969  0.4048 -0.2342
 1009MOL0     C36096   5.794   4.770   9.027 -0.1405 -0.3120  0.1933
 1009MOL0     N36097   5.814   4.899   9.089 -0.3236 -0.3242 -0.6195
 1009MOL0     C36098   5.924   4.977   9.065 -0.5395 -0.6321 -0.2411
 1009MOL0     C36099   5.903   5.094   9.140  0.2982  0.5041  0.2023
 1009MOL0     C36100   5.999   5.209   9.158 -0.0418  0.0502 -0.2485
 1009MOL0     C36101   5.953   5.330   9.092 -0.3049  0.7415  0.6130
 1009MOL0     C36102   6.037   5.448   9.124 -0.8710  0.5439 -0.3260
 1009MOL0     C36103   5.990   5.572   9.052  0.0958 -0.9068 -0.5303
 1009MOL0     O36104   6.066   5.692   9.082  0.2102  0.2693 -0.8252
 1009MOL0     C36105   6.192   5.695   9.039 -0.0272  0.6740 -0.0456
 1009MOL0     C36106   6.294   5.679   9.142  0.1712 -0.1948  0.0047
 1009MOL0     C36107   6.423   5.698   9.102  0.1623  0.6261 -0.4271
 1009MOL0     C36108   6.462   5.701   8.969 -0.2280 -0.0133  0.7918
 1009MOL0     C36109   6.608   5.706   8.938 -0.9355  0.1644 -0.5525
 1009MOL0     O36110   6.700   5.724   9.043 -0.3508 -0.0183 -0.6888
 1009MOL0     C36111   6.824   5.785   9.024 -0.1296  0.5534  0.6719
 1009MOL0     C36112   6.900   5.789   9.142  0.5044  0.2553 -0.5496
 1009MOL0     C36113   7.035   5.826   9.135 -0.8064  0.2907  0.9235
 1009MOL0     C36114   7.091   5.870   9.016 -0.4326  0.8152 -0.5268
 1009MOL0     O36115   7.223   5.907   9.013  0.1737 -0.0130 -0.2719
 1009MOL0     C36116   7.325   5.806   9.034  0.3752  0.1287  0.5454
 1009MOL0     C36117   7.454   5.888   9.027  0.5792 -0.0774 -0.0905
 1009MOL0     C36118   7.586   5.802   9.037 -0.7146  0.2909 -0.5251
 1009MOL0     C36119   7.712   5.877   8.989 -0.0579 -0.2408  0.1326
 1009MOL0     C36120   7.833   5.786   8.985  0.7813  0.2750 -0.0628
 1009MOL0     C36121   7.958   5.847   8.946  0.0050  0.0126  0.3966
 1009MOL0     C36122   8.078   5.746   8.955 -1.0476 -0.4327  0.6328
 1009MOL0     C36123   8.197   5.792   8.880 -0.4584  0.2857  0.0717
 1009MOL0    Cl36124   8.337   5.684   8.901  0.2003 -0.2148  0.0874
 1009MOL0     C36125   7.016   5.887   8.904 -0.2654 -0.2172  0.0763
 1009MOL0     C36126   6.881   5.837   8.904  0.1624 -0.0163  0.0817
 1009MOL0     O36127   6.637   5.695   8.823  0.3505 -0.0306 -0.1997
 1009MOL0     C36128   6.364   5.714   8.871  0.4385  0.8185 -0.2593
 1009MOL0     C36129   6.232   5.710   8.908  0.2893  0.2118  0.2913
 1009MOL0     N36130   5.774   5.095   9.190  0.3027 -0.6187  0.5322
 1009MOL0     N36131   5.729   4.975   9.162  0.1603  0.2141 -0.1179
 1009MOL0     C36132   5.073   4.404   8.543  0.3561  0.2616 -0.0897
 1009MOL0     C36133   4.966   4.321   8.565 -0.7919 -0.2922 -0.7249
 1009MOL0     C36134   4.567   4.222   8.742  0.0467  0.2999 -0.3234
 1009MOL0     C36135   4.564   4.118   8.837  0.2917  0.2775  0.0361
 1009MOL0     C36136   4.451   4.043   8.864 -0.6689  0.7233  0.1574
 1009MOL0     C36137   4.324   4.074   8.802  0.9561 -0.6751 -0.2385
 1009MOL0     O36138   4.215   4.001   8.835  0.0751 -0.2882  0.8623
 1009MOL0     C36139   4.086   4.038   8.796  1.3478 -0.5493  0.2570
 1009MOL0     C36140   4.027   4.172   8.850 -0.6524 -0.4157  0.7165
 1009MOL0     C36141   3.895   4.210   8.775 -0.2006 -0.7918 -0.4089
 1009MOL0     C36142   3.777   4.114   8.801 -0.6921 -0.3814  0.2855
 1009MOL0     C36143   3.655   4.183   8.749 -0.0985  0.2465  0.2021
 1009MOL0     C36144   3.543   4.227   8.725 -0.3300  1.1357  0.1951
 1009MOL0     C36145   4.320   4.192   8.716 -0.5799  0.8883  0.4805
 1009MOL0     C36146   4.443   4.266   8.684 -0.0811  0.0067 -0.1843
 1009MOL0     C36147   4.426   4.392   8.606 -0.5666 -0.4488  0.4524
 1009MOL0     H36148   4.729   4.561   8.490  0.6946  1.2523  0.6158
 1009MOL0     H36149   4.933   4.686   8.449 -0.9286  0.8888  0.9005
 1009MOL0     H36150   5.312   4.560   8.648 -0.9083 -1.0209 -0.1050
 1009MOL0     H36151   5.342   4.481   8.497 -1.4408  0.4301 -0.3659
 1009MOL0     H36152   5.349   4.787   8.505  1.4758  1.2054 -1.5065
 1009MOL0     H36153   5.378   4.699   8.372  0.0845  0.3041 -0.1980
 1009MOL0     H36154   5.595   4.745   8.446 -0.2036  0.7035  1.1343
 1009MOL0     H36155   5.559   4.570   8.470 -2.5375 -0.0627  0.5256
 1009MOL0     H36156   5.563   4.815   8.657  3.0593  1.2281 -1.9751
 1009MOL0     H36157   5.531   4.644   8.713 -2.7717 -0.8695 -3.0128
 1009MOL0     H36158   5.770   4.599   8.615  1.3964  1.4103 -1.3041
 1009MOL0     H36159   5.783   4.767   8.604 -1.4544 -1.2287 -1.7343
 1009MOL0     H36160   5.696   4.618   8.864 -2.8236  2.0627 -0.6638
 1009MOL0     H36161   5.865   4.628   8.818  1.1708  1.7986  1.1477
 1009MOL0     H36162   5.693   4.875   8.853 -0.3886 -0.4466  1.7397
 1009MOL0     H36163   5.864   4.872   8.840 -0.6259  2.8312  0.2757
 1009MOL0     H36164   5.700   4.726   9.062 -1.0833  0.0837 -1.7047
 1009MOL0     H36165   5.883   4.708   9.042 -0.8761 -1.0086  2.0118
 1009MOL0     H36166   6.010   4.948   9.005 -0.7362  0.0973 -0.8915
 1009MOL0     H36167   6.016   5.226   9.264 -2.4928 -0.2904  0.2433
 1009MOL0     H36168   6.099   5.189   9.116  0.5495  3.9898 -1.0858
 1009MOL0     H36169   5.965   5.314   8.984  3.3285  1.2449  0.8223
 1009MOL0     H36170   5.853   5.356   9.127  1.2215  3.5238  3.3364
 1009MOL0     H36171   6.140   5.426   9.096 -1.5219 -1.2873 -1.4759
 1009MOL0     H36172   6.031   5.466   9.232  2.7531  2.7570 -0.3286
 1009MOL0     H36173   5.885   5.593   9.071 -0.0652 -0.6144 -1.6901
 1009MOL0     H36174   5.986   5.553   8.944 -3.3990 -1.7119 -0.3474
 1009MOL0     H36175   6.256   5.652   9.240 -0.4266  0.8037  0.0611
 1009MOL0     H36176   6.490   5.693   9.187 -1.7225  1.4640  1.1815
 1009MOL0     H36177   6.852   5.756   9.233  0.9821  1.6682  0.2452
 1009MOL0     H36178   7.102   5.820   9.220 -0.4111  0.0969  0.5992
 1009MOL0     H36179   7.334   5.754   9.130  2.2691  0.0225  0.3549
 1009MOL0     H36180   7.312   5.727   8.960 -0.7492 -1.7812  2.6776
 1009MOL0     H36181   7.451   5.944   8.933  0.5686  1.0366  0.5501
 1009MOL0     H36182   7.463   5.957   9.112 -1.5699 -0.3467  0.4217
 1009MOL0     H36183   7.603   5.774   9.141  2.8634 -0.1864 -1.1118
 1009MOL0     H36184   7.561   5.710   8.984 -0.0830 -2.4938  3.5168
 1009MOL0     H36185   7.739   5.960   9.055  3.1393 -0.1194 -1.1641
 1009MOL0     H36186   7.697   5.913   8.887  0.5098 -0.6358 -0.0977
 1009MOL0     H36187   7.818   5.703   8.914  0.9932 -1.0832  1.4163
 1009MOL0     H36188   7.844   5.742   9.085 -0.3694 -0.1012 -0.0860
 1009MOL0     H36189   7.948   5.876   8.841  4.9927 -1.8440 -0.8578
 1009MOL0     H36190   7.982   5.934   9.007  1.5531 -0.7372  0.9027
 1009MOL0     H36191   8.050   5.657   8.898  0.7565 -0.7458  0.1634
 1009MOL0     H36192   8.096   5.723   9.061 -0.9963 -0.0611  0.7047
 1009MOL0     H36193   8.174   5.782   8.773  1.1181  1.2721 -0.3958
 1009MOL0     H36194   8.221   5.896   8.903 -0.7407  0.4209 -0.2386
 1009MOL0     H36195   7.064   5.946   8.827 -1.2861 -0.4873 -0.7916
 1009MOL0     H36196   6.817   5.848   8.817 -0.3287 -1.3796  0.2470
 1009MOL0     H36197   6.390   5.724   8.766  1.3125  2.4541  0.0828
 1009MOL0     H36198   6.157   5.716   8.829 -0.1508 -1.7305  0.5090
 1009MOL0     H36199   5.169   4.355   8.546 -0.0567 -0.9652 -3.2996
 1009MOL0     H36200   4.979   4.218   8.597 -1.6901 -0.5945 -1.3158
 1009MOL0     H36201   4.654   4.086   8.890  0.5887  1.6880  0.4309
 1009MOL0     H36202   4.438   3.963   8.937 -0.7714 -0.1158 -0.7533
 1009MOL0     H36203   4.011   3.969   8.835  0.6404  0.3975  0.6239
 1009MOL0     H36204   4.072   4.027   8.688  0.0133 -1.2136  0.4757
 1009MOL0     H36205   4.109   4.242   8.832 -0.2907 -0.5037  1.9312
 1009MOL0     H36206   4.015   4.164   8.958  2.4989 -0.7343  1.1248
 1009MOL0     H36207   3.915   4.217   8.668  0.4637 -1.2179 -0.3212
 1009MOL0     H36208   3.872   4.309   8.816 -1.5262 -1.6712  1.0929
 1009MOL0     H36209   3.788   4.022   8.743  1.0177  0.6167 -1.0665
 1009MOL0     H36210   3.770   4.092   8.908  2.6320 -0.4486  0.5952
 1009MOL0     H36211   3.456   4.285   8.701 -0.2882  1.3418  0.5352
 1009MOL0     H36212   4.234   4.240   8.671 -1.6168  0.1467  1.6041
 1009MOL0     H36213   4.442   4.365   8.501  0.3058 -2.3714  1.0306
 1009MOL0     H36214   4.325   4.432   8.619  0.1591  0.7419  2.9942
 1009MOL0     H36215   4.503   4.468   8.621 -0.6956 -0.7133  2.7466
 1010MOL0     O36216   6.710   9.959   0.308  0.3829 -0.1020  0.0359
 1010MOL0     C36217   6.653   9.853   0.267  0.4224 -0.0368  0.4355
 1010MOL0     O36218   6.686   9.783   0.153 -0.2692 -1.0362 -0.1375
 1010MOL0     C36219   6.792   9.827   0.086  0.4478  0.1581  0.0395
 1010MOL0     C36220   6.763   9.880  -0.037 -0.2632  0.0929 -0.5683
 1010MOL0     C36221   6.863   9.927  -0.114 -0.7692  0.9685  0.5619
 1010MOL0     C36222   6.995   9.907  -0.073  0.1496 -0.1425 -0.0701
 1010MOL0     O36223   7.107   9.944  -0.154  0.3456  0.2112 -0.6644
 1010MOL0     C36224   7.109   9.881  -0.284  0.1954 -0.6279 -0.6452
 1010MOL0     C36225   7.243   9.882  -0.347  0.0219 -0.2004 -0.2580
 1010MOL0     C36226   7.342   9.782  -0.292 -1.0408 -0.5002 -0.2026
 1010MOL0     C36227   7.291   9.644  -0.268 -0.6085  0.4226 -0.3336
 1010MOL0     C36228   7.402   9.529  -0.259 -0.5147 -0.2760 -0.0887
 1010MOL0     C36229   7.520   9.569  -0.171 -0.1431 -0.2231 -0.2591
 1010MOL0     C36230   7.626   9.460  -0.166 -0.1061  0.5905  0.5363
 1010MOL0     C36231   7.742   9.486  -0.075  0.0235 -0.5926  1.3652
 1010MOL0     N36232   7.840   9.371  -0.091 -0.0190 -0.5624  0.3878
 1010MOL0     C36233   7.806   9.244  -0.059  0.5319 -0.4719 -0.7055
 1010MOL0     C36234   7.911   9.165  -0.102 -0.3122 -0.5342 -0.0074
 1010MOL0     C36235   7.932   9.013  -0.095  0.1741 -0.4860  0.1453
 1010MOL0     C36236   8.064   8.979  -0.039  0.0040 -0.1865 -0.5102
 1010MOL0     C36237   8.070   8.818  -0.018  0.5636 -0.3329  0.0478
 1010MOL0     C36238   8.194   8.775   0.067  0.3541 -0.4100 -0.9435
 1010MOL0     O36239   8.205   8.636   0.099 -0.8806 -1.2482  0.2271
 1010MOL0     C36240   8.329   8.614   0.159  0.0045  0.5589  0.7217
 1010MOL0     C36241   8.389   8.695   0.254  0.1767 -0.1670 -0.7127
 1010MOL0     C36242   8.518   8.667   0.292  0.7307 -0.0255  0.5798
 1010MOL0     C36243   8.586   8.548   0.242 -0.8198 -0.4827  0.3473
 1010MOL0     C36244   8.719   8.520   0.292  0.3643  0.1405 -0.3205
 1010MOL0     O36245   8.783   8.621   0.358  0.3858  0.0136 -0.0917
 1010MOL0     C36246   8.909   8.609   0.398  0.0658  0.2305 -0.2008
 1010MOL0     C36247   8.947   8.665   0.522  0.5141 -0.3028  0.2444
 1010MOL0     C36248   9.077   8.652   0.570  0.3179  0.2694 -0.3607
 1010MOL0     C36249   9.174   8.596   0.495 -0.2810  0.7026  0.4496
 1010MOL0     O36250   9.301   8.593   0.543 -0.3012  0.5606  0.4428
 1010MOL0     C36251   9.399   8.515   0.466  1.1737  0.1693  0.0231
 1010MOL0     C36252   9.534   8.545   0.517 -0.0603  0.2143 -0.2360
 1010MOL0     C36253   9.642   8.493   0.423  0.4966 -0.3215 -0.5044
 1010MOL0     C36254   9.783   8.528   0.475 -0.0752 -0.0969  1.0925
 1010MOL0     C36255   9.890   8.488   0.374  0.4762 -0.2569 -0.6261
 1010MOL0     C36256  10.026   8.511   0.433 -1.0258 -0.3882  0.0794
 1010MOL0     C36257  10.060   8.656   0.462  0.0900 -0.2277  0.3153
 1010MOL0     C36258  10.180   8.678   0.554 -0.1208  0.2867 -0.0939
 1010MOL0    Cl36259  10.333   8.604   0.488  0.1358 -0.4578  0.0030
 1010MOL0     C36260   9.140   8.548   0.364  0.0306  0.8537  0.0926
 1010MOL0     C36261   9.011   8.552   0.317  0.3045  1.1060 -0.4698
 1010MOL0     O36262   8.753   8.404   0.284 -1.0567  0.9483 -0.1614
 1010MOL0     C36263   8.519   8.460   0.153  0.4457  0.0559  0.2664
 1010MOL0     C36264   8.390   8.500   0.108 -0.1460 -0.1194 -0.1554
 1010MOL0     N36265   8.003   9.254  -0.170  0.4849  0.2962 -1.0652
 1010MOL0     N36266   7.962   9.373  -0.153 -0.4300  0.1303  0.1689
 1010MOL0     C36267   7.026   9.871   0.054  0.5911  1.1928 -0.2814
 1010MOL0     C36268   6.923   9.821   0.130  0.5368  0.0019 -0.5534
 1010MOL0     C36269   6.527   9.805   0.329  0.1472  0.7478 -0.6924
 1010MOL0     C36270   6.504   9.670   0.334  0.1557  0.8611 -0.5684
 1010MOL0     C36271   6.386   9.626   0.399  0.5383 -0.1977  0.5345
 1010MOL0     C36272   6.289   9.704   0.454 -0.2381 -0.2870 -0.4772
 1010MOL0     O36273   6.181   9.662   0.528  0.1043  0.1766  0.7153
 1010MOL0     C36274   6.179   9.523   0.571  0.5208  1.1320  0.5524
 1010MOL0     C36275   6.066   9.494   0.667 -0.2939 -0.9371  0.3850
 1010MOL0     C36276   6.089   9.551   0.811 -0.3076 -0.3129 -0.4877
 1010MOL0     C36277   5.958   9.542   0.891  0.1130 -0.1032  1.1662
 1010MOL0     C36278   5.931   9.405   0.937  0.1745 -0.3837 -0.2175
 1010MOL0     C36279   5.914   9.282   0.954  1.2231 -0.0780 -0.0174
 1010MOL0     C36280   6.316   9.844   0.450  0.6703 -0.5464  0.6760
 1010MOL0     C36281   6.431   9.891   0.381  0.0902 -0.9826 -0.6349
 1010MOL0     C36282   6.443  10.041   0.374 -0.8376 -0.8405  0.2857
 1010MOL0     H36283   6.658   9.887  -0.062 -0.8153  2.6765  2.0118
 1010MOL0     H36284   6.823   9.968  -0.206 -1.1145 -0.9832 -0.2136
 1010MOL0     H36285   7.059   9.784  -0.275  0.4321 -0.5887  2.0562
 1010MOL0     H36286   7.048   9.938  -0.354  0.7668  0.1541 -0.5157
 1010MOL0     H36287   7.290   9.980  -0.335 -1.8087  1.3181 -3.7424
 1010MOL0     H36288   7.217   9.878  -0.454  0.5491  3.4834 -0.6425
 1010MOL0     H36289   7.371   9.815  -0.192  0.8263  0.5615 -1.0594
 1010MOL0     H36290   7.424   9.777  -0.364  1.3369  0.7273  2.2859
 1010MOL0     H36291   7.251   9.645  -0.166 -0.9276  0.0517 -0.4525
 1010MOL0     H36292   7.215   9.630  -0.346  2.3928  0.4532 -3.4990
 1010MOL0     H36293   7.358   9.439  -0.216  1.1386 -0.3336  1.6044
 1010MOL0     H36294   7.440   9.509  -0.360  1.6963  1.0620  0.4203
 1010MOL0     H36295   7.562   9.665  -0.201 -1.4420  0.3635 -0.2271
 1010MOL0     H36296   7.484   9.597  -0.072  2.6722 -0.5898  0.9711
 1010MOL0     H36297   7.674   9.448  -0.263 -0.4505 -2.9731  0.6511
 1010MOL0     H36298   7.578   9.364  -0.144 -0.8660  0.5223 -1.2967
 1010MOL0     H36299   7.792   9.580  -0.099 -0.9306 -0.1654  0.9880
 1010MOL0     H36300   7.711   9.484   0.030 -2.0436 -0.4707  0.7984
 1010MOL0     H36301   7.723   9.213   0.004  1.2720 -0.5974  0.2317
 1010MOL0     H36302   7.852   8.961  -0.042 -1.4998  0.5714 -1.2552
 1010MOL0     H36303   7.924   8.972  -0.196  2.4093  1.2294 -0.8210
 1010MOL0     H36304   8.143   9.007  -0.110 -0.9424  0.9186 -1.1607
 1010MOL0     H36305   8.072   9.044   0.049 -2.2254  1.2154 -1.2775
 1010MOL0     H36306   8.095   8.780  -0.118  0.3743  1.2204 -0.6155
 1010MOL0     H36307   7.971   8.786   0.015  0.4839 -1.1020 -0.8899
 1010MOL0     H36308   8.207   8.835   0.158  2.3641  0.0307 -1.4765
 1010MOL0     H36309   8.272   8.807  -0.003 -0.8167 -0.2983 -2.2425
 1010MOL0     H36310   8.333   8.776   0.298  1.2521  0.8322 -1.1253
 1010MOL0     H36311   8.563   8.740   0.358  2.1828  0.9363 -1.3679
 1010MOL0     H36312   8.875   8.712   0.588 -0.5667 -1.2814 -0.2013
 1010MOL0     H36313   9.117   8.694   0.662  0.3726  1.5592 -0.9397
 1010MOL0     H36314   9.366   8.414   0.490  0.7338  0.7794  2.1716
 1010MOL0     H36315   9.392   8.555   0.364 -3.2436 -0.8392 -0.2857
 1010MOL0     H36316   9.542   8.652   0.541 -0.9948  0.3767 -0.6050
 1010MOL0     H36317   9.551   8.493   0.612 -1.2304 -0.3043 -0.2882
 1010MOL0     H36318   9.633   8.384   0.434  1.3926 -0.1899  2.1836
 1010MOL0     H36319   9.636   8.520   0.317  1.6306 -0.4660 -0.6214
 1010MOL0     H36320   9.801   8.482   0.572  0.0684 -0.6031  0.8351
 1010MOL0     H36321   9.776   8.635   0.495 -0.9868 -0.2758  1.7610
 1010MOL0     H36322   9.883   8.548   0.283  1.6398 -1.1132 -1.3152
 1010MOL0     H36323   9.898   8.382   0.347  2.6390 -0.3122  0.0479
 1010MOL0     H36324  10.039   8.448   0.522  0.7482 -0.7517 -0.3862
 1010MOL0     H36325  10.108   8.470   0.372 -2.3977 -0.2022 -1.9825
 1010MOL0     H36326   9.977   8.720   0.491 -1.3346 -0.4488 -2.8566
 1010MOL0     H36327  10.085   8.706   0.368 -2.7867  2.9851  1.0583
 1010MOL0     H36328  10.198   8.786   0.561  1.3639  0.2875 -2.4853
 1010MOL0     H36329  10.147   8.637   0.649 -0.4217  0.6908 -0.0213
 1010MOL0     H36330   9.217   8.507   0.299  0.6230  0.4657  1.0256
 1010MOL0     H36331   8.975   8.507   0.225  1.3697 -0.3426 -0.2032
 1010MOL0     H36332   8.571   8.369   0.125  5.8704  1.7054  3.4529
 1010MOL0     H36333   8.342   8.429   0.042  1.9599 -0.7617 -1.0732
 1010MOL0     H36334   7.124   9.861   0.101 -0.0449 -0.9693  0.7041
 1010MOL0     H36335   6.935   9.780   0.230  0.2026 -1.7411 -1.1956
 1010MOL0     H36336   6.575   9.602   0.289 -0.5252  0.1184 -0.5376
 1010MOL0     H36337   6.383   9.517   0.401  1.1956 -0.2229  2.4073
 1010MOL0     H36338   6.272   9.482   0.612 -1.7951 -2.2874  2.8669
 1010MOL0     H36339   6.166   9.451   0.489  2.1428  1.3581  0.0468
 1010MOL0     H36340   6.052   9.387   0.685 -0.7534 -0.5211  2.7804
 1010MOL0     H36341   5.980   9.540   0.616 -0.5756  1.8296  3.1012
 1010MOL0     H36342   6.113   9.657   0.798  1.5660 -0.5831  0.4082
 1010MOL0     H36343   6.170   9.499   0.863 -0.7266 -0.9844 -0.4921
 1010MOL0     H36344   5.957   9.607   0.980  0.0994  1.8626 -0.2057
 1010MOL0     H36345   5.877   9.561   0.820  0.7562  0.3514  0.5412
 1010MOL0     H36346   5.872   9.184   0.967 -2.2700  0.8261 -2.5895
 1010MOL0     H36347   6.249   9.904   0.511  0.1160 -0.4382 -0.0205
 1010MOL0     H36348   6.351  10.095   0.398 -0.0466 -0.0651  1.7229
 1010MOL0     H36349   6.515  10.087   0.442 -2.8965 -0.6177  2.4638
 1010MOL0     H36350   6.473  10.072   0.274 -2.7026  4.5688  1.1024
 1011MOL0     O36351   1.896   4.697   3.909  0.6843 -0.4729  0.6533
 1011MOL0     C36352   1.802   4.720   3.977  0.4527 -0.7083 -0.3801
 1011MOL0     O36353   1.784   4.839   4.040 -0.5888 -0.3332 -0.0769
 1011MOL0     C36354   1.888   4.929   4.055  0.1075  0.9343 -0.6033
 1011MOL0     C36355   1.921   4.970   4.183  0.3873 -0.3504  0.4371
 1011MOL0     C36356   2.024   5.060   4.207 -0.2532  0.7491 -0.1702
 1011MOL0     C36357   2.080   5.123   4.093 -1.0079  0.0946 -0.1159
 1011MOL0     O36358   2.170   5.232   4.113  0.0664  0.8394 -0.1037
 1011MOL0     C36359   2.194   5.328   4.007  0.1165 -0.7488  0.0799
 1011MOL0     C36360   2.065   5.401   3.975  0.0666  0.4310  0.1256
 1011MOL0     C36361   2.030   5.482   4.101  0.9660  0.4345  0.1611
 1011MOL0     C36362   1.910   5.587   4.071  0.7934  0.2878  1.0314
 1011MOL0     C36363   1.785   5.517   4.008 -0.5907 -0.0529 -0.1561
 1011MOL0     C36364   1.657   5.614   4.007 -0.5641  0.4961  0.4256
 1011MOL0     C36365   1.550   5.572   3.904  0.1767  0.7894 -0.5357
 1011MOL0     C36366   1.491   5.432   3.915 -0.9230  0.0643 -0.0269
 1011MOL0     N36367   1.354   5.406   3.860 -0.1661  0.0607 -0.4095
 1011MOL0     C36368   1.270   5.485   3.779 -0.8938  0.9298  0.0428
 1011MOL0     C36369   1.152   5.425   3.783  0.7942 -0.7447  0.2843
 1011MOL0     C36370   1.031   5.466   3.687  0.1770 -0.0047 -0.6165
 1011MOL0     C36371   1.056   5.579   3.581 -0.0938  0.6431 -1.4918
 1011MOL0     C36372   1.132   5.517   3.460  0.2883  0.5194  0.2491
 1011MOL0     C36373   1.179   5.616   3.351  0.1070  0.0961  0.8702
 1011MOL0     O36374   1.227   5.741   3.403  0.0799  0.5202  0.4545
 1011MOL0     C36375   1.349   5.746   3.463 -0.3364 -0.7347 -0.0581
 1011MOL0     C36376   1.372   5.872   3.514 -0.2598 -0.2175  0.6950
 1011MOL0     C36377   1.487   5.904   3.583  0.5779 -0.0074  0.1305
 1011MOL0     C36378   1.592   5.797   3.589 -0.1784 -0.4157 -0.3004
 1011MOL0     C36379   1.721   5.845   3.649 -0.3381  0.6563  0.5141
 1011MOL0     O36380   1.822   5.757   3.639  0.4072 -0.4571 -0.4629
 1011MOL0     C36381   1.942   5.786   3.694 -0.5732 -0.4270 -0.2431
 1011MOL0     C36382   2.044   5.714   3.638  0.3891 -0.6156  0.1582
 1011MOL0     C36383   2.174   5.711   3.685 -0.7919  0.1477 -0.3066
 1011MOL0     C36384   2.207   5.781   3.797  0.4921 -0.3286 -0.0083
 1011MOL0     O36385   2.332   5.769   3.850 -0.3274  0.4086  0.6045
 1011MOL0     C36386   2.351   5.788   3.997  0.3674 -0.7337 -0.4748
 1011MOL0     C36387   2.386   5.936   4.031  0.7736  0.1186 -0.4654
 1011MOL0     C36388   2.513   5.992   3.969 -0.3163  0.3949  0.6367
 1011MOL0     C36389   2.636   5.901   3.980  0.0789 -0.2138 -0.0458
 1011MOL0     C36390   2.767   5.985   3.994  0.4284 -0.2699  0.4637
 1011MOL0     C36391   2.887   5.892   4.035  0.2594 -0.3261 -0.1084
 1011MOL0     C36392   3.023   5.969   4.034  0.6338 -0.0561 -0.4856
 1011MOL0     C36393   3.145   5.897   4.088  0.1038 -0.1466  0.6226
 1011MOL0    Cl36394   3.274   6.023   4.100 -0.3326  0.0501 -0.5500
 1011MOL0     C36395   2.109   5.859   3.851  0.1299 -0.0841 -0.1842
 1011MOL0     C36396   1.976   5.856   3.809  1.4816  0.1267 -0.0122
 1011MOL0     O36397   1.721   5.950   3.711  0.2481 -0.3883 -0.0154
 1011MOL0     C36398   1.570   5.670   3.522 -0.1124 -0.3851 -0.4682
 1011MOL0     C36399   1.447   5.643   3.466  0.9862 -0.2377  0.2506
 1011MOL0     N36400   1.150   5.328   3.874 -0.0255  0.4535  0.4636
 1011MOL0     N36401   1.270   5.311   3.910  0.1605  0.0598 -0.1242
 1011MOL0     C36402   2.047   5.085   3.965 -0.5422  0.0431 -0.6536
 1011MOL0     C36403   1.951   4.988   3.951 -0.9052 -0.6427 -0.1157
 1011MOL0     C36404   1.677   4.632   3.983  0.0576 -0.1978  0.8688
 1011MOL0     C36405   1.552   4.693   4.027 -0.0734  0.1071 -0.6388
 1011MOL0     C36406   1.431   4.620   4.025 -0.3322 -0.3029 -0.4890
 1011MOL0     C36407   1.432   4.493   3.973  0.5060  0.3373  0.0987
 1011MOL0     O36408   1.320   4.411   3.965  0.9382  0.3365  0.2866
 1011MOL0     C36409   1.194   4.470   4.007 -0.6387 -0.2686  0.2247
 1011MOL0     C36410   1.097   4.361   4.010 -0.1788 -0.4780 -0.1269
 1011MOL0     C36411   0.965   4.412   4.062  0.0253 -0.1649  0.0459
 1011MOL0     C36412   0.849   4.317   4.057 -0.4941  0.0916 -0.3841
 1011MOL0     C36413   0.850   4.243   3.927  0.6239  0.6439 -0.8682
 1011MOL0     C36414   0.843   4.185   3.824 -0.0019  0.5197 -0.1165
 1011MOL0     C36415   1.545   4.432   3.928  0.3132 -0.1762  0.2646
 1011MOL0     C36416   1.673   4.497   3.929 -0.0819  0.0845 -0.2258
 1011MOL0     C36417   1.792   4.418   3.884 -0.0152  0.3841  0.3526
 1011MOL0     H36418   1.878   4.925   4.271  1.1670  1.0921  1.6000
 1011MOL0     H36419   2.058   5.094   4.304 -0.9639  2.7122 -0.5707
 1011MOL0     H36420   2.259   5.408   4.044 -2.3289  0.7522  1.3892
 1011MOL0     H36421   2.233   5.286   3.914  1.7278  1.0883 -0.1376
 1011MOL0     H36422   1.981   5.334   3.954 -1.4712  0.9313  4.0220
 1011MOL0     H36423   2.081   5.465   3.887 -3.6558 -1.7728 -2.4254
 1011MOL0     H36424   2.114   5.546   4.129 -1.0444  2.9301  0.9060
 1011MOL0     H36425   2.001   5.416   4.183  3.6091 -0.5239  0.4109
 1011MOL0     H36426   1.874   5.635   4.163 -1.2100  0.3193  0.2594
 1011MOL0     H36427   1.949   5.666   4.005  0.7916 -1.4812 -1.1945
 1011MOL0     H36428   1.807   5.477   3.909 -1.9692  0.3028 -0.6159
 1011MOL0     H36429   1.765   5.431   4.072  0.9506 -0.1128  0.2864
 1011MOL0     H36430   1.614   5.624   4.107  1.3793  2.0851  1.1688
 1011MOL0     H36431   1.697   5.713   3.983  0.9388 -0.2088 -0.1400
 1011MOL0     H36432   1.593   5.579   3.804 -0.3866  0.5015 -0.7989
 1011MOL0     H36433   1.460   5.635   3.903 -0.7617 -0.4289 -3.4472
 1011MOL0     H36434   1.566   5.374   3.860 -1.1762  0.6887 -1.0584
 1011MOL0     H36435   1.491   5.411   4.023 -1.2807 -1.9124 -0.3638
 1011MOL0     H36436   1.312   5.564   3.718 -0.6935  0.4225 -0.4869
 1011MOL0     H36437   0.995   5.380   3.630  0.9478 -0.2698 -0.7107
 1011MOL0     H36438   0.943   5.489   3.747 -0.0199  0.4762 -1.0815
 1011MOL0     H36439   0.963   5.624   3.545 -1.0191  0.3357  0.3992
 1011MOL0     H36440   1.109   5.663   3.627 -0.3399  1.3593 -2.4811
 1011MOL0     H36441   1.068   5.444   3.409 -0.6691  0.8277  0.9667
 1011MOL0     H36442   1.212   5.452   3.497 -0.5379  0.0764  1.3195
 1011MOL0     H36443   1.099   5.642   3.281  2.2446  3.7702 -0.4711
 1011MOL0     H36444   1.254   5.561   3.293 -0.3216  1.8662 -1.5247
 1011MOL0     H36445   1.309   5.960   3.502 -0.4482 -0.2853  1.1855
 1011MOL0     H36446   1.504   6.006   3.616 -0.9989  0.6937 -1.0921
 1011MOL0     H36447   2.038   5.658   3.545  5.8519 -2.8867  0.8010
 1011MOL0     H36448   2.262   5.662   3.644 -1.2063  0.3665 -1.5101
 1011MOL0     H36449   2.259   5.770   4.053  0.4257  1.2670  0.3528
 1011MOL0     H36450   2.431   5.719   4.027  1.8328  0.6783 -0.9889
 1011MOL0     H36451   2.301   5.996   3.997  0.5984  1.2078  1.7653
 1011MOL0     H36452   2.383   5.948   4.139 -1.9119  2.5111 -0.6926
 1011MOL0     H36453   2.496   6.017   3.864  0.2320  0.1037  0.4790
 1011MOL0     H36454   2.542   6.082   4.024  2.8913 -1.8014  2.8411
 1011MOL0     H36455   2.634   5.833   3.895  2.2434 -3.7749  2.4570
 1011MOL0     H36456   2.624   5.838   4.069  3.4628 -0.1631  0.5891
 1011MOL0     H36457   2.757   6.069   4.065  1.1384 -0.6072  0.9808
 1011MOL0     H36458   2.785   6.030   3.896  2.2341 -1.5682  0.1378
 1011MOL0     H36459   2.872   5.833   4.125 -0.3508 -0.7762 -0.4999
 1011MOL0     H36460   2.890   5.821   3.952 -0.0844  1.3355 -1.6101
 1011MOL0     H36461   3.007   6.060   4.092 -1.8843 -0.5108 -0.3677
 1011MOL0     H36462   3.053   5.998   3.933  0.2618 -0.1042 -0.6116
 1011MOL0     H36463   3.125   5.847   4.183  3.6175 -0.4432  1.3393
 1011MOL0     H36464   3.175   5.817   4.020  1.5728 -1.7255  2.9680
 1011MOL0     H36465   2.119   5.920   3.940  0.1751 -1.2211  0.6060
 1011MOL0     H36466   1.903   5.920   3.857 -1.5843 -1.5165 -2.1174
 1011MOL0     H36467   1.654   5.604   3.502  0.6978  0.5811 -0.3865
 1011MOL0     H36468   1.431   5.540   3.435 -1.0268  0.6927 -2.1443
 1011MOL0     H36469   2.100   5.133   3.882  2.0224  0.3851  1.0647
 1011MOL0     H36470   1.927   4.967   3.847 -1.6956  0.2452 -0.1229
 1011MOL0     H36471   1.542   4.793   4.067  1.2177  0.0117 -0.0268
 1011MOL0     H36472   1.336   4.671   4.032  0.2631  0.7266  0.5664
 1011MOL0     H36473   1.155   4.553   3.947  0.2810  1.5927  2.0662
 1011MOL0     H36474   1.208   4.503   4.110  1.0880 -0.3794  0.0535
 1011MOL0     H36475   1.133   4.276   4.069 -2.8224 -1.5222  0.1429
 1011MOL0     H36476   1.090   4.335   3.904  0.8964  0.2717 -0.3998
 1011MOL0     H36477   0.933   4.509   4.021 -2.3966  0.5155  3.2162
 1011MOL0     H36478   0.987   4.432   4.167  2.4423 -0.5935 -0.3179
 1011MOL0     H36479   0.858   4.257   4.148  0.6169 -0.1630 -0.6429
 1011MOL0     H36480   0.756   4.367   4.085 -0.4616 -1.6102  3.4305
 1011MOL0     H36481   0.834   4.127   3.734  1.3793  1.6366 -0.9965
 1011MOL0     H36482   1.543   4.331   3.887  1.9311  0.1462 -0.6863
 1011MOL0     H36483   1.772   4.315   3.854  2.1572 -0.6020  2.0682
 1011MOL0     H36484   1.824   4.468   3.792  1.3856  1.7524  1.5412
 1011MOL0     H36485   1.871   4.433   3.957 -1.1329  2.8090  1.1720
 1012MOL0     O36486   9.850   0.791   0.584 -0.5930  0.0356  0.3727
 1012MOL0     C36487   9.767   0.712   0.535 -0.3865 -0.1159 -0.6144
 1012MOL0     O36488   9.796   0.607   0.445  0.1615  0.0221  0.2662
 1012MOL0     C36489   9.919   0.598   0.381 -0.2856 -0.8209 -0.1859
 1012MOL0     C36490   9.990   0.475   0.378 -0.0841 -0.0647 -0.4799
 1012MOL0     C36491  10.102   0.461   0.297 -0.9735  0.3947 -0.6514
 1012MOL0     C36492  10.150   0.564   0.213  0.1101 -0.7436  0.1858
 1012MOL0     O36493  10.260   0.563   0.132  0.8933 -0.1266 -0.2644
 1012MOL0     C36494  10.293   0.445   0.061  0.0575  0.8177 -0.3757
 1012MOL0     C36495  10.442   0.426   0.040  0.6071 -0.3619  0.3681
 1012MOL0     C36496  10.492   0.340   0.156  0.4625  0.4688  0.4961
 1012MOL0     C36497  10.631   0.281   0.121 -0.9293  0.7548 -0.0888
 1012MOL0     C36498  10.688   0.189   0.238 -0.6990  0.1158  0.8131
 1012MOL0     C36499  10.826   0.138   0.192  0.0906  0.5626  0.6005
 1012MOL0     C36500  10.929   0.108   0.299  0.9774  1.2670 -0.1609
 1012MOL0     C36501  11.001   0.222   0.349  0.0612 -0.9194  0.6955
 1012MOL0     N36502  11.135   0.242   0.283  0.2057 -0.1700 -0.2520
 1012MOL0     C36503  11.145   0.310   0.166  0.0747  0.7138  0.1912
 1012MOL0     C36504  11.268   0.292   0.134 -0.2370  0.5315  0.5424
 1012MOL0     C36505  11.328   0.343   0.004 -0.5424  0.4972 -0.7734
 1012MOL0     C36506  11.419   0.237  -0.062  0.3812  0.5538 -0.1501
 1012MOL0     C36507  11.477   0.277  -0.194 -0.5155  0.3888  0.7205
 1012MOL0     C36508  11.605   0.365  -0.177  0.6013  0.1331  0.5816
 1012MOL0     O36509  11.705   0.288  -0.109 -0.0687 -0.1002  0.1526
 1012MOL0     C36510  11.831   0.335  -0.086 -0.5289 -0.0912  0.1995
 1012MOL0     C36511  11.878   0.464  -0.099 -0.3123  0.6646 -0.1393
 1012MOL0     C36512  12.013   0.495  -0.068  0.8073 -0.3822 -0.7046
 1012MOL0     C36513  12.106   0.389  -0.029 -0.6133 -0.3542  0.0037
 1012MOL0     C36514  12.252   0.419  -0.003  0.6106  0.4680 -0.3862
 1012MOL0     O36515  12.328   0.310   0.033  0.1926  0.4775  0.1175
 1012MOL0     C36516  12.448   0.328   0.082 -0.6750 -0.0615 -0.4545
 1012MOL0     C36517  12.542   0.283   0.002 -0.3762  0.3839  0.5081
 1012MOL0     C36518  12.676   0.276   0.046  0.9668 -0.6599 -0.8663
 1012MOL0     C36519  12.703   0.310   0.182  0.4779  0.3337  0.8874
 1012MOL0     O36520  12.828   0.279   0.233  0.2103 -0.3031 -0.0230
 1012MOL0     C36521  12.927   0.379   0.184  0.5853  0.5944  0.2461
 1012MOL0     C36522  13.049   0.355   0.261  0.7678 -0.0495 -0.5519
 1012MOL0     C36523  13.162   0.447   0.206  0.1338  0.0207  1.2597
 1012MOL0     C36524  13.289   0.446   0.290  0.1122 -0.0405  0.4260
 1012MOL0     C36525  13.405   0.490   0.197 -0.3523  0.0278 -0.0484
 1012MOL0     C36526  13.558   0.494   0.255  0.4580  0.0855  0.0005
 1012MOL0     C36527  13.659   0.465   0.135 -0.2324 -0.7283 -0.2113
 1012MOL0     C36528  13.804   0.507   0.183  0.1582  0.4859  0.0711
 1012MOL0    Cl36529  13.833   0.441   0.344 -0.3403  0.0168 -0.2424
 1012MOL0     C36530  12.603   0.372   0.257 -0.0579  0.0533  0.7795
 1012MOL0     C36531  12.469   0.375   0.209 -0.2104  0.3033 -0.4987
 1012MOL0     O36532  12.288   0.536  -0.016 -0.1132  0.3024  0.3007
 1012MOL0     C36533  12.055   0.261  -0.018 -1.0097  0.0446 -0.0846
 1012MOL0     C36534  11.922   0.237  -0.039  0.8365 -0.0948  0.0296
 1012MOL0     N36535  11.334   0.214   0.233  0.1292 -0.6476 -0.2535
 1012MOL0     N36536  11.253   0.206   0.333 -0.5316 -0.7275 -0.0386
 1012MOL0     C36537  10.082   0.689   0.226  0.3316 -0.1988  0.0099
 1012MOL0     C36538   9.965   0.703   0.302  0.0067  0.5907 -0.7041
 1012MOL0     C36539   9.638   0.732   0.582 -0.1145 -0.1106 -0.0805
 1012MOL0     C36540   9.574   0.613   0.622 -0.5696 -0.4122 -0.4034
 1012MOL0     C36541   9.441   0.629   0.668  0.3338  0.5328  0.8194
 1012MOL0     C36542   9.385   0.757   0.686  0.7194 -0.3690 -0.4735
 1012MOL0     O36543   9.247   0.784   0.713 -0.4501  0.0763 -0.3999
 1012MOL0     C36544   9.175   0.687   0.792  0.0513  0.7625 -0.0289
 1012MOL0     C36545   9.039   0.736   0.823  0.2920 -0.6194 -0.2402
 1012MOL0     C36546   8.961   0.644   0.916 -0.2253  0.6649  0.4838
 1012MOL0     C36547   9.001   0.639   1.059  0.4688 -0.1275 -0.8994
 1012MOL0     C36548   8.908   0.561   1.144  0.7865  0.6041  0.2476
 1012MOL0     C36549   8.833   0.485   1.205 -0.4858 -0.6306  0.1110
 1012MOL0     C36550   9.460   0.872   0.665 -0.2764  0.1111  0.6094
 1012MOL0     C36551   9.583   0.859   0.598  0.4898 -1.0257  0.1465
 1012MOL0     C36552   9.657   0.975   0.548 -0.0979  0.6627 -0.8990
 1012MOL0     H36553   9.957   0.390   0.436  0.9266  0.9421  1.6968
 1012MOL0     H36554  10.162   0.372   0.315 -2.5480 -0.4940  0.4762
 1012MOL0     H36555  10.262   0.351   0.108  0.6104  1.9830  2.5667
 1012MOL0     H36556  10.248   0.451  -0.038 -2.8174 -2.9718  0.4911
 1012MOL0     H36557  10.507   0.514   0.037  2.2717 -1.5332 -2.2658
 1012MOL0     H36558  10.458   0.382  -0.059 -1.2349 -0.0677 -0.1063
 1012MOL0     H36559  10.424   0.255   0.169 -0.1609  0.6319 -1.4026
 1012MOL0     H36560  10.477   0.388   0.253 -1.4537 -0.2150  0.5806
 1012MOL0     H36561  10.620   0.218   0.032 -0.7854 -0.0125  0.4274
 1012MOL0     H36562  10.691   0.370   0.101 -2.1722  2.2098  2.2586
 1012MOL0     H36563  10.689   0.260   0.322 -2.6623  3.5731 -1.8330
 1012MOL0     H36564  10.616   0.109   0.260 -0.7520 -0.0711 -0.0391
 1012MOL0     H36565  10.794   0.042   0.150  0.4469 -0.1983  2.0165
 1012MOL0     H36566  10.870   0.205   0.118 -0.3530  1.4317  1.1060
 1012MOL0     H36567  11.004   0.042   0.256 -1.8876 -1.1927 -1.8396
 1012MOL0     H36568  10.885   0.049   0.380 -0.0719 -1.4235 -2.5444
 1012MOL0     H36569  10.943   0.311   0.325  0.7223 -0.6924 -0.1185
 1012MOL0     H36570  11.016   0.205   0.456  1.9276 -1.9199  0.3189
 1012MOL0     H36571  11.065   0.362   0.115 -1.0067 -1.1030 -0.0649
 1012MOL0     H36572  11.251   0.362  -0.072 -1.1415 -1.0959 -0.6173
 1012MOL0     H36573  11.369   0.443   0.016 -1.1855  0.9216 -1.9774
 1012MOL0     H36574  11.493   0.202   0.011 -0.7503 -1.9665 -0.1157
 1012MOL0     H36575  11.369   0.143  -0.086 -2.3659  1.4877  1.4793
 1012MOL0     H36576  11.405   0.319  -0.265  0.3835 -0.6102 -0.8339
 1012MOL0     H36577  11.515   0.192  -0.252  3.0526  1.8008  0.7736
 1012MOL0     H36578  11.588   0.447  -0.107 -1.3326  0.5685 -0.3362
 1012MOL0     H36579  11.627   0.404  -0.277 -1.1350 -0.6441 -0.1556
 1012MOL0     H36580  11.817   0.543  -0.140 -1.8167  0.1473  1.0004
 1012MOL0     H36581  12.042   0.599  -0.075 -1.0634  0.6282  3.5394
 1012MOL0     H36582  12.531   0.236  -0.096  2.7952  0.5326 -0.0358
 1012MOL0     H36583  12.758   0.238  -0.014 -0.5528 -1.2110 -2.6735
 1012MOL0     H36584  12.949   0.377   0.076 -0.4670  5.4406 -0.2712
 1012MOL0     H36585  12.893   0.480   0.209  0.1158  0.6036 -0.4064
 1012MOL0     H36586  13.037   0.379   0.367  3.9756  0.7543 -0.2450
 1012MOL0     H36587  13.085   0.252   0.251  0.5026 -0.2394  0.3883
 1012MOL0     H36588  13.184   0.418   0.103 -1.4962 -4.8382  2.0162
 1012MOL0     H36589  13.132   0.551   0.195 -0.1485  0.0436  2.1029
 1012MOL0     H36590  13.319   0.352   0.338  2.0943  0.9610  1.2965
 1012MOL0     H36591  13.290   0.515   0.375  0.9246  0.2400  0.2041
 1012MOL0     H36592  13.371   0.588   0.163  0.1440  0.3410  0.3348
 1012MOL0     H36593  13.402   0.420   0.113  0.4551  0.0802 -0.1348
 1012MOL0     H36594  13.585   0.594   0.292  1.6123  0.6680 -2.2590
 1012MOL0     H36595  13.565   0.417   0.332 -2.2684  1.5936  1.9389
 1012MOL0     H36596  13.628   0.517   0.043 -4.0433 -1.0418  0.7102
 1012MOL0     H36597  13.660   0.359   0.110 -2.1992 -0.1502 -3.3436
 1012MOL0     H36598  13.885   0.471   0.118  3.1504  0.2569  3.5745
 1012MOL0     H36599  13.815   0.616   0.190  1.2489  0.3245  1.1878
 1012MOL0     H36600  12.619   0.411   0.357  1.4447 -4.3712  2.5615
 1012MOL0     H36601  12.391   0.410   0.276 -0.6305 -0.6540 -0.4765
 1012MOL0     H36602  12.121   0.179   0.009 -1.9875 -0.9783 -0.7266
 1012MOL0     H36603  11.894   0.133  -0.031  0.5058 -0.0244 -0.1764
 1012MOL0     H36604  10.101   0.764   0.149 -0.6185 -1.5265 -1.6010
 1012MOL0     H36605   9.902   0.791   0.299 -0.7458  0.1284  0.7751
 1012MOL0     H36606   9.631   0.522   0.608 -0.4074 -0.4813  0.5734
 1012MOL0     H36607   9.393   0.534   0.688  2.7738 -1.3042 -1.3623
 1012MOL0     H36608   9.219   0.673   0.892  0.2081  0.1169 -0.1803
 1012MOL0     H36609   9.174   0.597   0.729 -3.9216  1.5585 -1.3770
 1012MOL0     H36610   8.983   0.749   0.731 -0.9007  1.7656  0.7480
 1012MOL0     H36611   9.039   0.830   0.879  2.2725  0.0032 -1.1782
 1012MOL0     H36612   8.973   0.544   0.874 -1.8627  0.3051  0.8187
 1012MOL0     H36613   8.854   0.665   0.907  0.2236  2.4852 -1.3757
 1012MOL0     H36614   9.102   0.600   1.065 -0.2573 -1.8352  2.9690
 1012MOL0     H36615   9.011   0.743   1.092 -0.2763 -0.8296  1.8290
 1012MOL0     H36616   8.762   0.435   1.268 -2.5997  0.1245 -1.5549
 1012MOL0     H36617   9.412   0.967   0.687 -2.6044 -0.4884 -1.3540
 1012MOL0     H36618   9.691   0.939   0.450  0.6753 -0.0635 -0.3751
 1012MOL0     H36619   9.600   1.066   0.532 -0.7668 -0.0624 -3.0549
 1012MOL0     H36620   9.744   0.994   0.612 -0.6517 -0.7714  0.3485
 1013MOL0     O36621   4.731   6.326   3.303 -0.2842 -0.3191  0.0883
 1013MOL0     C36622   4.733   6.208   3.348 -0.0999 -0.0882 -0.0829
 1013MOL0     O36623   4.829   6.146   3.418  0.6273 -0.5244  0.2966
 1013MOL0     C36624   4.953   6.203   3.443 -0.0753 -0.5494 -0.5184
 1013MOL0     C36625   5.056   6.118   3.477 -0.0178 -0.2076 -0.5784
 1013MOL0     C36626   5.180   6.162   3.505  0.0276  0.2828 -0.1888
 1013MOL0     C36627   5.205   6.301   3.520 -0.8244 -0.6492 -0.4474
 1013MOL0     O36628   5.327   6.348   3.557 -0.0928  0.0197  0.1899
 1013MOL0     C36629   5.432   6.294   3.466 -0.0473 -0.0427  0.1710
 1013MOL0     C36630   5.580   6.344   3.496  0.1710  0.2824  0.2152
 1013MOL0     C36631   5.604   6.327   3.648 -0.6897 -0.2987 -0.1395
 1013MOL0     C36632   5.757   6.342   3.679  0.3057  0.4080  0.1189
 1013MOL0     C36633   5.782   6.401   3.822 -0.6470 -0.2121 -0.1288
 1013MOL0     C36634   5.937   6.409   3.845 -0.0189 -1.0709 -0.3082
 1013MOL0     C36635   5.977   6.523   3.938 -0.1721 -1.0185  0.3519
 1013MOL0     C36636   6.074   6.474   4.043 -0.1597  0.6730 -0.8127
 1013MOL0     N36637   5.998   6.402   4.152 -0.2645 -0.7024 -0.6770
 1013MOL0     C36638   5.942   6.280   4.140 -0.0710  0.0450 -0.2748
 1013MOL0     C36639   5.909   6.237   4.260  0.6355 -0.8259 -0.5830
 1013MOL0     C36640   5.864   6.107   4.294 -0.3394 -0.4497  0.0855
 1013MOL0     C36641   5.993   6.037   4.327  0.4897  0.5699 -0.4888
 1013MOL0     C36642   5.979   5.892   4.370 -1.0298  0.1872 -0.0736
 1013MOL0     C36643   6.113   5.824   4.378  0.5746  1.0319  0.1018
 1013MOL0     O36644   6.196   5.889   4.480  0.7142 -0.3033  0.4048
 1013MOL0     C36645   6.329   5.865   4.482 -1.1515  0.4501 -0.8117
 1013MOL0     C36646   6.397   5.939   4.566 -0.0390 -0.4321 -0.6425
 1013MOL0     C36647   6.537   5.942   4.579  0.1012  0.1560  0.5609
 1013MOL0     C36648   6.610   5.860   4.494  0.2218  0.2760  0.5068
 1013MOL0     C36649   6.762   5.837   4.503 -0.5093  0.8170  0.0587
 1013MOL0     O36650   6.818   5.871   4.624 -0.0869  1.0349 -0.8672
 1013MOL0     C36651   6.957   5.879   4.652 -0.3562  0.5584 -0.0630
 1013MOL0     C36652   6.996   5.856   4.781  0.1453  0.1433 -0.0241
 1013MOL0     C36653   7.130   5.854   4.812 -0.5505  0.1652 -0.2535
 1013MOL0     C36654   7.229   5.885   4.716  0.1304 -0.7762  0.2798
 1013MOL0     O36655   7.361   5.908   4.754  0.4626 -0.1942 -0.4591
 1013MOL0     C36656   7.411   5.828   4.864 -0.5218  0.3633  0.4590
 1013MOL0     C36657   7.560   5.792   4.850  0.9491 -0.5228  0.1099
 1013MOL0     C36658   7.611   5.722   4.976 -0.0428  1.1034 -0.8897
 1013MOL0     C36659   7.682   5.819   5.067  0.3997 -0.1112  0.0959
 1013MOL0     C36660   7.694   5.752   5.211  0.0795  0.3903  0.9605
 1013MOL0     C36661   7.565   5.766   5.289 -0.2952  0.3988 -0.3332
 1013MOL0     C36662   7.584   5.689   5.425 -0.0798  0.0560  0.0121
 1013MOL0     C36663   7.447   5.660   5.489  0.0242 -0.4082  0.7207
 1013MOL0    Cl36664   7.427   5.787   5.620 -0.5986 -0.2510  0.0474
 1013MOL0     C36665   7.194   5.911   4.585  0.1488  1.2956  0.3573
 1013MOL0     C36666   7.055   5.905   4.553 -1.1850  0.6387 -0.6140
 1013MOL0     O36667   6.817   5.771   4.410  0.6504 -0.2007 -0.2749
 1013MOL0     C36668   6.535   5.781   4.398  0.4589 -0.3621 -0.8332
 1013MOL0     C36669   6.396   5.774   4.393 -0.1073 -0.4979  0.8627
 1013MOL0     N36670   5.937   6.336   4.351 -0.2549  0.5341  0.3762
 1013MOL0     N36671   5.998   6.435   4.286  0.2870 -0.1465  0.7441
 1013MOL0     C36672   5.101   6.386   3.492 -0.2030 -0.1071  0.3646
 1013MOL0     C36673   4.976   6.339   3.447 -0.7997 -0.1544  0.7817
 1013MOL0     C36674   4.595   6.144   3.350  0.2555 -0.6507  0.0045
 1013MOL0     C36675   4.485   6.233   3.335 -0.0899 -0.6197  0.0149
 1013MOL0     C36676   4.353   6.184   3.332  0.1387  0.8766 -0.3394
 1013MOL0     C36677   4.335   6.043   3.338  0.1160  0.0465 -0.5954
 1013MOL0     O36678   4.204   6.002   3.356 -0.4202  0.5023  0.0578
 1013MOL0     C36679   4.187   5.862   3.389 -0.3839 -0.1959  0.5826
 1013MOL0     C36680   4.040   5.835   3.376  0.6562 -0.1730  0.1797
 1013MOL0     C36681   3.994   5.850   3.232 -0.3292 -0.4737  0.0581
 1013MOL0     C36682   3.854   5.810   3.206 -0.0551  0.7617  0.5989
 1013MOL0     C36683   3.838   5.660   3.213 -0.1771 -0.2205 -0.0379
 1013MOL0     C36684   3.800   5.545   3.220 -0.9978 -0.3207  0.2195
 1013MOL0     C36685   4.449   5.958   3.349  0.0488 -0.5325  1.0002
 1013MOL0     C36686   4.580   6.005   3.353 -0.4155 -0.5921  0.6979
 1013MOL0     C36687   4.695   5.909   3.347 -0.1383  0.4778  0.2294
 1013MOL0     H36688   5.042   6.011   3.464  0.0590  0.1371 -5.8605
 1013MOL0     H36689   5.261   6.090   3.510  1.6348  2.0401  0.2596
 1013MOL0     H36690   5.441   6.185   3.471  2.0363  0.1376  1.2303
 1013MOL0     H36691   5.397   6.315   3.365  0.0671 -0.6803 -0.0057
 1013MOL0     H36692   5.588   6.449   3.468  0.1265 -0.1329 -1.4374
 1013MOL0     H36693   5.655   6.288   3.439 -0.0941 -0.3772  0.5016
 1013MOL0     H36694   5.579   6.227   3.685  0.5107 -2.1570 -3.8169
 1013MOL0     H36695   5.551   6.411   3.693  2.2738  1.8841 -0.4029
 1013MOL0     H36696   5.811   6.247   3.671  1.1725  1.0058 -1.6775
 1013MOL0     H36697   5.796   6.413   3.605 -2.7216  0.6450 -1.3960
 1013MOL0     H36698   5.750   6.505   3.821  1.4835  0.4988  1.0292
 1013MOL0     H36699   5.738   6.351   3.909  2.0221  1.4912  2.3732
 1013MOL0     H36700   5.977   6.316   3.886 -0.3717 -0.3158  1.9193
 1013MOL0     H36701   5.987   6.428   3.749 -1.4651 -0.9337 -1.0566
 1013MOL0     H36702   5.892   6.565   3.993  1.5004  2.4064  0.5724
 1013MOL0     H36703   6.016   6.614   3.892 -0.2671  0.0871  2.3351
 1013MOL0     H36704   6.143   6.403   3.997 -0.1815  0.4326 -0.4793
 1013MOL0     H36705   6.141   6.548   4.088  1.4430 -2.2480  1.9967
 1013MOL0     H36706   5.942   6.223   4.048 -2.8401  3.4636 -2.6249
 1013MOL0     H36707   5.794   6.098   4.378 -1.2807 -1.2350 -0.7410
 1013MOL0     H36708   5.810   6.059   4.211  0.1941  0.2643 -0.6852
 1013MOL0     H36709   6.074   6.039   4.253  0.2590  0.6932 -0.7381
 1013MOL0     H36710   6.037   6.094   4.410  0.1973  1.1184 -0.7057
 1013MOL0     H36711   5.919   5.840   4.294 -1.1143  0.0535  0.0841
 1013MOL0     H36712   5.927   5.884   4.466  1.2609 -0.7532  1.1539
 1013MOL0     H36713   6.157   5.827   4.278  0.1130 -0.5048 -0.1645
 1013MOL0     H36714   6.099   5.717   4.393  0.6768  0.8557 -0.9490
 1013MOL0     H36715   6.346   6.014   4.626  0.4567  0.5223 -1.3960
 1013MOL0     H36716   6.590   6.003   4.652  0.0281  1.9664 -0.8336
 1013MOL0     H36717   6.928   5.831   4.862  1.2601 -1.4142  0.4804
 1013MOL0     H36718   7.159   5.836   4.915 -0.7520 -1.8555 -0.5129
 1013MOL0     H36719   7.397   5.886   4.956  0.0991  2.3295 -0.6315
 1013MOL0     H36720   7.355   5.735   4.877  1.8515 -1.0302  1.2981
 1013MOL0     H36721   7.568   5.733   4.759 -3.7458 -0.9016 -0.3049
 1013MOL0     H36722   7.616   5.885   4.840 -0.1896  0.4686  2.1757
 1013MOL0     H36723   7.533   5.665   5.026 -1.0691  1.9543 -1.4633
 1013MOL0     H36724   7.682   5.647   4.941 -1.3106 -0.2689 -0.6295
 1013MOL0     H36725   7.629   5.914   5.074  0.9142  0.2388 -0.6177
 1013MOL0     H36726   7.779   5.843   5.023 -0.1113  0.4790 -0.7375
 1013MOL0     H36727   7.776   5.798   5.268  0.9342  0.0346  0.0509
 1013MOL0     H36728   7.707   5.643   5.203  0.1290  0.5389 -2.2699
 1013MOL0     H36729   7.547   5.872   5.311  2.0389  1.0320 -1.2294
 1013MOL0     H36730   7.487   5.717   5.230 -0.7260  0.4169  0.2061
 1013MOL0     H36731   7.649   5.745   5.492 -0.3826  2.3469 -1.4725
 1013MOL0     H36732   7.643   5.597   5.416  1.6402  1.1443 -0.2717
 1013MOL0     H36733   7.366   5.675   5.417  0.0660  2.1074  1.1176
 1013MOL0     H36734   7.432   5.555   5.518 -0.5188 -0.6439 -0.3756
 1013MOL0     H36735   7.274   5.938   4.516 -0.9398  1.6573 -0.7944
 1013MOL0     H36736   7.027   5.932   4.452  2.4023 -1.0490 -2.2513
 1013MOL0     H36737   6.593   5.708   4.343 -1.5941 -0.8337 -2.5073
 1013MOL0     H36738   6.332   5.710   4.332 -0.7655 -0.7078  1.7517
 1013MOL0     H36739   5.119   6.493   3.502 -0.9874  0.1097 -0.3821
 1013MOL0     H36740   4.900   6.409   3.415 -0.6860 -0.7318 -0.8722
 1013MOL0     H36741   4.498   6.341   3.332 -0.8151 -0.5512 -1.0915
 1013MOL0     H36742   4.274   6.258   3.331 -1.1440 -0.3820  1.4415
 1013MOL0     H36743   4.228   5.845   3.489 -0.1950 -4.0581 -0.0130
 1013MOL0     H36744   4.245   5.800   3.321  0.3797  2.2411 -1.1208
 1013MOL0     H36745   3.982   5.907   3.434 -0.8154 -0.9930 -0.2275
 1013MOL0     H36746   4.004   5.736   3.407  1.7616 -0.7544 -0.3359
 1013MOL0     H36747   4.063   5.786   3.177  0.7557  0.1629  0.6415
 1013MOL0     H36748   4.010   5.951   3.194  2.5676 -1.0859 -0.6085
 1013MOL0     H36749   3.786   5.843   3.285  1.3596  1.5662  1.5377
 1013MOL0     H36750   3.824   5.854   3.110  4.8194  5.0965  0.6138
 1013MOL0     H36751   3.775   5.441   3.228 -2.3355 -0.0403 -0.1335
 1013MOL0     H36752   4.440   5.851   3.332  0.5726 -0.2963 -0.9984
 1013MOL0     H36753   4.768   5.942   3.273 -0.0839 -1.7274 -0.7779
 1013MOL0     H36754   4.742   5.901   3.446  0.5136 -0.3605 -0.1423
 1013MOL0     H36755   4.663   5.810   3.312 -1.1993  0.4803  1.1129
 1014MOL0     O36756   8.609  10.428   8.173 -0.8664 -0.2578 -0.0107
 1014MOL0     C36757   8.640  10.429   8.296  0.2248 -0.5151  1.3085
 1014MOL0     O36758   8.754  10.383   8.344 -0.2302  0.1943 -0.0252
 1014MOL0     C36759   8.849  10.328   8.261  0.4644 -0.0679  0.6308
 1014MOL0     C36760   8.848  10.197   8.205  0.4721 -0.1824  0.8445
 1014MOL0     C36761   8.952  10.142   8.126  0.4044  0.6250 -0.4765
 1014MOL0     C36762   9.058  10.225   8.105  0.0667 -0.1634 -0.1226
 1014MOL0     O36763   9.160  10.203   8.015  0.1852 -0.7989  0.1796
 1014MOL0     C36764   9.175  10.068   7.962 -0.2463  0.2170  0.0022
 1014MOL0     C36765   9.219   9.957   8.072  0.3697  0.5173  1.2272
 1014MOL0     C36766   9.312   9.997   8.181  0.6995 -0.5304  0.2698
 1014MOL0     C36767   9.453  10.031   8.132 -0.1166 -0.2547  0.2248
 1014MOL0     C36768   9.540   9.908   8.125 -0.7811  0.5103  1.0712
 1014MOL0     C36769   9.520   9.822   7.994 -0.4362 -0.5436 -0.5350
 1014MOL0     C36770   9.642   9.725   7.977  0.2568  0.1852  0.0065
 1014MOL0     C36771   9.634   9.649   7.841 -0.1520  0.2439 -0.1793
 1014MOL0     N36772   9.751   9.561   7.821 -0.0360  0.7049  0.0999
 1014MOL0     C36773   9.757   9.432   7.863 -0.0733 -0.7531 -1.0174
 1014MOL0     C36774   9.881   9.401   7.832 -0.3972  0.4569  0.2880
 1014MOL0     C36775   9.936   9.266   7.843  0.5786 -0.8073  0.1484
 1014MOL0     C36776   9.931   9.213   7.988 -0.0666  0.2651 -0.1597
 1014MOL0     C36777  10.036   9.288   8.076 -0.2381 -0.8996 -0.4930
 1014MOL0     C36778  10.180   9.308   8.028 -0.7724 -0.1193  0.2513
 1014MOL0     O36779  10.236   9.189   7.971 -0.6484 -0.0310 -0.2726
 1014MOL0     C36780  10.370   9.190   7.958  0.4800 -0.2727  0.3915
 1014MOL0     C36781  10.433   9.067   7.938  0.1598  0.0956 -0.8479
 1014MOL0     C36782  10.564   9.051   7.896  0.1705  0.1568  0.2227
 1014MOL0     C36783  10.640   9.170   7.883  0.2405  0.0306  0.7690
 1014MOL0     C36784  10.780   9.166   7.852 -0.4271  0.1404 -0.4124
 1014MOL0     O36785  10.849   9.286   7.827  0.5767  0.0524  0.4370
 1014MOL0     C36786  10.981   9.266   7.821 -0.4005 -1.3107  0.3639
 1014MOL0     C36787  11.041   9.335   7.725  0.1516  0.1104  0.1101
 1014MOL0     C36788  11.182   9.334   7.707 -0.1491 -0.4376  0.0231
 1014MOL0     C36789  11.267   9.267   7.809 -0.1258 -0.1639  0.8172
 1014MOL0     O36790  11.403   9.275   7.790 -0.4363 -0.6998  0.8879
 1014MOL0     C36791  11.488   9.289   7.902 -0.5539 -0.7193 -0.1718
 1014MOL0     C36792  11.615   9.371   7.875 -0.5628 -0.3107 -0.0327
 1014MOL0     C36793  11.708   9.299   7.777  0.1882  0.4907  0.1900
 1014MOL0     C36794  11.720   9.144   7.798  0.0079 -0.6773  0.2667
 1014MOL0     C36795  11.814   9.092   7.688 -0.4680  0.2985 -0.2850
 1014MOL0     C36796  11.818   8.939   7.702  0.0151  0.0565  0.4640
 1014MOL0     C36797  11.868   8.868   7.583 -0.5960  0.4564 -0.3944
 1014MOL0     C36798  12.005   8.916   7.547  0.4489  0.4090 -0.4109
 1014MOL0    Cl36799  12.064   8.835   7.399 -0.0840 -0.2713 -0.1171
 1014MOL0     C36800  11.198   9.206   7.917 -0.1863  0.6631  0.4871
 1014MOL0     C36801  11.055   9.206   7.928 -0.0403  0.5905 -0.6720
 1014MOL0     O36802  10.835   9.053   7.854  0.1220  0.2872 -0.1656
 1014MOL0     C36803  10.578   9.295   7.903  0.0996  0.4858 -0.1061
 1014MOL0     C36804  10.439   9.310   7.933 -0.6438  0.0716 -0.5453
 1014MOL0     N36805   9.941   9.496   7.753 -0.4978  0.7209  0.2278
 1014MOL0     N36806   9.860   9.591   7.746 -0.1775  0.3831  0.8265
 1014MOL0     C36807   9.068  10.347   8.165  0.4075 -0.7547 -0.5232
 1014MOL0     C36808   8.964  10.399   8.242 -0.1168  0.1935 -0.0118
 1014MOL0     C36809   8.531  10.478   8.387  0.5367 -0.5751 -0.5049
 1014MOL0     C36810   8.402  10.515   8.332 -0.8941  0.4404 -0.5185
 1014MOL0     C36811   8.304  10.558   8.426 -0.1127 -0.1359 -0.4485
 1014MOL0     C36812   8.315  10.543   8.565  0.0010  0.1426  0.3546
 1014MOL0     O36813   8.210  10.576   8.645 -0.8285 -0.0005 -0.4417
 1014MOL0     C36814   8.205  10.545   8.790 -0.6289 -0.1974 -0.1367
 1014MOL0     C36815   8.077  10.605   8.842  0.5125 -0.5695 -0.0906
 1014MOL0     C36816   8.034  10.539   8.979  0.6392 -1.1345 -0.0503
 1014MOL0     C36817   8.119  10.587   9.098 -0.1950  0.3331  0.5892
 1014MOL0     C36818   8.258  10.541   9.098  0.0115  0.1641 -0.9131
 1014MOL0     C36819   8.382  10.528   9.108 -0.2443 -0.9531 -0.0888
 1014MOL0     C36820   8.445  10.511   8.608  0.7392  0.1804 -0.3545
 1014MOL0     C36821   8.555  10.486   8.529  0.3035 -0.0008  0.0541
 1014MOL0     C36822   8.682  10.445   8.589 -0.2049  0.1751 -1.0451
 1014MOL0     H36823   8.756  10.141   8.219 -0.8687  2.0064  1.4025
 1014MOL0     H36824   8.937  10.043   8.083 -1.2907  1.3481 -1.6375
 1014MOL0     H36825   9.082  10.043   7.910  0.7716 -2.9784 -0.4643
 1014MOL0     H36826   9.257  10.083   7.892 -2.0623  2.2491 -1.8584
 1014MOL0     H36827   9.237   9.867   8.011  0.8283  1.4271 -0.0242
 1014MOL0     H36828   9.125   9.925   8.119 -0.7703  1.3335 -0.4105
 1014MOL0     H36829   9.312   9.930   8.268 -2.9075 -0.1828  0.6801
 1014MOL0     H36830   9.273  10.090   8.223 -0.4200 -0.3272 -1.1577
 1014MOL0     H36831   9.458  10.085   8.037  0.9685 -1.6573 -0.5564
 1014MOL0     H36832   9.480  10.098   8.214 -0.8041 -1.2484  1.2998
 1014MOL0     H36833   9.644   9.941   8.118 -0.8172  0.4617  0.1268
 1014MOL0     H36834   9.534   9.853   8.219 -1.7732  0.8291  1.2127
 1014MOL0     H36835   9.429   9.760   8.000 -1.4972  0.8417 -1.6227
 1014MOL0     H36836   9.511   9.891   7.910 -1.8645  1.3285  1.0648
 1014MOL0     H36837   9.654   9.654   8.059 -1.8124 -0.3960 -0.1195
 1014MOL0     H36838   9.731   9.785   7.957  0.0239  0.5772  0.1362
 1014MOL0     H36839   9.541   9.593   7.830  1.2106 -1.9875 -1.1190
 1014MOL0     H36840   9.620   9.716   7.756  0.0871 -0.4677 -0.7982
 1014MOL0     H36841   9.681   9.383   7.923 -0.0209  2.3965  1.9219
 1014MOL0     H36842   9.881   9.192   7.784  1.7709 -2.6781  1.3094
 1014MOL0     H36843  10.040   9.262   7.811  1.1023 -1.4269  1.8167
 1014MOL0     H36844   9.831   9.226   8.031 -1.0378 -1.0930 -1.8606
 1014MOL0     H36845   9.950   9.106   7.998 -3.0366 -0.1973  2.0625
 1014MOL0     H36846  10.031   9.244   8.175 -0.7799  0.2773  0.0275
 1014MOL0     H36847  10.007   9.394   8.084 -0.3974 -1.0323  0.9101
 1014MOL0     H36848  10.239   9.340   8.115 -1.4742 -2.2142  1.5865
 1014MOL0     H36849  10.181   9.389   7.955  1.1504  0.7989  1.2191
 1014MOL0     H36850  10.372   8.979   7.951 -0.9404  1.0729  1.1790
 1014MOL0     H36851  10.600   8.950   7.880 -1.7356 -0.5244 -0.0994
 1014MOL0     H36852  10.976   9.383   7.653  0.8256  0.3636 -0.3316
 1014MOL0     H36853  11.225   9.393   7.627  1.3971 -0.9415  0.4390
 1014MOL0     H36854  11.436   9.347   7.979  1.4900 -0.0450  0.7513
 1014MOL0     H36855  11.499   9.191   7.948 -1.7232 -1.1654 -0.7934
 1014MOL0     H36856  11.600   9.472   7.836  0.6721  0.7852  2.1321
 1014MOL0     H36857  11.665   9.386   7.971 -2.9022 -1.7372  1.4911
 1014MOL0     H36858  11.660   9.318   7.680 -0.6758 -2.4861 -0.0587
 1014MOL0     H36859  11.808   9.342   7.765  0.1692 -0.0381 -2.2752
 1014MOL0     H36860  11.616   9.111   7.787 -1.6844  2.7061  3.5891
 1014MOL0     H36861  11.764   9.113   7.893  2.0089  0.9773 -0.0323
 1014MOL0     H36862  11.913   9.138   7.699 -0.5725  0.1544  1.7382
 1014MOL0     H36863  11.776   9.112   7.588  0.4163 -1.5957 -1.0530
 1014MOL0     H36864  11.885   8.925   7.788  0.8649  1.8776  0.1516
 1014MOL0     H36865  11.720   8.898   7.728  1.6601 -3.9954  1.0321
 1014MOL0     H36866  11.810   8.887   7.492 -1.3339 -1.5682 -0.4151
 1014MOL0     H36867  11.869   8.760   7.602 -1.6344  0.8573  2.2118
 1014MOL0     H36868  12.007   9.026   7.540  1.2588  0.5391  1.3326
 1014MOL0     H36869  12.081   8.887   7.620  0.5784  0.6604 -0.4446
 1014MOL0     H36870  11.251   9.180   8.009  4.4179  2.1487 -1.4274
 1014MOL0     H36871  10.999   9.169   8.013 -0.6856 -3.7190 -2.6880
 1014MOL0     H36872  10.633   9.388   7.888  1.5446 -0.0423  1.5030
 1014MOL0     H36873  10.389   9.406   7.936  2.3035  1.7359  0.1408
 1014MOL0     H36874   9.151  10.414   8.143  0.0334  0.1925  0.8087
 1014MOL0     H36875   8.976  10.500   8.280  0.7044  0.1668 -0.1654
 1014MOL0     H36876   8.380  10.533   8.227  1.7092  1.0362 -1.0265
 1014MOL0     H36877   8.212  10.600   8.385 -1.0766 -1.1377  0.6064
 1014MOL0     H36878   8.297  10.575   8.841 -0.1712 -2.8008  0.6995
 1014MOL0     H36879   8.203  10.436   8.797  0.3858 -0.1139  2.1779
 1014MOL0     H36880   8.010  10.575   8.761  0.2709 -1.2508  0.3512
 1014MOL0     H36881   8.081  10.712   8.864  0.8614 -0.8358  1.2574
 1014MOL0     H36882   8.041  10.430   8.974  2.3151 -1.0135 -1.2334
 1014MOL0     H36883   7.931  10.571   9.000  1.7157  3.0480 -0.1535
 1014MOL0     H36884   8.103  10.695   9.109 -2.9471  0.3333 -2.1211
 1014MOL0     H36885   8.078  10.541   9.189  1.2176  0.0541  1.1109
 1014MOL0     H36886   8.488  10.517   9.111  0.0939  1.1783 -1.9371
 1014MOL0     H36887   8.460  10.510   8.716 -2.3459  0.3454  0.1706
 1014MOL0     H36888   8.696  10.338   8.571 -3.1311 -0.6745  1.0064
 1014MOL0     H36889   8.767  10.501   8.550  0.2315 -1.6004 -2.8390
 1014MOL0     H36890   8.675  10.456   8.697  0.5910  5.7361 -1.2981
 1015MOL0     O36891   2.322   1.672   9.029 -0.2697 -0.4703  0.4255
 1015MOL0     C36892   2.255   1.756   8.974  0.9927  0.1217  0.4459
 1015MOL0     O36893   2.281   1.831   8.863 -0.1033 -0.3526  0.1063
 1015MOL0     C36894   2.400   1.799   8.806 -0.4208  0.2447  0.8959
 1015MOL0     C36895   2.527   1.838   8.860  0.5444  0.4669 -0.8074
 1015MOL0     C36896   2.638   1.775   8.803 -0.3596 -0.5454 -1.0197
 1015MOL0     C36897   2.644   1.707   8.689  0.6318  0.4031  0.0544
 1015MOL0     O36898   2.762   1.665   8.632 -0.1456 -0.1007  0.4971
 1015MOL0     C36899   2.835   1.767   8.556 -0.2422  0.4453  0.9893
 1015MOL0     C36900   2.938   1.717   8.460  0.4432  0.3970  0.7512
 1015MOL0     C36901   3.070   1.683   8.533  0.4288  0.8412 -0.4969
 1015MOL0     C36902   3.062   1.559   8.621  0.8054 -0.0432 -0.0377
 1015MOL0     C36903   3.188   1.542   8.707  0.2398  0.4912  0.2580
 1015MOL0     C36904   3.321   1.524   8.633  0.0099  0.1691  0.2609
 1015MOL0     C36905   3.440   1.501   8.722  0.7027 -0.6953 -0.3580
 1015MOL0     C36906   3.569   1.525   8.654 -0.0317 -0.8572  0.0517
 1015MOL0     N36907   3.590   1.428   8.544 -0.2066 -1.2503 -0.4778
 1015MOL0     C36908   3.566   1.299   8.553  0.4304 -0.1613  0.8414
 1015MOL0     C36909   3.598   1.250   8.429 -0.3253 -0.2745  0.1195
 1015MOL0     C36910   3.603   1.112   8.392 -0.4296  0.6802  0.1291
 1015MOL0     C36911   3.749   1.057   8.409 -0.3861  0.6383  0.1996
 1015MOL0     C36912   3.753   0.911   8.355 -0.6891  0.0255 -0.5895
 1015MOL0     C36913   3.903   0.861   8.357  0.0408 -0.4426  0.6647
 1015MOL0     O36914   3.903   0.725   8.308 -0.6174 -0.3965 -0.0410
 1015MOL0     C36915   4.012   0.652   8.340 -0.2191  0.0148  0.7008
 1015MOL0     C36916   4.138   0.710   8.356 -0.5996  0.2161 -0.2885
 1015MOL0     C36917   4.258   0.632   8.374  0.4286 -0.9897  0.1975
 1015MOL0     C36918   4.239   0.495   8.374 -0.9455  0.7511  0.0530
 1015MOL0     C36919   4.345   0.403   8.420 -1.3066 -0.4504  0.4265
 1015MOL0     O36920   4.461   0.457   8.462 -0.3409  0.6547 -0.1914
 1015MOL0     C36921   4.532   0.406   8.567 -0.0259 -1.1937 -0.9709
 1015MOL0     C36922   4.671   0.422   8.573 -0.6112  0.6474 -0.4713
 1015MOL0     C36923   4.754   0.364   8.677 -0.5579 -0.6635 -0.3507
 1015MOL0     C36924   4.687   0.311   8.788  0.1315 -0.0948 -0.5700
 1015MOL0     O36925   4.757   0.268   8.899  0.2199 -0.5515  0.1473
 1015MOL0     C36926   4.904   0.269   8.899 -0.5449  0.8470 -0.2713
 1015MOL0     C36927   4.952   0.180   9.017  0.1930 -1.1833 -0.8903
 1015MOL0     C36928   5.105   0.169   9.043 -0.5012 -0.1590 -0.1543
 1015MOL0     C36929   5.171   0.294   9.096  0.3585  0.2655  0.6402
 1015MOL0     C36930   5.306   0.256   9.164  0.3987  0.6041  0.0536
 1015MOL0     C36931   5.399   0.373   9.157  0.0439 -0.8302 -0.2634
 1015MOL0     C36932   5.527   0.346   9.238  0.3082  1.1972  0.1827
 1015MOL0     C36933   5.596   0.225   9.193 -0.6485 -0.5587  0.2468
 1015MOL0    Cl36934   5.764   0.239   9.223 -0.1210 -0.1238 -0.5852
 1015MOL0     C36935   4.550   0.300   8.788 -0.5325 -0.5990  0.0406
 1015MOL0     C36936   4.473   0.337   8.675  0.2119 -0.6258 -0.2410
 1015MOL0     O36937   4.328   0.279   8.423  0.6699  0.4075  0.4136
 1015MOL0     C36938   4.122   0.434   8.328 -0.0275 -0.2412 -0.4126
 1015MOL0     C36939   4.007   0.512   8.314 -0.2326  0.3654  0.5273
 1015MOL0     N36940   3.635   1.357   8.344 -0.4181  0.1112  0.0221
 1015MOL0     N36941   3.639   1.467   8.421 -0.9618  0.2448  0.5663
 1015MOL0     C36942   2.518   1.686   8.627 -0.4021 -0.4260  0.3954
 1015MOL0     C36943   2.396   1.735   8.677 -0.5172  0.6271 -0.2568
 1015MOL0     C36944   2.115   1.772   9.027 -0.2612  0.6840 -0.2073
 1015MOL0     C36945   2.030   1.849   8.953  0.2685 -0.2442 -0.5722
 1015MOL0     C36946   1.897   1.879   8.992  0.6359  0.2706 -0.2909
 1015MOL0     C36947   1.844   1.809   9.107 -0.8340 -0.3618 -0.2808
 1015MOL0     O36948   1.717   1.843   9.138  0.0525 -0.2771 -1.1901
 1015MOL0     C36949   1.644   1.797   9.251 -0.7293 -0.2132  0.9123
 1015MOL0     C36950   1.509   1.872   9.271 -0.0817 -0.6283  0.7898
 1015MOL0     C36951   1.422   1.795   9.373 -0.8894  0.9044 -0.3255
 1015MOL0     C36952   1.291   1.845   9.420 -0.0354  0.0742 -0.1328
 1015MOL0     C36953   1.194   1.842   9.305 -0.0290  0.9706  1.1833
 1015MOL0     C36954   1.110   1.836   9.211 -0.3110  0.0950 -1.2849
 1015MOL0     C36955   1.926   1.726   9.177  0.3058  0.4061 -0.8658
 1015MOL0     C36956   2.064   1.711   9.141  0.5947 -0.1447  0.3719
 1015MOL0     C36957   2.139   1.617   9.227  0.7224 -0.3833 -0.1678
 1015MOL0     H36958   2.519   1.904   8.946 -2.9474  1.1241 -1.4962
 1015MOL0     H36959   2.730   1.789   8.859 -1.2030  0.2670  0.2117
 1015MOL0     H36960   2.763   1.830   8.503 -0.1105  1.5936  2.1375
 1015MOL0     H36961   2.881   1.839   8.623  1.1665  0.2549  0.2673
 1015MOL0     H36962   2.956   1.802   8.394 -0.2316  1.7747  2.2774
 1015MOL0     H36963   2.897   1.630   8.407 -0.3631  1.1468  0.1169
 1015MOL0     H36964   3.088   1.773   8.592 -1.8398  1.2075 -0.2844
 1015MOL0     H36965   3.146   1.665   8.456 -0.1029 -0.8021 -0.6821
 1015MOL0     H36966   2.977   1.561   8.690  1.7268 -1.0668  1.1682
 1015MOL0     H36967   3.060   1.469   8.559  0.2171  0.6883 -1.1292
 1015MOL0     H36968   3.199   1.633   8.767 -2.0197  2.2538 -1.7728
 1015MOL0     H36969   3.176   1.465   8.784 -1.5954  2.0429  1.6306
 1015MOL0     H36970   3.319   1.452   8.550  1.2695  0.4102  0.0047
 1015MOL0     H36971   3.327   1.623   8.586 -0.2773  0.7209  1.3608
 1015MOL0     H36972   3.439   1.398   8.759 -0.7113 -0.9172 -0.9324
 1015MOL0     H36973   3.436   1.566   8.810 -0.3267 -2.5129  0.9897
 1015MOL0     H36974   3.582   1.628   8.618  2.4425 -1.9835 -2.7049
 1015MOL0     H36975   3.643   1.508   8.733  0.2374 -2.1106 -0.4526
 1015MOL0     H36976   3.531   1.236   8.635  0.9061 -2.5490 -0.6757
 1015MOL0     H36977   3.531   1.065   8.459 -0.2448  2.0329  1.3350
 1015MOL0     H36978   3.573   1.098   8.287  3.6293 -1.1120 -0.9496
 1015MOL0     H36979   3.821   1.128   8.368  0.0166  1.5556  2.3487
 1015MOL0     H36980   3.768   1.049   8.516  0.7711  0.6898  0.0093
 1015MOL0     H36981   3.716   0.917   8.252 -0.8668  2.6989 -0.4467
 1015MOL0     H36982   3.694   0.834   8.405 -0.4200  0.5336  0.5213
 1015MOL0     H36983   3.936   0.866   8.462 -1.1144 -0.2909  1.0332
 1015MOL0     H36984   3.967   0.922   8.293 -0.3498 -1.4442 -0.7277
 1015MOL0     H36985   4.145   0.814   8.384 -0.5292  0.8769 -2.5663
 1015MOL0     H36986   4.352   0.683   8.393 -0.1155  1.2932 -2.6209
 1015MOL0     H36987   4.712   0.484   8.494 -0.6685  2.0733  0.5599
 1015MOL0     H36988   4.860   0.385   8.667 -0.8112  0.7526 -0.3075
 1015MOL0     H36989   4.939   0.233   8.802 -0.8268 -2.4990  0.7298
 1015MOL0     H36990   4.933   0.373   8.915  1.1380  0.4263 -0.4246
 1015MOL0     H36991   4.906   0.207   9.112  1.2506 -1.5799 -0.2408
 1015MOL0     H36992   4.909   0.080   9.008 -1.7536 -0.8575  2.8467
 1015MOL0     H36993   5.125   0.101   9.125 -0.5121  0.1986  0.1467
 1015MOL0     H36994   5.159   0.142   8.951 -0.1180 -0.0138  0.0259
 1015MOL0     H36995   5.109   0.344   9.171  1.2689  3.9339 -0.7954
 1015MOL0     H36996   5.186   0.369   9.017  0.3557 -0.2409  0.1544
 1015MOL0     H36997   5.349   0.175   9.104 -2.3458 -1.3995  0.5684
 1015MOL0     H36998   5.284   0.230   9.268 -0.1067  1.2593  0.1182
 1015MOL0     H36999   5.406   0.404   9.053  2.8327 -0.0956  0.0534
 1015MOL0     H37000   5.347   0.457   9.204 -1.7189 -1.1865 -1.5276
 1015MOL0     H37001   5.503   0.325   9.343  0.4125 -1.8265 -0.2901
 1015MOL0     H37002   5.599   0.429   9.239  1.8195 -0.0595  0.1634
 1015MOL0     H37003   5.552   0.133   9.234 -0.7505 -2.0797 -3.0037
 1015MOL0     H37004   5.585   0.203   9.087 -0.4984 -1.8060  0.4672
 1015MOL0     H37005   4.495   0.267   8.876 -0.8328  1.0331  0.5059
 1015MOL0     H37006   4.368   0.312   8.684 -0.3382  1.8306  1.1542
 1015MOL0     H37007   4.111   0.326   8.330 -0.9030 -0.1539  0.6228
 1015MOL0     H37008   3.915   0.468   8.277  0.3217 -0.6215  0.2925
 1015MOL0     H37009   2.520   1.635   8.531 -0.9388  2.7856 -1.4606
 1015MOL0     H37010   2.300   1.715   8.629  0.0406  1.6895 -1.9111
 1015MOL0     H37011   2.057   1.897   8.859  2.5422 -2.9231 -1.4480
 1015MOL0     H37012   1.821   1.935   8.938 -1.9374 -2.2051  0.5346
 1015MOL0     H37013   1.718   1.811   9.331  1.1671  1.7888 -1.0334
 1015MOL0     H37014   1.629   1.690   9.233  3.0835 -0.7473 -0.0684
 1015MOL0     H37015   1.454   1.866   9.177  0.3989 -0.9765  0.5223
 1015MOL0     H37016   1.530   1.972   9.309  2.8503 -1.1510  0.8413
 1015MOL0     H37017   1.485   1.783   9.462 -0.0391 -0.9166 -1.1265
 1015MOL0     H37018   1.398   1.699   9.328 -0.5271  0.8282 -0.3631
 1015MOL0     H37019   1.244   1.787   9.499 -0.9426  0.4141 -0.4096
 1015MOL0     H37020   1.298   1.949   9.456 -0.8148 -0.1251  0.6217
 1015MOL0     H37021   1.028   1.844   9.142 -0.2290  2.2223 -1.1993
 1015MOL0     H37022   1.881   1.669   9.258 -0.2695  1.1286 -0.6649
 1015MOL0     H37023   2.088   1.586   9.318  0.3049 -0.9918 -0.6008
 1015MOL0     H37024   2.154   1.526   9.168 -4.5343 -1.2438 -0.6425
 1015MOL0     H37025   2.236   1.659   9.256  1.4587 -1.2857 -1.2225
 1016MOL0     O37026   4.521   4.879   6.025  0.7032 -0.3372 -0.3446
 1016MOL0     C37027   4.493   4.895   5.910 -0.5041  0.2248  0.8445
 1016MOL0     O37028   4.575   4.964   5.824 -0.3758  0.8847 -0.2235
 1016MOL0     C37029   4.710   4.967   5.851  0.1113 -0.7108 -0.4309
 1016MOL0     C37030   4.780   5.090   5.828 -0.1775  0.1270  1.3397
 1016MOL0     C37031   4.918   5.096   5.863  0.9572 -0.0765  0.8860
 1016MOL0     C37032   4.985   4.993   5.921 -0.4410 -0.8100  0.3239
 1016MOL0     O37033   5.117   5.034   5.947 -0.5349 -0.7079 -0.3274
 1016MOL0     C37034   5.149   5.039   6.086  0.7747  0.8583  0.8820
 1016MOL0     C37035   5.274   5.122   6.097 -0.4086 -0.4327 -0.4403
 1016MOL0     C37036   5.302   5.195   6.231 -0.1180 -0.0508  0.5861
 1016MOL0     C37037   5.207   5.300   6.277 -1.2682 -0.0460 -0.1349
 1016MOL0     C37038   5.224   5.332   6.426  0.0167 -0.3948  0.0230
 1016MOL0     C37039   5.367   5.377   6.468 -0.1381  0.1922 -0.1288
 1016MOL0     C37040   5.425   5.499   6.393  0.4763  0.8872  0.5588
 1016MOL0     C37041   5.543   5.566   6.475  0.4488  0.0588 -0.0170
 1016MOL0     N37042   5.649   5.473   6.493 -0.0010  0.2468  0.1018
 1016MOL0     C37043   5.705   5.403   6.391  1.5498 -0.0914  0.1407
 1016MOL0     C37044   5.786   5.310   6.444  0.3869  0.9422 -0.9068
 1016MOL0     C37045   5.865   5.205   6.364  0.4486 -1.2030 -0.3763
 1016MOL0     C37046   6.012   5.238   6.346 -0.8614 -0.2134 -0.1633
 1016MOL0     C37047   6.080   5.227   6.475 -0.1339 -0.4580 -0.9729
 1016MOL0     C37048   6.233   5.241   6.476  0.6241  0.3878  0.7995
 1016MOL0     O37049   6.286   5.349   6.405  0.3306 -0.3437 -0.1584
 1016MOL0     C37050   6.419   5.368   6.379  0.2022 -0.4024 -0.7164
 1016MOL0     C37051   6.447   5.450   6.269 -0.0876 -0.8729  0.4366
 1016MOL0     C37052   6.575   5.503   6.253  0.2593 -0.4148 -0.5651
 1016MOL0     C37053   6.679   5.462   6.338 -0.1539 -0.6573  0.0605
 1016MOL0     C37054   6.815   5.494   6.297 -0.0359  0.7428 -0.5828
 1016MOL0     O37055   6.903   5.406   6.358 -1.0215  0.2949 -0.1847
 1016MOL0     C37056   7.040   5.399   6.339 -0.3924  0.1196 -0.1190
 1016MOL0     C37057   7.122   5.480   6.260  1.1448  0.0583 -0.4722
 1016MOL0     C37058   7.259   5.466   6.256  0.4075  0.1142 -0.0163
 1016MOL0     C37059   7.315   5.350   6.314  1.2189  0.1046  0.1033
 1016MOL0     O37060   7.445   5.321   6.287  0.5391 -0.6592  0.4342
 1016MOL0     C37061   7.525   5.248   6.382 -0.1665  0.2006  0.1341
 1016MOL0     C37062   7.674   5.275   6.374 -0.3464 -0.3126  0.0981
 1016MOL0     C37063   7.738   5.215   6.493  0.3247  0.7388 -0.5530
 1016MOL0     C37064   7.888   5.220   6.485  0.6729 -0.7953 -0.2212
 1016MOL0     C37065   7.962   5.170   6.610  0.0364  0.5497 -0.3847
 1016MOL0     C37066   8.107   5.137   6.583  0.3546  0.7927 -0.3328
 1016MOL0     C37067   8.135   5.011   6.502  0.2383  0.7613 -0.2730
 1016MOL0     C37068   8.261   4.936   6.538  0.3840  0.5338  0.0506
 1016MOL0    Cl37069   8.408   5.038   6.504 -0.1536  0.5350  0.7498
 1016MOL0     C37070   7.240   5.279   6.403 -0.0059  0.0805 -0.1654
 1016MOL0     C37071   7.102   5.294   6.412 -0.2073 -0.0214 -0.1144
 1016MOL0     O37072   6.843   5.593   6.233  0.2434  0.6878 -0.8708
 1016MOL0     C37073   6.657   5.359   6.435 -0.2715  0.7940  0.5395
 1016MOL0     C37074   6.523   5.318   6.457 -0.0817 -0.1965  0.3706
 1016MOL0     N37075   5.768   5.320   6.580 -0.6433 -0.4008  0.5582
 1016MOL0     N37076   5.694   5.419   6.612  0.2547  0.1796  1.2839
 1016MOL0     C37077   4.919   4.866   5.939 -0.4011 -0.3237  0.3485
 1016MOL0     C37078   4.781   4.860   5.904 -0.5142 -0.2512 -0.8046
 1016MOL0     C37079   4.356   4.852   5.864  0.1712  0.3265  0.4727
 1016MOL0     C37080   4.239   4.899   5.931  0.2219 -0.0698 -0.1200
 1016MOL0     C37081   4.107   4.861   5.878  0.1411  0.6771 -0.0070
 1016MOL0     C37082   4.095   4.771   5.773 -0.3612  0.3523  0.3096
 1016MOL0     O37083   3.980   4.740   5.699 -0.4742  0.4565  0.4843
 1016MOL0     C37084   3.855   4.792   5.729 -0.2419 -0.4399  0.8406
 1016MOL0     C37085   3.781   4.822   5.587 -0.2206 -0.0172 -0.2623
 1016MOL0     C37086   3.645   4.867   5.613 -0.3583 -0.5346 -0.2883
 1016MOL0     C37087   3.557   4.844   5.499 -0.9566 -0.3344  0.0662
 1016MOL0     C37088   3.430   4.920   5.506 -1.0060 -0.6986 -0.7612
 1016MOL0     C37089   3.347   5.009   5.517  0.3800  1.0686 -0.1496
 1016MOL0     C37090   4.212   4.716   5.714  0.2375 -0.6242 -0.1384
 1016MOL0     C37091   4.338   4.767   5.751  0.4520  0.1492  0.1711
 1016MOL0     C37092   4.456   4.722   5.666  0.2588 -0.2990  0.0922
 1016MOL0     H37093   4.722   5.171   5.784  1.4315  0.5545 -0.1208
 1016MOL0     H37094   4.977   5.180   5.827 -1.2527  0.9110 -0.7055
 1016MOL0     H37095   5.077   5.097   6.145 -0.9559 -0.8324  0.5525
 1016MOL0     H37096   5.154   4.936   6.124  3.3159 -0.9089 -3.4439
 1016MOL0     H37097   5.266   5.197   6.017  4.0059  0.0935 -0.6532
 1016MOL0     H37098   5.360   5.062   6.066 -1.3691 -2.7899  1.2202
 1016MOL0     H37099   5.400   5.243   6.219  1.3922 -2.4389  2.3774
 1016MOL0     H37100   5.310   5.113   6.303 -1.9229 -2.8317 -2.1268
 1016MOL0     H37101   5.216   5.393   6.221  0.5666  0.4954  0.9706
 1016MOL0     H37102   5.104   5.264   6.264 -0.9269 -2.3127  2.4510
 1016MOL0     H37103   5.163   5.418   6.454 -0.3040 -0.2024 -1.2209
 1016MOL0     H37104   5.185   5.245   6.479 -2.2039  1.6374  1.9427
 1016MOL0     H37105   5.352   5.412   6.570 -3.3715 -0.8147 -0.1693
 1016MOL0     H37106   5.433   5.291   6.453 -0.7480  0.0286 -2.1352
 1016MOL0     H37107   5.338   5.562   6.374 -2.6325 -3.2400 -0.3907
 1016MOL0     H37108   5.459   5.463   6.295  1.4982 -0.0581  1.2428
 1016MOL0     H37109   5.586   5.655   6.427 -0.9889  0.4584 -0.5982
 1016MOL0     H37110   5.500   5.592   6.571 -0.9018 -2.6971  0.2157
 1016MOL0     H37111   5.692   5.425   6.286  2.4006  0.9159  0.2256
 1016MOL0     H37112   5.862   5.108   6.416  1.5284  0.5278  3.3031
 1016MOL0     H37113   5.818   5.198   6.266  0.8753  0.4977 -0.7342
 1016MOL0     H37114   6.046   5.159   6.279 -2.0126 -1.0504  0.2141
 1016MOL0     H37115   6.034   5.339   6.309  1.7627 -0.3846  0.6655
 1016MOL0     H37116   6.049   5.142   6.536 -1.5017 -0.6896 -1.9534
 1016MOL0     H37117   6.046   5.309   6.538 -1.0970 -0.2391 -1.7598
 1016MOL0     H37118   6.267   5.146   6.433  0.3031 -0.2166  1.8214
 1016MOL0     H37119   6.266   5.247   6.581 -2.9243 -1.6131  2.1887
 1016MOL0     H37120   6.368   5.473   6.198 -1.4380 -0.8376  1.8999
 1016MOL0     H37121   6.597   5.568   6.169  1.6214 -1.9432 -1.4626
 1016MOL0     H37122   7.078   5.561   6.202  1.3965 -0.4209 -1.3469
 1016MOL0     H37123   7.323   5.531   6.196 -0.1395 -0.2236 -0.9796
 1016MOL0     H37124   7.500   5.287   6.482 -0.9606 -1.6348  0.6920
 1016MOL0     H37125   7.503   5.141   6.382 -0.6239  0.2633 -2.0549
 1016MOL0     H37126   7.712   5.223   6.286 -2.8650 -1.3134 -0.4857
 1016MOL0     H37127   7.692   5.383   6.366  2.2646 -0.7804 -1.1974
 1016MOL0     H37128   7.691   5.257   6.582 -1.4650 -0.1631 -1.0162
 1016MOL0     H37129   7.707   5.110   6.479  0.2513  0.8962 -1.6405
 1016MOL0     H37130   7.928   5.319   6.461  0.6208 -0.9496 -0.9503
 1016MOL0     H37131   7.913   5.157   6.400 -0.3397 -3.8459  1.5750
 1016MOL0     H37132   7.915   5.079   6.650  0.3246  1.0693  1.2396
 1016MOL0     H37133   7.960   5.254   6.681  0.2081  0.9302 -0.8288
 1016MOL0     H37134   8.152   5.219   6.527  3.2954 -1.4429 -1.5319
 1016MOL0     H37135   8.148   5.124   6.684 -1.9148 -0.6973  0.4713
 1016MOL0     H37136   8.142   5.028   6.394  1.9707  0.0656 -0.3044
 1016MOL0     H37137   8.047   4.949   6.524  1.5309 -0.1582  2.9449
 1016MOL0     H37138   8.261   4.897   6.641 -0.5855 -0.9676 -0.4958
 1016MOL0     H37139   8.262   4.852   6.468  2.1325  1.5930 -1.2959
 1016MOL0     H37140   7.286   5.194   6.453 -0.6983  0.5471  1.3381
 1016MOL0     H37141   7.049   5.221   6.473  1.1767 -0.5151  0.5475
 1016MOL0     H37142   6.738   5.315   6.492 -0.3207 -1.2170 -0.8611
 1016MOL0     H37143   6.505   5.248   6.537  1.5377 -2.1417 -0.8618
 1016MOL0     H37144   4.956   4.792   6.009 -3.2008  0.0737  2.4470
 1016MOL0     H37145   4.726   4.771   5.930 -0.5983  0.8759  3.8138
 1016MOL0     H37146   4.246   4.966   6.016 -2.3660  1.0997 -0.7209
 1016MOL0     H37147   4.015   4.889   5.927  0.6538  0.0100  1.4149
 1016MOL0     H37148   3.866   4.883   5.790 -0.2847 -1.3066  2.1893
 1016MOL0     H37149   3.804   4.723   5.796  0.0174 -0.8403  0.6246
 1016MOL0     H37150   3.776   4.728   5.531  2.0996 -0.0961 -0.4475
 1016MOL0     H37151   3.831   4.900   5.528 -2.3513  0.5532 -1.4035
 1016MOL0     H37152   3.636   4.974   5.631 -3.1096 -0.4217 -1.6944
 1016MOL0     H37153   3.600   4.816   5.698 -0.5691  0.3442  0.1376
 1016MOL0     H37154   3.609   4.876   5.408 -0.7160  0.9753  0.6415
 1016MOL0     H37155   3.531   4.738   5.491  1.9765 -1.3210  2.0026
 1016MOL0     H37156   3.283   5.094   5.529  1.4868  2.1282 -1.3899
 1016MOL0     H37157   4.205   4.639   5.638  0.7847 -1.9786  1.1212
 1016MOL0     H37158   4.515   4.649   5.721 -0.6825  1.1701  3.3413
 1016MOL0     H37159   4.420   4.668   5.578 -0.0376  2.1772 -1.4321
 1016MOL0     H37160   4.519   4.805   5.632 -0.0261  0.6484  1.7362
 1017MOL0     O37161   7.035   1.045   2.986  0.3045 -0.2352 -0.7910
 1017MOL0     C37162   6.985   1.045   3.102  0.6170  0.5635  0.4282
 1017MOL0     O37163   7.059   1.051   3.214  0.2021  0.5816  0.3713
 1017MOL0     C37164   7.196   1.064   3.204 -0.0690  0.6638  0.1900
 1017MOL0     C37165   7.279   0.963   3.249  0.0814 -0.4429 -0.1690
 1017MOL0     C37166   7.416   0.996   3.247 -0.0678 -0.1767  0.3118
 1017MOL0     C37167   7.471   1.115   3.205 -0.0851 -0.8805  0.2770
 1017MOL0     O37168   7.604   1.146   3.200 -0.9332  0.0600 -0.2440
 1017MOL0     C37169   7.684   1.128   3.321  0.2394 -0.3971  0.1775
 1017MOL0     C37170   7.822   1.187   3.313  0.2267  0.7339 -0.3093
 1017MOL0     C37171   7.917   1.101   3.240  0.7621  0.3529 -0.1446
 1017MOL0     C37172   7.951   0.981   3.323  0.1345 -0.3552  0.4765
 1017MOL0     C37173   8.093   0.925   3.287  0.2781 -0.0463  0.5203
 1017MOL0     C37174   8.082   0.836   3.158  0.2148 -0.3711 -0.8793
 1017MOL0     C37175   8.211   0.754   3.130 -0.8102  0.9059 -0.7072
 1017MOL0     C37176   8.190   0.684   3.000  0.0636 -0.4704 -0.1088
 1017MOL0     N37177   8.297   0.587   2.970  0.4735 -0.3304  0.5129
 1017MOL0     C37178   8.366   0.509   3.059  0.6078  0.7876 -0.2134
 1017MOL0     C37179   8.464   0.454   2.983  0.3054  0.0777  0.7942
 1017MOL0     C37180   8.552   0.344   3.033 -0.6616  1.1514 -0.7391
 1017MOL0     C37181   8.697   0.385   3.065 -0.5921 -0.1662  0.7294
 1017MOL0     C37182   8.797   0.268   3.094  0.3843 -0.3604  0.2568
 1017MOL0     C37183   8.935   0.304   3.152  0.0393 -0.3858 -0.2559
 1017MOL0     O37184   9.037   0.339   3.051  0.1197 -1.1902  0.1428
 1017MOL0     C37185   9.162   0.372   3.095 -0.8478 -0.1826  0.9137
 1017MOL0     C37186   9.203   0.362   3.227  0.9589 -0.2679  0.2964
 1017MOL0     C37187   9.333   0.370   3.273 -0.9210 -0.3131  0.2899
 1017MOL0     C37188   9.431   0.412   3.177  0.3501 -0.1405 -0.1193
 1017MOL0     C37189   9.565   0.458   3.226 -0.1966 -0.3180 -0.1980
 1017MOL0     O37190   9.652   0.522   3.139  0.1169  0.3526  0.0453
 1017MOL0     C37191   9.788   0.529   3.156 -0.5252  0.9392  0.1165
 1017MOL0     C37192   9.850   0.547   3.279 -0.3126 -0.5513 -0.9078
 1017MOL0     C37193   9.991   0.570   3.276  0.5021  0.0718 -0.0592
 1017MOL0     C37194  10.071   0.571   3.156  0.6908  0.2204  0.0726
 1017MOL0     O37195  10.206   0.599   3.152  0.0548  0.6238  0.4592
 1017MOL0     C37196  10.288   0.575   3.259 -0.3612 -0.1221  0.1084
 1017MOL0     C37197  10.427   0.588   3.204 -0.1491 -0.2286 -0.1867
 1017MOL0     C37198  10.480   0.468   3.131 -0.7192 -0.1876 -0.5395
 1017MOL0     C37199  10.389   0.419   3.006 -0.4462  0.1177 -0.4887
 1017MOL0     C37200  10.456   0.318   2.912 -0.5666 -0.9181  0.0178
 1017MOL0     C37201  10.398   0.298   2.781  0.1537 -0.0303 -0.3968
 1017MOL0     C37202  10.468   0.184   2.706  0.9116  0.2644  0.1793
 1017MOL0     C37203  10.397   0.162   2.564 -0.0401  0.1851 -0.5864
 1017MOL0    Cl37204  10.499   0.083   2.437 -0.2506 -0.4495  0.2575
 1017MOL0     C37205  10.004   0.558   3.036  0.5131 -0.2180 -0.0926
 1017MOL0     C37206   9.864   0.537   3.033 -0.1850 -0.6155  0.0407
 1017MOL0     O37207   9.591   0.425   3.342  0.0958  0.4552  0.3846
 1017MOL0     C37208   9.386   0.434   3.047  0.3473 -0.0468 -0.1623
 1017MOL0     C37209   9.252   0.413   3.003 -1.4580  0.2165 -0.2271
 1017MOL0     N37210   8.456   0.507   2.853  0.1075 -0.5064  0.0801
 1017MOL0     N37211   8.354   0.586   2.844  0.7534  0.3718 -0.2965
 1017MOL0     C37212   7.386   1.205   3.146 -0.0546 -0.1877  0.1912
 1017MOL0     C37213   7.250   1.182   3.157 -0.3924 -0.5216 -0.4065
 1017MOL0     C37214   6.831   1.048   3.121 -0.0521  1.8199  0.0351
 1017MOL0     C37215   6.776   1.081   3.237  0.6260  1.0450 -0.4754
 1017MOL0     C37216   6.635   1.087   3.259  0.4913 -0.5875 -0.1187
 1017MOL0     C37217   6.549   1.049   3.159  0.7839 -0.7831  0.2883
 1017MOL0     O37218   6.412   1.067   3.179 -0.7160 -0.9103  0.5210
 1017MOL0     C37219   6.309   0.982   3.123  0.6645 -0.6139  0.2478
 1017MOL0     C37220   6.328   0.838   3.166 -0.0011 -0.3187  0.5403
 1017MOL0     C37221   6.273   0.808   3.297  0.4300  0.0947 -0.8603
 1017MOL0     C37222   6.305   0.661   3.333  0.3047  0.1804 -0.0065
 1017MOL0     C37223   6.264   0.640   3.474  0.1136  0.2895  0.1281
 1017MOL0     C37224   6.239   0.630   3.591  0.0405 -0.4449 -0.4023
 1017MOL0     C37225   6.606   0.999   3.040 -0.3195 -0.5092 -0.1210
 1017MOL0     C37226   6.742   1.006   3.015 -0.0829  0.7057 -0.3427
 1017MOL0     C37227   6.793   0.956   2.883 -0.2737  0.2858 -0.2998
 1017MOL0     H37228   7.245   0.863   3.272 -2.2726  0.5432  0.9348
 1017MOL0     H37229   7.482   0.917   3.282  2.6280  2.3072  1.2325
 1017MOL0     H37230   7.629   1.165   3.408 -0.7124 -2.0257  0.3142
 1017MOL0     H37231   7.693   1.019   3.333  2.6534 -0.2218  0.3645
 1017MOL0     H37232   7.864   1.208   3.412 -2.1821  1.8038  0.5550
 1017MOL0     H37233   7.817   1.289   3.273 -0.1254  1.3340  1.2043
 1017MOL0     H37234   8.001   1.167   3.218  0.6627  0.4536 -0.2257
 1017MOL0     H37235   7.866   1.070   3.148 -0.2499 -1.2274  0.9056
 1017MOL0     H37236   7.956   1.004   3.430 -2.6886  0.3179  0.5408
 1017MOL0     H37237   7.880   0.902   3.295  2.1986 -1.2033 -3.0030
 1017MOL0     H37238   8.163   1.008   3.278  2.0020 -0.7267  4.8644
 1017MOL0     H37239   8.121   0.860   3.371 -0.6367 -2.2565 -0.7965
 1017MOL0     H37240   7.996   0.769   3.155  0.8922 -1.2632 -0.7690
 1017MOL0     H37241   8.068   0.906   3.074  0.0684 -0.4434 -0.9146
 1017MOL0     H37242   8.226   0.687   3.215  1.0453  0.4075 -1.3836
 1017MOL0     H37243   8.298   0.820   3.134  3.8316 -4.5109 -0.4783
 1017MOL0     H37244   8.094   0.632   2.992  0.9563 -2.0410 -1.1173
 1017MOL0     H37245   8.188   0.759   2.921 -1.0589  1.3552  1.5433
 1017MOL0     H37246   8.341   0.476   3.160 -0.0842  2.5938  0.2481
 1017MOL0     H37247   8.507   0.308   3.126 -0.4822 -0.5647 -1.2681
 1017MOL0     H37248   8.540   0.264   2.958  2.7926  0.0467 -0.2961
 1017MOL0     H37249   8.727   0.450   2.982 -2.5857 -0.1027 -0.0005
 1017MOL0     H37250   8.694   0.442   3.159 -0.2761  0.3231  0.4434
 1017MOL0     H37251   8.801   0.218   2.997  0.1862 -0.8974  0.5194
 1017MOL0     H37252   8.735   0.206   3.160 -0.8521  1.4471  0.8730
 1017MOL0     H37253   8.968   0.214   3.206 -0.5685  0.4138  1.5229
 1017MOL0     H37254   8.929   0.387   3.223 -0.6608  0.5410 -1.3628
 1017MOL0     H37255   9.132   0.340   3.306  0.0076  3.6294  0.6916
 1017MOL0     H37256   9.359   0.362   3.378  0.6365  0.9930  0.0457
 1017MOL0     H37257   9.804   0.541   3.378  0.0563  0.8770 -0.6331
 1017MOL0     H37258  10.041   0.592   3.370  0.9431 -2.4920  0.4037
 1017MOL0     H37259  10.286   0.653   3.336  0.6766  0.7605 -0.7279
 1017MOL0     H37260  10.278   0.473   3.298  0.7333 -1.1562 -2.1381
 1017MOL0     H37261  10.426   0.675   3.139 -1.7223  1.4079  1.8593
 1017MOL0     H37262  10.499   0.612   3.283  1.1003 -1.4510 -0.9182
 1017MOL0     H37263  10.587   0.473   3.106  0.2332  2.8998  3.2453
 1017MOL0     H37264  10.470   0.391   3.208  0.2540  2.1139  2.0405
 1017MOL0     H37265  10.364   0.511   2.952  1.4747 -0.4256 -2.4334
 1017MOL0     H37266  10.295   0.374   3.039  0.6951 -1.1747  1.1107
 1017MOL0     H37267  10.471   0.226   2.969 -0.3070 -0.7264  0.2607
 1017MOL0     H37268  10.556   0.353   2.887 -0.9916 -0.2922 -0.8793
 1017MOL0     H37269  10.288   0.296   2.788  0.1066  0.3778 -0.9382
 1017MOL0     H37270  10.411   0.383   2.713  2.1883  0.0503  0.0444
 1017MOL0     H37271  10.464   0.090   2.761  0.2496  0.4424  0.4433
 1017MOL0     H37272  10.576   0.200   2.693  0.6452  1.3918 -0.8420
 1017MOL0     H37273  10.316   0.089   2.574 -1.0074  1.0847 -1.6000
 1017MOL0     H37274  10.361   0.254   2.518 -0.0090  1.1579  1.2871
 1017MOL0     H37275  10.053   0.568   2.940 -2.9517  1.3872 -1.8910
 1017MOL0     H37276   9.808   0.540   2.940  1.0458  0.8311 -0.6970
 1017MOL0     H37277   9.452   0.476   2.972  1.9067 -2.7853 -0.4484
 1017MOL0     H37278   9.206   0.430   2.906  0.3656 -2.3409 -1.6750
 1017MOL0     H37279   7.427   1.300   3.113 -1.5111  0.2256 -0.5027
 1017MOL0     H37280   7.175   1.242   3.108 -1.4120 -0.0116  1.6504
 1017MOL0     H37281   6.828   1.112   3.326  0.6048  1.6067 -0.6555
 1017MOL0     H37282   6.598   1.130   3.352  0.5394  1.8142 -1.1262
 1017MOL0     H37283   6.313   0.989   3.014  1.7128  1.1991  0.3579
 1017MOL0     H37284   6.215   1.019   3.166  0.7802  1.6745 -1.2810
 1017MOL0     H37285   6.435   0.815   3.159 -0.0987 -0.7329  0.3986
 1017MOL0     H37286   6.269   0.777   3.097  1.1166 -2.8710  1.7036
 1017MOL0     H37287   6.165   0.817   3.287  0.3906  1.5579  0.5195
 1017MOL0     H37288   6.313   0.882   3.367 -1.9861  1.2075 -0.5677
 1017MOL0     H37289   6.248   0.596   3.266  0.7488  1.3697 -1.5894
 1017MOL0     H37290   6.403   0.617   3.313  0.1057 -1.3520  2.0919
 1017MOL0     H37291   6.217   0.626   3.696  2.3591  1.8124  0.2870
 1017MOL0     H37292   6.539   0.973   2.959 -0.5804  0.8625 -0.3784
 1017MOL0     H37293   6.844   1.038   2.832  0.7630  0.3073  0.7404
 1017MOL0     H37294   6.862   0.872   2.890 -2.2105 -1.3660 -0.1116
 1017MOL0     H37295   6.708   0.923   2.822 -1.7496 -0.5723  2.0805
 1018MOL0     O37296   9.744  10.265   3.512 -0.0045 -0.3133 -0.4249
 1018MOL0     C37297   9.653  10.240   3.434 -0.0577  0.4482 -0.0178
 1018MOL0     O37298   9.634  10.310   3.317  0.0032 -0.3757  0.5694
 1018MOL0     C37299   9.704  10.421   3.272 -0.2785  0.9208  0.5275
 1018MOL0     C37300   9.838  10.439   3.301  0.5163 -0.2693  0.0387
 1018MOL0     C37301   9.894  10.556   3.245 -0.0751 -0.4187 -0.3277
 1018MOL0     C37302   9.817  10.656   3.183 -0.1310  0.4897  0.6238
 1018MOL0     O37303   9.884  10.770   3.152  0.7788  0.1408 -0.3224
 1018MOL0     C37304   9.877  10.803   3.014  0.7212 -0.0703 -0.3565
 1018MOL0     C37305   9.954  10.934   2.976 -0.0232  0.3064 -0.3061
 1018MOL0     C37306  10.105  10.926   3.015  0.0513  0.1923  0.1143
 1018MOL0     C37307  10.188  10.832   2.908  0.6962 -0.6886 -0.8399
 1018MOL0     C37308  10.335  10.835   2.927 -0.5499  0.3611 -0.0798
 1018MOL0     C37309  10.388  10.772   3.062  0.6314  0.2394 -0.6185
 1018MOL0     C37310  10.538  10.785   3.065 -0.3646 -0.0291 -0.2152
 1018MOL0     C37311  10.579  10.927   3.097 -0.2758  0.9924  0.5440
 1018MOL0     N37312  10.715  10.947   3.142 -0.0241 -0.1411 -0.5025
 1018MOL0     C37313  10.834  10.904   3.081  0.3933 -0.6607 -0.2246
 1018MOL0     C37314  10.933  10.948   3.155  0.6131 -0.4279 -0.1459
 1018MOL0     C37315  11.077  10.931   3.145  0.3181  0.2340  0.2626
 1018MOL0     C37316  11.114  10.781   3.174  0.0759 -0.1967  0.0636
 1018MOL0     C37317  11.225  10.746   3.070  0.6592  0.0030  0.5659
 1018MOL0     C37318  11.345  10.837   3.079  0.1575 -0.0842 -0.8593
 1018MOL0     O37319  11.408  10.838   3.210  0.8400 -0.2576  0.6505
 1018MOL0     C37320  11.523  10.909   3.222  0.1088 -0.0617 -0.1753
 1018MOL0     C37321  11.572  11.002   3.125 -0.2750  0.3953 -0.0195
 1018MOL0     C37322  11.684  11.078   3.150 -0.7552  0.2584  0.1082
 1018MOL0     C37323  11.759  11.060   3.272  0.3015  0.5969  0.1529
 1018MOL0     C37324  11.880  11.140   3.303 -1.2147 -0.2441  0.0579
 1018MOL0     O37325  11.966  11.092   3.411 -0.1162  0.1098 -0.1709
 1018MOL0     C37326  12.083  11.148   3.443 -0.4770  0.1884 -0.0487
 1018MOL0     C37327  12.175  11.166   3.334 -0.6497  0.0212 -0.3527
 1018MOL0     C37328  12.311  11.207   3.355  0.6984  0.2014 -0.4328
 1018MOL0     C37329  12.348  11.247   3.485  1.0425  0.0735 -0.0540
 1018MOL0     O37330  12.474  11.287   3.514 -0.5166 -0.2431  0.5689
 1018MOL0     C37331  12.577  11.198   3.475 -0.2908 -0.5585 -0.6187
 1018MOL0     C37332  12.707  11.235   3.538 -0.7489 -0.6294  0.8409
 1018MOL0     C37333  12.815  11.124   3.521  0.3981 -0.8222 -0.2742
 1018MOL0     C37334  12.930  11.145   3.620  0.2323  0.6354  0.0129
 1018MOL0     C37335  13.040  11.047   3.593  0.0801  0.5391  0.5273
 1018MOL0     C37336  13.163  11.078   3.666 -0.4724  0.8697 -0.3232
 1018MOL0     C37337  13.129  11.043   3.810  0.4141  0.2487  0.1491
 1018MOL0     C37338  13.244  11.059   3.901  1.0110  0.1753  0.6058
 1018MOL0    Cl37339  13.303  11.239   3.896  0.0996 -0.2414 -0.0963
 1018MOL0     C37340  12.256  11.224   3.588  0.3433  0.0758  0.2975
 1018MOL0     C37341  12.127  11.171   3.571 -0.0578  0.1094  0.1203
 1018MOL0     O37342  11.900  11.243   3.235  0.2169  0.1878 -0.1723
 1018MOL0     C37343  11.700  10.968   3.367 -0.4663  0.7508  0.1885
 1018MOL0     C37344  11.584  10.905   3.350  0.0529  0.4264 -0.4054
 1018MOL0     N37345  10.870  11.003   3.268 -0.6391  0.4519 -0.9839
 1018MOL0     N37346  10.746  11.006   3.261 -0.1406  0.5598  0.5293
 1018MOL0     C37347   9.683  10.625   3.159 -0.3802 -0.1338 -0.5593
 1018MOL0     C37348   9.629  10.509   3.203  0.9728  0.1012  0.3580
 1018MOL0     C37349   9.564  10.127   3.459  0.5082 -0.0636  0.0299
 1018MOL0     C37350   9.437  10.136   3.529 -0.4536  0.3146  0.4471
 1018MOL0     C37351   9.349  10.031   3.533 -0.7435  0.3100 -0.0079
 1018MOL0     C37352   9.387   9.913   3.475  0.0506  0.7968 -0.3157
 1018MOL0     O37353   9.299   9.804   3.479  0.0079  0.5444  0.6648
 1018MOL0     C37354   9.206   9.788   3.372  0.5908 -0.0795  0.9743
 1018MOL0     C37355   9.200   9.634   3.339  0.4393 -0.2570 -0.7555
 1018MOL0     C37356   9.155   9.559   3.470  0.2495 -0.0646  0.7065
 1018MOL0     C37357   9.161   9.406   3.436  0.1972 -0.1451  0.1461
 1018MOL0     C37358   9.297   9.348   3.418  0.5624 -0.2768 -0.0453
 1018MOL0     C37359   9.412   9.308   3.412  0.5212  0.5681 -0.2552
 1018MOL0     C37360   9.515   9.899   3.412  0.4514  0.8258 -0.6473
 1018MOL0     C37361   9.601  10.006   3.398 -0.0234 -0.3648  0.2434
 1018MOL0     C37362   9.735   9.989   3.326  0.2151  0.1544 -0.2678
 1018MOL0     H37363   9.910  10.373   3.349  0.1869  0.5166  1.6837
 1018MOL0     H37364  10.002  10.566   3.249 -0.1457 -0.1705  1.9805
 1018MOL0     H37365   9.924  10.721   2.959 -0.6208 -1.7245  0.8625
 1018MOL0     H37366   9.772  10.811   2.987  0.3935  0.2160  0.9493
 1018MOL0     H37367   9.907  11.015   3.032  0.5582 -0.0265  0.6889
 1018MOL0     H37368   9.954  10.963   2.870 -0.0094 -0.5674 -0.5580
 1018MOL0     H37369  10.116  10.893   3.119 -0.1020  0.5332  0.2406
 1018MOL0     H37370  10.145  11.028   3.017  1.4682 -0.3516  0.0897
 1018MOL0     H37371  10.142  10.733   2.917 -0.4375 -0.0196  4.9703
 1018MOL0     H37372  10.161  10.877   2.813 -0.6836  0.9071  0.2552
 1018MOL0     H37373  10.376  10.774   2.847 -1.4659 -0.1965 -0.1399
 1018MOL0     H37374  10.376  10.936   2.919  1.1700 -0.3912 -1.6178
 1018MOL0     H37375  10.343  10.825   3.147  2.2588  2.1851 -0.9098
 1018MOL0     H37376  10.369  10.666   3.079  2.8369 -0.2698 -1.1402
 1018MOL0     H37377  10.582  10.755   2.969 -0.8237 -2.4241  0.2650
 1018MOL0     H37378  10.572  10.723   3.149 -1.0354  0.4573  0.4230
 1018MOL0     H37379  10.571  10.983   3.003  0.2665 -0.3870 -0.3715
 1018MOL0     H37380  10.511  10.967   3.173  0.5202 -0.6966  2.2290
 1018MOL0     H37381  10.842  10.854   2.985  0.6246  0.2184 -0.6712
 1018MOL0     H37382  11.103  10.959   3.043  0.4953 -2.0986 -0.3907
 1018MOL0     H37383  11.132  11.000   3.209 -0.8006  2.9506 -1.5351
 1018MOL0     H37384  11.142  10.762   3.278 -2.4016 -0.4143  0.7532
 1018MOL0     H37385  11.024  10.722   3.155  1.6906 -2.5086 -0.8552
 1018MOL0     H37386  11.183  10.758   2.970  0.3718  0.9861  0.7822
 1018MOL0     H37387  11.250  10.642   3.089 -1.8760 -0.7442  0.2367
 1018MOL0     H37388  11.321  10.942   3.058 -1.3620 -0.3415 -0.5051
 1018MOL0     H37389  11.411  10.794   3.003  1.9598 -0.4067  0.8079
 1018MOL0     H37390  11.518  11.004   3.031 -0.5245  2.1029  0.1337
 1018MOL0     H37391  11.719  11.148   3.075 -0.3350  0.0437  0.1003
 1018MOL0     H37392  12.138  11.167   3.232  1.3282 -0.5039 -1.1302
 1018MOL0     H37393  12.388  11.206   3.279  0.5838 -2.4577 -0.6048
 1018MOL0     H37394  12.556  11.096   3.510 -0.1656 -0.5786 -0.6010
 1018MOL0     H37395  12.588  11.196   3.366  0.1790 -0.7914 -0.5665
 1018MOL0     H37396  12.727  11.335   3.498  0.3300 -0.8402  0.8181
 1018MOL0     H37397  12.705  11.253   3.646 -0.1168  0.3829  0.7003
 1018MOL0     H37398  12.769  11.025   3.521  1.6871 -1.4520  0.2927
 1018MOL0     H37399  12.852  11.138   3.419 -1.1519  1.1731 -0.6047
 1018MOL0     H37400  12.882  11.142   3.718  0.3709 -0.5853  0.0605
 1018MOL0     H37401  12.979  11.242   3.611  0.1618  0.6050 -0.7878
 1018MOL0     H37402  13.069  11.045   3.488  1.2246 -2.3533  0.8090
 1018MOL0     H37403  13.004  10.947   3.620 -2.0934  1.0042 -0.4241
 1018MOL0     H37404  13.244  11.023   3.619 -1.7505  0.0762 -1.7001
 1018MOL0     H37405  13.185  11.185   3.659 -3.3892  1.5963  0.0234
 1018MOL0     H37406  13.099  10.939   3.824 -0.8337  0.9019  2.7815
 1018MOL0     H37407  13.038  11.095   3.841 -0.0608 -0.9229  0.7810
 1018MOL0     H37408  13.220  11.026   4.002 -0.1028 -1.2349 -0.0822
 1018MOL0     H37409  13.330  11.004   3.862 -1.9663 -2.0264 -3.6372
 1018MOL0     H37410  12.293  11.233   3.690 -0.2544 -1.6316  0.6877
 1018MOL0     H37411  12.057  11.141   3.647 -2.9970  0.6564 -2.1853
 1018MOL0     H37412  11.761  10.956   3.456 -0.8593  2.9374  0.8192
 1018MOL0     H37413  11.557  10.829   3.423  2.0251  0.6197  0.6046
 1018MOL0     H37414   9.623  10.700   3.108 -2.0373 -1.0657 -0.0602
 1018MOL0     H37415   9.523  10.494   3.186  1.3762 -2.5653 -0.1245
 1018MOL0     H37416   9.403  10.222   3.586 -3.2207 -1.4392  1.5971
 1018MOL0     H37417   9.256  10.036   3.589 -0.8635  3.3010 -0.2859
 1018MOL0     H37418   9.244   9.843   3.286 -0.5911 -2.4617 -1.2005
 1018MOL0     H37419   9.104   9.821   3.394 -0.9873 -1.2651 -3.6110
 1018MOL0     H37420   9.302   9.608   3.308  1.6742  1.2509  1.7274
 1018MOL0     H37421   9.133   9.626   3.253 -0.7548  0.3763  0.0890
 1018MOL0     H37422   9.054   9.590   3.498  0.1638  1.1171 -0.8034
 1018MOL0     H37423   9.219   9.572   3.557  1.0084 -0.6434  0.2611
 1018MOL0     H37424   9.103   9.354   3.512 -2.0839  0.1726 -1.2934
 1018MOL0     H37425   9.117   9.378   3.340  0.6597 -1.3579  0.2649
 1018MOL0     H37426   9.513   9.273   3.419  0.0332 -1.0245 -0.7587
 1018MOL0     H37427   9.539   9.803   3.368 -0.2989 -0.3409  1.3446
 1018MOL0     H37428   9.812   9.952   3.395  0.5288 -2.4743 -1.8896
 1018MOL0     H37429   9.734   9.918   3.242 -0.4422 -1.8582  1.3697
 1018MOL0     H37430   9.766  10.082   3.277  3.2345 -1.4492 -1.7301
 1019MOL0     O37431   4.222  10.621   4.708  0.3725 -0.3152  0.1167
 1019MOL0     C37432   4.155  10.564   4.621 -0.1769  0.3612  0.2987
 1019MOL0     O37433   4.188  10.443   4.566 -0.1541  0.2378  0.6752
 1019MOL0     C37434   4.294  10.369   4.609 -1.0452  0.1781 -0.2945
 1019MOL0     C37435   4.282  10.242   4.658  0.3733  0.0466  0.4848
 1019MOL0     C37436   4.391  10.156   4.686  0.8877 -0.3415  0.1018
 1019MOL0     C37437   4.521  10.212   4.656  0.2814  0.5330  0.2068
 1019MOL0     O37438   4.624  10.125   4.667  0.2960 -0.4851 -0.7021
 1019MOL0     C37439   4.752  10.171   4.662  0.3877 -1.4950  0.3919
 1019MOL0     C37440   4.808  10.163   4.515 -0.2443 -0.3179  0.7019
 1019MOL0     C37441   4.958  10.185   4.519  0.3861  0.6113  0.5301
 1019MOL0     C37442   5.013  10.194   4.373  1.1405 -0.2730  0.0032
 1019MOL0     C37443   5.159  10.179   4.372 -0.4427  0.0714 -0.2375
 1019MOL0     C37444   5.222  10.204   4.231 -0.4966 -0.8082 -0.5005
 1019MOL0     C37445   5.379  10.206   4.256  1.0472  0.4154  0.3600
 1019MOL0     C37446   5.450  10.186   4.123 -0.1308 -0.3365 -0.1565
 1019MOL0     N37447   5.427  10.311   4.049 -0.0052  0.4411  0.1618
 1019MOL0     C37448   5.332  10.329   3.954 -0.4461 -0.1272  0.2253
 1019MOL0     C37449   5.371  10.448   3.897  0.4559  0.0596  0.5441
 1019MOL0     C37450   5.312  10.525   3.789  0.2579 -0.1430  0.1520
 1019MOL0     C37451   5.235  10.646   3.845 -0.3158  0.7453 -0.0249
 1019MOL0     C37452   5.331  10.767   3.857 -1.0645  0.4011  0.1710
 1019MOL0     C37453   5.257  10.895   3.893 -0.0684  0.6633  0.0616
 1019MOL0     O37454   5.320  11.018   3.863  0.8166  0.0319 -0.1001
 1019MOL0     C37455   5.450  11.038   3.893 -0.3071 -0.1611  0.4554
 1019MOL0     C37456   5.545  11.075   3.796 -0.4296 -0.7380  1.1670
 1019MOL0     C37457   5.683  11.089   3.818 -0.5457  0.3456 -1.1034
 1019MOL0     C37458   5.735  11.069   3.946 -0.5541 -0.1589  0.2009
 1019MOL0     C37459   5.883  11.052   3.969  0.5250  0.6274  0.0350
 1019MOL0     O37460   5.972  11.115   3.882 -0.2163 -0.0239  0.4789
 1019MOL0     C37461   6.103  11.106   3.906 -0.2129 -0.5926  0.0508
 1019MOL0     C37462   6.163  11.132   4.030 -0.3337  0.4036 -0.0018
 1019MOL0     C37463   6.301  11.117   4.048  0.1106 -0.3464 -0.8570
 1019MOL0     C37464   6.383  11.090   3.939  0.4555 -0.7608 -0.2892
 1019MOL0     O37465   6.519  11.062   3.960  0.0749 -0.3534 -0.6835
 1019MOL0     C37466   6.617  11.052   3.855  0.8472  0.1758  0.2222
 1019MOL0     C37467   6.754  11.049   3.918 -0.4832 -0.0048  0.2614
 1019MOL0     C37468   6.789  10.912   3.949  0.1504 -0.1885 -0.3210
 1019MOL0     C37469   6.938  10.906   3.989 -0.2510 -0.3152 -0.7150
 1019MOL0     C37470   6.959  10.784   4.080 -0.1335 -0.9789 -0.3735
 1019MOL0     C37471   7.095  10.754   4.137 -0.2816  0.0492 -0.8048
 1019MOL0     C37472   7.201  10.720   4.028  0.2493  0.0665  0.1476
 1019MOL0     C37473   7.336  10.644   4.073  0.0730 -0.1022  0.4835
 1019MOL0    Cl37474   7.291  10.484   4.145  0.3993 -0.4021 -0.0763
 1019MOL0     C37475   6.324  11.086   3.807  0.7392 -0.3197 -0.5256
 1019MOL0     C37476   6.181  11.102   3.796 -0.0441 -0.1819  0.1658
 1019MOL0     O37477   5.919  10.981   4.064  0.3747 -0.4316 -0.3370
 1019MOL0     C37478   5.639  11.046   4.046  0.0123 -0.5759  0.0360
 1019MOL0     C37479   5.502  11.041   4.026  0.7050  0.1224  0.3671
 1019MOL0     N37480   5.485  10.497   3.954 -0.5084 -0.6085 -0.2303
 1019MOL0     N37481   5.516  10.414   4.044 -0.2492 -0.3403  0.0445
 1019MOL0     C37482   4.531  10.342   4.613 -0.6805  0.4487  0.3217
 1019MOL0     C37483   4.420  10.421   4.585 -0.5589  0.0868 -0.5268
 1019MOL0     C37484   4.029  10.634   4.576 -0.7900 -0.4492  0.5353
 1019MOL0     C37485   3.976  10.589   4.453 -0.0391 -1.3135 -0.4236
 1019MOL0     C37486   3.855  10.636   4.402 -0.1084  0.4281  0.3314
 1019MOL0     C37487   3.773  10.708   4.491 -0.7920  1.5332  0.6085
 1019MOL0     O37488   3.641  10.736   4.441 -1.1159  0.6480  0.4328
 1019MOL0     C37489   3.554  10.824   4.518  0.1882  0.4448 -0.9502
 1019MOL0     C37490   3.423  10.804   4.446 -0.0006  0.3095 -0.1146
 1019MOL0     C37491   3.314  10.738   4.537 -0.5231  0.1797  0.0042
 1019MOL0     C37492   3.188  10.693   4.457  0.1944 -0.6599 -0.3148
 1019MOL0     C37493   3.117  10.802   4.379 -0.5622  0.6161 -0.0924
 1019MOL0     C37494   3.072  10.896   4.319 -0.2619  0.4796  0.7884
 1019MOL0     C37495   3.824  10.744   4.617  0.5152 -0.5484 -0.0117
 1019MOL0     C37496   3.940  10.699   4.669  0.0071 -0.1040  0.0893
 1019MOL0     C37497   3.968  10.723   4.818 -0.1869 -0.3126  0.4189
 1019MOL0     H37498   4.179  10.219   4.682  0.2149 -1.5500 -1.4316
 1019MOL0     H37499   4.367  10.057   4.724 -0.1060 -0.2395 -0.2231
 1019MOL0     H37500   4.766  10.267   4.714 -1.1576 -2.5966  3.0092
 1019MOL0     H37501   4.800  10.102   4.732  2.1322 -1.3840 -0.6415
 1019MOL0     H37502   4.749  10.235   4.458  0.5239  0.1705  0.5115
 1019MOL0     H37503   4.788  10.060   4.484 -0.8292  0.7123 -2.6293
 1019MOL0     H37504   5.000  10.093   4.560 -3.0983 -2.1263 -1.4593
 1019MOL0     H37505   4.975  10.273   4.582 -0.1643  0.3839  1.0110
 1019MOL0     H37506   4.960  10.119   4.313  2.4589 -0.4849 -0.9311
 1019MOL0     H37507   4.976  10.285   4.325  1.0690  1.1476  2.5701
 1019MOL0     H37508   5.205  10.242   4.449 -0.4865 -1.5612  1.1726
 1019MOL0     H37509   5.196  10.078   4.392 -0.5211 -0.0961 -0.9029
 1019MOL0     H37510   5.206  10.124   4.159 -0.2321 -0.1326 -1.3259
 1019MOL0     H37511   5.194  10.300   4.186 -0.7790  0.5316  2.3091
 1019MOL0     H37512   5.399  10.122   4.324  0.2787  0.7864  1.0589
 1019MOL0     H37513   5.412  10.301   4.300 -1.8334  1.9226 -0.5038
 1019MOL0     H37514   5.559  10.179   4.122 -0.1783 -1.2746 -0.8933
 1019MOL0     H37515   5.410  10.101   4.067  0.0978  1.1956 -2.7863
 1019MOL0     H37516   5.252  10.270   3.910  0.8391 -0.2975 -1.9945
 1019MOL0     H37517   5.387  10.559   3.716 -0.3834  1.4184  0.1683
 1019MOL0     H37518   5.245  10.454   3.738 -1.9072 -0.3171  3.0250
 1019MOL0     H37519   5.156  10.679   3.776 -0.0125  1.7051  0.0668
 1019MOL0     H37520   5.194  10.621   3.943  0.9913  1.1292  0.6430
 1019MOL0     H37521   5.384  10.790   3.764 -1.2375  1.1239  0.2467
 1019MOL0     H37522   5.409  10.739   3.927 -0.1336  1.4155 -0.4418
 1019MOL0     H37523   5.229  10.888   3.999 -0.5686 -1.1523 -0.1496
 1019MOL0     H37524   5.166  10.898   3.833 -0.6616  4.0300  0.9142
 1019MOL0     H37525   5.512  11.092   3.694  0.0303  0.9245  1.2707
 1019MOL0     H37526   5.757  11.104   3.740 -0.0188 -3.2246 -1.4892
 1019MOL0     H37527   6.101  11.167   4.112 -0.7096  2.3865 -1.0833
 1019MOL0     H37528   6.347  11.134   4.145  3.7559 -1.1257 -2.2726
 1019MOL0     H37529   6.605  10.967   3.786  0.0574  0.3405  0.1564
 1019MOL0     H37530   6.598  11.143   3.798 -1.5357 -1.5684 -2.0465
 1019MOL0     H37531   6.827  11.095   3.851  0.7887 -1.8771  0.2702
 1019MOL0     H37532   6.765  11.109   4.009  2.3130  0.4103 -0.2532
 1019MOL0     H37533   6.727  10.886   4.035  1.5276  0.2226  0.8390
 1019MOL0     H37534   6.771  10.840   3.868  1.5507 -1.0289  0.0768
 1019MOL0     H37535   6.953  10.989   4.059 -2.4831 -0.7782  0.4196
 1019MOL0     H37536   6.997  10.916   3.898  0.3801 -0.6053 -0.3492
 1019MOL0     H37537   6.940  10.705   4.007  1.7506 -0.9845 -0.9095
 1019MOL0     H37538   6.888  10.798   4.162 -2.0957 -3.0632 -1.5766
 1019MOL0     H37539   7.122  10.832   4.208 -0.3283 -0.0733 -0.6515
 1019MOL0     H37540   7.073  10.660   4.190  0.0814  0.7673  0.6534
 1019MOL0     H37541   7.241  10.818   4.002 -0.0671  0.4744  1.1336
 1019MOL0     H37542   7.149  10.670   3.945 -1.3731 -0.6622  1.5327
 1019MOL0     H37543   7.401  10.636   3.986  2.6288  1.6462  2.1026
 1019MOL0     H37544   7.394  10.706   4.143  0.5245 -0.5891  0.5451
 1019MOL0     H37545   6.383  11.070   3.717  0.6217  0.7092 -0.7922
 1019MOL0     H37546   6.140  11.093   3.696  1.4925 -0.5088 -0.4557
 1019MOL0     H37547   5.689  11.044   4.142  1.2684  1.0788 -0.5247
 1019MOL0     H37548   5.428  11.025   4.105 -1.3799  1.8002 -1.1392
 1019MOL0     H37549   4.627  10.382   4.581  0.6841 -2.6058  0.2842
 1019MOL0     H37550   4.430  10.521   4.544 -0.1082  0.0156 -0.5988
 1019MOL0     H37551   4.029  10.520   4.389 -1.5056 -2.6575 -0.2439
 1019MOL0     H37552   3.819  10.613   4.302  1.7591  1.5090 -0.6306
 1019MOL0     H37553   3.586  10.929   4.514 -0.2353  0.6592  0.6630
 1019MOL0     H37554   3.546  10.796   4.623 -1.6252  1.8232 -0.6695
 1019MOL0     H37555   3.431  10.754   4.349  2.3203  4.5221 -2.4186
 1019MOL0     H37556   3.394  10.904   4.413 -0.6725  1.3304  3.2767
 1019MOL0     H37557   3.290  10.815   4.611 -1.0358 -0.3066  0.3588
 1019MOL0     H37558   3.362  10.652   4.585  3.4338  2.1485  0.0024
 1019MOL0     H37559   3.208  10.619   4.379 -0.4456 -1.1096 -0.0549
 1019MOL0     H37560   3.120  10.642   4.526  0.3742 -2.5089 -1.4602
 1019MOL0     H37561   3.043  10.988   4.273  3.5679  0.1527 -2.9915
 1019MOL0     H37562   3.759  10.810   4.674 -0.7424 -0.4272 -1.5342
 1019MOL0     H37563   3.887  10.769   4.875 -0.1922 -0.6766  0.7040
 1019MOL0     H37564   3.984  10.623   4.858 -1.8081 -1.6231 -1.9632
 1019MOL0     H37565   4.067  10.768   4.831  1.0091 -2.6767 -0.0515
 1020MOL0     O37566   0.106   1.859   9.458 -0.3632  0.0550 -0.2711
 1020MOL0     C37567   0.065   1.755   9.418  0.1292 -0.0433 -0.2937
 1020MOL0     O37568   0.118   1.635   9.444  0.9490 -0.2459 -0.3512
 1020MOL0     C37569   0.253   1.634   9.462 -0.4750  0.1312 -0.2157
 1020MOL0     C37570   0.342   1.698   9.377 -0.0078 -0.2181  0.5097
 1020MOL0     C37571   0.477   1.685   9.383  0.1224 -0.3929  0.2752
 1020MOL0     C37572   0.531   1.598   9.479 -0.0094  0.2460  0.3212
 1020MOL0     O37573   0.664   1.596   9.471 -0.2953 -0.3756  0.0040
 1020MOL0     C37574   0.740   1.531   9.568 -0.5427 -0.9444 -0.7279
 1020MOL0     C37575   0.883   1.573   9.552  0.2563 -0.6491  0.3167
 1020MOL0     C37576   0.915   1.725   9.535 -0.6959  0.2404  0.6027
 1020MOL0     C37577   0.833   1.812   9.636 -0.0815  0.1358  0.6219
 1020MOL0     C37578   0.871   1.956   9.642 -0.1904  0.0945 -0.7102
 1020MOL0     C37579   1.014   1.989   9.712  0.4483  0.0080 -0.4879
 1020MOL0     C37580   1.061   2.123   9.689 -0.1548 -0.6905 -0.5077
 1020MOL0     C37581   1.183   2.161   9.791 -0.2204 -0.0753 -0.3969
 1020MOL0     N37582   1.229   2.300   9.762 -0.3943  0.2028 -0.8834
 1020MOL0     C37583   1.307   2.327   9.655  0.3869  0.7455  0.1891
 1020MOL0     C37584   1.369   2.443   9.689  0.2702  0.2022 -0.3019
 1020MOL0     C37585   1.468   2.524   9.597  0.1508 -0.3220 -0.1427
 1020MOL0     C37586   1.525   2.452   9.476 -0.5434  0.1580  0.0333
 1020MOL0     C37587   1.659   2.521   9.418  0.9111  0.3491 -0.3499
 1020MOL0     C37588   1.790   2.483   9.494 -0.4902 -0.0943 -0.1802
 1020MOL0     O37589   1.902   2.542   9.444 -0.5890  0.0568 -0.3287
 1020MOL0     C37590   2.036   2.501   9.456  1.2494 -1.1709 -0.8203
 1020MOL0     C37591   2.072   2.391   9.535 -0.4422  0.2357 -0.2481
 1020MOL0     C37592   2.206   2.377   9.570  0.4660  0.4608 -0.2514
 1020MOL0     C37593   2.309   2.465   9.534  0.0640 -0.0987  0.3647
 1020MOL0     C37594   2.449   2.449   9.576  0.7151  0.9377 -0.7504
 1020MOL0     O37595   2.553   2.519   9.507  0.3023  0.7095 -0.1459
 1020MOL0     C37596   2.680   2.512   9.540 -0.5263 -0.2360 -0.5910
 1020MOL0     C37597   2.761   2.573   9.453  0.6029 -0.8976  0.2206
 1020MOL0     C37598   2.900   2.580   9.478 -0.6125 -0.1032 -0.4252
 1020MOL0     C37599   2.967   2.519   9.585  0.3688 -0.2293  0.8358
 1020MOL0     O37600   3.103   2.529   9.579  0.5512  0.2437 -0.2569
 1020MOL0     C37601   3.174   2.475   9.686  0.2285  0.6718 -0.0239
 1020MOL0     C37602   3.318   2.470   9.670 -0.9470 -0.0544  0.5311
 1020MOL0     C37603   3.375   2.607   9.643 -0.8790  0.7590  0.5129
 1020MOL0     C37604   3.530   2.611   9.673 -0.0777 -0.1082  0.3537
 1020MOL0     C37605   3.577   2.758   9.669  0.7413  0.1175  0.4799
 1020MOL0     C37606   3.694   2.778   9.769  0.5097  0.4791 -0.5967
 1020MOL0     C37607   3.767   2.922   9.763 -0.6055 -0.2476  0.7733
 1020MOL0     C37608   3.835   2.949   9.628 -0.5746  0.8911  0.2299
 1020MOL0    Cl37609   4.003   2.877   9.628  0.1501 -0.2431  0.2046
 1020MOL0     C37610   2.881   2.464   9.686 -0.5312  0.2240  0.9172
 1020MOL0     C37611   2.741   2.468   9.664 -0.5021 -0.0370  0.2258
 1020MOL0     O37612   2.469   2.362   9.659  0.3426  0.4405 -0.8636
 1020MOL0     C37613   2.275   2.564   9.440  0.7966  0.6417 -0.3484
 1020MOL0     C37614   2.138   2.590   9.406  0.4899 -0.2573  0.7077
 1020MOL0     N37615   1.336   2.471   9.825 -0.8307 -1.0714  0.4104
 1020MOL0     N37616   1.251   2.387   9.869 -0.1819  0.4619  0.4155
 1020MOL0     C37617   0.441   1.533   9.571 -0.2465  0.2094 -0.1335
 1020MOL0     C37618   0.302   1.559   9.566 -0.0631  0.2621 -0.2940
 1020MOL0     C37619  -0.067   1.759   9.357  0.8657  0.1931 -0.0104
 1020MOL0     C37620  -0.129   1.884   9.344 -0.3087 -0.2577 -0.3838
 1020MOL0     C37621  -0.254   1.894   9.297 -0.0226  0.0746 -0.7880
 1020MOL0     C37622  -0.334   1.788   9.265 -0.9142 -0.2664 -0.5474
 1020MOL0     O37623  -0.450   1.813   9.211 -0.1264  1.1886 -0.8746
 1020MOL0     C37624  -0.523   1.701   9.144  0.4460 -0.2254 -0.3352
 1020MOL0     C37625  -0.662   1.746   9.088 -0.9479 -0.2597  0.2125
 1020MOL0     C37626  -0.623   1.828   8.969  0.6968 -0.3780 -0.1363
 1020MOL0     C37627  -0.744   1.910   8.920  0.0531  0.4664  0.4694
 1020MOL0     C37628  -0.710   1.990   8.806  0.5355 -0.1913 -0.0834
 1020MOL0     C37629  -0.686   2.073   8.724  0.3223  0.2567 -0.5042
 1020MOL0     C37630  -0.275   1.658   9.276  1.5002  0.2569  0.4621
 1020MOL0     C37631  -0.147   1.640   9.318  0.8192 -0.4232  0.2808
 1020MOL0     C37632  -0.104   1.495   9.323 -0.5758  0.0068  0.9338
 1020MOL0     H37633   0.301   1.757   9.295  0.1562  0.8319  1.1703
 1020MOL0     H37634   0.551   1.739   9.326  1.8986 -1.7633  1.1944
 1020MOL0     H37635   0.711   1.563   9.669  3.1011 -1.5084  0.6901
 1020MOL0     H37636   0.715   1.425   9.572 -0.1467 -1.0169  1.4273
 1020MOL0     H37637   0.914   1.516   9.463 -2.8934 -3.2163  0.6933
 1020MOL0     H37638   0.946   1.532   9.632  1.5245 -2.5686 -1.5493
 1020MOL0     H37639   0.893   1.757   9.432 -1.5513  2.8542  1.5042
 1020MOL0     H37640   1.022   1.719   9.555 -0.5869 -0.8412 -0.1896
 1020MOL0     H37641   0.726   1.805   9.615 -0.6416 -2.3342  3.5458
 1020MOL0     H37642   0.848   1.771   9.736  1.5545  0.3212  0.4743
 1020MOL0     H37643   0.874   2.007   9.545  1.9265  0.3939 -0.5256
 1020MOL0     H37644   0.795   2.008   9.700  1.0559 -1.0554  2.1247
 1020MOL0     H37645   0.998   1.976   9.819 -0.2158 -1.2065 -0.7258
 1020MOL0     H37646   1.089   1.913   9.690  0.8059  0.0028  0.6754
 1020MOL0     H37647   0.985   2.201   9.704  1.4751  0.7552  0.4708
 1020MOL0     H37648   1.094   2.123   9.585 -1.1810 -0.1600 -0.8492
 1020MOL0     H37649   1.156   2.156   9.897  1.0646  0.5408 -0.0239
 1020MOL0     H37650   1.264   2.091   9.768  1.2426  1.0015  1.2221
 1020MOL0     H37651   1.314   2.265   9.566  0.5297  0.8516  0.1263
 1020MOL0     H37652   1.426   2.620   9.564 -1.5700 -1.1275 -0.4050
 1020MOL0     H37653   1.557   2.538   9.660  1.0995 -0.5575 -1.3958
 1020MOL0     H37654   1.538   2.347   9.502 -1.8725 -0.0506 -0.0513
 1020MOL0     H37655   1.455   2.452   9.392  1.1442  1.2898 -1.4645
 1020MOL0     H37656   1.645   2.629   9.406  0.0188  0.4644  1.4092
 1020MOL0     H37657   1.679   2.484   9.317 -0.3890  0.7874 -0.7840
 1020MOL0     H37658   1.799   2.376   9.514 -0.0041 -0.5076 -2.3227
 1020MOL0     H37659   1.768   2.521   9.594 -1.3074 -2.7346  0.7087
 1020MOL0     H37660   2.001   2.316   9.569 -0.6103  1.4811  2.4554
 1020MOL0     H37661   2.227   2.286   9.626 -1.4965 -1.0506 -1.8309
 1020MOL0     H37662   2.727   2.622   9.362  1.8987  3.5189  1.8272
 1020MOL0     H37663   2.963   2.636   9.410  0.2561 -0.5271  0.0164
 1020MOL0     H37664   3.142   2.539   9.768  2.7957  1.1360  0.6938
 1020MOL0     H37665   3.136   2.374   9.702 -1.2676  0.9848 -1.4006
 1020MOL0     H37666   3.356   2.425   9.762 -2.9013  1.0454  1.9461
 1020MOL0     H37667   3.342   2.406   9.585  1.9467 -0.6121  1.6651
 1020MOL0     H37668   3.354   2.621   9.537 -1.6480  0.3557  0.5994
 1020MOL0     H37669   3.328   2.683   9.706  1.5832  0.6208  2.6936
 1020MOL0     H37670   3.570   2.552   9.590 -1.3925 -0.1307 -0.2985
 1020MOL0     H37671   3.560   2.567   9.768 -1.3994 -0.9496  0.4073
 1020MOL0     H37672   3.501   2.825   9.710  0.7942 -0.2288  1.1573
 1020MOL0     H37673   3.584   2.804   9.570  2.2191 -1.0162  0.0185
 1020MOL0     H37674   3.644   2.769   9.866  2.1787  0.2713  0.2890
 1020MOL0     H37675   3.765   2.695   9.777 -0.7700 -0.4794  2.5771
 1020MOL0     H37676   3.847   2.924   9.837  1.2770 -2.4153 -1.0215
 1020MOL0     H37677   3.704   3.008   9.787  0.7590  0.0012  3.9556
 1020MOL0     H37678   3.779   2.895   9.550  0.3830  0.6618 -0.3220
 1020MOL0     H37679   3.845   3.055   9.604 -1.6516  0.8138 -0.6883
 1020MOL0     H37680   2.920   2.427   9.780 -0.2160  2.1895  1.6150
 1020MOL0     H37681   2.676   2.433   9.743  0.6796 -1.6903  0.5210
 1020MOL0     H37682   2.355   2.620   9.392  0.4350  1.3517 -0.1441
 1020MOL0     H37683   2.117   2.681   9.351 -1.7261  0.6202  2.7964
 1020MOL0     H37684   0.464   1.463   9.651  1.8773  2.1059  1.0222
 1020MOL0     H37685   0.243   1.525   9.650  3.2537 -0.1433  2.0764
 1020MOL0     H37686  -0.067   1.970   9.368 -1.3104  0.3884 -0.0176
 1020MOL0     H37687  -0.291   1.995   9.281  1.1398  0.3784 -1.7827
 1020MOL0     H37688  -0.552   1.635   9.226 -1.9264  2.9340  1.6433
 1020MOL0     H37689  -0.458   1.659   9.067  1.6728  1.7088 -0.4192
 1020MOL0     H37690  -0.719   1.808   9.159 -3.6538  0.9331 -2.7314
 1020MOL0     H37691  -0.717   1.656   9.057 -0.0398 -0.6555 -0.2826
 1020MOL0     H37692  -0.591   1.756   8.893 -0.8966 -2.6635  1.2124
 1020MOL0     H37693  -0.545   1.899   8.996  2.0924 -1.0000 -2.3109
 1020MOL0     H37694  -0.819   1.839   8.883  1.0460  0.5750 -1.9222
 1020MOL0     H37695  -0.787   1.972   9.000  2.3653 -0.9115  2.9501
 1020MOL0     H37696  -0.676   2.153   8.654  2.8402 -0.1761 -0.7577
 1020MOL0     H37697  -0.333   1.573   9.243  2.6547  0.0793 -1.1936
 1020MOL0     H37698  -0.189   1.425   9.322  1.3588 -2.5304 -1.0204
 1020MOL0     H37699  -0.050   1.464   9.233 -2.5516 -1.5075  0.1879
 1020MOL0     H37700  -0.055   1.476   9.419 -1.0625 -1.5461  0.9141
 1021MOL0     O37701   6.685   9.033   2.653 -0.3813  0.0784 -0.4135
 1021MOL0     C37702   6.641   8.961   2.745  0.6181 -0.1972  0.3880
 1021MOL0     O37703   6.704   8.856   2.804  0.0091 -0.0768  0.1699
 1021MOL0     C37704   6.816   8.817   2.733 -0.3840  0.9238  0.2543
 1021MOL0     C37705   6.813   8.694   2.656  0.0039  0.1521 -0.0631
 1021MOL0     C37706   6.929   8.657   2.573 -0.2969 -0.6206 -0.4162
 1021MOL0     C37707   7.045   8.742   2.568  0.5302  0.4994 -0.7267
 1021MOL0     O37708   7.150   8.706   2.489  0.0912 -0.5715 -0.8494
 1021MOL0     C37709   7.273   8.781   2.504  0.1841  0.3406 -0.4146
 1021MOL0     C37710   7.370   8.717   2.406 -0.5231 -0.5003 -0.1744
 1021MOL0     C37711   7.517   8.756   2.445  0.0324 -0.3049 -0.0854
 1021MOL0     C37712   7.608   8.676   2.361  0.0657  0.2087  0.5594
 1021MOL0     C37713   7.750   8.733   2.375 -0.0440 -0.3514  0.1460
 1021MOL0     C37714   7.849   8.640   2.305  0.3340  0.5187 -0.0170
 1021MOL0     C37715   7.986   8.707   2.301  0.9165  0.3078 -0.1647
 1021MOL0     C37716   7.993   8.825   2.210  0.2516  0.0882 -1.0939
 1021MOL0     N37717   8.130   8.854   2.193 -0.2370 -0.8701 -0.5605
 1021MOL0     C37718   8.226   8.893   2.277 -0.8727  0.2595 -1.0443
 1021MOL0     C37719   8.340   8.922   2.208  0.2027 -0.5783  0.0493
 1021MOL0     C37720   8.469   8.970   2.272 -0.2091 -0.6122  0.1492
 1021MOL0     C37721   8.581   8.867   2.236  0.0405 -0.4880  0.2634
 1021MOL0     C37722   8.726   8.894   2.287  0.0532 -0.6614  0.1430
 1021MOL0     C37723   8.785   9.016   2.215  0.1084 -0.4509  0.2485
 1021MOL0     O37724   8.921   9.036   2.266  0.4394 -1.3009 -0.1884
 1021MOL0     C37725   8.996   9.136   2.205  0.8074  0.0803 -0.4038
 1021MOL0     C37726   8.955   9.260   2.150 -0.0466  0.1738 -0.3356
 1021MOL0     C37727   9.049   9.337   2.083  0.4529 -0.7362 -0.0737
 1021MOL0     C37728   9.181   9.305   2.067 -0.6120 -0.6647  0.2448
 1021MOL0     C37729   9.288   9.406   2.018 -0.4230 -0.9099  0.4870
 1021MOL0     O37730   9.257   9.544   2.029 -0.5047 -0.0186  0.0196
 1021MOL0     C37731   9.368   9.625   2.024 -0.1972 -0.4143 -0.2855
 1021MOL0     C37732   9.435   9.639   1.906 -0.5881 -0.1655 -0.7449
 1021MOL0     C37733   9.561   9.699   1.892  0.3726 -0.2046  0.0705
 1021MOL0     C37734   9.617   9.764   2.004  0.5593  0.0313 -0.1990
 1021MOL0     O37735   9.740   9.822   2.000  0.0160 -0.5473  0.6731
 1021MOL0     C37736   9.767   9.939   2.079 -0.6657  0.1574  0.1666
 1021MOL0     C37737   9.879  10.033   2.033  0.3359 -0.0158  0.2941
 1021MOL0     C37738   9.993  10.027   2.126 -0.4173  0.4762  0.2412
 1021MOL0     C37739  10.112  10.099   2.049  0.1327 -0.0223  0.5639
 1021MOL0     C37740  10.254  10.069   2.100  0.1142  0.7874  0.2156
 1021MOL0     C37741  10.355  10.146   2.022 -0.2315 -0.6056 -0.7406
 1021MOL0     C37742  10.503  10.108   2.039 -0.9910  0.0618 -0.5581
 1021MOL0     C37743  10.554  10.116   2.185  0.3255 -0.1266  0.8903
 1021MOL0    Cl37744  10.729  10.116   2.186  0.3370 -0.1533 -0.2447
 1021MOL0     C37745   9.544   9.751   2.129 -1.3207  0.5869  0.3401
 1021MOL0     C37746   9.418   9.680   2.138  0.4576 -0.6654  0.2003
 1021MOL0     O37747   9.396   9.359   1.975 -0.0508  1.1035 -0.8319
 1021MOL0     C37748   9.225   9.182   2.125 -0.7364  0.1964  0.4398
 1021MOL0     C37749   9.131   9.097   2.195  0.0958  0.7165 -0.4408
 1021MOL0     N37750   8.324   8.872   2.087  0.5946 -0.0915  0.6453
 1021MOL0     N37751   8.200   8.839   2.071  0.3312  1.4722 -1.0270
 1021MOL0     C37752   7.047   8.856   2.655 -0.2529 -0.3706  0.3355
 1021MOL0     C37753   6.937   8.886   2.733  1.6195 -0.1703 -0.1347
 1021MOL0     C37754   6.507   8.990   2.802  1.0151  0.4514 -1.1311
 1021MOL0     C37755   6.442   8.888   2.883  0.3491 -0.7012 -0.1375
 1021MOL0     C37756   6.308   8.909   2.923 -0.4993  0.0983  0.3390
 1021MOL0     C37757   6.232   9.017   2.884 -0.2150 -0.2434  0.2377
 1021MOL0     O37758   6.107   9.029   2.939  0.2924 -0.0165  0.4289
 1021MOL0     C37759   6.017   9.123   2.876 -1.0428  0.0409 -0.3195
 1021MOL0     C37760   5.883   9.098   2.953  0.1643  0.4048  0.6104
 1021MOL0     C37761   5.764   9.189   2.910 -0.5289 -0.9435 -0.1929
 1021MOL0     C37762   5.622   9.136   2.899 -0.3269 -0.2055  0.3898
 1021MOL0     C37763   5.600   9.044   2.788 -0.6325 -0.0119  0.4768
 1021MOL0     C37764   5.588   8.963   2.698  0.5092 -0.1616 -0.2936
 1021MOL0     C37765   6.294   9.107   2.806 -0.4240  0.2170  0.3651
 1021MOL0     C37766   6.431   9.109   2.770 -0.1750  1.6579 -0.3229
 1021MOL0     C37767   6.493   9.223   2.704  0.6484  0.1708  0.1055
 1021MOL0     H37768   6.720   8.638   2.647 -1.5711  2.6541 -0.4499
 1021MOL0     H37769   6.936   8.564   2.516 -0.3343 -0.7191 -0.2596
 1021MOL0     H37770   7.261   8.883   2.466  1.9811 -0.4688 -3.5097
 1021MOL0     H37771   7.308   8.774   2.607  1.6295  1.5988 -0.7946
 1021MOL0     H37772   7.334   8.756   2.310 -1.3897  0.9408  0.7030
 1021MOL0     H37773   7.350   8.609   2.407 -3.8937  0.0156  0.6100
 1021MOL0     H37774   7.518   8.728   2.551 -0.1902  1.2624  0.3544
 1021MOL0     H37775   7.539   8.862   2.434 -2.8419  0.6359  2.0064
 1021MOL0     H37776   7.613   8.569   2.381  2.2107  0.4289  1.4574
 1021MOL0     H37777   7.580   8.684   2.255  0.2465  0.7131  0.5496
 1021MOL0     H37778   7.750   8.824   2.314 -1.7719 -0.0308  0.5685
 1021MOL0     H37779   7.769   8.754   2.480 -2.0279  1.2789  0.2482
 1021MOL0     H37780   7.860   8.541   2.352  0.3637  0.7164  0.3986
 1021MOL0     H37781   7.808   8.618   2.206  0.3655 -2.7701  0.5826
 1021MOL0     H37782   8.062   8.634   2.271  1.0868  1.0696 -1.7015
 1021MOL0     H37783   8.027   8.739   2.397  1.8179  2.5187 -1.2137
 1021MOL0     H37784   7.936   8.811   2.118 -0.3335  0.1479 -0.7454
 1021MOL0     H37785   7.956   8.916   2.258  1.3446  0.1459 -0.3125
 1021MOL0     H37786   8.219   8.912   2.384  0.1758  1.8973 -1.2249
 1021MOL0     H37787   8.488   9.073   2.239 -2.5261 -0.1805 -0.0225
 1021MOL0     H37788   8.460   8.982   2.380  0.8053 -2.1130  0.4176
 1021MOL0     H37789   8.544   8.773   2.277 -3.5175  0.4967 -0.3483
 1021MOL0     H37790   8.595   8.840   2.131  2.7623 -2.6371  1.0455
 1021MOL0     H37791   8.792   8.812   2.259 -0.1283 -1.4091  1.7871
 1021MOL0     H37792   8.733   8.900   2.396  0.4211 -0.6186  0.1181
 1021MOL0     H37793   8.732   9.110   2.236  3.4568  1.8588 -0.7652
 1021MOL0     H37794   8.796   8.989   2.109  1.5828  2.4909 -0.4630
 1021MOL0     H37795   8.857   9.299   2.174  1.0278  1.3466  2.5089
 1021MOL0     H37796   9.022   9.438   2.053 -1.0743 -1.1920 -0.3208
 1021MOL0     H37797   9.396   9.578   1.825 -0.9756 -1.3342  0.2836
 1021MOL0     H37798   9.614   9.690   1.798 -2.4751 -1.3606 -1.5583
 1021MOL0     H37799   9.680  10.003   2.096 -1.1269 -0.7113  1.1647
 1021MOL0     H37800   9.798   9.902   2.177 -0.1334  1.1320  0.3804
 1021MOL0     H37801   9.902  10.022   1.926 -0.8653  0.0241  0.0122
 1021MOL0     H37802   9.855  10.139   2.042  0.9504  0.0641  1.0623
 1021MOL0     H37803   9.986  10.072   2.226 -0.1732  0.3847  0.3024
 1021MOL0     H37804  10.014   9.921   2.145 -0.9493  0.3787  0.2905
 1021MOL0     H37805  10.099  10.207   2.047 -0.0014 -0.0397 -0.7294
 1021MOL0     H37806  10.119  10.069   1.944 -0.1779  0.7286  0.3271
 1021MOL0     H37807  10.260   9.960   2.091  0.8837  0.7239  1.3983
 1021MOL0     H37808  10.265  10.083   2.208  2.2897  1.0329  0.0066
 1021MOL0     H37809  10.337  10.152   1.914  0.4593 -0.0723 -0.8330
 1021MOL0     H37810  10.346  10.253   2.043  1.1847 -0.6869  0.4878
 1021MOL0     H37811  10.554  10.195   1.996 -1.2396  2.0567  2.8350
 1021MOL0     H37812  10.531  10.019   1.982  1.0296  0.3814 -0.1402
 1021MOL0     H37813  10.514  10.211   2.221 -0.2984 -0.8552  2.2007
 1021MOL0     H37814  10.509  10.042   2.252  1.6596 -2.8353 -1.0463
 1021MOL0     H37815   9.581   9.795   2.221 -0.6998  0.9375 -0.0686
 1021MOL0     H37816   9.367   9.659   2.232 -1.8027  1.8227 -0.3543
 1021MOL0     H37817   9.327   9.149   2.109  0.3328  2.9100  1.1407
 1021MOL0     H37818   9.168   9.002   2.232 -3.7591 -0.1452  1.7376
 1021MOL0     H37819   7.138   8.916   2.650 -0.5549  0.0453 -0.2358
 1021MOL0     H37820   6.941   8.975   2.795 -0.1054  2.3389 -3.3248
 1021MOL0     H37821   6.494   8.803   2.926  0.3413 -0.6074  0.0580
 1021MOL0     H37822   6.273   8.830   2.989  0.9089 -0.5075  0.3916
 1021MOL0     H37823   6.004   9.094   2.771  0.0052 -0.3773 -0.3408
 1021MOL0     H37824   6.047   9.228   2.872 -2.0090  0.2914 -2.3795
 1021MOL0     H37825   5.900   9.115   3.059  3.3117  0.7482  0.1441
 1021MOL0     H37826   5.859   8.991   2.946  0.4749  0.4057 -0.8409
 1021MOL0     H37827   5.793   9.238   2.816  2.6028 -1.5300  0.3577
 1021MOL0     H37828   5.762   9.255   2.997 -1.8192 -4.2634  2.5102
 1021MOL0     H37829   5.591   9.085   2.991 -0.5662 -0.9701 -0.0991
 1021MOL0     H37830   5.568   9.228   2.879 -1.6690 -1.0984 -0.2184
 1021MOL0     H37831   5.575   8.900   2.612 -0.3100  0.9646 -1.0239
 1021MOL0     H37832   6.236   9.186   2.760 -1.6263 -2.0474 -2.2869
 1021MOL0     H37833   6.433   9.313   2.721  1.3749  0.9106 -1.0966
 1021MOL0     H37834   6.589   9.252   2.747 -0.9384 -0.6092  4.7359
 1021MOL0     H37835   6.502   9.212   2.595 -0.9094  4.8410 -0.7267
 1022MOL0     O37836   5.551   1.594   4.685 -0.5225 -0.0222 -0.7246
 1022MOL0     C37837   5.471   1.640   4.766 -0.2572 -0.4910 -0.9958
 1022MOL0     O37838   5.500   1.682   4.898 -0.4074  0.5000 -0.3133
 1022MOL0     C37839   5.627   1.649   4.940 -0.5223  0.2299 -0.4310
 1022MOL0     C37840   5.651   1.518   4.984  0.2100 -0.3372 -0.7873
 1022MOL0     C37841   5.772   1.481   5.043  0.2585 -0.7421  0.0318
 1022MOL0     C37842   5.875   1.573   5.059 -0.1918  0.3536  0.0460
 1022MOL0     O37843   5.992   1.526   5.116  0.6048  0.3274  0.0684
 1022MOL0     C37844   6.120   1.552   5.054 -0.0601  0.1371 -0.2060
 1022MOL0     C37845   6.168   1.425   4.965  0.3965 -0.4937 -0.4007
 1022MOL0     C37846   6.319   1.410   4.972 -0.0293  0.1119 -0.0141
 1022MOL0     C37847   6.390   1.524   4.902  0.0748  0.5816  0.5566
 1022MOL0     C37848   6.540   1.484   4.891  0.9446  0.2010  0.8944
 1022MOL0     C37849   6.638   1.587   4.836 -0.5058 -0.3550 -0.4280
 1022MOL0     C37850   6.779   1.550   4.837  0.0312 -0.5775 -0.1398
 1022MOL0     C37851   6.863   1.670   4.789 -0.4825  0.1645 -0.8832
 1022MOL0     N37852   7.008   1.641   4.782  1.0923 -0.9542 -0.3038
 1022MOL0     C37853   7.079   1.665   4.667  0.1856  0.3517  0.2252
 1022MOL0     C37854   7.209   1.627   4.702  0.4923  0.0687 -0.0978
 1022MOL0     C37855   7.319   1.611   4.611 -0.0300  0.3358 -0.3551
 1022MOL0     C37856   7.435   1.708   4.639  0.6319  0.6795  0.1358
 1022MOL0     C37857   7.511   1.692   4.765 -0.4607  0.1438  0.4368
 1022MOL0     C37858   7.643   1.757   4.756  0.2449  0.0074  0.0834
 1022MOL0     O37859   7.739   1.704   4.664  0.0162 -0.4271  0.0051
 1022MOL0     C37860   7.841   1.626   4.726  0.1168  0.2610  0.4935
 1022MOL0     C37861   7.967   1.641   4.661 -0.9013 -0.0144 -0.7533
 1022MOL0     C37862   8.084   1.578   4.710  0.6188 -0.0346  1.0741
 1022MOL0     C37863   8.079   1.489   4.817 -0.4724  0.8445  0.5625
 1022MOL0     C37864   8.199   1.411   4.863  0.7288 -0.6575  0.1742
 1022MOL0     O37865   8.315   1.441   4.796  0.7137 -0.0557  0.4248
 1022MOL0     C37866   8.424   1.358   4.818 -0.0214  0.0785  0.1538
 1022MOL0     C37867   8.442   1.241   4.744  0.1931  0.2845  1.1657
 1022MOL0     C37868   8.549   1.163   4.770 -0.6366  0.7777  0.6726
 1022MOL0     C37869   8.650   1.201   4.863  0.1296 -0.1212 -0.6593
 1022MOL0     O37870   8.759   1.122   4.892 -0.0563  1.1515 -0.1722
 1022MOL0     C37871   8.767   1.032   5.010 -0.1475 -0.4650  1.3468
 1022MOL0     C37872   8.846   0.907   4.970 -0.2407  0.7835  0.0832
 1022MOL0     C37873   8.999   0.958   4.964 -0.6584  0.8403  0.1839
 1022MOL0     C37874   9.103   0.860   4.913  0.2408 -0.0820  0.2786
 1022MOL0     C37875   9.242   0.918   4.913  0.1505 -0.8140 -0.5677
 1022MOL0     C37876   9.352   0.833   4.864  0.6176  0.2539  0.5427
 1022MOL0     C37877   9.488   0.895   4.842 -0.4949 -0.7149  0.0197
 1022MOL0     C37878   9.590   0.794   4.784 -0.1516  0.0282 -0.3859
 1022MOL0    Cl37879   9.760   0.829   4.827  0.0518  0.2159  0.2425
 1022MOL0     C37880   8.634   1.318   4.935  0.1162  0.1986 -0.2742
 1022MOL0     C37881   8.519   1.397   4.915  0.2119  0.0452 -0.0266
 1022MOL0     O37882   8.190   1.320   4.946  0.0565  0.5195 -0.0119
 1022MOL0     C37883   7.953   1.467   4.875  0.8568  0.2009  0.3764
 1022MOL0     C37884   7.838   1.533   4.824  0.2309 -0.1969 -0.2181
 1022MOL0     N37885   7.212   1.594   4.838  0.4702 -0.0598  0.0645
 1022MOL0     N37886   7.087   1.594   4.883  0.5206  0.2852 -0.2578
 1022MOL0     C37887   5.855   1.711   5.021  0.6613  0.2033 -0.1016
 1022MOL0     C37888   5.728   1.741   4.965 -0.5039  0.0214  0.3112
 1022MOL0     C37889   5.328   1.649   4.728 -0.2156  0.0688 -0.5334
 1022MOL0     C37890   5.236   1.663   4.840  0.4275 -0.8471  0.8560
 1022MOL0     C37891   5.100   1.674   4.814  0.6727  0.1554 -0.0712
 1022MOL0     C37892   5.046   1.686   4.690 -0.0650 -0.2668  0.0928
 1022MOL0     O37893   4.910   1.700   4.689 -0.4077 -0.0059  0.1288
 1022MOL0     C37894   4.844   1.688   4.566 -0.0205 -0.4971  0.4090
 1022MOL0     C37895   4.781   1.556   4.540 -0.1570  0.6500  0.4039
 1022MOL0     C37896   4.644   1.568   4.464 -0.3761 -0.4972 -0.2502
 1022MOL0     C37897   4.573   1.436   4.465 -0.6416  0.0719  1.0159
 1022MOL0     C37898   4.531   1.397   4.603  0.2601 -0.1234 -0.0534
 1022MOL0     C37899   4.487   1.357   4.708 -0.4935 -0.1745  0.2665
 1022MOL0     C37900   5.132   1.662   4.583  0.2433  0.5257  1.1454
 1022MOL0     C37901   5.276   1.655   4.598 -0.1462 -0.4153 -0.0947
 1022MOL0     C37902   5.356   1.660   4.470 -0.0011 -0.1302 -0.5834
 1022MOL0     H37903   5.564   1.453   4.978  0.8354 -1.1336 -1.3433
 1022MOL0     H37904   5.806   1.382   5.070 -2.0839 -1.1723  1.6429
 1022MOL0     H37905   6.137   1.643   4.996  0.6896 -0.7773 -1.4799
 1022MOL0     H37906   6.190   1.568   5.136 -0.2626  2.2894 -0.3989
 1022MOL0     H37907   6.130   1.446   4.865  0.7374 -1.3653 -0.7226
 1022MOL0     H37908   6.117   1.336   5.005  0.4374 -0.4772 -0.3100
 1022MOL0     H37909   6.341   1.314   4.924  3.8106  0.9846 -0.2681
 1022MOL0     H37910   6.350   1.402   5.077  2.8941 -1.2921 -0.8789
 1022MOL0     H37911   6.359   1.532   4.797  1.9042 -1.3489 -0.2168
 1022MOL0     H37912   6.379   1.621   4.952 -3.4162  0.9514 -0.6895
 1022MOL0     H37913   6.561   1.469   4.997 -3.2164  3.2150  2.4482
 1022MOL0     H37914   6.562   1.387   4.845 -0.5856  0.0651  0.3972
 1022MOL0     H37915   6.603   1.594   4.732 -2.3787 -1.9065  0.0307
 1022MOL0     H37916   6.623   1.682   4.888 -1.1333 -1.9079  2.3986
 1022MOL0     H37917   6.788   1.473   4.760 -1.8840 -0.5343 -0.4602
 1022MOL0     H37918   6.816   1.514   4.933  2.3944  0.1105 -0.7276
 1022MOL0     H37919   6.825   1.705   4.693 -1.6569 -1.3905 -1.0201
 1022MOL0     H37920   6.847   1.759   4.851  2.2920 -0.4622  0.9294
 1022MOL0     H37921   7.043   1.703   4.572 -0.5695  2.3471  1.2498
 1022MOL0     H37922   7.355   1.508   4.625 -2.1885 -0.3181  0.8780
 1022MOL0     H37923   7.295   1.621   4.505  3.0194 -3.6355 -1.6736
 1022MOL0     H37924   7.504   1.707   4.553  1.8229  0.9581  1.0614
 1022MOL0     H37925   7.386   1.806   4.641 -2.6275 -0.7873 -1.0672
 1022MOL0     H37926   7.514   1.589   4.803  0.1036  0.8412  2.3430
 1022MOL0     H37927   7.468   1.745   4.850  2.4235  2.3142  0.6797
 1022MOL0     H37928   7.681   1.783   4.855  3.0449 -3.4679  0.0943
 1022MOL0     H37929   7.627   1.853   4.706  2.2865 -0.2369 -1.1379
 1022MOL0     H37930   7.974   1.714   4.581 -1.3171 -0.3112 -1.0657
 1022MOL0     H37931   8.176   1.602   4.659  0.9858  1.1943  2.2579
 1022MOL0     H37932   8.372   1.212   4.667 -2.2793  1.9227  2.6451
 1022MOL0     H37933   8.559   1.069   4.715  1.1206  2.6676 -2.5720
 1022MOL0     H37934   8.804   1.085   5.098 -1.1978  0.1563  1.4315
 1022MOL0     H37935   8.666   0.995   5.030 -0.6503  1.1754  2.0598
 1022MOL0     H37936   8.830   0.832   5.048  0.8506  0.0214 -0.3805
 1022MOL0     H37937   8.815   0.863   4.875 -0.1506  0.1859  0.3206
 1022MOL0     H37938   9.009   1.039   4.891  0.2939 -0.7209 -1.4958
 1022MOL0     H37939   9.018   0.991   5.067 -0.0448  1.8597 -0.2444
 1022MOL0     H37940   9.077   0.838   4.809 -1.1946  1.0169  0.3761
 1022MOL0     H37941   9.093   0.763   4.961 -0.3480  0.9892  2.4689
 1022MOL0     H37942   9.260   0.950   5.016 -3.3262  0.7154 -0.3134
 1022MOL0     H37943   9.243   1.011   4.856  1.1598 -0.3483  0.1886
 1022MOL0     H37944   9.359   0.747   4.931  1.0061  1.1348  1.6620
 1022MOL0     H37945   9.321   0.786   4.770  1.3544 -0.2962  0.5618
 1022MOL0     H37946   9.524   0.941   4.934  0.1126  1.5002 -1.2404
 1022MOL0     H37947   9.478   0.976   4.768 -2.6536 -0.8906  0.0429
 1022MOL0     H37948   9.562   0.696   4.826  0.0940 -0.1861 -0.7159
 1022MOL0     H37949   9.561   0.788   4.679 -1.4252 -0.6205 -0.0127
 1022MOL0     H37950   8.712   1.351   5.003  1.1465 -1.2241 -0.7295
 1022MOL0     H37951   8.509   1.486   4.976  3.3326 -1.8542  3.6240
 1022MOL0     H37952   7.943   1.386   4.947  7.3183  0.0432  1.7241
 1022MOL0     H37953   7.745   1.493   4.863  1.5494 -3.1414  0.1871
 1022MOL0     H37954   5.937   1.781   5.037 -1.3797  3.2648 -1.8711
 1022MOL0     H37955   5.701   1.846   4.954  0.2962  0.1251 -0.8353
 1022MOL0     H37956   5.250   1.660   4.948  1.3496 -1.9022  0.7183
 1022MOL0     H37957   5.034   1.701   4.896  1.1197  0.6612  0.1306
 1022MOL0     H37958   4.895   1.713   4.472 -0.6205 -1.7766 -0.2789
 1022MOL0     H37959   4.763   1.758   4.589 -0.9178 -1.6099  0.7121
 1022MOL0     H37960   4.780   1.510   4.639  0.0507  0.6205  0.3940
 1022MOL0     H37961   4.849   1.503   4.471 -0.7116  0.7413 -0.2222
 1022MOL0     H37962   4.657   1.604   4.362  1.1137  0.1031  0.1208
 1022MOL0     H37963   4.575   1.638   4.512 -1.8805 -2.0244 -0.1139
 1022MOL0     H37964   4.482   1.448   4.405  1.8327  0.6797 -3.0034
 1022MOL0     H37965   4.630   1.357   4.415 -1.6552  0.9990 -1.8761
 1022MOL0     H37966   4.449   1.317   4.799  0.7932  1.3150  1.4999
 1022MOL0     H37967   5.102   1.640   4.481 -1.4011  3.4422  0.8674
 1022MOL0     H37968   5.403   1.758   4.461 -1.4379  0.4908 -1.7982
 1022MOL0     H37969   5.424   1.574   4.470  0.0693 -0.1251 -2.5113
 1022MOL0     H37970   5.288   1.646   4.385 -1.3704 -2.8462  0.8505
 1023MOL0     O37971   5.564   0.456   1.787 -0.2110 -0.3510  0.1118
 1023MOL0     C37972   5.549   0.504   1.676 -0.5950 -0.9228 -0.4876
 1023MOL0     O37973   5.645   0.497   1.579  0.4738 -0.6609 -0.7958
 1023MOL0     C37974   5.762   0.441   1.607 -0.6296  0.6385 -0.2018
 1023MOL0     C37975   5.869   0.512   1.663 -0.1164 -0.6289 -0.3696
 1023MOL0     C37976   5.994   0.444   1.684 -0.9777 -0.3568  0.0378
 1023MOL0     C37977   6.005   0.305   1.645 -0.3564  0.5421  0.1481
 1023MOL0     O37978   6.120   0.227   1.660  0.0245 -0.5824 -0.3095
 1023MOL0     C37979   6.215   0.272   1.761 -0.4696 -0.7584 -0.0566
 1023MOL0     C37980   6.322   0.167   1.771 -1.5518 -0.4922 -0.2239
 1023MOL0     C37981   6.444   0.222   1.854  0.4268 -0.3756 -0.2623
 1023MOL0     C37982   6.539   0.115   1.896 -0.6035  0.3408 -0.1670
 1023MOL0     C37983   6.656   0.179   1.975  0.0330  0.6426  0.1233
 1023MOL0     C37984   6.760   0.075   2.013  0.6058  1.0904  0.8518
 1023MOL0     C37985   6.713   0.014   2.148  0.4361  0.2942 -0.1963
 1023MOL0     C37986   6.796  -0.109   2.203 -0.0361  0.3584 -0.8268
 1023MOL0     N37987   6.945  -0.091   2.208 -0.0111 -0.1540 -0.3766
 1023MOL0     C37988   7.011   0.003   2.289 -0.0284  0.2244  0.1895
 1023MOL0     C37989   7.144  -0.013   2.264 -0.0229  0.6287 -0.0578
 1023MOL0     C37990   7.268   0.047   2.333  0.5430 -1.4504  0.0556
 1023MOL0     C37991   7.393  -0.033   2.318 -0.2583  0.0968  0.7258
 1023MOL0     C37992   7.411  -0.147   2.413  1.0986 -0.6381  0.0053
 1023MOL0     C37993   7.527  -0.234   2.382  0.4333 -1.1254  0.0131
 1023MOL0     O37994   7.639  -0.152   2.338  0.4832 -0.1785  0.3551
 1023MOL0     C37995   7.755  -0.224   2.344  0.6808  0.4086 -0.0010
 1023MOL0     C37996   7.855  -0.182   2.424  0.2134 -0.5941 -0.3115
 1023MOL0     C37997   7.973  -0.259   2.427  0.1914  0.2533  0.2588
 1023MOL0     C37998   7.994  -0.374   2.348  0.2639  0.0578  0.2702
 1023MOL0     C37999   8.122  -0.442   2.341 -0.3881 -0.5719 -0.6962
 1023MOL0     O38000   8.121  -0.578   2.343  0.0308  0.1274 -0.2204
 1023MOL0     C38001   8.248  -0.634   2.311  0.2721 -0.4217 -0.2570
 1023MOL0     C38002   8.276  -0.677   2.185 -0.4129 -0.0889  0.1241
 1023MOL0     C38003   8.404  -0.724   2.159  0.4151 -0.3044  0.2891
 1023MOL0     C38004   8.501  -0.730   2.257  0.7521  0.0522 -0.2992
 1023MOL0     O38005   8.628  -0.748   2.200  0.6038 -0.1027  0.1484
 1023MOL0     C38006   8.735  -0.688   2.282 -0.3456 -0.4097 -0.2211
 1023MOL0     C38007   8.879  -0.684   2.217 -0.2456 -0.1915 -0.4543
 1023MOL0     C38008   8.938  -0.820   2.182  1.1495 -0.1142  0.2841
 1023MOL0     C38009   9.091  -0.797   2.150  0.3227  0.0923 -0.6634
 1023MOL0     C38010   9.141  -0.695   2.037  0.4584  0.9773 -0.5888
 1023MOL0     C38011   9.073  -0.718   1.905 -0.1796 -0.3853  0.2815
 1023MOL0     C38012   9.156  -0.668   1.784  0.6685  0.1855 -1.0621
 1023MOL0     C38013   9.210  -0.529   1.804  0.2173  0.6356  1.1332
 1023MOL0    Cl38014   9.087  -0.410   1.857 -0.4099 -0.2705  0.0809
 1023MOL0     C38015   8.468  -0.698   2.391 -0.6522 -0.1343  0.3448
 1023MOL0     C38016   8.341  -0.654   2.415 -0.5024 -0.1884 -0.5881
 1023MOL0     O38017   8.222  -0.367   2.336  0.3650 -0.5426 -0.4796
 1023MOL0     C38018   7.883  -0.419   2.272  0.5307 -0.2598  0.0523
 1023MOL0     C38019   7.770  -0.339   2.259 -0.3678 -0.5065  0.6347
 1023MOL0     N38020   7.154  -0.099   2.155  0.4035  0.3562 -0.7096
 1023MOL0     N38021   7.036  -0.141   2.124 -0.6314  0.1747  0.5376
 1023MOL0     C38022   5.900   0.243   1.574  0.1452 -0.4054  0.5320
 1023MOL0     C38023   5.781   0.311   1.565 -0.1159  0.1829  0.2751
 1023MOL0     C38024   5.416   0.562   1.646  0.7225  0.0831 -0.2465
 1023MOL0     C38025   5.408   0.650   1.535  0.5407 -0.0028 -0.1253
 1023MOL0     C38026   5.291   0.707   1.495  0.3021 -0.0138 -0.0648
 1023MOL0     C38027   5.176   0.693   1.581  0.4756 -0.5976 -0.1855
 1023MOL0     O38028   5.071   0.761   1.528  0.0050 -0.0428  0.3597
 1023MOL0     C38029   4.950   0.762   1.603 -0.3007 -0.3533  0.3116
 1023MOL0     C38030   4.960   0.877   1.702 -0.7723  0.3248 -0.4723
 1023MOL0     C38031   4.837   0.925   1.783  0.0523 -0.8062 -0.3100
 1023MOL0     C38032   4.867   1.042   1.882 -0.2800 -0.3777 -0.3314
 1023MOL0     C38033   4.837   1.186   1.835  0.3470  0.2009 -0.0706
 1023MOL0     C38034   4.781   1.281   1.796 -0.4232 -0.9992 -0.2644
 1023MOL0     C38035   5.177   0.599   1.683  0.3434  0.2821 -0.3553
 1023MOL0     C38036   5.298   0.538   1.727 -0.2940  0.0814  0.4104
 1023MOL0     C38037   5.282   0.437   1.840 -0.0749 -0.2453 -0.3988
 1023MOL0     H38038   5.862   0.618   1.686 -0.6060 -0.6572 -0.3645
 1023MOL0     H38039   6.079   0.494   1.727 -1.0391 -1.4914  1.5374
 1023MOL0     H38040   6.266   0.359   1.718  0.2743 -1.2460 -0.1633
 1023MOL0     H38041   6.169   0.291   1.859 -1.0610  0.8384 -0.5976
 1023MOL0     H38042   6.372   0.152   1.675  2.0937  1.8417  1.0997
 1023MOL0     H38043   6.292   0.072   1.817  1.8386 -1.9484 -0.7072
 1023MOL0     H38044   6.403   0.281   1.937 -4.2737  4.0306 -4.9554
 1023MOL0     H38045   6.503   0.287   1.788  1.1753  0.2655  1.0033
 1023MOL0     H38046   6.491   0.039   1.957  0.5831 -1.2966 -1.1766
 1023MOL0     H38047   6.582   0.055   1.815 -0.8445  1.0452 -0.8385
 1023MOL0     H38048   6.701   0.256   1.911  0.3827  0.0174 -0.3967
 1023MOL0     H38049   6.611   0.220   2.066 -1.5667 -2.2770  0.7791
 1023MOL0     H38050   6.773   0.004   1.930 -3.0838  1.5076 -0.2508
 1023MOL0     H38051   6.858   0.121   2.029  1.3025  0.4241 -1.2042
 1023MOL0     H38052   6.612  -0.023   2.126 -0.1270 -0.2026  2.8135
 1023MOL0     H38053   6.703   0.083   2.232  1.7375 -0.6355  0.7417
 1023MOL0     H38054   6.757  -0.131   2.303 -1.1441  2.4763 -0.7415
 1023MOL0     H38055   6.776  -0.196   2.141 -2.8767  0.7696 -0.5955
 1023MOL0     H38056   6.973   0.062   2.372 -1.1275 -1.6332  1.0984
 1023MOL0     H38057   7.270   0.152   2.303 -1.1427 -0.9758  1.3867
 1023MOL0     H38058   7.245   0.064   2.439  2.7119 -1.3955  0.5578
 1023MOL0     H38059   7.395  -0.070   2.216  2.1658  1.1497  0.3246
 1023MOL0     H38060   7.479   0.035   2.321 -0.6983  0.6613  0.7076
 1023MOL0     H38061   7.331  -0.219   2.432  1.2174 -0.5677  0.8451
 1023MOL0     H38062   7.417  -0.097   2.510 -1.6175 -2.9972  1.5504
 1023MOL0     H38063   7.503  -0.305   2.303  1.0097 -0.3517 -0.8882
 1023MOL0     H38064   7.538  -0.296   2.471 -3.9704 -1.5742  0.4326
 1023MOL0     H38065   7.850  -0.090   2.481 -0.9403 -1.7728  1.5875
 1023MOL0     H38066   8.041  -0.206   2.493 -1.2338  0.7519  1.4062
 1023MOL0     H38067   8.206  -0.674   2.103 -1.7268 -0.2621  1.2015
 1023MOL0     H38068   8.432  -0.777   2.068 -2.8038  0.9164 -1.5748
 1023MOL0     H38069   8.704  -0.587   2.310 -1.5531 -0.4055 -1.5220
 1023MOL0     H38070   8.746  -0.762   2.362 -2.2418  0.2031  0.6530
 1023MOL0     H38071   8.870  -0.617   2.132 -0.7979  1.6210  0.9533
 1023MOL0     H38072   8.948  -0.632   2.283  1.6780  0.9997 -3.2660
 1023MOL0     H38073   8.926  -0.886   2.269 -1.7714  0.7498  0.6353
 1023MOL0     H38074   8.884  -0.857   2.094 -0.0958 -0.1912  1.0605
 1023MOL0     H38075   9.131  -0.896   2.127  0.3288  0.1992 -1.1025
 1023MOL0     H38076   9.147  -0.766   2.239  1.5478  2.1732 -2.0634
 1023MOL0     H38077   9.249  -0.704   2.019  1.0280  1.0223  2.2229
 1023MOL0     H38078   9.111  -0.597   2.076  1.0570  1.5774 -1.5880
 1023MOL0     H38079   9.053  -0.825   1.892  1.9933 -1.3543  3.5205
 1023MOL0     H38080   8.979  -0.663   1.901  0.9135  1.5930 -4.4711
 1023MOL0     H38081   9.084  -0.662   1.702 -0.0895 -1.7288 -0.5986
 1023MOL0     H38082   9.228  -0.746   1.756 -0.4559 -1.4257  0.3009
 1023MOL0     H38083   9.302  -0.536   1.863  0.3320 -0.6556  0.8305
 1023MOL0     H38084   9.245  -0.501   1.705  1.5664  1.3960  1.7940
 1023MOL0     H38085   8.543  -0.715   2.467  0.2258  1.1682 -0.1978
 1023MOL0     H38086   8.308  -0.638   2.517 -1.5607 -0.9348 -0.8007
 1023MOL0     H38087   7.885  -0.506   2.207 -2.2323 -1.2732  1.1700
 1023MOL0     H38088   7.697  -0.374   2.187  0.0239 -0.7302  0.3354
 1023MOL0     H38089   5.903   0.143   1.532 -4.1618 -0.2278 -0.5967
 1023MOL0     H38090   5.704   0.265   1.504 -2.1063  1.1954  1.8784
 1023MOL0     H38091   5.502   0.663   1.481 -0.1777  1.4839 -1.0977
 1023MOL0     H38092   5.279   0.769   1.406  0.0841 -1.5331 -1.1196
 1023MOL0     H38093   4.919   0.667   1.647 -2.1642  0.0855  0.0763
 1023MOL0     H38094   4.863   0.791   1.543 -1.2923 -2.3120  0.7295
 1023MOL0     H38095   4.992   0.967   1.649  0.3018  0.8783  1.0445
 1023MOL0     H38096   5.035   0.836   1.770 -0.4153 -0.6844 -1.4466
 1023MOL0     H38097   4.810   0.842   1.850  1.2966 -2.2381 -1.5184
 1023MOL0     H38098   4.762   0.962   1.713  1.0219  1.1605 -0.3550
 1023MOL0     H38099   4.795   1.036   1.964 -2.3115  3.1165 -1.6412
 1023MOL0     H38100   4.972   1.038   1.914 -0.0911 -1.6770 -1.0226
 1023MOL0     H38101   4.746   1.370   1.747  2.0306 -1.0703 -2.3400
 1023MOL0     H38102   5.089   0.599   1.746 -0.8807  1.5066 -1.9559
 1023MOL0     H38103   5.360   0.465   1.911 -1.5757  4.1494 -0.2398
 1023MOL0     H38104   5.189   0.439   1.897  0.2620 -0.2616  0.1566
 1023MOL0     H38105   5.289   0.331   1.813  1.6770 -0.2802  0.0626
 1024MOL0     O38106  11.050   6.141   9.788 -0.5471  0.1178 -0.6710
 1024MOL0     C38107  11.019   6.257   9.760 -0.8449 -0.6592  0.4946
 1024MOL0     O38108  11.114   6.355   9.757  0.1213  0.0323  0.3582
 1024MOL0     C38109  11.250   6.315   9.763  0.1018  0.2641  0.3382
 1024MOL0     C38110  11.316   6.251   9.874  0.1273 -0.4035 -0.2431
 1024MOL0     C38111  11.454   6.237   9.879  0.1150  0.9211 -0.3332
 1024MOL0     C38112  11.531   6.266   9.770 -0.0066  0.9164 -0.1812
 1024MOL0     O38113  11.660   6.235   9.750 -0.0360  0.1177 -0.1725
 1024MOL0     C38114  11.737   6.205   9.869 -0.3978  0.4754  0.2623
 1024MOL0     C38115  11.874   6.159   9.796  0.4009  0.2513  0.8101
 1024MOL0     C38116  11.964   6.115   9.906 -0.0893 -0.4257 -0.0486
 1024MOL0     C38117  12.107   6.080   9.842  0.6620  0.0915 -0.3607
 1024MOL0     C38118  12.195   6.012   9.948 -0.7144 -0.3908 -0.2492
 1024MOL0     C38119  12.338   6.009   9.899 -0.5321  0.0722  0.1390
 1024MOL0     C38120  12.428   5.932  10.002 -0.4194  0.0953  0.6952
 1024MOL0     C38121  12.581   5.961   9.970  0.1180 -0.7208 -0.1055
 1024MOL0     N38122  12.657   5.950  10.085 -0.0171  0.4681  1.2172
 1024MOL0     C38123  12.778   5.878  10.092 -0.1170 -0.5062  0.5256
 1024MOL0     C38124  12.827   5.905  10.208  0.2459  0.0381 -0.7727
 1024MOL0     C38125  12.943   5.852  10.276  0.1134 -0.1853 -0.1792
 1024MOL0     C38126  13.045   5.950  10.312  0.3070  0.8351 -0.1403
 1024MOL0     C38127  13.177   5.869  10.339 -1.2440 -0.2560  0.0295
 1024MOL0     C38128  13.293   5.963  10.383  0.4302  0.1371  0.3903
 1024MOL0     O38129  13.418   5.895  10.420  0.3468 -0.1855  0.0754
 1024MOL0     C38130  13.505   5.942  10.515  1.0551  0.7424  0.0788
 1024MOL0     C38131  13.495   6.067  10.573  0.3153  0.9259 -0.5108
 1024MOL0     C38132  13.599   6.101  10.658  0.0464  0.1922 -0.0951
 1024MOL0     C38133  13.717   6.025  10.683  0.3627 -0.0087  0.5085
 1024MOL0     C38134  13.833   6.075  10.761 -0.5537 -0.7425 -0.8920
 1024MOL0     O38135  13.947   5.994  10.749  0.3475 -0.7635 -0.1827
 1024MOL0     C38136  14.070   6.044  10.759 -0.1534  0.0375  0.0244
 1024MOL0     C38137  14.115   6.167  10.709  0.6423 -0.6326 -0.5475
 1024MOL0     C38138  14.242   6.213  10.722 -0.3105  0.0304 -0.0656
 1024MOL0     C38139  14.343   6.142  10.784  0.5078 -0.3888 -0.2085
 1024MOL0     O38140  14.465   6.199  10.803 -0.1848 -0.4721 -0.5420
 1024MOL0     C38141  14.572   6.123  10.852 -0.4801 -0.6357 -0.1379
 1024MOL0     C38142  14.699   6.213  10.874  0.6272 -0.1707 -0.9564
 1024MOL0     C38143  14.808   6.144  10.946 -0.7474 -0.3014 -0.0292
 1024MOL0     C38144  14.928   6.229  10.994 -0.4306 -0.8154  1.6561
 1024MOL0     C38145  15.042   6.139  11.041  0.1046  0.5489 -0.6707
 1024MOL0     C38146  15.171   6.222  11.060  0.1834 -0.1371 -0.0061
 1024MOL0     C38147  15.273   6.131  11.124  0.4753  0.7426  0.1661
 1024MOL0     C38148  15.401   6.206  11.136 -1.2690 -0.2542 -0.1244
 1024MOL0    Cl38149  15.537   6.103  11.182  0.3194  0.0673 -1.1238
 1024MOL0     C38150  14.310   6.016  10.828  0.4593 -0.4653  0.1291
 1024MOL0     C38151  14.177   5.968  10.816  0.1919 -0.0277  0.3338
 1024MOL0     O38152  13.829   6.181  10.823 -0.3049  0.3499 -0.2582
 1024MOL0     C38153  13.726   5.910  10.611 -0.1469  0.7404  0.0840
 1024MOL0     C38154  13.621   5.864  10.526 -0.5839  0.2042 -0.0054
 1024MOL0     N38155  12.744   5.988  10.281 -0.1938 -0.4908  0.2619
 1024MOL0     N38156  12.650   6.021  10.205 -0.2094 -0.1733 -0.1188
 1024MOL0     C38157  11.475   6.320   9.658  1.0285  0.2300  0.2738
 1024MOL0     C38158  11.335   6.352   9.654  1.0380  0.8849  0.1841
 1024MOL0     C38159  10.877   6.288   9.765  0.2209  0.9183 -0.0608
 1024MOL0     C38160  10.778   6.181   9.740 -0.4809  0.0341  0.3024
 1024MOL0     C38161  10.653   6.205   9.728 -0.6332  0.2661  0.1276
 1024MOL0     C38162  10.594   6.335   9.725  0.3405  0.2623  0.4749
 1024MOL0     O38163  10.460   6.342   9.700 -0.3269 -0.1184 -0.3680
 1024MOL0     C38164  10.433   6.379   9.562 -0.1699 -0.0025 -0.2847
 1024MOL0     C38165  10.320   6.479   9.559  0.0880 -0.2256 -0.6044
 1024MOL0     C38166  10.288   6.490   9.401  0.2544 -0.0289 -0.6146
 1024MOL0     C38167  10.166   6.584   9.375 -1.3719  0.3960 -0.2871
 1024MOL0     C38168  10.037   6.554   9.449 -0.1762  0.0493 -0.4362
 1024MOL0     C38169   9.925   6.538   9.494 -0.0156 -0.4239  0.7317
 1024MOL0     C38170  10.683   6.435   9.756  0.5063  0.0312  0.7762
 1024MOL0     C38171  10.820   6.410   9.778 -0.1518  0.2483 -0.6054
 1024MOL0     C38172  10.894   6.533   9.806  0.6484  0.1206  0.2360
 1024MOL0     H38173  11.265   6.198   9.954 -2.8045  0.2322 -1.5341
 1024MOL0     H38174  11.498   6.183   9.962  1.6693  1.7058 -0.6187
 1024MOL0     H38175  11.753   6.302   9.917 -1.8740 -1.3143  4.9537
 1024MOL0     H38176  11.696   6.123   9.929  1.0833 -0.3593  0.1799
 1024MOL0     H38177  11.923   6.245   9.749  0.8773 -1.0778 -1.2716
 1024MOL0     H38178  11.869   6.087   9.714  0.5878  1.8965 -0.7001
 1024MOL0     H38179  11.914   6.035   9.962 -1.8941  0.1208 -0.8191
 1024MOL0     H38180  11.974   6.194   9.981  1.4449 -0.8077  0.2029
 1024MOL0     H38181  12.092   6.012   9.758  3.0657 -1.1008  0.0929
 1024MOL0     H38182  12.159   6.167   9.800  2.5351 -0.4968  0.6386
 1024MOL0     H38183  12.191   6.070  10.041  0.1045  0.5090 -0.7589
 1024MOL0     H38184  12.150   5.916   9.974 -0.1095 -1.2883 -2.2681
 1024MOL0     H38185  12.349   5.953   9.805 -0.8396 -1.0825  0.7714
 1024MOL0     H38186  12.376   6.111   9.893 -2.2579  0.7799  0.8098
 1024MOL0     H38187  12.415   5.824  10.007  2.3777 -0.2599  2.1310
 1024MOL0     H38188  12.395   5.964  10.101 -0.1618 -4.0964  2.3052
 1024MOL0     H38189  12.631   5.908   9.889  2.1981  1.1829 -0.1676
 1024MOL0     H38190  12.594   6.066   9.940  1.1261  0.0933  2.8310
 1024MOL0     H38191  12.817   5.801  10.026  2.1250 -1.1207  2.4308
 1024MOL0     H38192  12.929   5.792  10.366  3.7729 -0.7329  0.1852
 1024MOL0     H38193  12.981   5.783  10.200 -2.3566 -0.9565 -0.8147
 1024MOL0     H38194  13.068   6.015  10.226  3.7421  2.0307  1.4645
 1024MOL0     H38195  13.008   6.003  10.400  3.1447  0.0809  1.6540
 1024MOL0     H38196  13.208   5.818  10.247 -0.4814 -2.8748  1.6313
 1024MOL0     H38197  13.164   5.787  10.411  1.3432 -2.1017 -1.4261
 1024MOL0     H38198  13.258   6.011  10.475  0.5224  2.1845 -0.5974
 1024MOL0     H38199  13.313   6.047  10.316 -2.8417  1.7690  1.2765
 1024MOL0     H38200  13.411   6.135  10.562 -0.3628 -0.1662 -2.4624
 1024MOL0     H38201  13.577   6.198  10.703 -2.5641  0.2336 -1.2731
 1024MOL0     H38202  14.035   6.219  10.657 -0.7161 -0.6242  1.4449
 1024MOL0     H38203  14.270   6.311  10.686  1.2398 -0.4523 -0.2640
 1024MOL0     H38204  14.556   6.086  10.954 -1.7944  0.8768  0.2475
 1024MOL0     H38205  14.591   6.038  10.785 -2.0333 -2.7794  1.9296
 1024MOL0     H38206  14.724   6.247  10.773  0.7885  1.7883 -0.2968
 1024MOL0     H38207  14.651   6.295  10.928 -3.5841 -0.7550 -3.3482
 1024MOL0     H38208  14.772   6.096  11.038  0.3384  1.5404  1.4211
 1024MOL0     H38209  14.844   6.063  10.882 -0.4564  0.3515 -0.6987
 1024MOL0     H38210  14.896   6.292  11.077  2.7795 -0.3893  2.6970
 1024MOL0     H38211  14.965   6.282  10.906  0.2730 -3.6401  0.1288
 1024MOL0     H38212  15.052   6.058  10.968 -1.0349 -0.2143 -0.0210
 1024MOL0     H38213  15.016   6.088  11.134 -0.5906 -0.2187 -1.2609
 1024MOL0     H38214  15.209   6.258  10.964  3.5910 -1.8395  0.5187
 1024MOL0     H38215  15.147   6.308  11.123 -2.5366  1.5452 -3.0550
 1024MOL0     H38216  15.298   6.045  11.060 -0.3325  1.0585 -0.6008
 1024MOL0     H38217  15.245   6.101  11.225  0.0930  0.9825  0.1352
 1024MOL0     H38218  15.428   6.265  11.048  0.1807  1.6661  1.5094
 1024MOL0     H38219  15.392   6.273  11.222  2.2505 -0.9630  0.9515
 1024MOL0     H38220  14.388   5.949  10.862 -0.5504 -1.4301  0.6314
 1024MOL0     H38221  14.158   5.868  10.854 -0.0537  0.4309  1.4847
 1024MOL0     H38222  13.815   5.850  10.626 -0.6717  0.3171  1.6553
 1024MOL0     H38223  13.636   5.776  10.464 -0.4312  1.5523 -1.9671
 1024MOL0     H38224  11.536   6.319   9.568  1.6298  0.3123  0.6775
 1024MOL0     H38225  11.299   6.407   9.567  0.5390  0.0706 -0.1389
 1024MOL0     H38226  10.801   6.075   9.749 -0.6120  0.0214  0.4778
 1024MOL0     H38227  10.578   6.128   9.712 -0.9583  0.5165  0.4664
 1024MOL0     H38228  10.403   6.296   9.497 -0.4485  0.1270 -0.3229
 1024MOL0     H38229  10.521   6.429   9.523 -1.1069  3.1544  1.3203
 1024MOL0     H38230  10.358   6.570   9.606  0.1952 -0.2385 -0.6656
 1024MOL0     H38231  10.236   6.439   9.617  1.7434 -3.2262 -0.0408
 1024MOL0     H38232  10.258   6.392   9.362  0.3803 -0.3118 -0.0124
 1024MOL0     H38233  10.372   6.531   9.345  1.9311 -1.5424  0.6708
 1024MOL0     H38234  10.196   6.687   9.396 -0.3094 -0.1733  1.1710
 1024MOL0     H38235  10.147   6.594   9.268 -1.1823  2.4993 -0.1770
 1024MOL0     H38236   9.826   6.525   9.532 -2.0856  2.6619 -2.8594
 1024MOL0     H38237  10.649   6.538   9.759 -0.0306  0.0271 -2.2021
 1024MOL0     H38238  10.938   6.572   9.714  1.2159 -0.5737  0.2014
 1024MOL0     H38239  10.821   6.604   9.846 -1.4874 -1.9796  0.3033
 1024MOL0     H38240  10.973   6.531   9.882  1.3910  5.0170 -0.0569
  11.29094  11.29094  11.29094
